       N       E                     dE             d eps       ncg     rms          ort
DAV:   1     0.241792920422E+04    0.24179E+04   -0.14114E+05  7056   0.152E+03
DAV:   2    -0.221421409420E+03   -0.26394E+04   -0.25446E+04  7056   0.410E+02
DAV:   3    -0.454917029136E+03   -0.23350E+03   -0.22708E+03  7056   0.140E+02
DAV:   4    -0.465379207533E+03   -0.10462E+02   -0.10215E+02  7056   0.314E+01
DAV:   5    -0.466013587148E+03   -0.63438E+00   -0.62814E+00  7056   0.508E+00
SDA:   6    -0.308656478723E+03    0.15736E+03   -0.62814E+00  7056   0.348E+03 0.000E+00
CGA:   7    -0.354357045085E+03   -0.45701E+02   -0.49159E+02  7056   0.430E+02 0.127E+02
CGA:   8    -0.363375154302E+03   -0.90181E+01   -0.90205E+01  7056   0.113E+02-0.227E+00
CGA:   9    -0.366228874547E+03   -0.28537E+01   -0.28504E+01  7056   0.378E+01 0.372E-01
CGA:  10    -0.367154170437E+03   -0.92530E+00   -0.92504E+00  7056   0.136E+01-0.601E-02
CGA:  11    -0.367502542889E+03   -0.34837E+00   -0.34936E+00  7056   0.427E+00-0.176E-01
CGA:  12    -0.367622374503E+03   -0.11983E+00   -0.12027E+00  7056   0.131E+00-0.537E-02
CGA:  13    -0.367657815362E+03   -0.35441E-01   -0.35445E-01  7056   0.399E-01-0.815E-04
CGA:  14    -0.367671006791E+03   -0.13191E-01   -0.13171E-01  7056   0.144E-01 0.177E-03
CGA:  15    -0.367676009405E+03   -0.50026E-02   -0.49475E-02  7056   0.583E-02 0.439E-03
CGA:  16    -0.367678178110E+03   -0.21687E-02   -0.21217E-02  7056   0.227E-02 0.363E-03
CGA:  17    -0.367679140209E+03   -0.96210E-03   -0.98956E-03  7056   0.119E-02-0.155E-03
CGA:  18    -0.367679578062E+03   -0.43785E-03   -0.50980E-03  7056   0.788E-03-0.329E-03
CGA:  19    -0.367679766497E+03   -0.18844E-03   -0.25058E-03  7056   0.560E-03-0.331E-03
CGA:  20    -0.367679835626E+03   -0.69129E-04   -0.70929E-04  7056   0.228E-03 0.427E-04
CGA:  21    -0.367679870429E+03   -0.34803E-04   -0.41654E-04  7056   0.112E-03 0.777E-04
CGA:  22    -0.367679894986E+03   -0.24557E-04   -0.28229E-04  7056   0.605E-04 0.552E-04
CGA:  23    -0.367679912685E+03   -0.17698E-04   -0.18706E-04  7056   0.369E-04 0.236E-04
CGA:  24    -0.367679922343E+03   -0.96585E-05   -0.10517E-04  7056   0.227E-04 0.199E-04
   1 F= -.36767992E+03 E0= -.36767992E+03  d E =-.367680E+03  mag=    12.0000
       N       E                     dE             d eps       ncg     rms          ort
SDA:   1    -0.367682230094E+03   -0.23174E-02    0.00000E+00  7056   0.608E-03 0.000E+00
CGA:   2    -0.367682374865E+03   -0.14477E-03   -0.14529E-03  7056   0.172E-03 0.665E-04
CGA:   3    -0.367682435566E+03   -0.60701E-04   -0.71918E-04  7056   0.157E-03-0.861E-04
CGA:   4    -0.367682448556E+03   -0.12991E-04   -0.17057E-04  7056   0.160E-04 0.281E-04
CGA:   5    -0.367682448738E+03   -0.18176E-06   -0.17954E-05  7056   0.775E-05 0.107E-04
   2 F= -.36768245E+03 E0= -.36768245E+03  d E =-.252639E-02  mag=    12.0000
       N       E                     dE             d eps       ncg     rms          ort
SDA:   1    -0.367412786247E+03    0.26966E+00    0.00000E+00  7056   0.941E+00 0.000E+00
CGA:   2    -0.367664183039E+03   -0.25140E+00   -0.25132E+00  7056   0.308E+00 0.211E-02
CGA:   3    -0.367735755138E+03   -0.71572E-01   -0.71567E-01  7056   0.848E-01-0.204E-02
CGA:   4    -0.367752339406E+03   -0.16584E-01   -0.16583E-01  7056   0.160E-01-0.824E-04
CGA:   5    -0.367755969362E+03   -0.36300E-02   -0.36335E-02  7056   0.452E-02 0.590E-03
CGA:   6    -0.367757298369E+03   -0.13290E-02   -0.13290E-02  7056   0.195E-02 0.475E-06
CGA:   7    -0.367757976667E+03   -0.67830E-03   -0.74403E-03  7056   0.129E-02-0.451E-03
CGA:   8    -0.367758279039E+03   -0.30237E-03   -0.31119E-03  7056   0.477E-03-0.126E-03
CGA:   9    -0.367758379118E+03   -0.10008E-03   -0.10103E-03  7056   0.156E-03 0.827E-04
CGA:  10    -0.367758415272E+03   -0.36155E-04   -0.38323E-04  7056   0.617E-04 0.595E-04
CGA:  11    -0.367758431800E+03   -0.16528E-04   -0.17674E-04  7056   0.278E-04 0.319E-04
CGA:  12    -0.367758443128E+03   -0.11328E-04   -0.10549E-04  7056   0.134E-04 0.563E-05
CGA:  13    -0.367758447187E+03   -0.40592E-05   -0.40430E-05  7056   0.539E-05 0.893E-05
   3 F= -.36775845E+03 E0= -.36775845E+03  d E =-.759984E-01  mag=    12.0000
       N       E                     dE             d eps       ncg     rms          ort
SDA:   1    -0.366492679008E+03    0.12658E+01    0.00000E+00  7056   0.385E+01 0.000E+00
CGA:   2    -0.367484825669E+03   -0.99215E+00   -0.99210E+00  7056   0.123E+01 0.161E-02
CGA:   3    -0.367764288473E+03   -0.27946E+00   -0.27943E+00  7056   0.327E+00-0.297E-02
CGA:   4    -0.367828102974E+03   -0.63815E-01   -0.63813E-01  7056   0.591E-01-0.254E-03
CGA:   5    -0.367841463563E+03   -0.13361E-01   -0.13371E-01  7056   0.169E-01 0.826E-03
CGA:   6    -0.367846258337E+03   -0.47948E-02   -0.47924E-02  7056   0.745E-02 0.597E-04
CGA:   7    -0.367848859043E+03   -0.26007E-02   -0.26687E-02  7056   0.438E-02-0.585E-03
CGA:   8    -0.367850222283E+03   -0.13632E-02   -0.13819E-02  7056   0.183E-02-0.197E-03
CGA:   9    -0.367850731867E+03   -0.50958E-03   -0.50516E-03  7056   0.544E-03 0.115E-03
CGA:  10    -0.367850900128E+03   -0.16826E-03   -0.16545E-03  7056   0.179E-03 0.863E-04
CGA:  11    -0.367850963933E+03   -0.63805E-04   -0.61714E-04  7056   0.740E-04 0.483E-04
CGA:  12    -0.367850994014E+03   -0.30081E-04   -0.28838E-04  7056   0.306E-04 0.249E-04
CGA:  13    -0.367851005793E+03   -0.11778E-04   -0.11503E-04  7056   0.114E-04 0.126E-04
CGA:  14    -0.367851009409E+03   -0.36165E-05   -0.37831E-05  7056   0.444E-05 0.652E-05
   4 F= -.36785101E+03 E0= -.36785101E+03  d E =-.925622E-01  mag=    12.0000
       N       E                     dE             d eps       ncg     rms          ort
SDA:   1    -0.367046395401E+03    0.80461E+00    0.00000E+00  7056   0.242E+01 0.000E+00
CGA:   2    -0.367674317012E+03   -0.62792E+00   -0.62795E+00  7056   0.751E+00 0.276E-02
CGA:   3    -0.367849241702E+03   -0.17492E+00   -0.17490E+00  7056   0.192E+00-0.106E-02
CGA:   4    -0.367886111787E+03   -0.36870E-01   -0.36823E-01  7056   0.359E-01-0.831E-03
CGA:   5    -0.367894216339E+03   -0.81046E-02   -0.81107E-02  7056   0.104E-01 0.191E-03
CGA:   6    -0.367897140711E+03   -0.29244E-02   -0.29199E-02  7056   0.464E-02 0.212E-03
CGA:   7    -0.367898769180E+03   -0.16285E-02   -0.16313E-02  7056   0.268E-02-0.349E-04
CGA:   8    -0.367899703415E+03   -0.93423E-03   -0.93838E-03  7056   0.121E-02-0.484E-04
CGA:   9    -0.367900077535E+03   -0.37412E-03   -0.37396E-03  7056   0.384E-03 0.324E-05
CGA:  10    -0.367900198567E+03   -0.12103E-03   -0.12042E-03  7056   0.125E-03 0.147E-04
CGA:  11    -0.367900244406E+03   -0.45839E-04   -0.44879E-04  7056   0.493E-04 0.129E-04
CGA:  12    -0.367900268435E+03   -0.24028E-04   -0.25674E-04  7056   0.280E-04-0.843E-05
CGA:  13    -0.367900274576E+03   -0.61410E-05   -0.62217E-05  7056   0.853E-05 0.440E-05
   5 F= -.36790027E+03 E0= -.36790027E+03  d E =-.492652E-01  mag=    12.0000
       N       E                     dE             d eps       ncg     rms          ort
SDA:   1    -0.365696203815E+03    0.22041E+01    0.00000E+00  7056   0.608E+01 0.000E+00
CGA:   2    -0.367363002875E+03   -0.16668E+01   -0.16668E+01  7056   0.198E+01 0.226E-03
CGA:   3    -0.367817524447E+03   -0.45452E+00   -0.45448E+00  7056   0.463E+00-0.889E-03
CGA:   4    -0.367904803041E+03   -0.87279E-01   -0.87255E-01  7056   0.873E-01-0.669E-03
CGA:   5    -0.367924591948E+03   -0.19789E-01   -0.19792E-01  7056   0.249E-01 0.497E-04
CGA:   6    -0.367931494456E+03   -0.69025E-02   -0.69019E-02  7056   0.106E-01 0.123E-03
CGA:   7    -0.367935039930E+03   -0.35455E-02   -0.35474E-02  7056   0.599E-02-0.362E-04
CGA:   8    -0.367937141412E+03   -0.21015E-02   -0.21065E-02  7056   0.278E-02-0.671E-04
CGA:   9    -0.367938035921E+03   -0.89451E-03   -0.89676E-03  7056   0.941E-03-0.476E-04
CGA:  10    -0.367938340871E+03   -0.30495E-03   -0.30590E-03  7056   0.325E-03-0.191E-04
CGA:  11    -0.367938461807E+03   -0.12094E-03   -0.12106E-03  7056   0.138E-03-0.133E-05
CGA:  12    -0.367938519785E+03   -0.57978E-04   -0.59658E-04  7056   0.608E-04-0.117E-04
CGA:  13    -0.367938535683E+03   -0.15898E-04   -0.15990E-04  7056   0.157E-04 0.106E-04
CGA:  14    -0.367938541120E+03   -0.54366E-05   -0.54373E-05  7056   0.472E-05 0.204E-05
   6 F= -.36793854E+03 E0= -.36793854E+03  d E =-.382665E-01  mag=    12.0000
       N       E                     dE             d eps       ncg     rms          ort
SDA:   1    -0.365878682906E+03    0.20599E+01    0.00000E+00  7056   0.537E+01 0.000E+00
CGA:   2    -0.367456808713E+03   -0.15781E+01   -0.15782E+01  7056   0.189E+01 0.133E-03
CGA:   3    -0.367862114294E+03   -0.40531E+00   -0.40533E+00  7056   0.402E+00-0.409E-03
CGA:   4    -0.367937540757E+03   -0.75426E-01   -0.75454E-01  7056   0.748E-01-0.436E-04
CGA:   5    -0.367954451725E+03   -0.16911E-01   -0.16919E-01  7056   0.201E-01 0.861E-04
CGA:   6    -0.367959757862E+03   -0.53061E-02   -0.53043E-02  7056   0.766E-02-0.762E-04
CGA:   7    -0.367962198174E+03   -0.24403E-02   -0.24447E-02  7056   0.409E-02-0.140E-03
CGA:   8    -0.367963617344E+03   -0.14192E-02   -0.14241E-02  7056   0.195E-02-0.765E-04
CGA:   9    -0.367964251900E+03   -0.63456E-03   -0.63583E-03  7056   0.693E-03-0.342E-04
CGA:  10    -0.367964481023E+03   -0.22912E-03   -0.22993E-03  7056   0.253E-03-0.192E-04
CGA:  11    -0.367964578801E+03   -0.97778E-04   -0.99339E-04  7056   0.124E-03-0.147E-04
CGA:  12    -0.367964626468E+03   -0.47667E-04   -0.47887E-04  7056   0.510E-04-0.207E-05
CGA:  13    -0.367964643887E+03   -0.17420E-04   -0.17291E-04  7056   0.146E-04 0.348E-05
CGA:  14    -0.367964648716E+03   -0.48287E-05   -0.48286E-05  7056   0.393E-05 0.209E-05
CGA:  15    -0.367964626111E+03    0.22605E-04   -0.12213E-04  7056   0.960E-04-0.189E-04
CGA:  16    -0.367964648165E+03   -0.22054E-04   -0.24453E-04  7056   0.116E-04 0.771E-05
CGA:  17    -0.367964655005E+03   -0.68398E-05   -0.67088E-05  7056   0.144E-04-0.820E-05
   7 F= -.36796466E+03 E0= -.36796466E+03  d E =-.261139E-01  mag=    12.0000
       N       E                     dE             d eps       ncg     rms          ort
SDA:   1    -0.367768340486E+03    0.19631E+00    0.00000E+00  7056   0.546E+00 0.000E+00
CGA:   2    -0.367914489379E+03   -0.14615E+00   -0.14613E+00  7056   0.224E+00-0.487E-03
CGA:   3    -0.367959310184E+03   -0.44821E-01   -0.44942E-01  7056   0.495E-01 0.529E-04
CGA:   4    -0.367969066775E+03   -0.97566E-02   -0.97990E-02  7056   0.929E-02 0.130E-03
CGA:   5    -0.367971113717E+03   -0.20469E-02   -0.20533E-02  7056   0.254E-02 0.215E-04
CGA:   6    -0.367971774850E+03   -0.66113E-03   -0.65618E-03  7056   0.900E-03-0.235E-04
CGA:   7    -0.367972058587E+03   -0.28374E-03   -0.28023E-03  7056   0.418E-03-0.240E-04
CGA:   8    -0.367972200104E+03   -0.14152E-03   -0.14061E-03  7056   0.184E-03-0.866E-05
CGA:   9    -0.367972258352E+03   -0.58248E-04   -0.58246E-04  7056   0.643E-04-0.110E-06
CGA:  10    -0.367972278833E+03   -0.20481E-04   -0.20834E-04  7056   0.225E-04 0.299E-05
CGA:  11    -0.367972288413E+03   -0.95798E-05   -0.95587E-05  7056   0.119E-04-0.680E-06
   8 F= -.36797229E+03 E0= -.36797229E+03  d E =-.763341E-02  mag=    12.0000
       N       E                     dE             d eps       ncg     rms          ort
SDA:   1    -0.367785043981E+03    0.18723E+00    0.00000E+00  7056   0.504E+00 0.000E+00
CGA:   2    -0.367930739011E+03   -0.14570E+00   -0.14571E+00  7056   0.219E+00-0.203E-03
CGA:   3    -0.367972888741E+03   -0.42150E-01   -0.42233E-01  7056   0.423E-01 0.614E-04
CGA:   4    -0.367981037404E+03   -0.81487E-02   -0.81644E-02  7056   0.783E-02 0.531E-04
CGA:   5    -0.367982763852E+03   -0.17264E-02   -0.17298E-02  7056   0.205E-02 0.157E-04
CGA:   6    -0.367983270764E+03   -0.50691E-03   -0.50546E-03  7056   0.663E-03-0.106E-04
CGA:   7    -0.367983474655E+03   -0.20389E-03   -0.20286E-03  7056   0.302E-03-0.132E-04
CGA:   8    -0.367983580357E+03   -0.10570E-03   -0.10544E-03  7056   0.142E-03-0.100E-04
CGA:   9    -0.367983625719E+03   -0.45363E-04   -0.45226E-04  7056   0.496E-04-0.270E-05
CGA:  10    -0.367983639728E+03   -0.14009E-04   -0.14393E-04  7056   0.155E-04 0.461E-05
CGA:  11    -0.367983646858E+03   -0.71296E-05   -0.72117E-05  7056   0.101E-04-0.160E-05
   9 F= -.36798365E+03 E0= -.36798365E+03  d E =-.113584E-01  mag=    12.0000
       N       E                     dE             d eps       ncg     rms          ort
SDA:   1    -0.366672818824E+03    0.13108E+01    0.00000E+00  7056   0.335E+01 0.000E+00
CGA:   2    -0.367673833337E+03   -0.10010E+01   -0.10013E+01  7056   0.133E+01 0.808E-03
CGA:   3    -0.367932278701E+03   -0.25845E+00   -0.25872E+00  7056   0.262E+00 0.177E-04
CGA:   4    -0.367981966064E+03   -0.49687E-01   -0.49675E-01  7056   0.473E-01-0.148E-03
CGA:   5    -0.367992403599E+03   -0.10438E-01   -0.10440E-01  7056   0.117E-01-0.186E-05
CGA:   6    -0.367995237341E+03   -0.28337E-02   -0.28320E-02  7056   0.358E-02-0.225E-04
CGA:   7    -0.367996317151E+03   -0.10798E-02   -0.10780E-02  7056   0.162E-02-0.431E-04
CGA:   8    -0.367996890280E+03   -0.57313E-03   -0.57384E-03  7056   0.794E-03-0.423E-04
CGA:   9    -0.367997153133E+03   -0.26285E-03   -0.26279E-03  7056   0.291E-03-0.222E-04
CGA:  10    -0.367997244641E+03   -0.91508E-04   -0.91508E-04  7056   0.971E-04-0.526E-07
CGA:  11    -0.367997285314E+03   -0.40672E-04   -0.41736E-04  7056   0.573E-04-0.120E-04
CGA:  12    -0.367997306037E+03   -0.20724E-04   -0.20655E-04  7056   0.270E-04 0.104E-05
CGA:  13    -0.367997316083E+03   -0.10046E-04   -0.10016E-04  7056   0.951E-05 0.190E-05
CGA:  14    -0.367997318798E+03   -0.27143E-05   -0.28793E-05  7056   0.261E-05 0.246E-05
  10 F= -.36799732E+03 E0= -.36799732E+03  d E =-.136719E-01  mag=    12.0000
       N       E                     dE             d eps       ncg     rms          ort
SDA:   1    -0.359880936502E+03    0.81164E+01    0.00000E+00  7056   0.197E+02 0.000E+00
CGA:   2    -0.365541767934E+03   -0.56608E+01   -0.56648E+01  7056   0.869E+01 0.170E-01
CGA:   3    -0.367241639304E+03   -0.16999E+01   -0.17023E+01  7056   0.180E+01 0.684E-03
CGA:   4    -0.367598269718E+03   -0.35663E+00   -0.35667E+00  7056   0.356E+00-0.307E-03
CGA:   5    -0.367679042717E+03   -0.80773E-01   -0.80828E-01  7056   0.100E+00 0.223E-03
CGA:   6    -0.367704901063E+03   -0.25858E-01   -0.25864E-01  7056   0.355E-01 0.118E-04
CGA:   7    -0.367715291910E+03   -0.10391E-01   -0.10389E-01  7056   0.137E-01-0.755E-04
CGA:   8    -0.367719767544E+03   -0.44756E-02   -0.44759E-02  7056   0.506E-02-0.549E-04
CGA:   9    -0.367721357055E+03   -0.15895E-02   -0.15890E-02  7056   0.158E-02-0.767E-04
CGA:  10    -0.367721858904E+03   -0.50185E-03   -0.50189E-03  7056   0.490E-03-0.390E-04
CGA:  11    -0.367722038970E+03   -0.18007E-03   -0.18060E-03  7056   0.215E-03-0.976E-05
CGA:  12    -0.367722119991E+03   -0.81021E-04   -0.79748E-04  7056   0.995E-04 0.239E-04
CGA:  13    -0.367722162462E+03   -0.42470E-04   -0.41729E-04  7056   0.462E-04 0.148E-04
CGA:  14    -0.367722176872E+03   -0.14410E-04   -0.15180E-04  7056   0.171E-04 0.175E-04
CGA:  15    -0.367722183455E+03   -0.65835E-05   -0.68473E-05  7056   0.698E-05 0.715E-05
  11 F= -.36772218E+03 E0= -.36772218E+03  d E =0.275135E+00  mag=    12.0000
       N       E                     dE             d eps       ncg     rms          ort
SDA:   1    -0.364270913827E+03    0.34513E+01    0.00000E+00  7056   0.886E+01 0.000E+00
CGA:   2    -0.367112539116E+03   -0.28416E+01   -0.28416E+01  7056   0.279E+01-0.229E-01
CGA:   3    -0.367798535713E+03   -0.68600E+00   -0.68645E+00  7056   0.553E+00 0.279E-02
CGA:   4    -0.367923907143E+03   -0.12537E+00   -0.12531E+00  7056   0.155E+00-0.236E-03
CGA:   5    -0.367959501294E+03   -0.35594E-01   -0.35581E-01  7056   0.487E-01-0.157E-03
CGA:   6    -0.367973425436E+03   -0.13924E-01   -0.13918E-01  7056   0.183E-01-0.273E-03
CGA:   7    -0.367978585638E+03   -0.51602E-02   -0.51585E-02  7056   0.717E-02-0.674E-04
CGA:   8    -0.367980716281E+03   -0.21306E-02   -0.21311E-02  7056   0.223E-02 0.528E-04
CGA:   9    -0.367981424051E+03   -0.70777E-03   -0.70791E-03  7056   0.694E-03-0.155E-04
CGA:  10    -0.367981652445E+03   -0.22839E-03   -0.22936E-03  7056   0.230E-03-0.369E-04
CGA:  11    -0.367981731246E+03   -0.78801E-04   -0.79275E-04  7056   0.937E-04-0.864E-05
CGA:  12    -0.367981766941E+03   -0.35695E-04   -0.35824E-04  7056   0.447E-04-0.148E-05
CGA:  13    -0.367981782766E+03   -0.15825E-04   -0.15655E-04  7056   0.209E-04 0.413E-05
CGA:  14    -0.367981792305E+03   -0.95388E-05   -0.14240E-04  7056   0.354E-04-0.154E-04
  12 F= -.36798179E+03 E0= -.36798179E+03  d E =-.259609E+00  mag=    12.0000
       N       E                     dE             d eps       ncg     rms          ort
SDA:   1    -0.367930739625E+03    0.51043E-01    0.00000E+00  7056   0.202E+00 0.000E+00
CGA:   2    -0.367995085951E+03   -0.64346E-01   -0.64350E-01  7056   0.703E-01 0.604E-03
CGA:   3    -0.368011573853E+03   -0.16488E-01   -0.16465E-01  7056   0.162E-01-0.294E-03
CGA:   4    -0.368014851117E+03   -0.32773E-02   -0.32745E-02  7056   0.398E-02-0.342E-04
CGA:   5    -0.368015800705E+03   -0.94959E-03   -0.94924E-03  7056   0.119E-02-0.493E-05
CGA:   6    -0.368016122841E+03   -0.32214E-03   -0.32384E-03  7056   0.443E-03 0.451E-04
CGA:   7    -0.368016244190E+03   -0.12135E-03   -0.12262E-03  7056   0.154E-03 0.314E-04
CGA:   8    -0.368016300813E+03   -0.56623E-04   -0.56827E-04  7056   0.602E-04-0.527E-05
CGA:   9    -0.368016319870E+03   -0.19057E-04   -0.19171E-04  7056   0.200E-04-0.516E-05
CGA:  10    -0.368016324660E+03   -0.47909E-05   -0.48664E-05  7056   0.489E-05 0.175E-05
  13 F= -.36801632E+03 E0= -.36801632E+03  d E =-.345324E-01  mag=    12.0000
       N       E                     dE             d eps       ncg     rms          ort
SDA:   1    -0.367834241716E+03    0.18208E+00    0.00000E+00  7056   0.466E+00 0.000E+00
CGA:   2    -0.367977118954E+03   -0.14288E+00   -0.14288E+00  7056   0.189E+00 0.133E-02
CGA:   3    -0.368016652007E+03   -0.39533E-01   -0.39510E-01  7056   0.442E-01-0.424E-03
CGA:   4    -0.368025527599E+03   -0.88756E-02   -0.88546E-02  7056   0.946E-02-0.229E-03
CGA:   5    -0.368027772738E+03   -0.22451E-02   -0.22442E-02  7056   0.286E-02-0.182E-04
CGA:   6    -0.368028505931E+03   -0.73319E-03   -0.73687E-03  7056   0.104E-02 0.102E-03
CGA:   7    -0.368028794315E+03   -0.28838E-03   -0.29022E-03  7056   0.347E-03 0.827E-04
CGA:   8    -0.368028922760E+03   -0.12844E-03   -0.12842E-03  7056   0.140E-03 0.431E-06
CGA:   9    -0.368028968504E+03   -0.45745E-04   -0.46251E-04  7056   0.502E-04-0.137E-04
CGA:  10    -0.368028981269E+03   -0.12764E-04   -0.12785E-04  7056   0.125E-04 0.155E-05
CGA:  11    -0.368028985426E+03   -0.41578E-05   -0.41424E-05  7056   0.486E-05 0.570E-06
  14 F= -.36802899E+03 E0= -.36802899E+03  d E =-.126608E-01  mag=    12.0000
       N       E                     dE             d eps       ncg     rms          ort
SDA:   1    -0.368024473201E+03    0.45081E-02    0.00000E+00  7056   0.171E-01 0.000E+00
CGA:   2    -0.368029191919E+03   -0.47187E-02   -0.47206E-02  7056   0.806E-02 0.615E-04
CGA:   3    -0.368030746950E+03   -0.15550E-02   -0.15512E-02  7056   0.145E-02-0.445E-04
CGA:   4    -0.368031047291E+03   -0.30034E-03   -0.29872E-03  7056   0.310E-03-0.186E-04
CGA:   5    -0.368031115797E+03   -0.68506E-04   -0.68032E-04  7056   0.825E-04-0.685E-05
CGA:   6    -0.368031133962E+03   -0.18165E-04   -0.18382E-04  7056   0.241E-04 0.351E-05
CGA:   7    -0.368031138939E+03   -0.49776E-05   -0.54387E-05  7056   0.751E-05 0.663E-05
  15 F= -.36803114E+03 E0= -.36803114E+03  d E =-.215351E-02  mag=    12.0000
       N       E                     dE             d eps       ncg     rms          ort
SDA:   1    -0.367937690436E+03    0.93444E-01    0.00000E+00  7056   0.250E+00 0.000E+00
CGA:   2    -0.368006787072E+03   -0.69097E-01   -0.69097E-01  7056   0.121E+00 0.116E-03
CGA:   3    -0.368029626360E+03   -0.22839E-01   -0.22837E-01  7056   0.207E-01-0.177E-03
CGA:   4    -0.368033848872E+03   -0.42225E-02   -0.42196E-02  7056   0.444E-02-0.473E-04
CGA:   5    -0.368034809153E+03   -0.96028E-03   -0.95944E-03  7056   0.112E-02-0.171E-04
CGA:   6    -0.368035078714E+03   -0.26956E-03   -0.26984E-03  7056   0.342E-03 0.981E-05
CGA:   7    -0.368035172221E+03   -0.93507E-04   -0.93405E-04  7056   0.119E-03 0.261E-04
CGA:   8    -0.368035212776E+03   -0.40556E-04   -0.40009E-04  7056   0.458E-04 0.123E-04
CGA:   9    -0.368035229561E+03   -0.16785E-04   -0.16779E-04  7056   0.169E-04 0.723E-07
CGA:  10    -0.368035235581E+03   -0.60198E-05   -0.62889E-05  7056   0.688E-05-0.273E-05
  16 F= -.36803524E+03 E0= -.36803524E+03  d E =-.409664E-02  mag=    12.0000
       N       E                     dE             d eps       ncg     rms          ort
SDA:   1    -0.367964774796E+03    0.70455E-01    0.00000E+00  7056   0.176E+00 0.000E+00
CGA:   2    -0.368018324257E+03   -0.53549E-01   -0.53550E-01  7056   0.850E-01-0.791E-04
CGA:   3    -0.368033565587E+03   -0.15241E-01   -0.15237E-01  7056   0.130E-01-0.152E-03
CGA:   4    -0.368036148178E+03   -0.25826E-02   -0.25907E-02  7056   0.262E-02 0.910E-04
CGA:   5    -0.368036716306E+03   -0.56813E-03   -0.57010E-03  7056   0.624E-03 0.298E-04
CGA:   6    -0.368036870495E+03   -0.15419E-03   -0.15402E-03  7056   0.186E-03-0.536E-05
CGA:   7    -0.368036923414E+03   -0.52919E-04   -0.52884E-04  7056   0.739E-04 0.297E-05
CGA:   8    -0.368036945314E+03   -0.21900E-04   -0.21753E-04  7056   0.270E-04 0.105E-04
CGA:   9    -0.368036954319E+03   -0.90044E-05   -0.89375E-05  7056   0.909E-05 0.496E-05
  17 F= -.36803695E+03 E0= -.36803695E+03  d E =-.171874E-02  mag=    12.0000
       N       E                     dE             d eps       ncg     rms          ort
SDA:   1    -0.367791207881E+03    0.24574E+00    0.00000E+00  7056   0.599E+00 0.000E+00
CGA:   2    -0.367983438156E+03   -0.19223E+00   -0.19223E+00  7056   0.239E+00-0.242E-03
CGA:   3    -0.368027216371E+03   -0.43778E-01   -0.43809E-01  7056   0.434E-01-0.195E-04
CGA:   4    -0.368035680985E+03   -0.84646E-02   -0.84787E-02  7056   0.844E-02 0.149E-03
CGA:   5    -0.368037533270E+03   -0.18523E-02   -0.18535E-02  7056   0.213E-02 0.170E-04
CGA:   6    -0.368038051173E+03   -0.51790E-03   -0.51749E-03  7056   0.638E-03-0.134E-04
CGA:   7    -0.368038235586E+03   -0.18441E-03   -0.18427E-03  7056   0.263E-03 0.766E-05
CGA:   8    -0.368038321820E+03   -0.86234E-04   -0.85206E-04  7056   0.105E-03 0.220E-04
CGA:   9    -0.368038359244E+03   -0.37424E-04   -0.37074E-04  7056   0.381E-04 0.692E-05
CGA:  10    -0.368038374869E+03   -0.15625E-04   -0.16732E-04  7056   0.208E-04-0.824E-05
CGA:  11    -0.368038380127E+03   -0.52580E-05   -0.52395E-05  7056   0.813E-05 0.498E-06
  18 F= -.36803838E+03 E0= -.36803838E+03  d E =-.142581E-02  mag=    12.0000
       N       E                     dE             d eps       ncg     rms          ort
SDA:   1    -0.366331479393E+03    0.17069E+01    0.00000E+00  7056   0.409E+01 0.000E+00
CGA:   2    -0.367686188475E+03   -0.13547E+01   -0.13547E+01  7056   0.154E+01-0.293E-04
CGA:   3    -0.367971088284E+03   -0.28490E+00   -0.28508E+00  7056   0.285E+00-0.434E-03
CGA:   4    -0.368025792083E+03   -0.54704E-01   -0.54716E-01  7056   0.548E-01-0.106E-05
CGA:   5    -0.368037949790E+03   -0.12158E-01   -0.12158E-01  7056   0.138E-01-0.116E-04
CGA:   6    -0.368041259671E+03   -0.33099E-02   -0.33104E-02  7056   0.406E-02 0.127E-04
CGA:   7    -0.368042462486E+03   -0.12028E-02   -0.12020E-02  7056   0.176E-02 0.333E-04
CGA:   8    -0.368043075080E+03   -0.61259E-03   -0.61125E-03  7056   0.787E-03 0.188E-04
CGA:   9    -0.368043345729E+03   -0.27065E-03   -0.27216E-03  7056   0.289E-03-0.233E-04
CGA:  10    -0.368043441306E+03   -0.95577E-04   -0.97289E-04  7056   0.105E-03-0.256E-04
CGA:  11    -0.368043475680E+03   -0.34374E-04   -0.34271E-04  7056   0.441E-04 0.138E-05
CGA:  12    -0.368043491292E+03   -0.15612E-04   -0.15104E-04  7056   0.199E-04 0.100E-04
CGA:  13    -0.368043499320E+03   -0.80280E-05   -0.78040E-05  7056   0.858E-05 0.750E-05
  19 F= -.36804350E+03 E0= -.36804350E+03  d E =-.511919E-02  mag=    12.0000
       N       E                     dE             d eps       ncg     rms          ort
SDA:   1    -0.359715181937E+03    0.83283E+01    0.00000E+00  7056   0.202E+02 0.000E+00
CGA:   2    -0.366239593039E+03   -0.65244E+01   -0.65238E+01  7056   0.767E+01 0.649E-02
CGA:   3    -0.367673209418E+03   -0.14336E+01   -0.14350E+01  7056   0.145E+01-0.111E-02
CGA:   4    -0.367950359943E+03   -0.27715E+00   -0.27721E+00  7056   0.282E+00-0.328E-03
CGA:   5    -0.368013201826E+03   -0.62842E-01   -0.62849E-01  7056   0.735E-01-0.959E-05
CGA:   6    -0.368031250081E+03   -0.18048E-01   -0.18047E-01  7056   0.229E-01-0.771E-04
CGA:   7    -0.368038143768E+03   -0.68937E-02   -0.68947E-02  7056   0.102E-01-0.494E-04
CGA:   8    -0.368041663716E+03   -0.35199E-02   -0.35241E-02  7056   0.444E-02-0.659E-04
CGA:   9    -0.368043125272E+03   -0.14616E-02   -0.14688E-02  7056   0.153E-02-0.146E-03
CGA:  10    -0.368043617831E+03   -0.49256E-03   -0.49740E-03  7056   0.529E-03-0.957E-04
CGA:  11    -0.368043804881E+03   -0.18705E-03   -0.18756E-03  7056   0.242E-03-0.588E-05
CGA:  12    -0.368043895295E+03   -0.90414E-04   -0.87135E-04  7056   0.110E-03 0.456E-04
CGA:  13    -0.368043945195E+03   -0.49900E-04   -0.48034E-04  7056   0.478E-04 0.263E-04
CGA:  14    -0.368043962653E+03   -0.17458E-04   -0.17533E-04  7056   0.166E-04 0.196E-04
CGA:  15    -0.368043970321E+03   -0.76676E-05   -0.75337E-05  7056   0.690E-05 0.600E-05
  20 F= -.36804397E+03 E0= -.36804397E+03  d E =-.471001E-03  mag=    12.0000
       N       E                     dE             d eps       ncg     rms          ort
SDA:   1    -0.367727231877E+03    0.31673E+00    0.00000E+00  7056   0.893E+00 0.000E+00
CGA:   2    -0.367956298483E+03   -0.22907E+00   -0.22913E+00  7056   0.392E+00 0.865E-03
CGA:   3    -0.368034601150E+03   -0.78303E-01   -0.78319E-01  7056   0.816E-01-0.353E-03
CGA:   4    -0.368050628912E+03   -0.16028E-01   -0.16018E-01  7056   0.152E-01-0.127E-03
CGA:   5    -0.368053872917E+03   -0.32440E-02   -0.32469E-02  7056   0.387E-02 0.350E-04
CGA:   6    -0.368054842937E+03   -0.97002E-03   -0.96961E-03  7056   0.127E-02-0.138E-04
CGA:   7    -0.368055218608E+03   -0.37567E-03   -0.37598E-03  7056   0.539E-03-0.191E-04
CGA:   8    -0.368055399436E+03   -0.18083E-03   -0.18085E-03  7056   0.234E-03-0.546E-06
CGA:   9    -0.368055476416E+03   -0.76980E-04   -0.76934E-04  7056   0.859E-04 0.912E-06
CGA:  10    -0.368055505736E+03   -0.29321E-04   -0.29303E-04  7056   0.321E-04 0.297E-06
CGA:  11    -0.368055518607E+03   -0.12871E-04   -0.12921E-04  7056   0.165E-04-0.477E-06
CGA:  12    -0.368055522883E+03   -0.42765E-05   -0.44161E-05  7056   0.653E-05 0.602E-05
  21 F= -.36805552E+03 E0= -.36805552E+03  d E =-.115526E-01  mag=    12.0000
       N       E                     dE             d eps       ncg     rms          ort
SDA:   1    -0.367856076307E+03    0.19944E+00    0.00000E+00  7056   0.486E+00 0.000E+00
CGA:   2    -0.368014222630E+03   -0.15815E+00   -0.15816E+00  7056   0.199E+00-0.506E-03
CGA:   3    -0.368050195621E+03   -0.35973E-01   -0.36046E-01  7056   0.356E-01 0.366E-03
CGA:   4    -0.368057225055E+03   -0.70294E-02   -0.70160E-02  7056   0.702E-02-0.167E-03
CGA:   5    -0.368058783570E+03   -0.15585E-02   -0.15543E-02  7056   0.184E-02-0.729E-04
CGA:   6    -0.368059219047E+03   -0.43548E-03   -0.43564E-03  7056   0.536E-03 0.334E-05
CGA:   7    -0.368059380852E+03   -0.16180E-03   -0.16217E-03  7056   0.232E-03-0.148E-04
CGA:   8    -0.368059465462E+03   -0.84610E-04   -0.89844E-04  7056   0.132E-03-0.440E-04
CGA:   9    -0.368059499700E+03   -0.34238E-04   -0.34998E-04  7056   0.454E-04-0.185E-04
CGA:  10    -0.368059509553E+03   -0.98535E-05   -0.99704E-05  7056   0.125E-04 0.371E-05
  22 F= -.36805951E+03 E0= -.36805951E+03  d E =-.398667E-02  mag=    12.0000
       N       E                     dE             d eps       ncg     rms          ort
SDA:   1    -0.367926065064E+03    0.13343E+00    0.00000E+00  7056   0.339E+00 0.000E+00
CGA:   2    -0.368029309932E+03   -0.10324E+00   -0.10324E+00  7056   0.136E+00 0.278E-03
CGA:   3    -0.368055353485E+03   -0.26044E-01   -0.26081E-01  7056   0.259E-01 0.233E-03
CGA:   4    -0.368060268914E+03   -0.49154E-02   -0.49073E-02  7056   0.488E-02-0.103E-03
CGA:   5    -0.368061323975E+03   -0.10551E-02   -0.10551E-02  7056   0.123E-02-0.795E-06
CGA:   6    -0.368061610509E+03   -0.28653E-03   -0.28769E-03  7056   0.353E-03 0.299E-04
CGA:   7    -0.368061714387E+03   -0.10388E-03   -0.10363E-03  7056   0.151E-03 0.158E-04
CGA:   8    -0.368061766121E+03   -0.51735E-04   -0.50835E-04  7056   0.656E-04 0.179E-04
CGA:   9    -0.368061789964E+03   -0.23842E-04   -0.23451E-04  7056   0.248E-04 0.855E-05
CGA:  10    -0.368061800783E+03   -0.10819E-04   -0.11198E-04  7056   0.133E-04-0.310E-05
CGA:  11    -0.368061804628E+03   -0.38453E-05   -0.38006E-05  7056   0.530E-05 0.102E-05
  23 F= -.36806180E+03 E0= -.36806180E+03  d E =-.229507E-02  mag=    12.0000
       N       E                     dE             d eps       ncg     rms          ort
SDA:   1    -0.363217345457E+03    0.48445E+01    0.00000E+00  7056   0.121E+02 0.000E+00
CGA:   2    -0.366866476669E+03   -0.36491E+01   -0.36487E+01  7056   0.505E+01 0.985E-02
CGA:   3    -0.367825710436E+03   -0.95923E+00   -0.96007E+00  7056   0.947E+00 0.149E-02
CGA:   4    -0.368005310728E+03   -0.17960E+00   -0.17951E+00  7056   0.179E+00-0.167E-02
CGA:   5    -0.368044440454E+03   -0.39130E-01   -0.39126E-01  7056   0.462E-01-0.148E-03
CGA:   6    -0.368055563284E+03   -0.11123E-01   -0.11131E-01  7056   0.140E-01 0.257E-03
CGA:   7    -0.368059763550E+03   -0.42003E-02   -0.41988E-02  7056   0.628E-02 0.464E-04
CGA:   8    -0.368061965811E+03   -0.22023E-02   -0.22038E-02  7056   0.293E-02-0.214E-04
CGA:   9    -0.368062949467E+03   -0.98366E-03   -0.98753E-03  7056   0.108E-02-0.623E-04
CGA:  10    -0.368063312093E+03   -0.36263E-03   -0.36828E-03  7056   0.413E-03-0.801E-04
CGA:  11    -0.368063456496E+03   -0.14440E-03   -0.14447E-03  7056   0.187E-03-0.867E-06
CGA:  12    -0.368063527602E+03   -0.71105E-04   -0.68411E-04  7056   0.827E-04 0.337E-04
CGA:  13    -0.368063562314E+03   -0.34713E-04   -0.33485E-04  7056   0.320E-04 0.229E-04
CGA:  14    -0.368063577605E+03   -0.15291E-04   -0.14824E-04  7056   0.119E-04 0.669E-05
CGA:  15    -0.368063581364E+03   -0.37587E-05   -0.38981E-05  7056   0.415E-05 0.546E-05
  24 F= -.36806358E+03 E0= -.36806358E+03  d E =-.177674E-02  mag=    12.0000
       N       E                     dE             d eps       ncg     rms          ort
SDA:   1    -0.365664293803E+03    0.23993E+01    0.00000E+00  7056   0.612E+01 0.000E+00
CGA:   2    -0.367463924577E+03   -0.17996E+01   -0.17996E+01  7056   0.251E+01 0.521E-02
CGA:   3    -0.367948843082E+03   -0.48492E+00   -0.48528E+00  7056   0.492E+00 0.941E-04
CGA:   4    -0.368042398065E+03   -0.93555E-01   -0.93457E-01  7056   0.926E-01-0.130E-02
CGA:   5    -0.368062512828E+03   -0.20115E-01   -0.20104E-01  7056   0.237E-01-0.187E-03
CGA:   6    -0.368068187691E+03   -0.56749E-02   -0.56827E-02  7056   0.713E-02 0.181E-03
CGA:   7    -0.368070290872E+03   -0.21032E-02   -0.21019E-02  7056   0.309E-02 0.903E-04
CGA:   8    -0.368071384957E+03   -0.10941E-02   -0.10934E-02  7056   0.142E-02 0.909E-05
CGA:   9    -0.368071869637E+03   -0.48468E-03   -0.48648E-03  7056   0.542E-03-0.313E-04
CGA:  10    -0.368072053937E+03   -0.18430E-03   -0.18755E-03  7056   0.214E-03-0.480E-04
CGA:  11    -0.368072129378E+03   -0.75440E-04   -0.76589E-04  7056   0.102E-03-0.112E-04
CGA:  12    -0.368072165022E+03   -0.35645E-04   -0.34536E-04  7056   0.429E-04 0.174E-04
CGA:  13    -0.368072182778E+03   -0.17755E-04   -0.17269E-04  7056   0.172E-04 0.105E-04
CGA:  14    -0.368072189405E+03   -0.66274E-05   -0.65828E-05  7056   0.590E-05 0.598E-05
  25 F= -.36807219E+03 E0= -.36807219E+03  d E =-.860804E-02  mag=    12.0000
       N       E                     dE             d eps       ncg     rms          ort
SDA:   1    -0.366490526832E+03    0.15817E+01    0.00000E+00  7056   0.408E+01 0.000E+00
CGA:   2    -0.367652873735E+03   -0.11623E+01   -0.11623E+01  7056   0.175E+01-0.309E-02
CGA:   3    -0.367991608845E+03   -0.33874E+00   -0.33893E+00  7056   0.341E+00-0.117E-02
CGA:   4    -0.368056002763E+03   -0.64394E-01   -0.64496E-01  7056   0.631E-01 0.816E-03
CGA:   5    -0.368069653797E+03   -0.13651E-01   -0.13666E-01  7056   0.161E-01 0.175E-03
CGA:   6    -0.368073693089E+03   -0.40393E-02   -0.40281E-02  7056   0.515E-02-0.294E-03
CGA:   7    -0.368075236008E+03   -0.15429E-02   -0.15473E-02  7056   0.237E-02-0.229E-03
CGA:   8    -0.368076047763E+03   -0.81176E-03   -0.82304E-03  7056   0.116E-02-0.150E-03
CGA:   9    -0.368076414109E+03   -0.36635E-03   -0.36967E-03  7056   0.429E-03-0.686E-04
CGA:  10    -0.368076540762E+03   -0.12665E-03   -0.12647E-03  7056   0.138E-03 0.916E-05
CGA:  11    -0.368076590775E+03   -0.50013E-04   -0.49257E-04  7056   0.609E-04 0.140E-04
CGA:  12    -0.368076618259E+03   -0.27483E-04   -0.26728E-04  7056   0.316E-04 0.745E-05
CGA:  13    -0.368076631822E+03   -0.13564E-04   -0.13212E-04  7056   0.122E-04 0.503E-05
CGA:  14    -0.368076635592E+03   -0.37701E-05   -0.39024E-05  7056   0.384E-05 0.444E-05
  26 F= -.36807664E+03 E0= -.36807664E+03  d E =-.444619E-02  mag=    12.0000
       N       E                     dE             d eps       ncg     rms          ort
SDA:   1    -0.367964008756E+03    0.11262E+00    0.00000E+00  7056   0.297E+00 0.000E+00
CGA:   2    -0.368043554587E+03   -0.79546E-01   -0.79532E-01  7056   0.124E+00-0.598E-03
CGA:   3    -0.368068851661E+03   -0.25297E-01   -0.25283E-01  7056   0.279E-01-0.302E-03
CGA:   4    -0.368074120966E+03   -0.52693E-02   -0.52996E-02  7056   0.516E-02 0.267E-03
CGA:   5    -0.368075254222E+03   -0.11333E-02   -0.11381E-02  7056   0.140E-02 0.650E-04
CGA:   6    -0.368075636511E+03   -0.38229E-03   -0.38094E-03  7056   0.535E-03-0.741E-04
CGA:   7    -0.368075794472E+03   -0.15796E-03   -0.15933E-03  7056   0.251E-03-0.498E-04
CGA:   8    -0.368075866026E+03   -0.71554E-04   -0.71578E-04  7056   0.935E-04-0.995E-06
CGA:   9    -0.368075893332E+03   -0.27306E-04   -0.27282E-04  7056   0.301E-04 0.677E-05
CGA:  10    -0.368075903392E+03   -0.10060E-04   -0.99952E-05  7056   0.109E-04 0.320E-05
CGA:  11    -0.368075907877E+03   -0.44847E-05   -0.44043E-05  7056   0.569E-05 0.109E-05
  27 F= -.36807591E+03 E0= -.36807591E+03  d E =0.727716E-03  mag=    12.0000
       N       E                     dE             d eps       ncg     rms          ort
SDA:   1    -0.367943175892E+03    0.13273E+00    0.00000E+00  7056   0.343E+00 0.000E+00
CGA:   2    -0.368043384594E+03   -0.10021E+00   -0.10022E+00  7056   0.146E+00 0.767E-03
CGA:   3    -0.368071324012E+03   -0.27939E-01   -0.27989E-01  7056   0.276E-01 0.248E-03
CGA:   4    -0.368076670378E+03   -0.53464E-02   -0.53145E-02  7056   0.523E-02-0.322E-03
CGA:   5    -0.368077790950E+03   -0.11206E-02   -0.11162E-02  7056   0.132E-02-0.610E-04
CGA:   6    -0.368078079507E+03   -0.28856E-03   -0.29316E-03  7056   0.347E-03 0.737E-04
CGA:   7    -0.368078174140E+03   -0.94632E-04   -0.95818E-04  7056   0.133E-03 0.517E-04
CGA:   8    -0.368078225605E+03   -0.51466E-04   -0.50546E-04  7056   0.659E-04 0.190E-04
CGA:   9    -0.368078252205E+03   -0.26600E-04   -0.26427E-04  7056   0.298E-04 0.261E-05
CGA:  10    -0.368078263051E+03   -0.10845E-04   -0.10982E-04  7056   0.121E-04-0.210E-05
CGA:  11    -0.368078266743E+03   -0.36920E-05   -0.36582E-05  7056   0.480E-05 0.103E-05
  28 F= -.36807827E+03 E0= -.36807827E+03  d E =-.235887E-02  mag=    12.0000
       N       E                     dE             d eps       ncg     rms          ort
SDA:   1    -0.367906854836E+03    0.17141E+00    0.00000E+00  7056   0.401E+00 0.000E+00
CGA:   2    -0.368045657383E+03   -0.13880E+00   -0.13881E+00  7056   0.137E+00-0.173E-03
CGA:   3    -0.368071287113E+03   -0.25630E-01   -0.25660E-01  7056   0.253E-01 0.143E-03
CGA:   4    -0.368076205676E+03   -0.49186E-02   -0.49141E-02  7056   0.507E-02-0.625E-04
CGA:   5    -0.368077340093E+03   -0.11344E-02   -0.11318E-02  7056   0.126E-02-0.429E-04
CGA:   6    -0.368077625338E+03   -0.28524E-03   -0.28740E-03  7056   0.352E-03 0.394E-04
CGA:   7    -0.368077718201E+03   -0.92863E-04   -0.94055E-04  7056   0.130E-03 0.544E-04
CGA:   8    -0.368077767149E+03   -0.48948E-04   -0.48102E-04  7056   0.602E-04 0.205E-04
CGA:   9    -0.368077792560E+03   -0.25411E-04   -0.25425E-04  7056   0.277E-04-0.168E-06
CGA:  10    -0.368077800463E+03   -0.79033E-05   -0.79017E-05  7056   0.847E-05 0.237E-05
  29 F= -.36807780E+03 E0= -.36807780E+03  d E =0.466280E-03  mag=    12.0000
       N       E                     dE             d eps       ncg     rms          ort
SDA:   1    -0.356540445625E+03    0.11537E+02    0.00000E+00  7056   0.273E+02 0.000E+00
CGA:   2    -0.365783984554E+03   -0.92435E+01   -0.92437E+01  7056   0.935E+01-0.866E-02
CGA:   3    -0.367570573251E+03   -0.17866E+01   -0.17881E+01  7056   0.176E+01 0.581E-04
CGA:   4    -0.367910376829E+03   -0.33980E+00   -0.33995E+00  7056   0.356E+00 0.169E-03
CGA:   5    -0.367990255711E+03   -0.79879E-01   -0.79851E-01  7056   0.908E-01-0.610E-03
CGA:   6    -0.368012421968E+03   -0.22166E-01   -0.22161E-01  7056   0.286E-01-0.229E-03
CGA:   7    -0.368020943501E+03   -0.85215E-02   -0.85191E-02  7056   0.125E-01 0.829E-04
CGA:   8    -0.368025255111E+03   -0.43116E-02   -0.43282E-02  7056   0.546E-02-0.230E-03
CGA:   9    -0.368027061531E+03   -0.18064E-02   -0.18255E-02  7056   0.192E-02-0.300E-03
CGA:  10    -0.368027650925E+03   -0.58939E-03   -0.59377E-03  7056   0.637E-03-0.929E-04
CGA:  11    -0.368027867323E+03   -0.21640E-03   -0.21354E-03  7056   0.277E-03 0.407E-04
CGA:  12    -0.368027978591E+03   -0.11127E-03   -0.10605E-03  7056   0.143E-03 0.707E-04
CGA:  13    -0.368028040402E+03   -0.61811E-04   -0.59356E-04  7056   0.649E-04 0.592E-04
CGA:  14    -0.368028065935E+03   -0.25533E-04   -0.25897E-04  7056   0.268E-04 0.389E-04
CGA:  15    -0.368028075032E+03   -0.90970E-05   -0.87580E-05  7056   0.124E-04 0.963E-05
  30 F= -.36802808E+03 E0= -.36802808E+03  d E =0.497254E-01  mag=    12.0000
       N       E                     dE             d eps       ncg     rms          ort
SDA:   1    -0.355507495018E+03    0.12521E+02    0.00000E+00  7056   0.296E+02 0.000E+00
CGA:   2    -0.365491468010E+03   -0.99840E+01   -0.99847E+01  7056   0.106E+02-0.191E-01
CGA:   3    -0.367479673064E+03   -0.19882E+01   -0.19908E+01  7056   0.203E+01 0.398E-02
CGA:   4    -0.367872480820E+03   -0.39281E+00   -0.39298E+00  7056   0.409E+00-0.189E-04
CGA:   5    -0.367963955697E+03   -0.91475E-01   -0.91455E-01  7056   0.109E+00-0.428E-03
CGA:   6    -0.367990667439E+03   -0.26712E-01   -0.26706E-01  7056   0.348E-01-0.212E-03
CGA:   7    -0.368001006265E+03   -0.10339E-01   -0.10340E-01  7056   0.151E-01-0.667E-04
CGA:   8    -0.368006079161E+03   -0.50729E-02   -0.50794E-02  7056   0.622E-02-0.117E-03
CGA:   9    -0.368008111501E+03   -0.20323E-02   -0.20423E-02  7056   0.212E-02-0.204E-03
CGA:  10    -0.368008777351E+03   -0.66585E-03   -0.67102E-03  7056   0.708E-03-0.119E-03
CGA:  11    -0.368009022314E+03   -0.24496E-03   -0.24448E-03  7056   0.312E-03 0.558E-05
CGA:  12    -0.368009131500E+03   -0.10919E-03   -0.10552E-03  7056   0.148E-03 0.813E-04
CGA:  13    -0.368009199941E+03   -0.68441E-04   -0.65742E-04  7056   0.760E-04 0.453E-04
CGA:  14    -0.368009228443E+03   -0.28503E-04   -0.28728E-04  7056   0.306E-04 0.385E-04
CGA:  15    -0.368009243493E+03   -0.15049E-04   -0.15754E-04  7056   0.225E-04-0.324E-05
CGA:  16    -0.368009245888E+03   -0.23953E-05   -0.38865E-05  7056   0.129E-04 0.132E-04
  31 F= -.36800925E+03 E0= -.36800925E+03  d E =0.188291E-01  mag=    12.0000
       N       E                     dE             d eps       ncg     rms          ort
SDA:   1    -0.360537251066E+03    0.74720E+01    0.00000E+00  7056   0.175E+02 0.000E+00
CGA:   2    -0.366468868440E+03   -0.59316E+01   -0.59302E+01  7056   0.626E+01 0.204E-01
CGA:   3    -0.367700067240E+03   -0.12312E+01   -0.12318E+01  7056   0.119E+01-0.146E-02
CGA:   4    -0.367930219305E+03   -0.23015E+00   -0.23001E+00  7056   0.255E+00-0.179E-02
CGA:   5    -0.367987952041E+03   -0.57733E-01   -0.57734E-01  7056   0.690E-01-0.153E-04
CGA:   6    -0.368005476407E+03   -0.17524E-01   -0.17523E-01  7056   0.234E-01-0.673E-04
CGA:   7    -0.368012578107E+03   -0.71017E-02   -0.71133E-02  7056   0.104E-01-0.656E-03
CGA:   8    -0.368015986532E+03   -0.34084E-02   -0.34345E-02  7056   0.416E-02-0.489E-03
CGA:   9    -0.368017234444E+03   -0.12479E-02   -0.12511E-02  7056   0.128E-02-0.124E-03
CGA:  10    -0.368017633063E+03   -0.39862E-03   -0.39990E-03  7056   0.420E-03-0.430E-04
CGA:  11    -0.368017794479E+03   -0.16142E-03   -0.16574E-03  7056   0.227E-03-0.379E-04
CGA:  12    -0.368017891999E+03   -0.97520E-04   -0.11233E-03  7056   0.206E-03-0.604E-04
CGA:  13    -0.368017939211E+03   -0.47212E-04   -0.47208E-04  7056   0.920E-04 0.214E-05
CGA:  14    -0.368017970324E+03   -0.31112E-04   -0.31355E-04  7056   0.353E-04-0.926E-05
CGA:  15    -0.368017983456E+03   -0.13132E-04   -0.14765E-04  7056   0.190E-04-0.107E-04
CGA:  16    -0.368017987358E+03   -0.39020E-05   -0.38765E-05  7056   0.851E-05-0.954E-06
CGA:  17    -0.368017921527E+03    0.65831E-04   -0.35470E-04  7056   0.266E-03-0.479E-04
CGA:  18    -0.368017988305E+03   -0.66778E-04   -0.70586E-04  7056   0.313E-04 0.119E-04
CGA:  19    -0.368017997996E+03   -0.96912E-05   -0.93350E-05  7056   0.812E-05-0.135E-05
  32 F= -.36801800E+03 E0= -.36801800E+03  d E =-.875211E-02  mag=    12.0000
       N       E                     dE             d eps       ncg     rms          ort
SDA:   1    -0.366655134867E+03    0.13629E+01    0.00000E+00  7056   0.385E+01 0.000E+00
CGA:   2    -0.367637955608E+03   -0.98282E+00   -0.98317E+00  7056   0.159E+01-0.570E-03
CGA:   3    -0.367969810253E+03   -0.33185E+00   -0.33199E+00  7056   0.378E+00-0.996E-03
CGA:   4    -0.368043206346E+03   -0.73396E-01   -0.73544E-01  7056   0.740E-01 0.204E-03
CGA:   5    -0.368059457039E+03   -0.16251E-01   -0.16282E-01  7056   0.204E-01 0.677E-04
CGA:   6    -0.368064722228E+03   -0.52652E-02   -0.52392E-02  7056   0.723E-02-0.128E-03
CGA:   7    -0.368066848505E+03   -0.21263E-02   -0.21163E-02  7056   0.292E-02-0.594E-04
CGA:   8    -0.368067806052E+03   -0.95755E-03   -0.95911E-03  7056   0.117E-02 0.112E-04
CGA:   9    -0.368068186703E+03   -0.38065E-03   -0.38089E-03  7056   0.426E-03 0.138E-05
CGA:  10    -0.368068334896E+03   -0.14819E-03   -0.14762E-03  7056   0.165E-03-0.602E-05
CGA:  11    -0.368068398405E+03   -0.63510E-04   -0.63539E-04  7056   0.793E-04 0.507E-06
CGA:  12    -0.368068433296E+03   -0.34891E-04   -0.34892E-04  7056   0.418E-04-0.177E-05
CGA:  13    -0.368068447839E+03   -0.14543E-04   -0.14835E-04  7056   0.143E-04 0.391E-05
CGA:  14    -0.368068453886E+03   -0.60465E-05   -0.60488E-05  7056   0.532E-05 0.460E-07
  33 F= -.36806845E+03 E0= -.36806845E+03  d E =-.504559E-01  mag=    12.0000
       N       E                     dE             d eps       ncg     rms          ort
SDA:   1    -0.367378554790E+03    0.68989E+00    0.00000E+00  7056   0.163E+01 0.000E+00
CGA:   2    -0.367939431300E+03   -0.56088E+00   -0.56083E+00  7056   0.531E+00-0.803E-03
CGA:   3    -0.368041724739E+03   -0.10229E+00   -0.10244E+00  7056   0.101E+00 0.155E-03
CGA:   4    -0.368061232889E+03   -0.19508E-01   -0.19511E-01  7056   0.202E-01-0.627E-04
CGA:   5    -0.368065750934E+03   -0.45180E-02   -0.45101E-02  7056   0.499E-02-0.501E-04
CGA:   6    -0.368066938080E+03   -0.11871E-02   -0.11907E-02  7056   0.149E-02 0.218E-04
CGA:   7    -0.368067362188E+03   -0.42411E-03   -0.42869E-03  7056   0.613E-03 0.484E-04
CGA:   8    -0.368067577179E+03   -0.21499E-03   -0.21529E-03  7056   0.268E-03 0.846E-05
CGA:   9    -0.368067671634E+03   -0.94455E-04   -0.94190E-04  7056   0.986E-04-0.985E-05
CGA:  10    -0.368067702042E+03   -0.30408E-04   -0.30289E-04  7056   0.313E-04-0.227E-05
CGA:  11    -0.368067710733E+03   -0.86908E-05   -0.91188E-05  7056   0.118E-04 0.598E-05
  34 F= -.36806771E+03 E0= -.36806771E+03  d E =0.743153E-03  mag=    12.0000
       N       E                     dE             d eps       ncg     rms          ort
SDA:   1    -0.366058510040E+03    0.20092E+01    0.00000E+00  7056   0.473E+01 0.000E+00
CGA:   2    -0.367685021673E+03   -0.16265E+01   -0.16266E+01  7056   0.159E+01 0.919E-03
CGA:   3    -0.367985855078E+03   -0.30083E+00   -0.30121E+00  7056   0.302E+00 0.385E-03
CGA:   4    -0.368044011039E+03   -0.58156E-01   -0.58061E-01  7056   0.598E-01-0.813E-03
CGA:   5    -0.368057270179E+03   -0.13259E-01   -0.13256E-01  7056   0.147E-01-0.350E-04
CGA:   6    -0.368060798146E+03   -0.35280E-02   -0.35391E-02  7056   0.441E-02 0.110E-03
CGA:   7    -0.368062136690E+03   -0.13385E-02   -0.13386E-02  7056   0.198E-02-0.317E-06
CGA:   8    -0.368062824236E+03   -0.68755E-03   -0.68790E-03  7056   0.895E-03-0.226E-04
CGA:   9    -0.368063119763E+03   -0.29553E-03   -0.29557E-03  7056   0.312E-03-0.161E-04
CGA:  10    -0.368063220176E+03   -0.10041E-03   -0.10037E-03  7056   0.108E-03-0.986E-05
CGA:  11    -0.368063261115E+03   -0.40939E-04   -0.41198E-04  7056   0.561E-04-0.415E-05
CGA:  12    -0.368063279281E+03   -0.18166E-04   -0.18143E-04  7056   0.265E-04 0.137E-04
CGA:  13    -0.368063291685E+03   -0.12405E-04   -0.12209E-04  7056   0.137E-04 0.556E-05
CGA:  14    -0.368063295020E+03   -0.33352E-05   -0.40229E-05  7056   0.522E-05 0.739E-05
  35 F= -.36806330E+03 E0= -.36806330E+03  d E =0.441571E-02  mag=    12.0000
       N       E                     dE             d eps       ncg     rms          ort
SDA:   1    -0.356856922319E+03    0.11206E+02    0.00000E+00  7056   0.240E+02 0.000E+00
CGA:   2    -0.364655139881E+03   -0.77982E+01   -0.77975E+01  7056   0.783E+01-0.399E-01
CGA:   3    -0.366466077293E+03   -0.18109E+01   -0.18132E+01  7056   0.171E+01-0.178E-02
CGA:   4    -0.366819619768E+03   -0.35354E+00   -0.35389E+00  7056   0.458E+00 0.200E-02
CGA:   5    -0.366927218444E+03   -0.10760E+00   -0.10753E+00  7056   0.139E+00-0.326E-03
CGA:   6    -0.366967077099E+03   -0.39859E-01   -0.39824E-01  7056   0.549E-01-0.819E-03
CGA:   7    -0.366982286953E+03   -0.15210E-01   -0.15198E-01  7056   0.205E-01-0.252E-03
CGA:   8    -0.366988766947E+03   -0.64800E-02   -0.64781E-02  7056   0.677E-02-0.221E-03
CGA:   9    -0.366990888770E+03   -0.21218E-02   -0.21209E-02  7056   0.213E-02-0.111E-03
CGA:  10    -0.366991553980E+03   -0.66521E-03   -0.66500E-03  7056   0.669E-03-0.322E-04
CGA:  11    -0.366991796509E+03   -0.24253E-03   -0.24335E-03  7056   0.290E-03-0.186E-04
CGA:  12    -0.366991904907E+03   -0.10840E-03   -0.10829E-03  7056   0.145E-03 0.173E-05
CGA:  13    -0.366991957354E+03   -0.52447E-04   -0.52318E-04  7056   0.745E-04 0.424E-05
CGA:  14    -0.366991983528E+03   -0.26173E-04   -0.26126E-04  7056   0.306E-04 0.470E-05
CGA:  15    -0.366991992025E+03   -0.84971E-05   -0.90371E-05  7056   0.101E-04 0.101E-04
  36 F= -.36699199E+03 E0= -.36699199E+03  d E =0.107130E+01  mag=    12.0000
       N       E                     dE             d eps       ncg     rms          ort
SDA:   1    -0.363741776273E+03    0.32502E+01    0.00000E+00  7056   0.989E+01 0.000E+00
CGA:   2    -0.366944461142E+03   -0.32027E+01   -0.32026E+01  7056   0.318E+01-0.263E-01
CGA:   3    -0.367718997123E+03   -0.77454E+00   -0.77529E+00  7056   0.593E+00 0.291E-02
CGA:   4    -0.367855801976E+03   -0.13680E+00   -0.13680E+00  7056   0.175E+00-0.270E-03
CGA:   5    -0.367894941796E+03   -0.39140E-01   -0.39129E-01  7056   0.539E-01-0.157E-03
CGA:   6    -0.367910540843E+03   -0.15599E-01   -0.15592E-01  7056   0.206E-01-0.305E-03
CGA:   7    -0.367916387349E+03   -0.58465E-02   -0.58467E-02  7056   0.810E-02 0.447E-05
CGA:   8    -0.367918753270E+03   -0.23659E-02   -0.23688E-02  7056   0.250E-02 0.163E-03
CGA:   9    -0.367919538792E+03   -0.78552E-03   -0.78555E-03  7056   0.750E-03 0.171E-04
CGA:  10    -0.367919782097E+03   -0.24330E-03   -0.24351E-03  7056   0.238E-03-0.152E-04
CGA:  11    -0.367919864280E+03   -0.82183E-04   -0.82314E-04  7056   0.950E-04-0.313E-05
CGA:  12    -0.367919898820E+03   -0.34540E-04   -0.34129E-04  7056   0.421E-04 0.784E-05
CGA:  13    -0.367919911422E+03   -0.12602E-04   -0.12999E-04  7056   0.184E-04 0.135E-04
CGA:  14    -0.367919920917E+03   -0.94947E-05   -0.93519E-05  7056   0.107E-04 0.198E-05
  37 F= -.36791992E+03 E0= -.36791992E+03  d E =-.927929E+00  mag=    12.0000
       N       E                     dE             d eps       ncg     rms          ort
SDA:   1    -0.366796297347E+03    0.11236E+01    0.00000E+00  7056   0.293E+01 0.000E+00
CGA:   2    -0.367742700887E+03   -0.94640E+00   -0.94634E+00  7056   0.934E+00 0.736E-02
CGA:   3    -0.367977030164E+03   -0.23433E+00   -0.23442E+00  7056   0.183E+00 0.109E-02
CGA:   4    -0.368018857134E+03   -0.41827E-01   -0.41755E-01  7056   0.528E-01-0.957E-03
CGA:   5    -0.368030623606E+03   -0.11766E-01   -0.11796E-01  7056   0.165E-01 0.307E-03
CGA:   6    -0.368035392819E+03   -0.47692E-02   -0.47723E-02  7056   0.619E-02 0.161E-03
CGA:   7    -0.368037207547E+03   -0.18147E-02   -0.18147E-02  7056   0.245E-02-0.974E-06
CGA:   8    -0.368037904385E+03   -0.69684E-03   -0.69881E-03  7056   0.734E-03 0.101E-03
CGA:   9    -0.368038142764E+03   -0.23838E-03   -0.23838E-03  7056   0.224E-03-0.592E-06
CGA:  10    -0.368038219715E+03   -0.76950E-04   -0.77981E-04  7056   0.821E-04-0.236E-04
CGA:  11    -0.368038240898E+03   -0.21184E-04   -0.21320E-04  7056   0.269E-04 0.849E-05
CGA:  12    -0.368038251936E+03   -0.11038E-04   -0.11015E-04  7056   0.155E-04 0.335E-06
CGA:  13    -0.368038256988E+03   -0.50524E-05   -0.50225E-05  7056   0.698E-05 0.264E-05
  38 F= -.36803826E+03 E0= -.36803826E+03  d E =-.118336E+00  mag=    12.0000
       N       E                     dE             d eps       ncg     rms          ort
SDA:   1    -0.367970879116E+03    0.67373E-01    0.00000E+00  7056   0.209E+00 0.000E+00
CGA:   2    -0.368036589398E+03   -0.65710E-01   -0.65713E-01  7056   0.653E-01 0.112E-02
CGA:   3    -0.368052611022E+03   -0.16022E-01   -0.16030E-01  7056   0.163E-01 0.829E-04
CGA:   4    -0.368055901669E+03   -0.32906E-02   -0.32398E-02  7056   0.395E-02-0.464E-03
CGA:   5    -0.368056792160E+03   -0.89049E-03   -0.89096E-03  7056   0.117E-02 0.555E-05
CGA:   6    -0.368057077286E+03   -0.28513E-03   -0.29209E-03  7056   0.386E-03 0.130E-03
CGA:   7    -0.368057194451E+03   -0.11716E-03   -0.11831E-03  7056   0.150E-03 0.467E-04
CGA:   8    -0.368057252400E+03   -0.57949E-04   -0.58052E-04  7056   0.600E-04-0.232E-05
CGA:   9    -0.368057272198E+03   -0.19798E-04   -0.20189E-04  7056   0.216E-04-0.980E-05
CGA:  10    -0.368057278506E+03   -0.63080E-05   -0.68402E-05  7056   0.968E-05-0.713E-05
  39 F= -.36805728E+03 E0= -.36805728E+03  d E =-.190215E-01  mag=    12.0000
       N       E                     dE             d eps       ncg     rms          ort
SDA:   1    -0.367906330090E+03    0.15094E+00    0.00000E+00  7056   0.396E+00 0.000E+00
CGA:   2    -0.368028647861E+03   -0.12232E+00   -0.12230E+00  7056   0.132E+00 0.197E-02
CGA:   3    -0.368060280074E+03   -0.31632E-01   -0.31631E-01  7056   0.343E-01-0.107E-03
CGA:   4    -0.368067079086E+03   -0.67990E-02   -0.67347E-02  7056   0.773E-02-0.656E-03
CGA:   5    -0.368068867336E+03   -0.17883E-02   -0.17858E-02  7056   0.238E-02-0.420E-04
CGA:   6    -0.368069463735E+03   -0.59640E-03   -0.60300E-03  7056   0.821E-03 0.177E-03
CGA:   7    -0.368069701528E+03   -0.23779E-03   -0.23937E-03  7056   0.301E-03 0.837E-04
CGA:   8    -0.368069817271E+03   -0.11574E-03   -0.11643E-03  7056   0.122E-03-0.112E-04
CGA:   9    -0.368069857283E+03   -0.40012E-04   -0.41486E-04  7056   0.480E-04-0.246E-04
CGA:  10    -0.368069869733E+03   -0.12449E-04   -0.12841E-04  7056   0.159E-04-0.100E-04
CGA:  11    -0.368069872607E+03   -0.28740E-05   -0.30357E-05  7056   0.510E-05 0.292E-05
  40 F= -.36806987E+03 E0= -.36806987E+03  d E =-.125941E-01  mag=    12.0000
       N       E                     dE             d eps       ncg     rms          ort
SDA:   1    -0.368066652977E+03    0.32168E-02    0.00000E+00  7056   0.104E-01 0.000E+00
CGA:   2    -0.368069821788E+03   -0.31688E-02   -0.31686E-02  7056   0.401E-02 0.218E-04
CGA:   3    -0.368070688822E+03   -0.86703E-03   -0.86190E-03  7056   0.980E-03-0.656E-04
CGA:   4    -0.368070876875E+03   -0.18805E-03   -0.18793E-03  7056   0.207E-03-0.187E-05
CGA:   5    -0.368070923847E+03   -0.46971E-04   -0.47355E-04  7056   0.605E-04 0.626E-05
CGA:   6    -0.368070943283E+03   -0.19436E-04   -0.19751E-04  7056   0.352E-04-0.105E-04
CGA:   7    -0.368070952928E+03   -0.96445E-05   -0.11133E-04  7056   0.262E-04-0.157E-04
  41 F= -.36807095E+03 E0= -.36807095E+03  d E =-.108032E-02  mag=    12.0000
       N       E                     dE             d eps       ncg     rms          ort
SDA:   1    -0.368068434763E+03    0.25085E-02    0.00000E+00  7056   0.914E-02 0.000E+00
CGA:   2    -0.368070703735E+03   -0.22690E-02   -0.22783E-02  7056   0.374E-02 0.209E-03
CGA:   3    -0.368071511058E+03   -0.80732E-03   -0.80858E-03  7056   0.875E-03 0.108E-04
CGA:   4    -0.368071704879E+03   -0.19382E-03   -0.18723E-03  7056   0.211E-03-0.912E-04
CGA:   5    -0.368071747007E+03   -0.42128E-04   -0.41236E-04  7056   0.584E-04-0.140E-04
CGA:   6    -0.368071756569E+03   -0.95615E-05   -0.10521E-04  7056   0.156E-04 0.111E-04
  42 F= -.36807176E+03 E0= -.36807176E+03  d E =-.803642E-03  mag=    12.0000
       N       E                     dE             d eps       ncg     rms          ort
SDA:   1    -0.368065335872E+03    0.64111E-02    0.00000E+00  7056   0.204E-01 0.000E+00
CGA:   2    -0.368070412029E+03   -0.50762E-02   -0.50824E-02  7056   0.899E-02 0.264E-03
CGA:   3    -0.368072277422E+03   -0.18654E-02   -0.18669E-02  7056   0.179E-02 0.107E-04
CGA:   4    -0.368072654862E+03   -0.37744E-03   -0.37147E-03  7056   0.379E-03-0.101E-03
CGA:   5    -0.368072731879E+03   -0.77017E-04   -0.76503E-04  7056   0.999E-04-0.103E-04
CGA:   6    -0.368072752628E+03   -0.20749E-04   -0.21214E-04  7056   0.291E-04 0.106E-04
CGA:   7    -0.368072763763E+03   -0.11135E-04   -0.11480E-04  7056   0.200E-04-0.358E-05
CGA:   8    -0.368072769462E+03   -0.56987E-05   -0.10021E-04  7056   0.292E-04-0.141E-04
  43 F= -.36807277E+03 E0= -.36807277E+03  d E =-.101289E-02  mag=    12.0000
       N       E                     dE             d eps       ncg     rms          ort
SDA:   1    -0.368054351960E+03    0.18412E-01    0.00000E+00  7056   0.579E-01 0.000E+00
CGA:   2    -0.368068361169E+03   -0.14009E-01   -0.14025E-01  7056   0.231E-01 0.433E-03
CGA:   3    -0.368073319710E+03   -0.49585E-02   -0.49551E-02  7056   0.526E-02-0.853E-04
CGA:   4    -0.368074330194E+03   -0.10105E-02   -0.10038E-02  7056   0.939E-03-0.889E-04
CGA:   5    -0.368074523308E+03   -0.19311E-03   -0.19330E-03  7056   0.242E-03 0.296E-05
CGA:   6    -0.368074583803E+03   -0.60495E-04   -0.60499E-04  7056   0.869E-04 0.139E-06
CGA:   7    -0.368074615660E+03   -0.31858E-04   -0.40431E-04  7056   0.112E-03-0.424E-04
CGA:   8    -0.368074632487E+03   -0.16827E-04   -0.17702E-04  7056   0.702E-04-0.239E-04
CGA:   9    -0.368074643217E+03   -0.10730E-04   -0.11059E-04  7056   0.321E-04 0.442E-05
CGA:  10    -0.368074648589E+03   -0.53713E-05   -0.61168E-05  7056   0.134E-04 0.813E-05
  44 F= -.36807465E+03 E0= -.36807465E+03  d E =-.187913E-02  mag=    12.0000
       N       E                     dE             d eps       ncg     rms          ort
SDA:   1    -0.366453283126E+03    0.16214E+01    0.00000E+00  7056   0.423E+01 0.000E+00
CGA:   2    -0.367628778209E+03   -0.11755E+01   -0.11753E+01  7056   0.183E+01 0.762E-02
CGA:   3    -0.367989423865E+03   -0.36065E+00   -0.36075E+00  7056   0.356E+00-0.106E-02
CGA:   4    -0.368056892226E+03   -0.67468E-01   -0.67411E-01  7056   0.646E-01-0.106E-02
CGA:   5    -0.368070809779E+03   -0.13918E-01   -0.13921E-01  7056   0.168E-01 0.503E-04
CGA:   6    -0.368074917131E+03   -0.41074E-02   -0.41079E-02  7056   0.548E-02 0.454E-04
CGA:   7    -0.368076647975E+03   -0.17308E-02   -0.17446E-02  7056   0.285E-02-0.217E-03
CGA:   8    -0.368077652896E+03   -0.10049E-02   -0.10241E-02  7056   0.152E-02-0.164E-03
CGA:   9    -0.368078117168E+03   -0.46427E-03   -0.46466E-03  7056   0.533E-03-0.685E-05
CGA:  10    -0.368078285759E+03   -0.16859E-03   -0.16777E-03  7056   0.183E-03 0.158E-04
CGA:  11    -0.368078358496E+03   -0.72738E-04   -0.72802E-04  7056   0.926E-04-0.718E-06
CGA:  12    -0.368078397807E+03   -0.39311E-04   -0.39397E-04  7056   0.466E-04-0.653E-06
CGA:  13    -0.368078413912E+03   -0.16105E-04   -0.15792E-04  7056   0.142E-04 0.521E-05
CGA:  14    -0.368078419479E+03   -0.55674E-05   -0.55419E-05  7056   0.433E-05 0.380E-06
  45 F= -.36807842E+03 E0= -.36807842E+03  d E =-.377089E-02  mag=    12.0000
       N       E                     dE             d eps       ncg     rms          ort
SDA:   1    -0.365828059300E+03    0.22504E+01    0.00000E+00  7056   0.557E+01 0.000E+00
CGA:   2    -0.367557867449E+03   -0.17298E+01   -0.17298E+01  7056   0.222E+01 0.379E-02
CGA:   3    -0.367978842782E+03   -0.42098E+00   -0.42106E+00  7056   0.415E+00-0.207E-02
CGA:   4    -0.368058683951E+03   -0.79841E-01   -0.79807E-01  7056   0.799E-01-0.529E-03
CGA:   5    -0.368076238594E+03   -0.17555E-01   -0.17559E-01  7056   0.206E-01 0.395E-04
CGA:   6    -0.368081213957E+03   -0.49754E-02   -0.49708E-02  7056   0.635E-02-0.107E-03
CGA:   7    -0.368083160817E+03   -0.19469E-02   -0.19534E-02  7056   0.304E-02-0.291E-03
CGA:   8    -0.368084194532E+03   -0.10337E-02   -0.10484E-02  7056   0.147E-02-0.200E-03
CGA:   9    -0.368084644801E+03   -0.45027E-03   -0.45191E-03  7056   0.512E-03-0.437E-04
CGA:  10    -0.368084807599E+03   -0.16280E-03   -0.16304E-03  7056   0.178E-03-0.728E-05
CGA:  11    -0.368084878330E+03   -0.70730E-04   -0.71929E-04  7056   0.961E-04-0.107E-04
CGA:  12    -0.368084918608E+03   -0.40279E-04   -0.40853E-04  7056   0.529E-04-0.390E-05
CGA:  13    -0.368084936823E+03   -0.18215E-04   -0.17957E-04  7056   0.177E-04 0.569E-05
CGA:  14    -0.368084944517E+03   -0.76930E-05   -0.78163E-05  7056   0.689E-05-0.142E-05
  46 F= -.36808494E+03 E0= -.36808494E+03  d E =-.652504E-02  mag=    12.0000
       N       E                     dE             d eps       ncg     rms          ort
SDA:   1    -0.367495688129E+03    0.58925E+00    0.00000E+00  7056   0.159E+01 0.000E+00
CGA:   2    -0.367896460482E+03   -0.40077E+00   -0.40063E+00  7056   0.684E+00-0.260E-02
CGA:   3    -0.368037121369E+03   -0.14066E+00   -0.14086E+00  7056   0.151E+00 0.999E-03
CGA:   4    -0.368067029882E+03   -0.29909E-01   -0.29975E-01  7056   0.287E-01 0.456E-03
CGA:   5    -0.368073376794E+03   -0.63469E-02   -0.63520E-02  7056   0.813E-02 0.510E-04
CGA:   6    -0.368075473777E+03   -0.20970E-02   -0.20948E-02  7056   0.292E-02-0.534E-04
CGA:   7    -0.368076355589E+03   -0.88181E-03   -0.88223E-03  7056   0.125E-02-0.815E-04
CGA:   8    -0.368076762213E+03   -0.40662E-03   -0.40733E-03  7056   0.522E-03-0.209E-04
CGA:   9    -0.368076923413E+03   -0.16120E-03   -0.16116E-03  7056   0.174E-03 0.275E-05
CGA:  10    -0.368076984670E+03   -0.61257E-04   -0.61513E-04  7056   0.710E-04-0.529E-05
CGA:  11    -0.368077010386E+03   -0.25716E-04   -0.25452E-04  7056   0.328E-04 0.398E-05
CGA:  12    -0.368077022001E+03   -0.11615E-04   -0.11431E-04  7056   0.135E-04 0.802E-05
CGA:  13    -0.368077027205E+03   -0.52036E-05   -0.52032E-05  7056   0.533E-05 0.466E-05
  47 F= -.36807703E+03 E0= -.36807703E+03  d E =0.791731E-02  mag=    12.0000
       N       E                     dE             d eps       ncg     rms          ort
SDA:   1    -0.367897531923E+03    0.17949E+00    0.00000E+00  7056   0.459E+00 0.000E+00
CGA:   2    -0.368045263434E+03   -0.14773E+00   -0.14772E+00  7056   0.154E+00 0.904E-03
CGA:   3    -0.368078018155E+03   -0.32755E-01   -0.32715E-01  7056   0.347E-01-0.497E-03
CGA:   4    -0.368084708357E+03   -0.66902E-02   -0.66918E-02  7056   0.726E-02-0.195E-04
CGA:   5    -0.368086431235E+03   -0.17229E-02   -0.17198E-02  7056   0.210E-02-0.503E-04
CGA:   6    -0.368086964231E+03   -0.53300E-03   -0.53443E-03  7056   0.727E-03 0.349E-04
CGA:   7    -0.368087151332E+03   -0.18710E-03   -0.19030E-03  7056   0.246E-03 0.867E-04
CGA:   8    -0.368087238778E+03   -0.87446E-04   -0.86884E-04  7056   0.930E-04 0.242E-04
CGA:   9    -0.368087275200E+03   -0.36422E-04   -0.37336E-04  7056   0.418E-04-0.128E-04
CGA:  10    -0.368087284338E+03   -0.91387E-05   -0.92763E-05  7056   0.109E-04 0.341E-05
  48 F= -.36808728E+03 E0= -.36808728E+03  d E =-.102571E-01  mag=    12.0000
       N       E                     dE             d eps       ncg     rms          ort
SDA:   1    -0.367803679725E+03    0.28360E+00    0.00000E+00  7056   0.684E+00 0.000E+00
CGA:   2    -0.368029247240E+03   -0.22557E+00   -0.22553E+00  7056   0.253E+00 0.677E-03
CGA:   3    -0.368076909830E+03   -0.47663E-01   -0.47642E-01  7056   0.465E-01-0.477E-03
CGA:   4    -0.368085780256E+03   -0.88704E-02   -0.88636E-02  7056   0.900E-02-0.103E-03
CGA:   5    -0.368087749260E+03   -0.19690E-02   -0.19719E-02  7056   0.221E-02 0.412E-04
CGA:   6    -0.368088281566E+03   -0.53231E-03   -0.53165E-03  7056   0.665E-03-0.166E-04
CGA:   7    -0.368088496910E+03   -0.21534E-03   -0.21974E-03  7056   0.372E-03-0.822E-04
CGA:   8    -0.368088611659E+03   -0.11475E-03   -0.11834E-03  7056   0.184E-03-0.447E-04
CGA:   9    -0.368088660620E+03   -0.48961E-04   -0.48949E-04  7056   0.574E-04 0.749E-06
CGA:  10    -0.368088677781E+03   -0.17161E-04   -0.17125E-04  7056   0.184E-04 0.351E-05
CGA:  11    -0.368088685420E+03   -0.76385E-05   -0.77643E-05  7056   0.105E-04-0.116E-05
  49 F= -.36808869E+03 E0= -.36808869E+03  d E =-.140108E-02  mag=    12.0000
       N       E                     dE             d eps       ncg     rms          ort
SDA:   1    -0.337390281219E+03    0.30698E+02    0.00000E+00  7056   0.793E+02 0.000E+00
CGA:   2    -0.359200356708E+03   -0.21810E+02   -0.21814E+02  7056   0.362E+02-0.562E-02
CGA:   3    -0.366181451844E+03   -0.69811E+01   -0.69970E+01  7056   0.623E+01 0.592E-01
CGA:   4    -0.367398371588E+03   -0.12169E+01   -0.12172E+01  7056   0.123E+01-0.555E-02
CGA:   5    -0.367672967902E+03   -0.27460E+00   -0.27456E+00  7056   0.343E+00-0.125E-02
CGA:   6    -0.367757418554E+03   -0.84451E-01   -0.84486E-01  7056   0.112E+00 0.564E-03
CGA:   7    -0.367791528180E+03   -0.34110E-01   -0.34112E-01  7056   0.505E-01-0.243E-03
CGA:   8    -0.367809265194E+03   -0.17737E-01   -0.17804E-01  7056   0.230E-01-0.102E-02
CGA:   9    -0.367816698105E+03   -0.74329E-02   -0.74662E-02  7056   0.808E-02-0.812E-03
CGA:  10    -0.367819356878E+03   -0.26588E-02   -0.26757E-02  7056   0.306E-02-0.334E-03
CGA:  11    -0.367820521064E+03   -0.11642E-02   -0.11696E-02  7056   0.156E-02-0.559E-04
CGA:  12    -0.367821181827E+03   -0.66076E-03   -0.65292E-03  7056   0.775E-03 0.587E-04
CGA:  13    -0.367821496493E+03   -0.31467E-03   -0.31082E-03  7056   0.289E-03 0.465E-04
CGA:  14    -0.367821604525E+03   -0.10803E-03   -0.10696E-03  7056   0.933E-04 0.270E-04
CGA:  15    -0.367821649316E+03   -0.44791E-04   -0.48967E-04  7056   0.633E-04-0.250E-04
CGA:  16    -0.367821661565E+03   -0.12248E-04   -0.12622E-04  7056   0.280E-04 0.770E-05
CGA:  17    -0.367821674265E+03   -0.12700E-04   -0.14419E-04  7056   0.240E-04-0.122E-04
CGA:  18    -0.367821684307E+03   -0.10042E-04    0.15243E-04  7056   0.186E-04-0.362E-05
CGA:  19    -0.367821686133E+03   -0.18261E-05   -0.11175E-04  7056   0.425E-04-0.247E-04
CGA:  20    -0.367821698748E+03   -0.12614E-04   -0.12602E-04  7056   0.494E-05-0.277E-06
CGA:  21    -0.367821700470E+03   -0.17226E-05   -0.17206E-05  7056   0.200E-05 0.207E-06
  50 F= -.36782170E+03 E0= -.36782170E+03  d E =0.266985E+00  mag=    12.0000
       N       E                     dE             d eps       ncg     rms          ort
SDA:   1    -0.359337821830E+03    0.84839E+01    0.00000E+00  7056   0.203E+02 0.000E+00
CGA:   2    -0.365681718984E+03   -0.63439E+01   -0.63425E+01  7056   0.721E+01-0.316E-01
CGA:   3    -0.367252943699E+03   -0.15712E+01   -0.15725E+01  7056   0.164E+01-0.194E-02
CGA:   4    -0.367582066828E+03   -0.32912E+00   -0.32948E+00  7056   0.386E+00 0.730E-03
CGA:   5    -0.367674348992E+03   -0.92282E-01   -0.92234E-01  7056   0.118E+00-0.406E-03
CGA:   6    -0.367706621640E+03   -0.32273E-01   -0.32232E-01  7056   0.473E-01-0.840E-03
CGA:   7    -0.367719893022E+03   -0.13271E-01   -0.13256E-01  7056   0.177E-01-0.400E-03
CGA:   8    -0.367725517662E+03   -0.56246E-02   -0.56246E-02  7056   0.610E-02-0.609E-04
CGA:   9    -0.367727360294E+03   -0.18426E-02   -0.18421E-02  7056   0.187E-02-0.315E-04
CGA:  10    -0.367727953714E+03   -0.59342E-03   -0.59343E-03  7056   0.619E-03-0.376E-04
CGA:  11    -0.367728174678E+03   -0.22096E-03   -0.22163E-03  7056   0.281E-03-0.146E-04
CGA:  12    -0.367728274959E+03   -0.10028E-03   -0.99463E-04  7056   0.143E-03 0.195E-04
CGA:  13    -0.367728327180E+03   -0.52222E-04   -0.51997E-04  7056   0.710E-04 0.128E-04
CGA:  14    -0.367728351141E+03   -0.23961E-04   -0.24162E-04  7056   0.263E-04 0.167E-04
CGA:  15    -0.367728363195E+03   -0.12054E-04   -0.11841E-04  7056   0.117E-04 0.512E-05
CGA:  16    -0.367728367215E+03   -0.40193E-05   -0.41400E-05  7056   0.510E-05 0.416E-05
  51 F= -.36772837E+03 E0= -.36772837E+03  d E =0.933333E-01  mag=    12.0000
       N       E                     dE             d eps       ncg     rms          ort
SDA:   1    -0.366002872463E+03    0.17255E+01    0.00000E+00  7056   0.476E+01 0.000E+00
CGA:   2    -0.367529760555E+03   -0.15269E+01   -0.15270E+01  7056   0.157E+01 0.762E-02
CGA:   3    -0.367899833212E+03   -0.37007E+00   -0.37027E+00  7056   0.343E+00 0.136E-02
CGA:   4    -0.367971294614E+03   -0.71461E-01   -0.71427E-01  7056   0.889E-01-0.560E-03
CGA:   5    -0.367992103709E+03   -0.20809E-01   -0.20823E-01  7056   0.271E-01 0.139E-03
CGA:   6    -0.367999724473E+03   -0.76208E-02   -0.76291E-02  7056   0.107E-01 0.262E-03
CGA:   7    -0.368002745583E+03   -0.30211E-02   -0.30242E-02  7056   0.404E-02 0.999E-04
CGA:   8    -0.368004020688E+03   -0.12751E-02   -0.12751E-02  7056   0.133E-02 0.104E-04
CGA:   9    -0.368004433397E+03   -0.41271E-03   -0.41268E-03  7056   0.400E-03-0.264E-04
CGA:  10    -0.368004553251E+03   -0.11985E-03   -0.11986E-03  7056   0.119E-03 0.130E-05
CGA:  11    -0.368004593651E+03   -0.40399E-04   -0.40301E-04  7056   0.496E-04 0.347E-05
CGA:  12    -0.368004612662E+03   -0.19012E-04   -0.18844E-04  7056   0.264E-04 0.284E-05
CGA:  13    -0.368004622694E+03   -0.10032E-04   -0.99749E-05  7056   0.137E-04 0.130E-05
CGA:  14    -0.368004628368E+03   -0.56740E-05   -0.57177E-05  7056   0.688E-05-0.551E-06
  52 F= -.36800463E+03 E0= -.36800463E+03  d E =-.276261E+00  mag=    12.0000
       N       E                     dE             d eps       ncg     rms          ort
SDA:   1    -0.367920881109E+03    0.83742E-01    0.00000E+00  7056   0.240E+00 0.000E+00
CGA:   2    -0.367990596118E+03   -0.69715E-01   -0.69735E-01  7056   0.103E+00 0.482E-03
CGA:   3    -0.368011333241E+03   -0.20737E-01   -0.20747E-01  7056   0.226E-01-0.538E-04
CGA:   4    -0.368015881063E+03   -0.45478E-02   -0.45378E-02  7056   0.465E-02-0.977E-04
CGA:   5    -0.368016948254E+03   -0.10672E-02   -0.10682E-02  7056   0.141E-02 0.116E-04
CGA:   6    -0.368017297786E+03   -0.34953E-03   -0.35246E-03  7056   0.495E-03 0.556E-04
CGA:   7    -0.368017434737E+03   -0.13695E-03   -0.13837E-03  7056   0.168E-03 0.463E-04
CGA:   8    -0.368017493267E+03   -0.58530E-04   -0.58242E-04  7056   0.652E-04 0.147E-04
CGA:   9    -0.368017513975E+03   -0.20708E-04   -0.20749E-04  7056   0.204E-04 0.623E-05
CGA:  10    -0.368017519366E+03   -0.53905E-05   -0.56406E-05  7056   0.594E-05 0.533E-05
  53 F= -.36801752E+03 E0= -.36801752E+03  d E =-.128910E-01  mag=    12.0000
       N       E                     dE             d eps       ncg     rms          ort
SDA:   1    -0.367893088317E+03    0.12443E+00    0.00000E+00  7056   0.375E+00 0.000E+00
CGA:   2    -0.367985008250E+03   -0.91920E-01   -0.91959E-01  7056   0.176E+00 0.424E-03
CGA:   3    -0.368021127026E+03   -0.36119E-01   -0.36117E-01  7056   0.330E-01-0.243E-03
CGA:   4    -0.368027453579E+03   -0.63266E-02   -0.63160E-02  7056   0.605E-02-0.128E-03
CGA:   5    -0.368028732831E+03   -0.12793E-02   -0.12801E-02  7056   0.156E-02 0.103E-04
CGA:   6    -0.368029104706E+03   -0.37188E-03   -0.37261E-03  7056   0.472E-03 0.181E-04
CGA:   7    -0.368029245222E+03   -0.14052E-03   -0.14046E-03  7056   0.204E-03 0.286E-05
CGA:   8    -0.368029316767E+03   -0.71545E-04   -0.71246E-04  7056   0.995E-04 0.417E-05
CGA:   9    -0.368029346727E+03   -0.29961E-04   -0.29776E-04  7056   0.329E-04 0.144E-04
CGA:  10    -0.368029356909E+03   -0.10182E-04   -0.10260E-04  7056   0.118E-04 0.890E-05
CGA:  11    -0.368029361525E+03   -0.46161E-05   -0.45353E-05  7056   0.594E-05 0.387E-05
  54 F= -.36802936E+03 E0= -.36802936E+03  d E =-.118422E-01  mag=    12.0000
       N       E                     dE             d eps       ncg     rms          ort
SDA:   1    -0.367213843528E+03    0.81551E+00    0.00000E+00  7056   0.232E+01 0.000E+00
CGA:   2    -0.367777429693E+03   -0.56359E+00   -0.56379E+00  7056   0.109E+01 0.173E-02
CGA:   3    -0.368001107232E+03   -0.22368E+00   -0.22375E+00  7056   0.202E+00-0.579E-03
CGA:   4    -0.368039436118E+03   -0.38329E-01   -0.38305E-01  7056   0.362E-01-0.357E-03
CGA:   5    -0.368047097331E+03   -0.76612E-02   -0.76665E-02  7056   0.915E-02 0.729E-04
CGA:   6    -0.368049280935E+03   -0.21836E-02   -0.21842E-02  7056   0.273E-02 0.121E-04
CGA:   7    -0.368050100278E+03   -0.81934E-03   -0.82156E-03  7056   0.124E-02-0.728E-04
CGA:   8    -0.368050535850E+03   -0.43557E-03   -0.43858E-03  7056   0.655E-03-0.336E-04
CGA:   9    -0.368050740730E+03   -0.20488E-03   -0.20350E-03  7056   0.231E-03 0.311E-04
CGA:  10    -0.368050818006E+03   -0.77277E-04   -0.76555E-04  7056   0.821E-04 0.182E-04
CGA:  11    -0.368050851567E+03   -0.33560E-04   -0.33240E-04  7056   0.412E-04 0.325E-05
CGA:  12    -0.368050868897E+03   -0.17330E-04   -0.16909E-04  7056   0.201E-04 0.372E-05
CGA:  13    -0.368050874742E+03   -0.58448E-05   -0.59733E-05  7056   0.703E-05 0.744E-05
  55 F= -.36805087E+03 E0= -.36805087E+03  d E =-.215132E-01  mag=    12.0000
       N       E                     dE             d eps       ncg     rms          ort
SDA:   1    -0.367035255826E+03    0.10156E+01    0.00000E+00  7056   0.288E+01 0.000E+00
CGA:   2    -0.367735287347E+03   -0.70003E+00   -0.70030E+00  7056   0.132E+01 0.197E-02
CGA:   3    -0.368007262191E+03   -0.27197E+00   -0.27201E+00  7056   0.251E+00-0.138E-02
CGA:   4    -0.368054667175E+03   -0.47405E-01   -0.47403E-01  7056   0.444E-01-0.127E-03
CGA:   5    -0.368064029288E+03   -0.93621E-02   -0.93780E-02  7056   0.111E-01 0.228E-03
CGA:   6    -0.368066723492E+03   -0.26942E-02   -0.26921E-02  7056   0.340E-02-0.716E-04
CGA:   7    -0.368067768814E+03   -0.10453E-02   -0.10538E-02  7056   0.169E-02-0.212E-03
CGA:   8    -0.368068345241E+03   -0.57643E-03   -0.58381E-03  7056   0.909E-03-0.794E-04
CGA:   9    -0.368068622249E+03   -0.27701E-03   -0.27552E-03  7056   0.318E-03 0.372E-04
CGA:  10    -0.368068730224E+03   -0.10797E-03   -0.10734E-03  7056   0.115E-03 0.141E-04
CGA:  11    -0.368068775995E+03   -0.45771E-04   -0.45759E-04  7056   0.565E-04-0.317E-07
CGA:  12    -0.368068797029E+03   -0.21033E-04   -0.20450E-04  7056   0.242E-04 0.774E-05
CGA:  13    -0.368068805045E+03   -0.80160E-05   -0.80125E-05  7056   0.823E-05 0.781E-05
  56 F= -.36806881E+03 E0= -.36806881E+03  d E =-.179303E-01  mag=    12.0000
       N       E                     dE             d eps       ncg     rms          ort
SDA:   1    -0.367224296915E+03    0.84450E+00    0.00000E+00  7056   0.234E+01 0.000E+00
CGA:   2    -0.367811237327E+03   -0.58694E+00   -0.58717E+00  7056   0.105E+01 0.208E-02
CGA:   3    -0.368026253102E+03   -0.21502E+00   -0.21502E+00  7056   0.209E+00-0.138E-02
CGA:   4    -0.368065678629E+03   -0.39426E-01   -0.39422E-01  7056   0.363E-01-0.144E-03
CGA:   5    -0.368073410214E+03   -0.77316E-02   -0.77479E-02  7056   0.936E-02 0.218E-03
CGA:   6    -0.368075722350E+03   -0.23121E-02   -0.23116E-02  7056   0.303E-02-0.228E-04
CGA:   7    -0.368076666078E+03   -0.94373E-03   -0.94866E-03  7056   0.155E-02-0.140E-03
CGA:   8    -0.368077204712E+03   -0.53863E-03   -0.54232E-03  7056   0.820E-03-0.435E-04
CGA:   9    -0.368077462966E+03   -0.25825E-03   -0.25706E-03  7056   0.293E-03 0.312E-04
CGA:  10    -0.368077562677E+03   -0.99711E-04   -0.99222E-04  7056   0.108E-03 0.122E-04
CGA:  11    -0.368077605465E+03   -0.42787E-04   -0.42666E-04  7056   0.519E-04 0.118E-05
CGA:  12    -0.368077625040E+03   -0.19575E-04   -0.19086E-04  7056   0.215E-04 0.685E-05
CGA:  13    -0.368077632958E+03   -0.79182E-05   -0.77992E-05  7056   0.708E-05 0.491E-05
  57 F= -.36807763E+03 E0= -.36807763E+03  d E =-.882791E-02  mag=    12.0000
       N       E                     dE             d eps       ncg     rms          ort
SDA:   1    -0.367998339034E+03    0.79286E-01    0.00000E+00  7056   0.214E+00 0.000E+00
CGA:   2    -0.368054290422E+03   -0.55951E-01   -0.55939E-01  7056   0.103E+00-0.445E-03
CGA:   3    -0.368074636192E+03   -0.20346E-01   -0.20411E-01  7056   0.191E-01 0.508E-03
CGA:   4    -0.368078390937E+03   -0.37547E-02   -0.37578E-02  7056   0.375E-02 0.188E-04
CGA:   5    -0.368079243606E+03   -0.85267E-03   -0.84806E-03  7056   0.109E-02-0.710E-04
CGA:   6    -0.368079505628E+03   -0.26202E-03   -0.26177E-03  7056   0.360E-03-0.631E-05
CGA:   7    -0.368079602656E+03   -0.97029E-04   -0.97290E-04  7056   0.128E-03 0.180E-04
CGA:   8    -0.368079649566E+03   -0.46910E-04   -0.47151E-04  7056   0.601E-04-0.368E-05
CGA:   9    -0.368079671739E+03   -0.22173E-04   -0.25521E-04  7056   0.412E-04-0.226E-04
CGA:  10    -0.368079679733E+03   -0.79945E-05   -0.81490E-05  7056   0.159E-04-0.727E-05
  58 F= -.36807968E+03 E0= -.36807968E+03  d E =-.204678E-02  mag=    12.0000
       N       E                     dE             d eps       ncg     rms          ort
SDA:   1    -0.368076815787E+03    0.28560E-02    0.00000E+00  7056   0.926E-02 0.000E+00
CGA:   2    -0.368079126983E+03   -0.23112E-02   -0.23073E-02  7056   0.429E-02-0.936E-04
CGA:   3    -0.368079956924E+03   -0.82994E-03   -0.83516E-03  7056   0.869E-03 0.484E-04
CGA:   4    -0.368080124424E+03   -0.16750E-03   -0.16978E-03  7056   0.158E-03 0.236E-04
CGA:   5    -0.368080158809E+03   -0.34385E-04   -0.34436E-04  7056   0.411E-04 0.607E-06
CGA:   6    -0.368080168841E+03   -0.10032E-04   -0.10081E-04  7056   0.134E-04 0.139E-05
CGA:   7    -0.368080172706E+03   -0.38651E-05   -0.38621E-05  7056   0.556E-05 0.141E-05
  59 F= -.36808017E+03 E0= -.36808017E+03  d E =-.492973E-03  mag=    12.0000
       N       E                     dE             d eps       ncg     rms          ort
SDA:   1    -0.368018321636E+03    0.61847E-01    0.00000E+00  7056   0.190E+00 0.000E+00
CGA:   2    -0.368062679022E+03   -0.44357E-01   -0.44362E-01  7056   0.760E-01-0.130E-03
CGA:   3    -0.368078561717E+03   -0.15883E-01   -0.15889E-01  7056   0.184E-01-0.291E-04
CGA:   4    -0.368082084654E+03   -0.35229E-02   -0.35289E-02  7056   0.314E-02 0.592E-04
CGA:   5    -0.368082743436E+03   -0.65878E-03   -0.66154E-03  7056   0.822E-03 0.433E-04
CGA:   6    -0.368082955776E+03   -0.21234E-03   -0.21252E-03  7056   0.308E-03 0.132E-04
CGA:   7    -0.368083061964E+03   -0.10619E-03   -0.10671E-03  7056   0.185E-03-0.734E-05
CGA:   8    -0.368083128641E+03   -0.66678E-04   -0.66517E-04  7056   0.981E-04 0.143E-05
CGA:   9    -0.368083161044E+03   -0.32403E-04   -0.32279E-04  7056   0.351E-04 0.234E-05
CGA:  10    -0.368083172693E+03   -0.11649E-04   -0.11618E-04  7056   0.120E-04 0.659E-06
CGA:  11    -0.368083176415E+03   -0.37221E-05   -0.36798E-05  7056   0.417E-05 0.212E-05
  60 F= -.36808318E+03 E0= -.36808318E+03  d E =-.300371E-02  mag=    12.0000
       N       E                     dE             d eps       ncg     rms          ort
SDA:   1    -0.367934595642E+03    0.14858E+00    0.00000E+00  7056   0.451E+00 0.000E+00
CGA:   2    -0.368039130339E+03   -0.10453E+00   -0.10456E+00  7056   0.173E+00-0.230E-04
CGA:   3    -0.368076010534E+03   -0.36880E-01   -0.36882E-01  7056   0.433E-01-0.234E-03
CGA:   4    -0.368084295474E+03   -0.82849E-02   -0.82977E-02  7056   0.739E-02 0.116E-03
CGA:   5    -0.368085855415E+03   -0.15599E-02   -0.15664E-02  7056   0.197E-02 0.996E-04
CGA:   6    -0.368086379195E+03   -0.52378E-03   -0.52376E-03  7056   0.795E-03-0.377E-05
CGA:   7    -0.368086651409E+03   -0.27221E-03   -0.27503E-03  7056   0.498E-03-0.377E-04
CGA:   8    -0.368086820792E+03   -0.16938E-03   -0.16865E-03  7056   0.249E-03 0.841E-05
CGA:   9    -0.368086898706E+03   -0.77915E-04   -0.77370E-04  7056   0.831E-04 0.194E-04
CGA:  10    -0.368086927471E+03   -0.28764E-04   -0.28615E-04  7056   0.293E-04 0.368E-05
CGA:  11    -0.368086939065E+03   -0.11595E-04   -0.11738E-04  7056   0.137E-04-0.144E-05
CGA:  12    -0.368086944411E+03   -0.53461E-05   -0.55385E-05  7056   0.629E-05-0.141E-05
  61 F= -.36808694E+03 E0= -.36808694E+03  d E =-.376800E-02  mag=    12.0000
       N       E                     dE             d eps       ncg     rms          ort
SDA:   1    -0.367378506061E+03    0.70843E+00    0.00000E+00  7056   0.203E+01 0.000E+00
CGA:   2    -0.367876062642E+03   -0.49756E+00   -0.49775E+00  7056   0.792E+00 0.780E-03
CGA:   3    -0.368043394937E+03   -0.16733E+00   -0.16740E+00  7056   0.191E+00-0.402E-03
CGA:   4    -0.368079624790E+03   -0.36230E-01   -0.36263E-01  7056   0.324E-01 0.179E-03
CGA:   5    -0.368086555041E+03   -0.69303E-02   -0.69461E-02  7056   0.879E-02 0.208E-03
CGA:   6    -0.368088843409E+03   -0.22884E-02   -0.22886E-02  7056   0.343E-02 0.615E-05
CGA:   7    -0.368089991924E+03   -0.11485E-02   -0.11517E-02  7056   0.202E-02-0.606E-04
CGA:   8    -0.368090722013E+03   -0.73009E-03   -0.72857E-03  7056   0.106E-02 0.157E-04
CGA:   9    -0.368091069023E+03   -0.34701E-03   -0.34592E-03  7056   0.372E-03 0.273E-04
CGA:  10    -0.368091193284E+03   -0.12426E-03   -0.12412E-03  7056   0.130E-03 0.362E-05
CGA:  11    -0.368091241913E+03   -0.48629E-04   -0.48767E-04  7056   0.563E-04-0.179E-05
CGA:  12    -0.368091263923E+03   -0.22010E-04   -0.21990E-04  7056   0.227E-04 0.158E-06
CGA:  13    -0.368091272397E+03   -0.84737E-05   -0.84640E-05  7056   0.691E-05 0.119E-06
  62 F= -.36809127E+03 E0= -.36809127E+03  d E =-.432799E-02  mag=    12.0000
       N       E                     dE             d eps       ncg     rms          ort
SDA:   1    -0.366368793546E+03    0.17225E+01    0.00000E+00  7056   0.430E+01 0.000E+00
CGA:   2    -0.367660253502E+03   -0.12915E+01   -0.12915E+01  7056   0.148E+01 0.329E-02
CGA:   3    -0.367984409425E+03   -0.32416E+00   -0.32428E+00  7056   0.307E+00 0.159E-03
CGA:   4    -0.368042286915E+03   -0.57877E-01   -0.57902E-01  7056   0.633E-01-0.129E-03
CGA:   5    -0.368056393737E+03   -0.14107E-01   -0.14122E-01  7056   0.172E-01 0.194E-03
[...]
CGA:   6    -0.368070521888E+03   -0.21608E-01   -0.21611E-01  7056   0.261E-01 0.293E-03
CGA:   7    -0.368078221932E+03   -0.77000E-02   -0.77144E-02  7056   0.113E-01-0.328E-03
CGA:   8    -0.368082160901E+03   -0.39390E-02   -0.39881E-02  7056   0.554E-02-0.469E-03
CGA:   9    -0.368083904321E+03   -0.17434E-02   -0.17522E-02  7056   0.197E-02-0.122E-03
CGA:  10    -0.368084528052E+03   -0.62373E-03   -0.62423E-03  7056   0.659E-03-0.851E-05
CGA:  11    -0.368084769945E+03   -0.24189E-03   -0.24001E-03  7056   0.298E-03 0.183E-04
CGA:  12    -0.368084894532E+03   -0.12459E-03   -0.12088E-03  7056   0.147E-03 0.291E-04
CGA:  13    -0.368084949331E+03   -0.54799E-04   -0.52754E-04  7056   0.547E-04 0.403E-04
CGA:  14    -0.368084970764E+03   -0.21433E-04   -0.20981E-04  7056   0.197E-04 0.193E-04
CGA:  15    -0.368084978631E+03   -0.78663E-05   -0.77621E-05  7056   0.773E-05 0.879E-05
  82 F= -.36808498E+03 E0= -.36808498E+03  d E =0.179880E-01  mag=    12.0000
       N       E                     dE             d eps       ncg     rms          ort
SDA:   1    -0.366713198922E+03    0.13718E+01    0.00000E+00  7056   0.411E+01 0.000E+00
CGA:   2    -0.367585026606E+03   -0.87183E+00   -0.87220E+00  7056   0.184E+01-0.929E-03
CGA:   3    -0.367990527105E+03   -0.40550E+00   -0.40590E+00  7056   0.405E+00 0.467E-02
CGA:   4    -0.368067898426E+03   -0.77371E-01   -0.77427E-01  7056   0.740E-01 0.426E-03
CGA:   5    -0.368083855941E+03   -0.15958E-01   -0.15940E-01  7056   0.200E-01-0.360E-03
CGA:   6    -0.368088812683E+03   -0.49567E-02   -0.49558E-02  7056   0.648E-02-0.664E-04
CGA:   7    -0.368090644819E+03   -0.18321E-02   -0.18294E-02  7056   0.253E-02 0.147E-03
CGA:   8    -0.368091496592E+03   -0.85177E-03   -0.84641E-03  7056   0.110E-02 0.865E-04
CGA:   9    -0.368091893691E+03   -0.39710E-03   -0.40223E-03  7056   0.478E-03-0.611E-04
CGA:  10    -0.368092057464E+03   -0.16377E-03   -0.17007E-03  7056   0.215E-03-0.609E-04
CGA:  11    -0.368092127232E+03   -0.69768E-04   -0.71120E-04  7056   0.961E-04-0.136E-04
CGA:  12    -0.368092158746E+03   -0.31514E-04   -0.30838E-04  7056   0.362E-04 0.113E-04
CGA:  13    -0.368092175263E+03   -0.16517E-04   -0.16757E-04  7056   0.179E-04-0.190E-05
CGA:  14    -0.368092181171E+03   -0.59081E-05   -0.58306E-05  7056   0.606E-05 0.152E-05
  83 F= -.36809218E+03 E0= -.36809218E+03  d E =-.720254E-02  mag=    12.0000
       N       E                     dE             d eps       ncg     rms          ort
SDA:   1    -0.365729893203E+03    0.23623E+01    0.00000E+00  7056   0.622E+01 0.000E+00
CGA:   2    -0.367374745208E+03   -0.16449E+01   -0.16451E+01  7056   0.303E+01-0.226E-02
CGA:   3    -0.367963783156E+03   -0.58904E+00   -0.58989E+00  7056   0.557E+00 0.194E-02
CGA:   4    -0.368070060200E+03   -0.10628E+00   -0.10640E+00  7056   0.993E-01 0.820E-03
CGA:   5    -0.368091557409E+03   -0.21497E-01   -0.21506E-01  7056   0.263E-01 0.490E-04
CGA:   6    -0.368097961313E+03   -0.64039E-02   -0.63951E-02  7056   0.788E-02-0.197E-03
CGA:   7    -0.368100238359E+03   -0.22770E-02   -0.22772E-02  7056   0.330E-02-0.866E-04
CGA:   8    -0.368101352915E+03   -0.11146E-02   -0.11162E-02  7056   0.148E-02-0.313E-04
CGA:   9    -0.368101853311E+03   -0.50040E-03   -0.50466E-03  7056   0.561E-03-0.820E-04
CGA:  10    -0.368102038245E+03   -0.18493E-03   -0.18882E-03  7056   0.214E-03-0.633E-04
CGA:  11    -0.368102113615E+03   -0.75370E-04   -0.79033E-04  7056   0.113E-03-0.309E-04
CGA:  12    -0.368102147733E+03   -0.34118E-04   -0.33545E-04  7056   0.453E-04 0.131E-04
CGA:  13    -0.368102167372E+03   -0.19639E-04   -0.19522E-04  7056   0.210E-04 0.143E-05
CGA:  14    -0.368102174435E+03   -0.70630E-05   -0.70111E-05  7056   0.692E-05 0.392E-05
  84 F= -.36810217E+03 E0= -.36810217E+03  d E =-.999326E-02  mag=    12.0000
       N       E                     dE             d eps       ncg     rms          ort
SDA:   1    -0.367596326905E+03    0.50584E+00    0.00000E+00  7056   0.140E+01 0.000E+00
CGA:   2    -0.367923423546E+03   -0.32710E+00   -0.32732E+00  7056   0.690E+00 0.921E-03
CGA:   3    -0.368067054688E+03   -0.14363E+00   -0.14355E+00  7056   0.132E+00-0.193E-02
CGA:   4    -0.368092480343E+03   -0.25426E-01   -0.25389E-01  7056   0.255E-01-0.398E-03
CGA:   5    -0.368097825082E+03   -0.53447E-02   -0.53672E-02  7056   0.650E-02 0.232E-03
CGA:   6    -0.368099429107E+03   -0.16040E-02   -0.16074E-02  7056   0.204E-02 0.602E-04
CGA:   7    -0.368100065482E+03   -0.63637E-03   -0.63795E-03  7056   0.915E-03-0.108E-03
CGA:   8    -0.368100359735E+03   -0.29425E-03   -0.29668E-03  7056   0.409E-03-0.528E-04
CGA:   9    -0.368100467199E+03   -0.10746E-03   -0.10805E-03  7056   0.120E-03 0.322E-04
CGA:  10    -0.368100501750E+03   -0.34552E-04   -0.35182E-04  7056   0.400E-04 0.237E-04
CGA:  11    -0.368100517667E+03   -0.15917E-04   -0.15718E-04  7056   0.205E-04 0.626E-05
CGA:  12    -0.368100526778E+03   -0.91110E-05   -0.88840E-05  7056   0.115E-04 0.295E-05
  85 F= -.36810053E+03 E0= -.36810053E+03  d E =0.164766E-02  mag=    12.0000
       N       E                     dE             d eps       ncg     rms          ort
SDA:   1    -0.367959528845E+03    0.14099E+00    0.00000E+00  7056   0.360E+00 0.000E+00
CGA:   2    -0.368066999830E+03   -0.10747E+00   -0.10747E+00  7056   0.152E+00 0.696E-03
CGA:   3    -0.368096464954E+03   -0.29465E-01   -0.29520E-01  7056   0.324E-01 0.228E-03
CGA:   4    -0.368102956140E+03   -0.64912E-02   -0.64454E-02  7056   0.632E-02-0.488E-03
CGA:   5    -0.368104373510E+03   -0.14174E-02   -0.14115E-02  7056   0.185E-02-0.936E-04
CGA:   6    -0.368104803827E+03   -0.43032E-03   -0.43378E-03  7056   0.565E-03 0.696E-04
CGA:   7    -0.368104967440E+03   -0.16361E-03   -0.16383E-03  7056   0.213E-03 0.382E-04
CGA:   8    -0.368105047058E+03   -0.79619E-04   -0.79984E-04  7056   0.962E-04-0.550E-05
CGA:   9    -0.368105077014E+03   -0.29956E-04   -0.30170E-04  7056   0.319E-04-0.642E-05
CGA:  10    -0.368105086337E+03   -0.93234E-05   -0.93566E-05  7056   0.976E-05-0.137E-05
  86 F= -.36810509E+03 E0= -.36810509E+03  d E =-.455956E-02  mag=    12.0000
       N       E                     dE             d eps       ncg     rms          ort
SDA:   1    -0.368086321183E+03    0.18756E-01    0.00000E+00  7056   0.534E-01 0.000E+00
CGA:   2    -0.368099059255E+03   -0.12738E-01   -0.12731E-01  7056   0.259E-01-0.206E-03
CGA:   3    -0.368104269194E+03   -0.52099E-02   -0.52426E-02  7056   0.504E-02 0.350E-03
CGA:   4    -0.368105227396E+03   -0.95820E-03   -0.96692E-03  7056   0.892E-03 0.900E-04
CGA:   5    -0.368105431214E+03   -0.20382E-03   -0.20230E-03  7056   0.254E-03-0.280E-04
CGA:   6    -0.368105492466E+03   -0.61252E-04   -0.61028E-04  7056   0.807E-04-0.843E-05
CGA:   7    -0.368105511090E+03   -0.18623E-04   -0.18951E-04  7056   0.266E-04 0.105E-04
CGA:   8    -0.368105519104E+03   -0.80142E-05   -0.80447E-05  7056   0.109E-04 0.685E-05
  87 F= -.36810552E+03 E0= -.36810552E+03  d E =-.432766E-03  mag=    12.0000
       N       E                     dE             d eps       ncg     rms          ort
SDA:   1    -0.368094937967E+03    0.10573E-01    0.00000E+00  7056   0.260E-01 0.000E+00
CGA:   2    -0.368102768332E+03   -0.78304E-02   -0.78267E-02  7056   0.119E-01 0.186E-03
CGA:   3    -0.368104957927E+03   -0.21896E-02   -0.21863E-02  7056   0.204E-02-0.541E-04
CGA:   4    -0.368105359847E+03   -0.40192E-03   -0.39845E-03  7056   0.430E-03-0.433E-04
CGA:   5    -0.368105446393E+03   -0.86546E-04   -0.86944E-04  7056   0.104E-03 0.568E-05
CGA:   6    -0.368105469359E+03   -0.22965E-04   -0.23292E-04  7056   0.274E-04 0.666E-05
CGA:   7    -0.368105479875E+03   -0.10516E-04   -0.11857E-04  7056   0.233E-04-0.974E-05
CGA:   8    -0.368105484485E+03   -0.46106E-05   -0.47780E-05  7056   0.115E-04-0.397E-05
  88 F= -.36810548E+03 E0= -.36810548E+03  d E =0.346186E-04  mag=    12.0000
       N       E                     dE             d eps       ncg     rms          ort
SDA:   1    -0.366434639446E+03    0.16708E+01    0.00000E+00  7056   0.405E+01 0.000E+00
CGA:   2    -0.367672493135E+03   -0.12379E+01   -0.12376E+01  7056   0.194E+01 0.424E-02
CGA:   3    -0.368018300008E+03   -0.34581E+00   -0.34600E+00  7056   0.300E+00-0.194E-02
CGA:   4    -0.368077037563E+03   -0.58738E-01   -0.58676E-01  7056   0.598E-01-0.945E-03
CGA:   5    -0.368089960579E+03   -0.12923E-01   -0.12929E-01  7056   0.151E-01 0.869E-04
CGA:   6    -0.368093467937E+03   -0.35074E-02   -0.35101E-02  7056   0.418E-02 0.802E-04
CGA:   7    -0.368094735988E+03   -0.12681E-02   -0.12718E-02  7056   0.183E-02-0.940E-04
CGA:   8    -0.368095371192E+03   -0.63520E-03   -0.64557E-03  7056   0.900E-03-0.107E-03
CGA:   9    -0.368095644641E+03   -0.27345E-03   -0.27517E-03  7056   0.303E-03-0.310E-04
CGA:  10    -0.368095744015E+03   -0.99374E-04   -0.10162E-03  7056   0.111E-03-0.297E-04
CGA:  11    -0.368095784908E+03   -0.40893E-04   -0.45835E-04  7056   0.738E-04-0.271E-04
CGA:  12    -0.368095806800E+03   -0.21892E-04   -0.37117E-04  7056   0.949E-04-0.400E-04
CGA:  13    -0.368095825046E+03   -0.18245E-04   -0.19665E-04  7056   0.160E-04 0.147E-04
CGA:  14    -0.368095830410E+03   -0.53644E-05   -0.12732E-04  7056   0.377E-04-0.190E-04
  89 F= -.36809583E+03 E0= -.36809583E+03  d E =0.965408E-02  mag=    12.0000
       N       E                     dE             d eps       ncg     rms          ort
SDA:   1    -0.361192651875E+03    0.69032E+01    0.00000E+00  7056   0.168E+02 0.000E+00
CGA:   2    -0.366327907410E+03   -0.51353E+01   -0.51354E+01  7056   0.772E+01 0.614E-02
CGA:   3    -0.367715058972E+03   -0.13872E+01   -0.13892E+01  7056   0.127E+01-0.128E-02
CGA:   4    -0.367965126990E+03   -0.25007E+00   -0.24988E+00  7056   0.255E+00-0.209E-02
CGA:   5    -0.368020663197E+03   -0.55536E-01   -0.55535E-01  7056   0.658E-01-0.128E-03
CGA:   6    -0.368036278936E+03   -0.15616E-01   -0.15620E-01  7056   0.191E-01 0.367E-04
CGA:   7    -0.368041923316E+03   -0.56444E-02   -0.56447E-02  7056   0.791E-02-0.116E-03
CGA:   8    -0.368044675110E+03   -0.27518E-02   -0.27664E-02  7056   0.361E-02-0.246E-03
CGA:   9    -0.368045838114E+03   -0.11630E-02   -0.11708E-02  7056   0.127E-02-0.193E-03
CGA:  10    -0.368046236526E+03   -0.39841E-03   -0.40188E-03  7056   0.423E-03-0.927E-04
CGA:  11    -0.368046399087E+03   -0.16256E-03   -0.17735E-03  7056   0.272E-03-0.968E-04
CGA:  12    -0.368046495325E+03   -0.96238E-04   -0.10954E-03  7056   0.200E-03-0.617E-04
CGA:  13    -0.368046560833E+03   -0.65508E-04   -0.77301E-04  7056   0.146E-03-0.647E-04
CGA:  14    -0.368046587431E+03   -0.26599E-04   -0.26307E-04  7056   0.539E-04-0.496E-05
CGA:  15    -0.368046606949E+03   -0.19517E-04   -0.21441E-04  7056   0.309E-04-0.218E-04
CGA:  16    -0.368046584442E+03    0.22506E-04   -0.21332E-04  7056   0.177E-03-0.530E-04
CGA:  17    -0.368046616704E+03   -0.32262E-04   -0.35395E-04  7056   0.292E-04 0.184E-04
CGA:  18    -0.368046628261E+03   -0.11557E-04   -0.11558E-04  7056   0.811E-05 0.599E-06
CGA:  19    -0.368046630918E+03   -0.26570E-05   -0.27168E-05  7056   0.296E-05 0.186E-05
  90 F= -.36804663E+03 E0= -.36804663E+03  d E =0.491995E-01  mag=    12.0000
       N       E                     dE             d eps       ncg     rms          ort
SDA:   1    -0.364802551684E+03    0.32441E+01    0.00000E+00  7056   0.829E+01 0.000E+00
CGA:   2    -0.367135288887E+03   -0.23327E+01   -0.23326E+01  7056   0.419E+01-0.760E-02
CGA:   3    -0.367910397352E+03   -0.77511E+00   -0.77677E+00  7056   0.666E+00 0.387E-02
CGA:   4    -0.368040030889E+03   -0.12963E+00   -0.12991E+00  7056   0.134E+00 0.133E-02
CGA:   5    -0.368069258620E+03   -0.29228E-01   -0.29239E-01  7056   0.346E-01 0.353E-04
CGA:   6    -0.368077544489E+03   -0.82859E-02   -0.82602E-02  7056   0.103E-01-0.298E-03
CGA:   7    -0.368080533892E+03   -0.29894E-02   -0.29843E-02  7056   0.415E-02-0.163E-03
CGA:   8    -0.368081911895E+03   -0.13780E-02   -0.13785E-02  7056   0.180E-02-0.359E-04
CGA:   9    -0.368082508531E+03   -0.59664E-03   -0.59739E-03  7056   0.641E-03-0.793E-04
CGA:  10    -0.368082717704E+03   -0.20917E-03   -0.21003E-03  7056   0.222E-03-0.481E-04
CGA:  11    -0.368082787155E+03   -0.69452E-04   -0.69324E-04  7056   0.860E-04 0.106E-04
CGA:  12    -0.368082811889E+03   -0.24733E-04   -0.25917E-04  7056   0.378E-04 0.307E-04
CGA:  13    -0.368082826621E+03   -0.14732E-04   -0.15217E-04  7056   0.192E-04 0.173E-04
CGA:  14    -0.368082833432E+03   -0.68110E-05   -0.75002E-05  7056   0.944E-05 0.126E-04
  91 F= -.36808283E+03 E0= -.36808283E+03  d E =-.362025E-01  mag=    12.0000
       N       E                     dE             d eps       ncg     rms          ort
SDA:   1    -0.360869932317E+03    0.72129E+01    0.00000E+00  7056   0.176E+02 0.000E+00
CGA:   2    -0.366378318098E+03   -0.55084E+01   -0.55084E+01  7056   0.754E+01 0.117E-03
CGA:   3    -0.367736690245E+03   -0.13584E+01   -0.13611E+01  7056   0.133E+01 0.413E-02
CGA:   4    -0.367998025210E+03   -0.26133E+00   -0.26141E+00  7056   0.257E+00-0.230E-03
CGA:   5    -0.368054701439E+03   -0.56676E-01   -0.56660E-01  7056   0.674E-01-0.314E-03
CGA:   6    -0.368070820255E+03   -0.16119E-01   -0.16122E-01  7056   0.197E-01 0.208E-04
CGA:   7    -0.368076598337E+03   -0.57781E-02   -0.57777E-02  7056   0.809E-02-0.109E-03
CGA:   8    -0.368079391716E+03   -0.27934E-02   -0.28039E-02  7056   0.352E-02-0.203E-03
CGA:   9    -0.368080502576E+03   -0.11109E-02   -0.11127E-02  7056   0.116E-02-0.733E-04
CGA:  10    -0.368080860886E+03   -0.35831E-03   -0.35846E-03  7056   0.352E-03-0.104E-04
CGA:  11    -0.368080972864E+03   -0.11198E-03   -0.11106E-03  7056   0.137E-03 0.505E-04
CGA:  12    -0.368081032164E+03   -0.59300E-04   -0.57240E-04  7056   0.807E-04 0.326E-04
CGA:  13    -0.368081059605E+03   -0.27441E-04   -0.28366E-04  7056   0.403E-04 0.447E-04
CGA:  14    -0.368081072686E+03   -0.13081E-04   -0.12854E-04  7056   0.174E-04 0.145E-04
CGA:  15    -0.368081076456E+03   -0.37693E-05   -0.52143E-05  7056   0.129E-04 0.171E-04
  92 F= -.36808108E+03 E0= -.36808108E+03  d E =0.175698E-02  mag=    12.0000
       N       E                     dE             d eps       ncg     rms          ort
SDA:   1    -0.366171838199E+03    0.19092E+01    0.00000E+00  7056   0.460E+01 0.000E+00
CGA:   2    -0.367562828623E+03   -0.13910E+01   -0.13910E+01  7056   0.191E+01-0.158E-02
CGA:   3    -0.367941306455E+03   -0.37848E+00   -0.37870E+00  7056   0.417E+00-0.134E-02
CGA:   4    -0.368024231102E+03   -0.82925E-01   -0.82908E-01  7056   0.859E-01-0.326E-03
CGA:   5    -0.368044205765E+03   -0.19975E-01   -0.19983E-01  7056   0.253E-01 0.138E-03
CGA:   6    -0.368050760874E+03   -0.65551E-02   -0.65519E-02  7056   0.934E-02-0.118E-03
CGA:   7    -0.368053506070E+03   -0.27452E-02   -0.27474E-02  7056   0.361E-02-0.248E-03
CGA:   8    -0.368054664925E+03   -0.11589E-02   -0.11628E-02  7056   0.135E-02-0.907E-04
CGA:   9    -0.368055053208E+03   -0.38828E-03   -0.38820E-03  7056   0.390E-03 0.153E-04
CGA:  10    -0.368055178648E+03   -0.12544E-03   -0.12544E-03  7056   0.123E-03-0.173E-07
CGA:  11    -0.368055223026E+03   -0.44377E-04   -0.44191E-04  7056   0.515E-04 0.264E-05
CGA:  12    -0.368055245252E+03   -0.22226E-04   -0.22019E-04  7056   0.283E-04 0.165E-05
CGA:  13    -0.368055252312E+03   -0.70601E-05   -0.75526E-05  7056   0.119E-04 0.116E-04
  93 F= -.36805525E+03 E0= -.36805525E+03  d E =0.258241E-01  mag=    12.0000
       N       E                     dE             d eps       ncg     rms          ort
SDA:   1    -0.366112537891E+03    0.19427E+01    0.00000E+00  7056   0.496E+01 0.000E+00
CGA:   2    -0.367588322590E+03   -0.14758E+01   -0.14758E+01  7056   0.212E+01 0.272E-02
CGA:   3    -0.367991862492E+03   -0.40354E+00   -0.40389E+00  7056   0.419E+00-0.374E-03
CGA:   4    -0.368073202494E+03   -0.81340E-01   -0.81354E-01  7056   0.794E-01-0.448E-04
CGA:   5    -0.368091036013E+03   -0.17834E-01   -0.17832E-01  7056   0.217E-01-0.625E-04
CGA:   6    -0.368096433127E+03   -0.53971E-02   -0.53956E-02  7056   0.705E-02-0.520E-04
CGA:   7    -0.368098467561E+03   -0.20344E-02   -0.20342E-02  7056   0.283E-02 0.515E-04
CGA:   8    -0.368099434629E+03   -0.96707E-03   -0.96666E-03  7056   0.116E-02 0.639E-05
CGA:   9    -0.368099823510E+03   -0.38888E-03   -0.39267E-03  7056   0.429E-03-0.742E-04
CGA:  10    -0.368099962153E+03   -0.13864E-03   -0.14221E-03  7056   0.163E-03-0.555E-04
CGA:  11    -0.368100021243E+03   -0.59090E-04   -0.73554E-04  7056   0.143E-03-0.643E-04
CGA:  12    -0.368100056596E+03   -0.35353E-04   -0.42730E-04  7056   0.101E-03-0.394E-04
CGA:  13    -0.368100084697E+03   -0.28101E-04   -0.36187E-04  7056   0.803E-04-0.446E-04
CGA:  14    -0.368100098670E+03   -0.13973E-04   -0.13834E-04  7056   0.323E-04-0.105E-04
CGA:  15    -0.368100107637E+03   -0.89673E-05   -0.89568E-05  7056   0.139E-04-0.318E-05
  94 F= -.36810011E+03 E0= -.36810011E+03  d E =-.448553E-01  mag=    12.0000
       N       E                     dE             d eps       ncg     rms          ort
SDA:   1    -0.367965121234E+03    0.13498E+00    0.00000E+00  7056   0.339E+00 0.000E+00
CGA:   2    -0.368058689461E+03   -0.93568E-01   -0.93666E-01  7056   0.156E+00 0.142E-02
CGA:   3    -0.368089139424E+03   -0.30450E-01   -0.30425E-01  7056   0.316E-01-0.470E-03
CGA:   4    -0.368095508114E+03   -0.63687E-02   -0.63073E-02  7056   0.638E-02-0.510E-03
CGA:   5    -0.368096895687E+03   -0.13876E-02   -0.13850E-02  7056   0.179E-02-0.288E-04
CGA:   6    -0.368097303622E+03   -0.40794E-03   -0.41646E-03  7056   0.535E-03 0.108E-03
CGA:   7    -0.368097449276E+03   -0.14565E-03   -0.14894E-03  7056   0.189E-03 0.709E-04
CGA:   8    -0.368097522873E+03   -0.73596E-04   -0.73367E-04  7056   0.901E-04 0.613E-05
CGA:   9    -0.368097553463E+03   -0.30590E-04   -0.30726E-04  7056   0.335E-04-0.620E-05
CGA:  10    -0.368097561947E+03   -0.84846E-05   -0.85787E-05  7056   0.931E-05 0.272E-05
  95 F= -.36809756E+03 E0= -.36809756E+03  d E =0.254569E-02  mag=    12.0000
       N       E                     dE             d eps       ncg     rms          ort
SDA:   1    -0.368056483490E+03    0.41070E-01    0.00000E+00  7056   0.102E+00 0.000E+00
CGA:   2    -0.368088931548E+03   -0.32448E-01   -0.32449E-01  7056   0.385E-01-0.107E-03
CGA:   3    -0.368097017648E+03   -0.80861E-02   -0.80707E-02  7056   0.868E-02-0.207E-03
CGA:   4    -0.368098657945E+03   -0.16403E-02   -0.16510E-02  7056   0.186E-02 0.889E-04
CGA:   5    -0.368099102171E+03   -0.44423E-03   -0.44574E-03  7056   0.550E-03 0.257E-04
CGA:   6    -0.368099266149E+03   -0.16398E-03   -0.16407E-03  7056   0.257E-03-0.586E-04
CGA:   7    -0.368099335890E+03   -0.69741E-04   -0.70264E-04  7056   0.107E-03-0.383E-04
CGA:   8    -0.368099360646E+03   -0.24756E-04   -0.24869E-04  7056   0.304E-04 0.554E-05
CGA:   9    -0.368099367265E+03   -0.66186E-05   -0.71560E-05  7056   0.877E-05 0.781E-05
  96 F= -.36809937E+03 E0= -.36809937E+03  d E =-.180532E-02  mag=    12.0000
       N       E                     dE             d eps       ncg     rms          ort
SDA:   1    -0.368077628297E+03    0.21732E-01    0.00000E+00  7056   0.529E-01 0.000E+00
CGA:   2    -0.368093636653E+03   -0.16008E-01   -0.16011E-01  7056   0.232E-01-0.206E-03
CGA:   3    -0.368097936075E+03   -0.42994E-02   -0.43062E-02  7056   0.441E-02 0.307E-04
CGA:   4    -0.368098752357E+03   -0.81628E-03   -0.82794E-03  7056   0.774E-03 0.120E-03
CGA:   5    -0.368098926369E+03   -0.17401E-03   -0.17506E-03  7056   0.207E-03 0.177E-04
CGA:   6    -0.368098985769E+03   -0.59400E-04   -0.59565E-04  7056   0.824E-04-0.269E-04
CGA:   7    -0.368099008354E+03   -0.22585E-04   -0.23441E-04  7056   0.428E-04-0.167E-04
CGA:   8    -0.368099018248E+03   -0.98934E-05   -0.98985E-05  7056   0.144E-04-0.445E-06
  97 F= -.36809902E+03 E0= -.36809902E+03  d E =0.349017E-03  mag=    12.0000
