       N       E                     dE             d eps       ncg     rms          rms(c)
DAV:   1     0.254910838530E+04    0.25491E+04   -0.12685E+05 40528   0.158E+03
DAV:   2    -0.128390155087E+02   -0.25619E+04   -0.23565E+04 41208   0.434E+02
DAV:   3    -0.304699739278E+03   -0.29186E+03   -0.28693E+03 43216   0.161E+02
DAV:   4    -0.313613295668E+03   -0.89136E+01   -0.88300E+01 50368   0.284E+01
DAV:   5    -0.313973989168E+03   -0.36069E+00   -0.36021E+00 59704   0.444E+00    0.836E+01
DAV:   6    -0.289051589928E+03    0.24922E+02   -0.31526E+02 51448   0.781E+01    0.120E+02
DAV:   7    -0.267365581356E+03    0.21686E+02   -0.17614E+02 42136   0.117E+02    0.354E+01
DAV:   8    -0.261186756520E+03    0.61788E+01   -0.22211E+01 50352   0.218E+01    0.131E+01
DAV:   9    -0.260435481110E+03    0.75128E+00   -0.39184E+00 50320   0.916E+00    0.438E+00
DAV:  10    -0.260523345375E+03   -0.87864E-01   -0.94263E-01 44632   0.361E+00    0.283E+00
DAV:  11    -0.260515832756E+03    0.75126E-02   -0.85755E-02 43624   0.203E+00    0.196E+00
DAV:  12    -0.260513274354E+03    0.25584E-02   -0.52759E-02 51368   0.151E+00    0.118E+00
DAV:  13    -0.260513735714E+03   -0.46136E-03   -0.30544E-02 43568   0.106E+00    0.421E-01
DAV:  14    -0.260513052049E+03    0.68367E-03   -0.62055E-03 46336   0.535E-01    0.254E-01
DAV:  15    -0.260513247331E+03   -0.19528E-03   -0.25441E-03 44392   0.210E-01    0.147E-01
DAV:  16    -0.260513282049E+03   -0.34718E-04   -0.39100E-04 43336   0.138E-01    0.890E-02
DAV:  17    -0.260513310458E+03   -0.28410E-04   -0.12729E-04 46080   0.672E-02    0.324E-02
DAV:  18    -0.260513331870E+03   -0.21412E-04   -0.57457E-05 41016   0.309E-02    0.189E-02
DAV:  19    -0.260513334290E+03   -0.24198E-05   -0.93669E-06 27432   0.191E-02
   1 F= -.26051333E+03 E0= -.26051333E+03  d E =-.260513E+03  mag=    12.0004
