       N       E                     dE             d eps       ncg     rms          ort
DAV:   1     0.242960326090E+04    0.24296E+04   -0.14189E+05  7056   0.152E+03
DAV:   2    -0.218021249488E+03   -0.26476E+04   -0.25506E+04  7056   0.410E+02
DAV:   3    -0.454628261451E+03   -0.23661E+03   -0.23006E+03  7056   0.140E+02
DAV:   4    -0.465197209868E+03   -0.10569E+02   -0.10303E+02  7056   0.316E+01
DAV:   5    -0.465740612239E+03   -0.54340E+00   -0.53708E+00  7056   0.476E+00
SDA:   6    -0.303058494788E+03    0.16268E+03   -0.53708E+00  7056   0.446E+03 0.000E+00
CGA:   7    -0.351559106609E+03   -0.48501E+02   -0.58489E+02  7056   0.466E+02 0.250E+02
CGA:   8    -0.361552241078E+03   -0.99931E+01   -0.99955E+01  7056   0.115E+02-0.183E+00
CGA:   9    -0.364587259698E+03   -0.30350E+01   -0.30314E+01  7056   0.360E+01 0.390E-01
CGA:  10    -0.365546905667E+03   -0.95965E+00   -0.96003E+00  7056   0.124E+01-0.125E-01
CGA:  11    -0.365880957635E+03   -0.33405E+00   -0.33543E+00  7056   0.398E+00-0.197E-01
CGA:  12    -0.365995483190E+03   -0.11453E+00   -0.11492E+00  7056   0.111E+00-0.452E-02
CGA:  13    -0.366027101409E+03   -0.31618E-01   -0.31557E-01  7056   0.334E-01 0.796E-03
CGA:  14    -0.366038474428E+03   -0.11373E-01   -0.11318E-01  7056   0.111E-01 0.457E-03
CGA:  15    -0.366042496751E+03   -0.40223E-02   -0.39650E-02  7056   0.422E-02 0.430E-03
CGA:  16    -0.366044095967E+03   -0.15992E-02   -0.15566E-02  7056   0.146E-02 0.334E-03
CGA:  17    -0.366044780830E+03   -0.68486E-03   -0.70712E-03  7056   0.735E-03-0.105E-03
CGA:  18    -0.366044939035E+03   -0.15821E-03   -0.52903E-03  7056   0.141E-02-0.701E-03
CGA:  19    -0.366045212667E+03   -0.27363E-03   -0.28699E-03  7056   0.217E-03 0.197E-03
CGA:  20    -0.366045263973E+03   -0.51307E-04   -0.54728E-04  7056   0.637E-04 0.734E-04
CGA:  21    -0.366045283398E+03   -0.19424E-04   -0.20376E-04  7056   0.323E-04 0.356E-04
CGA:  22    -0.366045292380E+03   -0.89825E-05   -0.88826E-05  7056   0.173E-04 0.934E-05
   1 F= -.36604529E+03 E0= -.36604529E+03  d E =-.366045E+03  mag=    12.0000
       N       E                     dE             d eps       ncg     rms          ort
SDA:   1    -0.366071747543E+03   -0.26464E-01    0.00000E+00  7056   0.731E-02 0.000E+00
CGA:   2    -0.366073517583E+03   -0.17700E-02   -0.17706E-02  7056   0.199E-02 0.168E-04
CGA:   3    -0.366074026212E+03   -0.50863E-03   -0.50875E-03  7056   0.542E-03 0.746E-05
CGA:   4    -0.366074127140E+03   -0.10093E-03   -0.10302E-03  7056   0.107E-03 0.257E-04
CGA:   5    -0.366074155229E+03   -0.28090E-04   -0.28072E-04  7056   0.307E-04-0.121E-05
CGA:   6    -0.366074161908E+03   -0.66791E-05   -0.19613E-04  7056   0.860E-04-0.340E-04
CGA:   7    -0.366074174180E+03   -0.12272E-04   -0.13339E-04  7056   0.901E-05 0.826E-05
CGA:   8    -0.366074174591E+03   -0.41081E-06   -0.12386E-05  7056   0.349E-05 0.545E-05
   2 F= -.36607417E+03 E0= -.36607417E+03  d E =-.288822E-01  mag=    12.0000
       N       E                     dE             d eps       ncg     rms          ort
SDA:   1    -0.363222908310E+03    0.28513E+01    0.00000E+00  7056   0.112E+02 0.000E+00
CGA:   2    -0.365952743494E+03   -0.27298E+01   -0.27300E+01  7056   0.306E+01-0.443E-02
CGA:   3    -0.366732711682E+03   -0.77997E+00   -0.77993E+00  7056   0.823E+00-0.597E-02
CGA:   4    -0.366896506381E+03   -0.16379E+00   -0.16385E+00  7056   0.175E+00 0.898E-03
CGA:   5    -0.366938591636E+03   -0.42085E-01   -0.42086E-01  7056   0.467E-01-0.407E-05
CGA:   6    -0.366953117881E+03   -0.14526E-01   -0.14560E-01  7056   0.204E-01-0.615E-03
CGA:   7    -0.366959489798E+03   -0.63719E-02   -0.63885E-02  7056   0.866E-02-0.286E-03
CGA:   8    -0.366962138790E+03   -0.26490E-02   -0.26376E-02  7056   0.265E-02 0.245E-03
CGA:   9    -0.366963008577E+03   -0.86979E-03   -0.86095E-03  7056   0.832E-03 0.170E-03
CGA:  10    -0.366963326868E+03   -0.31829E-03   -0.31723E-03  7056   0.334E-03 0.113E-04
CGA:  11    -0.366963462541E+03   -0.13567E-03   -0.13366E-03  7056   0.141E-03 0.162E-04
CGA:  12    -0.366963512641E+03   -0.50100E-04   -0.48786E-04  7056   0.466E-04 0.255E-04
CGA:  13    -0.366963526038E+03   -0.13397E-04   -0.13939E-04  7056   0.154E-04 0.199E-04
CGA:  14    -0.366963531547E+03   -0.55092E-05   -0.56696E-05  7056   0.628E-05 0.766E-05
   3 F= -.36696353E+03 E0= -.36696353E+03  d E =-.889357E+00  mag=    12.0000
       N       E                     dE             d eps       ncg     rms          ort
SDA:   1    -0.356432645598E+03    0.10531E+02    0.00000E+00  7056   0.364E+02 0.000E+00
CGA:   2    -0.364680045848E+03   -0.82474E+01   -0.82627E+01  7056   0.921E+01 0.629E-01
CGA:   3    -0.367043984829E+03   -0.23639E+01   -0.23632E+01  7056   0.257E+01-0.315E-01
CGA:   4    -0.367553883417E+03   -0.50990E+00   -0.50986E+00  7056   0.551E+00-0.221E-02
CGA:   5    -0.367683999144E+03   -0.13012E+00   -0.13017E+00  7056   0.148E+00 0.173E-02
CGA:   6    -0.367728900649E+03   -0.44902E-01   -0.44893E-01  7056   0.671E-01 0.287E-03
CGA:   7    -0.367750457793E+03   -0.21557E-01   -0.21604E-01  7056   0.303E-01-0.900E-03
CGA:   8    -0.367759941731E+03   -0.94839E-02   -0.94874E-02  7056   0.983E-02-0.636E-04
CGA:   9    -0.367763048825E+03   -0.31071E-02   -0.30953E-02  7056   0.300E-02 0.295E-03
CGA:  10    -0.367764108894E+03   -0.10601E-02   -0.10563E-02  7056   0.110E-02 0.595E-04
CGA:  11    -0.367764552863E+03   -0.44397E-03   -0.43923E-03  7056   0.463E-03 0.420E-04
CGA:  12    -0.367764739163E+03   -0.18630E-03   -0.18499E-03  7056   0.173E-03 0.132E-04
CGA:  13    -0.367764800108E+03   -0.60945E-04   -0.60071E-04  7056   0.511E-04 0.192E-04
CGA:  14    -0.367764824445E+03   -0.24337E-04   -0.25677E-04  7056   0.261E-04-0.849E-05
CGA:  15    -0.367764827587E+03   -0.31422E-05   -0.42833E-05  7056   0.119E-04 0.109E-04
   4 F= -.36776483E+03 E0= -.36776483E+03  d E =-.801296E+00  mag=    12.0000
       N       E                     dE             d eps       ncg     rms          ort
SDA:   1    -0.363908981800E+03    0.38558E+01    0.00000E+00  7056   0.134E+02 0.000E+00
CGA:   2    -0.366852472485E+03   -0.29435E+01   -0.29475E+01  7056   0.344E+01 0.101E-01
CGA:   3    -0.367735683953E+03   -0.88321E+00   -0.88309E+00  7056   0.926E+00-0.210E-02
CGA:   4    -0.367919237583E+03   -0.18355E+00   -0.18364E+00  7056   0.197E+00 0.179E-03
CGA:   5    -0.367965364141E+03   -0.46127E-01   -0.46114E-01  7056   0.508E-01-0.249E-03
CGA:   6    -0.367980815154E+03   -0.15451E-01   -0.15446E-01  7056   0.235E-01 0.199E-03
CGA:   7    -0.367988682908E+03   -0.78678E-02   -0.78624E-02  7056   0.115E-01 0.103E-03
CGA:   8    -0.367992473965E+03   -0.37911E-02   -0.37872E-02  7056   0.400E-02 0.842E-04
CGA:   9    -0.367993767054E+03   -0.12931E-02   -0.12923E-02  7056   0.117E-02 0.198E-04
CGA:  10    -0.367994163069E+03   -0.39602E-03   -0.39761E-03  7056   0.393E-03-0.304E-04
CGA:  11    -0.367994308517E+03   -0.14545E-03   -0.14455E-03  7056   0.149E-03 0.100E-04
CGA:  12    -0.367994371695E+03   -0.63178E-04   -0.63903E-04  7056   0.606E-04-0.586E-05
CGA:  13    -0.367994389871E+03   -0.18176E-04   -0.18077E-04  7056   0.171E-04 0.869E-05
CGA:  14    -0.367994398298E+03   -0.84274E-05   -0.10182E-04  7056   0.145E-04-0.793E-05
   5 F= -.36799440E+03 E0= -.36799440E+03  d E =-.229571E+00  mag=    12.0000
       N       E                     dE             d eps       ncg     rms          ort
SDA:   1    -0.360576660239E+03    0.74177E+01    0.00000E+00  7056   0.233E+02 0.000E+00
CGA:   2    -0.365895449193E+03   -0.53188E+01   -0.53298E+01  7056   0.708E+01 0.125E-01
CGA:   3    -0.367597099941E+03   -0.17017E+01   -0.17021E+01  7056   0.183E+01 0.648E-02
CGA:   4    -0.367951271468E+03   -0.35417E+00   -0.35458E+00  7056   0.354E+00 0.131E-02
CGA:   5    -0.368035102254E+03   -0.83831E-01   -0.83775E-01  7056   0.890E-01-0.135E-02
CGA:   6    -0.368061122553E+03   -0.26020E-01   -0.26020E-01  7056   0.393E-01-0.251E-04
CGA:   7    -0.368074105792E+03   -0.12983E-01   -0.12975E-01  7056   0.192E-01 0.199E-03
CGA:   8    -0.368080764489E+03   -0.66587E-02   -0.66692E-02  7056   0.747E-02-0.201E-03
CGA:   9    -0.368083216045E+03   -0.24516E-02   -0.24605E-02  7056   0.234E-02-0.235E-03
CGA:  10    -0.368083978517E+03   -0.76247E-03   -0.76732E-03  7056   0.765E-03-0.112E-03
CGA:  11    -0.368084262419E+03   -0.28390E-03   -0.28781E-03  7056   0.317E-03-0.403E-04
CGA:  12    -0.368084386154E+03   -0.12374E-03   -0.12655E-03  7056   0.133E-03-0.240E-04
CGA:  13    -0.368084423020E+03   -0.36867E-04   -0.36993E-04  7056   0.393E-04 0.168E-04
CGA:  14    -0.368084440412E+03   -0.17392E-04   -0.18157E-04  7056   0.197E-04-0.758E-05
CGA:  15    -0.368084433697E+03    0.67147E-05   -0.18080E-04  7056   0.821E-04-0.301E-04
CGA:  16    -0.368084451374E+03   -0.17677E-04   -0.19092E-04  7056   0.127E-04 0.116E-04
CGA:  17    -0.368084456029E+03   -0.46550E-05   -0.46792E-05  7056   0.369E-05 0.981E-06
   6 F= -.36808446E+03 E0= -.36808446E+03  d E =-.900577E-01  mag=    12.0000
       N       E                     dE             d eps       ncg     rms          ort
SDA:   1    -0.362000591965E+03    0.60839E+01    0.00000E+00  7056   0.168E+02 0.000E+00
CGA:   2    -0.366379759714E+03   -0.43792E+01   -0.43818E+01  7056   0.635E+01-0.853E-02
CGA:   3    -0.367752404899E+03   -0.13726E+01   -0.13745E+01  7056   0.140E+01 0.900E-02
CGA:   4    -0.368023058072E+03   -0.27065E+00   -0.27110E+00  7056   0.252E+00 0.182E-02
CGA:   5    -0.368083167893E+03   -0.60110E-01   -0.60064E-01  7056   0.621E-01-0.594E-03
CGA:   6    -0.368100483838E+03   -0.17316E-01   -0.17307E-01  7056   0.245E-01-0.208E-03
CGA:   7    -0.368108430685E+03   -0.79468E-02   -0.79469E-02  7056   0.114E-01-0.698E-04
CGA:   8    -0.368112517090E+03   -0.40864E-02   -0.40914E-02  7056   0.469E-02-0.151E-03
CGA:   9    -0.368114067145E+03   -0.15501E-02   -0.15514E-02  7056   0.150E-02-0.152E-03
CGA:  10    -0.368114555443E+03   -0.48830E-03   -0.48889E-03  7056   0.485E-03-0.558E-04
CGA:  11    -0.368114739624E+03   -0.18418E-03   -0.18613E-03  7056   0.212E-03-0.273E-04
CGA:  12    -0.368114819283E+03   -0.79659E-04   -0.79572E-04  7056   0.857E-04 0.119E-05
CGA:  13    -0.368114852080E+03   -0.32797E-04   -0.32955E-04  7056   0.363E-04-0.334E-05
CGA:  14    -0.368114862977E+03   -0.10897E-04   -0.10916E-04  7056   0.131E-04 0.759E-06
CGA:  15    -0.368114872083E+03   -0.91059E-05    0.12113E-03  7056   0.451E-05 0.952E-06
   7 F= -.36811487E+03 E0= -.36811487E+03  d E =-.304161E-01  mag=    12.0000
       N       E                     dE             d eps       ncg     rms          ort
SDA:   1    -0.367120014124E+03    0.99485E+00    0.00000E+00  7056   0.299E+01 0.000E+00
CGA:   2    -0.367885607156E+03   -0.76559E+00   -0.76595E+00  7056   0.994E+00 0.728E-03
CGA:   3    -0.368115180995E+03   -0.22957E+00   -0.22978E+00  7056   0.238E+00 0.741E-03
CGA:   4    -0.368162353063E+03   -0.47172E-01   -0.47119E-01  7056   0.470E-01-0.514E-03
CGA:   5    -0.368173614235E+03   -0.11261E-01   -0.11269E-01  7056   0.118E-01 0.726E-04
CGA:   6    -0.368177149029E+03   -0.35348E-02   -0.35359E-02  7056   0.500E-02 0.216E-04
CGA:   7    -0.368178787003E+03   -0.16380E-02   -0.16370E-02  7056   0.231E-02-0.507E-04
CGA:   8    -0.368179570280E+03   -0.78328E-03   -0.78322E-03  7056   0.847E-03-0.220E-04
CGA:   9    -0.368179841028E+03   -0.27075E-03   -0.27086E-03  7056   0.259E-03 0.488E-05
CGA:  10    -0.368179922623E+03   -0.81595E-04   -0.82003E-04  7056   0.829E-04 0.141E-04
CGA:  11    -0.368179956573E+03   -0.33950E-04   -0.33800E-04  7056   0.376E-04 0.334E-05
CGA:  12    -0.368179969601E+03   -0.13028E-04   -0.13101E-04  7056   0.137E-04 0.746E-05
CGA:  13    -0.368179976181E+03   -0.65793E-05   -0.65901E-05  7056   0.623E-05-0.198E-06
   8 F= -.36817998E+03 E0= -.36817998E+03  d E =-.651041E-01  mag=    12.0000
       N       E                     dE             d eps       ncg     rms          ort
SDA:   1    -0.367613720191E+03    0.56625E+00    0.00000E+00  7056   0.167E+01 0.000E+00
CGA:   2    -0.368055802561E+03   -0.44208E+00   -0.44220E+00  7056   0.580E+00 0.599E-03
CGA:   3    -0.368183722595E+03   -0.12792E+00   -0.12807E+00  7056   0.128E+00 0.828E-03
CGA:   4    -0.368208815558E+03   -0.25093E-01   -0.25028E-01  7056   0.238E-01-0.584E-03
CGA:   5    -0.368214450470E+03   -0.56349E-02   -0.56258E-02  7056   0.559E-02-0.102E-03
CGA:   6    -0.368216012615E+03   -0.15621E-02   -0.15643E-02  7056   0.215E-02 0.548E-04
CGA:   7    -0.368216725884E+03   -0.71327E-03   -0.71316E-03  7056   0.104E-02 0.961E-05
CGA:   8    -0.368217119486E+03   -0.39360E-03   -0.39656E-03  7056   0.459E-03-0.484E-04
CGA:   9    -0.368217266016E+03   -0.14653E-03   -0.14672E-03  7056   0.143E-03-0.142E-04
CGA:  10    -0.368217308864E+03   -0.42848E-04   -0.42918E-04  7056   0.428E-04 0.594E-05
CGA:  11    -0.368217327625E+03   -0.18761E-04   -0.19160E-04  7056   0.230E-04-0.371E-05
CGA:  12    -0.368217334185E+03   -0.65609E-05   -0.66135E-05  7056   0.833E-05 0.413E-05
   9 F= -.36821733E+03 E0= -.36821733E+03  d E =-.373580E-01  mag=    12.0000
       N       E                     dE             d eps       ncg     rms          ort
SDA:   1    -0.365539036542E+03    0.26783E+01    0.00000E+00  7056   0.685E+01 0.000E+00
CGA:   2    -0.367594487749E+03   -0.20555E+01   -0.20555E+01  7056   0.266E+01-0.158E-02
CGA:   3    -0.368124067070E+03   -0.52958E+00   -0.53027E+00  7056   0.493E+00 0.310E-02
CGA:   4    -0.368220164265E+03   -0.96097E-01   -0.96016E-01  7056   0.893E-01-0.109E-02
CGA:   5    -0.368241353324E+03   -0.21189E-01   -0.21149E-01  7056   0.202E-01-0.547E-03
CGA:   6    -0.368246532510E+03   -0.51792E-02   -0.51881E-02  7056   0.650E-02 0.166E-03
CGA:   7    -0.368248580241E+03   -0.20477E-02   -0.20473E-02  7056   0.287E-02 0.658E-04
CGA:   8    -0.368249703474E+03   -0.11232E-02   -0.11365E-02  7056   0.139E-02-0.156E-03
CGA:   9    -0.368250162687E+03   -0.45921E-03   -0.46293E-03  7056   0.478E-03-0.884E-04
CGA:  10    -0.368250316302E+03   -0.15361E-03   -0.15451E-03  7056   0.168E-03-0.271E-04
CGA:  11    -0.368250381956E+03   -0.65654E-04   -0.66948E-04  7056   0.873E-04-0.119E-04
CGA:  12    -0.368250420302E+03   -0.38346E-04   -0.45998E-04  7056   0.836E-04-0.310E-04
CGA:  13    -0.368250428107E+03   -0.78049E-05   -0.10011E-04  7056   0.372E-04 0.151E-04
  10 F= -.36825043E+03 E0= -.36825043E+03  d E =-.330939E-01  mag=    12.0000
       N       E                     dE             d eps       ncg     rms          ort
SDA:   1    -0.341175665806E+03    0.27075E+02    0.00000E+00  7056   0.660E+02 0.000E+00
CGA:   2    -0.361033035476E+03   -0.19857E+02   -0.19859E+02  7056   0.249E+02 0.143E-01
CGA:   3    -0.365969120816E+03   -0.49361E+01   -0.49440E+01  7056   0.522E+01 0.134E-01
CGA:   4    -0.367047333692E+03   -0.10782E+01   -0.10791E+01  7056   0.102E+01 0.364E-02
CGA:   5    -0.367297108142E+03   -0.24977E+00   -0.24972E+00  7056   0.274E+00-0.100E-02
CGA:   6    -0.367374001787E+03   -0.76894E-01   -0.76879E-01  7056   0.994E-01-0.868E-03
CGA:   7    -0.367404746330E+03   -0.30745E-01   -0.30750E-01  7056   0.404E-01-0.576E-03
CGA:   8    -0.367418307594E+03   -0.13561E-01   -0.13570E-01  7056   0.135E-01-0.254E-03
CGA:   9    -0.367422687538E+03   -0.43799E-02   -0.43862E-02  7056   0.392E-02-0.271E-03
CGA:  10    -0.367424004381E+03   -0.13168E-02   -0.13291E-02  7056   0.132E-02-0.298E-03
CGA:  11    -0.367424462812E+03   -0.45843E-03   -0.46059E-03  7056   0.577E-03-0.309E-04
CGA:  12    -0.367424686863E+03   -0.22405E-03   -0.22473E-03  7056   0.339E-03-0.778E-05
CGA:  13    -0.367424785486E+03   -0.98623E-04   -0.99562E-04  7056   0.134E-03 0.565E-04
CGA:  14    -0.367424851964E+03   -0.66479E-04   -0.68716E-04  7056   0.726E-04-0.180E-04
CGA:  15    -0.367424876284E+03   -0.24320E-04   -0.24182E-04  7056   0.271E-04 0.210E-05
CGA:  16    -0.367424883766E+03   -0.74823E-05   -0.77380E-05  7056   0.972E-05 0.550E-05
CGA:  17    -0.367424892180E+03   -0.84137E-05    0.15438E-04  7056   0.402E-05 0.199E-05
  11 F= -.36742489E+03 E0= -.36742489E+03  d E =0.825536E+00  mag=    12.0000
       N       E                     dE             d eps       ncg     rms          ort
SDA:   1    -0.359513083463E+03    0.79118E+01    0.00000E+00  7056   0.206E+02 0.000E+00
CGA:   2    -0.366300537690E+03   -0.67875E+01   -0.67876E+01  7056   0.621E+01-0.160E-01
CGA:   3    -0.367840196874E+03   -0.15397E+01   -0.15402E+01  7056   0.110E+01 0.524E-03
CGA:   4    -0.368106336701E+03   -0.26614E+00   -0.26614E+00  7056   0.306E+00-0.341E-03
CGA:   5    -0.368178453621E+03   -0.72117E-01   -0.72078E-01  7056   0.984E-01-0.591E-03
CGA:   6    -0.368208165580E+03   -0.29712E-01   -0.29711E-01  7056   0.335E-01-0.159E-03
CGA:   7    -0.368218945980E+03   -0.10780E-01   -0.10780E-01  7056   0.132E-01 0.783E-05
CGA:   8    -0.368222954084E+03   -0.40081E-02   -0.40068E-02  7056   0.412E-02-0.226E-03
CGA:   9    -0.368224220475E+03   -0.12664E-02   -0.12667E-02  7056   0.111E-02-0.114E-03
CGA:  10    -0.368224566187E+03   -0.34571E-03   -0.34583E-03  7056   0.334E-03-0.109E-04
CGA:  11    -0.368224694374E+03   -0.12819E-03   -0.13149E-03  7056   0.167E-03-0.382E-04
CGA:  12    -0.368224752120E+03   -0.57746E-04   -0.58650E-04  7056   0.777E-04-0.111E-04
CGA:  13    -0.368224782734E+03   -0.30614E-04   -0.32679E-04  7056   0.468E-04-0.158E-04
CGA:  14    -0.368224795330E+03   -0.12595E-04   -0.12589E-04  7056   0.164E-04 0.549E-06
CGA:  15    -0.368224801693E+03   -0.63629E-05   -0.10560E-04  7056   0.217E-04-0.136E-04
  12 F= -.36822480E+03 E0= -.36822480E+03  d E =-.799910E+00  mag=    12.0000
       N       E                     dE             d eps       ncg     rms          ort
SDA:   1    -0.368177633003E+03    0.47162E-01    0.00000E+00  7056   0.194E+00 0.000E+00
CGA:   2    -0.368236909781E+03   -0.59277E-01   -0.59319E-01  7056   0.757E-01 0.125E-02
CGA:   3    -0.368252734879E+03   -0.15825E-01   -0.15818E-01  7056   0.181E-01-0.155E-03
CGA:   4    -0.368256577336E+03   -0.38425E-02   -0.37859E-02  7056   0.370E-02-0.478E-03
CGA:   5    -0.368257474343E+03   -0.89701E-03   -0.89596E-03  7056   0.103E-02-0.139E-04
CGA:   6    -0.368257727083E+03   -0.25274E-03   -0.26044E-03  7056   0.323E-03 0.117E-03
CGA:   7    -0.368257815779E+03   -0.88696E-04   -0.92660E-04  7056   0.108E-03 0.671E-04
CGA:   8    -0.368257864386E+03   -0.48607E-04   -0.48608E-04  7056   0.505E-04-0.213E-07
CGA:   9    -0.368257882780E+03   -0.18393E-04   -0.19207E-04  7056   0.234E-04-0.128E-04
CGA:  10    -0.368257885790E+03   -0.30108E-05   -0.34975E-05  7056   0.735E-05 0.406E-05
  13 F= -.36825789E+03 E0= -.36825789E+03  d E =-.330841E-01  mag=    12.0000
       N       E                     dE             d eps       ncg     rms          ort
SDA:   1    -0.367953447254E+03    0.30444E+00    0.00000E+00  7056   0.832E+00 0.000E+00
CGA:   2    -0.368201647971E+03   -0.24820E+00   -0.24823E+00  7056   0.354E+00 0.270E-02
CGA:   3    -0.368270903814E+03   -0.69256E-01   -0.69300E-01  7056   0.764E-01-0.120E-03
CGA:   4    -0.368287144340E+03   -0.16241E-01   -0.16138E-01  7056   0.144E-01-0.118E-02
CGA:   5    -0.368290553397E+03   -0.34091E-02   -0.34054E-02  7056   0.393E-02-0.684E-04
CGA:   6    -0.368291544014E+03   -0.99062E-03   -0.10016E-02  7056   0.123E-02 0.291E-03
CGA:   7    -0.368291903414E+03   -0.35940E-03   -0.36241E-03  7056   0.419E-03 0.179E-03
CGA:   8    -0.368292084024E+03   -0.18061E-03   -0.18202E-03  7056   0.191E-03-0.162E-04
CGA:   9    -0.368292147106E+03   -0.63082E-04   -0.64710E-04  7056   0.688E-04-0.287E-04
CGA:  10    -0.368292160349E+03   -0.13244E-04   -0.13852E-04  7056   0.182E-04 0.989E-05
CGA:  11    -0.368292165969E+03   -0.56200E-05   -0.56801E-05  7056   0.781E-05 0.261E-05
CGA:  12    -0.368292171628E+03   -0.56587E-05    0.16984E-04  7056   0.360E-05 0.200E-05
  14 F= -.36829217E+03 E0= -.36829217E+03  d E =-.342858E-01  mag=    12.0000
       N       E                     dE             d eps       ncg     rms          ort
SDA:   1    -0.368274962404E+03    0.17204E-01    0.00000E+00  7056   0.613E-01 0.000E+00
CGA:   2    -0.368292678972E+03   -0.17717E-01   -0.17718E-01  7056   0.278E-01 0.255E-03
CGA:   3    -0.368297960099E+03   -0.52811E-02   -0.52887E-02  7056   0.513E-02 0.348E-04
CGA:   4    -0.368299081919E+03   -0.11218E-02   -0.11100E-02  7056   0.998E-03-0.166E-03
CGA:   5    -0.368299302059E+03   -0.22014E-03   -0.21985E-03  7056   0.237E-03-0.537E-05
CGA:   6    -0.368299350707E+03   -0.48648E-04   -0.51232E-04  7056   0.616E-04 0.400E-04
CGA:   7    -0.368299364811E+03   -0.14104E-04   -0.15623E-04  7056   0.232E-04 0.245E-04
CGA:   8    -0.368299374444E+03   -0.96331E-05   -0.95223E-05  7056   0.122E-04 0.635E-05
  15 F= -.36829937E+03 E0= -.36829937E+03  d E =-.720282E-02  mag=    12.0000
       N       E                     dE             d eps       ncg     rms          ort
SDA:   1    -0.367964534834E+03    0.33483E+00    0.00000E+00  7056   0.886E+00 0.000E+00
CGA:   2    -0.368222735903E+03   -0.25820E+00   -0.25820E+00  7056   0.405E+00 0.160E-03
CGA:   3    -0.368298327915E+03   -0.75592E-01   -0.75668E-01  7056   0.731E-01 0.170E-03
CGA:   4    -0.368313780764E+03   -0.15453E-01   -0.15425E-01  7056   0.134E-01-0.394E-03
CGA:   5    -0.368316857854E+03   -0.30771E-02   -0.30762E-02  7056   0.322E-02-0.211E-04
CGA:   6    -0.368317675521E+03   -0.81767E-03   -0.82082E-03  7056   0.961E-03 0.121E-03
CGA:   7    -0.368317970484E+03   -0.29496E-03   -0.29381E-03  7056   0.355E-03 0.788E-04
CGA:   8    -0.368318117633E+03   -0.14715E-03   -0.15061E-03  7056   0.170E-03-0.311E-04
CGA:   9    -0.368318170763E+03   -0.53130E-04   -0.54658E-04  7056   0.562E-04-0.230E-04
CGA:  10    -0.368318182522E+03   -0.11758E-04   -0.12095E-04  7056   0.151E-04 0.825E-05
CGA:  11    -0.368318188433E+03   -0.59112E-05   -0.59282E-05  7056   0.815E-05-0.307E-06
  16 F= -.36831819E+03 E0= -.36831819E+03  d E =-.188140E-01  mag=    12.0000
       N       E                     dE             d eps       ncg     rms          ort
SDA:   1    -0.368050118176E+03    0.26806E+00    0.00000E+00  7056   0.700E+00 0.000E+00
CGA:   2    -0.368256606037E+03   -0.20649E+00   -0.20650E+00  7056   0.312E+00-0.218E-02
CGA:   3    -0.368314354479E+03   -0.57748E-01   -0.57851E-01  7056   0.547E-01 0.591E-03
CGA:   4    -0.368325511842E+03   -0.11157E-01   -0.11197E-01  7056   0.989E-02 0.456E-03
CGA:   5    -0.368327819459E+03   -0.23076E-02   -0.23088E-02  7056   0.228E-02 0.206E-04
CGA:   6    -0.368328426101E+03   -0.60664E-03   -0.60603E-03  7056   0.740E-03-0.481E-04
CGA:   7    -0.368328648459E+03   -0.22236E-03   -0.22239E-03  7056   0.295E-03-0.101E-05
CGA:   8    -0.368328752435E+03   -0.10398E-03   -0.10420E-03  7056   0.118E-03-0.300E-05
CGA:   9    -0.368328795680E+03   -0.43245E-04   -0.46069E-04  7056   0.532E-04-0.252E-04
CGA:  10    -0.368328807845E+03   -0.12165E-04   -0.12164E-04  7056   0.149E-04 0.602E-06
CGA:  11    -0.368328813344E+03   -0.54985E-05   -0.56518E-05  7056   0.800E-05-0.180E-05
  17 F= -.36832881E+03 E0= -.36832881E+03  d E =-.106249E-01  mag=    12.0000
       N       E                     dE             d eps       ncg     rms          ort
SDA:   1    -0.367683512080E+03    0.64530E+00    0.00000E+00  7056   0.166E+01 0.000E+00
CGA:   2    -0.368171521035E+03   -0.48801E+00   -0.48792E+00  7056   0.733E+00-0.464E-02
CGA:   3    -0.368310302881E+03   -0.13878E+00   -0.13905E+00  7056   0.125E+00 0.137E-02
CGA:   4    -0.368334848200E+03   -0.24545E-01   -0.24654E-01  7056   0.221E-01 0.891E-03
CGA:   5    -0.368340115791E+03   -0.52676E-02   -0.52652E-02  7056   0.500E-02-0.419E-04
CGA:   6    -0.368341410927E+03   -0.12951E-02   -0.12921E-02  7056   0.159E-02-0.760E-04
CGA:   7    -0.368341892802E+03   -0.48187E-03   -0.48190E-03  7056   0.669E-03-0.302E-05
CGA:   8    -0.368342137895E+03   -0.24509E-03   -0.24553E-03  7056   0.298E-03-0.637E-05
CGA:   9    -0.368342245266E+03   -0.10737E-03   -0.11000E-03  7056   0.122E-03-0.371E-04
CGA:  10    -0.368342282964E+03   -0.37697E-04   -0.38730E-04  7056   0.454E-04-0.178E-04
CGA:  11    -0.368342297329E+03   -0.14366E-04   -0.14579E-04  7056   0.203E-04-0.316E-05
CGA:  12    -0.368342296916E+03    0.41363E-06   -0.17729E-04  7056   0.882E-04-0.289E-04
CGA:  13    -0.368342312534E+03   -0.15618E-04   -0.16600E-04  7056   0.102E-04 0.630E-05
CGA:  14    -0.368342316495E+03   -0.39617E-05   -0.40918E-05  7056   0.417E-05-0.350E-05
CGA:  15    -0.368342318413E+03   -0.19174E-05    0.12922E-04  7056   0.121E-05 0.611E-07
  18 F= -.36834232E+03 E0= -.36834232E+03  d E =-.135051E-01  mag=    12.0000
       N       E                     dE             d eps       ncg     rms          ort
SDA:   1    -0.364340074055E+03    0.40022E+01    0.00000E+00  7056   0.101E+02 0.000E+00
CGA:   2    -0.367354185800E+03   -0.30141E+01   -0.30140E+01  7056   0.430E+01-0.107E-01
CGA:   3    -0.368177836239E+03   -0.82365E+00   -0.82486E+00  7056   0.733E+00 0.482E-02
CGA:   4    -0.368319948015E+03   -0.14211E+00   -0.14236E+00  7056   0.129E+00 0.123E-02
CGA:   5    -0.368351039675E+03   -0.31092E-01   -0.31052E-01  7056   0.293E-01-0.506E-03
CGA:   6    -0.368358566677E+03   -0.75270E-02   -0.75265E-02  7056   0.926E-02-0.218E-04
CGA:   7    -0.368361460974E+03   -0.28943E-02   -0.28944E-02  7056   0.408E-02 0.410E-04
CGA:   8    -0.368363037549E+03   -0.15766E-02   -0.15867E-02  7056   0.195E-02-0.140E-03
CGA:   9    -0.368363696890E+03   -0.65934E-03   -0.66426E-03  7056   0.696E-03-0.141E-03
CGA:  10    -0.368363919194E+03   -0.22230E-03   -0.22394E-03  7056   0.240E-03-0.607E-04
CGA:  11    -0.368364001800E+03   -0.82607E-04   -0.83037E-04  7056   0.109E-03-0.737E-05
CGA:  12    -0.368364049954E+03   -0.48154E-04   -0.62692E-04  7056   0.136E-03-0.538E-04
CGA:  13    -0.368364064154E+03   -0.14200E-04   -0.14396E-04  7056   0.698E-04 0.153E-05
CGA:  14    -0.368364077288E+03   -0.13134E-04   -0.13735E-04  7056   0.287E-04 0.438E-05
CGA:  15    -0.368364087773E+03   -0.10485E-04   -0.12155E-04  7056   0.277E-04-0.227E-04
CGA:  16    -0.368364095710E+03   -0.79366E-05   -0.79703E-05  7056   0.382E-05 0.833E-06
  19 F= -.36836410E+03 E0= -.36836410E+03  d E =-.217773E-01  mag=    12.0000
       N       E                     dE             d eps       ncg     rms          ort
SDA:   1    -0.350319910597E+03    0.18044E+02    0.00000E+00  7056   0.437E+02 0.000E+00
CGA:   2    -0.364327751117E+03   -0.14008E+02   -0.14008E+02  7056   0.169E+02-0.772E-02
CGA:   3    -0.367586438208E+03   -0.32587E+01   -0.32635E+01  7056   0.289E+01 0.220E-01
CGA:   4    -0.368145464531E+03   -0.55903E+00   -0.55949E+00  7056   0.557E+00-0.122E-03
CGA:   5    -0.368281104259E+03   -0.13564E+00   -0.13554E+00  7056   0.129E+00-0.163E-02
CGA:   6    -0.368315186976E+03   -0.34083E-01   -0.34084E-01  7056   0.428E-01-0.433E-04
CGA:   7    -0.368328623957E+03   -0.13437E-01   -0.13438E-01  7056   0.190E-01-0.125E-03
CGA:   8    -0.368335602410E+03   -0.69785E-02   -0.70132E-02  7056   0.808E-02-0.563E-03
CGA:   9    -0.368338258050E+03   -0.26556E-02   -0.26694E-02  7056   0.267E-02-0.462E-03
CGA:  10    -0.368339107148E+03   -0.84910E-03   -0.85413E-03  7056   0.913E-03-0.185E-03
CGA:  11    -0.368339433850E+03   -0.32670E-03   -0.32874E-03  7056   0.452E-03-0.277E-04
CGA:  12    -0.368339622824E+03   -0.18897E-03   -0.19371E-03  7056   0.292E-03-0.376E-04
CGA:  13    -0.368339717773E+03   -0.94949E-04   -0.94741E-04  7056   0.112E-03 0.677E-05
CGA:  14    -0.368339764662E+03   -0.46889E-04   -0.48883E-04  7056   0.454E-04-0.193E-04
CGA:  15    -0.368339774623E+03   -0.99609E-05   -0.31564E-04  7056   0.805E-04-0.421E-04
CGA:  16    -0.368339797263E+03   -0.22640E-04   -0.22846E-04  7056   0.105E-04 0.291E-05
CGA:  17    -0.368339802392E+03   -0.51285E-05   -0.66251E-05  7056   0.135E-04-0.579E-05
  20 F= -.36833980E+03 E0= -.36833980E+03  d E =0.242933E-01  mag=    12.0000
       N       E                     dE             d eps       ncg     rms          ort
SDA:   1    -0.366379745185E+03    0.19601E+01    0.00000E+00  7056   0.509E+01 0.000E+00
CGA:   2    -0.367897327077E+03   -0.15176E+01   -0.15176E+01  7056   0.207E+01-0.211E-02
CGA:   3    -0.368294287270E+03   -0.39696E+00   -0.39740E+00  7056   0.429E+00-0.459E-03
CGA:   4    -0.368383914022E+03   -0.89627E-01   -0.89700E-01  7056   0.791E-01 0.468E-03
CGA:   5    -0.368403039591E+03   -0.19126E-01   -0.19123E-01  7056   0.206E-01-0.424E-04
CGA:   6    -0.368408796927E+03   -0.57573E-02   -0.57402E-02  7056   0.718E-02-0.310E-03
CGA:   7    -0.368410979377E+03   -0.21825E-02   -0.21797E-02  7056   0.275E-02-0.116E-03
CGA:   8    -0.368411887570E+03   -0.90819E-03   -0.90817E-03  7056   0.895E-03 0.560E-05
CGA:   9    -0.368412182884E+03   -0.29531E-03   -0.29527E-03  7056   0.270E-03-0.200E-04
CGA:  10    -0.368412280423E+03   -0.97540E-04   -0.99815E-04  7056   0.110E-03-0.480E-04
CGA:  11    -0.368412317684E+03   -0.37260E-04   -0.40860E-04  7056   0.699E-04-0.299E-04
CGA:  12    -0.368412331529E+03   -0.13845E-04   -0.14141E-04  7056   0.292E-04 0.484E-05
CGA:  13    -0.368412343950E+03   -0.12421E-04   -0.13121E-04  7056   0.197E-04-0.832E-05
CGA:  14    -0.368412346793E+03   -0.28429E-05   -0.10938E-04  7056   0.369E-04-0.186E-04
  21 F= -.36841235E+03 E0= -.36841235E+03  d E =-.725444E-01  mag=    12.0000
       N       E                     dE             d eps       ncg     rms          ort
SDA:   1    -0.367953351682E+03    0.45899E+00    0.00000E+00  7056   0.117E+01 0.000E+00
CGA:   2    -0.368291956167E+03   -0.33860E+00   -0.33886E+00  7056   0.524E+00 0.310E-02
CGA:   3    -0.368394253703E+03   -0.10230E+00   -0.10220E+00  7056   0.941E-01-0.126E-02
CGA:   4    -0.368413027484E+03   -0.18774E-01   -0.18665E-01  7056   0.173E-01-0.790E-03
CGA:   5    -0.368417145087E+03   -0.41176E-02   -0.41151E-02  7056   0.418E-02-0.304E-04
CGA:   6    -0.368418204527E+03   -0.10594E-02   -0.10681E-02  7056   0.133E-02 0.112E-03
CGA:   7    -0.368418635503E+03   -0.43098E-03   -0.43106E-03  7056   0.569E-03 0.629E-05
CGA:   8    -0.368418855256E+03   -0.21975E-03   -0.22276E-03  7056   0.267E-03-0.485E-04
CGA:   9    -0.368418929393E+03   -0.74137E-04   -0.74253E-04  7056   0.767E-04 0.433E-05
CGA:  10    -0.368418951325E+03   -0.21932E-04   -0.22343E-04  7056   0.234E-04 0.956E-05
CGA:  11    -0.368418961448E+03   -0.10123E-04   -0.10079E-04  7056   0.125E-04 0.784E-06
CGA:  12    -0.368418965756E+03   -0.43086E-05   -0.43009E-05  7056   0.558E-05 0.267E-05
  22 F= -.36841897E+03 E0= -.36841897E+03  d E =-.661896E-02  mag=    12.0000
       N       E                     dE             d eps       ncg     rms          ort
SDA:   1    -0.368123224776E+03    0.29574E+00    0.00000E+00  7056   0.729E+00 0.000E+00
CGA:   2    -0.368354915614E+03   -0.23169E+00   -0.23168E+00  7056   0.314E+00-0.194E-02
CGA:   3    -0.368412106296E+03   -0.57191E-01   -0.57270E-01  7056   0.499E-01 0.154E-03
CGA:   4    -0.368421852828E+03   -0.97465E-02   -0.97915E-02  7056   0.904E-02 0.344E-03
CGA:   5    -0.368424068088E+03   -0.22153E-02   -0.22102E-02  7056   0.206E-02-0.775E-04
CGA:   6    -0.368424591530E+03   -0.52344E-03   -0.52211E-03  7056   0.626E-03-0.270E-04
CGA:   7    -0.368424782758E+03   -0.19123E-03   -0.19124E-03  7056   0.255E-03-0.235E-05
CGA:   8    -0.368424872451E+03   -0.89693E-04   -0.89255E-04  7056   0.998E-04 0.943E-05
CGA:   9    -0.368424909773E+03   -0.37322E-04   -0.37749E-04  7056   0.371E-04-0.738E-05
CGA:  10    -0.368424921876E+03   -0.12103E-04   -0.20209E-04  7056   0.498E-04-0.291E-04
CGA:  11    -0.368424929230E+03   -0.73545E-05   -0.88483E-05  7056   0.672E-05 0.102E-04
  23 F= -.36842493E+03 E0= -.36842493E+03  d E =-.596347E-02  mag=    12.0000
       N       E                     dE             d eps       ncg     rms          ort
SDA:   1    -0.358029970542E+03    0.10395E+02    0.00000E+00  7056   0.249E+02 0.000E+00
CGA:   2    -0.366119536669E+03   -0.80896E+01   -0.80895E+01  7056   0.101E+02-0.519E-02
CGA:   3    -0.367979498345E+03   -0.18600E+01   -0.18622E+01  7056   0.163E+01 0.172E-02
CGA:   4    -0.368300303147E+03   -0.32080E+00   -0.32092E+00  7056   0.314E+00-0.682E-03
CGA:   5    -0.368375933737E+03   -0.75631E-01   -0.75579E-01  7056   0.702E-01-0.845E-03
CGA:   6    -0.368393955168E+03   -0.18021E-01   -0.18034E-01  7056   0.221E-01 0.238E-03
CGA:   7    -0.368400926493E+03   -0.69713E-02   -0.69714E-02  7056   0.947E-02-0.123E-04
CGA:   8    -0.368404474299E+03   -0.35478E-02   -0.35714E-02  7056   0.412E-02-0.314E-03
CGA:   9    -0.368405835519E+03   -0.13612E-02   -0.13704E-02  7056   0.134E-02-0.241E-03
CGA:  10    -0.368406275298E+03   -0.43978E-03   -0.44670E-03  7056   0.481E-03-0.146E-03
CGA:  11    -0.368406435536E+03   -0.16024E-03   -0.16002E-03  7056   0.223E-03 0.362E-05
CGA:  12    -0.368406542175E+03   -0.10664E-03   -0.11963E-03  7056   0.224E-03-0.585E-04
CGA:  13    -0.368406583391E+03   -0.41216E-04   -0.42871E-04  7056   0.946E-04 0.260E-04
CGA:  14    -0.368406612782E+03   -0.29392E-04   -0.29503E-04  7056   0.381E-04 0.272E-05
CGA:  15    -0.368406565645E+03    0.47137E-04   -0.41115E-04  7056   0.435E-03-0.121E-03
CGA:  16    -0.368406622727E+03   -0.57082E-04   -0.70569E-04  7056   0.495E-04 0.699E-04
CGA:  17    -0.368406637457E+03   -0.14730E-04   -0.15412E-04  7056   0.120E-04 0.882E-05
CGA:  18    -0.368406456712E+03    0.18074E-03   -0.97985E-04  7056   0.997E-03-0.114E-03
CGA:  19    -0.368406604649E+03   -0.14794E-03   -0.17721E-03  7056   0.802E-04 0.658E-04
CGA:  20    -0.368406642927E+03   -0.38279E-04   -0.37354E-04  7056   0.123E-04-0.563E-05
CGA:  21    -0.368406648343E+03   -0.54156E-05   -0.82707E-05  7056   0.613E-04-0.218E-04
  24 F= -.36840665E+03 E0= -.36840665E+03  d E =0.182809E-01  mag=    12.0000
       N       E                     dE             d eps       ncg     rms          ort
SDA:   1    -0.363047015267E+03    0.53596E+01    0.00000E+00  7056   0.129E+02 0.000E+00
CGA:   2    -0.367221195722E+03   -0.41742E+01   -0.41766E+01  7056   0.490E+01 0.506E-03
CGA:   3    -0.368170098544E+03   -0.94890E+00   -0.95059E+00  7056   0.884E+00 0.271E-02
CGA:   4    -0.368345015407E+03   -0.17492E+00   -0.17474E+00  7056   0.174E+00-0.138E-02
CGA:   5    -0.368386912528E+03   -0.41897E-01   -0.41805E-01  7056   0.406E-01-0.332E-03
CGA:   6    -0.368397779149E+03   -0.10867E-01   -0.10938E-01  7056   0.137E-01 0.280E-03
CGA:   7    -0.368402078911E+03   -0.42998E-02   -0.43110E-02  7056   0.583E-02 0.566E-04
CGA:   8    -0.368404201166E+03   -0.21223E-02   -0.21115E-02  7056   0.229E-02-0.821E-04
CGA:   9    -0.368404978441E+03   -0.77728E-03   -0.76709E-03  7056   0.731E-03-0.703E-04
CGA:  10    -0.368405225894E+03   -0.24745E-03   -0.24329E-03  7056   0.253E-03-0.309E-04
CGA:  11    -0.368405327698E+03   -0.10180E-03   -0.10100E-03  7056   0.138E-03-0.146E-04
CGA:  12    -0.368405384312E+03   -0.56614E-04   -0.56308E-04  7056   0.858E-04-0.871E-05
CGA:  13    -0.368405408885E+03   -0.24574E-04   -0.25616E-04  7056   0.321E-04 0.706E-05
CGA:  14    -0.368405421664E+03   -0.12778E-04   -0.12803E-04  7056   0.109E-04 0.282E-06
CGA:  15    -0.368405427348E+03   -0.56844E-05   -0.59550E-05  7056   0.690E-05-0.309E-05
  25 F= -.36840543E+03 E0= -.36840543E+03  d E =0.122099E-02  mag=    12.0000
       N       E                     dE             d eps       ncg     rms          ort
SDA:   1    -0.363842646319E+03    0.45628E+01    0.00000E+00  7056   0.109E+02 0.000E+00
CGA:   2    -0.367411861372E+03   -0.35692E+01   -0.35687E+01  7056   0.410E+01-0.346E-02
CGA:   3    -0.368212910450E+03   -0.80105E+00   -0.80199E+00  7056   0.760E+00-0.901E-03
CGA:   4    -0.368362968069E+03   -0.15006E+00   -0.15044E+00  7056   0.145E+00 0.162E-02
CGA:   5    -0.368398331754E+03   -0.35364E-01   -0.35439E-01  7056   0.363E-01 0.435E-03
CGA:   6    -0.368408590138E+03   -0.10258E-01   -0.10155E-01  7056   0.127E-01-0.792E-03
CGA:   7    -0.368412539749E+03   -0.39496E-02   -0.39045E-02  7056   0.543E-02-0.503E-03
CGA:   8    -0.368414301476E+03   -0.17617E-02   -0.17569E-02  7056   0.185E-02-0.762E-04
CGA:   9    -0.368414886353E+03   -0.58488E-03   -0.58404E-03  7056   0.542E-03-0.111E-04
CGA:  10    -0.368415062913E+03   -0.17656E-03   -0.17642E-03  7056   0.170E-03-0.200E-05
CGA:  11    -0.368415132842E+03   -0.69930E-04   -0.70140E-04  7056   0.904E-04-0.860E-05
CGA:  12    -0.368415150894E+03   -0.18052E-04   -0.22283E-04  7056   0.384E-04 0.322E-04
CGA:  13    -0.368415164672E+03   -0.13778E-04   -0.15082E-04  7056   0.181E-04 0.137E-04
CGA:  14    -0.368415175362E+03   -0.10690E-04   -0.10615E-04  7056   0.137E-04 0.146E-05
CGA:  15    -0.368415175060E+03    0.30124E-06   -0.19421E-05  7056   0.757E-05 0.892E-05
  26 F= -.36841518E+03 E0= -.36841518E+03  d E =-.974771E-02  mag=    12.0000
       N       E                     dE             d eps       ncg     rms          ort
SDA:   1    -0.367891238825E+03    0.52394E+00    0.00000E+00  7056   0.135E+01 0.000E+00
CGA:   2    -0.368303597715E+03   -0.41236E+00   -0.41226E+00  7056   0.494E+00-0.218E-02
CGA:   3    -0.368407610719E+03   -0.10401E+00   -0.10428E+00  7056   0.111E+00 0.128E-02
CGA:   4    -0.368429953727E+03   -0.22343E-01   -0.22412E-01  7056   0.231E-01 0.389E-03
CGA:   5    -0.368435709448E+03   -0.57557E-02   -0.57623E-02  7056   0.625E-02 0.704E-04
CGA:   6    -0.368437607300E+03   -0.18979E-02   -0.18933E-02  7056   0.247E-02-0.130E-03
CGA:   7    -0.368438349825E+03   -0.74253E-03   -0.74032E-03  7056   0.962E-03-0.746E-04
CGA:   8    -0.368438647738E+03   -0.29791E-03   -0.29820E-03  7056   0.290E-03 0.199E-04
CGA:   9    -0.368438744754E+03   -0.97016E-04   -0.97020E-04  7056   0.904E-04 0.550E-06
CGA:  10    -0.368438771238E+03   -0.26484E-04   -0.26855E-04  7056   0.265E-04 0.101E-04
CGA:  11    -0.368438781711E+03   -0.10473E-04   -0.10400E-04  7056   0.122E-04 0.335E-05
CGA:  12    -0.368438785061E+03   -0.33495E-05   -0.37043E-05  7056   0.549E-05 0.555E-05
  27 F= -.36843879E+03 E0= -.36843879E+03  d E =-.236100E-01  mag=    12.0000
       N       E                     dE             d eps       ncg     rms          ort
SDA:   1    -0.368113566802E+03    0.32521E+00    0.00000E+00  7056   0.812E+00 0.000E+00
CGA:   2    -0.368369844037E+03   -0.25628E+00   -0.25630E+00  7056   0.311E+00 0.172E-02
CGA:   3    -0.368430265317E+03   -0.60421E-01   -0.60389E-01  7056   0.599E-01-0.683E-03
CGA:   4    -0.368442325791E+03   -0.12060E-01   -0.11971E-01  7056   0.112E-01-0.787E-03
CGA:   5    -0.368445008271E+03   -0.26825E-02   -0.26694E-02  7056   0.274E-02-0.182E-03
CGA:   6    -0.368445653782E+03   -0.64551E-03   -0.65991E-03  7056   0.779E-03 0.217E-03
CGA:   7    -0.368445885557E+03   -0.23177E-03   -0.23511E-03  7056   0.294E-03 0.120E-03
CGA:   8    -0.368446020990E+03   -0.13543E-03   -0.13652E-03  7056   0.154E-03-0.114E-04
CGA:   9    -0.368446070075E+03   -0.49086E-04   -0.49250E-04  7056   0.514E-04-0.757E-05
CGA:  10    -0.368446088232E+03   -0.18157E-04   -0.19375E-04  7056   0.259E-04-0.143E-04
CGA:  11    -0.368446094600E+03   -0.63681E-05   -0.64052E-05  7056   0.120E-04-0.136E-05
  28 F= -.36844609E+03 E0= -.36844609E+03  d E =-.730954E-02  mag=    12.0000
       N       E                     dE             d eps       ncg     rms          ort
SDA:   1    -0.368151489128E+03    0.29460E+00    0.00000E+00  7056   0.726E+00 0.000E+00
CGA:   2    -0.368377420134E+03   -0.22593E+00   -0.22594E+00  7056   0.293E+00 0.164E-02
CGA:   3    -0.368432846047E+03   -0.55426E-01   -0.55498E-01  7056   0.565E-01 0.146E-03
CGA:   4    -0.368444322841E+03   -0.11477E-01   -0.11382E-01  7056   0.998E-02-0.900E-03
CGA:   5    -0.368446717040E+03   -0.23942E-02   -0.23821E-02  7056   0.258E-02-0.195E-03
CGA:   6    -0.368447296264E+03   -0.57922E-03   -0.59429E-03  7056   0.682E-03 0.224E-03
CGA:   7    -0.368447490858E+03   -0.19459E-03   -0.19878E-03  7056   0.251E-03 0.136E-03
CGA:   8    -0.368447608600E+03   -0.11774E-03   -0.11802E-03  7056   0.137E-03-0.294E-05
CGA:   9    -0.368447656810E+03   -0.48210E-04   -0.49805E-04  7056   0.564E-04-0.245E-04
CGA:  10    -0.368447671869E+03   -0.15059E-04   -0.15268E-04  7056   0.198E-04-0.865E-05
CGA:  11    -0.368447675791E+03   -0.39220E-05   -0.41713E-05  7056   0.828E-05 0.435E-05
CGA:  12    -0.368447682857E+03   -0.70655E-05    0.10032E-04  7056   0.449E-05 0.187E-05
  29 F= -.36844768E+03 E0= -.36844768E+03  d E =-.158826E-02  mag=    12.0000
       N       E                     dE             d eps       ncg     rms          ort
SDA:   1    -0.351582445482E+03    0.16865E+02    0.00000E+00  7056   0.412E+02 0.000E+00
CGA:   2    -0.364392351391E+03   -0.12810E+02   -0.12810E+02  7056   0.170E+02-0.324E-02
CGA:   3    -0.367554086626E+03   -0.31617E+01   -0.31676E+01  7056   0.297E+01 0.128E-01
CGA:   4    -0.368146183961E+03   -0.59210E+00   -0.59211E+00  7056   0.547E+00-0.205E-02
CGA:   5    -0.368277862791E+03   -0.13168E+00   -0.13162E+00  7056   0.132E+00-0.115E-02
CGA:   6    -0.368312103538E+03   -0.34241E-01   -0.34245E-01  7056   0.409E-01 0.803E-04
CGA:   7    -0.368325200385E+03   -0.13097E-01   -0.13111E-01  7056   0.176E-01-0.456E-03
CGA:   8    -0.368331427738E+03   -0.62274E-02   -0.62633E-02  7056   0.685E-02-0.523E-03
CGA:   9    -0.368333708955E+03   -0.22812E-02   -0.23025E-02  7056   0.213E-02-0.408E-03
CGA:  10    -0.368334384782E+03   -0.67583E-03   -0.68194E-03  7056   0.679E-03-0.138E-03
CGA:  11    -0.368334637216E+03   -0.25243E-03   -0.25624E-03  7056   0.334E-03-0.365E-04
CGA:  12    -0.368334773250E+03   -0.13603E-03   -0.13574E-03  7056   0.195E-03 0.232E-05
CGA:  13    -0.368334848078E+03   -0.74827E-04   -0.74215E-04  7056   0.904E-04 0.896E-05
CGA:  14    -0.368334882516E+03   -0.34439E-04   -0.34129E-04  7056   0.306E-04 0.650E-05
CGA:  15    -0.368334898441E+03   -0.15924E-04   -0.17977E-04  7056   0.204E-04-0.882E-05
CGA:  16    -0.368334889282E+03    0.91584E-05   -0.18439E-04  7056   0.777E-04-0.295E-04
CGA:  17    -0.368334909968E+03   -0.20686E-04   -0.21197E-04  7056   0.128E-04 0.503E-05
CGA:  18    -0.368334915784E+03   -0.58157E-05   -0.59672E-05  7056   0.748E-05-0.220E-05
  30 F= -.36833492E+03 E0= -.36833492E+03  d E =0.112767E+00  mag=    12.0000
       N       E                     dE             d eps       ncg     rms          ort
SDA:   1    -0.347903867470E+03    0.20431E+02    0.00000E+00  7056   0.486E+02 0.000E+00
CGA:   2    -0.364299043644E+03   -0.16395E+02   -0.16393E+02  7056   0.165E+02-0.535E-01
CGA:   3    -0.367577605806E+03   -0.32786E+01   -0.32856E+01  7056   0.296E+01 0.139E-01
CGA:   4    -0.368156752948E+03   -0.57915E+00   -0.57970E+00  7056   0.606E+00 0.223E-02
CGA:   5    -0.368303213191E+03   -0.14646E+00   -0.14637E+00  7056   0.142E+00-0.671E-03
CGA:   6    -0.368342703072E+03   -0.39490E-01   -0.39404E-01  7056   0.492E-01-0.127E-02
CGA:   7    -0.368358210966E+03   -0.15508E-01   -0.15481E-01  7056   0.214E-01-0.100E-02
CGA:   8    -0.368365401588E+03   -0.71906E-02   -0.71907E-02  7056   0.753E-02-0.215E-03
CGA:   9    -0.368367893878E+03   -0.24923E-02   -0.24898E-02  7056   0.226E-02-0.276E-03
CGA:  10    -0.368368641150E+03   -0.74727E-03   -0.74732E-03  7056   0.764E-03-0.178E-03
CGA:  11    -0.368368915287E+03   -0.27414E-03   -0.27527E-03  7056   0.361E-03-0.233E-04
CGA:  12    -0.368369030291E+03   -0.11500E-03   -0.11607E-03  7056   0.163E-03 0.820E-04
CGA:  13    -0.368369119419E+03   -0.89128E-04   -0.88364E-04  7056   0.985E-04 0.770E-05
CGA:  14    -0.368369168213E+03   -0.48794E-04   -0.49175E-04  7056   0.461E-04-0.306E-05
CGA:  15    -0.368369188847E+03   -0.20633E-04   -0.21275E-04  7056   0.214E-04-0.533E-05
CGA:  16    -0.368369203689E+03   -0.14842E-04    0.41005E-04  7056   0.787E-05 0.298E-05
CGA:  17    -0.368369212703E+03   -0.90149E-05    0.41455E-05  7056   0.334E-05 0.124E-05
  31 F= -.36836921E+03 E0= -.36836921E+03  d E =-.342969E-01  mag=    12.0000
       N       E                     dE             d eps       ncg     rms          ort
SDA:   1    -0.356050070492E+03    0.12319E+02    0.00000E+00  7056   0.309E+02 0.000E+00
CGA:   2    -0.364841415894E+03   -0.87913E+01   -0.88001E+01  7056   0.144E+02 0.232E-01
CGA:   3    -0.367581109553E+03   -0.27397E+01   -0.27469E+01  7056   0.266E+01 0.442E-02
CGA:   4    -0.368117339977E+03   -0.53623E+00   -0.53615E+00  7056   0.489E+00-0.139E-02
CGA:   5    -0.368235346282E+03   -0.11801E+00   -0.11805E+00  7056   0.131E+00-0.470E-06
CGA:   6    -0.368270309400E+03   -0.34963E-01   -0.35001E-01  7056   0.430E-01 0.459E-03
CGA:   7    -0.368283579090E+03   -0.13270E-01   -0.13279E-01  7056   0.166E-01 0.360E-03
CGA:   8    -0.368289520003E+03   -0.59409E-02   -0.59505E-02  7056   0.610E-02-0.420E-03
CGA:   9    -0.368291481272E+03   -0.19613E-02   -0.19604E-02  7056   0.176E-02-0.229E-03
CGA:  10    -0.368292013879E+03   -0.53261E-03   -0.53263E-03  7056   0.492E-03 0.120E-05
CGA:  11    -0.368292198886E+03   -0.18501E-03   -0.18516E-03  7056   0.224E-03-0.360E-05
CGA:  12    -0.368292301807E+03   -0.10292E-03   -0.10841E-03  7056   0.178E-03-0.362E-04
CGA:  13    -0.368292351041E+03   -0.49234E-04   -0.49357E-04  7056   0.805E-04 0.102E-04
CGA:  14    -0.368292374741E+03   -0.23701E-04   -0.24654E-04  7056   0.281E-04 0.182E-04
CGA:  15    -0.368292384920E+03   -0.10178E-04   -0.10448E-04  7056   0.132E-04 0.753E-05
CGA:  16    -0.368292388763E+03   -0.38434E-05   -0.42773E-05  7056   0.505E-05 0.530E-05
  32 F= -.36829239E+03 E0= -.36829239E+03  d E =0.768239E-01  mag=    12.0000
       N       E                     dE             d eps       ncg     rms          ort
SDA:   1    -0.364615856356E+03    0.36765E+01    0.00000E+00  7056   0.999E+01 0.000E+00
CGA:   2    -0.367328692337E+03   -0.27128E+01   -0.27125E+01  7056   0.447E+01-0.540E-02
CGA:   3    -0.368238250447E+03   -0.90956E+00   -0.91060E+00  7056   0.878E+00 0.248E-02
CGA:   4    -0.368414843632E+03   -0.17659E+00   -0.17665E+00  7056   0.166E+00-0.426E-03
CGA:   5    -0.368455133237E+03   -0.40290E-01   -0.40277E-01  7056   0.434E-01-0.194E-03
CGA:   6    -0.368467128347E+03   -0.11995E-01   -0.11986E-01  7056   0.159E-01-0.282E-03
CGA:   7    -0.368472053316E+03   -0.49250E-02   -0.49261E-02  7056   0.638E-02-0.304E-03
CGA:   8    -0.368474217250E+03   -0.21639E-02   -0.21680E-02  7056   0.232E-02-0.105E-03
CGA:   9    -0.368474957058E+03   -0.73981E-03   -0.74036E-03  7056   0.705E-03-0.376E-04
CGA:  10    -0.368475181961E+03   -0.22490E-03   -0.22474E-03  7056   0.223E-03 0.121E-04
CGA:  11    -0.368475268424E+03   -0.86462E-04   -0.85992E-04  7056   0.102E-03 0.683E-05
CGA:  12    -0.368475305954E+03   -0.37530E-04   -0.36839E-04  7056   0.442E-04 0.187E-04
CGA:  13    -0.368475325612E+03   -0.19659E-04   -0.19361E-04  7056   0.208E-04 0.551E-05
CGA:  14    -0.368475329915E+03   -0.43025E-05   -0.52740E-05  7056   0.772E-05 0.104E-04
  33 F= -.36847533E+03 E0= -.36847533E+03  d E =-.182941E+00  mag=    12.0000
       N       E                     dE             d eps       ncg     rms          ort
SDA:   1    -0.367367885989E+03    0.11074E+01    0.00000E+00  7056   0.263E+01 0.000E+00
CGA:   2    -0.368258915856E+03   -0.89103E+00   -0.89110E+00  7056   0.941E+00-0.295E-02
CGA:   3    -0.368437352968E+03   -0.17844E+00   -0.17870E+00  7056   0.169E+00 0.114E-02
CGA:   4    -0.368470087227E+03   -0.32734E-01   -0.32761E-01  7056   0.322E-01 0.119E-03
CGA:   5    -0.368477820823E+03   -0.77336E-02   -0.77308E-02  7056   0.724E-02-0.490E-04
CGA:   6    -0.368479758399E+03   -0.19376E-02   -0.19343E-02  7056   0.230E-02-0.107E-03
CGA:   7    -0.368480496455E+03   -0.73806E-03   -0.74227E-03  7056   0.105E-02-0.138E-03
CGA:   8    -0.368480825457E+03   -0.32900E-03   -0.32842E-03  7056   0.355E-03 0.167E-04
CGA:   9    -0.368480951789E+03   -0.12633E-03   -0.12777E-03  7056   0.117E-03-0.266E-04
CGA:  10    -0.368480991201E+03   -0.39412E-04   -0.41424E-04  7056   0.476E-04-0.253E-04
CGA:  11    -0.368481005814E+03   -0.14613E-04   -0.15852E-04  7056   0.272E-04-0.105E-04
CGA:  12    -0.368481008106E+03   -0.22924E-05   -0.37236E-05  7056   0.124E-04 0.104E-04
  34 F= -.36848101E+03 E0= -.36848101E+03  d E =-.567819E-02  mag=    12.0000
       N       E                     dE             d eps       ncg     rms          ort
SDA:   1    -0.364899913466E+03    0.35811E+01    0.00000E+00  7056   0.836E+01 0.000E+00
CGA:   2    -0.367837576949E+03   -0.29377E+01   -0.29374E+01  7056   0.259E+01 0.322E-02
CGA:   3    -0.368349436033E+03   -0.51186E+00   -0.51187E+00  7056   0.449E+00-0.258E-02
CGA:   4    -0.368438810863E+03   -0.89375E-01   -0.89348E-01  7056   0.941E-01-0.580E-03
CGA:   5    -0.368460639593E+03   -0.21829E-01   -0.21827E-01  7056   0.200E-01-0.383E-04
CGA:   6    -0.368466019958E+03   -0.53804E-02   -0.53796E-02  7056   0.638E-02-0.429E-04
CGA:   7    -0.368468069754E+03   -0.20498E-02   -0.20541E-02  7056   0.293E-02-0.127E-03
CGA:   8    -0.368469096323E+03   -0.10266E-02   -0.10346E-02  7056   0.118E-02-0.115E-03
CGA:   9    -0.368469487687E+03   -0.39136E-03   -0.39670E-03  7056   0.369E-03-0.930E-04
CGA:  10    -0.368469599859E+03   -0.11217E-03   -0.11297E-03  7056   0.118E-03-0.221E-04
CGA:  11    -0.368469646426E+03   -0.46568E-04   -0.49831E-04  7056   0.795E-04-0.214E-04
CGA:  12    -0.368469665091E+03   -0.18664E-04   -0.18899E-04  7056   0.373E-04 0.155E-04
CGA:  13    -0.368469681280E+03   -0.16190E-04   -0.16111E-04  7056   0.179E-04 0.138E-05
CGA:  14    -0.368469689916E+03   -0.86361E-05   -0.96712E-05  7056   0.131E-04-0.487E-05
  35 F= -.36846969E+03 E0= -.36846969E+03  d E =0.113182E-01  mag=    12.0000
       N       E                     dE             d eps       ncg     rms          ort
SDA:   1    -0.349066303388E+03    0.19403E+02    0.00000E+00  7056   0.416E+02 0.000E+00
CGA:   2    -0.362615053044E+03   -0.13549E+02   -0.13549E+02  7056   0.140E+02-0.242E-01
CGA:   3    -0.365749808903E+03   -0.31348E+01   -0.31382E+01  7056   0.320E+01 0.867E-02
CGA:   4    -0.366404722816E+03   -0.65491E+00   -0.65527E+00  7056   0.760E+00 0.144E-03
CGA:   5    -0.366598281531E+03   -0.19356E+00   -0.19351E+00  7056   0.217E+00-0.738E-03
CGA:   6    -0.366665482458E+03   -0.67201E-01   -0.67208E-01  7056   0.821E-01-0.721E-03
CGA:   7    -0.366689791847E+03   -0.24309E-01   -0.24308E-01  7056   0.313E-01-0.359E-03
CGA:   8    -0.366699785058E+03   -0.99932E-02   -0.99940E-02  7056   0.919E-02-0.408E-04
CGA:   9    -0.366702844352E+03   -0.30593E-02   -0.30654E-02  7056   0.271E-02-0.187E-03
CGA:  10    -0.366703723298E+03   -0.87895E-03   -0.88046E-03  7056   0.841E-03-0.532E-04
CGA:  11    -0.366704030454E+03   -0.30716E-03   -0.30715E-03  7056   0.358E-03-0.273E-07
CGA:  12    -0.366704155815E+03   -0.12536E-03   -0.12386E-03  7056   0.165E-03 0.395E-04
CGA:  13    -0.366704215529E+03   -0.59715E-04   -0.59338E-04  7056   0.781E-04 0.269E-04
CGA:  14    -0.366704244947E+03   -0.29418E-04   -0.29218E-04  7056   0.332E-04 0.173E-04
CGA:  15    -0.366704253904E+03   -0.89562E-05   -0.10018E-04  7056   0.130E-04 0.166E-04
  36 F= -.36670425E+03 E0= -.36670425E+03  d E =0.176544E+01  mag=    12.0000
       N       E                     dE             d eps       ncg     rms          ort
SDA:   1    -0.362132911424E+03    0.45713E+01    0.00000E+00  7056   0.145E+02 0.000E+00
CGA:   2    -0.366805653980E+03   -0.46727E+01   -0.46733E+01  7056   0.457E+01-0.286E-01
CGA:   3    -0.367933065652E+03   -0.11274E+01   -0.11281E+01  7056   0.867E+00 0.688E-02
CGA:   4    -0.368133261085E+03   -0.20020E+00   -0.20018E+00  7056   0.245E+00-0.593E-03
CGA:   5    -0.368190587880E+03   -0.57327E-01   -0.57336E-01  7056   0.737E-01 0.756E-04
CGA:   6    -0.368213534132E+03   -0.22946E-01   -0.22953E-01  7056   0.260E-01-0.463E-03
CGA:   7    -0.368221633011E+03   -0.80989E-02   -0.81021E-02  7056   0.104E-01-0.219E-03
CGA:   8    -0.368224683601E+03   -0.30506E-02   -0.30509E-02  7056   0.309E-02 0.949E-04
CGA:   9    -0.368225691138E+03   -0.10075E-02   -0.10081E-02  7056   0.916E-03-0.249E-04
CGA:  10    -0.368225993382E+03   -0.30224E-03   -0.30263E-03  7056   0.311E-03-0.118E-04
CGA:  11    -0.368226108439E+03   -0.11506E-03   -0.11515E-03  7056   0.136E-03-0.141E-05
CGA:  12    -0.368226160553E+03   -0.52114E-04   -0.51373E-04  7056   0.611E-04 0.999E-05
CGA:  13    -0.368226189644E+03   -0.29091E-04   -0.31099E-04  7056   0.455E-04-0.122E-04
CGA:  14    -0.368226199106E+03   -0.94624E-05   -0.96807E-05  7056   0.177E-04 0.425E-05
  37 F= -.36822620E+03 E0= -.36822620E+03  d E =-.152195E+01  mag=    12.0000
       N       E                     dE             d eps       ncg     rms          ort
SDA:   1    -0.366245011154E+03    0.19812E+01    0.00000E+00  7056   0.526E+01 0.000E+00
CGA:   2    -0.367951124055E+03   -0.17061E+01   -0.17060E+01  7056   0.169E+01 0.243E-02
CGA:   3    -0.368363650716E+03   -0.41253E+00   -0.41283E+00  7056   0.338E+00 0.354E-02
CGA:   4    -0.368438567293E+03   -0.74917E-01   -0.74889E-01  7056   0.934E-01-0.588E-03
CGA:   5    -0.368460646600E+03   -0.22079E-01   -0.22101E-01  7056   0.269E-01 0.272E-03
CGA:   6    -0.368469166469E+03   -0.85199E-02   -0.85190E-02  7056   0.972E-02 0.707E-04
CGA:   7    -0.368472192580E+03   -0.30261E-02   -0.30266E-02  7056   0.388E-02-0.799E-04
CGA:   8    -0.368473343349E+03   -0.11508E-02   -0.11511E-02  7056   0.111E-02 0.642E-04
CGA:   9    -0.368473709952E+03   -0.36660E-03   -0.36669E-03  7056   0.320E-03-0.425E-05
CGA:  10    -0.368473817010E+03   -0.10706E-03   -0.10741E-03  7056   0.110E-03-0.115E-04
CGA:  11    -0.368473858412E+03   -0.41401E-04   -0.42499E-04  7056   0.564E-04-0.118E-04
CGA:  12    -0.368473875809E+03   -0.17397E-04   -0.17293E-04  7056   0.240E-04 0.324E-05
CGA:  13    -0.368473886920E+03   -0.11111E-04   -0.12986E-04  7056   0.217E-04-0.941E-05
CGA:  14    -0.368473891332E+03   -0.44121E-05   -0.44408E-05  7056   0.103E-04-0.206E-05
  38 F= -.36847389E+03 E0= -.36847389E+03  d E =-.247692E+00  mag=    12.0000
       N       E                     dE             d eps       ncg     rms          ort
SDA:   1    -0.368385911826E+03    0.87975E-01    0.00000E+00  7056   0.250E+00 0.000E+00
CGA:   2    -0.368465966720E+03   -0.80055E-01   -0.80057E-01  7056   0.840E-01 0.271E-03
CGA:   3    -0.368485395207E+03   -0.19428E-01   -0.19452E-01  7056   0.201E-01 0.195E-03
CGA:   4    -0.368489473591E+03   -0.40784E-02   -0.40635E-02  7056   0.448E-02-0.149E-03
CGA:   5    -0.368490609757E+03   -0.11362E-02   -0.11349E-02  7056   0.129E-02-0.222E-04
CGA:   6    -0.368490976152E+03   -0.36640E-03   -0.36848E-03  7056   0.440E-03 0.898E-04
CGA:   7    -0.368491106975E+03   -0.13082E-03   -0.13212E-03  7056   0.158E-03 0.459E-04
CGA:   8    -0.368491169690E+03   -0.62715E-04   -0.63252E-04  7056   0.596E-04-0.965E-05
CGA:   9    -0.368491187509E+03   -0.17819E-04   -0.17832E-04  7056   0.150E-04-0.147E-05
CGA:  10    -0.368491192021E+03   -0.45124E-05   -0.45124E-05  7056   0.415E-05-0.411E-07
  39 F= -.36849119E+03 E0= -.36849119E+03  d E =-.173007E-01  mag=    12.0000
       N       E                     dE             d eps       ncg     rms          ort
SDA:   1    -0.368339696758E+03    0.15149E+00    0.00000E+00  7056   0.396E+00 0.000E+00
CGA:   2    -0.368462529825E+03   -0.12283E+00   -0.12290E+00  7056   0.139E+00 0.135E-02
CGA:   3    -0.368493516818E+03   -0.30987E-01   -0.30949E-01  7056   0.359E-01-0.434E-03
CGA:   4    -0.368500739216E+03   -0.72224E-02   -0.71821E-02  7056   0.704E-02-0.321E-03
CGA:   5    -0.368502571474E+03   -0.18323E-02   -0.18280E-02  7056   0.207E-02-0.578E-04
CGA:   6    -0.368503143728E+03   -0.57225E-03   -0.57826E-03  7056   0.707E-03 0.116E-03
CGA:   7    -0.368503341773E+03   -0.19804E-03   -0.20305E-03  7056   0.242E-03 0.861E-04
CGA:   8    -0.368503440119E+03   -0.98346E-04   -0.98683E-04  7056   0.949E-04-0.914E-05
CGA:   9    -0.368503472764E+03   -0.32645E-04   -0.33132E-04  7056   0.327E-04-0.144E-04
CGA:  10    -0.368503481259E+03   -0.84946E-05   -0.84559E-05  7056   0.871E-05-0.148E-05
  40 F= -.36850348E+03 E0= -.36850348E+03  d E =-.122892E-01  mag=    12.0000
       N       E                     dE             d eps       ncg     rms          ort
SDA:   1    -0.368492211142E+03    0.11262E-01    0.00000E+00  7056   0.302E-01 0.000E+00
CGA:   2    -0.368501921472E+03   -0.97103E-02   -0.97169E-02  7056   0.101E-01 0.506E-03
CGA:   3    -0.368504392764E+03   -0.24713E-02   -0.24382E-02  7056   0.243E-02-0.349E-03
CGA:   4    -0.368504862093E+03   -0.46933E-03   -0.46656E-03  7056   0.567E-03-0.238E-04
CGA:   5    -0.368505002641E+03   -0.14055E-03   -0.13996E-03  7056   0.157E-03-0.809E-05
CGA:   6    -0.368505049564E+03   -0.46924E-04   -0.46967E-04  7056   0.572E-04 0.280E-05
CGA:   7    -0.368505062482E+03   -0.12917E-04   -0.13884E-04  7056   0.177E-04 0.121E-04
CGA:   8    -0.368505070345E+03   -0.78634E-05   -0.79527E-05  7056   0.905E-05-0.156E-05
  41 F= -.36850507E+03 E0= -.36850507E+03  d E =-.158909E-02  mag=    12.0000
       N       E                     dE             d eps       ncg     rms          ort
SDA:   1    -0.368496586212E+03    0.84763E-02    0.00000E+00  7056   0.197E-01 0.000E+00
CGA:   2    -0.368502391807E+03   -0.58056E-02   -0.58248E-02  7056   0.786E-02 0.637E-03
CGA:   3    -0.368504112949E+03   -0.17211E-02   -0.16979E-02  7056   0.173E-02-0.213E-03
CGA:   4    -0.368504492553E+03   -0.37960E-03   -0.36288E-03  7056   0.373E-03-0.165E-03
CGA:   5    -0.368504573972E+03   -0.81419E-04   -0.80714E-04  7056   0.900E-04-0.964E-05
CGA:   6    -0.368504587096E+03   -0.13124E-04   -0.16550E-04  7056   0.257E-04 0.284E-04
CGA:   7    -0.368504590130E+03   -0.30337E-05   -0.53659E-05  7056   0.119E-04 0.162E-04
  42 F= -.36850459E+03 E0= -.36850459E+03  d E =0.480216E-03  mag=    12.0000
       N       E                     dE             d eps       ncg     rms          ort
SDA:   1    -0.368487853741E+03    0.16733E-01    0.00000E+00  7056   0.395E-01 0.000E+00
CGA:   2    -0.368498825458E+03   -0.10972E-01   -0.10992E-01  7056   0.184E-01 0.708E-03
CGA:   3    -0.368502479930E+03   -0.36545E-02   -0.36366E-02  7056   0.330E-02-0.187E-03
CGA:   4    -0.368503167220E+03   -0.68729E-03   -0.66820E-03  7056   0.631E-03-0.204E-03
CGA:   5    -0.368503308655E+03   -0.14144E-03   -0.14030E-03  7056   0.152E-03-0.201E-04
CGA:   6    -0.368503336041E+03   -0.27385E-04   -0.29793E-04  7056   0.378E-04 0.270E-04
CGA:   7    -0.368503344472E+03   -0.84312E-05   -0.95433E-05  7056   0.154E-04 0.153E-04
  43 F= -.36850334E+03 E0= -.36850334E+03  d E =0.124566E-02  mag=    12.0000
       N       E                     dE             d eps       ncg     rms          ort
SDA:   1    -0.368422464085E+03    0.80872E-01    0.00000E+00  7056   0.195E+00 0.000E+00
CGA:   2    -0.368479665198E+03   -0.57201E-01   -0.57187E-01  7056   0.840E-01 0.143E-02
CGA:   3    -0.368496091989E+03   -0.16427E-01   -0.16396E-01  7056   0.147E-01-0.434E-03
CGA:   4    -0.368498972151E+03   -0.28802E-02   -0.28525E-02  7056   0.266E-02-0.328E-03
CGA:   5    -0.368499591070E+03   -0.61892E-03   -0.61822E-03  7056   0.602E-03-0.184E-04
CGA:   6    -0.368499730982E+03   -0.13991E-03   -0.14150E-03  7056   0.171E-03 0.419E-04
CGA:   7    -0.368499788648E+03   -0.57666E-04   -0.57282E-04  7056   0.786E-04 0.956E-05
CGA:   8    -0.368499823716E+03   -0.35067E-04   -0.37167E-04  7056   0.511E-04-0.121E-04
CGA:   9    -0.368499835621E+03   -0.11906E-04   -0.11928E-04  7056   0.153E-04 0.326E-05
CGA:  10    -0.368499839952E+03   -0.43309E-05   -0.43562E-05  7056   0.522E-05 0.176E-05
  44 F= -.36849984E+03 E0= -.36849984E+03  d E =0.350452E-02  mag=    12.0000
       N       E                     dE             d eps       ncg     rms          ort
SDA:   1    -0.363581334678E+03    0.49185E+01    0.00000E+00  7056   0.121E+02 0.000E+00
CGA:   2    -0.367321291448E+03   -0.37400E+01   -0.37395E+01  7056   0.474E+01 0.122E-01
CGA:   3    -0.368255082532E+03   -0.93379E+00   -0.93389E+00  7056   0.820E+00-0.344E-02
CGA:   4    -0.368411016981E+03   -0.15593E+00   -0.15577E+00  7056   0.153E+00-0.198E-02
CGA:   5    -0.368447506441E+03   -0.36489E-01   -0.36485E-01  7056   0.341E-01-0.124E-03
CGA:   6    -0.368456467165E+03   -0.89607E-02   -0.89621E-02  7056   0.112E-01 0.892E-04
CGA:   7    -0.368460087829E+03   -0.36207E-02   -0.36324E-02  7056   0.540E-02-0.251E-03
CGA:   8    -0.368462069495E+03   -0.19817E-02   -0.20053E-02  7056   0.245E-02-0.232E-03
CGA:   9    -0.368462843377E+03   -0.77388E-03   -0.77672E-03  7056   0.767E-03-0.592E-04
CGA:  10    -0.368463096367E+03   -0.25299E-03   -0.25494E-03  7056   0.254E-03-0.355E-04
CGA:  11    -0.368463186366E+03   -0.90000E-04   -0.88690E-04  7056   0.107E-03 0.170E-04
CGA:  12    -0.368463222619E+03   -0.36252E-04   -0.35569E-04  7056   0.461E-04 0.354E-04
CGA:  13    -0.368463239284E+03   -0.16665E-04   -0.17027E-04  7056   0.191E-04 0.228E-04
CGA:  14    -0.368463246618E+03   -0.73340E-05   -0.76349E-05  7056   0.840E-05 0.123E-04
  45 F= -.36846325E+03 E0= -.36846325E+03  d E =0.365933E-01  mag=    12.0000
       N       E                     dE             d eps       ncg     rms          ort
SDA:   1    -0.362456756478E+03    0.60065E+01    0.00000E+00  7056   0.146E+02 0.000E+00
CGA:   2    -0.367110978347E+03   -0.46542E+01   -0.46536E+01  7056   0.539E+01 0.150E-01
CGA:   3    -0.368192268293E+03   -0.10813E+01   -0.10814E+01  7056   0.925E+00-0.298E-02
CGA:   4    -0.368368864874E+03   -0.17660E+00   -0.17638E+00  7056   0.182E+00-0.237E-02
CGA:   5    -0.368411707841E+03   -0.42843E-01   -0.42840E-01  7056   0.403E-01-0.717E-04
CGA:   6    -0.368422378422E+03   -0.10671E-01   -0.10676E-01  7056   0.134E-01 0.272E-03
CGA:   7    -0.368426674656E+03   -0.42962E-02   -0.43041E-02  7056   0.649E-02-0.223E-03
CGA:   8    -0.368429044772E+03   -0.23701E-02   -0.23942E-02  7056   0.291E-02-0.265E-03
CGA:   9    -0.368429967554E+03   -0.92278E-03   -0.92629E-03  7056   0.917E-03-0.819E-04
CGA:  10    -0.368430269642E+03   -0.30209E-03   -0.30450E-03  7056   0.309E-03-0.476E-04
CGA:  11    -0.368430379369E+03   -0.10973E-03   -0.10831E-03  7056   0.134E-03 0.187E-04
CGA:  12    -0.368430429976E+03   -0.50607E-04   -0.48992E-04  7056   0.621E-04 0.342E-04
CGA:  13    -0.368430453550E+03   -0.23575E-04   -0.23523E-04  7056   0.248E-04 0.246E-04
CGA:  14    -0.368430464051E+03   -0.10501E-04   -0.10473E-04  7056   0.974E-05 0.122E-04
CGA:  15    -0.368430468344E+03   -0.42928E-05   -0.43119E-05  7056   0.486E-05 0.586E-05
  46 F= -.36843047E+03 E0= -.36843047E+03  d E =0.327783E-01  mag=    12.0000
       N       E                     dE             d eps       ncg     rms          ort
SDA:   1    -0.368142426144E+03    0.28804E+00    0.00000E+00  7056   0.843E+00 0.000E+00
CGA:   2    -0.368333739558E+03   -0.19131E+00   -0.19137E+00  7056   0.382E+00-0.128E-03
CGA:   3    -0.368413903422E+03   -0.80164E-01   -0.80267E-01  7056   0.807E-01 0.624E-03
CGA:   4    -0.368430622650E+03   -0.16719E-01   -0.16697E-01  7056   0.142E-01-0.283E-03
CGA:   5    -0.368433958748E+03   -0.33361E-02   -0.33207E-02  7056   0.375E-02-0.282E-03
CGA:   6    -0.368434902328E+03   -0.94358E-03   -0.94672E-03  7056   0.116E-02 0.103E-03
CGA:   7    -0.368435205745E+03   -0.30342E-03   -0.30869E-03  7056   0.377E-03 0.197E-03
CGA:   8    -0.368435357971E+03   -0.15223E-03   -0.15027E-03  7056   0.169E-03 0.352E-04
CGA:   9    -0.368435430231E+03   -0.72260E-04   -0.95603E-04  7056   0.174E-03-0.102E-03
CGA:  10    -0.368435457137E+03   -0.26906E-04   -0.30792E-04  7056   0.202E-04 0.319E-04
CGA:  11    -0.368435463127E+03   -0.59896E-05   -0.61850E-05  7056   0.786E-05 0.569E-05
  47 F= -.36843546E+03 E0= -.36843546E+03  d E =-.499478E-02  mag=    12.0000
       N       E                     dE             d eps       ncg     rms          ort
SDA:   1    -0.368131958990E+03    0.30350E+00    0.00000E+00  7056   0.768E+00 0.000E+00
CGA:   2    -0.368375962164E+03   -0.24400E+00   -0.24411E+00  7056   0.289E+00-0.421E-02
CGA:   3    -0.368432102432E+03   -0.56140E-01   -0.56268E-01  7056   0.567E-01 0.104E-02
CGA:   4    -0.368442904463E+03   -0.10802E-01   -0.10898E-01  7056   0.100E-01 0.973E-03
CGA:   5    -0.368445371850E+03   -0.24674E-02   -0.24718E-02  7056   0.247E-02 0.111E-03
CGA:   6    -0.368446129348E+03   -0.75750E-03   -0.76443E-03  7056   0.103E-02-0.282E-03
CGA:   7    -0.368446425431E+03   -0.29608E-03   -0.30365E-03  7056   0.487E-03-0.152E-03
CGA:   8    -0.368446545141E+03   -0.11971E-03   -0.11961E-03  7056   0.139E-03 0.288E-04
CGA:   9    -0.368446581903E+03   -0.36762E-04   -0.37537E-04  7056   0.394E-04 0.257E-04
CGA:  10    -0.368446596466E+03   -0.14562E-04   -0.14504E-04  7056   0.140E-04 0.212E-05
CGA:  11    -0.368446601286E+03   -0.48204E-05   -0.47629E-05  7056   0.593E-05 0.152E-05
  48 F= -.36844660E+03 E0= -.36844660E+03  d E =-.111382E-01  mag=    12.0000
       N       E                     dE             d eps       ncg     rms          ort
SDA:   1    -0.367613372483E+03    0.83322E+00    0.00000E+00  7056   0.199E+01 0.000E+00
CGA:   2    -0.368258377694E+03   -0.64501E+00   -0.64487E+00  7056   0.724E+00 0.302E-02
CGA:   3    -0.368402842408E+03   -0.14446E+00   -0.14439E+00  7056   0.123E+00-0.139E-02
CGA:   4    -0.368426477457E+03   -0.23635E-01   -0.23580E-01  7056   0.241E-01-0.671E-03
CGA:   5    -0.368432063834E+03   -0.55864E-02   -0.55886E-02  7056   0.511E-02 0.505E-04
CGA:   6    -0.368433389687E+03   -0.13259E-02   -0.13270E-02  7056   0.159E-02 0.759E-04
CGA:   7    -0.368433908096E+03   -0.51841E-03   -0.52133E-03  7056   0.790E-03-0.579E-04
CGA:   8    -0.368434190246E+03   -0.28215E-03   -0.28541E-03  7056   0.355E-03-0.328E-04
CGA:   9    -0.368434301491E+03   -0.11124E-03   -0.11136E-03  7056   0.110E-03-0.242E-05
CGA:  10    -0.368434339873E+03   -0.38383E-04   -0.39292E-04  7056   0.409E-04-0.117E-04
CGA:  11    -0.368434351236E+03   -0.11363E-04   -0.11223E-04  7056   0.150E-04 0.696E-05
CGA:  12    -0.368434354947E+03   -0.37110E-05   -0.41298E-05  7056   0.718E-05 0.790E-05
  49 F= -.36843435E+03 E0= -.36843435E+03  d E =0.122463E-01  mag=    12.0000
       N       E                     dE             d eps       ncg     rms          ort
SDA:   1    -0.355788358075E+03    0.12646E+02    0.00000E+00  7056   0.372E+02 0.000E+00
CGA:   2    -0.364101158712E+03   -0.83128E+01   -0.83210E+01  7056   0.165E+02 0.115E-01
CGA:   3    -0.367593568118E+03   -0.34924E+01   -0.34969E+01  7056   0.318E+01 0.214E-01
CGA:   4    -0.368226106320E+03   -0.63254E+00   -0.63304E+00  7056   0.526E+00 0.600E-02
CGA:   5    -0.368345207963E+03   -0.11910E+00   -0.11920E+00  7056   0.124E+00 0.180E-02
CGA:   6    -0.368377151306E+03   -0.31943E-01   -0.31922E-01  7056   0.378E-01-0.130E-02
CGA:   7    -0.368388895895E+03   -0.11745E-01   -0.11780E-01  7056   0.162E-01-0.839E-03
CGA:   8    -0.368394558517E+03   -0.56626E-02   -0.56866E-02  7056   0.699E-02-0.287E-03
CGA:   9    -0.368396870194E+03   -0.23117E-02   -0.23254E-02  7056   0.237E-02-0.231E-03
CGA:  10    -0.368397629844E+03   -0.75965E-03   -0.76209E-03  7056   0.728E-03-0.486E-04
CGA:  11    -0.368397890660E+03   -0.26082E-03   -0.26036E-03  7056   0.299E-03 0.540E-05
CGA:  12    -0.368398005642E+03   -0.11498E-03   -0.11207E-03  7056   0.128E-03 0.349E-04
CGA:  13    -0.368398062349E+03   -0.56707E-04   -0.55311E-04  7056   0.534E-04 0.148E-04
CGA:  14    -0.368398082331E+03   -0.19982E-04   -0.19543E-04  7056   0.183E-04 0.142E-04
CGA:  15    -0.368398091826E+03   -0.94951E-05   -0.92071E-05  7056   0.880E-05 0.288E-05
  50 F= -.36839809E+03 E0= -.36839809E+03  d E =0.362631E-01  mag=    12.0000
       N       E                     dE             d eps       ncg     rms          ort
SDA:   1    -0.366013303651E+03    0.23848E+01    0.00000E+00  7056   0.649E+01 0.000E+00
CGA:   2    -0.367568347223E+03   -0.15550E+01   -0.15560E+01  7056   0.309E+01 0.216E-02
CGA:   3    -0.368216051745E+03   -0.64770E+00   -0.64870E+00  7056   0.635E+00 0.512E-02
CGA:   4    -0.368348715559E+03   -0.13266E+00   -0.13245E+00  7056   0.120E+00-0.267E-02
CGA:   5    -0.368378189432E+03   -0.29474E-01   -0.29445E-01  7056   0.334E-01-0.618E-03
CGA:   6    -0.368386863119E+03   -0.86737E-02   -0.87014E-02  7056   0.115E-01 0.785E-03
CGA:   7    -0.368390393321E+03   -0.35302E-02   -0.35285E-02  7056   0.413E-02 0.311E-03
CGA:   8    -0.368391892649E+03   -0.14993E-02   -0.15061E-02  7056   0.157E-02-0.114E-03
CGA:   9    -0.368392369601E+03   -0.47695E-03   -0.47727E-03  7056   0.462E-03-0.224E-04
CGA:  10    -0.368392521835E+03   -0.15223E-03   -0.15317E-03  7056   0.152E-03-0.250E-04
CGA:  11    -0.368392577191E+03   -0.55356E-04   -0.56811E-04  7056   0.736E-04-0.153E-04
CGA:  12    -0.368392605725E+03   -0.28534E-04   -0.37217E-04  7056   0.771E-04-0.337E-04
CGA:  13    -0.368392617628E+03   -0.11903E-04   -0.11760E-04  7056   0.361E-04-0.398E-05
CGA:  14    -0.368392628340E+03   -0.10712E-04   -0.10687E-04  7056   0.181E-04-0.589E-05
CGA:  15    -0.368392605466E+03    0.22874E-04   -0.16957E-04  7056   0.174E-03-0.498E-04
CGA:  16    -0.368392632833E+03   -0.27367E-04   -0.31526E-04  7056   0.203E-04 0.236E-04
CGA:  17    -0.368392640499E+03   -0.76660E-05   -0.76826E-05  7056   0.490E-05 0.122E-05
  51 F= -.36839264E+03 E0= -.36839264E+03  d E =0.545133E-02  mag=    12.0000
       N       E                     dE             d eps       ncg     rms          ort
SDA:   1    -0.367944175376E+03    0.44846E+00    0.00000E+00  7056   0.128E+01 0.000E+00
CGA:   2    -0.368296691272E+03   -0.35252E+00   -0.35234E+00  7056   0.576E+00-0.189E-02
CGA:   3    -0.368414285744E+03   -0.11759E+00   -0.11760E+00  7056   0.127E+00-0.806E-03
CGA:   4    -0.368440249913E+03   -0.25964E-01   -0.26101E-01  7056   0.244E-01 0.828E-03
CGA:   5    -0.368446529763E+03   -0.62798E-02   -0.62875E-02  7056   0.694E-02 0.762E-04
CGA:   6    -0.368448581711E+03   -0.20519E-02   -0.20345E-02  7056   0.286E-02-0.298E-03
CGA:   7    -0.368449393439E+03   -0.81173E-03   -0.80840E-03  7056   0.972E-03-0.629E-04
CGA:   8    -0.368449699057E+03   -0.30562E-03   -0.30627E-03  7056   0.297E-03 0.274E-04
CGA:   9    -0.368449796371E+03   -0.97314E-04   -0.97235E-04  7056   0.916E-04-0.320E-05
CGA:  10    -0.368449822647E+03   -0.26276E-04   -0.26611E-04  7056   0.242E-04 0.673E-05
CGA:  11    -0.368449831686E+03   -0.90387E-05   -0.90316E-05  7056   0.101E-04 0.108E-05
  52 F= -.36844983E+03 E0= -.36844983E+03  d E =-.571912E-01  mag=    12.0000
       N       E                     dE             d eps       ncg     rms          ort
SDA:   1    -0.368427393267E+03    0.22429E-01    0.00000E+00  7056   0.742E-01 0.000E+00
CGA:   2    -0.368443394364E+03   -0.16001E-01   -0.16058E-01  7056   0.329E-01 0.403E-03
CGA:   3    -0.368450524195E+03   -0.71298E-02   -0.71718E-02  7056   0.655E-02 0.324E-03
CGA:   4    -0.368451961344E+03   -0.14371E-02   -0.14056E-02  7056   0.126E-02-0.281E-03
CGA:   5    -0.368452257871E+03   -0.29653E-03   -0.29084E-03  7056   0.333E-03-0.716E-04
CGA:   6    -0.368452317308E+03   -0.59437E-04   -0.65082E-04  7056   0.850E-04 0.515E-04
CGA:   7    -0.368452337266E+03   -0.19958E-04   -0.22242E-04  7056   0.329E-04 0.271E-04
CGA:   8    -0.368452351988E+03   -0.14722E-04   -0.14658E-04  7056   0.212E-04 0.206E-05
CGA:   9    -0.368452358771E+03   -0.67827E-05   -0.67865E-05  7056   0.834E-05 0.527E-06
  53 F= -.36845236E+03 E0= -.36845236E+03  d E =-.252709E-02  mag=    12.0000
       N       E                     dE             d eps       ncg     rms          ort
SDA:   1    -0.368369706583E+03    0.82645E-01    0.00000E+00  7056   0.270E+00 0.000E+00
CGA:   2    -0.368423609445E+03   -0.53903E-01   -0.54028E-01  7056   0.113E+00 0.891E-03
CGA:   3    -0.368449152929E+03   -0.25543E-01   -0.25618E-01  7056   0.233E-01 0.870E-03
CGA:   4    -0.368454018752E+03   -0.48658E-02   -0.48091E-02  7056   0.405E-02-0.632E-03
CGA:   5    -0.368454958708E+03   -0.93996E-03   -0.92917E-03  7056   0.105E-02-0.196E-03
CGA:   6    -0.368455164844E+03   -0.20614E-03   -0.21465E-03  7056   0.262E-03 0.116E-03
CGA:   7    -0.368455231185E+03   -0.66341E-04   -0.69671E-04  7056   0.100E-03 0.728E-04
CGA:   8    -0.368455276462E+03   -0.45277E-04   -0.44535E-04  7056   0.644E-04 0.115E-04
CGA:   9    -0.368455301309E+03   -0.24847E-04   -0.24968E-04  7056   0.292E-04-0.197E-05
CGA:  10    -0.368455310227E+03   -0.89178E-05   -0.89345E-05  7056   0.106E-04-0.651E-06
  54 F= -.36845531E+03 E0= -.36845531E+03  d E =-.295146E-02  mag=    12.0000
       N       E                     dE             d eps       ncg     rms          ort
SDA:   1    -0.367943336032E+03    0.51197E+00    0.00000E+00  7056   0.157E+01 0.000E+00
CGA:   2    -0.368268313859E+03   -0.32498E+00   -0.32535E+00  7056   0.667E+00 0.214E-02
CGA:   3    -0.368416548177E+03   -0.14823E+00   -0.14843E+00  7056   0.137E+00 0.173E-02
CGA:   4    -0.368444263705E+03   -0.27716E-01   -0.27575E-01  7056   0.231E-01-0.158E-02
CGA:   5    -0.368449565092E+03   -0.53014E-02   -0.52781E-02  7056   0.570E-02-0.417E-03
CGA:   6    -0.368450874262E+03   -0.13092E-02   -0.13230E-02  7056   0.160E-02 0.280E-03
CGA:   7    -0.368451372065E+03   -0.49780E-03   -0.49589E-03  7056   0.661E-03 0.149E-03
CGA:   8    -0.368451657295E+03   -0.28523E-03   -0.28750E-03  7056   0.376E-03-0.201E-04
CGA:   9    -0.368451776378E+03   -0.11908E-03   -0.11887E-03  7056   0.131E-03 0.588E-05
CGA:  10    -0.368451820902E+03   -0.44524E-04   -0.44672E-04  7056   0.467E-04-0.333E-05
CGA:  11    -0.368451840076E+03   -0.19174E-04   -0.22133E-04  7056   0.337E-04-0.153E-04
CGA:  12    -0.368451847998E+03   -0.79223E-05   -0.80117E-05  7056   0.143E-04-0.177E-05
  55 F= -.36845185E+03 E0= -.36845185E+03  d E =0.346223E-02  mag=    12.0000
       N       E                     dE             d eps       ncg     rms          ort
SDA:   1    -0.367936416250E+03    0.51542E+00    0.00000E+00  7056   0.148E+01 0.000E+00
CGA:   2    -0.368273278623E+03   -0.33686E+00   -0.33716E+00  7056   0.615E+00 0.287E-02
CGA:   3    -0.368404773306E+03   -0.13149E+00   -0.13160E+00  7056   0.128E+00 0.415E-03
CGA:   4    -0.368430477054E+03   -0.25704E-01   -0.25576E-01  7056   0.213E-01-0.139E-02
CGA:   5    -0.368435404236E+03   -0.49272E-02   -0.49147E-02  7056   0.515E-02-0.228E-03
CGA:   6    -0.368436632992E+03   -0.12288E-02   -0.12367E-02  7056   0.158E-02 0.178E-03
CGA:   7    -0.368437162456E+03   -0.52946E-03   -0.52810E-03  7056   0.760E-03 0.349E-04
CGA:   8    -0.368437466975E+03   -0.30452E-03   -0.30735E-03  7056   0.402E-03-0.260E-04
CGA:   9    -0.368437589298E+03   -0.12232E-03   -0.12190E-03  7056   0.129E-03 0.195E-04
CGA:  10    -0.368437636775E+03   -0.47477E-04   -0.47937E-04  7056   0.490E-04-0.749E-05
CGA:  11    -0.368437654619E+03   -0.17844E-04   -0.18201E-04  7056   0.221E-04-0.364E-05
CGA:  12    -0.368437659594E+03   -0.49748E-05   -0.52737E-05  7056   0.804E-05 0.694E-05
  56 F= -.36843766E+03 E0= -.36843766E+03  d E =0.141884E-01  mag=    12.0000
       N       E                     dE             d eps       ncg     rms          ort
SDA:   1    -0.368039804324E+03    0.39785E+00    0.00000E+00  7056   0.106E+01 0.000E+00
CGA:   2    -0.368314141432E+03   -0.27434E+00   -0.27445E+00  7056   0.402E+00 0.314E-02
CGA:   3    -0.368401185601E+03   -0.87044E-01   -0.87006E-01  7056   0.846E-01-0.896E-03
CGA:   4    -0.368417312675E+03   -0.16127E-01   -0.16061E-01  7056   0.149E-01-0.711E-03
CGA:   5    -0.368420766149E+03   -0.34535E-02   -0.34490E-02  7056   0.347E-02-0.917E-04
CGA:   6    -0.368421660681E+03   -0.89453E-03   -0.89501E-03  7056   0.122E-02 0.223E-04
CGA:   7    -0.368422069768E+03   -0.40909E-03   -0.41153E-03  7056   0.649E-03-0.435E-04
CGA:   8    -0.368422303349E+03   -0.23358E-03   -0.23476E-03  7056   0.302E-03-0.126E-04
CGA:   9    -0.368422394675E+03   -0.91325E-04   -0.90920E-04  7056   0.911E-04 0.193E-04
CGA:  10    -0.368422431010E+03   -0.36335E-04   -0.37739E-04  7056   0.406E-04-0.138E-04
CGA:  11    -0.368422442497E+03   -0.11487E-04   -0.11398E-04  7056   0.145E-04 0.230E-05
CGA:  12    -0.368422445264E+03   -0.27674E-05   -0.32890E-05  7056   0.580E-05 0.657E-05
  57 F= -.36842245E+03 E0= -.36842245E+03  d E =0.152143E-01  mag=    12.0000
       N       E                     dE             d eps       ncg     rms          ort
SDA:   1    -0.368393341495E+03    0.29101E-01    0.00000E+00  7056   0.102E+00 0.000E+00
CGA:   2    -0.368415311253E+03   -0.21970E-01   -0.21929E-01  7056   0.452E-01-0.679E-03
CGA:   3    -0.368425125035E+03   -0.98138E-02   -0.98070E-02  7056   0.904E-02-0.165E-03
CGA:   4    -0.368426838244E+03   -0.17132E-02   -0.17391E-02  7056   0.147E-02 0.303E-03
CGA:   5    -0.368427173726E+03   -0.33548E-03   -0.33915E-03  7056   0.350E-03 0.725E-04
CGA:   6    -0.368427283814E+03   -0.11009E-03   -0.11209E-03  7056   0.158E-03-0.580E-04
CGA:   7    -0.368427321997E+03   -0.38183E-04   -0.38233E-04  7056   0.589E-04-0.292E-05
CGA:   8    -0.368427338337E+03   -0.16340E-04   -0.16278E-04  7056   0.208E-04 0.757E-05
CGA:   9    -0.368427346890E+03   -0.85527E-05   -0.12674E-04  7056   0.276E-04-0.155E-04
  58 F= -.36842735E+03 E0= -.36842735E+03  d E =-.490163E-02  mag=    12.0000
       N       E                     dE             d eps       ncg     rms          ort
SDA:   1    -0.368419813585E+03    0.75248E-02    0.00000E+00  7056   0.225E-01 0.000E+00
CGA:   2    -0.368424311704E+03   -0.44981E-02   -0.45123E-02  7056   0.102E-01 0.148E-03
CGA:   3    -0.368426684159E+03   -0.23725E-02   -0.23703E-02  7056   0.189E-02-0.563E-04
CGA:   4    -0.368427049025E+03   -0.36487E-03   -0.36390E-03  7056   0.316E-03-0.128E-04
CGA:   5    -0.368427119986E+03   -0.70961E-04   -0.70818E-04  7056   0.748E-04-0.322E-05
CGA:   6    -0.368427141788E+03   -0.21802E-04   -0.22359E-04  7056   0.315E-04-0.171E-04
CGA:   7    -0.368427148732E+03   -0.69437E-05   -0.69985E-05  7056   0.113E-04-0.324E-05
  59 F= -.36842715E+03 E0= -.36842715E+03  d E =0.198158E-03  mag=    12.0000
       N       E                     dE             d eps       ncg     rms          ort
SDA:   1    -0.368308139359E+03    0.11900E+00    0.00000E+00  7056   0.334E+00 0.000E+00
CGA:   2    -0.368381070331E+03   -0.72931E-01   -0.73014E-01  7056   0.155E+00 0.124E-02
CGA:   3    -0.368414872850E+03   -0.33803E-01   -0.33806E-01  7056   0.283E-01-0.113E-03
CGA:   4    -0.368420428961E+03   -0.55561E-02   -0.55307E-02  7056   0.462E-02-0.365E-03
CGA:   5    -0.368421486350E+03   -0.10574E-02   -0.10545E-02  7056   0.112E-02-0.912E-04
CGA:   6    -0.368421755583E+03   -0.26923E-03   -0.26912E-03  7056   0.307E-03-0.696E-05
CGA:   7    -0.368421845610E+03   -0.90027E-04   -0.89708E-04  7056   0.119E-03 0.968E-05
CGA:   8    -0.368421891513E+03   -0.45903E-04   -0.45910E-04  7056   0.590E-04-0.828E-07
CGA:   9    -0.368421914165E+03   -0.22652E-04   -0.24048E-04  7056   0.289E-04-0.997E-05
CGA:  10    -0.368421922675E+03   -0.85100E-05   -0.12149E-04  7056   0.242E-04-0.157E-04
  60 F= -.36842192E+03 E0= -.36842192E+03  d E =0.522606E-02  mag=    12.0000
       N       E                     dE             d eps       ncg     rms          ort
SDA:   1    -0.368085840103E+03    0.33607E+00    0.00000E+00  7056   0.852E+00 0.000E+00
CGA:   2    -0.368318440891E+03   -0.23260E+00   -0.23263E+00  7056   0.370E+00 0.260E-02
CGA:   3    -0.368393246933E+03   -0.74806E-01   -0.74817E-01  7056   0.684E-01-0.252E-03
CGA:   4    -0.368406479791E+03   -0.13233E-01   -0.13160E-01  7056   0.115E-01-0.866E-03
CGA:   5    -0.368409170796E+03   -0.26910E-02   -0.26869E-02  7056   0.273E-02-0.111E-03
CGA:   6    -0.368409818142E+03   -0.64735E-03   -0.65125E-03  7056   0.796E-03 0.124E-03
[...]
CGA:   8    -0.368258846103E+03   -0.29430E-02   -0.29740E-02  7056   0.342E-02-0.337E-03
CGA:   9    -0.368259899131E+03   -0.10530E-02   -0.10551E-02  7056   0.961E-03-0.436E-04
CGA:  10    -0.368260229688E+03   -0.33056E-03   -0.34064E-03  7056   0.342E-03-0.120E-03
CGA:  11    -0.368260334124E+03   -0.10444E-03   -0.10361E-03  7056   0.137E-03 0.123E-04
CGA:  12    -0.368260386809E+03   -0.52685E-04   -0.50922E-04  7056   0.720E-04 0.231E-04
CGA:  13    -0.368260411819E+03   -0.25010E-04   -0.24756E-04  7056   0.313E-04 0.337E-04
CGA:  14    -0.368260426771E+03   -0.14952E-04   -0.14516E-04  7056   0.155E-04 0.151E-04
CGA:  15    -0.368260438087E+03   -0.11316E-04   -0.11625E-04  7056   0.156E-04-0.149E-05
CGA:  16    -0.368260438858E+03   -0.77094E-06   -0.20016E-05  7056   0.969E-05 0.779E-05
  82 F= -.36826044E+03 E0= -.36826044E+03  d E =0.258942E-01  mag=    12.0000
       N       E                     dE             d eps       ncg     rms          ort
SDA:   1    -0.366757606745E+03    0.15028E+01    0.00000E+00  7056   0.369E+01 0.000E+00
CGA:   2    -0.367831459042E+03   -0.10739E+01   -0.10739E+01  7056   0.167E+01-0.194E-02
CGA:   3    -0.368150717654E+03   -0.31926E+00   -0.31932E+00  7056   0.316E+00-0.199E-02
CGA:   4    -0.368215565650E+03   -0.64848E-01   -0.64906E-01  7056   0.572E-01 0.607E-03
CGA:   5    -0.368229360219E+03   -0.13795E-01   -0.13800E-01  7056   0.152E-01 0.136E-03
CGA:   6    -0.368233486919E+03   -0.41267E-02   -0.41262E-02  7056   0.526E-02-0.194E-03
CGA:   7    -0.368235026539E+03   -0.15396E-02   -0.15382E-02  7056   0.192E-02 0.607E-04
CGA:   8    -0.368235705579E+03   -0.67904E-03   -0.68016E-03  7056   0.702E-03-0.155E-04
CGA:   9    -0.368235951219E+03   -0.24564E-03   -0.25460E-03  7056   0.258E-03-0.103E-03
CGA:  10    -0.368236012629E+03   -0.61410E-04   -0.61449E-04  7056   0.620E-04 0.997E-05
CGA:  11    -0.368236033088E+03   -0.20459E-04   -0.20329E-04  7056   0.245E-04 0.388E-05
CGA:  12    -0.368236044099E+03   -0.11011E-04   -0.11389E-04  7056   0.159E-04-0.247E-05
CGA:  13    -0.368235986729E+03    0.57370E-04   -0.31174E-04  7056   0.248E-03-0.538E-04
CGA:  14    -0.368236037978E+03   -0.51249E-04   -0.57620E-04  7056   0.335E-04 0.212E-04
CGA:  15    -0.368236055645E+03   -0.17667E-04   -0.17144E-04  7056   0.302E-04-0.114E-04
CGA:  16    -0.368236057888E+03   -0.22425E-05   -0.40068E-05  7056   0.134E-04 0.562E-05
  83 F= -.36823606E+03 E0= -.36823606E+03  d E =0.243810E-01  mag=    12.0000
       N       E                     dE             d eps       ncg     rms          ort
SDA:   1    -0.365439814318E+03    0.27962E+01    0.00000E+00  7056   0.677E+01 0.000E+00
CGA:   2    -0.367661351076E+03   -0.22215E+01   -0.22220E+01  7056   0.252E+01-0.223E-02
CGA:   3    -0.368142843145E+03   -0.48149E+00   -0.48190E+00  7056   0.482E+00-0.174E-02
CGA:   4    -0.368238708867E+03   -0.95866E-01   -0.96176E-01  7056   0.926E-01 0.879E-03
CGA:   5    -0.368261328760E+03   -0.22620E-01   -0.22623E-01  7056   0.229E-01-0.476E-05
CGA:   6    -0.368267644018E+03   -0.63153E-02   -0.62822E-02  7056   0.798E-02-0.213E-03
CGA:   7    -0.368270024361E+03   -0.23803E-02   -0.23868E-02  7056   0.314E-02 0.484E-04
CGA:   8    -0.368271134153E+03   -0.11098E-02   -0.11050E-02  7056   0.113E-02-0.652E-04
CGA:   9    -0.368271529358E+03   -0.39521E-03   -0.38809E-03  7056   0.366E-03-0.103E-03
CGA:  10    -0.368271627601E+03   -0.98242E-04   -0.99066E-04  7056   0.964E-04 0.693E-05
CGA:  11    -0.368271664454E+03   -0.36853E-04   -0.36780E-04  7056   0.467E-04-0.212E-05
CGA:  12    -0.368271684898E+03   -0.20444E-04   -0.20545E-04  7056   0.309E-04-0.244E-05
CGA:  13    -0.368271699183E+03   -0.14285E-04   -0.20145E-04  7056   0.509E-04-0.211E-04
CGA:  14    -0.368271704021E+03   -0.48381E-05   -0.84015E-05  7056   0.860E-05 0.137E-04
  84 F= -.36827170E+03 E0= -.36827170E+03  d E =-.356461E-01  mag=    12.0000
       N       E                     dE             d eps       ncg     rms          ort
SDA:   1    -0.367745843968E+03    0.52586E+00    0.00000E+00  7056   0.128E+01 0.000E+00
CGA:   2    -0.368136310450E+03   -0.39047E+00   -0.39054E+00  7056   0.576E+00 0.128E-03
CGA:   3    -0.368243261386E+03   -0.10695E+00   -0.10727E+00  7056   0.103E+00 0.574E-03
CGA:   4    -0.368264832336E+03   -0.21571E-01   -0.21481E-01  7056   0.199E-01-0.567E-03
CGA:   5    -0.368269648274E+03   -0.48159E-02   -0.48010E-02  7056   0.530E-02-0.114E-03
CGA:   6    -0.368271008808E+03   -0.13605E-02   -0.13720E-02  7056   0.171E-02 0.102E-03
CGA:   7    -0.368271553259E+03   -0.54445E-03   -0.54309E-03  7056   0.686E-03-0.254E-04
CGA:   8    -0.368271786132E+03   -0.23287E-03   -0.23271E-03  7056   0.236E-03-0.904E-05
CGA:   9    -0.368271850978E+03   -0.64846E-04   -0.66600E-04  7056   0.601E-04 0.231E-04
CGA:  10    -0.368271874440E+03   -0.23461E-04   -0.23454E-04  7056   0.230E-04-0.449E-05
CGA:  11    -0.368271882218E+03   -0.77786E-05   -0.77816E-05  7056   0.981E-05-0.348E-06
  85 F= -.36827188E+03 E0= -.36827188E+03  d E =-.178197E-03  mag=    12.0000
       N       E                     dE             d eps       ncg     rms          ort
SDA:   1    -0.368067361310E+03    0.20451E+00    0.00000E+00  7056   0.500E+00 0.000E+00
CGA:   2    -0.368229526733E+03   -0.16217E+00   -0.16220E+00  7056   0.168E+00 0.824E-03
CGA:   3    -0.368265932569E+03   -0.36406E-01   -0.36392E-01  7056   0.369E-01-0.205E-03
CGA:   4    -0.368273357521E+03   -0.74250E-02   -0.73860E-02  7056   0.800E-02-0.287E-03
CGA:   5    -0.368275299576E+03   -0.19421E-02   -0.19463E-02  7056   0.213E-02 0.408E-04
CGA:   6    -0.368275919378E+03   -0.61980E-03   -0.62150E-03  7056   0.775E-03 0.322E-04
CGA:   7    -0.368276169016E+03   -0.24964E-03   -0.24864E-03  7056   0.341E-03-0.428E-04
CGA:   8    -0.368276267634E+03   -0.98619E-04   -0.98824E-04  7056   0.965E-04 0.648E-05
CGA:   9    -0.368276294741E+03   -0.27107E-04   -0.27736E-04  7056   0.258E-04 0.115E-04
CGA:  10    -0.368276306047E+03   -0.11306E-04   -0.11718E-04  7056   0.139E-04-0.576E-05
CGA:  11    -0.368276309207E+03   -0.31601E-05   -0.32094E-05  7056   0.543E-05 0.121E-05
  86 F= -.36827631E+03 E0= -.36827631E+03  d E =-.442699E-02  mag=    12.0000
       N       E                     dE             d eps       ncg     rms          ort
SDA:   1    -0.368252744485E+03    0.23562E-01    0.00000E+00  7056   0.590E-01 0.000E+00
CGA:   2    -0.368270734727E+03   -0.17990E-01   -0.17996E-01  7056   0.250E-01 0.192E-03
CGA:   3    -0.368275669945E+03   -0.49352E-02   -0.49123E-02  7056   0.508E-02-0.208E-03
CGA:   4    -0.368276689794E+03   -0.10198E-02   -0.10227E-02  7056   0.976E-03 0.206E-04
CGA:   5    -0.368276928948E+03   -0.23915E-03   -0.24052E-03  7056   0.261E-03 0.188E-04
CGA:   6    -0.368277004649E+03   -0.75701E-04   -0.75585E-04  7056   0.101E-03-0.402E-05
CGA:   7    -0.368277028915E+03   -0.24266E-04   -0.25130E-04  7056   0.305E-04 0.144E-04
CGA:   8    -0.368277039732E+03   -0.10817E-04   -0.10811E-04  7056   0.113E-04 0.402E-05
CGA:   9    -0.368277040719E+03   -0.98779E-06   -0.10231E-04  7056   0.439E-04-0.189E-04
  87 F= -.36827704E+03 E0= -.36827704E+03  d E =-.731512E-03  mag=    12.0000
       N       E                     dE             d eps       ncg     rms          ort
SDA:   1    -0.368244644642E+03    0.32395E-01    0.00000E+00  7056   0.762E-01 0.000E+00
CGA:   2    -0.368267421707E+03   -0.22777E-01   -0.22802E-01  7056   0.296E-01 0.925E-03
CGA:   3    -0.368273505342E+03   -0.60836E-02   -0.60762E-02  7056   0.526E-02-0.877E-04
CGA:   4    -0.368274584358E+03   -0.10790E-02   -0.10436E-02  7056   0.107E-02-0.301E-03
CGA:   5    -0.368274813976E+03   -0.22962E-03   -0.22919E-03  7056   0.221E-03-0.514E-05
CGA:   6    -0.368274856176E+03   -0.42200E-04   -0.45986E-04  7056   0.566E-04 0.383E-04
CGA:   7    -0.368274874674E+03   -0.18498E-04   -0.18689E-04  7056   0.261E-04 0.906E-05
CGA:   8    -0.368274885772E+03   -0.11098E-04   -0.10975E-04  7056   0.146E-04 0.201E-05
CGA:   9    -0.368274889577E+03   -0.38049E-05   -0.40047E-05  7056   0.502E-05 0.396E-05
  88 F= -.36827489E+03 E0= -.36827489E+03  d E =0.215114E-02  mag=    12.0000
       N       E                     dE             d eps       ncg     rms          ort
SDA:   1    -0.363178652197E+03    0.50962E+01    0.00000E+00  7056   0.128E+02 0.000E+00
CGA:   2    -0.366971027485E+03   -0.37924E+01   -0.37927E+01  7056   0.517E+01 0.162E-01
CGA:   3    -0.368009886681E+03   -0.10389E+01   -0.10393E+01  7056   0.907E+00-0.156E-02
CGA:   4    -0.368182125010E+03   -0.17224E+00   -0.17179E+00  7056   0.165E+00-0.458E-02
CGA:   5    -0.368220791314E+03   -0.38666E-01   -0.38643E-01  7056   0.382E-01-0.390E-03
CGA:   6    -0.368230245419E+03   -0.94541E-02   -0.94767E-02  7056   0.121E-01 0.486E-03
CGA:   7    -0.368234024979E+03   -0.37796E-02   -0.37803E-02  7056   0.560E-02-0.446E-04
CGA:   8    -0.368236085436E+03   -0.20605E-02   -0.20696E-02  7056   0.272E-02-0.116E-03
CGA:   9    -0.368236968872E+03   -0.88344E-03   -0.88454E-03  7056   0.905E-03-0.316E-04
CGA:  10    -0.368237288926E+03   -0.32005E-03   -0.32681E-03  7056   0.359E-03-0.100E-03
CGA:  11    -0.368237407569E+03   -0.11864E-03   -0.11852E-03  7056   0.156E-03 0.165E-05
CGA:  12    -0.368237470812E+03   -0.63243E-04   -0.62462E-04  7056   0.805E-04 0.815E-05
CGA:  13    -0.368237495086E+03   -0.24274E-04   -0.24707E-04  7056   0.276E-04 0.241E-04
CGA:  14    -0.368237508578E+03   -0.13492E-04   -0.13341E-04  7056   0.118E-04 0.236E-05
CGA:  15    -0.368237511762E+03   -0.31837E-05   -0.11737E-04  7056   0.345E-04-0.143E-04
  89 F= -.36823751E+03 E0= -.36823751E+03  d E =0.373778E-01  mag=    12.0000
       N       E                     dE             d eps       ncg     rms          ort
SDA:   1    -0.350505302566E+03    0.17732E+02    0.00000E+00  7056   0.446E+02 0.000E+00
CGA:   2    -0.363791357854E+03   -0.13286E+02   -0.13291E+02  7056   0.175E+02 0.482E-01
CGA:   3    -0.367366837214E+03   -0.35755E+01   -0.35792E+01  7056   0.308E+01 0.681E-02
CGA:   4    -0.367948508221E+03   -0.58167E+00   -0.58092E+00  7056   0.581E+00-0.706E-02
CGA:   5    -0.368085586486E+03   -0.13708E+00   -0.13704E+00  7056   0.141E+00-0.594E-03
CGA:   6    -0.368121152530E+03   -0.35566E-01   -0.35601E-01  7056   0.482E-01 0.467E-03
CGA:   7    -0.368135977455E+03   -0.14825E-01   -0.14823E-01  7056   0.223E-01-0.391E-03
CGA:   8    -0.368143945869E+03   -0.79684E-02   -0.79907E-02  7056   0.103E-01-0.456E-03
CGA:   9    -0.368147286878E+03   -0.33410E-02   -0.33449E-02  7056   0.336E-02-0.231E-03
CGA:  10    -0.368148432063E+03   -0.11452E-02   -0.11541E-02  7056   0.124E-02-0.242E-03
CGA:  11    -0.368148869586E+03   -0.43752E-03   -0.43712E-03  7056   0.562E-03 0.584E-05
CGA:  12    -0.368149094058E+03   -0.22447E-03   -0.22080E-03  7056   0.276E-03 0.511E-04
CGA:  13    -0.368149192192E+03   -0.98134E-04   -0.97982E-04  7056   0.974E-04 0.638E-04
CGA:  14    -0.368149238041E+03   -0.45849E-04   -0.45284E-04  7056   0.375E-04 0.104E-04
CGA:  15    -0.368149256983E+03   -0.18942E-04   -0.18906E-04  7056   0.183E-04 0.260E-06
CGA:  16    -0.368149265211E+03   -0.82276E-05   -0.80477E-05  7056   0.963E-05 0.171E-05
  90 F= -.36814927E+03 E0= -.36814927E+03  d E =0.882466E-01  mag=    12.0000
       N       E                     dE             d eps       ncg     rms          ort
SDA:   1    -0.361120681644E+03    0.70286E+01    0.00000E+00  7056   0.180E+02 0.000E+00
CGA:   2    -0.366357709310E+03   -0.52370E+01   -0.52378E+01  7056   0.764E+01-0.859E-02
CGA:   3    -0.367867426106E+03   -0.15097E+01   -0.15116E+01  7056   0.136E+01 0.203E-02
CGA:   4    -0.368126512026E+03   -0.25909E+00   -0.25968E+00  7056   0.240E+00 0.389E-02
CGA:   5    -0.368183904814E+03   -0.57393E-01   -0.57406E-01  7056   0.584E-01 0.979E-04
CGA:   6    -0.368199112953E+03   -0.15208E-01   -0.15159E-01  7056   0.194E-01-0.875E-03
CGA:   7    -0.368205034478E+03   -0.59215E-02   -0.59201E-02  7056   0.845E-02-0.275E-03
CGA:   8    -0.368208081378E+03   -0.30469E-02   -0.30641E-02  7056   0.386E-02-0.324E-03
CGA:   9    -0.368209345239E+03   -0.12639E-02   -0.12702E-02  7056   0.132E-02-0.258E-03
CGA:  10    -0.368209726609E+03   -0.38137E-03   -0.38156E-03  7056   0.396E-03 0.219E-04
CGA:  11    -0.368209874563E+03   -0.14795E-03   -0.14695E-03  7056   0.180E-03 0.213E-04
CGA:  12    -0.368209950395E+03   -0.75833E-04   -0.73916E-04  7056   0.896E-04 0.278E-04
CGA:  13    -0.368209993368E+03   -0.42973E-04   -0.42190E-04  7056   0.403E-04 0.920E-05
CGA:  14    -0.368210003547E+03   -0.10179E-04   -0.11399E-04  7056   0.135E-04 0.171E-04
CGA:  15    -0.368210007315E+03   -0.37687E-05   -0.44639E-05  7056   0.548E-05 0.748E-05
  91 F= -.36821001E+03 E0= -.36821001E+03  d E =-.607421E-01  mag=    12.0000
       N       E                     dE             d eps       ncg     rms          ort
SDA:   1    -0.358634698671E+03    0.95753E+01    0.00000E+00  7056   0.246E+02 0.000E+00
CGA:   2    -0.365720623152E+03   -0.70859E+01   -0.71035E+01  7056   0.103E+02-0.145E-01
CGA:   3    -0.367781525615E+03   -0.20609E+01   -0.20687E+01  7056   0.185E+01 0.257E-01
CGA:   4    -0.368129826497E+03   -0.34830E+00   -0.34941E+00  7056   0.326E+00 0.400E-02
CGA:   5    -0.368207855655E+03   -0.78029E-01   -0.78114E-01  7056   0.803E-01 0.226E-03
CGA:   6    -0.368228587161E+03   -0.20732E-01   -0.20639E-01  7056   0.269E-01-0.406E-03
CGA:   7    -0.368237176079E+03   -0.85889E-02   -0.85336E-02  7056   0.123E-01-0.307E-03
CGA:   8    -0.368241742302E+03   -0.45662E-02   -0.45301E-02  7056   0.561E-02-0.294E-03
CGA:   9    -0.368243591234E+03   -0.18489E-02   -0.18302E-02  7056   0.181E-02-0.123E-03
CGA:  10    -0.368244171528E+03   -0.58029E-03   -0.58234E-03  7056   0.603E-03 0.129E-04
CGA:  11    -0.368244410676E+03   -0.23915E-03   -0.23919E-03  7056   0.303E-03 0.203E-06
CGA:  12    -0.368244531379E+03   -0.12070E-03   -0.12201E-03  7056   0.155E-03 0.194E-04
CGA:  13    -0.368244592636E+03   -0.61257E-04   -0.61705E-04  7056   0.666E-04 0.471E-05
CGA:  14    -0.368244610263E+03   -0.17627E-04   -0.19868E-04  7056   0.193E-04 0.130E-04
CGA:  15    -0.368244617623E+03   -0.73595E-05   -0.77669E-05  7056   0.720E-05 0.349E-05
  92 F= -.36824462E+03 E0= -.36824462E+03  d E =-.346103E-01  mag=    12.0000
       N       E                     dE             d eps       ncg     rms          ort
SDA:   1    -0.366814353625E+03    0.14303E+01    0.00000E+00  7056   0.351E+01 0.000E+00
CGA:   2    -0.367876570297E+03   -0.10622E+01   -0.10624E+01  7056   0.155E+01 0.256E-03
CGA:   3    -0.368166887304E+03   -0.29032E+00   -0.29087E+00  7056   0.278E+00 0.518E-03
CGA:   4    -0.368223869237E+03   -0.56982E-01   -0.56872E-01  7056   0.515E-01-0.700E-03
CGA:   5    -0.368236233470E+03   -0.12364E-01   -0.12358E-01  7056   0.135E-01-0.332E-04
CGA:   6    -0.368239762198E+03   -0.35287E-02   -0.35332E-02  7056   0.438E-02 0.246E-04
CGA:   7    -0.368241160074E+03   -0.13979E-02   -0.13854E-02  7056   0.181E-02-0.147E-03
CGA:   8    -0.368241745801E+03   -0.58573E-03   -0.58647E-03  7056   0.625E-03 0.116E-04
CGA:   9    -0.368241926666E+03   -0.18087E-03   -0.18551E-03  7056   0.169E-03 0.467E-04
CGA:  10    -0.368241996064E+03   -0.69397E-04   -0.69203E-04  7056   0.752E-04-0.256E-04
CGA:  11    -0.368242016590E+03   -0.20527E-04   -0.20785E-04  7056   0.290E-04 0.409E-05
CGA:  12    -0.368242024240E+03   -0.76494E-05   -0.85179E-05  7056   0.128E-04 0.815E-05
  93 F= -.36824202E+03 E0= -.36824202E+03  d E =0.259338E-02  mag=    12.0000
       N       E                     dE             d eps       ncg     rms          ort
SDA:   1    -0.365840953122E+03    0.24011E+01    0.00000E+00  7056   0.616E+01 0.000E+00
CGA:   2    -0.367596971909E+03   -0.17560E+01   -0.17571E+01  7056   0.253E+01 0.808E-02
CGA:   3    -0.368120291524E+03   -0.52332E+00   -0.52333E+00  7056   0.472E+00-0.251E-02
CGA:   4    -0.368209495841E+03   -0.89204E-01   -0.88857E-01  7056   0.839E-01-0.231E-02
CGA:   5    -0.368229364039E+03   -0.19868E-01   -0.19843E-01  7056   0.210E-01-0.241E-03
CGA:   6    -0.368234653449E+03   -0.52894E-02   -0.53099E-02  7056   0.702E-02 0.214E-03
CGA:   7    -0.368236810190E+03   -0.21567E-02   -0.21606E-02  7056   0.313E-02 0.104E-03
CGA:   8    -0.368237968571E+03   -0.11584E-02   -0.11589E-02  7056   0.146E-02-0.187E-04
CGA:   9    -0.368238465898E+03   -0.49733E-03   -0.49751E-03  7056   0.516E-03-0.647E-04
CGA:  10    -0.368238639235E+03   -0.17334E-03   -0.17382E-03  7056   0.190E-03-0.403E-04
CGA:  11    -0.368238708095E+03   -0.68860E-04   -0.69261E-04  7056   0.873E-04-0.743E-05
CGA:  12    -0.368238743817E+03   -0.35722E-04   -0.35951E-04  7056   0.453E-04-0.277E-05
CGA:  13    -0.368238758863E+03   -0.15046E-04   -0.15059E-04  7056   0.171E-04 0.265E-05
CGA:  14    -0.368238766079E+03   -0.72154E-05   -0.74387E-05  7056   0.841E-05-0.352E-05
  94 F= -.36823877E+03 E0= -.36823877E+03  d E =0.325816E-02  mag=    12.0000
       N       E                     dE             d eps       ncg     rms          ort
SDA:   1    -0.367989985751E+03    0.24877E+00    0.00000E+00  7056   0.599E+00 0.000E+00
CGA:   2    -0.368178983509E+03   -0.18900E+00   -0.18912E+00  7056   0.220E+00 0.220E-02
CGA:   3    -0.368223718254E+03   -0.44735E-01   -0.44689E-01  7056   0.408E-01-0.482E-03
CGA:   4    -0.368231736958E+03   -0.80187E-02   -0.79061E-02  7056   0.806E-02-0.718E-03
CGA:   5    -0.368233581707E+03   -0.18447E-02   -0.18463E-02  7056   0.185E-02 0.121E-04
CGA:   6    -0.368234022298E+03   -0.44059E-03   -0.45213E-03  7056   0.564E-03 0.115E-03
CGA:   7    -0.368234206850E+03   -0.18455E-03   -0.18487E-03  7056   0.259E-03 0.102E-04
CGA:   8    -0.368234299750E+03   -0.92900E-04   -0.92820E-04  7056   0.108E-03 0.532E-05
CGA:   9    -0.368234333153E+03   -0.33403E-04   -0.33697E-04  7056   0.324E-04 0.871E-05
CGA:  10    -0.368234347779E+03   -0.14626E-04   -0.16073E-04  7056   0.232E-04-0.118E-04
CGA:  11    -0.368234351681E+03   -0.39020E-05   -0.40091E-05  7056   0.108E-04 0.150E-05
  95 F= -.36823435E+03 E0= -.36823435E+03  d E =0.441440E-02  mag=    12.0000
       N       E                     dE             d eps       ncg     rms          ort
SDA:   1    -0.368199750137E+03    0.34598E-01    0.00000E+00  7056   0.832E-01 0.000E+00
CGA:   2    -0.368226802422E+03   -0.27052E-01   -0.27057E-01  7056   0.315E-01 0.389E-03
CGA:   3    -0.368232958324E+03   -0.61559E-02   -0.61563E-02  7056   0.606E-02-0.334E-04
CGA:   4    -0.368234200094E+03   -0.12418E-02   -0.12229E-02  7056   0.122E-02-0.154E-03
CGA:   5    -0.368234480334E+03   -0.28024E-03   -0.28150E-03  7056   0.291E-03 0.148E-04
CGA:   6    -0.368234558875E+03   -0.78542E-04   -0.78743E-04  7056   0.994E-04 0.394E-05
CGA:   7    -0.368234596594E+03   -0.37719E-04   -0.40248E-04  7056   0.743E-04-0.299E-04
CGA:   8    -0.368234607918E+03   -0.11324E-04   -0.11942E-04  7056   0.251E-04 0.692E-05
CGA:   9    -0.368234610667E+03   -0.27487E-05   -0.42601E-05  7056   0.902E-05 0.948E-05
  96 F= -.36823461E+03 E0= -.36823461E+03  d E =-.258986E-03  mag=    12.0000
       N       E                     dE             d eps       ncg     rms          ort
SDA:   1    -0.368220836768E+03    0.13771E-01    0.00000E+00  7056   0.319E-01 0.000E+00
CGA:   2    -0.368230114863E+03   -0.92781E-02   -0.92831E-02  7056   0.128E-01 0.584E-03
CGA:   3    -0.368232778546E+03   -0.26637E-02   -0.26467E-02  7056   0.252E-02-0.191E-03
CGA:   4    -0.368233299036E+03   -0.52049E-03   -0.50739E-03  7056   0.479E-03-0.147E-03
CGA:   5    -0.368233398999E+03   -0.99963E-04   -0.10079E-03  7056   0.106E-03 0.123E-04
CGA:   6    -0.368233421312E+03   -0.22313E-04   -0.23666E-04  7056   0.297E-04 0.194E-04
CGA:   7    -0.368233430359E+03   -0.90470E-05   -0.92136E-05  7056   0.128E-04 0.796E-05
  97 F= -.36823343E+03 E0= -.36823343E+03  d E =0.118031E-02  mag=    12.0000
