 vasp.6.1.2 22Jul20 (build Mar 19 2021 09:51:12) complex                        
  
 executed on             LinuxIFC date 2021.07.24  10:33:39
 running on   12 total cores
 distrk:  each k-point on   12 cores,    1 groups
 distr:  one band on NCORE=   4 cores,    3 groups


--------------------------------------------------------------------------------------------------------


 INCAR:
 POTCAR:    PAW_PBE Ca_sv 06Sep2000               
 POTCAR:    PAW_PBE Si 05Jan2001                  
 POTCAR:    PAW_PBE O 08Apr2002                   
 POTCAR:    PAW_PBE Ca_sv 06Sep2000               
   VRHFIN =Ca: 3s3p4s                                                                               
   LEXCH  = PE                                                                                      
   EATOM  =  1006.0909 eV,   73.9456 Ry                                                             
                                                                                                    
   TITEL  = PAW_PBE Ca_sv 06Sep2000                                                                 
   LULTRA =        F    use ultrasoft PP ?                                                          
   IUNSCR =        1    unscreen: 0-lin 1-nonlin 2-no                                               
   RPACOR =    2.000    partial core radius                                                         
   POMASS =   40.078; ZVAL   =   10.000    mass and valenz                                          
   RCORE  =    2.300    outmost cutoff radius                                                       
   RWIGS  =    2.500; RWIGS  =    1.323    wigner-seitz radius (au A)                               
   ENMAX  =  266.622; ENMIN  =  199.967 eV                                                          
   RCLOC  =    1.808    cutoff for local pot                                                        
   LCOR   =        T    correct aug charges                                                         
   LPAW   =        T    paw PP                                                                      
   EAUG   =  420.852                                                                                
   RMAX   =    2.359    core radius for proj-oper                                                   
   RAUG   =    1.300    factor for augmentation sphere                                              
   RDEP   =    2.392    radius for radial grids                                                     
   RDEPT  =    1.987    core radius for aug-charge                                                  
                                                                                                    
   Atomic configuration                                                                             
    7 entries                                                                                       
     n  l   j            E        occ.                                                              
     1  0  0.50     -3949.1705   2.0000                                                             
     2  0  0.50      -414.3434   2.0000                                                             
     2  1  1.50      -334.7047   6.0000                                                             
     3  0  0.50       -47.0896   2.0000                                                             
     4  0  0.50        -3.7663   2.0000                                                             
     3  1  1.50       -28.0061   6.0000                                                             
     3  2  1.50        -4.0817   0.0000                                                             
   Description                                                                                      
     l       E           TYP  RCUT    TYP  RCUT                                                     
     0    -47.0896403     23  2.300                                                                 
     0     -3.7663320     23  2.300                                                                 
     1    -28.0060855     23  2.300                                                                 
     1      6.8029130     23  2.300                                                                 
     2     -4.0817478     23  2.300                                                                 
     2      0.4464412     23  2.300                                                                 
  local pseudopotential read in
  partial core-charges read in
  partial kinetic energy density read in
  atomic valenz-charges read in
  non local Contribution for L=           0  read in
    real space projection operators read in
  non local Contribution for L=           0  read in
    real space projection operators read in
  non local Contribution for L=           1  read in
    real space projection operators read in
  non local Contribution for L=           1  read in
    real space projection operators read in
  non local Contribution for L=           2  read in
    real space projection operators read in
  non local Contribution for L=           2  read in
    real space projection operators read in
    PAW grid and wavefunctions read in
 
   number of l-projection  operators is LMAX  =           6
   number of lm-projection operators is LMMAX =          18
 
 POTCAR:    PAW_PBE Si 05Jan2001                  
   VRHFIN =Si: s2p2                                                                                 
   LEXCH  = PE                                                                                      
   EATOM  =   103.0669 eV,    7.5752 Ry                                                             
                                                                                                    
   TITEL  = PAW_PBE Si 05Jan2001                                                                    
   LULTRA =        F    use ultrasoft PP ?                                                          
   IUNSCR =        1    unscreen: 0-lin 1-nonlin 2-no                                               
   RPACOR =    1.500    partial core radius                                                         
   POMASS =   28.085; ZVAL   =    4.000    mass and valenz                                          
   RCORE  =    1.900    outmost cutoff radius                                                       
   RWIGS  =    2.480; RWIGS  =    1.312    wigner-seitz radius (au A)                               
   ENMAX  =  245.345; ENMIN  =  184.009 eV                                                          
   ICORE  =        2    local potential                                                             
   LCOR   =        T    correct aug charges                                                         
   LPAW   =        T    paw PP                                                                      
   EAUG   =  322.069                                                                                
   DEXC   =    0.000                                                                                
   RMAX   =    1.950    core radius for proj-oper                                                   
   RAUG   =    1.300    factor for augmentation sphere                                              
   RDEP   =    1.993    radius for radial grids                                                     
   RDEPT  =    1.837    core radius for aug-charge                                                  
                                                                                                    
   Atomic configuration                                                                             
    6 entries                                                                                       
     n  l   j            E        occ.                                                              
     1  0  0.50     -1785.8828   2.0000                                                             
     2  0  0.50      -139.4969   2.0000                                                             
     2  1  1.50       -95.5546   6.0000                                                             
     3  0  0.50       -10.8127   2.0000                                                             
     3  1  0.50        -4.0811   2.0000                                                             
     3  2  1.50        -4.0817   0.0000                                                             
   Description                                                                                      
     l       E           TYP  RCUT    TYP  RCUT                                                     
     0    -10.8127223     23  1.900                                                                 
     0     -7.6451159     23  1.900                                                                 
     1     -4.0811372     23  1.900                                                                 
     1      2.4879257     23  1.900                                                                 
     2     -4.0817478      7  1.900                                                                 
  local pseudopotential read in
  partial core-charges read in
  partial kinetic energy density read in
  atomic valenz-charges read in
  non local Contribution for L=           0  read in
    real space projection operators read in
  non local Contribution for L=           0  read in
    real space projection operators read in
  non local Contribution for L=           1  read in
    real space projection operators read in
  non local Contribution for L=           1  read in
    real space projection operators read in
    PAW grid and wavefunctions read in
 
   number of l-projection  operators is LMAX  =           4
   number of lm-projection operators is LMMAX =           8
 
 POTCAR:    PAW_PBE O 08Apr2002                   
   VRHFIN =O: s2p4                                                                                  
   LEXCH  = PE                                                                                      
   EATOM  =   432.3788 eV,   31.7789 Ry                                                             
                                                                                                    
   TITEL  = PAW_PBE O 08Apr2002                                                                     
   LULTRA =        F    use ultrasoft PP ?                                                          
   IUNSCR =        1    unscreen: 0-lin 1-nonlin 2-no                                               
   RPACOR =    1.200    partial core radius                                                         
   POMASS =   16.000; ZVAL   =    6.000    mass and valenz                                          
   RCORE  =    1.520    outmost cutoff radius                                                       
   RWIGS  =    1.550; RWIGS  =    0.820    wigner-seitz radius (au A)                               
   ENMAX  =  400.000; ENMIN  =  300.000 eV                                                          
   ICORE  =        2    local potential                                                             
   LCOR   =        T    correct aug charges                                                         
   LPAW   =        T    paw PP                                                                      
   EAUG   =  605.392                                                                                
   DEXC   =    0.000                                                                                
   RMAX   =    1.553    core radius for proj-oper                                                   
   RAUG   =    1.300    factor for augmentation sphere                                              
   RDEP   =    1.550    radius for radial grids                                                     
   RDEPT  =    1.329    core radius for aug-charge                                                  
                                                                                                    
   Atomic configuration                                                                             
    4 entries                                                                                       
     n  l   j            E        occ.                                                              
     1  0  0.50      -514.6923   2.0000                                                             
     2  0  0.50       -23.9615   2.0000                                                             
     2  1  0.50        -9.0305   4.0000                                                             
     3  2  1.50        -9.5241   0.0000                                                             
   Description                                                                                      
     l       E           TYP  RCUT    TYP  RCUT                                                     
     0    -23.9615318     23  1.200                                                                 
     0     -9.5240782     23  1.200                                                                 
     1     -9.0304911     23  1.520                                                                 
     1      8.1634956     23  1.520                                                                 
     2     -9.5240782      7  1.500                                                                 
  local pseudopotential read in
  partial core-charges read in
  partial kinetic energy density read in
  kinetic energy density of atom read in
  atomic valenz-charges read in
  non local Contribution for L=           0  read in
    real space projection operators read in
  non local Contribution for L=           0  read in
    real space projection operators read in
  non local Contribution for L=           1  read in
    real space projection operators read in
  non local Contribution for L=           1  read in
    real space projection operators read in
    PAW grid and wavefunctions read in
 
   number of l-projection  operators is LMAX  =           4
   number of lm-projection operators is LMMAX =           8
 
 Optimization of the real space projectors (new method)

 maximal supplied QI-value         = 16.25
 optimisation between [QCUT,QGAM] = [ 11.54, 23.24] = [ 37.28,151.24] Ry 
 Optimized for a Real-space Cutoff    1.58 Angstroem

   l    n(q)    QCUT    max X(q) W(low)/X(q) W(high)/X(q)  e(spline) 
   0     11    11.539    11.817    0.25E-04    0.22E-05    0.26E-07
   0     11    11.539     8.461    0.39E-04    0.49E-05    0.55E-07
   1     11    11.539     3.957    0.21E-05    0.44E-05    0.32E-07
   1     11    11.539     4.314    0.56E-04    0.44E-04    0.19E-06
   2     10    11.539    14.565    0.25E-03    0.21E-04    0.75E-06
   2     10    11.539    14.552    0.23E-03    0.22E-04    0.72E-06
 Optimization of the real space projectors (new method)

 maximal supplied QI-value         = 19.84
 optimisation between [QCUT,QGAM] = [ 11.51, 23.22] = [ 37.09,150.92] Ry 
 Optimized for a Real-space Cutoff    1.21 Angstroem

   l    n(q)    QCUT    max X(q) W(low)/X(q) W(high)/X(q)  e(spline) 
   0      8    11.508   159.560    0.71E-04    0.15E-03    0.51E-07
   0      8    11.508   115.863    0.70E-04    0.15E-03    0.51E-07
   1      8    11.508    88.339    0.16E-03    0.38E-04    0.82E-07
   1      8    11.508    48.592    0.15E-03    0.36E-04    0.79E-07
 Optimization of the real space projectors (new method)

 maximal supplied QI-value         = 24.76
 optimisation between [QCUT,QGAM] = [ 11.64, 23.27] = [ 37.91,151.63] Ry 
 Optimized for a Real-space Cutoff    1.14 Angstroem

   l    n(q)    QCUT    max X(q) W(low)/X(q) W(high)/X(q)  e(spline) 
   0      8    11.635    20.381    0.10E-03    0.33E-03    0.24E-06
   0      8    11.635    15.268    0.11E-03    0.35E-03    0.26E-06
   1      7    11.635     5.964    0.24E-03    0.31E-03    0.30E-06
   1      7    11.635     5.382    0.22E-03    0.25E-03    0.26E-06
  PAW_PBE Ca_sv 06Sep2000               :
 energy of atom  1       EATOM=-1006.0909
 kinetic energy error for atom=    0.0022 (will be added to EATOM!!)
  PAW_PBE Si 05Jan2001                  :
 energy of atom  2       EATOM= -103.0669
 kinetic energy error for atom=    0.0005 (will be added to EATOM!!)
  PAW_PBE O 08Apr2002                   :
 energy of atom  3       EATOM= -432.3788
 kinetic energy error for atom=    0.0208 (will be added to EATOM!!)
 
 
 POSCAR: Ca4 Si8 O20
  positions in direct lattice
  velocities in cartesian coordinates

 METAGGA = SCAN     LMAXTAU =  6    LMIXTAU =  F

 exchange correlation table for  LEXCH =        8
   RHO(1)=    0.500       N(1)  =     2000
   RHO(2)=  100.500       N(2)  =     4000
 


--------------------------------------------------------------------------------------------------------


 ion  position               nearest neighbor table
   1  0.458  0.320  0.818-  21 2.30  30 2.36  19 2.40  16 2.45  17 2.45  31 2.46  24 2.48  15 2.50
                            11 2.98  10 3.12
   2  0.542  0.680  0.182-  22 2.30  29 2.36  20 2.40  15 2.45  18 2.45  32 2.46  23 2.48  16 2.50
                            12 2.98   9 3.12
   3  0.029  0.214  0.612-  19 2.31  27 2.35  30 2.40  13 2.45  14 2.47  17 2.56  11 3.04
   4  0.971  0.786  0.388-  20 2.31  28 2.35  29 2.40  14 2.45  13 2.47  18 2.56  12 3.04
   5  0.500  0.000  0.500-  27 1.74  28 1.74  30 1.79  29 1.79  32 1.84  31 1.84  12 3.04  11 3.04

   6  1.000  0.500  0.000-  22 1.75  21 1.75  25 1.79  26 1.79  18 1.86  17 1.86   9 3.07  10 3.07

   7  0.247  0.778  0.800-  27 1.67  21 1.69  23 1.69  15 1.77  13 1.82  10 3.04  11 3.11
   8  0.753  0.222  0.200-  28 1.67  22 1.69  24 1.69  16 1.77  14 1.82   9 3.04  12 3.11
   9  0.198  0.070  0.126-  32 1.61  14 1.63  17 1.63  23 1.64   8 3.04   6 3.07   2 3.12
  10  0.802  0.930  0.874-  31 1.61  13 1.63  18 1.63  24 1.64   7 3.04   6 3.07   1 3.12
  11  0.683  0.579  0.658-  19 1.60  15 1.63  29 1.63  26 1.64   1 2.98   3 3.04   5 3.04   7 3.11

  12  0.317  0.421  0.342-  20 1.60  16 1.63  30 1.63  25 1.64   2 2.98   4 3.04   5 3.04   8 3.11

  13  0.996  0.901  0.718-  10 1.63   7 1.82   3 2.45   4 2.47
  14  0.004  0.099  0.282-   9 1.63   8 1.82   4 2.45   3 2.47
  15  0.498  0.634  0.827-  11 1.63   7 1.77   2 2.45   1 2.50
  16  0.502  0.366  0.173-  12 1.63   8 1.77   1 2.45   2 2.50
  17  0.156  0.256  0.949-   9 1.63   6 1.86   1 2.45   3 2.56
  18  0.844  0.744  0.051-  10 1.63   6 1.86   2 2.45   4 2.56
  19  0.698  0.388  0.570-  11 1.60   3 2.31   1 2.40
  20  0.302  0.612  0.430-  12 1.60   4 2.31   2 2.40
  21  0.189  0.581  0.885-   7 1.69   6 1.75   1 2.30
  22  0.811  0.419  0.115-   8 1.69   6 1.75   2 2.30
  23  0.224  0.877  0.022-   9 1.64   7 1.69   2 2.48
  24  0.776  0.123  0.978-  10 1.64   8 1.69   1 2.48
  25  0.101  0.460  0.251-  12 1.64   6 1.79
  26  0.899  0.540  0.749-  11 1.64   6 1.79
  27  0.305  0.934  0.620-   7 1.67   5 1.74   3 2.35
  28  0.695  0.066  0.380-   8 1.67   5 1.74   4 2.35
  29  0.652  0.759  0.475-  11 1.63   5 1.79   2 2.36   4 2.40
  30  0.348  0.241  0.525-  12 1.63   5 1.79   1 2.36   3 2.40
  31  0.600  0.984  0.754-  10 1.61   5 1.84   1 2.46
  32  0.400  0.016  0.246-   9 1.61   5 1.84   2 2.46
 

IMPORTANT INFORMATION: All symmetrisations will be switched off!
NOSYMM: (Re-)initialisation of all symmetry stuff for point group C_1.


----------------------------------------------------------------------------------------

                                     Primitive cell                                     

  volume of cell :     329.6373

  direct lattice vectors                    reciprocal lattice vectors
     7.212224119  0.001438276  0.654329449     0.138666300 -0.050178612 -0.000030972
     2.540500225  7.019864833  1.120092558    -0.000039315  0.142447930  0.000120227
    -0.000534328 -0.005495109  6.510585447    -0.013929532 -0.019463921  0.153578447

  length of vectors
     7.241845472  7.548990065  6.510587788     0.147466054  0.142447986  0.155432350

  position of ions in fractional coordinates (direct lattice)
     0.458303000  0.319616471  0.818332915
     0.541696538  0.680383239  0.181667328
     0.028546903  0.214494589  0.611641227
     0.971450324  0.785506029  0.388360584
     0.499999425  0.000000410  0.499999795
     0.999999964  0.499999911  0.000000244
     0.246617562  0.778321215  0.800155382
     0.753382779  0.221678734  0.199844543
     0.198429578  0.070160934  0.125684400
     0.801570415  0.929839143  0.874315606
     0.683403310  0.579246853  0.658472405
     0.316596833  0.420753036  0.341527445
     0.996082285  0.900580345  0.717568692
     0.003917810  0.099420196  0.282431259
     0.497988864  0.634254034  0.826514340
     0.502011646  0.365745966  0.173485655
     0.156351322  0.255793226  0.949199774
     0.843649372  0.744206820  0.050800104
     0.698370610  0.387983424  0.569638919
     0.301630461  0.612016469  0.430360409
     0.189127916  0.581139666  0.885110632
     0.810872461  0.418860077  0.114889451
     0.224338666  0.877447047  0.021796261
     0.775661219  0.122553114  0.978203592
     0.100740849  0.459767174  0.250550287
     0.899259830  0.540231482  0.749449344
     0.305166429  0.933754289  0.619613547
     0.694833414  0.066245879  0.380386271
     0.651513514  0.758971438  0.475151132
     0.348486453  0.241028784  0.524848934
     0.600419707  0.984162914  0.754113374
     0.399580542  0.015837092  0.245886146

  ion indices of the primitive-cell ions
   primitive index   ion index
                 1           1
                 2           2
                 3           3
                 4           4
                 5           5
                 6           6
                 7           7
                 8           8
                 9           9
                10          10
                11          11
                12          12
                13          13
                14          14
                15          15
                16          16
                17          17
                18          18
                19          19
                20          20
                21          21
                22          22
                23          23
                24          24
                25          25
                26          26
                27          27
                28          28
                29          29
                30          30
                31          31
                32          32

----------------------------------------------------------------------------------------

 
 
 KPOINTS: K-points file                           

Automatic generation of k-mesh.
Space group operators:
 irot       det(A)        alpha          n_x          n_y          n_z        tau_x        tau_y        tau_z
    1     1.000000     0.000001     1.000000     0.000000     0.000000     0.000000     0.000000     0.000000
 
 Subroutine IBZKPT returns following result:
 ===========================================
 
 Found     63 irreducible k-points:
 
 Following reciprocal coordinates:
            Coordinates               Weight
  0.000000  0.000000  0.000000      1.000000
  0.200000 -0.000000  0.000000      2.000000
  0.400000 -0.000000  0.000000      2.000000
 -0.000000  0.200000 -0.000000      2.000000
  0.200000  0.200000 -0.000000      2.000000
  0.400000  0.200000 -0.000000      2.000000
 -0.400000  0.200000  0.000000      2.000000
 -0.200000  0.200000  0.000000      2.000000
 -0.000000  0.400000  0.000000      2.000000
  0.200000  0.400000  0.000000      2.000000
  0.400000  0.400000  0.000000      2.000000
 -0.400000  0.400000 -0.000000      2.000000
 -0.200000  0.400000 -0.000000      2.000000
  0.000000  0.000000  0.200000      2.000000
  0.200000  0.000000  0.200000      2.000000
  0.400000 -0.000000  0.200000      2.000000
 -0.400000 -0.000000  0.200000      2.000000
 -0.200000  0.000000  0.200000      2.000000
  0.000000  0.200000  0.200000      2.000000
  0.200000  0.200000  0.200000      2.000000
  0.400000  0.200000  0.200000      2.000000
 -0.400000  0.200000  0.200000      2.000000
 -0.200000  0.200000  0.200000      2.000000
 -0.000000  0.400000  0.200000      2.000000
  0.200000  0.400000  0.200000      2.000000
  0.400000  0.400000  0.200000      2.000000
 -0.400000  0.400000  0.200000      2.000000
 -0.200000  0.400000  0.200000      2.000000
 -0.000000 -0.400000  0.200000      2.000000
  0.200000 -0.400000  0.200000      2.000000
  0.400000 -0.400000  0.200000      2.000000
 -0.400000 -0.400000  0.200000      2.000000
 -0.200000 -0.400000  0.200000      2.000000
  0.000000 -0.200000  0.200000      2.000000
  0.200000 -0.200000  0.200000      2.000000
  0.400000 -0.200000  0.200000      2.000000
 -0.400000 -0.200000  0.200000      2.000000
 -0.200000 -0.200000  0.200000      2.000000
  0.000000  0.000000  0.400000      2.000000
  0.200000  0.000000  0.400000      2.000000
  0.400000  0.000000  0.400000      2.000000
 -0.400000 -0.000000  0.400000      2.000000
 -0.200000  0.000000  0.400000      2.000000
 -0.000000  0.200000  0.400000      2.000000
  0.200000  0.200000  0.400000      2.000000
  0.400000  0.200000  0.400000      2.000000
 -0.400000  0.200000  0.400000      2.000000
 -0.200000  0.200000  0.400000      2.000000
 -0.000000  0.400000  0.400000      2.000000
  0.200000  0.400000  0.400000      2.000000
  0.400000  0.400000  0.400000      2.000000
 -0.400000  0.400000  0.400000      2.000000
 -0.200000  0.400000  0.400000      2.000000
 -0.000000 -0.400000  0.400000      2.000000
  0.200000 -0.400000  0.400000      2.000000
  0.400000 -0.400000  0.400000      2.000000
 -0.400000 -0.400000  0.400000      2.000000
 -0.200000 -0.400000  0.400000      2.000000
 -0.000000 -0.200000  0.400000      2.000000
  0.200000 -0.200000  0.400000      2.000000
  0.400000 -0.200000  0.400000      2.000000
 -0.400000 -0.200000  0.400000      2.000000
 -0.200000 -0.200000  0.400000      2.000000
 
 Following cartesian coordinates:
            Coordinates               Weight
  0.000000  0.000000  0.000000      1.000000
  0.027733 -0.010036 -0.000006      2.000000
  0.055467 -0.020071 -0.000012      2.000000
 -0.000008  0.028490  0.000024      2.000000
  0.027725  0.018454  0.000018      2.000000
  0.055459  0.008418  0.000012      2.000000
 -0.055474  0.048561  0.000036      2.000000
 -0.027741  0.038525  0.000030      2.000000
 -0.000016  0.056979  0.000048      2.000000
  0.027718  0.046943  0.000042      2.000000
  0.055451  0.036908  0.000036      2.000000
 -0.055482  0.077051  0.000060      2.000000
 -0.027749  0.067015  0.000054      2.000000
 -0.002786 -0.003893  0.030716      2.000000
  0.024947 -0.013929  0.030709      2.000000
  0.052681 -0.023964  0.030703      2.000000
 -0.058252  0.016179  0.030728      2.000000
 -0.030519  0.006143  0.030722      2.000000
 -0.002794  0.024597  0.030740      2.000000
  0.024939  0.014561  0.030734      2.000000
  0.052673  0.004525  0.030727      2.000000
 -0.058260  0.044668  0.030752      2.000000
 -0.030527  0.034633  0.030746      2.000000
 -0.002802  0.053086  0.030764      2.000000
  0.024932  0.043051  0.030758      2.000000
  0.052665  0.033015  0.030751      2.000000
 -0.058268  0.073158  0.030776      2.000000
 -0.030535  0.063122  0.030770      2.000000
 -0.002770 -0.060872  0.030668      2.000000
  0.024963 -0.070908  0.030661      2.000000
  0.052696 -0.080943  0.030655      2.000000
 -0.058237 -0.040801  0.030680      2.000000
 -0.030503 -0.050836  0.030674      2.000000
 -0.002778 -0.032382  0.030692      2.000000
  0.024955 -0.042418  0.030685      2.000000
  0.052688 -0.052454  0.030679      2.000000
 -0.058245 -0.012311  0.030704      2.000000
 -0.030511 -0.022347  0.030698      2.000000
 -0.005572 -0.007786  0.061431      2.000000
  0.022161 -0.017821  0.061425      2.000000
  0.049895 -0.027857  0.061419      2.000000
 -0.061038  0.012286  0.061444      2.000000
 -0.033305  0.002250  0.061438      2.000000
 -0.005580  0.020704  0.061455      2.000000
  0.022154  0.010668  0.061449      2.000000
  0.049887  0.000633  0.061443      2.000000
 -0.061046  0.040775  0.061468      2.000000
 -0.033313  0.030740  0.061462      2.000000
 -0.005588  0.049194  0.061479      2.000000
  0.022146  0.039158  0.061473      2.000000
  0.049879  0.029122  0.061467      2.000000
 -0.061054  0.069265  0.061492      2.000000
 -0.033321  0.059229  0.061486      2.000000
 -0.005556 -0.064765  0.061383      2.000000
  0.022177 -0.074800  0.061377      2.000000
  0.049910 -0.084836  0.061371      2.000000
 -0.061023 -0.044693  0.061396      2.000000
 -0.033289 -0.054729  0.061389      2.000000
 -0.005564 -0.036275  0.061407      2.000000
  0.022169 -0.046311  0.061401      2.000000
  0.049903 -0.056347  0.061395      2.000000
 -0.061030 -0.016204  0.061420      2.000000
 -0.033297 -0.026239  0.061414      2.000000
 


--------------------------------------------------------------------------------------------------------




 Dimension of arrays:
   k-points           NKPTS =     63   k-points in BZ     NKDIM =     63   number of bands    NBANDS=    117
   number of dos      NEDOS =    301   number of ions     NIONS =     32
   non local maximal  LDIM  =      6   non local SUM 2l+1 LMDIM =     18
   total plane-waves  NPLWV = 145152
   max r-space proj   IRMAX =   7322   max aug-charges    IRDMAX=  21206
   dimension x,y,z NGX =    54 NGY =   56 NGZ =   48
   dimension x,y,z NGXF=   108 NGYF=  112 NGZF=   96
   support grid    NGXF=   108 NGYF=  112 NGZF=   96
   ions per type =               4   8  20
   NGX,Y,Z   is equivalent  to a cutoff of  12.40, 12.33, 12.26 a.u.
   NGXF,Y,Z  is equivalent  to a cutoff of  24.79, 24.66, 24.51 a.u.

 SYSTEM =  unknown system                          
 POSCAR =  Ca4 Si8 O20                             

 Startparameter for this run:
   NWRITE =      2    write-flag & timer
   PREC   = accura    normal or accurate (medium, high low for compatibility)
   ISTART =      0    job   : 0-new  1-cont  2-samecut
   ICHARG =      1    charge: 1-file 2-atom 10-const
   ISPIN  =      2    spin polarized calculation?
   LNONCOLLINEAR =      F non collinear calculations
   LSORBIT =      F    spin-orbit coupling
   INIWAV =      1    electr: 0-lowe 1-rand  2-diag
   LASPH  =      T    aspherical Exc in radial PAW
   METAGGA=      F    non-selfconsistent MetaGGA calc.

 Electronic Relaxation 1
   ENCUT  =  520.0 eV  38.22 Ry    6.18 a.u.  13.47 14.04 12.11*2*pi/ulx,y,z
   ENINI  =  520.0     initial cutoff
   ENAUG  =  605.4 eV  augmentation charge cutoff
   NELM   =    100;   NELMIN=  6; NELMDL= -5     # of ELM steps 
   EDIFF  = 0.1E-04   stopping-criterion for ELM
   LREAL  =      T    real-space projection
   NLSPLINE    = F    spline interpolate recip. space projectors
   LCOMPAT=      F    compatible to vasp.4.4
   GGA_COMPAT  = T    GGA compatible to vasp.4.4-vasp.4.6
   LMAXPAW     = -100 max onsite density
   LMAXMIX     =    4 max onsite mixed and CHGCAR
   VOSKOWN=      0    Vosko Wilk Nusair interpolation
   ROPT   =   -0.00025  -0.00025  -0.00025
 Ionic relaxation
   EDIFFG = -.3E-01   stopping-criterion for IOM
   NSW    =     99    number of steps for IOM
   NBLOCK =      1;   KBLOCK =     99    inner block; outer block 
   IBRION =      2    ionic relax: 0-MD 1-quasi-New 2-CG
   NFREE  =      1    steps in history (QN), initial steepest desc. (CG)
   ISIF   =      3    stress and relaxation
   IWAVPR =     11    prediction:  0-non 1-charg 2-wave 3-comb
   ISYM   =      0    0-nonsym 1-usesym 2-fastsym
   LCORR  =      T    Harris-Foulkes like correction to forces

   POTIM  = 0.5000    time-step for ionic-motion
   TEIN   =    0.0    initial temperature
   TEBEG  =    0.0;   TEEND  =   0.0 temperature during run
   SMASS  =  -3.00    Nose mass-parameter (am)
   estimated Nose-frequenzy (Omega)   =  0.10E-29 period in steps = 0.13E+47 mass=  -0.120E-26a.u.
   SCALEE = 1.0000    scale energy and forces
   NPACO  =    256;   APACO  = 16.0  distance and # of slots for P.C.
   PSTRESS=    0.0 pullay stress

  Mass of Ions in am
   POMASS =  40.08 28.09 16.00
  Ionic Valenz
   ZVAL   =  10.00  4.00  6.00
  Atomic Wigner-Seitz radii
   RWIGS  =  -1.00 -1.00 -1.00
  virtual crystal weights 
   VCA    =   1.00  1.00  1.00
   NELECT =     192.0000    total number of electrons
   NUPDOWN=      -1.0000    fix difference up-down

 DOS related values:
   EMIN   =  10.00;   EMAX   =-10.00  energy-range for DOS
   EFERMI =   0.00
   ISMEAR =     0;   SIGMA  =   0.05  broadening in eV -4-tet -1-fermi 0-gaus

 Electronic relaxation 2 (details)
   IALGO  =     38    algorithm
   LDIAG  =      T    sub-space diagonalisation (order eigenvalues)
   LSUBROT=      F    optimize rotation matrix (better conditioning)
   TURBO    =      0    0=normal 1=particle mesh
   IRESTART =      0    0=no restart 2=restart with 2 vectors
   NREBOOT  =      0    no. of reboots
   NMIN     =      0    reboot dimension
   EREF     =   0.00    reference energy to select bands
   IMIX   =      4    mixing-type and parameters
     AMIX     =   0.40;   BMIX     =  1.00
     AMIX_MAG =   1.60;   BMIX_MAG =  1.00
     AMIN     =   0.10
     WC   =   100.;   INIMIX=   1;  MIXPRE=   1;  MAXMIX= -45

 Intra band minimization:
   WEIMIN = 0.0010     energy-eigenvalue tresh-hold
   EBREAK =  0.21E-07  absolut break condition
   DEPER  =   0.30     relativ break condition  

   TIME   =   0.40     timestep for ELM

  volume/ion in A,a.u.               =      10.30        69.52
  Fermi-wavevector in a.u.,A,eV,Ry     =   1.367193  2.583620 25.432233  1.869216
  Thomas-Fermi vector in A             =   2.493267
 
 Write flags
   LWAVE        =      F    write WAVECAR
   LDOWNSAMPLE  =      F    k-point downsampling of WAVECAR
   LCHARG       =      T    write CHGCAR
   LVTOT        =      F    write LOCPOT, total local potential
   LVHAR        =      F    write LOCPOT, Hartree potential only
   LELF         =      F    write electronic localiz. function (ELF)
   LORBIT       =     11    0 simple, 1 ext, 2 COOP (PROOUT), +10 PAW based schemes


 Dipole corrections
   LMONO  =      F    monopole corrections only (constant potential shift)
   LDIPOL =      F    correct potential (dipole corrections)
   IDIPOL =      0    1-x, 2-y, 3-z, 4-all directions 
   EPSILON=  1.0000000 bulk dielectric constant

 LDA+U is selected, type is set to LDAUTYPE =  2
   angular momentum for each species LDAUL =    -1   -1   -1
   U (eV)           for each species LDAUU =   0.0  0.0  0.0
   J (eV)           for each species LDAUJ =   0.0  0.0  0.0
 Exchange correlation treatment:
   GGA     =    --    GGA type
   LEXCH   =     8    internal setting for exchange type
   VOSKOWN=      0    Vosko Wilk Nusair interpolation
   LHFCALC =     F    Hartree Fock is set to
   LHFONE  =     F    Hartree Fock one center treatment
   AEXX    =    0.0000 exact exchange contribution

 Linear response parameters
   LEPSILON=     F    determine dielectric tensor
   LRPA    =     F    only Hartree local field effects (RPA)
   LNABLA  =     F    use nabla operator in PAW spheres
   LVEL    =     F    velocity operator in full k-point grid
   LINTERFAST=   F  fast interpolation
   KINTER  =     0    interpolate to denser k-point grid
   CSHIFT  =0.1000    complex shift for real part using Kramers Kronig
   OMEGAMAX=  -1.0    maximum frequency
   DEG_THRESHOLD= 0.2000000E-02 threshold for treating states as degnerate
   RTIME   =   -0.100 relaxation time in fs
  (WPLASMAI=    0.000 imaginary part of plasma frequency in eV, 0.658/RTIME)
   DFIELD  = 0.0000000 0.0000000 0.0000000 field for delta impulse in time
 
 Orbital magnetization related:
   ORBITALMAG=     F  switch on orbital magnetization
   LCHIMAG   =     F  perturbation theory with respect to B field
   DQ        =  0.001000  dq finite difference perturbation B field
   LLRAUG    =     F  two centre corrections for induced B field



--------------------------------------------------------------------------------------------------------


 conjugate gradient relaxation of ions
 charge density and potential will be updated during run
 spin polarized calculation
 Variant of blocked Davidson
 Davidson routine will perform the subspace rotation
 perform sub-space diagonalisation
    after iterative eigenvector-optimisation
 modified Broyden-mixing scheme, WC =      100.0
 initial mixing is a Kerker type mixing with AMIX =  0.4000 and BMIX =      1.0000
 Hartree-type preconditioning will be used
 using additional bands           21
 real space projection scheme for non local part
 use partial core corrections
 calculate Harris-corrections to forces 
   (improved forces if not selfconsistent)
 use gradient corrections 
 use of overlap-Matrix (Vanderbilt PP)
 Gauss-broadening in eV      SIGMA  =   0.05


--------------------------------------------------------------------------------------------------------


  energy-cutoff  :      520.00
  volume of cell :      329.64
      direct lattice vectors                 reciprocal lattice vectors
     7.212224119  0.001438276  0.654329449     0.138666300 -0.050178612 -0.000030972
     2.540500225  7.019864833  1.120092558    -0.000039315  0.142447930  0.000120227
    -0.000534328 -0.005495109  6.510585447    -0.013929532 -0.019463921  0.153578447

  length of vectors
     7.241845472  7.548990065  6.510587788     0.147466054  0.142447986  0.155432350


 
 k-points in units of 2pi/SCALE and weight: K-points file                           
   0.00000000  0.00000000  0.00000000       0.008
   0.02773326 -0.01003572 -0.00000619       0.016
   0.05546652 -0.02007144 -0.00001239       0.016
  -0.00000786  0.02848959  0.00002405       0.016
   0.02772540  0.01845386  0.00001785       0.016
   0.05545866  0.00841814  0.00001166       0.016
  -0.05547438  0.04856103  0.00003643       0.016
  -0.02774112  0.03852531  0.00003024       0.016
  -0.00001573  0.05697917  0.00004809       0.016
   0.02771753  0.04694345  0.00004190       0.016
   0.05545079  0.03690773  0.00003570       0.016
  -0.05548225  0.07705062  0.00006048       0.016
  -0.02774899  0.06701489  0.00005428       0.016
  -0.00278591 -0.00389278  0.03071569       0.016
   0.02494735 -0.01392851  0.03070950       0.016
   0.05268061 -0.02396423  0.03070330       0.016
  -0.05825243  0.01617866  0.03072808       0.016
  -0.03051917  0.00614294  0.03072188       0.016
  -0.00279377  0.02459680  0.03073973       0.016
   0.02493949  0.01456108  0.03073354       0.016
   0.05267275  0.00452536  0.03072735       0.016
  -0.05826029  0.04466825  0.03075212       0.016
  -0.03052703  0.03463252  0.03074593       0.016
  -0.00280163  0.05308639  0.03076378       0.016
   0.02493163  0.04305067  0.03075759       0.016
   0.05266489  0.03301494  0.03075139       0.016
  -0.05826815  0.07315783  0.03077617       0.016
  -0.03053489  0.06312211  0.03076997       0.016
  -0.00277018 -0.06087196  0.03066760       0.016
   0.02496308 -0.07090768  0.03066140       0.016
   0.05269634 -0.08094340  0.03065521       0.016
  -0.05823670 -0.04080051  0.03067999       0.016
  -0.03050344 -0.05083623  0.03067379       0.016
  -0.00277804 -0.03238237  0.03069164       0.016
   0.02495522 -0.04241809  0.03068545       0.016
   0.05268848 -0.05245382  0.03067926       0.016
  -0.05824456 -0.01231093  0.03070403       0.016
  -0.03051130 -0.02234665  0.03069784       0.016
  -0.00557181 -0.00778557  0.06143138       0.016
   0.02216145 -0.01782129  0.06142518       0.016
   0.04989471 -0.02785701  0.06141899       0.016
  -0.06103833  0.01228588  0.06144377       0.016
  -0.03330507  0.00225015  0.06143757       0.016
  -0.00557968  0.02070402  0.06145542       0.016
   0.02215358  0.01066830  0.06144923       0.016
   0.04988684  0.00063257  0.06144304       0.016
  -0.06104620  0.04077546  0.06146781       0.016
  -0.03331294  0.03073974  0.06146162       0.016
  -0.00558754  0.04919360  0.06147947       0.016
   0.02214572  0.03915788  0.06147328       0.016
   0.04987898  0.02912216  0.06146708       0.016
  -0.06105406  0.06926505  0.06149186       0.016
  -0.03332080  0.05922933  0.06148566       0.016
  -0.00555609 -0.06476474  0.06138329       0.016
   0.02217717 -0.07480046  0.06137709       0.016
   0.04991043 -0.08483619  0.06137090       0.016
  -0.06102261 -0.04469330  0.06139568       0.016
  -0.03328935 -0.05472902  0.06138948       0.016
  -0.00556395 -0.03627515  0.06140733       0.016
   0.02216931 -0.04631088  0.06140114       0.016
   0.04990257 -0.05634660  0.06139494       0.016
  -0.06103047 -0.01620371  0.06141972       0.016
  -0.03329721 -0.02623943  0.06141353       0.016
 
 k-points in reciprocal lattice and weights: K-points file                           
   0.00000000  0.00000000  0.00000000       0.008
   0.20000000 -0.00000000  0.00000000       0.016
   0.40000000 -0.00000000  0.00000000       0.016
  -0.00000000  0.20000000 -0.00000000       0.016
   0.20000000  0.20000000 -0.00000000       0.016
   0.40000000  0.20000000 -0.00000000       0.016
  -0.40000000  0.20000000  0.00000000       0.016
  -0.20000000  0.20000000  0.00000000       0.016
  -0.00000000  0.40000000  0.00000000       0.016
   0.20000000  0.40000000  0.00000000       0.016
   0.40000000  0.40000000  0.00000000       0.016
  -0.40000000  0.40000000 -0.00000000       0.016
  -0.20000000  0.40000000 -0.00000000       0.016
   0.00000000  0.00000000  0.20000000       0.016
   0.20000000  0.00000000  0.20000000       0.016
   0.40000000 -0.00000000  0.20000000       0.016
  -0.40000000 -0.00000000  0.20000000       0.016
  -0.20000000  0.00000000  0.20000000       0.016
   0.00000000  0.20000000  0.20000000       0.016
   0.20000000  0.20000000  0.20000000       0.016
   0.40000000  0.20000000  0.20000000       0.016
  -0.40000000  0.20000000  0.20000000       0.016
  -0.20000000  0.20000000  0.20000000       0.016
  -0.00000000  0.40000000  0.20000000       0.016
   0.20000000  0.40000000  0.20000000       0.016
   0.40000000  0.40000000  0.20000000       0.016
  -0.40000000  0.40000000  0.20000000       0.016
  -0.20000000  0.40000000  0.20000000       0.016
  -0.00000000 -0.40000000  0.20000000       0.016
   0.20000000 -0.40000000  0.20000000       0.016
   0.40000000 -0.40000000  0.20000000       0.016
  -0.40000000 -0.40000000  0.20000000       0.016
  -0.20000000 -0.40000000  0.20000000       0.016
   0.00000000 -0.20000000  0.20000000       0.016
   0.20000000 -0.20000000  0.20000000       0.016
   0.40000000 -0.20000000  0.20000000       0.016
  -0.40000000 -0.20000000  0.20000000       0.016
  -0.20000000 -0.20000000  0.20000000       0.016
   0.00000000  0.00000000  0.40000000       0.016
   0.20000000  0.00000000  0.40000000       0.016
   0.40000000  0.00000000  0.40000000       0.016
  -0.40000000 -0.00000000  0.40000000       0.016
  -0.20000000  0.00000000  0.40000000       0.016
  -0.00000000  0.20000000  0.40000000       0.016
   0.20000000  0.20000000  0.40000000       0.016
   0.40000000  0.20000000  0.40000000       0.016
  -0.40000000  0.20000000  0.40000000       0.016
  -0.20000000  0.20000000  0.40000000       0.016
  -0.00000000  0.40000000  0.40000000       0.016
   0.20000000  0.40000000  0.40000000       0.016
   0.40000000  0.40000000  0.40000000       0.016
  -0.40000000  0.40000000  0.40000000       0.016
  -0.20000000  0.40000000  0.40000000       0.016
  -0.00000000 -0.40000000  0.40000000       0.016
   0.20000000 -0.40000000  0.40000000       0.016
   0.40000000 -0.40000000  0.40000000       0.016
  -0.40000000 -0.40000000  0.40000000       0.016
  -0.20000000 -0.40000000  0.40000000       0.016
  -0.00000000 -0.20000000  0.40000000       0.016
   0.20000000 -0.20000000  0.40000000       0.016
   0.40000000 -0.20000000  0.40000000       0.016
  -0.40000000 -0.20000000  0.40000000       0.016
  -0.20000000 -0.20000000  0.40000000       0.016
 
 position of ions in fractional coordinates (direct lattice) 
   0.45830300  0.31961647  0.81833292
   0.54169654  0.68038324  0.18166733
   0.02854690  0.21449459  0.61164123
   0.97145032  0.78550603  0.38836058
   0.49999942  0.00000041  0.49999980
   0.99999996  0.49999991  0.00000024
   0.24661756  0.77832121  0.80015538
   0.75338278  0.22167873  0.19984454
   0.19842958  0.07016093  0.12568440
   0.80157041  0.92983914  0.87431561
   0.68340331  0.57924685  0.65847241
   0.31659683  0.42075304  0.34152745
   0.99608228  0.90058034  0.71756869
   0.00391781  0.09942020  0.28243126
   0.49798886  0.63425403  0.82651434
   0.50201165  0.36574597  0.17348565
   0.15635132  0.25579323  0.94919977
   0.84364937  0.74420682  0.05080010
   0.69837061  0.38798342  0.56963892
   0.30163046  0.61201647  0.43036041
   0.18912792  0.58113967  0.88511063
   0.81087246  0.41886008  0.11488945
   0.22433867  0.87744705  0.02179626
   0.77566122  0.12255311  0.97820359
   0.10074085  0.45976717  0.25055029
   0.89925983  0.54023148  0.74944934
   0.30516643  0.93375429  0.61961355
   0.69483341  0.06624588  0.38038627
   0.65151351  0.75897144  0.47515113
   0.34848645  0.24102878  0.52484893
   0.60041971  0.98416291  0.75411337
   0.39958054  0.01583709  0.24588615
 
 position of ions in cartesian coordinates  (Angst):
   4.11693241  2.23982676  5.98570755
   5.63525354  4.77597920  2.29930086
   0.75048340  1.50240304  4.24107535
   9.00168819  5.51340928  4.04394278
   3.60584179 -0.00202554  3.58245620
   8.48247374  3.51137006  1.21437719
   3.75555880  5.45966749  6.24264092
   5.99663354  1.55614015  2.04236621
   1.60929530  0.49211502  1.02670408
   8.14289486  6.52369352  7.25830349
   6.40008275  4.06359916  5.38302186
   3.35210801  2.95220807  2.90198459
   9.47150983  6.31944181  6.33229160
   0.28068224  0.69636998  1.95271620
   5.20248819  4.44855205  6.41736424
   4.54970551  2.56725595  1.86764352
   1.77697634  1.79064279  6.56866360
   7.97521880  5.22516553  1.71634357
   6.02217296  2.72146541  4.60022466
   3.73002451  4.29434184  3.68477900
   2.83994543  4.07493014  6.53727058
   6.91224665  2.94087606  1.74773737
   3.84712351  6.15976256  1.27151973
   5.90506608  0.85604658  7.01348688
   1.89447031  3.22627151  2.21212855
   7.85772119  3.78952706  6.07287545
   4.57280058  6.55186296  5.27961755
   5.17938873  0.46394621  3.00538880
   6.62677470  5.32620296  4.36993478
   3.12541564  1.68960660  3.91507333
   6.83022465  6.90541026  6.40494541
   2.92196717  0.11039778  1.88005909
 


--------------------------------------------------------------------------------------------------------


 k-point   1 :   0.0000 0.0000 0.0000  plane waves:    8879
 k-point   2 :   0.2000-0.0000 0.0000  plane waves:    8853
 k-point   3 :   0.4000-0.0000 0.0000  plane waves:    8848
 k-point   4 :  -0.0000 0.2000-0.0000  plane waves:    8865
 k-point   5 :   0.2000 0.2000-0.0000  plane waves:    8875
 k-point   6 :   0.4000 0.2000-0.0000  plane waves:    8858
 k-point   7 :  -0.4000 0.2000 0.0000  plane waves:    8866
 k-point   8 :  -0.2000 0.2000 0.0000  plane waves:    8862
 k-point   9 :  -0.0000 0.4000 0.0000  plane waves:    8881
 k-point  10 :   0.2000 0.4000 0.0000  plane waves:    8886
 k-point  11 :   0.4000 0.4000 0.0000  plane waves:    8884
 k-point  12 :  -0.4000 0.4000-0.0000  plane waves:    8875
 k-point  13 :  -0.2000 0.4000-0.0000  plane waves:    8884
 k-point  14 :   0.0000 0.0000 0.2000  plane waves:    8875
 k-point  15 :   0.2000 0.0000 0.2000  plane waves:    8875
 k-point  16 :   0.4000-0.0000 0.2000  plane waves:    8864
 k-point  17 :  -0.4000-0.0000 0.2000  plane waves:    8856
 k-point  18 :  -0.2000 0.0000 0.2000  plane waves:    8864
 k-point  19 :   0.0000 0.2000 0.2000  plane waves:    8865
 k-point  20 :   0.2000 0.2000 0.2000  plane waves:    8877
 k-point  21 :   0.4000 0.2000 0.2000  plane waves:    8874
 k-point  22 :  -0.4000 0.2000 0.2000  plane waves:    8874
 k-point  23 :  -0.2000 0.2000 0.2000  plane waves:    8871
 k-point  24 :  -0.0000 0.4000 0.2000  plane waves:    8894
 k-point  25 :   0.2000 0.4000 0.2000  plane waves:    8878
 k-point  26 :   0.4000 0.4000 0.2000  plane waves:    8868
 k-point  27 :  -0.4000 0.4000 0.2000  plane waves:    8875
 k-point  28 :  -0.2000 0.4000 0.2000  plane waves:    8880
 k-point  29 :  -0.0000-0.4000 0.2000  plane waves:    8872
 k-point  30 :   0.2000-0.4000 0.2000  plane waves:    8890
 k-point  31 :   0.4000-0.4000 0.2000  plane waves:    8878
 k-point  32 :  -0.4000-0.4000 0.2000  plane waves:    8877
 k-point  33 :  -0.2000-0.4000 0.2000  plane waves:    8862
 k-point  34 :   0.0000-0.2000 0.2000  plane waves:    8885
 k-point  35 :   0.2000-0.2000 0.2000  plane waves:    8873
 k-point  36 :   0.4000-0.2000 0.2000  plane waves:    8872
 k-point  37 :  -0.4000-0.2000 0.2000  plane waves:    8865
 k-point  38 :  -0.2000-0.2000 0.2000  plane waves:    8885
 k-point  39 :   0.0000 0.0000 0.4000  plane waves:    8890
 k-point  40 :   0.2000 0.0000 0.4000  plane waves:    8884
 k-point  41 :   0.4000 0.0000 0.4000  plane waves:    8866
 k-point  42 :  -0.4000-0.0000 0.4000  plane waves:    8863
 k-point  43 :  -0.2000 0.0000 0.4000  plane waves:    8878
 k-point  44 :  -0.0000 0.2000 0.4000  plane waves:    8882
 k-point  45 :   0.2000 0.2000 0.4000  plane waves:    8882
 k-point  46 :   0.4000 0.2000 0.4000  plane waves:    8874
 k-point  47 :  -0.4000 0.2000 0.4000  plane waves:    8875
 k-point  48 :  -0.2000 0.2000 0.4000  plane waves:    8902
 k-point  49 :  -0.0000 0.4000 0.4000  plane waves:    8891
 k-point  50 :   0.2000 0.4000 0.4000  plane waves:    8891
 k-point  51 :   0.4000 0.4000 0.4000  plane waves:    8883
 k-point  52 :  -0.4000 0.4000 0.4000  plane waves:    8875
 k-point  53 :  -0.2000 0.4000 0.4000  plane waves:    8890
 k-point  54 :  -0.0000-0.4000 0.4000  plane waves:    8890
 k-point  55 :   0.2000-0.4000 0.4000  plane waves:    8907
 k-point  56 :   0.4000-0.4000 0.4000  plane waves:    8883
 k-point  57 :  -0.4000-0.4000 0.4000  plane waves:    8875
 k-point  58 :  -0.2000-0.4000 0.4000  plane waves:    8874
 k-point  59 :  -0.0000-0.2000 0.4000  plane waves:    8884
 k-point  60 :   0.2000-0.2000 0.4000  plane waves:    8891
 k-point  61 :   0.4000-0.2000 0.4000  plane waves:    8875
 k-point  62 :  -0.4000-0.2000 0.4000  plane waves:    8878
 k-point  63 :  -0.2000-0.2000 0.4000  plane waves:    8882

 maximum and minimum number of plane-waves per node :      2261     2176

 maximum number of plane-waves:      8907
 maximum index in each direction: 
   IXMAX=   13   IYMAX=   14   IZMAX=   12
   IXMIN=  -13   IYMIN=  -14   IZMIN=  -12


 real space projection operators:
  total allocation   :       8889.72 KBytes
  max/ min on nodes  :       2312.92       2132.42


 parallel 3D FFT for wavefunctions:
    minimum data exchange during FFTs selected (reduces bandwidth)
 parallel 3D FFT for charge:
    minimum data exchange during FFTs selected (reduces bandwidth)


 total amount of memory used by VASP MPI-rank0   240956. kBytes
=======================================================================

   base      :      30000. kBytes
   nonlr-proj:       6823. kBytes
   fftplans  :       4444. kBytes
   grid      :      15697. kBytes
   one-center:        248. kBytes
   wavefun   :     183744. kBytes
 
     INWAV:  cpu time    0.0000: real time    0.0000
 Broyden mixing: mesh for mixing (old mesh)
   NGX = 27   NGY = 29   NGZ = 25
  (NGX  =108   NGY  =112   NGZ  = 96)
  gives a total of  19575 points

 initial charge density was supplied:
 number of electron     191.9999989 magnetization      -0.0000000
 keeping initial charge density in first step


--------------------------------------------------------------------------------------------------------


 Maximum index for non-local projection operator         1981
 Maximum index for augmentation-charges         1781 (set IRDMAX)


--------------------------------------------------------------------------------------------------------


 First call to EWALD:  gamma=   0.257
 Maximum number of real-space cells 3x 3x 3
 Maximum number of reciprocal cells 3x 3x 3

    FEWALD:  cpu time    0.0012: real time    0.0012


--------------------------------------- Iteration      1(   1)  ---------------------------------------


    POTLOK:  cpu time    0.3742: real time    0.3742
    SETDIJ:  cpu time    1.7586: real time    1.7587
     EDDAV:  cpu time  225.9957: real time  226.0127
       DOS:  cpu time    0.0108: real time    0.0108
    --------------------------------------------
      LOOP:  cpu time  228.1394: real time  228.1564

 eigenvalue-minimisations  : 29511
 total energy-change (2. order) : 0.1508035E+04  (-0.1019449E+05)
 number of electron     191.9999989 magnetization      -0.0000000
 augmentation part      191.9999989 magnetization      -0.0000000

 Free energy of the ion-electron system (eV)
  ---------------------------------------------------
  alpha Z        PSCENC =       604.76932017
  Ewald energy   TEWEN  =    -10808.31144161
  -Hartree energ DENC   =     -3306.87183207
  -exchange      EXHF   =         0.00000000
  -V(xc)+E(xc)   XCENC  =       845.72785058
  PAW double counting   =     27570.89686930   -27579.28206684
  entropy T*S    EENTRO =        -0.00729474
  eigenvalues    EBANDS =       685.06878682
  atomic energy  EATOM  =     13496.04525282
  Solvation  Ediel_sol  =         0.00000000
  ---------------------------------------------------
  free energy    TOTEN  =      1508.03544443 eV

  energy without entropy =     1508.04273917  energy(sigma->0) =     1508.03909180


--------------------------------------------------------------------------------------------------------




--------------------------------------- Iteration      1(   2)  ---------------------------------------


     EDDAV:  cpu time  255.3254: real time  255.3505
       DOS:  cpu time    0.0035: real time    0.0035
    --------------------------------------------
      LOOP:  cpu time  255.3288: real time  255.3539

 eigenvalue-minimisations  : 35712
 total energy-change (2. order) :-0.1762227E+04  (-0.1702710E+04)
 number of electron     191.9999989 magnetization      -0.0000000
 augmentation part      191.9999989 magnetization      -0.0000000

 Free energy of the ion-electron system (eV)
  ---------------------------------------------------
  alpha Z        PSCENC =       604.76932017
  Ewald energy   TEWEN  =    -10808.31144161
  -Hartree energ DENC   =     -3306.87183207
  -exchange      EXHF   =         0.00000000
  -V(xc)+E(xc)   XCENC  =       845.72785058
  PAW double counting   =     27570.89686930   -27579.28206684
  entropy T*S    EENTRO =        -0.00000000
  eigenvalues    EBANDS =     -1077.16535219
  atomic energy  EATOM  =     13496.04525282
  Solvation  Ediel_sol  =         0.00000000
  ---------------------------------------------------
  free energy    TOTEN  =      -254.19139984 eV

  energy without entropy =     -254.19139984  energy(sigma->0) =     -254.19139984


--------------------------------------------------------------------------------------------------------




--------------------------------------- Iteration      1(   3)  ---------------------------------------


     EDDAV:  cpu time  255.1337: real time  255.1496
       DOS:  cpu time    0.0037: real time    0.0037
    --------------------------------------------
      LOOP:  cpu time  255.1374: real time  255.1533

 eigenvalue-minimisations  : 35667
 total energy-change (2. order) :-0.1457518E+03  (-0.1447164E+03)
 number of electron     191.9999989 magnetization      -0.0000000
 augmentation part      191.9999989 magnetization      -0.0000000

 Free energy of the ion-electron system (eV)
  ---------------------------------------------------
  alpha Z        PSCENC =       604.76932017
  Ewald energy   TEWEN  =    -10808.31144161
  -Hartree energ DENC   =     -3306.87183207
  -exchange      EXHF   =         0.00000000
  -V(xc)+E(xc)   XCENC  =       845.72785058
  PAW double counting   =     27570.89686930   -27579.28206684
  entropy T*S    EENTRO =        -0.00000000
  eigenvalues    EBANDS =     -1222.91719630
  atomic energy  EATOM  =     13496.04525282
  Solvation  Ediel_sol  =         0.00000000
  ---------------------------------------------------
  free energy    TOTEN  =      -399.94324395 eV

  energy without entropy =     -399.94324395  energy(sigma->0) =     -399.94324395


--------------------------------------------------------------------------------------------------------




--------------------------------------- Iteration      1(   4)  ---------------------------------------


     EDDAV:  cpu time  312.7398: real time  312.7585
       DOS:  cpu time    0.0036: real time    0.0035
    --------------------------------------------
      LOOP:  cpu time  312.7433: real time  312.7620

 eigenvalue-minimisations  : 48186
 total energy-change (2. order) :-0.6275199E+01  (-0.6256533E+01)
 number of electron     191.9999989 magnetization      -0.0000000
 augmentation part      191.9999989 magnetization      -0.0000000

 Free energy of the ion-electron system (eV)
  ---------------------------------------------------
  alpha Z        PSCENC =       604.76932017
  Ewald energy   TEWEN  =    -10808.31144161
  -Hartree energ DENC   =     -3306.87183207
  -exchange      EXHF   =         0.00000000
  -V(xc)+E(xc)   XCENC  =       845.72785058
  PAW double counting   =     27570.89686930   -27579.28206684
  entropy T*S    EENTRO =        -0.00000000
  eigenvalues    EBANDS =     -1229.19239578
  atomic energy  EATOM  =     13496.04525282
  Solvation  Ediel_sol  =         0.00000000
  ---------------------------------------------------
  free energy    TOTEN  =      -406.21844344 eV

  energy without entropy =     -406.21844344  energy(sigma->0) =     -406.21844344


--------------------------------------------------------------------------------------------------------




--------------------------------------- Iteration      1(   5)  ---------------------------------------


     EDDAV:  cpu time  300.1084: real time  300.1505
       DOS:  cpu time    0.0033: real time    0.0033
    CHARGE:  cpu time   29.1685: real time   29.1703
    MIXING:  cpu time    0.0072: real time    0.0072
    --------------------------------------------
      LOOP:  cpu time  329.2875: real time  329.3313

 eigenvalue-minimisations  : 45423
 total energy-change (2. order) :-0.3450431E+00  (-0.3449310E+00)
 number of electron     191.9999989 magnetization       0.0000000
 augmentation part       21.5574085 magnetization       0.0026053

 Broyden mixing:
  rms(total) = 0.43927E+00    rms(broyden)= 0.43906E+00
  rms(prec ) = 0.64486E+00
  weight for this iteration     100.00

 Free energy of the ion-electron system (eV)
  ---------------------------------------------------
  alpha Z        PSCENC =       604.76932017
  Ewald energy   TEWEN  =    -10808.31144161
  -Hartree energ DENC   =     -3306.87183207
  -exchange      EXHF   =         0.00000000
  -V(xc)+E(xc)   XCENC  =       845.72785058
  PAW double counting   =     27570.89686930   -27579.28206684
  entropy T*S    EENTRO =        -0.00000000
  eigenvalues    EBANDS =     -1229.53743890
  atomic energy  EATOM  =     13496.04525282
  Solvation  Ediel_sol  =         0.00000000
  ---------------------------------------------------
  free energy    TOTEN  =      -406.56348655 eV

  energy without entropy =     -406.56348655  energy(sigma->0) =     -406.56348655


--------------------------------------------------------------------------------------------------------




--------------------------------------- Iteration      1(   6)  ---------------------------------------


    POTLOK:  cpu time    0.3986: real time    0.3986
    SETDIJ:  cpu time    2.1056: real time    2.1056
     EDDAV:  cpu time  242.2345: real time  242.2525
       DOS:  cpu time    0.0035: real time    0.0035
    CHARGE:  cpu time   28.6336: real time   28.6355
    MIXING:  cpu time    0.0072: real time    0.0072
    --------------------------------------------
      LOOP:  cpu time  273.3830: real time  273.4029

 eigenvalue-minimisations  : 32400
 total energy-change (2. order) : 0.6244151E+02  (-0.1897190E+01)
 number of electron     191.9999988 magnetization       0.0000000
 augmentation part       22.9125955 magnetization       0.0009133

 Broyden mixing:
  rms(total) = 0.36455E+00    rms(broyden)= 0.36414E+00
  rms(prec ) = 0.53017E+00
  weight for this iteration     100.00

 eigenvalues of (default mixing * dielectric matrix)
  average eigenvalue GAMMA=   0.5474
  0.5474

 Free energy of the ion-electron system (eV)
  ---------------------------------------------------
  alpha Z        PSCENC =       604.76932017
  Ewald energy   TEWEN  =    -10808.31144161
  -Hartree energ DENC   =     -3266.28688227
  -exchange      EXHF   =         0.00000000
  -V(xc)+E(xc)   XCENC  =       868.03638129
  PAW double counting   =     27768.50422171   -27773.99605570
  entropy T*S    EENTRO =        -0.00000000
  eigenvalues    EBANDS =     -1232.88276899
  atomic energy  EATOM  =     13496.04525282
  Solvation  Ediel_sol  =         0.00000000
  ---------------------------------------------------
  free energy    TOTEN  =      -344.12197260 eV

  energy without entropy =     -344.12197260  energy(sigma->0) =     -344.12197260


--------------------------------------------------------------------------------------------------------




--------------------------------------- Iteration      1(   7)  ---------------------------------------


    POTLOK:  cpu time    0.3964: real time    0.3964
    SETDIJ:  cpu time    2.0895: real time    2.0896
     EDDAV:  cpu time  282.3834: real time  282.4496
       DOS:  cpu time    0.0036: real time    0.0036
    CHARGE:  cpu time   28.7711: real time   28.7727
    MIXING:  cpu time    0.0079: real time    0.0079
    --------------------------------------------
      LOOP:  cpu time  313.6518: real time  313.7196

 eigenvalue-minimisations  : 41400
 total energy-change (2. order) : 0.1181022E+00  (-0.1046225E+00)
 number of electron     191.9999988 magnetization       0.0000000
 augmentation part       22.9151035 magnetization       0.0003489

 Broyden mixing:
  rms(total) = 0.22098E+00    rms(broyden)= 0.22098E+00
  rms(prec ) = 0.32490E+00
  weight for this iteration     100.00

 eigenvalues of (default mixing * dielectric matrix)
  average eigenvalue GAMMA=   0.5648
  0.5648  0.5648

 Free energy of the ion-electron system (eV)
  ---------------------------------------------------
  alpha Z        PSCENC =       604.76932017
  Ewald energy   TEWEN  =    -10808.31144161
  -Hartree energ DENC   =     -3284.76944583
  -exchange      EXHF   =         0.00000000
  -V(xc)+E(xc)   XCENC  =       872.07981570
  PAW double counting   =     27682.10477225   -27687.93850674
  entropy T*S    EENTRO =        -0.00000000
  eigenvalues    EBANDS =     -1217.98363714
  atomic energy  EATOM  =     13496.04525282
  Solvation  Ediel_sol  =         0.00000000
  ---------------------------------------------------
  free energy    TOTEN  =      -344.00387037 eV

  energy without entropy =     -344.00387037  energy(sigma->0) =     -344.00387037


--------------------------------------------------------------------------------------------------------




--------------------------------------- Iteration      1(   8)  ---------------------------------------


    POTLOK:  cpu time    0.3969: real time    0.3969
    SETDIJ:  cpu time    2.0859: real time    2.0859
     EDDAV:  cpu time  273.7667: real time  273.7877
       DOS:  cpu time    0.0033: real time    0.0033
    CHARGE:  cpu time   28.8698: real time   28.8717
    MIXING:  cpu time    0.0075: real time    0.0075
    --------------------------------------------
      LOOP:  cpu time  305.1301: real time  305.1530

 eigenvalue-minimisations  : 39528
 total energy-change (2. order) : 0.6988401E-01  (-0.9381904E-02)
 number of electron     191.9999988 magnetization       0.0000000
 augmentation part       22.8836885 magnetization       0.0001232

 Broyden mixing:
  rms(total) = 0.14938E+00    rms(broyden)= 0.14938E+00
  rms(prec ) = 0.21970E+00
  weight for this iteration     100.00

 eigenvalues of (default mixing * dielectric matrix)
  average eigenvalue GAMMA=   0.7590
  0.6130  0.8320  0.8320

 Free energy of the ion-electron system (eV)
  ---------------------------------------------------
  alpha Z        PSCENC =       604.76932017
  Ewald energy   TEWEN  =    -10808.31144161
  -Hartree energ DENC   =     -3291.70841939
  -exchange      EXHF   =         0.00000000
  -V(xc)+E(xc)   XCENC  =       872.14901115
  PAW double counting   =     27714.22728818   -27720.60102323
  entropy T*S    EENTRO =        -0.00000000
  eigenvalues    EBANDS =     -1210.50397444
  atomic energy  EATOM  =     13496.04525282
  Solvation  Ediel_sol  =         0.00000000
  ---------------------------------------------------
  free energy    TOTEN  =      -343.93398635 eV

  energy without entropy =     -343.93398635  energy(sigma->0) =     -343.93398635


--------------------------------------------------------------------------------------------------------




--------------------------------------- Iteration      1(   9)  ---------------------------------------


    POTLOK:  cpu time    0.3951: real time    0.3952
    SETDIJ:  cpu time    2.0865: real time    2.0866
     EDDAV:  cpu time  256.0556: real time  256.0739
       DOS:  cpu time    0.0035: real time    0.0035
    CHARGE:  cpu time   29.0125: real time   29.0145
    MIXING:  cpu time    0.0076: real time    0.0076
    --------------------------------------------
      LOOP:  cpu time  287.5608: real time  287.5813

 eigenvalue-minimisations  : 35703
 total energy-change (2. order) : 0.3514479E-01  (-0.3821524E-02)
 number of electron     191.9999988 magnetization       0.0000000
 augmentation part       22.8484464 magnetization       0.0000868

 Broyden mixing:
  rms(total) = 0.95138E-01    rms(broyden)= 0.95133E-01
  rms(prec ) = 0.13992E+00
  weight for this iteration     100.00

 eigenvalues of (default mixing * dielectric matrix)
  average eigenvalue GAMMA=   0.8071
  0.9978  0.9978  0.6164  0.6164

 Free energy of the ion-electron system (eV)
  ---------------------------------------------------
  alpha Z        PSCENC =       604.76932017
  Ewald energy   TEWEN  =    -10808.31144161
  -Hartree energ DENC   =     -3296.88789761
  -exchange      EXHF   =         0.00000000
  -V(xc)+E(xc)   XCENC  =       872.26088240
  PAW double counting   =     27703.55385081   -27710.54387332
  entropy T*S    EENTRO =        -0.00000000
  eigenvalues    EBANDS =     -1204.78493522
  atomic energy  EATOM  =     13496.04525282
  Solvation  Ediel_sol  =         0.00000000
  ---------------------------------------------------
  free energy    TOTEN  =      -343.89884157 eV

  energy without entropy =     -343.89884157  energy(sigma->0) =     -343.89884157


--------------------------------------------------------------------------------------------------------




--------------------------------------- Iteration      1(  10)  ---------------------------------------


    POTLOK:  cpu time    0.3952: real time    0.3952
    SETDIJ:  cpu time    2.0845: real time    2.0846
     EDDAV:  cpu time  254.1033: real time  254.1324
       DOS:  cpu time    0.0035: real time    0.0035
    CHARGE:  cpu time   28.6917: real time   28.6931
    MIXING:  cpu time    0.0079: real time    0.0079
    --------------------------------------------
      LOOP:  cpu time  285.2860: real time  285.3166

 eigenvalue-minimisations  : 35289
 total energy-change (2. order) : 0.1206254E-01  (-0.9043455E-03)
 number of electron     191.9999989 magnetization       0.0000000
 augmentation part       22.8299919 magnetization       0.0001074

 Broyden mixing:
  rms(total) = 0.69927E-01    rms(broyden)= 0.69925E-01
  rms(prec ) = 0.10262E+00
  weight for this iteration     100.00

 eigenvalues of (default mixing * dielectric matrix)
  average eigenvalue GAMMA=   0.8297
  1.1359  1.1359  0.6549  0.6549  0.5668

 Free energy of the ion-electron system (eV)
  ---------------------------------------------------
  alpha Z        PSCENC =       604.76932017
  Ewald energy   TEWEN  =    -10808.31144161
  -Hartree energ DENC   =     -3299.45588368
  -exchange      EXHF   =         0.00000000
  -V(xc)+E(xc)   XCENC  =       872.26723668
  PAW double counting   =     27683.71961256   -27691.02723869
  entropy T*S    EENTRO =        -0.00000000
  eigenvalues    EBANDS =     -1201.89363727
  atomic energy  EATOM  =     13496.04525282
  Solvation  Ediel_sol  =         0.00000000
  ---------------------------------------------------
  free energy    TOTEN  =      -343.88677903 eV

  energy without entropy =     -343.88677903  energy(sigma->0) =     -343.88677903


--------------------------------------------------------------------------------------------------------




--------------------------------------- Iteration      1(  11)  ---------------------------------------


    POTLOK:  cpu time    0.3965: real time    0.3965
    SETDIJ:  cpu time    2.0894: real time    2.0894
     EDDAV:  cpu time  262.0642: real time  262.0983
       DOS:  cpu time    0.0038: real time    0.0038
    CHARGE:  cpu time   28.8963: real time   28.8982
    MIXING:  cpu time    0.0081: real time    0.0081
    --------------------------------------------
      LOOP:  cpu time  293.4584: real time  293.4944

 eigenvalue-minimisations  : 37035
 total energy-change (2. order) : 0.4790855E-02  (-0.2187313E-03)
 number of electron     191.9999989 magnetization       0.0000000
 augmentation part       22.8217692 magnetization       0.0000656

 Broyden mixing:
  rms(total) = 0.57172E-01    rms(broyden)= 0.57172E-01
  rms(prec ) = 0.83822E-01
  weight for this iteration     100.00

 eigenvalues of (default mixing * dielectric matrix)
  average eigenvalue GAMMA=   0.8321
  1.2642  1.2642  0.6901  0.6901  0.5420  0.5420

 Free energy of the ion-electron system (eV)
  ---------------------------------------------------
  alpha Z        PSCENC =       604.76932017
  Ewald energy   TEWEN  =    -10808.31144161
  -Hartree energ DENC   =     -3300.82228959
  -exchange      EXHF   =         0.00000000
  -V(xc)+E(xc)   XCENC  =       872.28698949
  PAW double counting   =     27661.42535797   -27668.92858777
  entropy T*S    EENTRO =        -0.00000000
  eigenvalues    EBANDS =     -1200.34658965
  atomic energy  EATOM  =     13496.04525282
  Solvation  Ediel_sol  =         0.00000000
  ---------------------------------------------------
  free energy    TOTEN  =      -343.88198817 eV

  energy without entropy =     -343.88198817  energy(sigma->0) =     -343.88198817


--------------------------------------------------------------------------------------------------------




--------------------------------------- Iteration      1(  12)  ---------------------------------------


    POTLOK:  cpu time    0.3972: real time    0.3972
    SETDIJ:  cpu time    2.0936: real time    2.0937
     EDDAV:  cpu time  252.2782: real time  252.2999
       DOS:  cpu time    0.0041: real time    0.0041
    CHARGE:  cpu time   29.0911: real time   29.0923
    MIXING:  cpu time    0.0083: real time    0.0083
    --------------------------------------------
      LOOP:  cpu time  283.8724: real time  283.8955

 eigenvalue-minimisations  : 34929
 total energy-change (2. order) : 0.4123637E-02  (-0.2341145E-03)
 number of electron     191.9999989 magnetization       0.0000000
 augmentation part       22.8123856 magnetization       0.0000478

 Broyden mixing:
  rms(total) = 0.42935E-01    rms(broyden)= 0.42934E-01
  rms(prec ) = 0.63098E-01
  weight for this iteration     100.00

 eigenvalues of (default mixing * dielectric matrix)
  average eigenvalue GAMMA=   0.9423
  1.5632  1.5632  0.8231  0.8231  0.6237  0.6237  0.5762

 Free energy of the ion-electron system (eV)
  ---------------------------------------------------
  alpha Z        PSCENC =       604.76932017
  Ewald energy   TEWEN  =    -10808.31144161
  -Hartree energ DENC   =     -3302.33678137
  -exchange      EXHF   =         0.00000000
  -V(xc)+E(xc)   XCENC  =       872.36434025
  PAW double counting   =     27634.12007359   -27641.84766117
  entropy T*S    EENTRO =        -0.00000000
  eigenvalues    EBANDS =     -1198.68096720
  atomic energy  EATOM  =     13496.04525282
  Solvation  Ediel_sol  =         0.00000000
  ---------------------------------------------------
  free energy    TOTEN  =      -343.87786453 eV

  energy without entropy =     -343.87786453  energy(sigma->0) =     -343.87786453


--------------------------------------------------------------------------------------------------------




--------------------------------------- Iteration      1(  13)  ---------------------------------------


    POTLOK:  cpu time    0.3994: real time    0.3995
    SETDIJ:  cpu time    2.0869: real time    2.0870
     EDDAV:  cpu time  258.2746: real time  258.2917
       DOS:  cpu time    0.0041: real time    0.0041
    CHARGE:  cpu time   28.9262: real time   28.9290
    MIXING:  cpu time    0.0084: real time    0.0084
    --------------------------------------------
      LOOP:  cpu time  289.6997: real time  289.7198

 eigenvalue-minimisations  : 36216
 total energy-change (2. order) : 0.3304870E-02  (-0.2651328E-03)
 number of electron     191.9999989 magnetization       0.0000000
 augmentation part       22.8027151 magnetization       0.0000356

 Broyden mixing:
  rms(total) = 0.28112E-01    rms(broyden)= 0.28111E-01
  rms(prec ) = 0.41355E-01
  weight for this iteration     100.00

 eigenvalues of (default mixing * dielectric matrix)
  average eigenvalue GAMMA=   0.9363
  1.6783  1.6783  0.8704  0.8704  0.6409  0.6409  0.5556  0.5556

 Free energy of the ion-electron system (eV)
  ---------------------------------------------------
  alpha Z        PSCENC =       604.76932017
  Ewald energy   TEWEN  =    -10808.31144161
  -Hartree energ DENC   =     -3303.89730194
  -exchange      EXHF   =         0.00000000
  -V(xc)+E(xc)   XCENC  =       872.44202811
  PAW double counting   =     27611.21668993   -27619.17176400
  entropy T*S    EENTRO =        -0.00000000
  eigenvalues    EBANDS =     -1196.96734314
  atomic energy  EATOM  =     13496.04525282
  Solvation  Ediel_sol  =         0.00000000
  ---------------------------------------------------
  free energy    TOTEN  =      -343.87455966 eV

  energy without entropy =     -343.87455966  energy(sigma->0) =     -343.87455966


--------------------------------------------------------------------------------------------------------




--------------------------------------- Iteration      1(  14)  ---------------------------------------


    POTLOK:  cpu time    0.3955: real time    0.3956
    SETDIJ:  cpu time    2.0836: real time    2.0836
     EDDAV:  cpu time  253.2779: real time  253.3058
       DOS:  cpu time    0.0042: real time    0.0042
    CHARGE:  cpu time   28.8928: real time   28.8939
    MIXING:  cpu time    0.0085: real time    0.0085
    --------------------------------------------
      LOOP:  cpu time  284.6624: real time  284.6916

 eigenvalue-minimisations  : 35163
 total energy-change (2. order) : 0.1785641E-02  (-0.1416100E-03)
 number of electron     191.9999989 magnetization       0.0000000
 augmentation part       22.7952504 magnetization       0.0000177

 Broyden mixing:
  rms(total) = 0.17420E-01    rms(broyden)= 0.17419E-01
  rms(prec ) = 0.25669E-01
  weight for this iteration     100.00

 eigenvalues of (default mixing * dielectric matrix)
  average eigenvalue GAMMA=   1.0130
  1.9606  1.9606  0.9976  0.9976  0.7178  0.7178  0.6028  0.6028  0.5594

 Free energy of the ion-electron system (eV)
  ---------------------------------------------------
  alpha Z        PSCENC =       604.76932017
  Ewald energy   TEWEN  =    -10808.31144161
  -Hartree energ DENC   =     -3305.01684609
  -exchange      EXHF   =         0.00000000
  -V(xc)+E(xc)   XCENC  =       872.48344363
  PAW double counting   =     27595.52214283   -27603.64544736
  entropy T*S    EENTRO =        -0.00000000
  eigenvalues    EBANDS =     -1195.71919841
  atomic energy  EATOM  =     13496.04525282
  Solvation  Ediel_sol  =         0.00000000
  ---------------------------------------------------
  free energy    TOTEN  =      -343.87277402 eV

  energy without entropy =     -343.87277402  energy(sigma->0) =     -343.87277402


--------------------------------------------------------------------------------------------------------




--------------------------------------- Iteration      1(  15)  ---------------------------------------


    POTLOK:  cpu time    0.3981: real time    0.3981
    SETDIJ:  cpu time    2.0902: real time    2.0903
     EDDAV:  cpu time  256.4469: real time  256.4766
       DOS:  cpu time    0.0041: real time    0.0041
    CHARGE:  cpu time   28.8143: real time   28.8157
    MIXING:  cpu time    0.0088: real time    0.0088
    --------------------------------------------
      LOOP:  cpu time  287.7624: real time  287.7935

 eigenvalue-minimisations  : 35964
 total energy-change (2. order) : 0.1168562E-02  (-0.1179041E-03)
 number of electron     191.9999989 magnetization       0.0000000
 augmentation part       22.7886996 magnetization       0.0000146

 Broyden mixing:
  rms(total) = 0.75610E-02    rms(broyden)= 0.75589E-02
  rms(prec ) = 0.11152E-01
  weight for this iteration     100.00

 eigenvalues of (default mixing * dielectric matrix)
  average eigenvalue GAMMA=   1.0227
  2.1430  2.1430  1.0782  1.0782  0.7513  0.7513  0.6036  0.6036  0.5374  0.5374

 Free energy of the ion-electron system (eV)
  ---------------------------------------------------
  alpha Z        PSCENC =       604.76932017
  Ewald energy   TEWEN  =    -10808.31144161
  -Hartree energ DENC   =     -3306.06991797
  -exchange      EXHF   =         0.00000000
  -V(xc)+E(xc)   XCENC  =       872.53282365
  PAW double counting   =     27581.58154146   -27589.86004861
  entropy T*S    EENTRO =        -0.00000000
  eigenvalues    EBANDS =     -1194.55913536
  atomic energy  EATOM  =     13496.04525282
  Solvation  Ediel_sol  =         0.00000000
  ---------------------------------------------------
  free energy    TOTEN  =      -343.87160546 eV

  energy without entropy =     -343.87160546  energy(sigma->0) =     -343.87160546


--------------------------------------------------------------------------------------------------------




--------------------------------------- Iteration      1(  16)  ---------------------------------------


    POTLOK:  cpu time    0.3924: real time    0.3924
    SETDIJ:  cpu time    2.0865: real time    2.0866
     EDDAV:  cpu time  254.5161: real time  254.5325
       DOS:  cpu time    0.0043: real time    0.0043
    CHARGE:  cpu time   29.4043: real time   29.4200
    MIXING:  cpu time    0.0088: real time    0.0088
    --------------------------------------------
      LOOP:  cpu time  286.4124: real time  286.4444

 eigenvalue-minimisations  : 35541
 total energy-change (2. order) : 0.3821367E-03  (-0.3115274E-04)
 number of electron     191.9999989 magnetization       0.0000000
 augmentation part       22.7851642 magnetization       0.0000065

 Broyden mixing:
  rms(total) = 0.28719E-02    rms(broyden)= 0.28704E-02
  rms(prec ) = 0.42439E-02
  weight for this iteration     100.00

 eigenvalues of (default mixing * dielectric matrix)
  average eigenvalue GAMMA=   1.1675
  2.6968  2.6968  1.2721  1.2721  0.8638  0.8638  0.6905  0.6905  0.6123  0.6123
  0.5714

[...]
  0.000  -0.000  -0.000  -0.000   0.000   0.000  -0.000  -0.000  -0.000   0.000   0.000   0.000  -0.000   0.000  -0.000  -0.000
 -0.000   0.000  -0.000   0.000   0.000  -0.000  -0.000   0.000  -0.000   0.000   0.000  -0.000   0.000   0.000  -0.000  -0.000
 -0.000   0.000   0.000   0.000   0.000  -0.000   0.000   0.000   0.000  -0.000  -0.000   0.000  -0.000  -0.000   0.000   0.000
  0.000   0.000  -0.000   0.000  -0.000  -0.000  -0.000   0.000  -0.000  -0.000  -0.000  -0.000   0.000   0.000   0.000   0.000
  0.000  -0.000   0.000  -0.000   0.000   0.000   0.000  -0.000  -0.000   0.000  -0.000   0.000  -0.000   0.000  -0.000   0.000
  0.000   0.000   0.000   0.000  -0.000   0.000   0.000  -0.000  -0.000  -0.000  -0.000   0.000   0.000   0.000   0.000   0.000
 -0.000   0.000   0.000  -0.000   0.000   0.000  -0.000   0.000  -0.000   0.000   0.000   0.000  -0.000   0.000  -0.000  -0.000
 -0.000   0.000   0.000   0.000   0.000  -0.000   0.000  -0.000   0.000  -0.000   0.000  -0.000   0.000  -0.000   0.000  -0.000
 -0.000  -0.000   0.000  -0.000   0.000   0.000   0.000  -0.000   0.000   0.000   0.000   0.000  -0.000   0.000  -0.000  -0.000
 -0.000   0.000  -0.000   0.000  -0.000  -0.000  -0.000   0.000   0.000  -0.000   0.000  -0.000   0.000  -0.000   0.000  -0.000
 -0.000  -0.000  -0.000  -0.000   0.000  -0.000  -0.000   0.000   0.000   0.000   0.000  -0.000  -0.000  -0.000  -0.000   0.000
  0.000  -0.000  -0.000   0.000  -0.000  -0.000   0.000  -0.000   0.000  -0.000  -0.000  -0.000   0.000  -0.000   0.000   0.000
  0.000  -0.000  -0.000  -0.000  -0.000   0.000  -0.000   0.000  -0.000   0.000  -0.000   0.000  -0.000   0.000  -0.000   0.000


------------------------ aborting loop because EDIFF is reached ----------------------------------------


 


 total charge     
 
# of ion       s       p       d       tot
------------------------------------------
    1        2.024   5.877   0.245   8.146
    2        2.024   5.877   0.245   8.146
    3        2.021   5.870   0.225   8.116
    4        2.021   5.870   0.225   8.116
    5        0.557   0.824   0.000   1.381
    6        0.555   0.812   0.000   1.367
    7        0.590   0.883   0.000   1.473
    8        0.590   0.883   0.000   1.473
    9        0.651   1.011   0.000   1.662
   10        0.651   1.011   0.000   1.662
   11        0.664   1.036   0.000   1.700
   12        0.664   1.036   0.000   1.700
   13        1.566   3.673   0.000   5.239
   14        1.566   3.673   0.000   5.239
   15        1.565   3.691   0.000   5.256
   16        1.565   3.691   0.000   5.256
   17        1.563   3.655   0.000   5.218
   18        1.563   3.655   0.000   5.218
   19        1.570   3.599   0.000   5.170
   20        1.570   3.599   0.000   5.170
   21        1.560   3.688   0.000   5.249
   22        1.560   3.688   0.000   5.249
   23        1.560   3.710   0.000   5.270
   24        1.560   3.710   0.000   5.270
   25        1.564   3.664   0.000   5.227
   26        1.564   3.664   0.000   5.227
   27        1.562   3.696   0.000   5.258
   28        1.562   3.696   0.000   5.258
   29        1.566   3.697   0.000   5.264
   30        1.566   3.697   0.000   5.264
   31        1.561   3.665   0.000   5.226
   32        1.561   3.665   0.000   5.226
--------------------------------------------------
tot         44.290 104.467   0.939 149.696
 


 magnetization (x)
 
# of ion       s       p       d       tot
------------------------------------------
    1       -0.000  -0.000  -0.000  -0.000
    2       -0.000   0.000  -0.000  -0.000
    3       -0.000  -0.000  -0.000  -0.000
    4       -0.000  -0.000  -0.000  -0.000
    5        0.000   0.000   0.000   0.000
    6        0.000   0.000   0.000   0.000
    7        0.000   0.000   0.000   0.000
    8        0.000   0.000   0.000   0.000
    9        0.000   0.000   0.000   0.000
   10        0.000   0.000   0.000   0.000
   11        0.000   0.000   0.000   0.000
   12        0.000   0.000   0.000   0.000
   13        0.000  -0.000   0.000  -0.000
   14        0.000  -0.000   0.000  -0.000
   15        0.000  -0.000   0.000  -0.000
   16        0.000   0.000   0.000   0.000
   17        0.000  -0.000   0.000  -0.000
   18       -0.000  -0.000   0.000  -0.000
   19       -0.000   0.000   0.000   0.000
   20       -0.000  -0.000   0.000  -0.000
   21        0.000   0.000   0.000   0.000
   22        0.000   0.000   0.000   0.000
   23        0.000  -0.000   0.000  -0.000
   24       -0.000   0.000   0.000   0.000
   25       -0.000  -0.000   0.000  -0.000
   26        0.000  -0.000   0.000  -0.000
   27        0.000   0.000   0.000   0.000
   28        0.000   0.000   0.000   0.000
   29       -0.000   0.000   0.000   0.000
   30       -0.000   0.000   0.000   0.000
   31        0.000  -0.000   0.000  -0.000
   32        0.000  -0.000   0.000  -0.000
--------------------------------------------------
tot         -0.000  -0.000  -0.000  -0.000
 
    CHARGE:  cpu time    2.2625: real time    2.2626
    FORLOC:  cpu time    0.0178: real time    0.0178
    FORNL :  cpu time   30.2756: real time   30.3003
    STRESS:  cpu time  633.0489: real time  633.0976
    FORCOR:  cpu time    0.3466: real time    0.3466
    FORHAR:  cpu time    0.0393: real time    0.0393
    MIXING:  cpu time    0.0085: real time    0.0085
    OFIELD:  cpu time    0.0001: real time    0.0001

  FORCE on cell =-STRESS in cart. coord.  units (eV):
  Direction    XX          YY          ZZ          XY          YZ          ZX
  --------------------------------------------------------------------------------------
  Alpha Z   604.76932   604.76932   604.76932
  Ewald   -3398.38876 -3365.83731 -4044.12118  -172.39544    11.56482    19.46019
  Hartree  1198.12527  1200.22131   908.55104   -85.08246    36.76166    35.74138
  E(xc)    -942.97459  -943.27794  -942.51314    -0.33589     0.45761     0.41954
  Local    -738.23891  -767.59606   187.62469   252.55361   -54.16066   -61.01864
  n-local  -385.49379  -384.15058  -395.46202     5.35649    -5.00738    -3.27946
  augment   225.22548   224.73279   225.85833    -0.76108     1.38957     0.79613
  Kinetic  3437.01206  3431.16864  3455.29562     0.66680     8.94081     7.83189
  Fock        0.00000     0.00000     0.00000     0.00000     0.00000     0.00000
  -------------------------------------------------------------------------------------
  Total       0.03608     0.03017     0.00267     0.00202    -0.05357    -0.04898
  in kB       0.17536     0.14664     0.01296     0.00980    -0.26036    -0.23805
  external pressure =        0.11 kB  Pullay stress =        0.00 kB


 VOLUME and BASIS-vectors are now :
 -----------------------------------------------------------------------------
  energy-cutoff  :      520.00
  volume of cell :      329.64
      direct lattice vectors                 reciprocal lattice vectors
     7.212224119  0.001438276  0.654329449     0.138666300 -0.050178612 -0.000030972
     2.540500225  7.019864833  1.120092558    -0.000039315  0.142447930  0.000120227
    -0.000534328 -0.005495109  6.510585447    -0.013929532 -0.019463921  0.153578447

  length of vectors
     7.241845472  7.548990065  6.510587788     0.147466054  0.142447986  0.155432350


 FORCES acting on ions
    electron-ion (+dipol)            ewald-force                    non-local-force                 convergence-correction
 -----------------------------------------------------------------------------------------------
   0.325E+01 0.414E+02 0.820E+01   -.373E+01 -.403E+02 -.887E+01   0.479E+00 -.110E+01 0.678E+00   -.201E-04 -.850E-04 -.452E-04
   -.325E+01 -.414E+02 -.820E+01   0.373E+01 0.403E+02 0.887E+01   -.479E+00 0.110E+01 -.678E+00   0.228E-04 0.910E-04 0.492E-04
   0.295E+02 -.549E+02 -.583E+01   -.296E+02 0.538E+02 0.495E+01   0.790E-01 0.114E+01 0.889E+00   -.681E-04 0.119E-03 0.106E-03
   -.295E+02 0.549E+02 0.583E+01   0.296E+02 -.538E+02 -.495E+01   -.790E-01 -.114E+01 -.889E+00   0.699E-04 -.115E-03 -.112E-03
   0.180E-03 0.216E-03 0.295E-04   -.302E-03 -.121E-03 -.693E-04   0.120E-03 -.893E-04 0.377E-04   -.456E-06 -.717E-06 -.455E-06
   -.130E-03 -.984E-03 0.243E-03   0.110E-03 0.909E-03 -.115E-03   0.171E-04 0.743E-04 -.122E-03   0.107E-06 0.482E-07 0.307E-06
   0.978E+01 0.858E+01 0.245E+02   -.844E+01 -.659E+01 -.218E+02   -.128E+01 -.193E+01 -.268E+01   -.218E-04 -.255E-04 -.378E-04
   -.978E+01 -.858E+01 -.245E+02   0.844E+01 0.659E+01 0.218E+02   0.128E+01 0.193E+01 0.268E+01   0.227E-04 0.248E-04 0.378E-04
   -.133E+02 -.251E+01 0.905E+01   0.131E+02 0.327E+01 -.754E+01   0.246E+00 -.686E+00 -.143E+01   0.213E-04 -.273E-04 -.214E-04
   0.133E+02 0.251E+01 -.905E+01   -.131E+02 -.327E+01 0.754E+01   -.246E+00 0.686E+00 0.143E+01   -.203E-04 0.269E-04 0.221E-04
   -.115E+02 0.155E+01 0.111E+01   0.103E+02 -.525E+01 -.356E+01   0.114E+01 0.351E+01 0.234E+01   -.800E-05 -.906E-04 -.817E-04
   0.115E+02 -.155E+01 -.111E+01   -.103E+02 0.525E+01 0.356E+01   -.114E+01 -.351E+01 -.234E+01   0.676E-05 0.916E-04 0.816E-04
   0.148E+02 -.868E+01 0.371E+02   -.622E+01 0.122E+02 -.569E+02   -.856E+01 -.356E+01 0.197E+02   0.345E-04 0.141E-03 -.254E-03
   -.148E+02 0.868E+01 -.371E+02   0.622E+01 -.122E+02 0.569E+02   0.856E+01 0.356E+01 -.197E+02   -.347E-04 -.141E-03 0.255E-03
   -.215E+02 -.300E+01 -.202E+02   0.168E+02 -.309E+00 0.388E+02   0.472E+01 0.331E+01 -.187E+02   -.632E-04 -.157E-03 0.230E-03
   0.215E+02 0.300E+01 0.202E+02   -.168E+02 0.309E+00 -.388E+02   -.472E+01 -.331E+01 0.187E+02   0.597E-04 0.157E-03 -.230E-03
   -.134E+02 0.315E+02 0.413E+02   0.189E+02 -.231E+02 -.607E+02   -.546E+01 -.838E+01 0.193E+02   0.165E-03 -.437E-04 -.325E-03
   0.134E+02 -.315E+02 -.413E+02   -.189E+02 0.231E+02 0.607E+02   0.546E+01 0.838E+01 -.193E+02   -.163E-03 0.443E-04 0.325E-03
   0.722E+01 0.429E+02 0.611E+02   -.160E+02 -.659E+02 -.780E+02   0.881E+01 0.231E+02 0.169E+02   -.281E-04 -.275E-03 -.655E-04
   -.722E+01 -.429E+02 -.611E+02   0.160E+02 0.659E+02 0.780E+02   -.881E+01 -.231E+02 -.169E+02   0.291E-04 0.278E-03 0.671E-04
   0.515E+01 -.102E+01 0.181E+02   -.934E+00 -.107E+02 -.188E+02   -.421E+01 0.117E+02 0.689E+00   0.152E-03 -.156E-03 -.810E-04
   -.515E+01 0.102E+01 -.181E+02   0.934E+00 0.107E+02 0.188E+02   0.421E+01 -.117E+02 -.689E+00   -.150E-03 0.156E-03 0.811E-04
   0.233E+02 0.109E+01 -.258E+02   -.289E+02 -.136E+02 0.325E+02   0.563E+01 0.125E+02 -.670E+01   0.122E-04 -.130E-03 0.159E-03
   -.233E+02 -.109E+01 0.258E+02   0.289E+02 0.136E+02 -.325E+02   -.563E+01 -.125E+02 0.670E+01   -.118E-04 0.128E-03 -.160E-03
   0.434E+02 0.438E+01 -.524E+02   -.624E+02 -.395E+01 0.570E+02   0.191E+02 -.428E+00 -.462E+01   -.148E-03 0.118E-03 0.229E-03
   -.434E+02 -.438E+01 0.524E+02   0.624E+02 0.395E+01 -.570E+02   -.191E+02 0.428E+00 0.462E+01   0.149E-03 -.116E-03 -.228E-03
   0.193E+02 0.109E+02 0.171E+02   -.256E+02 -.158E+01 -.258E+02   0.637E+01 -.933E+01 0.877E+01   -.140E-03 0.119E-03 -.486E-04
   -.193E+02 -.109E+02 -.171E+02   0.256E+02 0.158E+01 0.258E+02   -.637E+01 0.933E+01 -.877E+01   0.141E-03 -.120E-03 0.485E-04
   -.215E+02 0.374E+02 0.297E+02   0.285E+02 -.324E+02 -.476E+02   -.703E+01 -.494E+01 0.179E+02   0.167E-03 -.101E-03 -.366E-03
   0.215E+02 -.374E+02 -.297E+02   -.285E+02 0.324E+02 0.476E+02   0.703E+01 0.494E+01 -.179E+02   -.168E-03 0.102E-03 0.367E-03
   0.308E+02 0.145E+02 -.542E+02   -.499E+02 -.104E+02 0.536E+02   0.192E+02 -.407E+01 0.662E+00   -.125E-03 0.151E-03 0.163E-03
   -.308E+02 -.145E+02 0.542E+02   0.499E+02 0.104E+02 -.536E+02   -.192E+02 0.407E+01 -.662E+00   0.122E-03 -.153E-03 -.162E-03
 -----------------------------------------------------------------------------------------------
   -.124E-02 -.181E-02 0.135E-02   0.213E-13 -.711E-13 0.711E-13   0.123E-02 0.181E-02 -.135E-02   0.533E-05 0.110E-04 0.222E-05
 
 
 POSITION                                       TOTAL-FORCE (eV/Angst)
 -----------------------------------------------------------------------------------
      4.11693      2.23983      5.98571         0.004462     -0.000670      0.009115
      5.63525      4.77598      2.29930        -0.004456      0.000675     -0.009114
      0.75048      1.50240      4.24108        -0.005097     -0.006905      0.007742
      9.00169      5.51341      4.04394         0.005116      0.006880     -0.007742
      3.60584     -0.00203      3.58246         0.000005     -0.000001     -0.000000
      8.48247      3.51137      1.21438         0.000001      0.000002      0.000000
      3.75556      5.45967      6.24264         0.001750     -0.010329     -0.000490
      5.99663      1.55614      2.04237        -0.001753      0.010327      0.000489
      1.60930      0.49212      1.02670        -0.008168      0.007498      0.006770
      8.14289      6.52369      7.25830         0.008165     -0.007490     -0.006765
      6.40008      4.06360      5.38302         0.005851     -0.023772     -0.004000
      3.35211      2.95221      2.90198        -0.005857      0.023771      0.004004
      9.47151      6.31944      6.33229        -0.006680     -0.007058     -0.007932
      0.28068      0.69637      1.95272         0.006680      0.007055      0.007931
      5.20249      4.44855      6.41736        -0.000257     -0.000035     -0.006959
      4.54971      2.56726      1.86764         0.000252      0.000036      0.006963
      1.77698      1.79064      6.56866         0.009078     -0.000293     -0.004826
      7.97522      5.22517      1.71634        -0.009082      0.000296      0.004829
      6.02217      2.72147      4.60022         0.001471      0.003979     -0.007680
      3.73002      4.29434      3.68478        -0.001489     -0.003974      0.007674
      2.83995      4.07493      6.53727         0.012091      0.019780     -0.008058
      6.91225      2.94088      1.74774        -0.012085     -0.019775      0.008049
      3.84712      6.15976      1.27152        -0.000964     -0.010373     -0.005368
      5.90507      0.85605      7.01349         0.000971      0.010369      0.005363
      1.89447      3.22627      2.21213         0.018356     -0.000607      0.010336
      7.85772      3.78953      6.07288        -0.018353      0.000620     -0.010341
      4.57280      6.55186      5.27962         0.010637     -0.005957      0.002227
      5.17939      0.46395      3.00539        -0.010638      0.005955     -0.002228
      6.62677      5.32620      4.36993        -0.000774      0.002742     -0.004435
      3.12542      1.68961      3.91507         0.000765     -0.002744      0.004433
      6.83022      6.90541      6.40495        -0.007905      0.005587     -0.000731
      2.92197      0.11040      1.88006         0.007908     -0.005589      0.000743
 -----------------------------------------------------------------------------------
    total drift:                               -0.000013      0.000016      0.000000


--------------------------------------------------------------------------------------------------------



  FREE ENERGIE OF THE ION-ELECTRON SYSTEM (eV)
  ---------------------------------------------------
  free  energy   TOTEN  =      -343.87105926 eV

  energy  without entropy=     -343.87105926  energy(sigma->0) =     -343.87105926
 


--------------------------------------------------------------------------------------------------------


    POTLOK:  cpu time    2.4673: real time    2.4674


--------------------------------------------------------------------------------------------------------




--------------------------------------------------------------------------------------------------------


  
 reached required accuracy - stopping structural energy minimisation
     LOOP+:  cpu time 5891.1698: real time 5891.7334
    4ORBIT:  cpu time    0.0000: real time    0.0000
 


 total charge     
 
# of ion       s       p       d       tot
------------------------------------------
    1        2.024   5.877   0.245   8.146
    2        2.024   5.877   0.245   8.146
    3        2.021   5.870   0.225   8.116
    4        2.021   5.870   0.225   8.116
    5        0.557   0.824   0.000   1.381
    6        0.555   0.812   0.000   1.367
    7        0.590   0.883   0.000   1.473
    8        0.590   0.883   0.000   1.473
    9        0.651   1.011   0.000   1.662
   10        0.651   1.011   0.000   1.662
   11        0.664   1.036   0.000   1.700
   12        0.664   1.036   0.000   1.700
   13        1.566   3.673   0.000   5.239
   14        1.566   3.673   0.000   5.239
   15        1.565   3.691   0.000   5.256
   16        1.565   3.691   0.000   5.256
   17        1.563   3.655   0.000   5.218
   18        1.563   3.655   0.000   5.218
   19        1.570   3.599   0.000   5.170
   20        1.570   3.599   0.000   5.170
   21        1.560   3.688   0.000   5.249
   22        1.560   3.688   0.000   5.249
   23        1.560   3.710   0.000   5.270
   24        1.560   3.710   0.000   5.270
   25        1.564   3.664   0.000   5.227
   26        1.564   3.664   0.000   5.227
   27        1.562   3.696   0.000   5.258
   28        1.562   3.696   0.000   5.258
   29        1.566   3.697   0.000   5.264
   30        1.566   3.697   0.000   5.264
   31        1.561   3.665   0.000   5.226
   32        1.561   3.665   0.000   5.226
--------------------------------------------------
tot         44.290 104.467   0.939 149.696
 


 magnetization (x)
 
# of ion       s       p       d       tot
------------------------------------------
    1       -0.000  -0.000  -0.000  -0.000
    2       -0.000   0.000  -0.000  -0.000
    3       -0.000  -0.000  -0.000  -0.000
    4       -0.000  -0.000  -0.000  -0.000
    5        0.000   0.000   0.000   0.000
    6        0.000   0.000   0.000   0.000
    7        0.000   0.000   0.000   0.000
    8        0.000   0.000   0.000   0.000
    9        0.000   0.000   0.000   0.000
   10        0.000   0.000   0.000   0.000
   11        0.000   0.000   0.000   0.000
   12        0.000   0.000   0.000   0.000
   13        0.000  -0.000   0.000  -0.000
   14        0.000  -0.000   0.000  -0.000
   15        0.000  -0.000   0.000  -0.000
   16        0.000   0.000   0.000   0.000
   17        0.000  -0.000   0.000  -0.000
   18       -0.000  -0.000   0.000  -0.000
   19       -0.000   0.000   0.000   0.000
   20       -0.000  -0.000   0.000  -0.000
   21        0.000   0.000   0.000   0.000
   22        0.000   0.000   0.000   0.000
   23        0.000  -0.000   0.000  -0.000
   24       -0.000   0.000   0.000   0.000
   25       -0.000  -0.000   0.000  -0.000
   26        0.000  -0.000   0.000  -0.000
   27        0.000   0.000   0.000   0.000
   28        0.000   0.000   0.000   0.000
   29       -0.000   0.000   0.000   0.000
   30       -0.000   0.000   0.000   0.000
   31        0.000  -0.000   0.000  -0.000
   32        0.000  -0.000   0.000  -0.000
--------------------------------------------------
tot         -0.000  -0.000  -0.000  -0.000
 

 total amount of memory used by VASP MPI-rank0   240956. kBytes
=======================================================================

   base      :      30000. kBytes
   nonlr-proj:       6823. kBytes
   fftplans  :       4444. kBytes
   grid      :      15697. kBytes
   one-center:        248. kBytes
   wavefun   :     183744. kBytes
 
  
  
 General timing and accounting informations for this job:
 ========================================================
  
                  Total CPU time used (sec):     5918.967
                            User time (sec):     5914.888
                          System time (sec):        4.080
                         Elapsed time (sec):     5919.790
  
                   Maximum memory used (kb):      419276.
                   Average memory used (kb):           0.
  
                          Minor page faults:        74725
                          Major page faults:            0
                 Voluntary context switches:           66
