       N       E                     dE             d eps       ncg     rms          ort
DAV:   1     0.223634748630E+04    0.22363E+04   -0.13448E+05  9828   0.155E+03
DAV:   2    -0.166619412310E+03   -0.24030E+04   -0.22723E+04  9828   0.403E+02
DAV:   3    -0.422133980423E+03   -0.25551E+03   -0.24862E+03  9828   0.144E+02
DAV:   4    -0.431762415509E+03   -0.96284E+01   -0.95177E+01  9828   0.304E+01
DAV:   5    -0.432289968926E+03   -0.52755E+00   -0.52685E+00  9828   0.544E+00
SDA:   6    -0.350378982428E+03    0.81911E+02   -0.52685E+00  9828   0.289E+02 0.000E+00
CGA:   7    -0.351876930058E+03   -0.14979E+01   -0.18248E+01  9828   0.216E+02-0.355E+01
CGA:   8    -0.353286304585E+03   -0.14094E+01   -0.10938E+01  9828   0.552E+01 0.527E+01
CGA:   9    -0.353535919705E+03   -0.24962E+00   -0.21404E+00  9828   0.168E+01 0.699E+00
CGA:  10    -0.353822690381E+03   -0.28677E+00   -0.28445E+00  9828   0.456E+01-0.691E-01
CGA:  11    -0.353972186843E+03   -0.14950E+00   -0.14359E+00  9828   0.792E+00-0.109E+00
CGA:  12    -0.354014998879E+03   -0.42812E-01   -0.42923E-01  9828   0.129E+01-0.485E-01
CGA:  13    -0.354106986013E+03   -0.91987E-01   -0.88423E-01  9828   0.115E+01-0.337E-01
CGA:  14    -0.354148203996E+03   -0.41218E-01   -0.43936E-01  9828   0.362E+00-0.142E+00
CGA:  15    -0.354159721272E+03   -0.11517E-01   -0.11484E-01  9828   0.242E+00-0.304E-01
CGA:  16    -0.354194223139E+03   -0.34502E-01   -0.34638E-01  9828   0.445E+00-0.181E-01
CGA:  17    -0.354205850633E+03   -0.11627E-01   -0.11121E-01  9828   0.797E-01-0.197E-01
CGA:  18    -0.354212025965E+03   -0.61753E-02   -0.58885E-02  9828   0.129E+00-0.703E-02
CGA:  19    -0.354220053817E+03   -0.80279E-02   -0.75837E-02  9828   0.138E+00-0.735E-02
CGA:  20    -0.354225807449E+03   -0.57536E-02   -0.54057E-02  9828   0.254E-01-0.138E-02
CGA:  21    -0.354226954530E+03   -0.11471E-02   -0.10692E-02  9828   0.277E-01-0.104E-02
CGA:  22    -0.354230642828E+03   -0.36883E-02   -0.37495E-02  9828   0.410E-01-0.417E-02
CGA:  23    -0.354231668470E+03   -0.10256E-02   -0.10239E-02  9828   0.108E-01-0.642E-03
CGA:  24    -0.354231957313E+03   -0.28884E-03   -0.33344E-03  9828   0.565E-02 0.586E-03
CGA:  25    -0.354232421222E+03   -0.46391E-03   -0.48446E-03  9828   0.157E-01 0.547E-03
CGA:  26    -0.354233487103E+03   -0.10659E-02   -0.10864E-02  9828   0.476E-02 0.359E-03
CGA:  27    -0.354233615448E+03   -0.12834E-03   -0.12895E-03  9828   0.188E-02-0.224E-04
CGA:  28    -0.354233807296E+03   -0.19185E-03   -0.19457E-03  9828   0.388E-02 0.537E-03
CGA:  29    -0.354233953637E+03   -0.14634E-03   -0.21566E-03  9828   0.134E-02 0.105E-02
CGA:  30    -0.354233975269E+03   -0.21632E-04   -0.61237E-04  9828   0.476E-03 0.572E-03
CGA:  31    -0.354234002178E+03   -0.26910E-04   -0.41859E-04  9828   0.669E-03 0.372E-03
CGA:  32    -0.354234027321E+03   -0.25143E-04   -0.26285E-04  9828   0.442E-03 0.149E-04
CGA:  33    -0.354234058676E+03   -0.31354E-04   -0.35620E-04  9828   0.359E-03 0.237E-03
CGA:  34    -0.354234060758E+03   -0.20822E-05   -0.11555E-04  9828   0.141E-03 0.148E-03
   1 F= -.35423406E+03 E0= -.35422755E+03  d E =-.354234E+03  mag=    10.0000
       N       E                     dE             d eps       ncg     rms          ort
SDA:   1    -0.354210495437E+03    0.23563E-01    0.00000E+00  9828   0.142E+00 0.000E+00
CGA:   2    -0.354216436904E+03   -0.59415E-02   -0.59969E-02  9828   0.766E-01 0.227E-02
CGA:   3    -0.354223405523E+03   -0.69686E-02   -0.69663E-02  9828   0.106E+00 0.955E-03
CGA:   4    -0.354229691545E+03   -0.62860E-02   -0.62781E-02  9828   0.190E-01-0.887E-03
CGA:   5    -0.354232649269E+03   -0.29577E-02   -0.28472E-02  9828   0.126E-01 0.167E-02
CGA:   6    -0.354233357549E+03   -0.70828E-03   -0.67055E-03  9828   0.332E-02-0.105E-02
CGA:   7    -0.354233614952E+03   -0.25740E-03   -0.25852E-03  9828   0.214E-02 0.441E-03
CGA:   8    -0.354233720984E+03   -0.10603E-03   -0.11060E-03  9828   0.115E-02 0.997E-04
CGA:   9    -0.354233833392E+03   -0.11241E-03   -0.11447E-03  9828   0.106E-02-0.218E-03
CGA:  10    -0.354233859332E+03   -0.25940E-04   -0.34881E-04  9828   0.207E-03 0.197E-03
CGA:  11    -0.354233866480E+03   -0.71480E-05   -0.11446E-04  9828   0.183E-03 0.117E-03
CGA:  12    -0.354233780712E+03    0.85769E-04   -0.59019E-04  9828   0.675E-02-0.603E-03
CGA:  13    -0.354233911701E+03   -0.13099E-03   -0.16328E-03  9828   0.261E-03 0.458E-03
CGA:  14    -0.354233911707E+03   -0.60536E-08   -0.58641E-05  9828   0.466E-04 0.839E-04
   2 F= -.35423391E+03 E0= -.35422743E+03  d E =0.149051E-03  mag=    10.0000
       N       E                     dE             d eps       ncg     rms          ort
SDA:   1    -0.354224638630E+03    0.92731E-02    0.00000E+00  9828   0.760E-01 0.000E+00
CGA:   2    -0.354226863280E+03   -0.22247E-02   -0.22863E-02  9828   0.269E-01 0.165E-05
CGA:   3    -0.354230735993E+03   -0.38727E-02   -0.38045E-02  9828   0.308E-01 0.108E-02
CGA:   4    -0.354232475020E+03   -0.17390E-02   -0.16939E-02  9828   0.909E-02-0.180E-02
CGA:   5    -0.354233588601E+03   -0.11136E-02   -0.10710E-02  9828   0.438E-02 0.981E-03
CGA:   6    -0.354233887913E+03   -0.29931E-03   -0.28019E-03  9828   0.285E-02-0.752E-03
CGA:   7    -0.354234011143E+03   -0.12323E-03   -0.12325E-03  9828   0.136E-02-0.116E-04
CGA:   8    -0.354234048198E+03   -0.37055E-04   -0.50483E-04  9828   0.263E-03 0.299E-03
CGA:   9    -0.354234080111E+03   -0.31912E-04   -0.32711E-04  9828   0.877E-03-0.368E-04
CGA:  10    -0.354234116299E+03   -0.36189E-04   -0.33108E-04  9828   0.387E-03-0.848E-04
CGA:  11    -0.354234121354E+03   -0.50547E-05   -0.58901E-05  9828   0.102E-03 0.115E-04
   3 F= -.35423412E+03 E0= -.35422764E+03  d E =-.605961E-04  mag=    10.0000
