 vasp.6.1.2 22Jul20 (build Apr 14 2021 21:39:43) complex                        
  
 executed on             LinuxIFC date 2022.05.21  01:34:30
 running on   64 total cores
 distrk:  each k-point on   64 cores,    1 groups
 distr:  one band on NCORE=  16 cores,    4 groups


--------------------------------------------------------------------------------------------------------


 INCAR:
 POTCAR:    PAW_PBE Ca_sv 06Sep2000               
 POTCAR:    PAW_PBE V_pv 07Sep2000                
 POTCAR:    PAW_PBE P 06Sep2000                   
 POTCAR:    PAW_PBE O 08Apr2002                   
 POTCAR:    PAW_PBE Ca_sv 06Sep2000               
   SHA256 =  a47365830e737f14e0e6c5cf1ed81b94e081eecf0a33df105380881bc9da05d5 Ca_sv/POTCAR          
   COPYR  = (c) Copyright 06Sep2000 Georg Kresse                                                    
   COPYR  = This file is part of the software VASP. Any use, copying, and all other rights are regul
   COPYR  = If you do not have a valid VASP license, you may not use, copy or distribute this file. 
   VRHFIN =Ca: 3s3p4s                                                                               
   LEXCH  = PE                                                                                      
   EATOM  =  1006.0909 eV,   73.9456 Ry                                                             
                                                                                                    
   TITEL  = PAW_PBE Ca_sv 06Sep2000                                                                 
   LULTRA =        F    use ultrasoft PP ?                                                          
   IUNSCR =        1    unscreen: 0-lin 1-nonlin 2-no                                               
   RPACOR =    2.000    partial core radius                                                         
   POMASS =   40.078; ZVAL   =   10.000    mass and valenz                                          
   RCORE  =    2.300    outmost cutoff radius                                                       
   RWIGS  =    2.500; RWIGS  =    1.323    wigner-seitz radius (au A)                               
   ENMAX  =  266.622; ENMIN  =  199.967 eV                                                          
   RCLOC  =    1.808    cutoff for local pot                                                        
   LCOR   =        T    correct aug charges                                                         
   LPAW   =        T    paw PP                                                                      
   EAUG   =  420.852                                                                                
   RMAX   =    2.359    core radius for proj-oper                                                   
   RAUG   =    1.300    factor for augmentation sphere                                              
   RDEP   =    2.392    radius for radial grids                                                     
   RDEPT  =    1.987    core radius for aug-charge                                                  
                                                                                                    
   Atomic configuration                                                                             
    7 entries                                                                                       
     n  l   j            E        occ.                                                              
     1  0  0.50     -3949.1705   2.0000                                                             
     2  0  0.50      -414.3434   2.0000                                                             
     2  1  1.50      -334.7047   6.0000                                                             
     3  0  0.50       -47.0896   2.0000                                                             
     4  0  0.50        -3.7663   2.0000                                                             
     3  1  1.50       -28.0061   6.0000                                                             
     3  2  1.50        -4.0817   0.0000                                                             
   Description                                                                                      
     l       E           TYP  RCUT    TYP  RCUT                                                     
     0    -47.0896403     23  2.300                                                                 
     0     -3.7663320     23  2.300                                                                 
     1    -28.0060855     23  2.300                                                                 
     1      6.8029130     23  2.300                                                                 
     2     -4.0817478     23  2.300                                                                 
     2      0.4464412     23  2.300                                                                 
  local pseudopotential read in
  partial core-charges read in
  partial kinetic energy density read in
  atomic valenz-charges read in
  non local Contribution for L=           0  read in
    real space projection operators read in
  non local Contribution for L=           0  read in
    real space projection operators read in
  non local Contribution for L=           1  read in
    real space projection operators read in
  non local Contribution for L=           1  read in
    real space projection operators read in
  non local Contribution for L=           2  read in
    real space projection operators read in
  non local Contribution for L=           2  read in
    real space projection operators read in
    PAW grid and wavefunctions read in
 
   number of l-projection  operators is LMAX  =           6
   number of lm-projection operators is LMMAX =          18
 
 POTCAR:    PAW_PBE V_pv 07Sep2000                
   SHA256 =  1175d3c8cb4ffd1d150a520fa74fae5c3ec72c0849b5615a94a5372dd2cf07f7 V_pv/POTCAR           
   COPYR  = (c) Copyright 07Sep2000 Georg Kresse                                                    
   COPYR  = This file is part of the software VASP. Any use, copying, and all other rights are regul
   COPYR  = If you do not have a valid VASP license, you may not use, copy or distribute this file. 
   VRHFIN =V: p6 d4 s1                                                                              
   LEXCH  = PE                                                                                      
   EATOM  =  1321.6206 eV,   97.1364 Ry                                                             
                                                                                                    
   TITEL  = PAW_PBE V_pv 07Sep2000                                                                  
   LULTRA =        F    use ultrasoft PP ?                                                          
   IUNSCR =        1    unscreen: 0-lin 1-nonlin 2-no                                               
   RPACOR =    1.700    partial core radius                                                         
   POMASS =   50.941; ZVAL   =   11.000    mass and valenz                                          
   RCORE  =    2.300    outmost cutoff radius                                                       
   RWIGS  =    2.300; RWIGS  =    1.217    wigner-seitz radius (au A)                               
   ENMAX  =  263.673; ENMIN  =  197.755 eV                                                          
   RCLOC  =    1.779    cutoff for local pot                                                        
   LCOR   =        T    correct aug charges                                                         
   LPAW   =        T    paw PP                                                                      
   EAUG   =  598.473                                                                                
   DEXC   =    0.000                                                                                
   RMAX   =    2.359    core radius for proj-oper                                                   
   RAUG   =    1.300    factor for augmentation sphere                                              
   RDEP   =    2.430    radius for radial grids                                                     
   RDEPT  =    1.700    core radius for aug-charge                                                  
                                                                                                    
   Atomic configuration                                                                             
    8 entries                                                                                       
     n  l   j            E        occ.                                                              
     1  0  0.50     -5360.7193   2.0000                                                             
     2  0  0.50      -598.4546   2.0000                                                             
     2  1  1.50      -499.0155   6.0000                                                             
     3  0  0.50       -66.5711   2.0000                                                             
     3  1  1.50       -40.5282   6.0000                                                             
     3  2  2.50        -2.4291   4.0000                                                             
     4  0  0.50        -3.8743   1.0000                                                             
     4  3  2.50        -1.3606   0.0000                                                             
   Description                                                                                      
     l       E           TYP  RCUT    TYP  RCUT                                                     
     1    -40.5282431     23  2.000                                                                 
     1      5.4423304     23  2.000                                                                 
     2     -2.4290905     23  2.300                                                                 
     2     -1.0472488     23  2.300                                                                 
     0     -3.8742754     23  2.300                                                                 
     0     27.2116520     23  2.300                                                                 
  local pseudopotential read in
  partial core-charges read in
  partial kinetic energy density read in
  atomic valenz-charges read in
  non local Contribution for L=           1  read in
    real space projection operators read in
  non local Contribution for L=           1  read in
    real space projection operators read in
  non local Contribution for L=           2  read in
    real space projection operators read in
  non local Contribution for L=           2  read in
    real space projection operators read in
  non local Contribution for L=           0  read in
    real space projection operators read in
  non local Contribution for L=           0  read in
    real space projection operators read in
    PAW grid and wavefunctions read in
 
   number of l-projection  operators is LMAX  =           6
   number of lm-projection operators is LMMAX =          18
 
 POTCAR:    PAW_PBE P 06Sep2000                   
   SHA256 =  df60c54a93efe35c9e85ae94c010c75e9f6960a95d5595d7cdba4096d109af88 P/POTCAR              
   COPYR  = (c) Copyright 06Sep2000 Georg Kresse                                                    
   COPYR  = This file is part of the software VASP. Any use, copying, and all other rights are regul
   COPYR  = If you do not have a valid VASP license, you may not use, copy or distribute this file. 
   VRHFIN =P : s2p3                                                                                 
   LEXCH  = PE                                                                                      
   EATOM  =   176.0430 eV,   12.9388 Ry                                                             
                                                                                                    
   TITEL  = PAW_PBE P 06Sep2000                                                                     
   LULTRA =        F    use ultrasoft PP ?                                                          
   IUNSCR =        1    unscreen: 0-lin 1-nonlin 2-no                                               
   RPACOR =    1.500    partial core radius                                                         
   POMASS =   30.974; ZVAL   =    5.000    mass and valenz                                          
   RCORE  =    1.900    outmost cutoff radius                                                       
   RWIGS  =    2.330; RWIGS  =    1.233    wigner-seitz radius (au A)                               
   ENMAX  =  255.040; ENMIN  =  191.280 eV                                                          
   ICORE  =        2    local potential                                                             
   LCOR   =        T    correct aug charges                                                         
   LPAW   =        T    paw PP                                                                      
   EAUG   =  342.924                                                                                
   DEXC   =    0.000                                                                                
   RMAX   =    1.935    core radius for proj-oper                                                   
   RAUG   =    1.300    factor for augmentation sphere                                              
   RDEP   =    1.931    radius for radial grids                                                     
   RDEPT  =    1.794    core radius for aug-charge                                                  
                                                                                                    
   Atomic configuration                                                                             
    6 entries                                                                                       
     n  l   j            E        occ.                                                              
     1  0  0.50     -2084.0982   2.0000                                                             
     2  0  0.50      -173.9859   2.0000                                                             
     2  1  1.50      -124.4865   6.0000                                                             
     3  0  0.50       -13.9692   2.0000                                                             
     3  1  0.50        -5.5067   3.0000                                                             
     3  2  1.50        -5.4423   0.0000                                                             
   Description                                                                                      
     l       E           TYP  RCUT    TYP  RCUT                                                     
     0    -13.9691527     23  1.900                                                                 
     0    -11.7794650     23  1.900                                                                 
     1     -5.5066937     23  1.900                                                                 
     1     -0.2556953     23  1.900                                                                 
     2     -5.4423304     23  1.900                                                                 
  local pseudopotential read in
  partial core-charges read in
  partial kinetic energy density read in
  atomic valenz-charges read in
  non local Contribution for L=           0  read in
    real space projection operators read in
  non local Contribution for L=           0  read in
    real space projection operators read in
  non local Contribution for L=           1  read in
    real space projection operators read in
  non local Contribution for L=           1  read in
    real space projection operators read in
    PAW grid and wavefunctions read in
 
   number of l-projection  operators is LMAX  =           4
   number of lm-projection operators is LMMAX =           8
 
 POTCAR:    PAW_PBE O 08Apr2002                   
   SHA256 =  818f92134a0a090dccd8ba1447fa70422a3b330e708bb4f08108d8ae51209ddf O/POTCAR              
   COPYR  = (c) Copyright 08Apr2002 Georg Kresse                                                    
   COPYR  = This file is part of the software VASP. Any use, copying, and all other rights are regul
   COPYR  = If you do not have a valid VASP license, you may not use, copy or distribute this file. 
   VRHFIN =O: s2p4                                                                                  
   LEXCH  = PE                                                                                      
   EATOM  =   432.3788 eV,   31.7789 Ry                                                             
                                                                                                    
   TITEL  = PAW_PBE O 08Apr2002                                                                     
   LULTRA =        F    use ultrasoft PP ?                                                          
   IUNSCR =        1    unscreen: 0-lin 1-nonlin 2-no                                               
   RPACOR =    1.200    partial core radius                                                         
   POMASS =   16.000; ZVAL   =    6.000    mass and valenz                                          
   RCORE  =    1.520    outmost cutoff radius                                                       
   RWIGS  =    1.550; RWIGS  =    0.820    wigner-seitz radius (au A)                               
   ENMAX  =  400.000; ENMIN  =  300.000 eV                                                          
   ICORE  =        2    local potential                                                             
   LCOR   =        T    correct aug charges                                                         
   LPAW   =        T    paw PP                                                                      
   EAUG   =  605.392                                                                                
   DEXC   =    0.000                                                                                
   RMAX   =    1.553    core radius for proj-oper                                                   
   RAUG   =    1.300    factor for augmentation sphere                                              
   RDEP   =    1.550    radius for radial grids                                                     
   RDEPT  =    1.329    core radius for aug-charge                                                  
                                                                                                    
   Atomic configuration                                                                             
    4 entries                                                                                       
     n  l   j            E        occ.                                                              
     1  0  0.50      -514.6923   2.0000                                                             
     2  0  0.50       -23.9615   2.0000                                                             
     2  1  0.50        -9.0305   4.0000                                                             
     3  2  1.50        -9.5241   0.0000                                                             
   Description                                                                                      
     l       E           TYP  RCUT    TYP  RCUT                                                     
     0    -23.9615318     23  1.200                                                                 
     0     -9.5240782     23  1.200                                                                 
     1     -9.0304911     23  1.520                                                                 
     1      8.1634956     23  1.520                                                                 
     2     -9.5240782      7  1.500                                                                 
  local pseudopotential read in
  partial core-charges read in
  partial kinetic energy density read in
  kinetic energy density of atom read in
  atomic valenz-charges read in
  non local Contribution for L=           0  read in
    real space projection operators read in
  non local Contribution for L=           0  read in
    real space projection operators read in
  non local Contribution for L=           1  read in
    real space projection operators read in
  non local Contribution for L=           1  read in
    real space projection operators read in
    PAW grid and wavefunctions read in
 
   number of l-projection  operators is LMAX  =           4
   number of lm-projection operators is LMMAX =           8
 
 Optimization of the real space projectors (new method)

 maximal supplied QI-value         = 16.25
 optimisation between [QCUT,QGAM] = [ 11.54, 23.24] = [ 37.28,151.24] Ry 
 Optimized for a Real-space Cutoff    1.58 Angstroem

   l    n(q)    QCUT    max X(q) W(low)/X(q) W(high)/X(q)  e(spline) 
   0     11    11.539    11.817    0.25E-04    0.22E-05    0.26E-07
   0     11    11.539     8.461    0.39E-04    0.49E-05    0.55E-07
   1     11    11.539     3.957    0.21E-05    0.44E-05    0.32E-07
   1     11    11.539     4.314    0.56E-04    0.44E-04    0.19E-06
   2     10    11.539    14.565    0.25E-03    0.21E-04    0.75E-06
   2     10    11.539    14.552    0.23E-03    0.22E-04    0.72E-06
 Optimization of the real space projectors (new method)

 maximal supplied QI-value         = 16.25
 optimisation between [QCUT,QGAM] = [ 11.54, 23.24] = [ 37.28,151.24] Ry 
 Optimized for a Real-space Cutoff    1.53 Angstroem

   l    n(q)    QCUT    max X(q) W(low)/X(q) W(high)/X(q)  e(spline) 
   1     10    11.539     3.206    0.43E-05    0.46E-05    0.52E-07
   1     10    11.539     4.597    0.39E-04    0.25E-04    0.17E-06
   2     10    11.539    89.000    0.10E-03    0.13E-03    0.24E-06
   2     10    11.539    82.410    0.10E-03    0.13E-03    0.23E-06
   0     11    11.539    36.565    0.42E-04    0.19E-04    0.30E-06
   0     11    11.539    13.729    0.20E-04    0.13E-04    0.22E-06
 Optimization of the real space projectors (new method)

 maximal supplied QI-value         = 19.84
 optimisation between [QCUT,QGAM] = [ 11.51, 23.22] = [ 37.09,150.92] Ry 
 Optimized for a Real-space Cutoff    1.21 Angstroem

   l    n(q)    QCUT    max X(q) W(low)/X(q) W(high)/X(q)  e(spline) 
   0      8    11.508   160.924    0.96E-04    0.17E-03    0.52E-07
   0      8    11.508   130.086    0.95E-04    0.17E-03    0.51E-07
   1      8    11.508    74.434    0.16E-03    0.74E-04    0.91E-07
   1      8    11.508    49.120    0.16E-03    0.71E-04    0.89E-07
 Optimization of the real space projectors (new method)

 maximal supplied QI-value         = 24.76
 optimisation between [QCUT,QGAM] = [ 11.64, 23.27] = [ 37.91,151.63] Ry 
 Optimized for a Real-space Cutoff    1.14 Angstroem

   l    n(q)    QCUT    max X(q) W(low)/X(q) W(high)/X(q)  e(spline) 
   0      8    11.635    20.381    0.10E-03    0.33E-03    0.24E-06
   0      8    11.635    15.268    0.11E-03    0.35E-03    0.26E-06
   1      7    11.635     5.964    0.24E-03    0.31E-03    0.30E-06
   1      7    11.635     5.382    0.22E-03    0.25E-03    0.26E-06
  PAW_PBE Ca_sv 06Sep2000               :
 energy of atom  1       EATOM=-1006.0909
 kinetic energy error for atom=    0.0022 (will be added to EATOM!!)
  PAW_PBE V_pv 07Sep2000                :
 energy of atom  2       EATOM=-1321.6206
 kinetic energy error for atom=    0.0054 (will be added to EATOM!!)
  PAW_PBE P 06Sep2000                   :
 energy of atom  3       EATOM= -176.0430
 kinetic energy error for atom=    0.0011 (will be added to EATOM!!)
  PAW_PBE O 08Apr2002                   :
 energy of atom  4       EATOM= -432.3788
 kinetic energy error for atom=    0.0208 (will be added to EATOM!!)
 
 
 POSCAR: Ca1 V4 P6 O24
  positions in direct lattice
  velocities in cartesian coordinates
 exchange correlation table for  LEXCH =        8
   RHO(1)=    0.500       N(1)  =     2000
   RHO(2)=  100.500       N(2)  =     4000
 


--------------------------------------------------------------------------------------------------------


 ion  position               nearest neighbor table
   1  0.497  0.497  0.499-  23 2.41  16 2.42  12 2.42  14 2.42  21 2.42  19 2.42
   2  0.645  0.644  0.644-  27 1.87  29 1.87  25 1.87  14 2.01  16 2.01  12 2.01
   3  0.140  0.141  0.140-  15 1.91  17 1.91  13 1.91  28 1.93  26 1.93  24 1.93
   4  0.855  0.855  0.855-  18 1.91  22 1.91  20 1.92  31 1.93  35 1.93  33 1.93
   5  0.351  0.350  0.351-  34 1.87  32 1.87  30 1.87  23 2.01  19 2.01  21 2.01
   6  0.248  0.529  0.960-  22 1.53  24 1.54  30 1.54  14 1.55
   7  0.034  0.747  0.465-  17 1.53  31 1.54  25 1.55  21 1.55
   8  0.961  0.248  0.529-  18 1.53  26 1.54  32 1.55  16 1.55
   9  0.465  0.034  0.747-  13 1.53  33 1.54  27 1.54  23 1.55
  10  0.530  0.961  0.248-  20 1.53  28 1.54  34 1.55  12 1.55
  11  0.747  0.465  0.034-  15 1.53  35 1.54  29 1.54  19 1.55
  12  0.580  0.763  0.408-  10 1.55   2 2.01   1 2.42
  13  0.299  0.033  0.940-   9 1.53   3 1.91
  14  0.407  0.581  0.764-   6 1.55   2 2.01   1 2.42
  15  0.939  0.299  0.035-  11 1.53   3 1.91
  16  0.763  0.407  0.581-   8 1.55   2 2.01   1 2.42
  17  0.034  0.940  0.299-   7 1.53   3 1.91
  18  0.961  0.055  0.695-   8 1.53   4 1.91
  19  0.587  0.415  0.232-  11 1.55   5 2.01   1 2.42
  20  0.696  0.961  0.056-  10 1.53   4 1.92
  21  0.232  0.588  0.414-   7 1.55   5 2.01   1 2.42
  22  0.055  0.696  0.961-   6 1.53   4 1.91
  23  0.414  0.232  0.588-   9 1.55   5 2.01   1 2.41
  24  0.246  0.344  0.982-   6 1.54   3 1.93
  25  0.873  0.698  0.496-   7 1.55   2 1.87
  26  0.985  0.247  0.343-   8 1.54   3 1.93
  27  0.498  0.873  0.698-   9 1.54   2 1.87
  28  0.344  0.986  0.245-  10 1.54   3 1.93
  29  0.698  0.496  0.873-  11 1.54   2 1.87
  30  0.297  0.497  0.123-   6 1.54   5 1.87
  31  0.010  0.749  0.651-   7 1.54   4 1.93
  32  0.122  0.297  0.499-   8 1.55   5 1.87
  33  0.651  0.012  0.750-   9 1.54   4 1.93
  34  0.499  0.122  0.298-  10 1.55   5 1.87
  35  0.749  0.652  0.010-  11 1.54   4 1.93
 

IMPORTANT INFORMATION: All symmetrisations will be switched off!
NOSYMM: (Re-)initialisation of all symmetry stuff for point group C_1.


----------------------------------------------------------------------------------------

                                     Primitive cell                                     

  volume of cell :     453.9339

  direct lattice vectors                    reciprocal lattice vectors
     2.627576431  7.069018257  4.508790862    -0.001496393  0.143650391 -0.002558414
     0.214304131  0.158640048  8.782012261    -0.068721993 -0.048715212  0.116426117
     7.535313215  0.158894323  4.514299089     0.135184731 -0.048705674 -0.002419033

  length of vectors
     8.786601849  8.786058973  8.785504477     0.143680965  0.143704297  0.143711538

  position of ions in fractional coordinates (direct lattice)
     0.497042751  0.496942547  0.498568781
     0.644594438  0.644343356  0.644427434
     0.140209794  0.140652493  0.140005394
     0.854824633  0.854783417  0.854546576
     0.350606697  0.350105101  0.350966679
     0.247805348  0.529430814  0.960388322
     0.034463239  0.746991076  0.465201514
     0.960672351  0.248095875  0.529466306
     0.465461962  0.034362356  0.747356950
     0.529821850  0.960712989  0.248035575
     0.746872595  0.465399176  0.034423980
     0.579852298  0.763303519  0.407531318
     0.299070805  0.033419654  0.939947039
     0.407131226  0.581332804  0.763557182
     0.939145293  0.298576605  0.034781765
     0.763112956  0.406786141  0.581178240
     0.034456890  0.939608886  0.298952477
     0.961452419  0.054998567  0.695257101
     0.587425895  0.414787965  0.231612296
     0.696477341  0.960644930  0.055712461
     0.231689521  0.587780065  0.414145865
     0.055352717  0.696037554  0.960739153
     0.413855153  0.231672089  0.588246637
     0.245600883  0.344272524  0.982008962
     0.873072165  0.697733772  0.496281298
     0.984622789  0.246933072  0.342765777
     0.497804466  0.872614200  0.697850150
     0.343597211  0.986108186  0.244765251
     0.697963504  0.496378777  0.872884953
     0.296510049  0.496607747  0.122877335
     0.010378626  0.749279527  0.651385256
     0.121973474  0.297049849  0.498891418
     0.651101947  0.011607683  0.749537936
     0.498971870  0.121517711  0.297998319
     0.749404843  0.651528976  0.010104299

  ion indices of the primitive-cell ions
   primitive index   ion index
                 1           1
                 2           2
                 3           3
                 4           4
                 5           5
                 6           6
                 7           7
                 8           8
                 9           9
                10          10
                11          11
                12          12
                13          13
                14          14
                15          15
                16          16
                17          17
                18          18
                19          19
                20          20
                21          21
                22          22
                23          23
                24          24
                25          25
                26          26
                27          27
                28          28
                29          29
                30          30
                31          31
                32          32
                33          33
                34          34
                35          35

----------------------------------------------------------------------------------------

 
 
 KPOINTS: Fully automatic kpoint scheme           

Automatic generation of k-mesh.
 generate k-points for:    5    5    5
Space group operators:
 irot       det(A)        alpha          n_x          n_y          n_z        tau_x        tau_y        tau_z
    1     1.000000     0.000000     1.000000     0.000000     0.000000     0.000000     0.000000     0.000000
 
 Subroutine IBZKPT returns following result:
 ===========================================
 
 Found     63 irreducible k-points:
 
 Following reciprocal coordinates:
            Coordinates               Weight
  0.000000  0.000000  0.000000      1.000000
  0.200000 -0.000000  0.000000      2.000000
  0.400000 -0.000000 -0.000000      2.000000
  0.000000  0.200000  0.000000      2.000000
 -0.000000  0.000000 -0.200000      2.000000
  0.200000  0.200000 -0.000000      2.000000
 -0.200000  0.000000 -0.200000      2.000000
  0.400000  0.200000 -0.000000      2.000000
 -0.400000 -0.000000 -0.200000      2.000000
 -0.400000  0.200000 -0.000000      2.000000
  0.400000  0.000000 -0.200000      2.000000
 -0.200000  0.200000  0.000000      2.000000
  0.200000  0.000000 -0.200000      2.000000
  0.000000  0.400000 -0.000000      2.000000
 -0.000000  0.000000 -0.400000      2.000000
  0.200000  0.400000  0.000000      2.000000
 -0.200000  0.000000 -0.400000      2.000000
  0.400000  0.400000  0.000000      2.000000
 -0.400000 -0.000000 -0.400000      2.000000
 -0.400000  0.400000  0.000000      2.000000
  0.400000  0.000000 -0.400000      2.000000
 -0.200000  0.400000  0.000000      2.000000
  0.200000  0.000000 -0.400000      2.000000
  0.000000  0.200000  0.200000      2.000000
  0.200000  0.200000  0.200000      2.000000
  0.400000  0.200000  0.200000      2.000000
 -0.400000  0.200000  0.200000      2.000000
 -0.200000  0.200000  0.200000      2.000000
  0.000000  0.400000  0.200000      2.000000
 -0.000000 -0.200000 -0.400000      2.000000
  0.200000  0.400000  0.200000      2.000000
 -0.200000 -0.200000 -0.400000      2.000000
  0.400000  0.400000  0.200000      2.000000
 -0.400000 -0.200000 -0.400000      2.000000
 -0.400000  0.400000  0.200000      2.000000
  0.400000 -0.200000 -0.400000      2.000000
 -0.200000  0.400000  0.200000      2.000000
  0.200000 -0.200000 -0.400000      2.000000
 -0.000000 -0.400000  0.200000      2.000000
 -0.000000 -0.200000  0.400000      2.000000
  0.200000 -0.400000  0.200000      2.000000
 -0.200000 -0.200000  0.400000      2.000000
  0.400000 -0.400000  0.200000      2.000000
 -0.400000 -0.200000  0.400000      2.000000
 -0.400000 -0.400000  0.200000      2.000000
  0.400000 -0.200000  0.400000      2.000000
 -0.200000 -0.400000  0.200000      2.000000
  0.200000 -0.200000  0.400000      2.000000
 -0.000000 -0.200000  0.200000      2.000000
  0.200000 -0.200000  0.200000      2.000000
 -0.200000 -0.200000  0.200000      2.000000
  0.400000 -0.200000  0.200000      2.000000
 -0.400000 -0.200000  0.200000      2.000000
  0.000000  0.400000  0.400000      2.000000
  0.200000  0.400000  0.400000      2.000000
  0.400000  0.400000  0.400000      2.000000
 -0.400000  0.400000  0.400000      2.000000
 -0.200000  0.400000  0.400000      2.000000
 -0.000000 -0.400000  0.400000      2.000000
  0.200000 -0.400000  0.400000      2.000000
 -0.200000 -0.400000  0.400000      2.000000
  0.400000 -0.400000  0.400000      2.000000
 -0.400000 -0.400000  0.400000      2.000000
 
 Following cartesian coordinates:
            Coordinates               Weight
  0.000000  0.000000  0.000000      1.000000
 -0.000299  0.028730 -0.000512      2.000000
 -0.000599  0.057460 -0.001023      2.000000
 -0.013744 -0.009743  0.023285      2.000000
 -0.027037  0.009741  0.000484      2.000000
 -0.014044  0.018987  0.022774      2.000000
 -0.026738 -0.018989  0.000995      2.000000
 -0.014343  0.047717  0.022262      2.000000
 -0.026438 -0.047719  0.001507      2.000000
 -0.013146 -0.067203  0.024309      2.000000
 -0.027636  0.067201 -0.000540      2.000000
 -0.013445 -0.038473  0.023797      2.000000
 -0.027336  0.038471 -0.000028      2.000000
 -0.027489 -0.019486  0.046570      2.000000
 -0.054074  0.019482  0.000968      2.000000
 -0.027788  0.009244  0.046059      2.000000
 -0.053775 -0.009248  0.001479      2.000000
 -0.028087  0.037974  0.045547      2.000000
 -0.053475 -0.037978  0.001991      2.000000
 -0.026890 -0.076946  0.047594      2.000000
 -0.054672  0.076942 -0.000056      2.000000
 -0.027190 -0.048216  0.047082      2.000000
 -0.054373  0.048212  0.000456      2.000000
  0.013293 -0.019484  0.022801      2.000000
  0.012993  0.009246  0.022290      2.000000
  0.012694  0.037976  0.021778      2.000000
  0.013891 -0.076944  0.023825      2.000000
  0.013592 -0.048214  0.023313      2.000000
 -0.000452 -0.029227  0.046087      2.000000
 -0.040329  0.029225 -0.022318      2.000000
 -0.000751 -0.000497  0.045575      2.000000
 -0.040030  0.000495 -0.021806      2.000000
 -0.001050  0.028233  0.045063      2.000000
 -0.039731 -0.028235 -0.021294      2.000000
  0.000147 -0.086687  0.047110      2.000000
 -0.040928  0.086685 -0.023341      2.000000
 -0.000153 -0.057957  0.046598      2.000000
 -0.040629  0.057955 -0.022829      2.000000
  0.054526  0.009745 -0.047054      2.000000
  0.067818 -0.009739 -0.024253      2.000000
  0.054226  0.038475 -0.047566      2.000000
  0.068118 -0.038469 -0.023741      2.000000
  0.053927  0.067205 -0.048078      2.000000
  0.068417 -0.067199 -0.023229      2.000000
  0.055124 -0.047715 -0.046031      2.000000
  0.067220  0.047721 -0.025276      2.000000
  0.054825 -0.018985 -0.046543      2.000000
  0.067519  0.018991 -0.024765      2.000000
  0.040781  0.000002 -0.023769      2.000000
  0.040482  0.028732 -0.024281      2.000000
  0.041081 -0.028728 -0.023257      2.000000
  0.040183  0.057462 -0.024792      2.000000
  0.041380 -0.057458 -0.022746      2.000000
  0.026585 -0.038968  0.045603      2.000000
  0.026286 -0.010238  0.045091      2.000000
  0.025987  0.018492  0.044579      2.000000
  0.027184 -0.096429  0.046626      2.000000
  0.026884 -0.067698  0.046115      2.000000
  0.081563  0.000004 -0.047538      2.000000
  0.081263  0.028734 -0.048050      2.000000
  0.081862 -0.028726 -0.047026      2.000000
  0.080964  0.057464 -0.048561      2.000000
  0.082161 -0.057456 -0.046515      2.000000
 


--------------------------------------------------------------------------------------------------------




 Dimension of arrays:
   k-points           NKPTS =     63   k-points in BZ     NKDIM =     63   number of bands    NBANDS=    148
   number of dos      NEDOS =    301   number of ions     NIONS =     35
   non local maximal  LDIM  =      6   non local SUM 2l+1 LMDIM =     18
   total plane-waves  NPLWV = 343000
   max r-space proj   IRMAX =  12530   max aug-charges    IRDMAX=  36247
   dimension x,y,z NGX =    70 NGY =   70 NGZ =   70
   dimension x,y,z NGXF=   140 NGYF=  140 NGZF=  140
   support grid    NGXF=   140 NGYF=  140 NGZF=  140
   ions per type =               1   4   6  24
   NGX,Y,Z   is equivalent  to a cutoff of  13.24, 13.25, 13.25 a.u.
   NGXF,Y,Z  is equivalent  to a cutoff of  26.49, 26.49, 26.49 a.u.

 SYSTEM =  unknown system                          
 POSCAR =  Ca1 V4 P6 O24                           

 Startparameter for this run:
   NWRITE =      2    write-flag & timer
   PREC   = accura    normal or accurate (medium, high low for compatibility)
   ISTART =      0    job   : 0-new  1-cont  2-samecut
   ICHARG =      1    charge: 1-file 2-atom 10-const
   ISPIN  =      2    spin polarized calculation?
   LNONCOLLINEAR =      F non collinear calculations
   LSORBIT =      F    spin-orbit coupling
   INIWAV =      1    electr: 0-lowe 1-rand  2-diag
   LASPH  =      F    aspherical Exc in radial PAW
   METAGGA=      F    non-selfconsistent MetaGGA calc.

 Electronic Relaxation 1
   ENCUT  =  520.0 eV  38.22 Ry    6.18 a.u.  16.34 16.34 16.34*2*pi/ulx,y,z
   ENINI  =  520.0     initial cutoff
   ENAUG  =  605.4 eV  augmentation charge cutoff
   NELM   =    150;   NELMIN=  6; NELMDL= -5     # of ELM steps 
   EDIFF  = 0.1E-04   stopping-criterion for ELM
   LREAL  =      T    real-space projection
   NLSPLINE    = F    spline interpolate recip. space projectors
   LCOMPAT=      F    compatible to vasp.4.4
   GGA_COMPAT  = T    GGA compatible to vasp.4.4-vasp.4.6
   LMAXPAW     = -100 max onsite density
   LMAXMIX     =    2 max onsite mixed and CHGCAR
   VOSKOWN=      0    Vosko Wilk Nusair interpolation
   ROPT   =   -0.00025  -0.00025  -0.00025  -0.00025
 Ionic relaxation
   EDIFFG = -.3E-01   stopping-criterion for IOM
   NSW    =    199    number of steps for IOM
   NBLOCK =      1;   KBLOCK =    199    inner block; outer block 
   IBRION =      2    ionic relax: 0-MD 1-quasi-New 2-CG
   NFREE  =      1    steps in history (QN), initial steepest desc. (CG)
   ISIF   =      3    stress and relaxation
   IWAVPR =     11    prediction:  0-non 1-charg 2-wave 3-comb
   ISYM   =      0    0-nonsym 1-usesym 2-fastsym
   LCORR  =      T    Harris-Foulkes like correction to forces

   POTIM  = 0.5000    time-step for ionic-motion
   TEIN   =    0.0    initial temperature
   TEBEG  =    0.0;   TEEND  =   0.0 temperature during run
   SMASS  =  -3.00    Nose mass-parameter (am)
   estimated Nose-frequenzy (Omega)   =  0.10E-29 period in steps = 0.13E+47 mass=  -0.176E-26a.u.
   SCALEE = 1.0000    scale energy and forces
   NPACO  =    256;   APACO  = 16.0  distance and # of slots for P.C.
   PSTRESS=    0.0 pullay stress

  Mass of Ions in am
   POMASS =  40.08 50.94 30.97 16.00
  Ionic Valenz
   ZVAL   =  10.00 11.00  5.00  6.00
  Atomic Wigner-Seitz radii
   RWIGS  =  -1.00 -1.00 -1.00 -1.00
  virtual crystal weights 
   VCA    =   1.00  1.00  1.00  1.00
   NELECT =     228.0000    total number of electrons
   NUPDOWN=      -1.0000    fix difference up-down

 DOS related values:
   EMIN   =  10.00;   EMAX   =-10.00  energy-range for DOS
   EFERMI =   0.00
   ISMEAR =     0;   SIGMA  =   0.05  broadening in eV -4-tet -1-fermi 0-gaus

 Electronic relaxation 2 (details)
   IALGO  =     38    algorithm
   LDIAG  =      T    sub-space diagonalisation (order eigenvalues)
   LSUBROT=      F    optimize rotation matrix (better conditioning)
   TURBO    =      0    0=normal 1=particle mesh
   IRESTART =      0    0=no restart 2=restart with 2 vectors
   NREBOOT  =      0    no. of reboots
   NMIN     =      0    reboot dimension
   EREF     =   0.00    reference energy to select bands
   IMIX   =      4    mixing-type and parameters
     AMIX     =   0.40;   BMIX     =  1.00
     AMIX_MAG =   1.60;   BMIX_MAG =  1.00
     AMIN     =   0.10
     WC   =   100.;   INIMIX=   1;  MIXPRE=   1;  MAXMIX= -45

 Intra band minimization:
   WEIMIN = 0.0010     energy-eigenvalue tresh-hold
   EBREAK =  0.17E-07  absolut break condition
   DEPER  =   0.30     relativ break condition  

   TIME   =   0.40     timestep for ELM

  volume/ion in A,a.u.               =      12.97        87.52
  Fermi-wavevector in a.u.,A,eV,Ry     =   1.301334  2.459165 23.041075  1.693471
  Thomas-Fermi vector in A             =   2.432475
 
 Write flags
   LWAVE        =      F    write WAVECAR
   LDOWNSAMPLE  =      F    k-point downsampling of WAVECAR
   LCHARG       =      T    write CHGCAR
   LVTOT        =      F    write LOCPOT, total local potential
   LVHAR        =      F    write LOCPOT, Hartree potential only
   LELF         =      F    write electronic localiz. function (ELF)
   LORBIT       =     11    0 simple, 1 ext, 2 COOP (PROOUT), +10 PAW based schemes


 Dipole corrections
   LMONO  =      F    monopole corrections only (constant potential shift)
   LDIPOL =      F    correct potential (dipole corrections)
   IDIPOL =      0    1-x, 2-y, 3-z, 4-all directions 
   EPSILON=  1.0000000 bulk dielectric constant

 Exchange correlation treatment:
   GGA     =    --    GGA type
   LEXCH   =     8    internal setting for exchange type
   VOSKOWN=      0    Vosko Wilk Nusair interpolation
   LHFCALC =     F    Hartree Fock is set to
   LHFONE  =     F    Hartree Fock one center treatment
   AEXX    =    0.0000 exact exchange contribution

 Linear response parameters
   LEPSILON=     F    determine dielectric tensor
   LRPA    =     F    only Hartree local field effects (RPA)
   LNABLA  =     F    use nabla operator in PAW spheres
   LVEL    =     F    velocity operator in full k-point grid
   LINTERFAST=   F  fast interpolation
   KINTER  =     0    interpolate to denser k-point grid
   CSHIFT  =0.1000    complex shift for real part using Kramers Kronig
   OMEGAMAX=  -1.0    maximum frequency
   DEG_THRESHOLD= 0.2000000E-02 threshold for treating states as degnerate
   RTIME   =   -0.100 relaxation time in fs
  (WPLASMAI=    0.000 imaginary part of plasma frequency in eV, 0.658/RTIME)
   DFIELD  = 0.0000000 0.0000000 0.0000000 field for delta impulse in time
 
 Orbital magnetization related:
   ORBITALMAG=     F  switch on orbital magnetization
   LCHIMAG   =     F  perturbation theory with respect to B field
   DQ        =  0.001000  dq finite difference perturbation B field
   LLRAUG    =     F  two centre corrections for induced B field



--------------------------------------------------------------------------------------------------------


 conjugate gradient relaxation of ions
 charge density and potential will be updated during run
 spin polarized calculation
 Variant of blocked Davidson
 Davidson routine will perform the subspace rotation
 perform sub-space diagonalisation
    after iterative eigenvector-optimisation
 modified Broyden-mixing scheme, WC =      100.0
 initial mixing is a Kerker type mixing with AMIX =  0.4000 and BMIX =      1.0000
 Hartree-type preconditioning will be used
 using additional bands           34
 real space projection scheme for non local part
 use partial core corrections
 calculate Harris-corrections to forces 
   (improved forces if not selfconsistent)
 use gradient corrections 
 use of overlap-Matrix (Vanderbilt PP)
 Gauss-broadening in eV      SIGMA  =   0.05


--------------------------------------------------------------------------------------------------------


  energy-cutoff  :      520.00
  volume of cell :      453.93
      direct lattice vectors                 reciprocal lattice vectors
     2.627576431  7.069018257  4.508790862    -0.001496393  0.143650391 -0.002558414
     0.214304131  0.158640048  8.782012261    -0.068721993 -0.048715212  0.116426117
     7.535313215  0.158894323  4.514299089     0.135184731 -0.048705674 -0.002419033

  length of vectors
     8.786601849  8.786058973  8.785504477     0.143680965  0.143704297  0.143711538


 
 k-points in units of 2pi/SCALE and weight: Fully automatic kpoint scheme           
   0.00000000  0.00000000  0.00000000       0.008
  -0.00029928  0.02873008 -0.00051168       0.016
  -0.00059856  0.05746016 -0.00102337       0.016
  -0.01374440 -0.00974304  0.02328522       0.016
  -0.02703695  0.00974113  0.00048381       0.016
  -0.01404368  0.01898704  0.02277354       0.016
  -0.02673767 -0.01898894  0.00099549       0.016
  -0.01434296  0.04771711  0.02226186       0.016
  -0.02643839 -0.04771902  0.00150717       0.016
  -0.01314584 -0.06720320  0.02430859       0.016
  -0.02763550  0.06720129 -0.00053956       0.016
  -0.01344512 -0.03847312  0.02379691       0.016
  -0.02733622  0.03847121 -0.00002788       0.016
  -0.02748880 -0.01948608  0.04657045       0.016
  -0.05407389  0.01948227  0.00096761       0.016
  -0.02778808  0.00924399  0.04605876       0.016
  -0.05377461 -0.00924781  0.00147930       0.016
  -0.02808735  0.03797407  0.04554708       0.016
  -0.05347534 -0.03797789  0.00199098       0.016
  -0.02689024 -0.07694624  0.04759381       0.016
  -0.05467245  0.07694243 -0.00005575       0.016
  -0.02718952 -0.04821616  0.04708213       0.016
  -0.05437317  0.04821235  0.00045593       0.016
   0.01329255 -0.01948418  0.02280142       0.016
   0.01299327  0.00924590  0.02228973       0.016
   0.01269399  0.03797598  0.02177805       0.016
   0.01389110 -0.07694433  0.02382478       0.016
   0.01359183 -0.04821426  0.02331310       0.016
  -0.00045185 -0.02922722  0.04608664       0.016
  -0.04032949  0.02922531 -0.02231761       0.016
  -0.00075113 -0.00049714  0.04557496       0.016
  -0.04003022  0.00049523 -0.02180593       0.016
  -0.00105041  0.02823294  0.04506327       0.016
  -0.03973094 -0.02823484 -0.02129424       0.016
   0.00014671 -0.08668738  0.04711001       0.016
  -0.04092805  0.08668547 -0.02334098       0.016
  -0.00015257 -0.05795730  0.04659832       0.016
  -0.04062877  0.05795539 -0.02282929       0.016
   0.05452574  0.00974495 -0.04705425       0.016
   0.06781829 -0.00973923 -0.02425284       0.016
   0.05422647  0.03847503 -0.04756594       0.016
   0.06811757 -0.03846931 -0.02374115       0.016
   0.05392719  0.06720511 -0.04807762       0.016
   0.06841685 -0.06719938 -0.02322947       0.016
   0.05512430 -0.04771521 -0.04603089       0.016
   0.06721973  0.04772093 -0.02527620       0.016
   0.05482502 -0.01898513 -0.04654257       0.016
   0.06751901  0.01899085 -0.02476452       0.016
   0.04078134  0.00000191 -0.02376903       0.016
   0.04048207  0.02873199 -0.02428071       0.016
   0.04108062 -0.02872817 -0.02325735       0.016
   0.04018279  0.05746206 -0.02479240       0.016
   0.04137990 -0.05745825 -0.02274566       0.016
   0.02658510 -0.03896835  0.04560283       0.016
   0.02628582 -0.01023828  0.04509115       0.016
   0.02598654  0.01849180  0.04457947       0.016
   0.02718365 -0.09642851  0.04662620       0.016
   0.02688437 -0.06769843  0.04611452       0.016
   0.08156269  0.00000382 -0.04753806       0.016
   0.08126341  0.02873389 -0.04804974       0.016
   0.08186197 -0.02872626 -0.04702638       0.016
   0.08096413  0.05746397 -0.04856143       0.016
   0.08216125 -0.05745634 -0.04651469       0.016
 
 k-points in reciprocal lattice and weights: Fully automatic kpoint scheme           
   0.00000000  0.00000000  0.00000000       0.008
   0.20000000 -0.00000000  0.00000000       0.016
   0.40000000 -0.00000000 -0.00000000       0.016
   0.00000000  0.20000000  0.00000000       0.016
  -0.00000000  0.00000000 -0.20000000       0.016
   0.20000000  0.20000000 -0.00000000       0.016
  -0.20000000  0.00000000 -0.20000000       0.016
   0.40000000  0.20000000 -0.00000000       0.016
  -0.40000000 -0.00000000 -0.20000000       0.016
  -0.40000000  0.20000000 -0.00000000       0.016
   0.40000000  0.00000000 -0.20000000       0.016
  -0.20000000  0.20000000  0.00000000       0.016
   0.20000000  0.00000000 -0.20000000       0.016
   0.00000000  0.40000000 -0.00000000       0.016
  -0.00000000  0.00000000 -0.40000000       0.016
   0.20000000  0.40000000  0.00000000       0.016
  -0.20000000  0.00000000 -0.40000000       0.016
   0.40000000  0.40000000  0.00000000       0.016
  -0.40000000 -0.00000000 -0.40000000       0.016
  -0.40000000  0.40000000  0.00000000       0.016
   0.40000000  0.00000000 -0.40000000       0.016
  -0.20000000  0.40000000  0.00000000       0.016
   0.20000000  0.00000000 -0.40000000       0.016
   0.00000000  0.20000000  0.20000000       0.016
   0.20000000  0.20000000  0.20000000       0.016
   0.40000000  0.20000000  0.20000000       0.016
  -0.40000000  0.20000000  0.20000000       0.016
  -0.20000000  0.20000000  0.20000000       0.016
   0.00000000  0.40000000  0.20000000       0.016
  -0.00000000 -0.20000000 -0.40000000       0.016
   0.20000000  0.40000000  0.20000000       0.016
  -0.20000000 -0.20000000 -0.40000000       0.016
   0.40000000  0.40000000  0.20000000       0.016
  -0.40000000 -0.20000000 -0.40000000       0.016
  -0.40000000  0.40000000  0.20000000       0.016
   0.40000000 -0.20000000 -0.40000000       0.016
  -0.20000000  0.40000000  0.20000000       0.016
   0.20000000 -0.20000000 -0.40000000       0.016
  -0.00000000 -0.40000000  0.20000000       0.016
  -0.00000000 -0.20000000  0.40000000       0.016
   0.20000000 -0.40000000  0.20000000       0.016
  -0.20000000 -0.20000000  0.40000000       0.016
   0.40000000 -0.40000000  0.20000000       0.016
  -0.40000000 -0.20000000  0.40000000       0.016
  -0.40000000 -0.40000000  0.20000000       0.016
   0.40000000 -0.20000000  0.40000000       0.016
  -0.20000000 -0.40000000  0.20000000       0.016
   0.20000000 -0.20000000  0.40000000       0.016
  -0.00000000 -0.20000000  0.20000000       0.016
   0.20000000 -0.20000000  0.20000000       0.016
  -0.20000000 -0.20000000  0.20000000       0.016
   0.40000000 -0.20000000  0.20000000       0.016
  -0.40000000 -0.20000000  0.20000000       0.016
   0.00000000  0.40000000  0.40000000       0.016
   0.20000000  0.40000000  0.40000000       0.016
   0.40000000  0.40000000  0.40000000       0.016
  -0.40000000  0.40000000  0.40000000       0.016
  -0.20000000  0.40000000  0.40000000       0.016
  -0.00000000 -0.40000000  0.40000000       0.016
   0.20000000 -0.40000000  0.40000000       0.016
  -0.20000000 -0.40000000  0.40000000       0.016
   0.40000000 -0.40000000  0.40000000       0.016
  -0.40000000 -0.40000000  0.40000000       0.016
 
 position of ions in fractional coordinates (direct lattice) 
   0.49704275  0.49694255  0.49856878
   0.64459444  0.64434336  0.64442743
   0.14020979  0.14065249  0.14000539
   0.85482463  0.85478342  0.85454658
   0.35060670  0.35010510  0.35096668
   0.24780535  0.52943081  0.96038832
   0.03446324  0.74699108  0.46520151
   0.96067235  0.24809587  0.52946631
   0.46546196  0.03436236  0.74735695
   0.52982185  0.96071299  0.24803558
   0.74687259  0.46539918  0.03442398
   0.57985230  0.76330352  0.40753132
   0.29907081  0.03341965  0.93994704
   0.40713123  0.58133280  0.76355718
   0.93914529  0.29857660  0.03478177
   0.76311296  0.40678614  0.58117824
   0.03445689  0.93960889  0.29895248
   0.96145242  0.05499857  0.69525710
   0.58742590  0.41478797  0.23161230
   0.69647734  0.96064493  0.05571246
   0.23168952  0.58778007  0.41414587
   0.05535272  0.69603755  0.96073915
   0.41385515  0.23167209  0.58824664
   0.24560088  0.34427252  0.98200896
   0.87307216  0.69773377  0.49628130
   0.98462279  0.24693307  0.34276578
   0.49780447  0.87261420  0.69785015
   0.34359721  0.98610819  0.24476525
   0.69796350  0.49637878  0.87288495
   0.29651005  0.49660775  0.12287733
   0.01037863  0.74927953  0.65138526
   0.12197347  0.29704985  0.49889142
   0.65110195  0.01160768  0.74953794
   0.49897187  0.12151771  0.29799832
   0.74940484  0.65152898  0.01010430
 
 position of ions in cartesian coordinates  (Angst):
   5.16938658  3.67165902  8.85590595
   6.68776916  4.76126437 11.47411094
   1.45353886  1.03570477  2.49941478
   8.86857679  6.31415642 15.21862277
   3.64091872  2.58975245  6.23980813
   8.00141352  1.98832971 10.10225052
   3.75607719  0.43604185  8.81553110
   6.56710245  6.91449752  8.90042100
   6.86196957  3.41456113  5.77423406
   3.46705792  3.93713933 11.94555593
   2.32159726  5.35895673  7.61003374
   4.75806146  4.28483140 11.15749187
   7.87578871  2.26879093  5.88514159
   6.94799296  3.09156563 10.38786685
   2.79375374  6.69172806  7.01352841
   6.47167364  5.55133791  9.63673000
   2.54460073  0.44013783  9.75657656
   7.77705616  6.91572208  7.95658447
   3.37766841  4.25512824  7.33682068
   2.45572847  5.08466019 11.82816894
   3.85546443  1.79686834  8.07610964
   7.53407765  0.65436480 10.69924804
   5.56970699  3.05577115  6.55605471
   8.11885923  1.94680818  8.56385071
   6.18322609  6.36130787 12.30436855
   5.22293790  7.05395348  8.15537474
   6.75354357  3.76830485 13.05810913
   2.95853783  2.62422302 11.31416570
   8.51779000  5.15135877 11.44663972
   1.81144711  2.19434134  6.25282217
   5.09623625  0.29573385  9.56752491
   4.14345673  0.98862773  5.41079337
   7.36131082  4.72359032  6.42125974
   3.58263914  3.59386907  4.66218337
   2.18488291  5.40252062  9.14625899
 


--------------------------------------------------------------------------------------------------------


 k-point   1 :   0.0000 0.0000 0.0000  plane waves:   12257
 k-point   2 :   0.2000-0.0000 0.0000  plane waves:   12233
 k-point   3 :   0.4000-0.0000-0.0000  plane waves:   12233
 k-point   4 :   0.0000 0.2000 0.0000  plane waves:   12234
 k-point   5 :  -0.0000 0.0000-0.2000  plane waves:   12234
 k-point   6 :   0.2000 0.2000-0.0000  plane waves:   12234
 k-point   7 :  -0.2000 0.0000-0.2000  plane waves:   12234
 k-point   8 :   0.4000 0.2000-0.0000  plane waves:   12220
 k-point   9 :  -0.4000-0.0000-0.2000  plane waves:   12221
 k-point  10 :  -0.4000 0.2000-0.0000  plane waves:   12229
 k-point  11 :   0.4000 0.0000-0.2000  plane waves:   12229
 k-point  12 :  -0.2000 0.2000 0.0000  plane waves:   12220
 k-point  13 :   0.2000 0.0000-0.2000  plane waves:   12220
 k-point  14 :   0.0000 0.4000-0.0000  plane waves:   12234
 k-point  15 :  -0.0000 0.0000-0.4000  plane waves:   12233
 k-point  16 :   0.2000 0.4000 0.0000  plane waves:   12219
 k-point  17 :  -0.2000 0.0000-0.4000  plane waves:   12219
 k-point  18 :   0.4000 0.4000 0.0000  plane waves:   12232
 k-point  19 :  -0.4000-0.0000-0.4000  plane waves:   12232
 k-point  20 :  -0.4000 0.4000 0.0000  plane waves:   12192
 k-point  21 :   0.4000 0.0000-0.4000  plane waves:   12194
 k-point  22 :  -0.2000 0.4000 0.0000  plane waves:   12228
 k-point  23 :   0.2000 0.0000-0.4000  plane waves:   12228
 k-point  24 :   0.0000 0.2000 0.2000  plane waves:   12233
 k-point  25 :   0.2000 0.2000 0.2000  plane waves:   12213
 k-point  26 :   0.4000 0.2000 0.2000  plane waves:   12222
 k-point  27 :  -0.4000 0.2000 0.2000  plane waves:   12252
 k-point  28 :  -0.2000 0.2000 0.2000  plane waves:   12227
 k-point  29 :   0.0000 0.4000 0.2000  plane waves:   12221
 k-point  30 :  -0.0000-0.2000-0.4000  plane waves:   12219
 k-point  31 :   0.2000 0.4000 0.2000  plane waves:   12224
 k-point  32 :  -0.2000-0.2000-0.4000  plane waves:   12224
 k-point  33 :   0.4000 0.4000 0.2000  plane waves:   12217
 k-point  34 :  -0.4000-0.2000-0.4000  plane waves:   12216
 k-point  35 :  -0.4000 0.4000 0.2000  plane waves:   12209
 k-point  36 :   0.4000-0.2000-0.4000  plane waves:   12209
 k-point  37 :  -0.2000 0.4000 0.2000  plane waves:   12229
 k-point  38 :   0.2000-0.2000-0.4000  plane waves:   12231
 k-point  39 :  -0.0000-0.4000 0.2000  plane waves:   12228
 k-point  40 :  -0.0000-0.2000 0.4000  plane waves:   12227
 k-point  41 :   0.2000-0.4000 0.2000  plane waves:   12251
 k-point  42 :  -0.2000-0.2000 0.4000  plane waves:   12251
 k-point  43 :   0.4000-0.4000 0.2000  plane waves:   12210
 k-point  44 :  -0.4000-0.2000 0.4000  plane waves:   12210
 k-point  45 :  -0.4000-0.4000 0.2000  plane waves:   12219
 k-point  46 :   0.4000-0.2000 0.4000  plane waves:   12218
 k-point  47 :  -0.2000-0.4000 0.2000  plane waves:   12231
 k-point  48 :   0.2000-0.2000 0.4000  plane waves:   12230
 k-point  49 :  -0.0000-0.2000 0.2000  plane waves:   12222
 k-point  50 :   0.2000-0.2000 0.2000  plane waves:   12224
 k-point  51 :  -0.2000-0.2000 0.2000  plane waves:   12225
 k-point  52 :   0.4000-0.2000 0.2000  plane waves:   12231
 k-point  53 :  -0.4000-0.2000 0.2000  plane waves:   12232
 k-point  54 :   0.0000 0.4000 0.4000  plane waves:   12233
 k-point  55 :   0.2000 0.4000 0.4000  plane waves:   12221
 k-point  56 :   0.4000 0.4000 0.4000  plane waves:   12239
 k-point  57 :  -0.4000 0.4000 0.4000  plane waves:   12210
 k-point  58 :  -0.2000 0.4000 0.4000  plane waves:   12218
 k-point  59 :  -0.0000-0.4000 0.4000  plane waves:   12196
 k-point  60 :   0.2000-0.4000 0.4000  plane waves:   12210
 k-point  61 :  -0.2000-0.4000 0.4000  plane waves:   12210
 k-point  62 :   0.4000-0.4000 0.4000  plane waves:   12211
 k-point  63 :  -0.4000-0.4000 0.4000  plane waves:   12211

 maximum and minimum number of plane-waves per node :       799      729

 maximum number of plane-waves:     12257
 maximum index in each direction: 
   IXMAX=   16   IYMAX=   16   IZMAX=   16
   IXMIN=  -16   IYMIN=  -16   IZMIN=  -16


 real space projection operators:
  total allocation   :      16835.98 KBytes
  max/ min on nodes  :       1238.39        924.22


 parallel 3D FFT for wavefunctions:
    minimum data exchange during FFTs selected (reduces bandwidth)
 parallel 3D FFT for charge:
    minimum data exchange during FFTs selected (reduces bandwidth)


 total amount of memory used by VASP MPI-rank0   111723. kBytes
=======================================================================

   base      :      30000. kBytes
   nonlr-proj:       8977. kBytes
   fftplans  :       2612. kBytes
   grid      :       7683. kBytes
   one-center:         93. kBytes
   wavefun   :      62358. kBytes
 
     INWAV:  cpu time    0.0001: real time    0.0001
 Broyden mixing: mesh for mixing (old mesh)
   NGX = 33   NGY = 33   NGZ = 33
  (NGX  =140   NGY  =140   NGZ  =140)
  gives a total of  35937 points

 initial charge density was supplied:
 number of electron     228.0000006 magnetization       4.0000001
 keeping initial charge density in first step


--------------------------------------------------------------------------------------------------------


 Maximum index for non-local projection operator         1022
 Maximum index for augmentation-charges         1565 (set IRDMAX)


--------------------------------------------------------------------------------------------------------


 First call to EWALD:  gamma=   0.231
 Maximum number of real-space cells 3x 3x 3
 Maximum number of reciprocal cells 3x 3x 3

    FEWALD:  cpu time    0.0016: real time    0.0017


--------------------------------------- Iteration      1(   1)  ---------------------------------------


    POTLOK:  cpu time    0.0685: real time    0.0939
    SETDIJ:  cpu time    0.0103: real time    0.0103
     EDDAV:  cpu time   22.0745: real time   22.2719
       DOS:  cpu time    0.0130: real time    0.0130
    --------------------------------------------
      LOOP:  cpu time   22.1663: real time   22.3891

 eigenvalue-minimisations  : 39456
 total energy-change (2. order) : 0.2218329E+04  (-0.1216401E+05)
 number of electron     228.0000006 magnetization       4.0000001
 augmentation part      228.0000006 magnetization       4.0000001

 Free energy of the ion-electron system (eV)
  ---------------------------------------------------
  alpha Z        PSCENC =       654.91004932
  Ewald energy   TEWEN  =    -10518.87480151
  -Hartree energ DENC   =     -6768.99267641
  -exchange      EXHF   =         0.00000000
  -V(xc)+E(xc)   XCENC  =       869.88914482
  PAW double counting   =     32915.22342084   -32842.29601980
  entropy T*S    EENTRO =        -0.01326846
  eigenvalues    EBANDS =       183.09062326
  atomic energy  EATOM  =     17725.39291388
  Solvation  Ediel_sol  =         0.00000000
  ---------------------------------------------------
  free energy    TOTEN  =      2218.32938595 eV

  energy without entropy =     2218.34265441  energy(sigma->0) =     2218.33602018


--------------------------------------------------------------------------------------------------------




--------------------------------------- Iteration      1(   2)  ---------------------------------------


     EDDAV:  cpu time   22.5355: real time   22.7204
       DOS:  cpu time    0.0134: real time    0.0133
    --------------------------------------------
      LOOP:  cpu time   22.5489: real time   22.7337

 eigenvalue-minimisations  : 40800
 total energy-change (2. order) :-0.2240354E+04  (-0.2094197E+04)
 number of electron     228.0000006 magnetization       4.0000001
 augmentation part      228.0000006 magnetization       4.0000001

 Free energy of the ion-electron system (eV)
  ---------------------------------------------------
  alpha Z        PSCENC =       654.91004932
  Ewald energy   TEWEN  =    -10518.87480151
  -Hartree energ DENC   =     -6768.99267641
  -exchange      EXHF   =         0.00000000
  -V(xc)+E(xc)   XCENC  =       869.88914482
  PAW double counting   =     32915.22342084   -32842.29601980
  entropy T*S    EENTRO =        -0.01266831
  eigenvalues    EBANDS =     -2057.26432999
  atomic energy  EATOM  =     17725.39291388
  Solvation  Ediel_sol  =         0.00000000
  ---------------------------------------------------
  free energy    TOTEN  =       -22.02496715 eV

  energy without entropy =      -22.01229884  energy(sigma->0) =      -22.01863300


--------------------------------------------------------------------------------------------------------




--------------------------------------- Iteration      1(   3)  ---------------------------------------


     EDDAV:  cpu time   23.1206: real time   23.3131
       DOS:  cpu time    0.0137: real time    0.0137
    --------------------------------------------
      LOOP:  cpu time   23.1342: real time   23.3267

 eigenvalue-minimisations  : 44112
 total energy-change (2. order) :-0.2401794E+03  (-0.2291456E+03)
 number of electron     228.0000006 magnetization       4.0000001
 augmentation part      228.0000006 magnetization       4.0000001

 Free energy of the ion-electron system (eV)
  ---------------------------------------------------
  alpha Z        PSCENC =       654.91004932
  Ewald energy   TEWEN  =    -10518.87480151
  -Hartree energ DENC   =     -6768.99267641
  -exchange      EXHF   =         0.00000000
  -V(xc)+E(xc)   XCENC  =       869.88914482
  PAW double counting   =     32915.22342084   -32842.29601980
  entropy T*S    EENTRO =        -0.02211096
  eigenvalues    EBANDS =     -2297.43428914
  atomic energy  EATOM  =     17725.39291388
  Solvation  Ediel_sol  =         0.00000000
  ---------------------------------------------------
  free energy    TOTEN  =      -262.20436895 eV

  energy without entropy =     -262.18225799  energy(sigma->0) =     -262.19331347


--------------------------------------------------------------------------------------------------------




--------------------------------------- Iteration      1(   4)  ---------------------------------------


     EDDAV:  cpu time   24.5203: real time   24.7285
       DOS:  cpu time    0.0140: real time    0.0140
    --------------------------------------------
      LOOP:  cpu time   24.5343: real time   24.7425

 eigenvalue-minimisations  : 45992
 total energy-change (2. order) :-0.7862211E+01  (-0.7803078E+01)
 number of electron     228.0000006 magnetization       4.0000001
 augmentation part      228.0000006 magnetization       4.0000001

 Free energy of the ion-electron system (eV)
  ---------------------------------------------------
  alpha Z        PSCENC =       654.91004932
  Ewald energy   TEWEN  =    -10518.87480151
  -Hartree energ DENC   =     -6768.99267641
  -exchange      EXHF   =         0.00000000
  -V(xc)+E(xc)   XCENC  =       869.88914482
  PAW double counting   =     32915.22342084   -32842.29601980
  entropy T*S    EENTRO =        -0.02260014
  eigenvalues    EBANDS =     -2305.29601086
  atomic energy  EATOM  =     17725.39291388
  Solvation  Ediel_sol  =         0.00000000
  ---------------------------------------------------
  free energy    TOTEN  =      -270.06657985 eV

  energy without entropy =     -270.04397971  energy(sigma->0) =     -270.05527978


--------------------------------------------------------------------------------------------------------




--------------------------------------- Iteration      1(   5)  ---------------------------------------


     EDDAV:  cpu time   31.8463: real time   32.1808
       DOS:  cpu time    0.0129: real time    0.0129
    CHARGE:  cpu time    0.9617: real time    0.9706
    MIXING:  cpu time    0.0031: real time    0.0036
    --------------------------------------------
      LOOP:  cpu time   32.8241: real time   33.1679

 eigenvalue-minimisations  : 63624
 total energy-change (2. order) :-0.4655973E+00  (-0.4652043E+00)
 number of electron     228.0000006 magnetization       4.0000001
 augmentation part       34.1828192 magnetization       2.4307633

 Broyden mixing:
  rms(total) = 0.26414E-01    rms(broyden)= 0.26326E-01
  rms(prec ) = 0.28349E-01
  weight for this iteration     100.00

 Free energy of the ion-electron system (eV)
  ---------------------------------------------------
  alpha Z        PSCENC =       654.91004932
  Ewald energy   TEWEN  =    -10518.87480151
  -Hartree energ DENC   =     -6768.99267641
  -exchange      EXHF   =         0.00000000
  -V(xc)+E(xc)   XCENC  =       869.88914482
  PAW double counting   =     32915.22342084   -32842.29601980
  entropy T*S    EENTRO =        -0.02251193
  eigenvalues    EBANDS =     -2305.76169636
  atomic energy  EATOM  =     17725.39291388
  Solvation  Ediel_sol  =         0.00000000
  ---------------------------------------------------
  free energy    TOTEN  =      -270.53217714 eV

  energy without entropy =     -270.50966521  energy(sigma->0) =     -270.52092118


--------------------------------------------------------------------------------------------------------




--------------------------------------- Iteration      1(   6)  ---------------------------------------


    POTLOK:  cpu time    0.0630: real time    0.1054
    SETDIJ:  cpu time    0.0081: real time    0.0081
     EDDAV:  cpu time   26.7039: real time   26.8722
       DOS:  cpu time    0.0141: real time    0.0141
    CHARGE:  cpu time    0.9635: real time    0.9692
    MIXING:  cpu time    0.0016: real time    0.0016
    --------------------------------------------
      LOOP:  cpu time   27.7543: real time   27.9705

 eigenvalue-minimisations  : 53256
 total energy-change (2. order) :-0.3329275E-01  (-0.7294365E-02)
 number of electron     228.0000006 magnetization       4.0000001
 augmentation part       34.1755239 magnetization       2.4281514

 Broyden mixing:
  rms(total) = 0.57529E-01    rms(broyden)= 0.57508E-01
  rms(prec ) = 0.81024E-01
  weight for this iteration     100.00

 eigenvalues of (default mixing * dielectric matrix)
  average eigenvalue GAMMA=   0.2833
  0.2833

 Free energy of the ion-electron system (eV)
  ---------------------------------------------------
  alpha Z        PSCENC =       654.91004932
  Ewald energy   TEWEN  =    -10518.87480151
  -Hartree energ DENC   =     -6768.90029517
  -exchange      EXHF   =         0.00000000
  -V(xc)+E(xc)   XCENC  =       869.88202375
  PAW double counting   =     32910.10535676   -32837.23881694
  entropy T*S    EENTRO =        -0.02246512
  eigenvalues    EBANDS =     -2305.81943487
  atomic energy  EATOM  =     17725.39291388
  Solvation  Ediel_sol  =         0.00000000
  ---------------------------------------------------
  free energy    TOTEN  =      -270.56546989 eV

  energy without entropy =     -270.54300478  energy(sigma->0) =     -270.55423734


--------------------------------------------------------------------------------------------------------




--------------------------------------- Iteration      1(   7)  ---------------------------------------


    POTLOK:  cpu time    0.0642: real time    0.0699
    SETDIJ:  cpu time    0.0079: real time    0.0079
     EDDAV:  cpu time   29.0589: real time   29.3292
       DOS:  cpu time    0.0142: real time    0.0232
    CHARGE:  cpu time    0.9703: real time    0.9704
    MIXING:  cpu time    0.0012: real time    0.0011
    --------------------------------------------
      LOOP:  cpu time   30.1166: real time   30.4018

 eigenvalue-minimisations  : 56952
 total energy-change (2. order) :-0.7302025E-03  (-0.1440162E-02)
 number of electron     228.0000006 magnetization       4.0000001
 augmentation part       34.1720041 magnetization       2.4278205

 Broyden mixing:
  rms(total) = 0.79880E-01    rms(broyden)= 0.79816E-01
  rms(prec ) = 0.11959E+00
  weight for this iteration     100.00

 eigenvalues of (default mixing * dielectric matrix)
  average eigenvalue GAMMA=   0.2439
  0.4132  0.0746

 Free energy of the ion-electron system (eV)
  ---------------------------------------------------
  alpha Z        PSCENC =       654.91004932
  Ewald energy   TEWEN  =    -10518.87480151
  -Hartree energ DENC   =     -6768.92085214
  -exchange      EXHF   =         0.00000000
  -V(xc)+E(xc)   XCENC  =       869.88301110
  PAW double counting   =     32909.16577138   -32836.29301439
  entropy T*S    EENTRO =        -0.02249627
  eigenvalues    EBANDS =     -2305.80678147
  atomic energy  EATOM  =     17725.39291388
  Solvation  Ediel_sol  =         0.00000000
  ---------------------------------------------------
  free energy    TOTEN  =      -270.56620010 eV

  energy without entropy =     -270.54370383  energy(sigma->0) =     -270.55495196


--------------------------------------------------------------------------------------------------------




--------------------------------------- Iteration      1(   8)  ---------------------------------------


    POTLOK:  cpu time    0.0659: real time    0.1111
    SETDIJ:  cpu time    0.0080: real time    0.0080
     EDDAV:  cpu time   27.6646: real time   27.9217
       DOS:  cpu time    0.0135: real time    0.0135
    CHARGE:  cpu time    0.9672: real time    0.9741
    MIXING:  cpu time    0.0009: real time    0.0009
    --------------------------------------------
      LOOP:  cpu time   28.7201: real time   29.0294

 eigenvalue-minimisations  : 54096
 total energy-change (2. order) : 0.6878668E-03  (-0.5084733E-03)
 number of electron     228.0000006 magnetization       4.0000001
 augmentation part       34.1695137 magnetization       2.4273523

 Broyden mixing:
  rms(total) = 0.12197E-01    rms(broyden)= 0.12066E-01
  rms(prec ) = 0.14830E-01
  weight for this iteration     100.00

 eigenvalues of (default mixing * dielectric matrix)
  average eigenvalue GAMMA=   0.3699
  0.5187  0.5187  0.0722

 Free energy of the ion-electron system (eV)
  ---------------------------------------------------
  alpha Z        PSCENC =       654.91004932
  Ewald energy   TEWEN  =    -10518.87480151
  -Hartree energ DENC   =     -6768.94798434
  -exchange      EXHF   =         0.00000000
  -V(xc)+E(xc)   XCENC  =       869.88392367
  PAW double counting   =     32907.63671176   -32834.75139218
  entropy T*S    EENTRO =        -0.02242170
  eigenvalues    EBANDS =     -2305.79251113
  atomic energy  EATOM  =     17725.39291388
  Solvation  Ediel_sol  =         0.00000000
  ---------------------------------------------------
  free energy    TOTEN  =      -270.56551223 eV

  energy without entropy =     -270.54309053  energy(sigma->0) =     -270.55430138


--------------------------------------------------------------------------------------------------------




--------------------------------------- Iteration      1(   9)  ---------------------------------------


    POTLOK:  cpu time    0.0629: real time    0.0684
    SETDIJ:  cpu time    0.0077: real time    0.0077
     EDDAV:  cpu time   24.1852: real time   24.3532
       DOS:  cpu time    0.0140: real time    0.0140
    CHARGE:  cpu time    0.9696: real time    0.9777
    MIXING:  cpu time    0.0011: real time    0.0011
    --------------------------------------------
      LOOP:  cpu time   25.2405: real time   25.4221

 eigenvalue-minimisations  : 46504
 total energy-change (2. order) :-0.2862194E-03  (-0.1157231E-03)
 number of electron     228.0000006 magnetization       4.0000001
 augmentation part       34.1700928 magnetization       2.4271874

 Broyden mixing:
  rms(total) = 0.27103E-01    rms(broyden)= 0.27081E-01
  rms(prec ) = 0.39980E-01
  weight for this iteration     100.00

 eigenvalues of (default mixing * dielectric matrix)
  average eigenvalue GAMMA=   0.3378
  0.5837  0.5837  0.0722  0.1115

 Free energy of the ion-electron system (eV)
  ---------------------------------------------------
  alpha Z        PSCENC =       654.91004932
  Ewald energy   TEWEN  =    -10518.87480151
  -Hartree energ DENC   =     -6768.94537753
  -exchange      EXHF   =         0.00000000
  -V(xc)+E(xc)   XCENC  =       869.88571949
  PAW double counting   =     32906.64403979   -32833.74482705
  entropy T*S    EENTRO =        -0.02236773
  eigenvalues    EBANDS =     -2305.81114711
  atomic energy  EATOM  =     17725.39291388
  Solvation  Ediel_sol  =         0.00000000
  ---------------------------------------------------
  free energy    TOTEN  =      -270.56579845 eV

  energy without entropy =     -270.54343072  energy(sigma->0) =     -270.55461459


--------------------------------------------------------------------------------------------------------




--------------------------------------- Iteration      1(  10)  ---------------------------------------


    POTLOK:  cpu time    0.0657: real time    0.0912
    SETDIJ:  cpu time    0.0078: real time    0.0078
     EDDAV:  cpu time   20.5120: real time   20.6985
       DOS:  cpu time    0.0143: real time    0.0143
    CHARGE:  cpu time    0.9689: real time    0.9780
    MIXING:  cpu time    0.0015: real time    0.0015
    --------------------------------------------
      LOOP:  cpu time   21.5701: real time   21.7913

 eigenvalue-minimisations  : 35680
 total energy-change (2. order) : 0.1030570E-03  (-0.8158827E-04)
 number of electron     228.0000006 magnetization       4.0000001
 augmentation part       34.1702348 magnetization       2.4270987

 Broyden mixing:
  rms(total) = 0.80823E-02    rms(broyden)= 0.80482E-02
  rms(prec ) = 0.87605E-02
  weight for this iteration     100.00

 eigenvalues of (default mixing * dielectric matrix)
  average eigenvalue GAMMA=   0.4543
  0.8047  0.8047  0.4824  0.0722  0.1073

 Free energy of the ion-electron system (eV)
  ---------------------------------------------------
  alpha Z        PSCENC =       654.91004932
  Ewald energy   TEWEN  =    -10518.87480151
  -Hartree energ DENC   =     -6768.94887836
  -exchange      EXHF   =         0.00000000
  -V(xc)+E(xc)   XCENC  =       869.88683856
  PAW double counting   =     32906.10517854   -32833.19785005
  entropy T*S    EENTRO =        -0.02233004
  eigenvalues    EBANDS =     -2305.81681573
  atomic energy  EATOM  =     17725.39291388
  Solvation  Ediel_sol  =         0.00000000
  ---------------------------------------------------
  free energy    TOTEN  =      -270.56569539 eV

  energy without entropy =     -270.54336535  energy(sigma->0) =     -270.55453037


--------------------------------------------------------------------------------------------------------




--------------------------------------- Iteration      1(  11)  ---------------------------------------


    POTLOK:  cpu time    0.0649: real time    0.0654
    SETDIJ:  cpu time    0.0077: real time    0.0078
     EDDAV:  cpu time   17.8124: real time   17.9953
       DOS:  cpu time    0.0119: real time    0.0119
    CHARGE:  cpu time    1.0364: real time    1.0442
    MIXING:  cpu time    0.0024: real time    0.0024
    --------------------------------------------
      LOOP:  cpu time   18.9358: real time   19.1271

 eigenvalue-minimisations  : 28936
 total energy-change (2. order) :-0.2650108E-04  (-0.3622583E-05)
 number of electron     228.0000006 magnetization       4.0000001
 augmentation part       34.1695330 magnetization       2.4268511

 Broyden mixing:
  rms(total) = 0.73031E-02    rms(broyden)= 0.72947E-02
  rms(prec ) = 0.81888E-02
  weight for this iteration     100.00

 eigenvalues of (default mixing * dielectric matrix)
  average eigenvalue GAMMA=   0.4572
  0.8677  0.8677  0.4141  0.4141  0.0722  0.1074

 Free energy of the ion-electron system (eV)
  ---------------------------------------------------
  alpha Z        PSCENC =       654.91004932
  Ewald energy   TEWEN  =    -10518.87480151
  -Hartree energ DENC   =     -6768.97822127
  -exchange      EXHF   =         0.00000000
  -V(xc)+E(xc)   XCENC  =       869.88815240
  PAW double counting   =     32905.63623204   -32832.71996208
  entropy T*S    EENTRO =        -0.02230793
  eigenvalues    EBANDS =     -2305.79777674
  atomic energy  EATOM  =     17725.39291388
  Solvation  Ediel_sol  =         0.00000000
  ---------------------------------------------------
  free energy    TOTEN  =      -270.56572189 eV

  energy without entropy =     -270.54341397  energy(sigma->0) =     -270.55456793


--------------------------------------------------------------------------------------------------------




--------------------------------------- Iteration      1(  12)  ---------------------------------------


    POTLOK:  cpu time    0.0715: real time    0.1549
    SETDIJ:  cpu time    0.0078: real time    0.0078
     EDDAV:  cpu time   15.4571: real time   15.5740
       DOS:  cpu time    0.0138: real time    0.0138
    --------------------------------------------
      LOOP:  cpu time   15.5502: real time   15.7505

 eigenvalue-minimisations  : 24376
 total energy-change (2. order) :-0.2920617E-05  (-0.3981178E-05)
 number of electron     228.0000006 magnetization       4.0000001
 augmentation part       34.1695330 magnetization       2.4268511

 Free energy of the ion-electron system (eV)
  ---------------------------------------------------
  alpha Z        PSCENC =       654.91004932
  Ewald energy   TEWEN  =    -10518.87480151
  -Hartree energ DENC   =     -6768.97756994
  -exchange      EXHF   =         0.00000000
  -V(xc)+E(xc)   XCENC  =       869.88849067
  PAW double counting   =     32905.57853264   -32832.66060463
  entropy T*S    EENTRO =        -0.02230545
  eigenvalues    EBANDS =     -2305.80042978
  atomic energy  EATOM  =     17725.39291388
  Solvation  Ediel_sol  =         0.00000000
  ---------------------------------------------------
  free energy    TOTEN  =      -270.56572481 eV

  energy without entropy =     -270.54341936  energy(sigma->0) =     -270.55457209


[...]
  0.000   0.001   0.000   0.000  -0.000   0.000   0.000   0.000  -0.000  -0.000  -0.000  -0.000  -0.000   0.000  -0.000   0.000
  0.000   0.001   0.000   0.000  -0.000  -0.000  -0.000   0.000  -0.000  -0.000  -0.000  -0.000  -0.000   0.000   0.000  -0.000
  0.000   0.001   0.000  -0.000  -0.000  -0.000  -0.000   0.000  -0.000  -0.000  -0.000  -0.000   0.000   0.000   0.000   0.000
  0.000   0.000   0.000  -0.000  -0.000  -0.000   0.000  -0.000  -0.000  -0.000  -0.000   0.000   0.000  -0.000   0.000   0.000


------------------------ aborting loop because EDIFF is reached ----------------------------------------


 


 total charge     
 
# of ion       s       p       d       tot
------------------------------------------
    1        2.018   5.860   0.194   8.072
    2        0.282   6.327   2.794   9.402
    3        0.289   6.343   2.754   9.386
    4        0.289   6.342   2.747   9.378
    5        0.282   6.327   2.792   9.401
    6        0.903   1.500   0.000   2.403
    7        0.903   1.499   0.000   2.403
    8        0.903   1.499   0.000   2.402
    9        0.903   1.499   0.000   2.403
   10        0.903   1.499   0.000   2.402
   11        0.903   1.499   0.000   2.403
   12        1.563   3.606   0.000   5.169
   13        1.567   3.590   0.000   5.158
   14        1.563   3.607   0.000   5.169
   15        1.567   3.591   0.000   5.158
   16        1.563   3.606   0.000   5.169
   17        1.567   3.591   0.000   5.158
   18        1.567   3.590   0.000   5.158
   19        1.563   3.606   0.000   5.169
   20        1.567   3.590   0.000   5.157
   21        1.563   3.606   0.000   5.169
   22        1.567   3.591   0.000   5.158
   23        1.563   3.606   0.000   5.169
   24        1.566   3.591   0.000   5.157
   25        1.565   3.595   0.000   5.160
   26        1.566   3.591   0.000   5.157
   27        1.565   3.596   0.000   5.161
   28        1.566   3.592   0.000   5.158
   29        1.566   3.596   0.000   5.161
   30        1.565   3.596   0.000   5.162
   31        1.566   3.592   0.000   5.157
   32        1.566   3.595   0.000   5.161
   33        1.566   3.591   0.000   5.157
   34        1.566   3.595   0.000   5.160
   35        1.566   3.592   0.000   5.157
--------------------------------------------------
tot         46.148 126.495  11.281 183.924
 


 magnetization (x)
 
# of ion       s       p       d       tot
------------------------------------------
    1        0.001  -0.000   0.001   0.001
    2        0.006   0.009   1.083   1.099
    3        0.005   0.008   0.917   0.931
    4        0.005   0.008   0.911   0.924
    5        0.006   0.009   1.082   1.097
    6        0.003   0.008   0.000   0.010
    7        0.003   0.008   0.000   0.010
    8        0.003   0.008   0.000   0.010
    9        0.003   0.008   0.000   0.010
   10        0.003   0.008   0.000   0.010
   11        0.003   0.008   0.000   0.010
   12       -0.000  -0.012   0.000  -0.012
   13       -0.001  -0.014   0.000  -0.015
   14       -0.000  -0.012   0.000  -0.012
   15       -0.001  -0.015   0.000  -0.015
   16       -0.000  -0.012   0.000  -0.012
   17       -0.001  -0.014   0.000  -0.015
   18       -0.001  -0.015   0.000  -0.015
   19       -0.000  -0.012   0.000  -0.012
   20       -0.001  -0.014   0.000  -0.015
   21       -0.000  -0.012   0.000  -0.012
   22       -0.001  -0.015   0.000  -0.015
   23       -0.000  -0.012   0.000  -0.012
   24       -0.001  -0.021   0.000  -0.022
   25       -0.000  -0.020   0.000  -0.021
   26       -0.001  -0.021   0.000  -0.022
   27       -0.000  -0.020   0.000  -0.021
   28       -0.001  -0.021   0.000  -0.022
   29       -0.000  -0.020   0.000  -0.021
   30       -0.000  -0.020   0.000  -0.020
   31       -0.001  -0.021   0.000  -0.022
   32       -0.000  -0.020   0.000  -0.021
   33       -0.001  -0.021   0.000  -0.022
   34       -0.000  -0.020   0.000  -0.021
   35       -0.001  -0.021   0.000  -0.022
--------------------------------------------------
tot          0.028  -0.330   3.995   3.693
 
    CHARGE:  cpu time    0.9679: real time    0.9748
    FORLOC:  cpu time    0.0059: real time    0.0059
    FORNL :  cpu time    4.7119: real time    4.7532
    STRESS:  cpu time   14.2712: real time   14.3792
    FORCOR:  cpu time    0.0623: real time    0.0626
    FORHAR:  cpu time    0.0106: real time    0.0108
    MIXING:  cpu time    0.0011: real time    0.0011
    OFIELD:  cpu time    0.0002: real time    0.0003

  FORCE on cell =-STRESS in cart. coord.  units (eV):
  Direction    XX          YY          ZZ          XY          YZ          ZX
  --------------------------------------------------------------------------------------
  Alpha Z   654.91005   654.91005   654.91005
  Ewald   -3561.12886 -3613.96176 -3343.83389    82.57148   134.86567   191.91240
  Hartree  2225.37708  2195.90095  2347.78235    46.56980    75.17174   107.74419
  E(xc)   -1120.15564 -1120.21576 -1119.89700     0.10235     0.16638     0.22972
  Local   -2098.42413 -2016.32801 -2436.67962  -128.34691  -208.96944  -298.20505
  n-local  -605.44352  -604.42096  -609.19140    -1.34726    -2.30118    -3.25984
  augment   282.68991   281.87883   285.42057     0.93532     1.65848     2.39547
  Kinetic  4222.32475  4222.33256  4221.51703    -0.48034    -0.62244    -0.92537
  Fock        0.00000     0.00000     0.00000     0.00000     0.00000     0.00000
  -------------------------------------------------------------------------------------
  Total       0.14963     0.09590     0.02810     0.00444    -0.03080    -0.10849
  in kB       0.52813     0.33848     0.09916     0.01568    -0.10870    -0.38292
  external pressure =        0.32 kB  Pullay stress =        0.00 kB


 VOLUME and BASIS-vectors are now :
 -----------------------------------------------------------------------------
  energy-cutoff  :      520.00
  volume of cell :      453.93
      direct lattice vectors                 reciprocal lattice vectors
     2.627576431  7.069018257  4.508790862    -0.001496393  0.143650391 -0.002558414
     0.214304131  0.158640048  8.782012261    -0.068721993 -0.048715212  0.116426117
     7.535313215  0.158894323  4.514299089     0.135184731 -0.048705674 -0.002419033

  length of vectors
     8.786601849  8.786058973  8.785504477     0.143680965  0.143704297  0.143711538


 FORCES acting on ions
    electron-ion (+dipol)            ewald-force                    non-local-force                 convergence-correction
 -----------------------------------------------------------------------------------------------
   0.173E+01 -.387E+00 -.589E+00   -.173E+01 0.395E+00 0.601E+00   0.350E-02 -.550E-02 -.525E-02   -.374E-02 -.273E-02 -.740E-02
   -.253E+01 -.324E+01 -.591E+01   0.296E+01 0.353E+01 0.663E+01   -.446E+00 -.296E+00 -.741E+00   0.380E-02 0.282E-02 0.577E-02
   0.633E+02 0.466E+02 0.112E+03   -.632E+02 -.465E+02 -.112E+03   -.380E-01 -.433E-01 -.761E-01   0.468E-02 0.257E-02 0.912E-02
   -.655E+02 -.451E+02 -.112E+03   0.655E+02 0.451E+02 0.112E+03   0.468E-01 0.360E-01 0.805E-01   0.172E-02 0.429E-03 0.528E-02
   0.485E+01 0.186E+01 0.514E+01   -.528E+01 -.217E+01 -.587E+01   0.429E+00 0.312E+00 0.741E+00   0.125E-02 0.392E-03 0.310E-02
   0.191E+01 0.170E+02 -.457E+02   -.224E+01 -.177E+02 0.449E+02   0.341E+00 0.694E+00 0.791E+00   -.125E-01 -.158E-01 0.165E-01
   0.481E+02 0.319E+01 0.706E+01   -.478E+02 -.308E+01 -.598E+01   -.295E+00 -.119E+00 -.108E+01   0.237E-01 -.577E-02 0.513E-03
   -.476E+02 -.291E+01 -.695E+01   0.472E+02 0.286E+01 0.591E+01   0.317E+00 0.571E-01 0.105E+01   0.236E-01 -.690E-02 -.823E-02
   -.312E+01 0.437E+02 0.204E+02   0.400E+01 -.435E+02 -.197E+02   -.886E+00 -.226E+00 -.679E+00   -.812E-03 0.244E-01 0.230E-02
   0.321E+01 -.442E+02 -.192E+02   -.404E+01 0.439E+02 0.185E+02   0.838E+00 0.214E+00 0.678E+00   -.850E-02 0.245E-01 -.316E-02
   -.299E+01 -.169E+02 0.448E+02   0.331E+01 0.175E+02 -.440E+02   -.311E+00 -.661E+00 -.785E+00   -.909E-02 -.848E-02 0.203E-01
   0.747E+02 -.272E+02 0.328E+02   -.550E+02 0.345E+02 -.508E+02   -.198E+02 -.731E+01 0.180E+02   -.304E-01 0.536E-02 0.516E-02
   0.341E+02 0.723E+02 0.179E+03   -.159E+02 -.954E+02 -.187E+03   -.182E+02 0.231E+02 0.793E+01   -.414E-01 0.466E-01 -.406E-01
   0.281E+02 0.805E+02 0.112E+02   -.503E+02 -.644E+02 -.788E+01   0.222E+02 -.161E+02 -.335E+01   0.791E-02 -.305E-01 -.187E-02
   0.114E+03 0.115E+02 0.157E+03   -.113E+03 0.130E+02 -.175E+03   -.116E+01 -.244E+02 0.176E+02   -.502E-01 -.536E-01 0.543E-02
   -.305E+02 0.103E+01 0.806E+02   0.294E+02 -.275E+02 -.723E+02   0.105E+01 0.264E+02 -.826E+01   0.117E-01 0.163E-01 -.236E-01
   0.112E+03 0.105E+03 0.118E+03   -.139E+03 -.112E+03 -.106E+03   0.268E+02 0.703E+01 -.120E+02   0.400E-01 -.304E-01 -.554E-01
   -.112E+03 -.106E+03 -.117E+03   0.139E+03 0.113E+03 0.105E+03   -.267E+02 -.731E+01 0.120E+02   0.540E-01 -.386E-01 -.714E-01
   -.281E+02 -.790E+02 -.148E+02   0.503E+02 0.628E+02 0.119E+02   -.222E+02 0.162E+02 0.291E+01   -.754E-02 -.799E-02 -.237E-02
   -.358E+02 -.730E+02 -.176E+03   0.179E+02 0.961E+02 0.184E+03   0.180E+02 -.232E+02 -.764E+01   -.520E-01 0.629E-01 -.519E-01
   0.315E+02 -.121E+01 -.810E+02   -.303E+02 0.276E+02 0.727E+02   -.113E+01 -.264E+02 0.837E+01   0.279E-02 -.558E-02 -.103E-01
   -.115E+03 -.100E+02 -.157E+03   0.114E+03 -.145E+02 0.175E+03   0.991E+00 0.246E+02 -.176E+02   -.652E-01 -.716E-01 0.106E-01
   -.745E+02 0.290E+02 -.311E+02   0.549E+02 -.367E+02 0.490E+02   0.196E+02 0.771E+01 -.178E+02   -.767E-02 0.465E-02 -.810E-02
   0.990E+02 -.729E+02 -.334E+01   -.104E+03 0.781E+02 -.249E+02   0.459E+01 -.531E+01 0.282E+02   -.328E-01 0.216E-01 0.633E-01
   0.142E+03 -.778E+02 -.339E+01   -.153E+03 0.628E+02 -.163E+02   0.113E+02 0.150E+02 0.197E+02   0.228E-02 0.170E-01 0.137E-01
   0.151E+02 0.116E+03 -.353E+02   -.415E+02 -.122E+03 0.249E+02   0.264E+02 0.557E+01 0.103E+02   0.504E-01 -.378E-01 0.394E-01
   0.979E+01 0.157E+03 -.256E+02   -.180E+02 -.163E+03 0.350E+00   0.822E+01 0.547E+01 0.252E+02   0.386E-02 -.285E-02 0.218E-01
   -.863E+02 -.257E+02 0.820E+02   0.838E+02 0.273E+01 -.990E+02   0.252E+01 0.229E+02 0.170E+02   0.437E-01 0.614E-01 0.522E-02
   -.978E+02 -.425E+02 0.121E+03   0.798E+02 0.366E+02 -.141E+03   0.180E+02 0.590E+01 0.196E+02   0.186E-01 0.452E-02 0.687E-02
   0.965E+02 0.424E+02 -.119E+03   -.783E+02 -.366E+02 0.139E+03   -.182E+02 -.580E+01 -.191E+02   0.460E-02 -.287E-02 0.497E-02
   -.137E+02 -.116E+03 0.345E+02   0.399E+02 0.121E+03 -.240E+02   -.262E+02 -.555E+01 -.105E+02   0.616E-01 -.532E-01 0.538E-01
   -.142E+03 0.779E+02 0.341E+01   0.153E+03 -.629E+02 0.163E+02   -.114E+02 -.150E+02 -.197E+02   0.579E-02 0.557E-02 0.169E-02
   0.857E+02 0.244E+02 -.836E+02   -.834E+02 -.159E+01 0.101E+03   -.232E+01 -.229E+02 -.176E+02   0.617E-01 0.760E-01 0.483E-05
   -.105E+02 -.160E+03 0.254E+02   0.190E+02 0.165E+03 -.174E+00   -.850E+01 -.587E+01 -.252E+02   -.194E-02 0.267E-02 0.497E-02
   -.977E+02 0.739E+02 0.420E+01   0.102E+03 -.792E+02 0.238E+02   -.396E+01 0.532E+01 -.281E+02   -.432E-01 0.330E-01 0.809E-01
 -----------------------------------------------------------------------------------------------
   0.736E-02 -.106E+00 -.942E-01   0.568E-13 -.142E-13 -.782E-13   -.728E-01 0.713E-01 -.983E-02   0.606E-01 0.378E-01 0.963E-01
 
 
 POSITION                                       TOTAL-FORCE (eV/Angst)
 -----------------------------------------------------------------------------------
      5.16939      3.67166      8.85591        -0.002428     -0.000337     -0.000250
      6.68777      4.76126     11.47411        -0.010991     -0.005041     -0.010755
      1.45354      1.03570      2.49941         0.008505      0.012748      0.010210
      8.86858      6.31416     15.21862        -0.002196     -0.005145     -0.016075
      3.64092      2.58975      6.23981         0.002738     -0.005022      0.017815
      8.00141      1.98833     10.10225         0.000554      0.001788      0.000721
      3.75608      0.43604      8.81553         0.003430     -0.006818     -0.001918
      6.56710      6.91450      8.90042        -0.006352      0.002465     -0.002454
      6.86197      3.41456      5.77423        -0.002712      0.000435     -0.003467
      3.46706      3.93714     11.94556        -0.002296     -0.003225     -0.000051
      2.32160      5.35896      7.61003        -0.003503     -0.009417      0.007191
      4.75806      4.28483     11.15749         0.000194      0.007397     -0.002805
      7.87579      2.26879      5.88514        -0.007681     -0.007446      0.004961
      6.94799      3.09157     10.38787        -0.003278      0.002761     -0.013743
      2.79375      6.69173      7.01353        -0.002167     -0.008267      0.000558
      6.47167      5.55134      9.63673        -0.003434      0.005245      0.008654
      2.54460      0.44014      9.75658         0.002000      0.000608     -0.003146
      7.77706      6.91572      7.95658        -0.002520     -0.012429      0.013334
      3.37767      4.25513      7.33682         0.009290     -0.006981     -0.005034
      2.45573      5.08466     11.82817         0.000151      0.005384     -0.003336
      3.85546      1.79687      8.07611         0.003247      0.001527      0.002096
      7.53408      0.65436     10.69925        -0.000510      0.000335      0.008019
      5.56971      3.05577      6.55605        -0.003012      0.008591     -0.003458
      8.11886      1.94681      8.56385         0.008596     -0.010721     -0.000758
      6.18323      6.36131     12.30437         0.000198      0.002289      0.002000
      5.22294      7.05395      8.15537        -0.001899      0.009333     -0.026275
      6.75354      3.76830     13.05811        -0.006972     -0.007842      0.007158
      2.95854      2.62422     11.31417        -0.005615     -0.003125     -0.013370
      8.51779      5.15136     11.44664         0.006954      0.002659      0.000745
      1.81145      2.19434      6.25282        -0.003773      0.012456      0.008201
      5.09624      0.29573      9.56752         0.002799     -0.003243      0.010895
      4.14346      0.98863      5.41079         0.001445      0.002101     -0.000101
      7.36131      4.72359      6.42126         0.020014      0.006516     -0.001994
      3.58264      3.59387      4.66218        -0.006122     -0.001585     -0.006205
      2.18488      5.40252      9.14626         0.007348      0.012004      0.012638
 -----------------------------------------------------------------------------------
    total drift:                               -0.004750      0.002596     -0.007728


--------------------------------------------------------------------------------------------------------



  FREE ENERGIE OF THE ION-ELECTRON SYSTEM (eV)
  ---------------------------------------------------
  free  energy   TOTEN  =      -270.56572481 eV

  energy  without entropy=     -270.54341936  energy(sigma->0) =     -270.55457209
 


--------------------------------------------------------------------------------------------------------


    POTLOK:  cpu time    0.0661: real time    0.0661


--------------------------------------------------------------------------------------------------------




--------------------------------------------------------------------------------------------------------


  
 reached required accuracy - stopping structural energy minimisation
     LOOP+:  cpu time  318.5082: real time  321.6063
    4ORBIT:  cpu time    0.0000: real time    0.0000
 


 total charge     
 
# of ion       s       p       d       tot
------------------------------------------
    1        2.018   5.860   0.194   8.072
    2        0.282   6.327   2.794   9.402
    3        0.289   6.343   2.754   9.386
    4        0.289   6.342   2.747   9.378
    5        0.282   6.327   2.792   9.401
    6        0.903   1.500   0.000   2.403
    7        0.903   1.499   0.000   2.403
    8        0.903   1.499   0.000   2.402
    9        0.903   1.499   0.000   2.403
   10        0.903   1.499   0.000   2.402
   11        0.903   1.499   0.000   2.403
   12        1.563   3.606   0.000   5.169
   13        1.567   3.590   0.000   5.158
   14        1.563   3.607   0.000   5.169
   15        1.567   3.591   0.000   5.158
   16        1.563   3.606   0.000   5.169
   17        1.567   3.591   0.000   5.158
   18        1.567   3.590   0.000   5.158
   19        1.563   3.606   0.000   5.169
   20        1.567   3.590   0.000   5.157
   21        1.563   3.606   0.000   5.169
   22        1.567   3.591   0.000   5.158
   23        1.563   3.606   0.000   5.169
   24        1.566   3.591   0.000   5.157
   25        1.565   3.595   0.000   5.160
   26        1.566   3.591   0.000   5.157
   27        1.565   3.596   0.000   5.161
   28        1.566   3.592   0.000   5.158
   29        1.566   3.596   0.000   5.161
   30        1.565   3.596   0.000   5.162
   31        1.566   3.592   0.000   5.157
   32        1.566   3.595   0.000   5.161
   33        1.566   3.591   0.000   5.157
   34        1.566   3.595   0.000   5.160
   35        1.566   3.592   0.000   5.157
--------------------------------------------------
tot         46.148 126.495  11.281 183.924
 


 magnetization (x)
 
# of ion       s       p       d       tot
------------------------------------------
    1        0.001  -0.000   0.001   0.001
    2        0.006   0.009   1.083   1.099
    3        0.005   0.008   0.917   0.931
    4        0.005   0.008   0.911   0.924
    5        0.006   0.009   1.082   1.097
    6        0.003   0.008   0.000   0.010
    7        0.003   0.008   0.000   0.010
    8        0.003   0.008   0.000   0.010
    9        0.003   0.008   0.000   0.010
   10        0.003   0.008   0.000   0.010
   11        0.003   0.008   0.000   0.010
   12       -0.000  -0.012   0.000  -0.012
   13       -0.001  -0.014   0.000  -0.015
   14       -0.000  -0.012   0.000  -0.012
   15       -0.001  -0.015   0.000  -0.015
   16       -0.000  -0.012   0.000  -0.012
   17       -0.001  -0.014   0.000  -0.015
   18       -0.001  -0.015   0.000  -0.015
   19       -0.000  -0.012   0.000  -0.012
   20       -0.001  -0.014   0.000  -0.015
   21       -0.000  -0.012   0.000  -0.012
   22       -0.001  -0.015   0.000  -0.015
   23       -0.000  -0.012   0.000  -0.012
   24       -0.001  -0.021   0.000  -0.022
   25       -0.000  -0.020   0.000  -0.021
   26       -0.001  -0.021   0.000  -0.022
   27       -0.000  -0.020   0.000  -0.021
   28       -0.001  -0.021   0.000  -0.022
   29       -0.000  -0.020   0.000  -0.021
   30       -0.000  -0.020   0.000  -0.020
   31       -0.001  -0.021   0.000  -0.022
   32       -0.000  -0.020   0.000  -0.021
   33       -0.001  -0.021   0.000  -0.022
   34       -0.000  -0.020   0.000  -0.021
   35       -0.001  -0.021   0.000  -0.022
--------------------------------------------------
tot          0.028  -0.330   3.995   3.693
 

 total amount of memory used by VASP MPI-rank0   111723. kBytes
=======================================================================

   base      :      30000. kBytes
   nonlr-proj:       8977. kBytes
   fftplans  :       2612. kBytes
   grid      :       7683. kBytes
   one-center:         93. kBytes
   wavefun   :      62358. kBytes
 
  
  
 General timing and accounting informations for this job:
 ========================================================
  
                  Total CPU time used (sec):      354.646
                            User time (sec):      347.476
                          System time (sec):        7.171
                         Elapsed time (sec):      358.810
  
                   Maximum memory used (kb):      201468.
                   Average memory used (kb):           0.
  
                          Minor page faults:        37277
                          Major page faults:            0
                 Voluntary context switches:         1709
