       N       E                     dE             d eps       ncg     rms          rms(c)
DAV:   1     0.281248997345E+04    0.28125E+04   -0.13332E+05 24208   0.152E+03
DAV:   2    -0.227768100095E+02   -0.28353E+04   -0.27476E+04 26888   0.437E+02
DAV:   3    -0.308606249891E+03   -0.28583E+03   -0.27987E+03 28104   0.150E+02
DAV:   4    -0.323887448152E+03   -0.15281E+02   -0.14812E+02 38536   0.361E+01
DAV:   5    -0.324927956563E+03   -0.10405E+01   -0.10265E+01 43712   0.638E+00    0.719E+01
DAV:   6    -0.298687115165E+03    0.26241E+02   -0.32339E+02 32904   0.518E+01    0.615E+01
DAV:   7    -0.312333350072E+03   -0.13646E+02   -0.16003E+02 34888   0.937E+01    0.568E+01
DAV:   8    -0.303096808183E+03    0.92365E+01   -0.13098E+02 33720   0.496E+01    0.450E+01
DAV:   9    -0.287430480995E+03    0.15666E+02   -0.38422E+01 34464   0.207E+01    0.328E+01
DAV:  10    -0.289042164327E+03   -0.16117E+01   -0.75285E+01 34528   0.130E+01    0.400E+01
DAV:  11    -0.285990062646E+03    0.30521E+01   -0.31374E+01 33744   0.977E+00    0.272E+01
DAV:  12    -0.283063135141E+03    0.29269E+01   -0.19306E+01 34592   0.725E+00    0.230E+01
DAV:  13    -0.283966010647E+03   -0.90288E+00   -0.30019E+00 34552   0.225E+00    0.192E+01
DAV:  14    -0.284550782000E+03   -0.58477E+00   -0.43775E-01 31776   0.124E+00    0.180E+01
DAV:  15    -0.284793466904E+03   -0.24268E+00   -0.21198E+00 30728   0.557E+00    0.132E+01
DAV:  16    -0.285689202996E+03   -0.89574E+00   -0.55804E-01 29456   0.284E+00    0.156E+01
DAV:  17    -0.285605515080E+03    0.83688E-01   -0.91097E-02 32088   0.114E+00    0.138E+01
DAV:  18    -0.285619334576E+03   -0.13819E-01   -0.83081E+00 35272   0.363E+00    0.134E+01
DAV:  19    -0.285685693430E+03   -0.66359E-01   -0.12927E-01 29080   0.136E+00    0.113E+01
DAV:  20    -0.285730195342E+03   -0.44502E-01   -0.25003E-01 36656   0.144E+00    0.929E+00
DAV:  21    -0.285729668985E+03    0.52636E-03   -0.30649E-02 29184   0.651E-01    0.932E+00
DAV:  22    -0.285732078872E+03   -0.24099E-02   -0.24408E-03 26632   0.237E-01    0.933E+00
DAV:  23    -0.285722675251E+03    0.94036E-02   -0.16037E-02 36112   0.575E-01    0.885E+00
DAV:  24    -0.285649735626E+03    0.72940E-01   -0.18114E-01 34672   0.201E+00    0.437E+00
DAV:  25    -0.285739129983E+03   -0.89394E-01   -0.40197E-01 30456   0.811E-01    0.630E+00
DAV:  26    -0.285710649684E+03    0.28480E-01   -0.10547E-01 32080   0.765E-01    0.503E+00
DAV:  27    -0.285714885563E+03   -0.42359E-02   -0.70637E-02 33112   0.574E-01    0.401E+00
DAV:  28    -0.285723630177E+03   -0.87446E-02   -0.33017E-02 33072   0.419E-01    0.376E+00
DAV:  29    -0.285724682067E+03   -0.10519E-02   -0.32916E-03 25960   0.197E-01    0.404E+00
DAV:  30    -0.285730635134E+03   -0.59531E-02   -0.11924E-02 35208   0.302E-01    0.576E+00
DAV:  31    -0.285744699442E+03   -0.14064E-01   -0.19495E-02 30760   0.398E-01    0.696E+00
DAV:  32    -0.285755909109E+03   -0.11210E-01   -0.34172E-02 32672   0.382E-01    0.693E+00
DAV:  33    -0.285746445867E+03    0.94632E-02   -0.13939E-02 33944   0.356E-01    0.570E+00
DAV:  34    -0.285737856242E+03    0.85896E-02   -0.14866E-02 34960   0.324E-01    0.365E+00
DAV:  35    -0.285750942459E+03   -0.13086E-01   -0.20983E-02 31472   0.321E-01    0.204E+00
DAV:  36    -0.285761188664E+03   -0.10246E-01   -0.94500E-03 29696   0.245E-01    0.240E+00
DAV:  37    -0.285764032366E+03   -0.28437E-02   -0.70602E-03 33184   0.260E-01    0.322E+00
DAV:  38    -0.285753892123E+03    0.10140E-01   -0.15273E-02 33680   0.321E-01    0.129E+00
DAV:  39    -0.285761823417E+03   -0.79313E-02   -0.54520E-03 25840   0.225E-01    0.110E+00
DAV:  40    -0.285762853278E+03   -0.10299E-02   -0.18307E-03 31040   0.165E-01    0.712E-01
DAV:  41    -0.285763855651E+03   -0.10024E-02   -0.10831E-03 30000   0.933E-02    0.104E+00
DAV:  42    -0.285763368544E+03    0.48711E-03   -0.22952E-04 27912   0.600E-02    0.108E+00
DAV:  43    -0.285762663495E+03    0.70505E-03   -0.16039E-03 31768   0.795E-02    0.487E-01
DAV:  44    -0.285763540707E+03   -0.87721E-03   -0.77789E-04 28384   0.637E-02    0.339E-01
DAV:  45    -0.285763785948E+03   -0.24524E-03   -0.31257E-04 23816   0.426E-02    0.264E-01
DAV:  46    -0.285763876532E+03   -0.90584E-04   -0.11032E-04 22312   0.329E-02    0.218E-01
DAV:  47    -0.285763884793E+03   -0.82608E-05   -0.18781E-05 19464   0.205E-02
   1 F= -.28576388E+03 E0= -.28574718E+03  d E =-.285764E+03  mag=     5.1416
       N       E                     dE             d eps       ncg     rms          rms(c)
DAV:   1    -0.285776259538E+03   -0.12383E-01   -0.58845E-03 25136   0.265E-01    0.160E-01
DAV:   2    -0.285778020203E+03   -0.17607E-02   -0.72289E-03 34216   0.172E-01    0.155E+00
DAV:   3    -0.285774784368E+03    0.32358E-02   -0.37968E-03 32440   0.178E-01    0.329E-01
DAV:   4    -0.285776392222E+03   -0.16079E-02   -0.25426E-04 24000   0.667E-02    0.623E-01
DAV:   5    -0.285776144748E+03    0.24747E-03   -0.17990E-04 23760   0.502E-02    0.584E-01
DAV:   6    -0.285776023781E+03    0.12097E-03   -0.42771E-04 20952   0.345E-02    0.520E-01
DAV:   7    -0.285775966895E+03    0.56886E-04   -0.11918E-04 24096   0.355E-02    0.247E-01
DAV:   8    -0.285776290332E+03   -0.32344E-03   -0.16098E-04 23944   0.494E-02    0.313E-01
DAV:   9    -0.285776459026E+03   -0.16869E-03   -0.29170E-04 31152   0.578E-02    0.691E-01
DAV:  10    -0.285776412098E+03    0.46928E-04   -0.16512E-04 25584   0.467E-02    0.107E+00
DAV:  11    -0.285775517575E+03    0.89452E-03   -0.67014E-05 21056   0.368E-02    0.992E-01
DAV:  12    -0.285775431427E+03    0.86148E-04   -0.34870E-05 17392   0.131E-02    0.895E-01
DAV:  13    -0.285775530667E+03   -0.99240E-04   -0.93849E-06 16792   0.113E-02    0.810E-01
DAV:  14    -0.285775680888E+03   -0.15022E-03   -0.80772E-06 15312   0.108E-02    0.756E-01
DAV:  15    -0.285775730508E+03   -0.49620E-04   -0.65335E-05 20264   0.222E-02    0.604E-01
DAV:  16    -0.285775899793E+03   -0.16928E-03   -0.30479E-05 19304   0.200E-02    0.444E-01
DAV:  17    -0.285776062251E+03   -0.16246E-03   -0.29703E-05 19736   0.236E-02    0.186E-01
DAV:  18    -0.285776281209E+03   -0.21896E-03   -0.36457E-05 20240   0.260E-02    0.689E-02
DAV:  19    -0.285776352841E+03   -0.71633E-04   -0.11952E-05 16472   0.169E-02    0.924E-02
DAV:  20    -0.285776350144E+03    0.26972E-05   -0.11292E-05 15816   0.138E-02
   2 F= -.28577635E+03 E0= -.28575963E+03  d E =-.124654E-01  mag=     5.1376
       N       E                     dE             d eps       ncg     rms          rms(c)
DAV:   1    -0.286323882196E+03   -0.54753E+00   -0.23083E+01 24768   0.166E+01    0.340E+00
DAV:   2    -0.286738014545E+03   -0.41413E+00   -0.50428E+00 33024   0.491E+00    0.105E+01
DAV:   3    -0.286563536041E+03    0.17448E+00   -0.92413E-01 34272   0.294E+00    0.135E+01
DAV:   4    -0.286347296773E+03    0.21624E+00   -0.60377E-01 34520   0.135E+00    0.515E+00
DAV:   5    -0.286395758905E+03   -0.48462E-01   -0.11335E-01 32576   0.621E-01    0.425E+00
DAV:   6    -0.286435028144E+03   -0.39269E-01   -0.40573E-01 35040   0.978E-01    0.582E+00
DAV:   7    -0.286402440209E+03    0.32588E-01   -0.46333E-02 32272   0.726E-01    0.424E+00
DAV:   8    -0.286392330038E+03    0.10110E-01   -0.34854E-02 35664   0.341E-01    0.223E+00
DAV:   9    -0.286400306962E+03   -0.79769E-02   -0.24106E-02 29264   0.217E-01    0.950E-01
DAV:  10    -0.286407441494E+03   -0.71345E-02   -0.51174E-03 30296   0.223E-01    0.116E+00
DAV:  11    -0.286408578957E+03   -0.11375E-02   -0.14449E-02 34200   0.332E-01    0.238E+00
DAV:  12    -0.286409518317E+03   -0.93936E-03   -0.13322E-02 31192   0.287E-01    0.337E+00
DAV:  13    -0.286403986580E+03    0.55317E-02   -0.17139E-03 25232   0.141E-01    0.356E+00
DAV:  14    -0.286401483032E+03    0.25035E-02   -0.16798E-02 34672   0.200E-01    0.326E+00
DAV:  15    -0.286399720300E+03    0.17627E-02   -0.87034E-03 30768   0.211E-01    0.213E+00
DAV:  16    -0.286403001631E+03   -0.32813E-02   -0.10819E-02 33736   0.220E-01    0.974E-01
DAV:  17    -0.286407110840E+03   -0.41092E-02   -0.15007E-03 26024   0.131E-01    0.613E-01
DAV:  18    -0.286408125613E+03   -0.10148E-02   -0.43790E-04 29368   0.795E-02    0.515E-01
DAV:  19    -0.286408359999E+03   -0.23439E-03   -0.19134E-03 32192   0.948E-02    0.589E-01
DAV:  20    -0.286408326307E+03    0.33692E-04   -0.73184E-04 33224   0.116E-01    0.431E-01
DAV:  21    -0.286408513692E+03   -0.18738E-03   -0.60212E-04 31192   0.721E-02    0.756E-01
DAV:  22    -0.286408327401E+03    0.18629E-03   -0.55112E-04 27472   0.677E-02    0.101E+00
DAV:  23    -0.286407850395E+03    0.47701E-03   -0.14206E-04 24728   0.371E-02    0.109E+00
DAV:  24    -0.286407444066E+03    0.40633E-03   -0.15680E-04 21768   0.280E-02    0.113E+00
DAV:  25    -0.286407238904E+03    0.20516E-03   -0.19146E-04 24512   0.313E-02    0.121E+00
DAV:  26    -0.286407087924E+03    0.15098E-03   -0.53364E-05 18456   0.163E-02    0.123E+00
DAV:  27    -0.286407005858E+03    0.82066E-04   -0.13490E-05 14896   0.912E-03    0.124E+00
DAV:  28    -0.286407014029E+03   -0.81717E-05   -0.17959E-06 13512   0.535E-03
   3 F= -.28640701E+03 E0= -.28639055E+03  d E =-.630664E+00  mag=     5.1369
       N       E                     dE             d eps       ncg     rms          rms(c)
DAV:   1    -0.286752214064E+03   -0.34521E+00   -0.43153E+01 24768   0.238E+01    0.414E+00
DAV:   2    -0.287821586624E+03   -0.10694E+01   -0.61111E+00 32304   0.661E+00    0.185E+01
DAV:   3    -0.287152564098E+03    0.66902E+00   -0.39364E-01 33440   0.338E+00    0.128E+01
DAV:   4    -0.286973726975E+03    0.17884E+00   -0.14197E+00 34856   0.187E+00    0.985E+00
DAV:   5    -0.286908021695E+03    0.65705E-01   -0.27519E-01 32784   0.842E-01    0.507E+00
DAV:   6    -0.286936113131E+03   -0.28091E-01   -0.10407E-02 27344   0.366E-01    0.545E+00
DAV:   7    -0.286937778356E+03   -0.16652E-02   -0.53077E-02 32976   0.495E-01    0.729E+00
DAV:   8    -0.286913015094E+03    0.24763E-01   -0.11292E-01 33648   0.627E-01    0.294E+00
DAV:   9    -0.286972643215E+03   -0.59628E-01   -0.73900E-02 31248   0.742E-01    0.674E+00
DAV:  10    -0.286903151818E+03    0.69491E-01   -0.13120E-01 30496   0.719E-01    0.372E+00
DAV:  11    -0.286950017406E+03   -0.46866E-01   -0.17662E-01 32976   0.562E-01    0.424E+00
DAV:  12    -0.286950552663E+03   -0.53526E-03   -0.49170E-02 31912   0.530E-01    0.324E+00
DAV:  13    -0.286967869504E+03   -0.17317E-01   -0.87905E-02 34504   0.629E-01    0.469E+00
DAV:  14    -0.286951285331E+03    0.16584E-01   -0.36674E-02 28056   0.541E-01    0.370E+00
DAV:  15    -0.286943100371E+03    0.81850E-02   -0.12017E-02 35304   0.262E-01    0.141E+00
DAV:  16    -0.286954033067E+03   -0.10933E-01   -0.15563E-02 26880   0.231E-01    0.139E+00
DAV:  17    -0.286956481057E+03   -0.24480E-02   -0.49147E-03 30840   0.232E-01    0.173E+00
DAV:  18    -0.286957359663E+03   -0.87861E-03   -0.58276E-03 33584   0.216E-01    0.251E+00
DAV:  19    -0.286953446050E+03    0.39136E-02   -0.15251E-03 29664   0.155E-01    0.221E+00
DAV:  20    -0.286953495788E+03   -0.49738E-04   -0.60886E-04 33232   0.577E-02    0.218E+00
DAV:  21    -0.286953918709E+03   -0.42292E-03   -0.20392E-04 23776   0.356E-02    0.225E+00
DAV:  22    -0.286953898171E+03    0.20538E-04   -0.51223E-05 21240   0.311E-02    0.220E+00
DAV:  23    -0.286953835431E+03    0.62740E-04   -0.29254E-05 18440   0.214E-02    0.219E+00
DAV:  24    -0.286953780019E+03    0.55411E-04   -0.14677E-04 26248   0.370E-02    0.222E+00
DAV:  25    -0.286952246231E+03    0.15338E-02   -0.95455E-04 31392   0.943E-02    0.212E+00
DAV:  26    -0.286953029795E+03   -0.78356E-03   -0.10280E-04 25064   0.359E-02    0.209E+00
DAV:  27    -0.286953385812E+03   -0.35602E-03   -0.11581E-05 16992   0.165E-02    0.210E+00
DAV:  28    -0.286954891389E+03   -0.15056E-02   -0.11718E-03 32792   0.128E-01    0.225E+00
DAV:  29    -0.286954811868E+03    0.79521E-04   -0.97899E-04 30752   0.112E-01    0.235E+00
DAV:  30    -0.286952883284E+03    0.19286E-02   -0.37403E-03 32784   0.180E-01    0.183E+00
DAV:  31    -0.286954174910E+03   -0.12916E-02   -0.15681E-03 32408   0.113E-01    0.140E+00
DAV:  32    -0.286955526368E+03   -0.13515E-02   -0.60142E-04 30032   0.823E-02    0.117E+00
DAV:  33    -0.286956188373E+03   -0.66201E-03   -0.68453E-04 32224   0.641E-02    0.893E-01
DAV:  34    -0.286956845195E+03   -0.65682E-03   -0.82182E-04 30256   0.712E-02    0.585E-01
DAV:  35    -0.286957520429E+03   -0.67523E-03   -0.40002E-04 27944   0.519E-02    0.478E-01
DAV:  36    -0.286957822187E+03   -0.30176E-03   -0.37229E-04 27400   0.405E-02    0.432E-01
DAV:  37    -0.286957904795E+03   -0.82608E-04   -0.30665E-04 26752   0.368E-02    0.323E-01
DAV:  38    -0.286957974162E+03   -0.69367E-04   -0.36871E-04 28936   0.433E-02    0.102E-01
DAV:  39    -0.286958135252E+03   -0.16109E-03   -0.12832E-04 21760   0.282E-02    0.807E-02
DAV:  40    -0.286958175094E+03   -0.39842E-04   -0.81694E-05 19520   0.235E-02    0.606E-02
DAV:  41    -0.286958179332E+03   -0.42382E-05   -0.18053E-05 16200   0.131E-02
   4 F= -.28695818E+03 E0= -.28694153E+03  d E =-.551165E+00  mag=     5.0993
       N       E                     dE             d eps       ncg     rms          rms(c)
DAV:   1    -0.287045532935E+03   -0.87358E-01   -0.27610E+01 24768   0.198E+01    0.292E+00
DAV:   2    -0.287535876557E+03   -0.49034E+00   -0.45172E+00 32000   0.518E+00    0.147E+01
DAV:   3    -0.287376505573E+03    0.15937E+00   -0.20858E-01 33800   0.242E+00    0.116E+01
DAV:   4    -0.287143177656E+03    0.23333E+00   -0.12150E-01 35152   0.166E+00    0.520E+00
DAV:   5    -0.287169853767E+03   -0.26676E-01   -0.20215E-01 34320   0.741E-01    0.453E+00
DAV:   6    -0.287165015053E+03    0.48387E-02   -0.67497E-02 32568   0.550E-01    0.313E+00
DAV:   7    -0.287171005365E+03   -0.59903E-02   -0.45848E-03 25912   0.217E-01    0.330E+00
DAV:   8    -0.287177429215E+03   -0.64238E-02   -0.15424E-01 33888   0.614E-01    0.469E+00
DAV:   9    -0.287173308041E+03    0.41212E-02   -0.13169E-01 31832   0.667E-01    0.468E+00
DAV:  10    -0.287159782326E+03    0.13526E-01   -0.43033E-02 34280   0.527E-01    0.180E+00
DAV:  11    -0.287181560629E+03   -0.21778E-01   -0.13372E-02 29880   0.327E-01    0.279E+00
DAV:  12    -0.287181784969E+03   -0.22434E-03   -0.28446E-03 25040   0.236E-01    0.347E+00
DAV:  13    -0.287176271005E+03    0.55140E-02   -0.46790E-03 32864   0.178E-01    0.412E+00
DAV:  14    -0.287176136556E+03    0.13445E-03   -0.39014E-03 31616   0.151E-01    0.511E+00
DAV:  15    -0.287173477709E+03    0.26588E-02   -0.25840E-03 29528   0.153E-01    0.588E+00
DAV:  16    -0.287170295150E+03    0.31826E-02   -0.62619E-03 32232   0.152E-01    0.655E+00
DAV:  17    -0.287161779488E+03    0.85157E-02   -0.44046E-03 32136   0.145E-01    0.625E+00
DAV:  18    -0.287158771998E+03    0.30075E-02   -0.75222E-03 33728   0.159E-01    0.596E+00
DAV:  19    -0.287159500702E+03   -0.72870E-03   -0.18987E-03 27400   0.991E-02    0.599E+00
DAV:  20    -0.287160503119E+03   -0.10024E-02   -0.39866E-04 26448   0.626E-02    0.589E+00
DAV:  21    -0.287161085940E+03   -0.58282E-03   -0.15411E-03 31448   0.141E-01    0.679E+00
DAV:  22    -0.287152070184E+03    0.90158E-02   -0.57158E-03 32536   0.177E-01    0.705E+00
DAV:  23    -0.287150437309E+03    0.16329E-02   -0.10405E-03 30576   0.116E-01    0.664E+00
DAV:  24    -0.287150142055E+03    0.29525E-03   -0.67808E-04 32888   0.829E-02    0.665E+00
DAV:  25    -0.287151488785E+03   -0.13467E-02   -0.14798E-04 25840   0.332E-02    0.661E+00
DAV:  26    -0.287154236928E+03   -0.27481E-02   -0.57023E-05 23304   0.322E-02    0.692E+00
DAV:  27    -0.287153508202E+03    0.72873E-03   -0.14537E-04 26848   0.430E-02    0.689E+00
DAV:  28    -0.287143014664E+03    0.10494E-01   -0.15593E-03 31880   0.125E-01    0.605E+00
DAV:  29    -0.287140281557E+03    0.27331E-02   -0.63413E-03 31704   0.207E-01    0.602E+00
DAV:  30    -0.287140318567E+03   -0.37010E-04   -0.17482E-03 29184   0.124E-01    0.554E+00
DAV:  31    -0.287138076310E+03    0.22423E-02   -0.16560E-03 32080   0.142E-01    0.429E+00
DAV:  32    -0.287147013346E+03   -0.89370E-02   -0.30674E-03 27080   0.144E-01    0.336E+00
DAV:  33    -0.287154828174E+03   -0.78148E-02   -0.12506E-03 26264   0.101E-01    0.310E+00
DAV:  34    -0.287159101674E+03   -0.42735E-02   -0.44584E-04 28424   0.727E-02    0.320E+00
DAV:  35    -0.287162497431E+03   -0.33958E-02   -0.11766E-03 33104   0.115E-01    0.350E+00
DAV:  36    -0.287159576309E+03    0.29211E-02   -0.22108E-03 30984   0.123E-01    0.341E+00
DAV:  37    -0.287153740455E+03    0.58359E-02   -0.29687E-03 29672   0.135E-01    0.330E+00
DAV:  38    -0.287151039980E+03    0.27005E-02   -0.47562E-03 33048   0.116E-01    0.306E+00
DAV:  39    -0.287153229984E+03   -0.21900E-02   -0.33940E-03 29120   0.742E-02    0.272E+00
DAV:  40    -0.287155075128E+03   -0.18451E-02   -0.22512E-03 31512   0.824E-02    0.254E+00
DAV:  41    -0.287151164702E+03    0.39104E-02   -0.11420E-02 33736   0.185E-01    0.244E+00
DAV:  42    -0.287156130369E+03   -0.49657E-02   -0.32887E-03 26432   0.106E-01    0.230E+00
DAV:  43    -0.287158225323E+03   -0.20950E-02   -0.26830E-03 30952   0.969E-02    0.277E+00
DAV:  44    -0.287157477031E+03    0.74829E-03   -0.93115E-04 25472   0.102E-01    0.252E+00
DAV:  45    -0.287156090789E+03    0.13862E-02   -0.84489E-04 30008   0.982E-02    0.164E+00
DAV:  46    -0.287158441015E+03   -0.23502E-02   -0.92760E-04 30112   0.104E-01    0.811E-01
DAV:  47    -0.287161703240E+03   -0.32622E-02   -0.51287E-04 27504   0.978E-02    0.763E-01
DAV:  48    -0.287162342943E+03   -0.63970E-03   -0.14088E-04 25608   0.513E-02    0.741E-01
DAV:  49    -0.287162002528E+03    0.34041E-03   -0.21249E-04 24648   0.507E-02    0.772E-01
DAV:  50    -0.287161868031E+03    0.13450E-03   -0.11699E-04 24112   0.252E-02    0.703E-01
DAV:  51    -0.287161941252E+03   -0.73221E-04   -0.54511E-05 18624   0.174E-02    0.635E-01
DAV:  52    -0.287161951670E+03   -0.10418E-04   -0.46079E-05 19976   0.215E-02    0.612E-01
DAV:  53    -0.287162060321E+03   -0.10865E-03   -0.17728E-05 17040   0.129E-02    0.585E-01
DAV:  54    -0.287162146987E+03   -0.86666E-04   -0.60629E-06 14256   0.881E-03    0.568E-01
DAV:  55    -0.287162149794E+03   -0.28078E-05   -0.95292E-06 15752   0.944E-03
   5 F= -.28716215E+03 E0= -.28714263E+03  d E =-.203970E+00  mag=     5.0457
       N       E                     dE             d eps       ncg     rms          rms(c)
DAV:   1    -0.287137636591E+03    0.24510E-01   -0.30685E+01 25056   0.205E+01    0.243E+00
DAV:   2    -0.287414935073E+03   -0.27730E+00   -0.29024E+00 29792   0.448E+00    0.953E+00
DAV:   3    -0.287310313605E+03    0.10462E+00   -0.13817E-01 34808   0.187E+00    0.826E+00
DAV:   4    -0.287243204317E+03    0.67109E-01   -0.23807E-01 35072   0.102E+00    0.284E+00
DAV:   5    -0.287282718599E+03   -0.39514E-01   -0.79844E-02 31256   0.631E-01    0.365E+00
DAV:   6    -0.287284845172E+03   -0.21266E-02   -0.47358E-02 31168   0.409E-01    0.569E+00
DAV:   7    -0.287252814120E+03    0.32031E-01   -0.83920E-02 32568   0.539E-01    0.682E+00
DAV:   8    -0.287259939507E+03   -0.71254E-02   -0.22326E-02 26560   0.392E-01    0.753E+00
DAV:   9    -0.287218085139E+03    0.41854E-01   -0.56471E-02 33088   0.553E-01    0.240E+00
DAV:  10    -0.287253839871E+03   -0.35755E-01   -0.27590E-02 29096   0.568E-01    0.170E+00
DAV:  11    -0.287265276795E+03   -0.11437E-01   -0.13516E-02 32312   0.377E-01    0.196E+00
DAV:  12    -0.287264023030E+03    0.12538E-02   -0.11239E-03 29048   0.114E-01    0.216E+00
DAV:  13    -0.287260306150E+03    0.37169E-02   -0.38596E-03 36192   0.185E-01    0.213E+00
DAV:  14    -0.287261637637E+03   -0.13315E-02   -0.66993E-03 33400   0.162E-01    0.279E+00
DAV:  15    -0.287262685949E+03   -0.10483E-02   -0.65553E-03 31640   0.143E-01    0.379E+00
DAV:  16    -0.287256726717E+03    0.59592E-02   -0.13786E-02 30952   0.201E-01    0.386E+00
DAV:  17    -0.287258764275E+03   -0.20376E-02   -0.80594E-03 27928   0.136E-01    0.419E+00
DAV:  18    -0.287257828826E+03    0.93545E-03   -0.18384E-03 25048   0.944E-02    0.435E+00
DAV:  19    -0.287258012936E+03   -0.18411E-03   -0.88392E-04 29192   0.622E-02    0.458E+00
DAV:  20    -0.287260206421E+03   -0.21935E-02   -0.78778E-03 33072   0.224E-01    0.458E+00
DAV:  21    -0.287263975676E+03   -0.37693E-02   -0.89215E-03 33632   0.210E-01    0.479E+00
DAV:  22    -0.287261470952E+03    0.25047E-02   -0.24302E-03 26952   0.112E-01    0.471E+00
DAV:  23    -0.287258515911E+03    0.29550E-02   -0.69414E-04 27544   0.713E-02    0.443E+00
DAV:  24    -0.287255745184E+03    0.27707E-02   -0.10445E-03 31440   0.125E-01    0.410E+00
DAV:  25    -0.287244961935E+03    0.10783E-01   -0.78652E-03 32936   0.323E-01    0.342E+00
DAV:  26    -0.287255383571E+03   -0.10422E-01   -0.15631E-03 25696   0.142E-01    0.311E+00
DAV:  27    -0.287260393210E+03   -0.50096E-02   -0.33661E-04 28968   0.734E-02    0.325E+00
DAV:  28    -0.287262479720E+03   -0.20865E-02   -0.41402E-04 33776   0.668E-02    0.370E+00
DAV:  29    -0.287259985807E+03    0.24939E-02   -0.16998E-04 25152   0.465E-02    0.389E+00
DAV:  30    -0.287257906473E+03    0.20793E-02   -0.10191E-04 24656   0.343E-02    0.395E+00
DAV:  31    -0.287253309014E+03    0.45975E-02   -0.56158E-04 30568   0.882E-02    0.365E+00
DAV:  32    -0.287251625403E+03    0.16836E-02   -0.91084E-04 33328   0.103E-01    0.338E+00
DAV:  33    -0.287251994947E+03   -0.36954E-03   -0.90337E-04 32040   0.843E-02    0.330E+00
DAV:  34    -0.287245130251E+03    0.68647E-02   -0.83123E-03 32000   0.242E-01    0.332E+00
DAV:  35    -0.287252182123E+03   -0.70519E-02   -0.37949E-03 25696   0.129E-01    0.261E+00
DAV:  36    -0.287257102954E+03   -0.49208E-02   -0.10470E-03 25656   0.857E-02    0.224E+00
DAV:  37    -0.287259415188E+03   -0.23122E-02   -0.25975E-04 26512   0.566E-02    0.203E+00
DAV:  38    -0.287259852311E+03   -0.43712E-03   -0.58483E-04 31160   0.707E-02    0.174E+00
DAV:  39    -0.287259492460E+03    0.35985E-03   -0.37960E-03 32904   0.152E-01    0.155E+00
DAV:  40    -0.287261576786E+03   -0.20843E-02   -0.36271E-03 31328   0.134E-01    0.108E+00
DAV:  41    -0.287262857318E+03   -0.12805E-02   -0.66554E-04 28344   0.938E-02    0.954E-01
DAV:  42    -0.287263140707E+03   -0.28339E-03   -0.22918E-04 25432   0.549E-02    0.105E+00
DAV:  43    -0.287263189260E+03   -0.48553E-04   -0.58946E-05 21888   0.284E-02    0.112E+00
DAV:  44    -0.287263197615E+03   -0.83551E-05   -0.21052E-04 25464   0.362E-02    0.109E+00
DAV:  45    -0.287263042393E+03    0.15522E-03   -0.64311E-05 17544   0.165E-02    0.111E+00
DAV:  46    -0.287262875136E+03    0.16726E-03   -0.13905E-05 15200   0.110E-02    0.113E+00
DAV:  47    -0.287262706893E+03    0.16824E-03   -0.66425E-06 13448   0.813E-03    0.109E+00
DAV:  48    -0.287262759536E+03   -0.52643E-04   -0.99692E-06 15384   0.114E-02    0.105E+00
DAV:  49    -0.287262327718E+03    0.43182E-03   -0.80603E-04 29088   0.638E-02    0.109E+00
DAV:  50    -0.287262702580E+03   -0.37486E-03   -0.14076E-04 21440   0.265E-02    0.109E+00
DAV:  51    -0.287262681427E+03    0.21152E-04   -0.17499E-04 20456   0.246E-02    0.115E+00
DAV:  52    -0.287262717890E+03   -0.36462E-04   -0.75879E-05 22440   0.373E-02    0.114E+00
DAV:  53    -0.287262611203E+03    0.10669E-03   -0.68007E-05 19368   0.262E-02    0.116E+00
DAV:  54    -0.287262747137E+03   -0.13593E-03   -0.28938E-05 17768   0.232E-02    0.113E+00
DAV:  55    -0.287262897103E+03   -0.14997E-03   -0.16641E-04 24496   0.304E-02    0.108E+00
DAV:  56    -0.287263414440E+03   -0.51734E-03   -0.97683E-04 31152   0.646E-02    0.955E-01
DAV:  57    -0.287264681049E+03   -0.12666E-02   -0.16725E-03 31472   0.102E-01    0.929E-01
DAV:  58    -0.287264496089E+03    0.18496E-03   -0.52335E-04 25808   0.527E-02    0.104E+00
DAV:  59    -0.287263939683E+03    0.55641E-03   -0.94270E-05 19896   0.266E-02    0.110E+00
DAV:  60    -0.287263489665E+03    0.45002E-03   -0.20131E-05 18392   0.222E-02    0.111E+00
DAV:  61    -0.287263302012E+03    0.18765E-03   -0.13457E-05 15416   0.108E-02    0.110E+00
DAV:  62    -0.287263594976E+03   -0.29296E-03   -0.49142E-04 26680   0.545E-02    0.111E+00
DAV:  63    -0.287264774005E+03   -0.11790E-02   -0.40854E-03 31304   0.134E-01    0.115E+00
DAV:  64    -0.287266167115E+03   -0.13931E-02   -0.45908E-03 32528   0.111E-01    0.126E+00
DAV:  65    -0.287266342850E+03   -0.17573E-03   -0.15915E-03 27488   0.671E-02    0.141E+00
DAV:  66    -0.287267037373E+03   -0.69452E-03   -0.17852E-03 30432   0.825E-02    0.144E+00
DAV:  67    -0.287268480370E+03   -0.14430E-02   -0.23476E-03 31896   0.116E-01    0.155E+00
DAV:  68    -0.287268351272E+03    0.12910E-03   -0.86691E-04 29616   0.628E-02    0.158E+00
DAV:  69    -0.287269716286E+03   -0.13650E-02   -0.11588E-03 30912   0.905E-02    0.146E+00
DAV:  70    -0.287269523922E+03    0.19236E-03   -0.22643E-04 26824   0.351E-02    0.149E+00
DAV:  71    -0.287269306569E+03    0.21735E-03   -0.22274E-05 17824   0.135E-02    0.151E+00
DAV:  72    -0.287269890464E+03   -0.58390E-03   -0.75650E-05 22128   0.275E-02    0.156E+00
DAV:  73    -0.287269268863E+03    0.62160E-03   -0.19051E-05 18408   0.198E-02    0.162E+00
DAV:  74    -0.287269320752E+03   -0.51889E-04   -0.11023E-05 16360   0.138E-02    0.167E+00
DAV:  75    -0.287266318163E+03    0.30026E-02   -0.90035E-04 28896   0.106E-01    0.152E+00
DAV:  76    -0.287263358440E+03    0.29597E-02   -0.23782E-03 31928   0.145E-01    0.135E+00
DAV:  77    -0.287266707814E+03   -0.33494E-02   -0.63823E-04 24424   0.740E-02    0.118E+00
DAV:  78    -0.287266202804E+03    0.50501E-03   -0.39966E-04 28680   0.530E-02    0.116E+00
DAV:  79    -0.287266646124E+03   -0.44332E-03   -0.13577E-04 24456   0.316E-02    0.111E+00
DAV:  80    -0.287267587698E+03   -0.94157E-03   -0.42431E-05 20672   0.297E-02    0.105E+00
DAV:  81    -0.287268638777E+03   -0.10511E-02   -0.22863E-04 26384   0.462E-02    0.981E-01
DAV:  82    -0.287271013967E+03   -0.23752E-02   -0.24463E-03 30936   0.151E-01    0.751E-01
DAV:  83    -0.287271391268E+03   -0.37730E-03   -0.51137E-04 30824   0.528E-02    0.684E-01
DAV:  84    -0.287271137562E+03    0.25371E-03   -0.48255E-05 20856   0.278E-02    0.630E-01
DAV:  85    -0.287271892326E+03   -0.75476E-03   -0.16000E-04 25160   0.458E-02    0.511E-01
DAV:  86    -0.287272401556E+03   -0.50923E-03   -0.26331E-04 28328   0.521E-02    0.408E-01
DAV:  87    -0.287272696590E+03   -0.29503E-03   -0.56576E-05 21944   0.286E-02    0.491E-01
DAV:  88    -0.287272688878E+03    0.77117E-05   -0.44825E-05 21112   0.255E-02
   6 F= -.28727269E+03 E0= -.28725638E+03  d E =-.110539E+00  mag=     5.0355
       N       E                     dE             d eps       ncg     rms          rms(c)
DAV:   1    -0.286842972214E+03    0.42972E+00   -0.82749E+01 25056   0.328E+01    0.551E+00
DAV:   2    -0.287639543368E+03   -0.79657E+00   -0.55345E+00 29792   0.745E+00    0.136E+01
DAV:   3    -0.287383169274E+03    0.25637E+00   -0.18056E+00 33920   0.402E+00    0.146E+01
DAV:   4    -0.287152896258E+03    0.23027E+00   -0.14826E+00 33560   0.188E+00    0.721E+00
DAV:   5    -0.287211268907E+03   -0.58373E-01   -0.94419E-01 33384   0.164E+00    0.672E+00
DAV:   6    -0.287149161707E+03    0.62107E-01   -0.32046E-01 33664   0.124E+00    0.279E+00
DAV:   7    -0.287156956321E+03   -0.77946E-02   -0.13120E-01 32568   0.774E-01    0.236E+00
DAV:   8    -0.287161914370E+03   -0.49580E-02   -0.60395E-02 32928   0.517E-01    0.329E+00
DAV:   9    -0.287165205143E+03   -0.32908E-02   -0.69072E-02 32952   0.599E-01    0.349E+00
DAV:  10    -0.287163266757E+03    0.19384E-02   -0.13438E-02 29544   0.412E-01    0.291E+00
DAV:  11    -0.287163466801E+03   -0.20004E-03   -0.58401E-02 34360   0.411E-01    0.301E+00
DAV:  12    -0.287166485626E+03   -0.30188E-02   -0.48972E-02 31128   0.546E-01    0.232E+00
DAV:  13    -0.287168883694E+03   -0.23981E-02   -0.38323E-02 32536   0.459E-01    0.148E+00
DAV:  14    -0.287174171526E+03   -0.52878E-02   -0.36488E-02 32032   0.329E-01    0.183E+00
DAV:  15    -0.287173092552E+03    0.10790E-02   -0.62258E-03 29176   0.258E-01    0.210E+00
DAV:  16    -0.287171458656E+03    0.16339E-02   -0.12037E-03 30320   0.104E-01    0.231E+00
DAV:  17    -0.287166960389E+03    0.44983E-02   -0.50125E-03 31208   0.225E-01    0.224E+00
DAV:  18    -0.287162977764E+03    0.39826E-02   -0.58523E-03 32288   0.266E-01    0.237E+00
DAV:  19    -0.287169523229E+03   -0.65455E-02   -0.52848E-03 30088   0.257E-01    0.202E+00
DAV:  20    -0.287172637731E+03   -0.31145E-02   -0.21214E-02 32232   0.481E-01    0.932E-01
DAV:  21    -0.287174999069E+03   -0.23613E-02   -0.71297E-03 32528   0.232E-01    0.117E+00
DAV:  22    -0.287175164877E+03   -0.16581E-03   -0.47984E-03 32376   0.168E-01    0.142E+00
DAV:  23    -0.287173540267E+03    0.16246E-02   -0.10317E-03 30880   0.124E-01    0.579E-01
DAV:  24    -0.287174852561E+03   -0.13123E-02   -0.46084E-04 28960   0.757E-02    0.502E-01
DAV:  25    -0.287175080825E+03   -0.22826E-03   -0.12455E-04 26136   0.387E-02    0.495E-01
DAV:  26    -0.287175217116E+03   -0.13629E-03   -0.49721E-04 29744   0.647E-02    0.462E-01
DAV:  27    -0.287175167683E+03    0.49433E-04   -0.32053E-04 30832   0.569E-02    0.128E-01
DAV:  28    -0.287175378854E+03   -0.21117E-03   -0.20797E-04 25416   0.442E-02    0.923E-02
DAV:  29    -0.287175399691E+03   -0.20837E-04   -0.54404E-05 21968   0.291E-02    0.420E-02
DAV:  30    -0.287175401517E+03   -0.18257E-05   -0.16054E-05 15696   0.155E-02
   7 F= -.28717540E+03 E0= -.28715879E+03  d E =0.972874E-01  mag=     5.1356
       N       E                     dE             d eps       ncg     rms          rms(c)
DAV:   1    -0.287291339342E+03   -0.11594E+00   -0.28254E+01 25344   0.187E+01    0.449E+00
DAV:   2    -0.288213831072E+03   -0.92249E+00   -0.17193E+00 32528   0.499E+00    0.182E+01
DAV:   3    -0.287316738906E+03    0.89709E+00   -0.29294E-01 32888   0.304E+00    0.551E+00
DAV:   4    -0.287442147224E+03   -0.12541E+00   -0.10324E+00 32792   0.145E+00    0.829E+00
DAV:   5    -0.287396874646E+03    0.45273E-01   -0.36126E-01 32968   0.113E+00    0.734E+00
DAV:   6    -0.287451023945E+03   -0.54149E-01   -0.18121E-01 30112   0.801E-01    0.101E+01
DAV:   7    -0.287432743002E+03    0.18281E-01   -0.68304E-02 32480   0.732E-01    0.141E+01
DAV:   8    -0.287397687553E+03    0.35055E-01   -0.14558E-01 33368   0.149E+00    0.100E+01
DAV:   9    -0.287410463226E+03   -0.12776E-01   -0.54212E-01 28280   0.108E+00    0.687E+00
DAV:  10    -0.287413836995E+03   -0.33738E-02   -0.71444E-02 28336   0.677E-01    0.698E+00
DAV:  11    -0.287414859499E+03   -0.10225E-02   -0.64825E-03 28656   0.278E-01    0.704E+00
DAV:  12    -0.287368449216E+03    0.46410E-01   -0.30750E-02 33280   0.480E-01    0.680E+00
DAV:  13    -0.287328244993E+03    0.40204E-01   -0.61455E-02 32960   0.685E-01    0.324E+00
DAV:  14    -0.287383979888E+03   -0.55735E-01   -0.25641E-02 25568   0.623E-01    0.331E+00
DAV:  15    -0.287378301615E+03    0.56783E-02   -0.80089E-03 31968   0.324E-01    0.238E+00
DAV:  16    -0.287380281486E+03   -0.19799E-02   -0.66697E-03 30264   0.277E-01    0.310E+00
DAV:  17    -0.287356610858E+03    0.23671E-01   -0.22654E-02 28872   0.461E-01    0.333E+00
DAV:  18    -0.287326997424E+03    0.29613E-01   -0.34274E-02 32288   0.483E-01    0.413E+00
DAV:  19    -0.287331642808E+03   -0.46454E-02   -0.25700E-03 28120   0.160E-01    0.410E+00
DAV:  20    -0.287335157262E+03   -0.35145E-02   -0.32762E-04 29968   0.756E-02    0.428E+00
DAV:  21    -0.287337879747E+03   -0.27225E-02   -0.34243E-03 34144   0.190E-01    0.517E+00
DAV:  22    -0.287330335445E+03    0.75443E-02   -0.20911E-03 25776   0.164E-01    0.589E+00
DAV:  23    -0.287330207774E+03    0.12767E-03   -0.17507E-03 30328   0.132E-01    0.624E+00
DAV:  24    -0.287353204604E+03   -0.22997E-01   -0.41046E-02 32832   0.693E-01    0.288E+00
DAV:  25    -0.287400404790E+03   -0.47200E-01   -0.45466E-02 31632   0.760E-01    0.380E+00
DAV:  26    -0.287390073414E+03    0.10331E-01   -0.11940E-02 25408   0.426E-01    0.357E+00
DAV:  27    -0.287384694431E+03    0.53790E-02   -0.18638E-03 33376   0.138E-01    0.279E+00
DAV:  28    -0.287387251081E+03   -0.25567E-02   -0.10223E-03 28744   0.110E-01    0.253E+00
DAV:  29    -0.287386815385E+03    0.43570E-03   -0.14841E-03 31912   0.143E-01    0.214E+00
DAV:  30    -0.287385201576E+03    0.16138E-02   -0.99780E-03 33120   0.371E-01    0.845E-01
DAV:  31    -0.287392767341E+03   -0.75658E-02   -0.38509E-03 25480   0.252E-01    0.135E+00
DAV:  32    -0.287391564148E+03    0.12032E-02   -0.14557E-03 31608   0.147E-01    0.822E-01
DAV:  33    -0.287392415486E+03   -0.85134E-03   -0.65838E-04 30472   0.745E-02    0.912E-01
DAV:  34    -0.287392345248E+03    0.70238E-04   -0.53541E-04 28800   0.827E-02    0.950E-01
DAV:  35    -0.287391398595E+03    0.94665E-03   -0.18938E-03 30592   0.115E-01    0.774E-01
DAV:  36    -0.287391136652E+03    0.26194E-03   -0.22860E-03 31960   0.117E-01    0.104E+00
DAV:  37    -0.287390897146E+03    0.23951E-03   -0.30688E-03 33224   0.124E-01    0.151E+00
DAV:  38    -0.287389850313E+03    0.10468E-02   -0.34987E-03 31736   0.127E-01    0.201E+00
DAV:  39    -0.287388660573E+03    0.11897E-02   -0.84474E-04 27896   0.681E-02    0.200E+00
DAV:  40    -0.287389216594E+03   -0.55602E-03   -0.26416E-04 26408   0.585E-02    0.221E+00
DAV:  41    -0.287388952616E+03    0.26398E-03   -0.18966E-03 29640   0.897E-02    0.239E+00
DAV:  42    -0.287388084122E+03    0.86849E-03   -0.13367E-04 23304   0.477E-02    0.244E+00
DAV:  43    -0.287386128972E+03    0.19552E-02   -0.60205E-04 31120   0.874E-02    0.186E+00
DAV:  44    -0.287387712642E+03   -0.15837E-02   -0.40762E-04 31800   0.782E-02    0.134E+00
DAV:  45    -0.287389818341E+03   -0.21057E-02   -0.30026E-04 28944   0.794E-02    0.695E-01
DAV:  46    -0.287391613400E+03   -0.17951E-02   -0.27099E-04 26456   0.756E-02    0.265E-01
DAV:  47    -0.287392404176E+03   -0.79078E-03   -0.49941E-04 27200   0.730E-02    0.873E-02
DAV:  48    -0.287392561855E+03   -0.15768E-03   -0.21747E-04 25672   0.364E-02    0.113E-01
DAV:  49    -0.287392544464E+03    0.17391E-04   -0.30716E-05 19552   0.240E-02    0.973E-02
DAV:  50    -0.287392553154E+03   -0.86896E-05   -0.72994E-06 14816   0.109E-02
   8 F= -.28739255E+03 E0= -.28737615E+03  d E =-.217152E+00  mag=     5.0926
       N       E                     dE             d eps       ncg     rms          rms(c)
DAV:   1    -0.287384967957E+03    0.75765E-02   -0.96953E+00 25344   0.119E+01    0.242E+00
DAV:   2    -0.287699564145E+03   -0.31460E+00   -0.76038E-01 30832   0.282E+00    0.166E+01
DAV:   3    -0.287367199451E+03    0.33236E+00   -0.10034E-01 32352   0.177E+00    0.783E+00
DAV:   4    -0.287419419543E+03   -0.52220E-01   -0.43077E-01 29432   0.108E+00    0.525E+00
DAV:   5    -0.287419370046E+03    0.49497E-04   -0.39520E-02 29672   0.542E-01    0.396E+00
DAV:   6    -0.287421690624E+03   -0.23206E-02   -0.96584E-03 30576   0.191E-01    0.437E+00
DAV:   7    -0.287415366750E+03    0.63239E-02   -0.11981E-03 29032   0.119E-01    0.414E+00
DAV:   8    -0.287401275264E+03    0.14091E-01   -0.11459E-01 33728   0.528E-01    0.307E+00
DAV:   9    -0.287428384550E+03   -0.27109E-01   -0.20946E-02 27112   0.479E-01    0.360E+00
DAV:  10    -0.287424606147E+03    0.37784E-02   -0.24797E-03 25696   0.224E-01    0.405E+00
DAV:  11    -0.287428400300E+03   -0.37942E-02   -0.26217E-02 33120   0.365E-01    0.631E+00
DAV:  12    -0.287423504179E+03    0.48961E-02   -0.17044E-02 26312   0.193E-01    0.657E+00
DAV:  13    -0.287423362660E+03    0.14152E-03   -0.36468E-03 30184   0.190E-01    0.739E+00
DAV:  14    -0.287413172724E+03    0.10190E-01   -0.10895E-03 30256   0.112E-01    0.729E+00
DAV:  15    -0.287402152563E+03    0.11020E-01   -0.47606E-03 32640   0.140E-01    0.705E+00
DAV:  16    -0.287406685905E+03   -0.45333E-02   -0.14655E-03 32800   0.135E-01    0.751E+00
DAV:  17    -0.287406574770E+03    0.11113E-03   -0.22449E-04 26296   0.551E-02    0.753E+00
DAV:  18    -0.287407135539E+03   -0.56077E-03   -0.83211E-05 24936   0.340E-02    0.769E+00
DAV:  19    -0.287409895110E+03   -0.27596E-02   -0.22711E-03 31232   0.202E-01    0.718E+00
DAV:  20    -0.287404565178E+03    0.53299E-02   -0.10456E-02 33584   0.347E-01    0.559E+00
DAV:  21    -0.287414109940E+03   -0.95448E-02   -0.52517E-02 32936   0.681E-01    0.367E+00
DAV:  22    -0.287414895813E+03   -0.78587E-03   -0.10986E-02 31264   0.345E-01    0.214E+00
DAV:  23    -0.287419476516E+03   -0.45807E-02   -0.28868E-03 30200   0.211E-01    0.114E+00
DAV:  24    -0.287422854531E+03   -0.33780E-02   -0.27552E-03 32720   0.190E-01    0.685E-01
DAV:  25    -0.287425189890E+03   -0.23354E-02   -0.21365E-03 31864   0.158E-01    0.130E+00
DAV:  26    -0.287425382325E+03   -0.19243E-03   -0.35585E-03 32688   0.202E-01    0.166E+00
DAV:  27    -0.287424311151E+03    0.10712E-02   -0.80676E-04 26496   0.110E-01    0.161E+00
DAV:  28    -0.287422776578E+03    0.15346E-02   -0.58085E-04 33096   0.746E-02    0.103E+00
DAV:  29    -0.287422932874E+03   -0.15630E-03   -0.12307E-03 29600   0.108E-01    0.735E-01
DAV:  30    -0.287423327022E+03   -0.39415E-03   -0.37284E-04 27128   0.721E-02    0.781E-01
DAV:  31    -0.287423688059E+03   -0.36104E-03   -0.10199E-04 26576   0.387E-02    0.823E-01
DAV:  32    -0.287424083473E+03   -0.39541E-03   -0.15584E-04 28240   0.521E-02    0.849E-01
DAV:  33    -0.287424122312E+03   -0.38839E-04   -0.17578E-04 30144   0.462E-02    0.746E-01
DAV:  34    -0.287424054187E+03    0.68125E-04   -0.10276E-04 22528   0.304E-02    0.543E-01
DAV:  35    -0.287424308927E+03   -0.25474E-03   -0.11920E-04 24656   0.324E-02    0.451E-01
DAV:  36    -0.287424394765E+03   -0.85839E-04   -0.82896E-05 19664   0.256E-02    0.441E-01
DAV:  37    -0.287424481545E+03   -0.86780E-04   -0.15687E-05 16336   0.122E-02    0.433E-01
DAV:  38    -0.287424520930E+03   -0.39385E-04   -0.58367E-06 13928   0.737E-03    0.438E-01
DAV:  39    -0.287424362526E+03    0.15840E-03   -0.26600E-04 25168   0.347E-02    0.447E-01
DAV:  40    -0.287424014193E+03    0.34833E-03   -0.80368E-04 30080   0.642E-02    0.480E-01
DAV:  41    -0.287424334725E+03   -0.32053E-03   -0.61912E-05 19384   0.231E-02    0.445E-01
DAV:  42    -0.287424350001E+03   -0.15276E-04   -0.28093E-05 15464   0.126E-02    0.408E-01
DAV:  43    -0.287424376236E+03   -0.26235E-04   -0.52711E-05 20208   0.232E-02    0.334E-01
DAV:  44    -0.287424434060E+03   -0.57824E-04   -0.48754E-05 22416   0.230E-02    0.252E-01
DAV:  45    -0.287424540165E+03   -0.10611E-03   -0.19030E-05 17424   0.183E-02    0.229E-01
DAV:  46    -0.287424629835E+03   -0.89669E-04   -0.78371E-05 19600   0.233E-02    0.221E-01
DAV:  47    -0.287424640213E+03   -0.10379E-04   -0.47386E-05 16464   0.139E-02    0.238E-01
DAV:  48    -0.287424652750E+03   -0.12537E-04   -0.29378E-05 15760   0.103E-02    0.254E-01
DAV:  49    -0.287424679492E+03   -0.26742E-04   -0.78068E-05 19000   0.176E-02    0.276E-01
DAV:  50    -0.287424669027E+03    0.10466E-04   -0.26012E-05 15952   0.967E-03    0.291E-01
DAV:  51    -0.287424662889E+03    0.61374E-05   -0.13603E-05 13632   0.808E-03
   9 F= -.28742466E+03 E0= -.28740837E+03  d E =-.321097E-01  mag=     5.0044
       N       E                     dE             d eps       ncg     rms          rms(c)
DAV:   1    -0.287406654038E+03    0.18015E-01   -0.12896E+01 25344   0.137E+01    0.196E+00
DAV:   2    -0.287561497234E+03   -0.15484E+00   -0.89406E-01 29976   0.287E+00    0.104E+01
DAV:   3    -0.287427038377E+03    0.13446E+00   -0.11197E+00 32664   0.163E+00    0.424E+00
DAV:   4    -0.287471355299E+03   -0.44317E-01   -0.64041E-02 31360   0.762E-01    0.547E+00
DAV:   5    -0.287447568312E+03    0.23787E-01   -0.31484E-02 29776   0.565E-01    0.398E+00
DAV:   6    -0.287445295183E+03    0.22731E-02   -0.16699E-02 32888   0.247E-01    0.334E+00
DAV:   7    -0.287447352517E+03   -0.20573E-02   -0.29225E-03 30368   0.105E-01    0.296E+00
DAV:   8    -0.287452146264E+03   -0.47937E-02   -0.78110E-03 32480   0.226E-01    0.353E+00
DAV:   9    -0.287442989992E+03    0.91563E-02   -0.67877E-02 32792   0.444E-01    0.224E+00
DAV:  10    -0.287454482167E+03   -0.11492E-01   -0.17567E-02 28192   0.404E-01    0.167E+00
DAV:  11    -0.287454124176E+03    0.35799E-03   -0.11272E-02 32456   0.279E-01    0.937E-01
DAV:  12    -0.287454469858E+03   -0.34568E-03   -0.82875E-03 33432   0.195E-01    0.170E+00
DAV:  13    -0.287452661667E+03    0.18082E-02   -0.42238E-03 27728   0.183E-01    0.158E+00
DAV:  14    -0.287453019086E+03   -0.35742E-03   -0.11660E-03 33160   0.786E-02    0.160E+00
DAV:  15    -0.287453250347E+03   -0.23126E-03   -0.21157E-04 24568   0.365E-02    0.160E+00
DAV:  16    -0.287453359402E+03   -0.10906E-03   -0.17989E-05 18520   0.154E-02    0.161E+00
DAV:  17    -0.287453547955E+03   -0.18855E-03   -0.17978E-05 16976   0.162E-02    0.163E+00
DAV:  18    -0.287453688058E+03   -0.14010E-03   -0.39256E-05 17728   0.160E-02    0.165E+00
DAV:  19    -0.287453786734E+03   -0.98676E-04   -0.18041E-04 26960   0.438E-02    0.158E+00
DAV:  20    -0.287453561070E+03    0.22566E-03   -0.12217E-03 31896   0.139E-01    0.143E+00
DAV:  21    -0.287453803347E+03   -0.24228E-03   -0.27668E-04 30840   0.453E-02    0.144E+00
DAV:  22    -0.287454370105E+03   -0.56676E-03   -0.28489E-04 29888   0.534E-02    0.130E+00
DAV:  23    -0.287455777240E+03   -0.14071E-02   -0.10128E-02 30800   0.279E-01    0.955E-01
DAV:  24    -0.287455783354E+03   -0.61136E-05   -0.94795E-03 33008   0.231E-01    0.311E-01
DAV:  25    -0.287457542959E+03   -0.17596E-02   -0.25907E-03 28600   0.127E-01    0.369E-01
DAV:  26    -0.287457750284E+03   -0.20733E-03   -0.77585E-04 29528   0.631E-02    0.211E-01
DAV:  27    -0.287457871817E+03   -0.12153E-03   -0.19276E-04 26384   0.374E-02    0.246E-01
DAV:  28    -0.287457902240E+03   -0.30422E-04   -0.51662E-05 19288   0.253E-02    0.270E-01
DAV:  29    -0.287457866151E+03    0.36088E-04   -0.95946E-05 21712   0.323E-02    0.142E-01
DAV:  30    -0.287457904486E+03   -0.38335E-04   -0.46492E-04 29768   0.519E-02    0.213E-01
DAV:  31    -0.287457905144E+03   -0.65754E-06   -0.17346E-04 23704   0.343E-02    0.173E-01
DAV:  32    -0.287457934528E+03   -0.29384E-04   -0.38339E-05 19176   0.216E-02    0.503E-02
DAV:  33    -0.287457965227E+03   -0.30699E-04   -0.69262E-05 21896   0.266E-02    0.750E-02
DAV:  34    -0.287457968337E+03   -0.31098E-05   -0.16939E-05 17072   0.137E-02
  10 F= -.28745797E+03 E0= -.28744135E+03  d E =-.333054E-01  mag=     5.0646
       N       E                     dE             d eps       ncg     rms          rms(c)
DAV:   1    -0.287296918233E+03    0.16105E+00   -0.35341E+01 25344   0.223E+01    0.250E+00
DAV:   2    -0.287473840771E+03   -0.17692E+00   -0.18607E+00 25696   0.419E+00    0.533E+00
DAV:   3    -0.287443270291E+03    0.30570E-01   -0.46657E-01 33864   0.144E+00    0.448E+00
DAV:   4    -0.287477127690E+03   -0.33857E-01   -0.13733E-01 35008   0.103E+00    0.720E+00
DAV:   5    -0.287420448951E+03    0.56679E-01   -0.75356E-02 32480   0.796E-01    0.263E+00
DAV:   6    -0.287434290866E+03   -0.13842E-01   -0.28989E-02 31064   0.459E-01    0.217E+00
DAV:   7    -0.287435034700E+03   -0.74383E-03   -0.32642E-03 29128   0.163E-01    0.251E+00
DAV:   8    -0.287432430049E+03    0.26047E-02   -0.20407E-02 33248   0.260E-01    0.225E+00
DAV:   9    -0.287435083029E+03   -0.26530E-02   -0.76360E-02 33248   0.492E-01    0.325E+00
DAV:  10    -0.287433423993E+03    0.16590E-02   -0.30019E-02 32656   0.413E-01    0.321E+00
DAV:  11    -0.287427076558E+03    0.63474E-02   -0.15275E-02 34376   0.299E-01    0.132E+00
DAV:  12    -0.287435561324E+03   -0.84848E-02   -0.13126E-02 28304   0.312E-01    0.167E+00
DAV:  13    -0.287434580812E+03    0.98051E-03   -0.45044E-03 29664   0.202E-01    0.126E+00
DAV:  14    -0.287434174400E+03    0.40641E-03   -0.78713E-04 30112   0.712E-02    0.103E+00
DAV:  15    -0.287434406033E+03   -0.23163E-03   -0.97520E-04 30392   0.625E-02    0.913E-01
DAV:  16    -0.287434560873E+03   -0.15484E-03   -0.63977E-04 31552   0.759E-02    0.595E-01
DAV:  17    -0.287435184614E+03   -0.62374E-03   -0.22968E-03 32360   0.107E-01    0.556E-01
DAV:  18    -0.287435396076E+03   -0.21146E-03   -0.55520E-04 29072   0.101E-01    0.323E-01
DAV:  19    -0.287435549849E+03   -0.15377E-03   -0.67025E-04 31944   0.608E-02    0.451E-01
DAV:  20    -0.287435384061E+03    0.16579E-03   -0.19177E-04 27376   0.535E-02    0.207E-01
DAV:  21    -0.287435475973E+03   -0.91912E-04   -0.61695E-05 23256   0.311E-02    0.134E-01
DAV:  22    -0.287435517234E+03   -0.41261E-04   -0.87482E-05 23704   0.340E-02    0.104E-01
DAV:  23    -0.287435523754E+03   -0.65200E-05   -0.23757E-05 18168   0.171E-02
  11 F= -.28743552E+03 E0= -.28741920E+03  d E =0.224446E-01  mag=     5.0478
       N       E                     dE             d eps       ncg     rms          rms(c)
DAV:   1    -0.287355945151E+03    0.79572E-01   -0.27377E+01 25056   0.189E+01    0.280E+00
DAV:   2    -0.287556136443E+03   -0.20019E+00   -0.19249E+00 28776   0.379E+00    0.877E+00
DAV:   3    -0.287479947682E+03    0.76189E-01   -0.14664E-01 33872   0.190E+00    0.856E+00
DAV:   4    -0.287470586853E+03    0.93608E-02   -0.20114E-01 33320   0.126E+00    0.742E+00
DAV:   5    -0.287437677459E+03    0.32909E-01   -0.49304E-01 31936   0.100E+00    0.370E+00
DAV:   6    -0.287464035489E+03   -0.26358E-01   -0.18410E-01 32536   0.693E-01    0.401E+00
DAV:   7    -0.287455022805E+03    0.90127E-02   -0.49085E-02 32064   0.522E-01    0.343E+00
DAV:   8    -0.287454152716E+03    0.87009E-03   -0.73740E-03 26976   0.248E-01    0.363E+00
DAV:   9    -0.287454507054E+03   -0.35434E-03   -0.52836E-03 30904   0.175E-01    0.442E+00
DAV:  10    -0.287451590585E+03    0.29165E-02   -0.73671E-04 25560   0.967E-02    0.464E+00
DAV:  11    -0.287439605581E+03    0.11985E-01   -0.23496E-02 36128   0.417E-01    0.177E+00
DAV:  12    -0.287468103662E+03   -0.28498E-01   -0.21931E-02 29984   0.413E-01    0.471E+00
DAV:  13    -0.287451589450E+03    0.16514E-01   -0.21324E-02 27008   0.482E-01    0.357E+00
DAV:  14    -0.287449500886E+03    0.20886E-02   -0.15894E-03 30224   0.138E-01    0.307E+00
DAV:  15    -0.287450464708E+03   -0.96382E-03   -0.18862E-03 32056   0.102E-01    0.257E+00
DAV:  16    -0.287451003358E+03   -0.53865E-03   -0.23536E-03 32240   0.120E-01    0.162E+00
DAV:  17    -0.287454314452E+03   -0.33111E-02   -0.31702E-03 29568   0.122E-01    0.825E-01
DAV:  18    -0.287457195889E+03   -0.28814E-02   -0.12901E-03 29032   0.124E-01    0.528E-01
DAV:  19    -0.287457873580E+03   -0.67769E-03   -0.95305E-04 32288   0.980E-02    0.516E-01
DAV:  20    -0.287457974884E+03   -0.10130E-03   -0.47483E-03 34104   0.138E-01    0.561E-01
DAV:  21    -0.287457975621E+03   -0.73704E-06   -0.89499E-04 30264   0.969E-02    0.290E-01
DAV:  22    -0.287458112947E+03   -0.13733E-03   -0.38335E-04 30616   0.449E-02    0.291E-01
DAV:  23    -0.287458091504E+03    0.21444E-04   -0.26443E-04 25792   0.470E-02    0.250E-01
DAV:  24    -0.287458064661E+03    0.26842E-04   -0.80028E-05 23016   0.304E-02    0.187E-01
DAV:  25    -0.287458088764E+03   -0.24102E-04   -0.67072E-05 19864   0.231E-02    0.184E-01
DAV:  26    -0.287458109869E+03   -0.21105E-04   -0.22917E-05 19872   0.209E-02    0.177E-01
DAV:  27    -0.287458113379E+03   -0.35098E-05   -0.46637E-05 20768   0.245E-02
  12 F= -.28745811E+03 E0= -.28744164E+03  d E =-.225896E-01  mag=     5.0386
       N       E                     dE             d eps       ncg     rms          rms(c)
DAV:   1    -0.287413062018E+03    0.45048E-01   -0.14780E+01 25344   0.133E+01    0.223E+00
DAV:   2    -0.287488413640E+03   -0.75352E-01   -0.65232E-01 28224   0.254E+00    0.569E+00
DAV:   3    -0.287473257597E+03    0.15156E-01   -0.12003E-01 33656   0.117E+00    0.521E+00
DAV:   4    -0.287497202802E+03   -0.23945E-01   -0.18478E-01 33328   0.960E-01    0.741E+00
DAV:   5    -0.287440484114E+03    0.56719E-01   -0.30623E-01 31760   0.790E-01    0.204E+00
DAV:   6    -0.287461060580E+03   -0.20576E-01   -0.16475E-02 29240   0.367E-01    0.112E+00
DAV:   7    -0.287464221467E+03   -0.31609E-02   -0.27828E-03 29280   0.156E-01    0.135E+00
DAV:   8    -0.287463725923E+03    0.49554E-03   -0.67869E-04 27992   0.872E-02    0.183E+00
DAV:   9    -0.287460406260E+03    0.33197E-02   -0.81732E-03 31328   0.237E-01    0.148E+00
DAV:  10    -0.287461778841E+03   -0.13726E-02   -0.14646E-02 32760   0.264E-01    0.148E+00
DAV:  11    -0.287461771347E+03    0.74947E-05   -0.87292E-03 32536   0.209E-01    0.587E-01
DAV:  12    -0.287463684020E+03   -0.19127E-02   -0.33213E-03 29552   0.161E-01    0.546E-01
DAV:  13    -0.287463689394E+03   -0.53736E-05   -0.57306E-04 30768   0.742E-02    0.482E-01
DAV:  14    -0.287463508973E+03    0.18042E-03   -0.14718E-03 31280   0.105E-01    0.271E-01
DAV:  15    -0.287463682550E+03   -0.17358E-03   -0.12541E-03 31864   0.876E-02    0.312E-01
DAV:  16    -0.287463816592E+03   -0.13404E-03   -0.22584E-04 26856   0.510E-02    0.441E-01
DAV:  17    -0.287463635028E+03    0.18156E-03   -0.27879E-04 26824   0.465E-02    0.202E-01
DAV:  18    -0.287463744282E+03   -0.10925E-03   -0.22553E-04 25424   0.372E-02    0.146E-01
DAV:  19    -0.287463788152E+03   -0.43870E-04   -0.11437E-04 22536   0.337E-02    0.101E-01
DAV:  20    -0.287463806980E+03   -0.18828E-04   -0.19142E-05 17912   0.165E-02    0.169E-01
DAV:  21    -0.287463786219E+03    0.20761E-04   -0.95359E-06 15592   0.114E-02    0.154E-01
DAV:  22    -0.287463780554E+03    0.56654E-05   -0.16877E-05 15224   0.118E-02
  13 F= -.28746378E+03 E0= -.28744730E+03  d E =-.566718E-02  mag=     5.1102
       N       E                     dE             d eps       ncg     rms          rms(c)
DAV:   1    -0.287490863066E+03   -0.27077E-01   -0.18140E+00 25344   0.448E+00    0.105E+00
DAV:   2    -0.287513115509E+03   -0.22252E-01   -0.93971E-02 30176   0.992E-01    0.479E+00
DAV:   3    -0.287485132940E+03    0.27983E-01   -0.13812E-02 32168   0.595E-01    0.926E-01
DAV:   4    -0.287504916771E+03   -0.19784E-01   -0.67123E-02 31256   0.448E-01    0.268E+00
DAV:   5    -0.287493942498E+03    0.10974E-01   -0.27208E-02 32488   0.362E-01    0.109E+00
DAV:   6    -0.287496265880E+03   -0.23234E-02   -0.17045E-03 27960   0.104E-01    0.948E-01
DAV:   7    -0.287496580162E+03   -0.31428E-03   -0.11645E-04 25800   0.401E-02    0.959E-01
DAV:   8    -0.287496527162E+03    0.53000E-04   -0.23518E-04 29336   0.500E-02    0.935E-01
DAV:   9    -0.287496355034E+03    0.17213E-03   -0.59202E-03 32688   0.198E-01    0.670E-01
DAV:  10    -0.287497004876E+03   -0.64984E-03   -0.23230E-03 31584   0.123E-01    0.699E-01
DAV:  11    -0.287496824804E+03    0.18007E-03   -0.15655E-03 30680   0.103E-01    0.446E-01
DAV:  12    -0.287496905916E+03   -0.81111E-04   -0.40662E-04 32688   0.602E-02    0.320E-01
DAV:  13    -0.287496919275E+03   -0.13360E-04   -0.21962E-04 24064   0.365E-02    0.215E-01
DAV:  14    -0.287496945522E+03   -0.26247E-04   -0.48784E-04 26384   0.434E-02    0.111E-01
DAV:  15    -0.287497011511E+03   -0.65989E-04   -0.16719E-04 23664   0.319E-02    0.102E-01
DAV:  16    -0.287497019800E+03   -0.82895E-05   -0.24609E-05 17256   0.143E-02
  14 F= -.28749702E+03 E0= -.28748059E+03  d E =-.332392E-01  mag=     5.0924
       N       E                     dE             d eps       ncg     rms          rms(c)
DAV:   1    -0.287491688507E+03    0.53230E-02   -0.34428E+00 25344   0.664E+00    0.664E-01
DAV:   2    -0.287512727603E+03   -0.21039E-01   -0.17346E-01 28568   0.124E+00    0.347E+00
DAV:   3    -0.287496947445E+03    0.15780E-01   -0.33269E-02 33448   0.506E-01    0.102E+00
DAV:   4    -0.287504569822E+03   -0.76224E-02   -0.24374E-02 32080   0.315E-01    0.132E+00
DAV:   5    -0.287502657687E+03    0.19121E-02   -0.10477E-02 33128   0.236E-01    0.474E-01
DAV:   6    -0.287503173267E+03   -0.51558E-03   -0.24094E-03 32728   0.107E-01    0.371E-01
DAV:   7    -0.287503057964E+03    0.11530E-03   -0.15778E-03 31944   0.935E-02    0.245E-01
DAV:   8    -0.287503116687E+03   -0.58723E-04   -0.81420E-04 29536   0.464E-02    0.313E-01
DAV:   9    -0.287503086519E+03    0.30168E-04   -0.38968E-04 25504   0.453E-02    0.255E-01
DAV:  10    -0.287503114040E+03   -0.27521E-04   -0.95451E-05 20464   0.251E-02    0.262E-01
DAV:  11    -0.287502956640E+03    0.15740E-03   -0.81879E-04 30440   0.670E-02    0.426E-01
DAV:  12    -0.287502749327E+03    0.20731E-03   -0.66893E-04 30216   0.699E-02    0.382E-01
DAV:  13    -0.287502880663E+03   -0.13134E-03   -0.13850E-04 26496   0.302E-02    0.387E-01
DAV:  14    -0.287503041154E+03   -0.16049E-03   -0.19640E-04 25552   0.430E-02    0.375E-01
DAV:  15    -0.287502827494E+03    0.21366E-03   -0.13549E-03 31264   0.137E-01    0.332E-01
DAV:  16    -0.287503092710E+03   -0.26522E-03   -0.79135E-04 30656   0.738E-02    0.215E-01
DAV:  17    -0.287503146213E+03   -0.53502E-04   -0.18687E-04 31672   0.487E-02    0.195E-01
DAV:  18    -0.287503155747E+03   -0.95339E-05   -0.14256E-04 26496   0.458E-02    0.140E-01
DAV:  19    -0.287503178790E+03   -0.23044E-04   -0.17366E-04 26552   0.373E-02    0.594E-02
DAV:  20    -0.287503198111E+03   -0.19321E-04   -0.46293E-05 18848   0.213E-02    0.420E-02
DAV:  21    -0.287503201299E+03   -0.31880E-05   -0.12733E-05 14384   0.116E-02
  15 F= -.28750320E+03 E0= -.28748682E+03  d E =-.618150E-02  mag=     5.0815
       N       E                     dE             d eps       ncg     rms          rms(c)
DAV:   1    -0.287283993863E+03    0.21920E+00   -0.66114E+01 25344   0.298E+01    0.218E+00
DAV:   2    -0.287540345638E+03   -0.25635E+00   -0.25580E+00 25984   0.514E+00    0.590E+00
DAV:   3    -0.287517819098E+03    0.22527E-01   -0.16320E-01 33928   0.137E+00    0.470E+00
DAV:   4    -0.287544731287E+03   -0.26912E-01   -0.19749E-01 34472   0.962E-01    0.686E+00
DAV:   5    -0.287494716030E+03    0.50015E-01   -0.24921E-01 32360   0.752E-01    0.142E+00
DAV:   6    -0.287518483014E+03   -0.23767E-01   -0.46171E-02 31312   0.385E-01    0.226E+00
DAV:   7    -0.287515541272E+03    0.29417E-02   -0.80830E-03 30360   0.260E-01    0.188E+00
DAV:   8    -0.287514551082E+03    0.99019E-03   -0.41878E-04 29664   0.679E-02    0.184E+00
DAV:   9    -0.287514167402E+03    0.38368E-03   -0.13786E-02 34824   0.261E-01    0.202E+00
DAV:  10    -0.287513652359E+03    0.51504E-03   -0.38171E-02 32000   0.356E-01    0.297E+00
DAV:  11    -0.287515729321E+03   -0.20770E-02   -0.37141E-02 33192   0.384E-01    0.349E+00
DAV:  12    -0.287509260859E+03    0.64685E-02   -0.24365E-02 32176   0.368E-01    0.370E+00
DAV:  13    -0.287511873833E+03   -0.26130E-02   -0.18182E-03 26200   0.155E-01    0.356E+00
DAV:  14    -0.287512859896E+03   -0.98606E-03   -0.11292E-02 32432   0.347E-01    0.332E+00
DAV:  15    -0.287507639498E+03    0.52204E-02   -0.20154E-02 33720   0.369E-01    0.158E+00
DAV:  16    -0.287512326486E+03   -0.46870E-02   -0.57326E-03 28568   0.160E-01    0.884E-01
DAV:  17    -0.287514797750E+03   -0.24713E-02   -0.25963E-03 29224   0.121E-01    0.712E-01
DAV:  18    -0.287515399621E+03   -0.60187E-03   -0.37287E-04 30256   0.564E-02    0.643E-01
DAV:  19    -0.287515413605E+03   -0.13984E-04   -0.21791E-04 30448   0.552E-02    0.617E-01
DAV:  20    -0.287515522819E+03   -0.10921E-03   -0.13589E-03 31528   0.110E-01    0.666E-01
DAV:  21    -0.287515509501E+03    0.13318E-04   -0.53993E-04 30808   0.800E-02    0.440E-01
DAV:  22    -0.287515708849E+03   -0.19935E-03   -0.20638E-04 29328   0.464E-02    0.298E-01
DAV:  23    -0.287515808264E+03   -0.99415E-04   -0.15517E-04 24528   0.412E-02    0.198E-01
DAV:  24    -0.287515853017E+03   -0.44752E-04   -0.16416E-04 29680   0.442E-02    0.290E-01
DAV:  25    -0.287515815094E+03    0.37923E-04   -0.31768E-05 20176   0.245E-02    0.281E-01
DAV:  26    -0.287515790657E+03    0.24437E-04   -0.42959E-05 20920   0.244E-02    0.137E-01
DAV:  27    -0.287515851315E+03   -0.60657E-04   -0.64471E-05 22488   0.272E-02    0.867E-02
DAV:  28    -0.287515858888E+03   -0.75734E-05   -0.13825E-05 13888   0.124E-02
  16 F= -.28751586E+03 E0= -.28749950E+03  d E =-.126576E-01  mag=     5.0910
       N       E                     dE             d eps       ncg     rms          rms(c)
DAV:   1    -0.283024310700E+03    0.44915E+01   -0.28466E+02 25352   0.492E+01    0.231E+01
DAV:   2    -0.293334725074E+03   -0.10310E+02   -0.55155E+01 32632   0.166E+01    0.663E+01
DAV:   3    -0.284534460817E+03    0.88003E+01   -0.67505E+01 33640   0.207E+01    0.134E+01
DAV:   4    -0.283790508566E+03    0.74395E+00   -0.98304E-01 32752   0.407E+00    0.107E+01
DAV:   5    -0.283796622346E+03   -0.61138E-02   -0.10045E+00 34608   0.304E+00    0.205E+01
DAV:   6    -0.283717081923E+03    0.79540E-01   -0.14429E-01 25648   0.146E+00    0.204E+01
DAV:   7    -0.283782507584E+03   -0.65426E-01   -0.12964E-02 36240   0.414E-01    0.205E+01
DAV:   8    -0.283856971541E+03   -0.74464E-01   -0.28718E-02 33312   0.474E-01    0.206E+01
DAV:   9    -0.283857251307E+03   -0.27977E-03   -0.13292E-03 28904   0.146E-01    0.206E+01
DAV:  10    -0.283961668889E+03   -0.10442E+00   -0.11697E-01 30536   0.947E-01    0.211E+01
DAV:  11    -0.283957366104E+03    0.43028E-02   -0.81561E-03 26624   0.308E-01    0.211E+01
DAV:  12    -0.283948967159E+03    0.83989E-02   -0.14290E-03 31360   0.109E-01    0.212E+01
DAV:  13    -0.284134726352E+03   -0.18576E+00   -0.86217E-02 29792   0.959E-01    0.211E+01
DAV:  14    -0.284289395851E+03   -0.15467E+00   -0.25856E-02 32904   0.506E-01    0.210E+01
DAV:  15    -0.285132291764E+03   -0.84290E+00   -0.42959E-01 31984   0.232E+00    0.215E+01
DAV:  16    -0.285508162120E+03   -0.37587E+00   -0.12621E+00 34024   0.304E+00    0.223E+01
DAV:  17    -0.286296598836E+03   -0.78844E+00   -0.34176E+00 32416   0.245E+00    0.266E+01
DAV:  18    -0.286291597619E+03    0.50012E-02   -0.64829E-02 26640   0.104E+00    0.264E+01
DAV:  19    -0.286323568774E+03   -0.31971E-01   -0.43479E-02 36232   0.290E-01    0.267E+01
DAV:  20    -0.286322085684E+03    0.14831E-02   -0.11704E-02 29328   0.214E-01    0.268E+01
DAV:  21    -0.286348968730E+03   -0.26883E-01   -0.49642E-03 32728   0.204E-01    0.270E+01
DAV:  22    -0.286157612467E+03    0.19136E+00   -0.51028E-02 33160   0.561E-01    0.264E+01
DAV:  23    -0.286194959471E+03   -0.37347E-01   -0.23053E-02 31008   0.408E-01    0.265E+01
DAV:  24    -0.286197232233E+03   -0.22728E-02   -0.12974E-03 26552   0.140E-01    0.265E+01
DAV:  25    -0.286218364309E+03   -0.21132E-01   -0.16524E-03 33216   0.105E-01    0.266E+01
DAV:  26    -0.286097997210E+03    0.12037E+00   -0.34241E-02 32016   0.398E-01    0.262E+01
DAV:  27    -0.286103172597E+03   -0.51754E-02   -0.19004E-03 26896   0.141E-01    0.263E+01
DAV:  28    -0.286053218273E+03    0.49954E-01   -0.22518E-03 34168   0.146E-01    0.262E+01
DAV:  29    -0.286017791006E+03    0.35427E-01   -0.49897E-03 32176   0.115E-01    0.260E+01
DAV:  30    -0.286026119686E+03   -0.83287E-02   -0.57158E-04 27024   0.665E-02    0.260E+01
DAV:  31    -0.285727422905E+03    0.29870E+00   -0.39026E-02 34296   0.773E-01    0.253E+01
DAV:  32    -0.285463953016E+03    0.26347E+00   -0.79776E-02 34616   0.599E-01    0.237E+01
DAV:  33    -0.285484709677E+03   -0.20757E-01   -0.57502E-03 27680   0.231E-01    0.236E+01
DAV:  34    -0.285220765629E+03    0.26394E+00   -0.36398E-01 33504   0.793E-01    0.213E+01
DAV:  35    -0.284927824409E+03    0.29294E+00   -0.27985E-01 32848   0.109E+00    0.203E+01
DAV:  36    -0.284911437440E+03    0.16387E-01   -0.12929E-02 27528   0.492E-01    0.203E+01
DAV:  37    -0.284901447858E+03    0.99896E-02   -0.12892E-03 28880   0.149E-01    0.203E+01
DAV:  38    -0.284801114964E+03    0.10033E+00   -0.22367E-02 30896   0.457E-01    0.197E+01
DAV:  39    -0.284452234964E+03    0.34888E+00   -0.15279E-01 29456   0.123E+00    0.180E+01
DAV:  40    -0.284103909869E+03    0.34833E+00   -0.12808E-01 28616   0.999E-01    0.169E+01
DAV:  41    -0.283997477023E+03    0.10643E+00   -0.25414E-02 31944   0.438E-01    0.165E+01
DAV:  42    -0.283968853181E+03    0.28624E-01   -0.74206E-03 31432   0.284E-01    0.164E+01
DAV:  43    -0.284034468248E+03   -0.65615E-01   -0.40810E-03 29544   0.221E-01    0.163E+01
DAV:  44    -0.284135305603E+03   -0.10084E+00   -0.58643E-02 29520   0.741E-01    0.153E+01
DAV:  45    -0.284159672889E+03   -0.24367E-01   -0.15373E-01 29664   0.130E+00    0.157E+01
DAV:  46    -0.284092186276E+03    0.67487E-01   -0.35651E-02 30800   0.777E-01    0.147E+01
DAV:  47    -0.283222946540E+03    0.86924E+00   -0.12215E+00 31208   0.368E+00    0.996E+00
DAV:  48    -0.283333448433E+03   -0.11050E+00   -0.12615E-01 29296   0.124E+00    0.110E+01
DAV:  49    -0.283429489025E+03   -0.96041E-01   -0.16926E-01 29056   0.132E+00    0.810E+00
DAV:  50    -0.283477233069E+03   -0.47744E-01   -0.54673E-02 31976   0.532E-01    0.821E+00
DAV:  51    -0.283453457088E+03    0.23776E-01   -0.66780E-03 28544   0.232E-01    0.859E+00
DAV:  52    -0.283801413641E+03   -0.34796E+00   -0.70019E-01 32424   0.225E+00    0.151E+01
DAV:  53    -0.283956748134E+03   -0.15533E+00   -0.15201E-01 30968   0.140E+00    0.146E+01
DAV:  54    -0.283964250919E+03   -0.75028E-02   -0.55925E-02 32808   0.870E-01    0.141E+01
DAV:  55    -0.283956937922E+03    0.73130E-02   -0.62446E-03 29792   0.248E-01    0.140E+01
DAV:  56    -0.283945925925E+03    0.11012E-01   -0.96098E-04 31600   0.963E-02    0.140E+01
DAV:  57    -0.283859981948E+03    0.85944E-01   -0.53489E-02 33112   0.930E-01    0.132E+01
DAV:  58    -0.283661924763E+03    0.19806E+00   -0.88224E-02 33920   0.967E-01    0.118E+01
DAV:  59    -0.283606282572E+03    0.55642E-01   -0.47763E-02 34232   0.418E-01    0.856E+00
DAV:  60    -0.283651749330E+03   -0.45467E-01   -0.56482E-03 26664   0.275E-01    0.862E+00
DAV:  61    -0.283633882677E+03    0.17867E-01   -0.12061E-02 33736   0.322E-01    0.627E+00
DAV:  62    -0.283636874337E+03   -0.29917E-02   -0.21226E-01 33232   0.662E-01    0.571E+00
DAV:  63    -0.283646819127E+03   -0.99448E-02   -0.31675E-02 27752   0.678E-01    0.560E+00
DAV:  64    -0.283643551200E+03    0.32679E-02   -0.44068E-02 32984   0.461E-01    0.524E+00
DAV:  65    -0.283660927691E+03   -0.17376E-01   -0.24958E-02 32320   0.375E-01    0.546E+00
DAV:  66    -0.283679183766E+03   -0.18256E-01   -0.12797E-02 33672   0.346E-01    0.585E+00
DAV:  67    -0.283715543560E+03   -0.36360E-01   -0.10304E-01 33128   0.885E-01    0.875E+00
DAV:  68    -0.283686014153E+03    0.29529E-01   -0.11538E-02 27368   0.430E-01    0.775E+00
DAV:  69    -0.283687660020E+03   -0.16459E-02   -0.63519E-04 28520   0.972E-02    0.755E+00
DAV:  70    -0.283681325155E+03    0.63349E-02   -0.29205E-03 33984   0.163E-01    0.697E+00
DAV:  71    -0.283685574265E+03   -0.42491E-02   -0.16553E-02 34640   0.285E-01    0.656E+00
DAV:  72    -0.283682979682E+03    0.25946E-02   -0.60202E-03 30144   0.213E-01    0.646E+00
DAV:  73    -0.283687858297E+03   -0.48786E-02   -0.94922E-03 32808   0.178E-01    0.653E+00
DAV:  74    -0.283697670266E+03   -0.98120E-02   -0.57117E-03 31976   0.171E-01    0.674E+00
DAV:  75    -0.283691988052E+03    0.56822E-02   -0.40096E-04 25680   0.865E-02    0.673E+00
DAV:  76    -0.283667668301E+03    0.24320E-01   -0.53614E-03 34456   0.233E-01    0.625E+00
DAV:  77    -0.283678863100E+03   -0.11195E-01   -0.49612E-02 35608   0.463E-01    0.656E+00
DAV:  78    -0.283699836760E+03   -0.20974E-01   -0.16453E-02 33400   0.318E-01    0.816E+00
DAV:  79    -0.283682758952E+03    0.17078E-01   -0.48314E-02 33712   0.456E-01    0.757E+00
DAV:  80    -0.283656409885E+03    0.26349E-01   -0.10353E-02 33616   0.406E-01    0.608E+00
DAV:  81    -0.283645675109E+03    0.10735E-01   -0.87044E-03 31856   0.295E-01    0.533E+00
DAV:  82    -0.283643847158E+03    0.18280E-02   -0.98597E-03 33656   0.267E-01    0.450E+00
DAV:  83    -0.283649244396E+03   -0.53972E-02   -0.47882E-03 26032   0.200E-01    0.415E+00
DAV:  84    -0.283653264533E+03   -0.40201E-02   -0.44295E-04 27504   0.787E-02    0.410E+00
DAV:  85    -0.283654051604E+03   -0.78707E-03   -0.27745E-05 23064   0.215E-02    0.409E+00
DAV:  86    -0.283652034027E+03    0.20176E-02   -0.28261E-03 31512   0.120E-01    0.372E+00
DAV:  87    -0.283662992417E+03   -0.10958E-01   -0.53116E-03 32328   0.266E-01    0.382E+00
DAV:  88    -0.283666617517E+03   -0.36251E-02   -0.19181E-03 24784   0.192E-01    0.388E+00
DAV:  89    -0.283666517536E+03    0.99981E-04   -0.11440E-03 32632   0.109E-01    0.373E+00
DAV:  90    -0.283668126860E+03   -0.16093E-02   -0.21230E-03 32392   0.151E-01    0.358E+00
DAV:  91    -0.283667732100E+03    0.39476E-03   -0.39998E-03 33272   0.150E-01    0.362E+00
DAV:  92    -0.283686857499E+03   -0.19125E-01   -0.41954E-02 32528   0.478E-01    0.598E+00
DAV:  93    -0.283684603675E+03    0.22538E-02   -0.61642E-03 24848   0.295E-01    0.658E+00
DAV:  94    -0.283678377197E+03    0.62265E-02   -0.53484E-04 28200   0.962E-02    0.665E+00
DAV:  95    -0.283705632179E+03   -0.27255E-01   -0.54680E-03 35712   0.307E-01    0.813E+00
DAV:  96    -0.283779386975E+03   -0.73755E-01   -0.21486E-02 33448   0.606E-01    0.124E+01
DAV:  97    -0.283666736338E+03    0.11265E+00   -0.21977E-02 31640   0.667E-01    0.824E+00
DAV:  98    -0.283680100579E+03   -0.13364E-01   -0.74680E-03 28104   0.305E-01    0.686E+00
DAV:  99    -0.283686967143E+03   -0.68666E-02   -0.25823E-03 26632   0.192E-01    0.647E+00
DAV: 100    -0.283687349083E+03   -0.38194E-03   -0.11582E-03 32536   0.994E-02    0.626E+00
DAV: 101    -0.283692226037E+03   -0.48770E-02   -0.11001E-03 30320   0.121E-01    0.627E+00
DAV: 102    -0.283712724861E+03   -0.20499E-01   -0.67319E-03 33720   0.266E-01    0.709E+00
DAV: 103    -0.283713610406E+03   -0.88554E-03   -0.11854E-03 26104   0.109E-01    0.736E+00
DAV: 104    -0.283703659660E+03    0.99507E-02   -0.11654E-03 31312   0.927E-02    0.721E+00
DAV: 105    -0.283691598157E+03    0.12062E-01   -0.31812E-03 34048   0.144E-01    0.685E+00
DAV: 106    -0.283690069696E+03    0.15285E-02   -0.96882E-04 29376   0.791E-02    0.672E+00
DAV: 107    -0.283705818499E+03   -0.15749E-01   -0.12251E-02 31696   0.444E-01    0.781E+00
DAV: 108    -0.283697236500E+03    0.85820E-02   -0.30532E-03 27816   0.175E-01    0.787E+00
DAV: 109    -0.283688634332E+03    0.86022E-02   -0.93050E-04 32912   0.102E-01    0.757E+00
DAV: 110    -0.283684442467E+03    0.41919E-02   -0.94350E-04 33728   0.988E-02    0.727E+00
DAV: 111    -0.283685722232E+03   -0.12798E-02   -0.29496E-04 28352   0.547E-02    0.718E+00
DAV: 112    -0.283646347866E+03    0.39374E-01   -0.44964E-02 36712   0.580E-01    0.455E+00
DAV: 113    -0.283663429977E+03   -0.17082E-01   -0.69386E-03 24208   0.303E-01    0.435E+00
DAV: 114    -0.283664475995E+03   -0.10460E-02   -0.63570E-04 29800   0.906E-02    0.426E+00
DAV: 115    -0.283667534451E+03   -0.30585E-02   -0.14186E-03 32104   0.131E-01    0.441E+00
DAV: 116    -0.283669871346E+03   -0.23369E-02   -0.22986E-03 33184   0.153E-01    0.488E+00
DAV: 117    -0.283666330010E+03    0.35413E-02   -0.12548E-02 32208   0.193E-01    0.477E+00
DAV: 118    -0.283665048704E+03    0.12813E-02   -0.11576E-03 28480   0.140E-01    0.453E+00
DAV: 119    -0.283671141778E+03   -0.60931E-02   -0.27944E-03 30728   0.165E-01    0.500E+00
DAV: 120    -0.283669980323E+03    0.11615E-02   -0.14347E-03 31656   0.964E-02    0.517E+00
DAV: 121    -0.283668419287E+03    0.15610E-02   -0.20651E-04 26208   0.572E-02    0.522E+00
DAV: 122    -0.283667655422E+03    0.76387E-03   -0.23433E-02 32408   0.464E-01    0.524E+00
DAV: 123    -0.283681160317E+03   -0.13505E-01   -0.18624E-02 33944   0.339E-01    0.622E+00
DAV: 124    -0.283692804649E+03   -0.11644E-01   -0.21483E-02 33776   0.333E-01    0.720E+00
DAV: 125    -0.283699459539E+03   -0.66549E-02   -0.96084E-03 31952   0.226E-01    0.746E+00
DAV: 126    -0.283719892313E+03   -0.20433E-01   -0.21016E-02 33488   0.331E-01    0.796E+00
DAV: 127    -0.283703380317E+03    0.16512E-01   -0.27789E-02 31480   0.544E-01    0.668E+00
DAV: 128    -0.283702606871E+03    0.77345E-03   -0.18061E-02 32800   0.369E-01    0.630E+00
DAV: 129    -0.283693361519E+03    0.92454E-02   -0.13396E-02 33152   0.312E-01    0.599E+00
DAV: 130    -0.283683722142E+03    0.96394E-02   -0.14865E-02 32504   0.284E-01    0.518E+00
DAV: 131    -0.283688907055E+03   -0.51849E-02   -0.17937E-03 27416   0.165E-01    0.525E+00
DAV: 132    -0.283693918621E+03   -0.50116E-02   -0.11708E-02 32800   0.257E-01    0.537E+00
DAV: 133    -0.283686647761E+03    0.72709E-02   -0.84583E-03 30888   0.259E-01    0.457E+00
DAV: 134    -0.283686553043E+03    0.94717E-04   -0.12084E-02 32416   0.275E-01    0.369E+00
DAV: 135    -0.283691160858E+03   -0.46078E-02   -0.10379E-02 31184   0.221E-01    0.315E+00
DAV: 136    -0.283696485727E+03   -0.53249E-02   -0.33477E-03 32216   0.162E-01    0.308E+00
DAV: 137    -0.283681139150E+03    0.15347E-01   -0.80786E-02 32456   0.850E-01    0.242E+00
DAV: 138    -0.283692925544E+03   -0.11786E-01   -0.13484E-02 26680   0.329E-01    0.229E+00
DAV: 139    -0.283695223846E+03   -0.22983E-02   -0.23273E-03 30032   0.120E-01    0.222E+00
DAV: 140    -0.283695883529E+03   -0.65968E-03   -0.29081E-04 26680   0.549E-02    0.218E+00
DAV: 141    -0.283695825224E+03    0.58305E-04   -0.86123E-04 31184   0.727E-02    0.227E+00
DAV: 142    -0.283695450792E+03    0.37443E-03   -0.25331E-03 31504   0.123E-01    0.209E+00
DAV: 143    -0.283695468339E+03   -0.17547E-04   -0.55337E-04 29448   0.723E-02    0.211E+00
DAV: 144    -0.283693962141E+03    0.15062E-02   -0.52995E-03 29536   0.221E-01    0.204E+00
DAV: 145    -0.283692938288E+03    0.10239E-02   -0.44217E-03 32792   0.153E-01    0.200E+00
DAV: 146    -0.283693812403E+03   -0.87411E-03   -0.10544E-03 32088   0.761E-02    0.202E+00
DAV: 147    -0.283694041724E+03   -0.22932E-03   -0.13152E-04 26592   0.455E-02    0.204E+00
DAV: 148    -0.283696256881E+03   -0.22152E-02   -0.30956E-03 33088   0.104E-01    0.243E+00
DAV: 149    -0.283695235535E+03    0.10213E-02   -0.31197E-04 25536   0.737E-02    0.244E+00
DAV: 150    -0.283694036710E+03    0.11988E-02   -0.22173E-03 32416   0.145E-01    0.202E+00
DAV: 151    -0.283696095504E+03   -0.20588E-02   -0.21577E-03 30032   0.162E-01    0.210E+00
DAV: 152    -0.283699670167E+03   -0.35747E-02   -0.61520E-03 33136   0.288E-01    0.206E+00
DAV: 153    -0.283701583594E+03   -0.19134E-02   -0.27206E-03 29680   0.161E-01    0.200E+00
DAV: 154    -0.283698647541E+03    0.29361E-02   -0.81274E-03 31016   0.308E-01    0.215E+00
DAV: 155    -0.283701670212E+03   -0.30227E-02   -0.16606E-03 30512   0.129E-01    0.213E+00
DAV: 156    -0.283704958098E+03   -0.32879E-02   -0.37030E-03 30256   0.164E-01    0.202E+00
DAV: 157    -0.283703638145E+03    0.13200E-02   -0.66021E-03 29624   0.253E-01    0.223E+00
DAV: 158    -0.283708064090E+03   -0.44259E-02   -0.89942E-03 30544   0.269E-01    0.204E+00
DAV: 159    -0.283707711494E+03    0.35260E-03   -0.12723E-03 30696   0.785E-02    0.195E+00
DAV: 160    -0.283708089772E+03   -0.37828E-03   -0.47811E-04 26720   0.419E-02    0.187E+00
DAV: 161    -0.283709466669E+03   -0.13769E-02   -0.31504E-03 31584   0.130E-01    0.158E+00
DAV: 162    -0.283711069288E+03   -0.16026E-02   -0.36172E-03 32440   0.148E-01    0.141E+00
DAV: 163    -0.283711888214E+03   -0.81893E-03   -0.49151E-03 32376   0.169E-01    0.121E+00
DAV: 164    -0.283712040425E+03   -0.15221E-03   -0.21622E-03 33032   0.101E-01    0.796E-01
DAV: 165    -0.283712796919E+03   -0.75649E-03   -0.31841E-04 28040   0.608E-02    0.501E-01
DAV: 166    -0.283713481589E+03   -0.68467E-03   -0.77033E-04 30600   0.823E-02    0.375E-01
DAV: 167    -0.283713679484E+03   -0.19789E-03   -0.18028E-03 30768   0.112E-01    0.437E-01
DAV: 168    -0.283713694525E+03   -0.15041E-04   -0.46243E-04 31928   0.447E-02    0.352E-01
DAV: 169    -0.283713796251E+03   -0.10173E-03   -0.52813E-05 19528   0.200E-02    0.236E-01
DAV: 170    -0.283713875238E+03   -0.78987E-04   -0.22624E-05 18704   0.158E-02    0.153E-01
DAV: 171    -0.283713937268E+03   -0.62030E-04   -0.61664E-05 21144   0.291E-02    0.487E-02
DAV: 172    -0.283713987723E+03   -0.50454E-04   -0.36852E-05 20128   0.211E-02    0.965E-02
DAV: 173    -0.283713983766E+03    0.39569E-05   -0.78763E-06 16584   0.113E-02
  17 F= -.28371398E+03 E0= -.28369847E+03  d E =0.380188E+01  mag=     5.2311
       N       E                     dE             d eps       ncg     rms          rms(c)
DAV:   1    -0.286572206382E+03   -0.28582E+01   -0.81154E+01 25344   0.212E+01    0.911E+00
DAV:   2    -0.287215615876E+03   -0.64341E+00   -0.53186E+00 30056   0.657E+00    0.152E+01
DAV:   3    -0.287269402005E+03   -0.53786E-01   -0.53988E-01 33776   0.388E+00    0.157E+01
DAV:   4    -0.287062003313E+03    0.20740E+00   -0.66243E+00 33848   0.308E+00    0.128E+01
DAV:   5    -0.287066578286E+03   -0.45750E-02   -0.53177E+00 33472   0.287E+00    0.157E+01
DAV:   6    -0.286747828643E+03    0.31875E+00   -0.32198E+00 33072   0.196E+00    0.117E+01
DAV:   7    -0.286959426098E+03   -0.21160E+00   -0.85586E-01 33608   0.220E+00    0.155E+01
DAV:   8    -0.286766507267E+03    0.19292E+00   -0.15341E-01 33464   0.214E+00    0.101E+01
DAV:   9    -0.286688170325E+03    0.78337E-01   -0.18844E-01 31520   0.154E+00    0.359E+00
DAV:  10    -0.286720422490E+03   -0.32252E-01   -0.16122E-02 28312   0.448E-01    0.336E+00
DAV:  11    -0.286722256006E+03   -0.18335E-02   -0.59297E-03 32808   0.210E-01    0.328E+00
DAV:  12    -0.286727272752E+03   -0.50167E-02   -0.16535E-02 34024   0.235E-01    0.368E+00
DAV:  13    -0.286727917578E+03   -0.64483E-03   -0.15110E-03 26328   0.117E-01    0.386E+00
DAV:  14    -0.286725770554E+03    0.21470E-02   -0.38866E-04 27992   0.708E-02    0.374E+00
DAV:  15    -0.286727869470E+03   -0.20989E-02   -0.17757E-03 31864   0.111E-01    0.394E+00
DAV:  16    -0.286726982429E+03    0.88704E-03   -0.13670E-04 25096   0.431E-02    0.396E+00
DAV:  17    -0.286723137047E+03    0.38454E-02   -0.28276E-03 33256   0.175E-01    0.359E+00
DAV:  18    -0.286733109140E+03   -0.99721E-02   -0.82296E-02 34296   0.722E-01    0.541E+00
DAV:  19    -0.286741335324E+03   -0.82262E-02   -0.40390E-02 28920   0.589E-01    0.603E+00
DAV:  20    -0.286718606397E+03    0.22729E-01   -0.10551E-02 32928   0.358E-01    0.481E+00
DAV:  21    -0.286716373456E+03    0.22329E-02   -0.22471E-02 34384   0.331E-01    0.271E+00
DAV:  22    -0.286728866482E+03   -0.12493E-01   -0.62047E-03 26760   0.213E-01    0.237E+00
DAV:  23    -0.286732767973E+03   -0.39015E-02   -0.17689E-03 33048   0.119E-01    0.285E+00
DAV:  24    -0.286730401793E+03    0.23662E-02   -0.49914E-04 30968   0.916E-02    0.265E+00
DAV:  25    -0.286731694473E+03   -0.12927E-02   -0.17157E-04 29184   0.648E-02    0.276E+00
DAV:  26    -0.286732009665E+03   -0.31519E-03   -0.58598E-03 32648   0.301E-01    0.179E+00
DAV:  27    -0.286734305459E+03   -0.22958E-02   -0.19655E-03 31800   0.133E-01    0.105E+00
DAV:  28    -0.286736662750E+03   -0.23573E-02   -0.29482E-04 24736   0.729E-02    0.991E-01
DAV:  29    -0.286736706327E+03   -0.43577E-04   -0.58847E-04 31592   0.972E-02    0.770E-01
DAV:  30    -0.286737983570E+03   -0.12772E-02   -0.10389E-03 30512   0.120E-01    0.578E-01
DAV:  31    -0.286738695619E+03   -0.71205E-03   -0.50744E-03 32720   0.247E-01    0.332E-01
DAV:  32    -0.286739172541E+03   -0.47692E-03   -0.12560E-03 33120   0.113E-01    0.547E-01
DAV:  33    -0.286738905401E+03    0.26714E-03   -0.49602E-04 28720   0.700E-02    0.470E-01
DAV:  34    -0.286738986927E+03   -0.81526E-04   -0.33317E-04 29528   0.460E-02    0.499E-01
DAV:  35    -0.286738933763E+03    0.53164E-04   -0.80064E-05 21800   0.287E-02    0.458E-01
DAV:  36    -0.286738939517E+03   -0.57541E-05   -0.51509E-05 17856   0.184E-02
  18 F= -.28673894E+03 E0= -.28672241E+03  d E =-.302496E+01  mag=     5.1451
       N       E                     dE             d eps       ncg     rms          rms(c)
DAV:   1    -0.287014981906E+03   -0.27605E+00   -0.31119E+00 25056   0.525E+00    0.202E+00
DAV:   2    -0.287167717765E+03   -0.15274E+00   -0.84669E-01 32608   0.197E+00    0.903E+00
DAV:   3    -0.286993857834E+03    0.17386E+00   -0.26915E-01 33696   0.171E+00    0.232E+00
DAV:   4    -0.287031876680E+03   -0.38019E-01   -0.14046E-01 31904   0.661E-01    0.330E+00
DAV:   5    -0.287028914464E+03    0.29622E-02   -0.12245E-01 32880   0.582E-01    0.347E+00
DAV:   6    -0.287016464725E+03    0.12450E-01   -0.67509E-02 32272   0.405E-01    0.101E+00
DAV:   7    -0.287022525026E+03   -0.60603E-02   -0.55518E-03 29808   0.173E-01    0.896E-01
DAV:   8    -0.287022457925E+03    0.67101E-04   -0.68831E-03 32432   0.152E-01    0.639E-01
DAV:   9    -0.287023927203E+03   -0.14693E-02   -0.47482E-03 32864   0.166E-01    0.163E+00
DAV:  10    -0.287021744742E+03    0.21825E-02   -0.99475E-04 25720   0.121E-01    0.150E+00
DAV:  11    -0.287021118817E+03    0.62593E-03   -0.55702E-05 25240   0.299E-02    0.147E+00
DAV:  12    -0.287020309699E+03    0.80912E-03   -0.45027E-03 34200   0.195E-01    0.777E-01
DAV:  13    -0.287023190579E+03   -0.28809E-02   -0.10877E-02 27840   0.192E-01    0.920E-01
DAV:  14    -0.287022877153E+03    0.31343E-03   -0.26533E-03 32840   0.156E-01    0.460E-01
DAV:  15    -0.287023384213E+03   -0.50706E-03   -0.49080E-04 27168   0.802E-02    0.454E-01
DAV:  16    -0.287023375646E+03    0.85666E-05   -0.54905E-04 31224   0.707E-02    0.405E-01
DAV:  17    -0.287023303014E+03    0.72632E-04   -0.41590E-04 29808   0.613E-02    0.328E-01
DAV:  18    -0.287023388467E+03   -0.85453E-04   -0.32729E-04 30584   0.575E-02    0.490E-01
DAV:  19    -0.287023245313E+03    0.14315E-03   -0.16450E-04 24192   0.432E-02    0.408E-01
DAV:  20    -0.287023221462E+03    0.23851E-04   -0.19707E-04 23280   0.328E-02    0.332E-01
DAV:  21    -0.287023273003E+03   -0.51541E-04   -0.60381E-05 19576   0.213E-02    0.323E-01
DAV:  22    -0.287023256385E+03    0.16619E-04   -0.21568E-05 18160   0.181E-02    0.205E-01
DAV:  23    -0.287023303298E+03   -0.46913E-04   -0.76676E-05 22376   0.249E-02    0.152E-01
DAV:  24    -0.287023342525E+03   -0.39227E-04   -0.44861E-05 19560   0.223E-02    0.120E-01
DAV:  25    -0.287023376544E+03   -0.34019E-04   -0.35111E-05 19624   0.263E-02    0.108E-01
DAV:  26    -0.287023373148E+03    0.33957E-05   -0.90653E-06 14208   0.118E-02
  19 F= -.28702337E+03 E0= -.28700677E+03  d E =-.284434E+00  mag=     5.1235
       N       E                     dE             d eps       ncg     rms          rms(c)
DAV:   1    -0.287429227015E+03   -0.40585E+00   -0.38092E+01 25344   0.185E+01    0.637E+00
DAV:   2    -0.288240385622E+03   -0.81116E+00   -0.55435E+00 32096   0.591E+00    0.176E+01
DAV:   3    -0.288017334253E+03    0.22305E+00   -0.41973E+00 32920   0.409E+00    0.173E+01
DAV:   4    -0.287492441701E+03    0.52489E+00   -0.17340E-01 32896   0.227E+00    0.622E+00
DAV:   5    -0.287630792795E+03   -0.13835E+00   -0.13410E+00 32176   0.167E+00    0.952E+00
DAV:   6    -0.287551101613E+03    0.79691E-01   -0.18181E-01 32000   0.913E-01    0.760E+00
DAV:   7    -0.287593401985E+03   -0.42300E-01   -0.89328E-02 31456   0.724E-01    0.126E+01
DAV:   8    -0.287655236786E+03   -0.61835E-01   -0.19904E-01 33864   0.167E+00    0.137E+01
DAV:   9    -0.287585422076E+03    0.69815E-01   -0.17777E+00 32240   0.159E+00    0.100E+01
DAV:  10    -0.287557713541E+03    0.27709E-01   -0.36760E-01 29392   0.972E-01    0.697E+00
DAV:  11    -0.287553314976E+03    0.43986E-02   -0.30334E-01 32824   0.947E-01    0.923E+00
[...]
DAV:   2    -0.287573468049E+03   -0.11862E-01   -0.25949E-02 33704   0.431E-01    0.400E+00
DAV:   3    -0.287552710157E+03    0.20758E-01   -0.10299E-02 30600   0.387E-01    0.985E-01
DAV:   4    -0.287560179446E+03   -0.74693E-02   -0.46439E-03 27368   0.135E-01    0.440E-01
DAV:   5    -0.287562522767E+03   -0.23433E-02   -0.14655E-03 25392   0.129E-01    0.834E-01
DAV:   6    -0.287561866063E+03    0.65670E-03   -0.36432E-04 26528   0.795E-02    0.482E-01
DAV:   7    -0.287561997860E+03   -0.13180E-03   -0.20087E-05 19080   0.165E-02    0.397E-01
DAV:   8    -0.287562089304E+03   -0.91444E-04   -0.12262E-05 16656   0.115E-02    0.354E-01
DAV:   9    -0.287562117646E+03   -0.28342E-04   -0.11209E-04 18192   0.206E-02    0.287E-01
DAV:  10    -0.287562139194E+03   -0.21548E-04   -0.10839E-04 23624   0.249E-02    0.157E-01
DAV:  11    -0.287562212732E+03   -0.73538E-04   -0.44914E-05 20280   0.242E-02    0.125E-01
DAV:  12    -0.287562283419E+03   -0.70687E-04   -0.50425E-05 19008   0.236E-02    0.301E-01
DAV:  13    -0.287562222764E+03    0.60655E-04   -0.15276E-05 16432   0.190E-02    0.356E-01
DAV:  14    -0.287562164552E+03    0.58212E-04   -0.37510E-06 14416   0.107E-02    0.383E-01
DAV:  15    -0.287562133870E+03    0.30682E-04   -0.17441E-06 12848   0.651E-03    0.396E-01
DAV:  16    -0.287562101399E+03    0.32470E-04   -0.72279E-06 13264   0.963E-03    0.374E-01
DAV:  17    -0.287562102291E+03   -0.89179E-06   -0.54045E-06 12904   0.983E-03
  76 F= -.28756210E+03 E0= -.28754484E+03  d E =0.873502E-03  mag=     5.1493
       N       E                     dE             d eps       ncg     rms          rms(c)
DAV:   1    -0.287551826419E+03    0.10275E-01   -0.34219E+00 25056   0.562E+00    0.544E-01
DAV:   2    -0.287584436048E+03   -0.32610E-01   -0.10285E-01 29792   0.104E+00    0.624E+00
DAV:   3    -0.287537932484E+03    0.46504E-01   -0.30109E-02 29952   0.627E-01    0.155E+00
DAV:   4    -0.287555430571E+03   -0.17498E-01   -0.86556E-03 26776   0.246E-01    0.641E-01
DAV:   5    -0.287560268385E+03   -0.48378E-02   -0.44537E-03 27736   0.195E-01    0.863E-01
DAV:   6    -0.287560043909E+03    0.22448E-03   -0.11179E-03 28240   0.990E-02    0.926E-01
DAV:   7    -0.287559814314E+03    0.22960E-03   -0.35896E-04 26360   0.429E-02    0.119E+00
DAV:   8    -0.287558806953E+03    0.10074E-02   -0.52969E-04 28504   0.578E-02    0.965E-01
DAV:   9    -0.287558721514E+03    0.85440E-04   -0.68116E-04 31184   0.681E-02    0.679E-01
DAV:  10    -0.287559280431E+03   -0.55892E-03   -0.31762E-04 29360   0.478E-02    0.748E-01
DAV:  11    -0.287559480165E+03   -0.19973E-03   -0.61280E-04 28648   0.967E-02    0.484E-01
DAV:  12    -0.287559534560E+03   -0.54395E-04   -0.12636E-03 32352   0.134E-01    0.226E-01
DAV:  13    -0.287559828344E+03   -0.29378E-03   -0.89055E-04 27184   0.751E-02    0.222E-01
DAV:  14    -0.287559878456E+03   -0.50112E-04   -0.46129E-04 31912   0.584E-02    0.276E-01
DAV:  15    -0.287559877445E+03    0.10109E-05   -0.29000E-04 24464   0.343E-02    0.288E-01
DAV:  16    -0.287559869833E+03    0.76124E-05   -0.39637E-05 17440   0.181E-02
  77 F= -.28755987E+03 E0= -.28754255E+03  d E =0.223246E-02  mag=     5.1579
       N       E                     dE             d eps       ncg     rms          rms(c)
DAV:   1    -0.287516145590E+03    0.43732E-01   -0.19285E+01 25056   0.136E+01    0.111E+00
DAV:   2    -0.287572095343E+03   -0.55950E-01   -0.54453E-01 26608   0.232E+00    0.332E+00
DAV:   3    -0.287562224974E+03    0.98704E-02   -0.36463E-02 34000   0.610E-01    0.211E+00
DAV:   4    -0.287566267591E+03   -0.40426E-02   -0.34236E-02 32344   0.439E-01    0.191E+00
DAV:   5    -0.287562820921E+03    0.34467E-02   -0.18705E-02 32936   0.241E-01    0.923E-01
DAV:   6    -0.287563669386E+03   -0.84847E-03   -0.26641E-03 29416   0.109E-01    0.108E+00
DAV:   7    -0.287563542242E+03    0.12714E-03   -0.58516E-04 28400   0.652E-02    0.973E-01
DAV:   8    -0.287563643332E+03   -0.10109E-03   -0.15871E-04 24152   0.331E-02    0.975E-01
DAV:   9    -0.287563198961E+03    0.44437E-03   -0.62491E-04 29272   0.553E-02    0.908E-01
DAV:  10    -0.287562747948E+03    0.45101E-03   -0.20379E-03 31272   0.107E-01    0.107E+00
DAV:  11    -0.287563741480E+03   -0.99353E-03   -0.41007E-04 28672   0.897E-02    0.121E+00
DAV:  12    -0.287562391472E+03    0.13500E-02   -0.73460E-03 32744   0.331E-01    0.582E-01
DAV:  13    -0.287562800648E+03   -0.40918E-03   -0.61509E-03 29752   0.225E-01    0.847E-01
DAV:  14    -0.287563025051E+03   -0.22440E-03   -0.49284E-03 33392   0.169E-01    0.612E-01
DAV:  15    -0.287563054857E+03   -0.29807E-04   -0.10713E-03 31992   0.822E-02    0.507E-01
DAV:  16    -0.287563032958E+03    0.21900E-04   -0.56388E-04 32488   0.795E-02    0.310E-01
DAV:  17    -0.287563106990E+03   -0.74032E-04   -0.45798E-04 33000   0.790E-02    0.160E-01
DAV:  18    -0.287563149452E+03   -0.42462E-04   -0.25077E-04 28616   0.388E-02    0.113E-01
DAV:  19    -0.287563184662E+03   -0.35210E-04   -0.15138E-04 20752   0.296E-02    0.149E-01
DAV:  20    -0.287563176595E+03    0.80666E-05   -0.10701E-04 20024   0.253E-02    0.103E-01
DAV:  21    -0.287563187083E+03   -0.10488E-04   -0.33476E-05 16168   0.158E-02    0.824E-02
DAV:  22    -0.287563191268E+03   -0.41848E-05   -0.14908E-05 15856   0.132E-02
  78 F= -.28756319E+03 E0= -.28754580E+03  d E =-.332144E-02  mag=     5.1524
       N       E                     dE             d eps       ncg     rms          rms(c)
DAV:   1    -0.287534244372E+03    0.28943E-01   -0.18000E+01 25056   0.131E+01    0.103E+00
DAV:   2    -0.287586924524E+03   -0.52680E-01   -0.54221E-01 27640   0.219E+00    0.334E+00
DAV:   3    -0.287575295590E+03    0.11629E-01   -0.10523E-01 33896   0.623E-01    0.183E+00
DAV:   4    -0.287586190492E+03   -0.10895E-01   -0.24667E-02 32824   0.448E-01    0.328E+00
DAV:   5    -0.287572921032E+03    0.13269E-01   -0.19885E-02 31616   0.413E-01    0.104E+00
DAV:   6    -0.287577960913E+03   -0.50399E-02   -0.13961E-03 25304   0.134E-01    0.122E+00
DAV:   7    -0.287578321664E+03   -0.36075E-03   -0.24199E-04 26424   0.735E-02    0.133E+00
DAV:   8    -0.287579490071E+03   -0.11684E-02   -0.12087E-03 31904   0.105E-01    0.229E+00
DAV:   9    -0.287582205373E+03   -0.27153E-02   -0.10367E-02 32328   0.213E-01    0.389E+00
DAV:  10    -0.287572992096E+03    0.92133E-02   -0.44194E-03 27864   0.230E-01    0.400E+00
DAV:  11    -0.287571166746E+03    0.18254E-02   -0.10228E-02 31976   0.165E-01    0.414E+00
DAV:  12    -0.287569559814E+03    0.16069E-02   -0.45630E-03 30656   0.132E-01    0.408E+00
DAV:  13    -0.287565356904E+03    0.42029E-02   -0.69126E-04 33352   0.109E-01    0.334E+00
DAV:  14    -0.287565023478E+03    0.33343E-03   -0.35944E-03 33368   0.187E-01    0.125E+00
DAV:  15    -0.287574190756E+03   -0.91673E-02   -0.26578E-03 25648   0.168E-01    0.371E-01
DAV:  16    -0.287577377098E+03   -0.31863E-02   -0.64812E-04 24528   0.122E-01    0.208E-01
DAV:  17    -0.287577503563E+03   -0.12646E-03   -0.13036E-04 28176   0.385E-02    0.235E-01
DAV:  18    -0.287577542177E+03   -0.38615E-04   -0.12974E-04 21496   0.284E-02    0.385E-01
DAV:  19    -0.287577411926E+03    0.13025E-03   -0.12402E-04 22584   0.357E-02    0.206E-01
DAV:  20    -0.287577492647E+03   -0.80721E-04   -0.11993E-04 23112   0.270E-02    0.126E-01
DAV:  21    -0.287577583806E+03   -0.91159E-04   -0.52308E-05 19000   0.265E-02    0.270E-01
DAV:  22    -0.287577511564E+03    0.72242E-04   -0.14267E-05 17384   0.187E-02    0.223E-01
DAV:  23    -0.287577495966E+03    0.15598E-04   -0.51530E-06 13504   0.949E-03    0.116E-01
DAV:  24    -0.287577527590E+03   -0.31624E-04   -0.77876E-06 17144   0.114E-02    0.233E-02
DAV:  25    -0.287577548583E+03   -0.20993E-04   -0.68608E-06 15560   0.126E-02    0.393E-02
DAV:  26    -0.287577549149E+03   -0.56584E-06   -0.21925E-06 12768   0.589E-03
  79 F= -.28757755E+03 E0= -.28756015E+03  d E =-.143579E-01  mag=     5.1600
       N       E                     dE             d eps       ncg     rms          rms(c)
DAV:   1    -0.287450229378E+03    0.12732E+00   -0.39275E+01 25344   0.199E+01    0.170E+00
DAV:   2    -0.287597756879E+03   -0.14753E+00   -0.12164E+00 28560   0.348E+00    0.723E+00
DAV:   3    -0.287537406442E+03    0.60350E-01   -0.78424E-02 33856   0.112E+00    0.292E+00
DAV:   4    -0.287566015567E+03   -0.28609E-01   -0.14885E-01 32472   0.717E-01    0.389E+00
DAV:   5    -0.287547317867E+03    0.18698E-01   -0.59608E-02 32992   0.503E-01    0.232E+00
DAV:   6    -0.287551122731E+03   -0.38049E-02   -0.37783E-03 27928   0.165E-01    0.249E+00
DAV:   7    -0.287550186383E+03    0.93635E-03   -0.32829E-04 28424   0.775E-02    0.251E+00
DAV:   8    -0.287548130080E+03    0.20563E-02   -0.87681E-04 29744   0.750E-02    0.249E+00
DAV:   9    -0.287547655353E+03    0.47473E-03   -0.14473E-03 32024   0.861E-02    0.255E+00
DAV:  10    -0.287547529933E+03    0.12542E-03   -0.21101E-03 30056   0.115E-01    0.277E+00
DAV:  11    -0.287540477840E+03    0.70521E-02   -0.34672E-02 32776   0.395E-01    0.283E+00
DAV:  12    -0.287546632821E+03   -0.61550E-02   -0.23039E-02 33624   0.472E-01    0.425E+00
DAV:  13    -0.287549755733E+03   -0.31229E-02   -0.35060E-02 28736   0.383E-01    0.444E+00
DAV:  14    -0.287541141258E+03    0.86145E-02   -0.84433E-03 31384   0.249E-01    0.399E+00
DAV:  15    -0.287536853797E+03    0.42875E-02   -0.49943E-03 33616   0.197E-01    0.299E+00
DAV:  16    -0.287540243746E+03   -0.33899E-02   -0.13021E-02 32864   0.276E-01    0.234E+00
DAV:  17    -0.287543244289E+03   -0.30005E-02   -0.29151E-03 29952   0.153E-01    0.167E+00
DAV:  18    -0.287545828647E+03   -0.25844E-02   -0.13533E-03 30264   0.114E-01    0.104E+00
DAV:  19    -0.287548256275E+03   -0.24276E-02   -0.85875E-04 30352   0.948E-02    0.124E+00
DAV:  20    -0.287547911942E+03    0.34433E-03   -0.56994E-04 32480   0.673E-02    0.893E-01
DAV:  21    -0.287548403744E+03   -0.49180E-03   -0.14689E-03 33032   0.123E-01    0.493E-01
DAV:  22    -0.287549597207E+03   -0.11935E-02   -0.73137E-04 25088   0.115E-01    0.798E-01
DAV:  23    -0.287548971486E+03    0.62572E-03   -0.16757E-04 27432   0.529E-02    0.649E-01
DAV:  24    -0.287548888546E+03    0.82940E-04   -0.43363E-05 21456   0.282E-02    0.411E-01
DAV:  25    -0.287549111199E+03   -0.22265E-03   -0.83469E-05 20968   0.281E-02    0.278E-01
DAV:  26    -0.287549247475E+03   -0.13628E-03   -0.28642E-05 18256   0.188E-02    0.208E-01
DAV:  27    -0.287549312010E+03   -0.64535E-04   -0.69933E-06 15912   0.144E-02    0.238E-01
DAV:  28    -0.287549322477E+03   -0.10466E-04   -0.73439E-06 13296   0.765E-03    0.295E-01
DAV:  29    -0.287549303735E+03    0.18741E-04   -0.83975E-06 14784   0.941E-03    0.307E-01
DAV:  30    -0.287549283632E+03    0.20103E-04   -0.96359E-06 14040   0.890E-03    0.256E-01
DAV:  31    -0.287549304588E+03   -0.20956E-04   -0.24438E-06 13232   0.504E-03    0.233E-01
DAV:  32    -0.287549321128E+03   -0.16540E-04   -0.10148E-06 12880   0.398E-03    0.222E-01
DAV:  33    -0.287549333035E+03   -0.11907E-04   -0.17527E-06 12808   0.419E-03    0.221E-01
DAV:  34    -0.287549333883E+03   -0.84810E-06   -0.10419E-05 13496   0.778E-03
  80 F= -.28754933E+03 E0= -.28753203E+03  d E =0.282153E-01  mag=     5.1413
       N       E                     dE             d eps       ncg     rms          rms(c)
DAV:   1    -0.287518819853E+03    0.30513E-01   -0.21809E+01 25344   0.148E+01    0.137E+00
DAV:   2    -0.287582369402E+03   -0.63550E-01   -0.65085E-01 28112   0.253E+00    0.315E+00
DAV:   3    -0.287577414761E+03    0.49546E-02   -0.84560E-02 34080   0.698E-01    0.329E+00
DAV:   4    -0.287580241969E+03   -0.28272E-02   -0.65610E-02 33024   0.586E-01    0.356E+00
DAV:   5    -0.287568983570E+03    0.11258E-01   -0.48564E-02 32016   0.429E-01    0.176E+00
DAV:   6    -0.287574250885E+03   -0.52673E-02   -0.20615E-02 32488   0.234E-01    0.282E+00
DAV:   7    -0.287570089855E+03    0.41610E-02   -0.61629E-03 29544   0.173E-01    0.258E+00
DAV:   8    -0.287568811728E+03    0.12781E-02   -0.14443E-03 32232   0.956E-02    0.198E+00
DAV:   9    -0.287570373499E+03   -0.15618E-02   -0.59681E-03 32328   0.181E-01    0.232E+00
DAV:  10    -0.287563342491E+03    0.70310E-02   -0.29841E-02 33024   0.347E-01    0.129E+00
DAV:  11    -0.287565940006E+03   -0.25975E-02   -0.13269E-02 31392   0.333E-01    0.187E+00
DAV:  12    -0.287565870692E+03    0.69314E-04   -0.42588E-03 32608   0.153E-01    0.232E+00
DAV:  13    -0.287569091711E+03   -0.32210E-02   -0.39951E-03 29560   0.193E-01    0.246E+00
DAV:  14    -0.287569391547E+03   -0.29984E-03   -0.11685E-02 31992   0.328E-01    0.196E+00
DAV:  15    -0.287570717307E+03   -0.13258E-02   -0.70500E-03 33088   0.248E-01    0.170E+00
DAV:  16    -0.287571431259E+03   -0.71395E-03   -0.19466E-03 32600   0.110E-01    0.185E+00
DAV:  17    -0.287569735983E+03    0.16953E-02   -0.16093E-03 32608   0.147E-01    0.914E-01
DAV:  18    -0.287572413333E+03   -0.26773E-02   -0.23038E-03 33368   0.195E-01    0.960E-01
DAV:  19    -0.287571981454E+03    0.43188E-03   -0.14380E-03 33680   0.116E-01    0.303E-01
DAV:  20    -0.287572849178E+03   -0.86772E-03   -0.54223E-04 29000   0.926E-02    0.253E-01
DAV:  21    -0.287572922473E+03   -0.73295E-04   -0.25202E-04 32736   0.582E-02    0.191E-01
DAV:  22    -0.287572936476E+03   -0.14003E-04   -0.53774E-05 20496   0.262E-02    0.113E-01
DAV:  23    -0.287572969532E+03   -0.33056E-04   -0.35210E-05 20328   0.233E-02    0.986E-02
DAV:  24    -0.287572978787E+03   -0.92552E-05   -0.60557E-05 20080   0.227E-02
  81 F= -.28757298E+03 E0= -.28755561E+03  d E =-.236449E-01  mag=     5.1511
       N       E                     dE             d eps       ncg     rms          rms(c)
DAV:   1    -0.287553838603E+03    0.19131E-01   -0.55977E+00 25344   0.739E+00    0.106E+00
DAV:   2    -0.287612265255E+03   -0.58427E-01   -0.27582E-01 30456   0.146E+00    0.798E+00
DAV:   3    -0.287534432199E+03    0.77833E-01   -0.12116E-01 31872   0.947E-01    0.150E+00
DAV:   4    -0.287570768336E+03   -0.36336E-01   -0.74669E-02 28272   0.512E-01    0.254E+00
DAV:   5    -0.287566980150E+03    0.37882E-02   -0.23087E-02 31368   0.407E-01    0.171E+00
DAV:   6    -0.287565834131E+03    0.11460E-02   -0.20317E-02 33496   0.235E-01    0.905E-01
DAV:   7    -0.287566988066E+03   -0.11539E-02   -0.23418E-03 32456   0.176E-01    0.494E-01
DAV:   8    -0.287567664489E+03   -0.67642E-03   -0.31396E-03 29232   0.146E-01    0.466E-01
DAV:   9    -0.287567816303E+03   -0.15181E-03   -0.11479E-03 32544   0.760E-02    0.258E-01
DAV:  10    -0.287567943694E+03   -0.12739E-03   -0.21234E-04 25984   0.440E-02    0.303E-01
DAV:  11    -0.287567892113E+03    0.51581E-04   -0.34476E-05 19848   0.199E-02    0.307E-01
DAV:  12    -0.287567853905E+03    0.38208E-04   -0.21541E-05 15440   0.130E-02    0.269E-01
DAV:  13    -0.287567854852E+03   -0.94683E-06   -0.32212E-06 14224   0.797E-03
  82 F= -.28756785E+03 E0= -.28755044E+03  d E =0.512394E-02  mag=     5.1785
       N       E                     dE             d eps       ncg     rms          rms(c)
DAV:   1    -0.287565294430E+03    0.25595E-02   -0.32665E+00 25344   0.566E+00    0.920E-01
DAV:   2    -0.287616158578E+03   -0.50864E-01   -0.24701E-01 31704   0.125E+00    0.684E+00
DAV:   3    -0.287550988774E+03    0.65170E-01   -0.77492E-02 32336   0.896E-01    0.157E+00
DAV:   4    -0.287573670524E+03   -0.22682E-01   -0.36567E-02 27784   0.385E-01    0.155E+00
DAV:   5    -0.287573085809E+03    0.58472E-03   -0.12463E-02 29896   0.273E-01    0.946E-01
DAV:   6    -0.287573115197E+03   -0.29388E-04   -0.18375E-03 28920   0.108E-01    0.712E-01
DAV:   7    -0.287572929389E+03    0.18581E-03   -0.61424E-04 26384   0.534E-02    0.695E-01
DAV:   8    -0.287573307456E+03   -0.37807E-03   -0.10993E-03 32080   0.773E-02    0.117E+00
DAV:   9    -0.287573268333E+03    0.39123E-04   -0.27667E-04 24312   0.770E-02    0.146E+00
DAV:  10    -0.287572271920E+03    0.99641E-03   -0.23355E-04 27408   0.678E-02    0.132E+00
DAV:  11    -0.287571463478E+03    0.80844E-03   -0.28587E-03 32536   0.197E-01    0.461E-01
DAV:  12    -0.287572929585E+03   -0.14661E-02   -0.28622E-03 28536   0.149E-01    0.529E-01
DAV:  13    -0.287573369103E+03   -0.43952E-03   -0.24140E-03 29944   0.115E-01    0.345E-01
DAV:  14    -0.287573506667E+03   -0.13756E-03   -0.54678E-04 31856   0.781E-02    0.362E-01
DAV:  15    -0.287573542949E+03   -0.36282E-04   -0.23625E-04 29496   0.510E-02    0.506E-01
DAV:  16    -0.287573331271E+03    0.21168E-03   -0.91527E-05 21448   0.317E-02    0.389E-01
DAV:  17    -0.287573324911E+03    0.63601E-05   -0.10787E-04 21704   0.258E-02    0.203E-01
DAV:  18    -0.287573464777E+03   -0.13987E-03   -0.77559E-05 19688   0.247E-02    0.211E-01
DAV:  19    -0.287573485674E+03   -0.20896E-04   -0.13631E-05 16248   0.131E-02    0.228E-01
DAV:  20    -0.287573472260E+03    0.13413E-04   -0.71315E-06 14328   0.815E-03    0.196E-01
DAV:  21    -0.287573479725E+03   -0.74648E-05   -0.98731E-06 14728   0.107E-02
  83 F= -.28757348E+03 E0= -.28755613E+03  d E =-.562487E-02  mag=     5.1529
       N       E                     dE             d eps       ncg     rms          rms(c)
DAV:   1    -0.287572980055E+03    0.49220E-03   -0.10487E-02 25344   0.374E-01    0.264E-01
DAV:   2    -0.287583869392E+03   -0.10889E-01   -0.51730E-03 34032   0.289E-01    0.443E+00
DAV:   3    -0.287560730300E+03    0.23139E-01   -0.85352E-03 28824   0.386E-01    0.114E+00
DAV:   4    -0.287570144870E+03   -0.94146E-02   -0.13970E-03 24952   0.135E-01    0.201E-01
DAV:   5    -0.287572878159E+03   -0.27333E-02   -0.70864E-04 25408   0.968E-02    0.316E-01
DAV:   6    -0.287573086607E+03   -0.20845E-03   -0.11901E-04 23920   0.481E-02    0.411E-01
DAV:   7    -0.287573116990E+03   -0.30383E-04   -0.29193E-04 25808   0.384E-02    0.781E-01
DAV:   8    -0.287572694722E+03    0.42227E-03   -0.16801E-04 22736   0.436E-02    0.818E-01
DAV:   9    -0.287572513054E+03    0.18167E-03   -0.55378E-05 18168   0.165E-02    0.772E-01
DAV:  10    -0.287572526003E+03   -0.12949E-04   -0.96344E-06 14032   0.904E-03    0.747E-01
DAV:  11    -0.287572517387E+03    0.86157E-05   -0.85393E-06 13632   0.996E-03
  84 F= -.28757252E+03 E0= -.28755534E+03  d E =0.962338E-03  mag=     5.1555
       N       E                     dE             d eps       ncg     rms          rms(c)
DAV:   1    -0.287572404383E+03    0.12162E-03   -0.16037E-02 25344   0.374E-01    0.381E-01
DAV:   2    -0.287598733927E+03   -0.26330E-01   -0.73436E-03 33952   0.432E-01    0.624E+00
DAV:   3    -0.287551937530E+03    0.46796E-01   -0.15443E-02 29208   0.554E-01    0.204E+00
DAV:   4    -0.287565794070E+03   -0.13857E-01   -0.28935E-03 25288   0.167E-01    0.798E-01
DAV:   5    -0.287571419074E+03   -0.56250E-02   -0.67211E-04 24920   0.113E-01    0.276E-01
DAV:   6    -0.287572738541E+03   -0.13195E-02   -0.22548E-04 26408   0.633E-02    0.285E-01
DAV:   7    -0.287572962853E+03   -0.22431E-03   -0.10745E-04 22112   0.454E-02    0.403E-01
DAV:   8    -0.287572926383E+03    0.36471E-04   -0.91318E-05 20768   0.241E-02    0.503E-01
DAV:   9    -0.287572824932E+03    0.10145E-03   -0.11280E-04 20128   0.301E-02    0.546E-01
DAV:  10    -0.287572763429E+03    0.61503E-04   -0.25063E-04 28216   0.479E-02    0.543E-01
DAV:  11    -0.287572644174E+03    0.11926E-03   -0.11071E-04 25152   0.355E-02    0.299E-01
DAV:  12    -0.287572828220E+03   -0.18405E-03   -0.53524E-05 19872   0.249E-02    0.200E-01
DAV:  13    -0.287572899150E+03   -0.70930E-04   -0.53984E-05 20696   0.271E-02    0.114E-01
DAV:  14    -0.287572931806E+03   -0.32656E-04   -0.28100E-05 17784   0.190E-02    0.419E-02
DAV:  15    -0.287572950003E+03   -0.18197E-04   -0.76146E-06 14440   0.115E-02    0.548E-02
DAV:  16    -0.287572951069E+03   -0.10665E-05   -0.25168E-06 12216   0.563E-03
  85 F= -.28757295E+03 E0= -.28755559E+03  d E =-.433682E-03  mag=     5.1565
