       N       E                     dE             d eps       ncg     rms          ort
DAV:   1     0.248687597033E+04    0.24869E+04   -0.14172E+05 10584   0.156E+03
DAV:   2    -0.170644220765E+03   -0.26575E+04   -0.24848E+04 10584   0.416E+02
DAV:   3    -0.444002286263E+03   -0.27336E+03   -0.26920E+03 10584   0.151E+02
DAV:   4    -0.452669761489E+03   -0.86675E+01   -0.85455E+01 10584   0.253E+01
DAV:   5    -0.452948521782E+03   -0.27876E+00   -0.27790E+00 10584   0.384E+00
SDA:   6    -0.277992313569E+03    0.17496E+03   -0.27790E+00 10584   0.400E+03 0.000E+00
CGA:   7    -0.327530422542E+03   -0.49538E+02   -0.43726E+02 10584   0.232E+03-0.523E+02
CGA:   8    -0.336730472475E+03   -0.92000E+01   -0.13921E+02 10584   0.756E+02-0.414E+02
CGA:   9    -0.340788572722E+03   -0.40581E+01   -0.44280E+01 10584   0.226E+02 0.938E+01
CGA:  10    -0.342982926096E+03   -0.21944E+01   -0.17963E+01 10584   0.608E+02-0.151E+01
CGA:  11    -0.341877511398E+03    0.11054E+01   -0.18638E+01 10584   0.217E+03-0.777E+02
CGA:  12    -0.343872450669E+03   -0.19949E+01   -0.16896E+02 10584   0.103E+03-0.527E+02
CGA:  13    -0.345749892662E+03   -0.18774E+01   -0.54813E+01 10584   0.809E+01 0.300E+01
CGA:  14    -0.345984164984E+03   -0.23427E+00   -0.11220E+00 10584   0.800E+01 0.924E+01
CGA:  15    -0.346196584447E+03   -0.21242E+00   -0.10189E+00 10584   0.736E+01 0.868E+01
CGA:  16    -0.346409864402E+03   -0.21328E+00   -0.11052E+00 10584   0.505E+01 0.663E+01
CGA:  17    -0.346578230107E+03   -0.16837E+00   -0.97016E-01 10584   0.305E+01 0.363E+01
CGA:  18    -0.346773651221E+03   -0.19542E+00   -0.10198E+00 10584   0.241E+01 0.280E+01
CGA:  19    -0.347020382740E+03   -0.24673E+00   -0.18853E+00 10584   0.309E+01 0.142E+00
CGA:  20    -0.347441121964E+03   -0.42074E+00   -0.42397E+00 10584   0.696E+01-0.523E+00
CGA:  21    -0.347720064618E+03   -0.27894E+00   -0.35982E+00 10584   0.539E+01-0.281E+00
CGA:  22    -0.347903856148E+03   -0.18379E+00   -0.29604E+00 10584   0.911E+00-0.681E+00
CGA:  23    -0.347989571925E+03   -0.85716E-01   -0.87289E-01 10584   0.285E+00 0.671E-01
CGA:  24    -0.348046172584E+03   -0.56601E-01   -0.55033E-01 10584   0.152E+00 0.252E-01
CGA:  25    -0.348085447600E+03   -0.39275E-01   -0.38187E-01 10584   0.109E+00 0.101E-01
CGA:  26    -0.348108872409E+03   -0.23425E-01   -0.23969E-01 10584   0.412E-01-0.712E-02
CGA:  27    -0.348117757247E+03   -0.88848E-02   -0.95003E-02 10584   0.267E-01-0.540E-02
CGA:  28    -0.348122054024E+03   -0.42968E-02   -0.42244E-02 10584   0.107E-01 0.156E-02
CGA:  29    -0.348124110510E+03   -0.20565E-02   -0.19945E-02 10584   0.528E-02 0.167E-02
CGA:  30    -0.348125627276E+03   -0.15168E-02   -0.16058E-02 10584   0.252E-02-0.732E-03
CGA:  31    -0.348122195092E+03    0.34322E-02   -0.18999E-02 10584   0.193E-01-0.698E-02
CGA:  32    -0.348125532392E+03   -0.33373E-02   -0.35525E-02 10584   0.365E-02 0.285E-02
CGA:  33    -0.348126553118E+03   -0.10207E-02   -0.10350E-02 10584   0.968E-03 0.794E-03
CGA:  34    -0.348126994543E+03   -0.44143E-03   -0.55510E-03 10584   0.776E-03-0.551E-03
CGA:  35    -0.348127033264E+03   -0.38721E-04   -0.87364E-04 10584   0.157E-03 0.304E-03
CGA:  36    -0.348127031869E+03    0.13948E-05   -0.19496E-04 10584   0.667E-04 0.118E-03
CGA:  37    -0.348127049991E+03   -0.18122E-04   -0.17869E-04 10584   0.168E-04 0.252E-04
CGA:  38    -0.348127051327E+03   -0.13358E-05   -0.31390E-05 10584   0.766E-05 0.148E-04
   1 F= -.34812705E+03 E0= -.34812705E+03  d E =-.348127E+03  mag=    18.0000
       N       E                     dE             d eps       ncg     rms          ort
SDA:   1    -0.348208246729E+03   -0.81197E-01    0.00000E+00 10584   0.145E-01 0.000E+00
CGA:   2    -0.348211538685E+03   -0.32920E-02   -0.33103E-02 10584   0.314E-02 0.731E-03
CGA:   3    -0.348212531323E+03   -0.99264E-03   -0.10063E-02 10584   0.111E-02-0.258E-03
CGA:   4    -0.348212718011E+03   -0.18669E-03   -0.18477E-03 10584   0.327E-03-0.267E-04
CGA:   5    -0.348212773130E+03   -0.55119E-04   -0.56863E-04 10584   0.868E-04 0.239E-04
CGA:   6    -0.348212790773E+03   -0.17643E-04   -0.18493E-04 10584   0.333E-04 0.173E-04
CGA:   7    -0.348212801873E+03   -0.11100E-04   -0.11047E-04 10584   0.179E-04 0.167E-05
CGA:   8    -0.348212807275E+03   -0.54018E-05   -0.54136E-05 10584   0.850E-05-0.279E-06
   2 F= -.34821281E+03 E0= -.34821281E+03  d E =-.857559E-01  mag=    18.0000
       N       E                     dE             d eps       ncg     rms          ort
SDA:   1    -0.344843015829E+03    0.33698E+01    0.00000E+00 10584   0.172E+02 0.000E+00
CGA:   2    -0.349054211976E+03   -0.42112E+01   -0.42112E+01 10584   0.399E+01-0.287E-01
CGA:   3    -0.350121073330E+03   -0.10669E+01   -0.10675E+01 10584   0.113E+01-0.271E-01
CGA:   4    -0.350338380854E+03   -0.21731E+00   -0.21712E+00 10584   0.369E+00-0.404E-02
CGA:   5    -0.350409750410E+03   -0.71370E-01   -0.71396E-01 10584   0.113E+00 0.655E-03
CGA:   6    -0.350437621684E+03   -0.27871E-01   -0.27863E-01 10584   0.546E-01 0.104E-02
CGA:   7    -0.350452124569E+03   -0.14503E-01   -0.14500E-01 10584   0.242E-01 0.942E-04
CGA:   8    -0.350458836773E+03   -0.67122E-02   -0.67123E-02 10584   0.859E-02-0.755E-05
CGA:   9    -0.350461109942E+03   -0.22732E-02   -0.22695E-02 10584   0.268E-02 0.170E-03
CGA:  10    -0.350461932515E+03   -0.82257E-03   -0.82447E-03 10584   0.934E-03-0.338E-04
CGA:  11    -0.350462224628E+03   -0.29211E-03   -0.29068E-03 10584   0.351E-03 0.209E-04
CGA:  12    -0.350462338657E+03   -0.11403E-03   -0.11155E-03 10584   0.118E-03 0.406E-04
CGA:  13    -0.350462391788E+03   -0.53131E-04   -0.73579E-04 10584   0.122E-03-0.668E-04
CGA:  14    -0.350462409930E+03   -0.18142E-04   -0.21408E-04 10584   0.172E-04 0.353E-04
CGA:  15    -0.350462413197E+03   -0.32670E-05   -0.39547E-05 10584   0.596E-05 0.804E-05
   3 F= -.35046241E+03 E0= -.35046241E+03  d E =-.224961E+01  mag=    18.0000
       N       E                     dE             d eps       ncg     rms          ort
SDA:   1    -0.341514726977E+03    0.89477E+01    0.00000E+00 10584   0.332E+02 0.000E+00
CGA:   2    -0.349363445202E+03   -0.78487E+01   -0.78515E+01 10584   0.774E+01-0.134E-01
CGA:   3    -0.351310996126E+03   -0.19476E+01   -0.19472E+01 10584   0.252E+01-0.422E-01
CGA:   4    -0.351752055990E+03   -0.44106E+00   -0.44074E+00 10584   0.705E+00-0.581E-02
CGA:   5    -0.351891515127E+03   -0.13946E+00   -0.13952E+00 10584   0.212E+00 0.117E-02
CGA:   6    -0.351940506393E+03   -0.48991E-01   -0.49029E-01 10584   0.979E-01 0.175E-02
CGA:   7    -0.351966896572E+03   -0.26390E-01   -0.26383E-01 10584   0.438E-01 0.351E-03
CGA:   8    -0.351979522907E+03   -0.12626E-01   -0.12632E-01 10584   0.174E-01-0.165E-03
CGA:   9    -0.351984132865E+03   -0.46100E-02   -0.46069E-02 10584   0.546E-02 0.237E-03
CGA:  10    -0.351985776343E+03   -0.16435E-02   -0.16434E-02 10584   0.184E-02 0.237E-05
CGA:  11    -0.351986377185E+03   -0.60084E-03   -0.60674E-03 10584   0.747E-03-0.808E-04
CGA:  12    -0.351986614467E+03   -0.23728E-03   -0.23510E-03 10584   0.268E-03 0.313E-04
CGA:  13    -0.351986727700E+03   -0.11323E-03   -0.12494E-03 10584   0.147E-03-0.636E-04
CGA:  14    -0.351986767536E+03   -0.39836E-04   -0.42446E-04 10584   0.574E-04-0.244E-04
CGA:  15    -0.351986771863E+03   -0.43271E-05   -0.72396E-05 10584   0.255E-04 0.230E-04
   4 F= -.35198677E+03 E0= -.35198677E+03  d E =-.152436E+01  mag=    18.0000
       N       E                     dE             d eps       ncg     rms          ort
SDA:   1    -0.346444871893E+03    0.55419E+01    0.00000E+00 10584   0.195E+02 0.000E+00
CGA:   2    -0.350900542817E+03   -0.44557E+01   -0.44592E+01 10584   0.486E+01 0.303E-01
CGA:   3    -0.352098289870E+03   -0.11977E+01   -0.11973E+01 10584   0.169E+01-0.207E-01
CGA:   4    -0.352382972699E+03   -0.28468E+00   -0.28445E+00 10584   0.418E+00-0.436E-02
CGA:   5    -0.352463550382E+03   -0.80578E-01   -0.80704E-01 10584   0.118E+00 0.198E-02
CGA:   6    -0.352488966723E+03   -0.25416E-01   -0.25515E-01 10584   0.491E-01 0.254E-02
CGA:   7    -0.352502323728E+03   -0.13357E-01   -0.13347E-01 10584   0.227E-01 0.652E-03
CGA:   8    -0.352509205978E+03   -0.68822E-02   -0.69005E-02 10584   0.105E-01-0.378E-03
CGA:   9    -0.352512028621E+03   -0.28226E-02   -0.28244E-02 10584   0.350E-02-0.903E-04
CGA:  10    -0.352512988436E+03   -0.95982E-03   -0.95725E-03 10584   0.109E-02 0.126E-03
CGA:  11    -0.352513336127E+03   -0.34769E-03   -0.34958E-03 10584   0.416E-03-0.349E-04
CGA:  12    -0.352513456639E+03   -0.12051E-03   -0.11898E-03 10584   0.152E-03 0.430E-04
CGA:  13    -0.352513513355E+03   -0.56716E-04   -0.98698E-04 10584   0.271E-03-0.128E-03
CGA:  14    -0.352513554350E+03   -0.40995E-04   -0.44359E-04 10584   0.447E-04 0.303E-04
CGA:  15    -0.352513569503E+03   -0.15153E-04   -0.16722E-04 10584   0.297E-04-0.242E-04
CGA:  16    -0.352513569084E+03    0.41966E-06   -0.25193E-05 10584   0.912E-05 0.155E-04
   5 F= -.35251357E+03 E0= -.35251357E+03  d E =-.526797E+00  mag=    18.0000
       N       E                     dE             d eps       ncg     rms          ort
SDA:   1    -0.345884914272E+03    0.66287E+01    0.00000E+00 10584   0.226E+02 0.000E+00
CGA:   2    -0.350854249846E+03   -0.49693E+01   -0.49776E+01 10584   0.616E+01 0.688E-01
CGA:   3    -0.352262914404E+03   -0.14087E+01   -0.14075E+01 10584   0.236E+01-0.212E-01
CGA:   4    -0.352662877872E+03   -0.39996E+00   -0.39998E+00 10584   0.534E+00-0.419E-02
CGA:   5    -0.352765126874E+03   -0.10225E+00   -0.10227E+00 10584   0.155E+00 0.143E-03
CGA:   6    -0.352796965316E+03   -0.31838E-01   -0.31886E-01 10584   0.594E-01 0.125E-02
CGA:   7    -0.352812929456E+03   -0.15964E-01   -0.15960E-01 10584   0.278E-01 0.197E-03
CGA:   8    -0.352820937294E+03   -0.80078E-02   -0.80099E-02 10584   0.126E-01-0.428E-04
CGA:   9    -0.352824489276E+03   -0.35520E-02   -0.35586E-02 10584   0.444E-02-0.194E-03
CGA:  10    -0.352825688583E+03   -0.11993E-02   -0.11960E-02 10584   0.142E-02 0.142E-03
CGA:  11    -0.352826141804E+03   -0.45322E-03   -0.45997E-03 10584   0.586E-03-0.108E-03
CGA:  12    -0.352826286795E+03   -0.14499E-03   -0.14434E-03 10584   0.227E-03 0.529E-04
CGA:  13    -0.352826370977E+03   -0.84182E-04   -0.91856E-04 10584   0.169E-03-0.654E-04
CGA:  14    -0.352826394241E+03   -0.23264E-04   -0.23911E-04 10584   0.666E-04 0.108E-04
CGA:  15    -0.352826413134E+03   -0.18893E-04   -0.19005E-04 10584   0.322E-04-0.105E-04
CGA:  16    -0.352826419905E+03   -0.67708E-05   -0.98845E-05 10584   0.527E-04-0.292E-04
   6 F= -.35282642E+03 E0= -.35282642E+03  d E =-.312851E+00  mag=    18.0000
       N       E                     dE             d eps       ncg     rms          ort
SDA:   1    -0.337488440802E+03    0.15338E+02    0.00000E+00 10584   0.444E+02 0.000E+00
CGA:   2    -0.348183197505E+03   -0.10695E+02   -0.10725E+02 10584   0.156E+02 0.105E+01
CGA:   3    -0.351329832340E+03   -0.31466E+01   -0.26068E+01 10584   0.437E+01 0.251E+01
CGA:   4    -0.352387273818E+03   -0.10574E+01   -0.10574E+01 10584   0.115E+01-0.298E-02
CGA:   5    -0.352611129246E+03   -0.22386E+00   -0.22399E+00 10584   0.382E+00 0.125E-02
CGA:   6    -0.352678259473E+03   -0.67130E-01   -0.66897E-01 10584   0.150E+00 0.248E-02
CGA:   7    -0.352707232533E+03   -0.28973E-01   -0.29167E-01 10584   0.883E-01-0.965E-03
CGA:   8    -0.352724035091E+03   -0.16803E-01   -0.16775E-01 10584   0.393E-01 0.660E-03
CGA:   9    -0.352734469496E+03   -0.10434E-01   -0.10462E-01 10584   0.156E-01-0.111E-02
CGA:  10    -0.352738057408E+03   -0.35879E-02   -0.35882E-02 10584   0.667E-02 0.369E-03
CGA:  11    -0.352739493447E+03   -0.14360E-02   -0.14171E-02 10584   0.390E-02-0.690E-03
CGA:  12    -0.352740024388E+03   -0.53094E-03   -0.55297E-03 10584   0.111E-02 0.302E-03
CGA:  13    -0.352740370685E+03   -0.34630E-03   -0.34463E-03 10584   0.522E-03 0.289E-04
CGA:  14    -0.352740516372E+03   -0.14569E-03   -0.15563E-03 10584   0.834E-03-0.179E-03
CGA:  15    -0.352740555659E+03   -0.39286E-04   -0.53377E-04 10584   0.395E-03 0.102E-03
CGA:  16    -0.352740571284E+03   -0.15625E-04   -0.31220E-04 10584   0.176E-03 0.101E-03
CGA:  17    -0.352740601805E+03   -0.30521E-04   -0.32575E-04 10584   0.195E-03 0.274E-04
CGA:  18    -0.352740647740E+03   -0.45934E-04   -0.38636E-04 10584   0.105E-03-0.153E-03
CGA:  19    -0.352740651325E+03   -0.35854E-05   -0.10431E-04 10584   0.380E-04 0.584E-04
   7 F= -.35274065E+03 E0= -.35274064E+03  d E =0.857686E-01  mag=    18.0000
       N       E                     dE             d eps       ncg     rms          ort
SDA:   1    -0.350651087568E+03    0.20896E+01    0.00000E+00 10584   0.575E+01 0.000E+00
CGA:   2    -0.352370110011E+03   -0.17190E+01   -0.17191E+01 10584   0.225E+01-0.157E-02
CGA:   3    -0.352819330312E+03   -0.44922E+00   -0.44932E+00 10584   0.713E+00 0.357E-03
CGA:   4    -0.352937352062E+03   -0.11802E+00   -0.11802E+00 10584   0.165E+00 0.688E-03
CGA:   5    -0.352970699027E+03   -0.33347E-01   -0.33340E-01 10584   0.529E-01-0.102E-02
CGA:   6    -0.352981525892E+03   -0.10827E-01   -0.10828E-01 10584   0.189E-01 0.256E-03
CGA:   7    -0.352986610583E+03   -0.50847E-02   -0.50952E-02 10584   0.771E-02-0.185E-03
CGA:   8    -0.352988633775E+03   -0.20232E-02   -0.20369E-02 10584   0.321E-02-0.260E-03
CGA:   9    -0.352989411726E+03   -0.77795E-03   -0.77223E-03 10584   0.100E-02 0.177E-03
CGA:  10    -0.352989714488E+03   -0.30276E-03   -0.32893E-03 10584   0.688E-03-0.279E-03
CGA:  11    -0.352989783830E+03   -0.69343E-04   -0.73345E-04 10584   0.224E-03 0.553E-04
CGA:  12    -0.352989833865E+03   -0.50035E-04   -0.49690E-04 10584   0.121E-03-0.248E-04
CGA:  13    -0.352988883222E+03    0.95064E-03   -0.52292E-03 10584   0.753E-02-0.924E-03
CGA:  14    -0.352989656928E+03   -0.77371E-03   -0.83139E-03 10584   0.806E-03 0.700E-03
CGA:  15    -0.352989870876E+03   -0.21395E-03   -0.21980E-03 10584   0.156E-03 0.435E-04
CGA:  16    -0.352989924647E+03   -0.53771E-04   -0.42807E-04 10584   0.216E-03-0.943E-04
CGA:  17    -0.352989926639E+03   -0.19921E-05   -0.18057E-04 10584   0.278E-04 0.589E-04
   8 F= -.35298993E+03 E0= -.35298993E+03  d E =-.249275E+00  mag=    18.0000
       N       E                     dE             d eps       ncg     rms          ort
SDA:   1    -0.352609422751E+03    0.38050E+00    0.00000E+00 10584   0.128E+01 0.000E+00
CGA:   2    -0.352917035376E+03   -0.30761E+00   -0.30754E+00 10584   0.399E+00-0.106E-02
CGA:   3    -0.353001988139E+03   -0.84953E-01   -0.85073E-01 10584   0.149E+00-0.921E-03
CGA:   4    -0.353026318850E+03   -0.24331E-01   -0.24440E-01 10584   0.300E-01 0.108E-02
CGA:   5    -0.353032351716E+03   -0.60329E-02   -0.59768E-02 10584   0.883E-02-0.478E-03
CGA:   6    -0.353034234482E+03   -0.18828E-02   -0.18464E-02 10584   0.325E-02-0.352E-03
CGA:   7    -0.353035056980E+03   -0.82250E-03   -0.81789E-03 10584   0.152E-02-0.945E-04
CGA:   8    -0.353035472296E+03   -0.41532E-03   -0.41348E-03 10584   0.723E-03-0.629E-04
CGA:   9    -0.353035620163E+03   -0.14787E-03   -0.15510E-03 10584   0.247E-03 0.871E-04
CGA:  10    -0.353035711039E+03   -0.90876E-04   -0.94386E-04 10584   0.195E-03-0.944E-04
CGA:  11    -0.353035721799E+03   -0.10760E-04   -0.15751E-04 10584   0.853E-04 0.288E-04
CGA:  12    -0.353035728321E+03   -0.65222E-05   -0.11258E-04 10584   0.352E-04 0.261E-04
   9 F= -.35303573E+03 E0= -.35303573E+03  d E =-.458017E-01  mag=    18.0000
       N       E                     dE             d eps       ncg     rms          ort
SDA:   1    -0.350356166476E+03    0.26796E+01    0.00000E+00 10584   0.745E+01 0.000E+00
CGA:   2    -0.352319474165E+03   -0.19633E+01   -0.19634E+01 10584   0.310E+01-0.350E-02
CGA:   3    -0.352894289223E+03   -0.57482E+00   -0.57507E+00 10584   0.894E+00 0.758E-03
CGA:   4    -0.353045392210E+03   -0.15110E+00   -0.15140E+00 10584   0.183E+00 0.233E-02
CGA:   5    -0.353078607187E+03   -0.33215E-01   -0.33207E-01 10584   0.506E-01-0.199E-03
CGA:   6    -0.353088964770E+03   -0.10358E-01   -0.10299E-01 10584   0.151E-01-0.934E-03
CGA:   7    -0.353092642559E+03   -0.36778E-02   -0.36723E-02 10584   0.610E-02-0.345E-03
CGA:   8    -0.353094240382E+03   -0.15978E-02   -0.15975E-02 10584   0.248E-02 0.732E-04
CGA:   9    -0.353094973842E+03   -0.73346E-03   -0.73064E-03 10584   0.930E-03 0.100E-03
CGA:  10    -0.353095294212E+03   -0.32037E-03   -0.33272E-03 10584   0.434E-03-0.157E-03
CGA:  11    -0.353095379717E+03   -0.85505E-04   -0.85976E-04 10584   0.139E-03 0.153E-04
CGA:  12    -0.353095424806E+03   -0.45089E-04   -0.49418E-04 10584   0.114E-03-0.568E-04
CGA:  13    -0.353095430986E+03   -0.61800E-05   -0.85975E-05 10584   0.573E-04 0.169E-04
  10 F= -.35309543E+03 E0= -.35309543E+03  d E =-.597027E-01  mag=    18.0000
       N       E                     dE             d eps       ncg     rms          ort
SDA:   1    -0.345784816559E+03    0.73106E+01    0.00000E+00 10584   0.180E+02 0.000E+00
CGA:   2    -0.351192406823E+03   -0.54076E+01   -0.54074E+01 10584   0.820E+01-0.564E-02
CGA:   3    -0.352583857038E+03   -0.13915E+01   -0.13902E+01 10584   0.195E+01 0.405E-02
CGA:   4    -0.352920520609E+03   -0.33666E+00   -0.33704E+00 10584   0.433E+00 0.133E-02
CGA:   5    -0.353000780933E+03   -0.80260E-01   -0.80220E-01 10584   0.126E+00-0.816E-03
CGA:   6    -0.353026199036E+03   -0.25418E-01   -0.25356E-01 10584   0.376E-01-0.140E-02
CGA:   7    -0.353035484228E+03   -0.92852E-02   -0.92882E-02 10584   0.152E-01-0.661E-03
CGA:   8    -0.353039468154E+03   -0.39839E-02   -0.39809E-02 10584   0.601E-02 0.146E-03
CGA:   9    -0.353041270771E+03   -0.18026E-02   -0.18061E-02 10584   0.227E-02-0.698E-04
CGA:  10    -0.353041889827E+03   -0.61906E-03   -0.61997E-03 10584   0.728E-03-0.334E-04
CGA:  11    -0.353042115482E+03   -0.22566E-03   -0.25994E-03 10584   0.529E-03-0.307E-03
CGA:  12    -0.353042163308E+03   -0.47826E-04   -0.49229E-04 10584   0.210E-03 0.158E-04
CGA:  13    -0.353042197705E+03   -0.34396E-04   -0.36870E-04 10584   0.996E-04 0.305E-04
CGA:  14    -0.353042227950E+03   -0.30245E-04   -0.31853E-04 10584   0.854E-04-0.501E-04
CGA:  15    -0.353042235843E+03   -0.78932E-05   -0.11238E-04 10584   0.201E-04 0.287E-04
CGA:  16    -0.353042244089E+03   -0.82461E-05   -0.10504E-04 10584   0.254E-04-0.152E-04
CGA:  17    -0.353042247725E+03   -0.36352E-05   -0.13938E-04 10584   0.724E-04-0.346E-04
  11 F= -.35304225E+03 E0= -.35304225E+03  d E =0.531833E-01  mag=    18.0000
       N       E                     dE             d eps       ncg     rms          ort
SDA:   1    -0.351513162652E+03    0.15291E+01    0.00000E+00 10584   0.377E+01 0.000E+00
CGA:   2    -0.352762534010E+03   -0.12494E+01   -0.12499E+01 10584   0.146E+01-0.657E-02
CGA:   3    -0.353039727329E+03   -0.27719E+00   -0.27721E+00 10584   0.375E+00 0.968E-03
CGA:   4    -0.353100988249E+03   -0.61261E-01   -0.61373E-01 10584   0.857E-01 0.747E-03
CGA:   5    -0.353118213757E+03   -0.17226E-01   -0.17256E-01 10584   0.271E-01 0.592E-03
CGA:   6    -0.353123726661E+03   -0.55129E-02   -0.55106E-02 10584   0.939E-02-0.525E-04
CGA:   7    -0.353126177958E+03   -0.24513E-02   -0.24522E-02 10584   0.385E-02-0.661E-04
CGA:   8    -0.353127129820E+03   -0.95186E-03   -0.95176E-03 10584   0.148E-02 0.199E-03
CGA:   9    -0.353127568560E+03   -0.43874E-03   -0.43871E-03 10584   0.561E-03 0.754E-06
CGA:  10    -0.353127680614E+03   -0.11205E-03   -0.11612E-03 10584   0.165E-03 0.951E-04
CGA:  11    -0.353127737486E+03   -0.56871E-04   -0.59459E-04 10584   0.831E-04-0.432E-04
CGA:  12    -0.353127743296E+03   -0.58102E-05   -0.84130E-05 10584   0.337E-04 0.229E-04
  12 F= -.35312774E+03 E0= -.35312774E+03  d E =-.854956E-01  mag=    18.0000
       N       E                     dE             d eps       ncg     rms          ort
SDA:   1    -0.352880896354E+03    0.24684E+00    0.00000E+00 10584   0.678E+00 0.000E+00
CGA:   2    -0.353075616509E+03   -0.19472E+00   -0.19455E+00 10584   0.291E+00 0.324E-02
CGA:   3    -0.353128574294E+03   -0.52958E-01   -0.52947E-01 10584   0.829E-01-0.343E-03
CGA:   4    -0.353142983647E+03   -0.14409E-01   -0.14357E-01 10584   0.186E-01-0.828E-03
CGA:   5    -0.353146349388E+03   -0.33657E-02   -0.33589E-02 10584   0.543E-02-0.135E-03
CGA:   6    -0.353147409960E+03   -0.10606E-02   -0.10651E-02 10584   0.162E-02 0.130E-03
CGA:   7    -0.353147819444E+03   -0.40948E-03   -0.40876E-03 10584   0.640E-03 0.442E-04
CGA:   8    -0.353148008130E+03   -0.18869E-03   -0.19154E-03 10584   0.308E-03-0.477E-04
CGA:   9    -0.353148088531E+03   -0.80400E-04   -0.81098E-04 10584   0.109E-03-0.140E-04
CGA:  10    -0.353148120025E+03   -0.31494E-04   -0.45705E-04 10584   0.114E-03-0.708E-04
CGA:  11    -0.353148131147E+03   -0.11122E-04   -0.14482E-04 10584   0.169E-04 0.282E-04
CGA:  12    -0.353148136944E+03   -0.57972E-05   -0.80717E-05 10584   0.235E-04-0.161E-04
  13 F= -.35314814E+03 E0= -.35314814E+03  d E =-.203936E-01  mag=    18.0000
       N       E                     dE             d eps       ncg     rms          ort
SDA:   1    -0.352496935194E+03    0.65120E+00    0.00000E+00 10584   0.155E+01 0.000E+00
CGA:   2    -0.353042854198E+03   -0.54592E+00   -0.54585E+00 10584   0.466E+00 0.583E-03
CGA:   3    -0.353131883257E+03   -0.89029E-01   -0.89003E-01 10584   0.120E+00-0.577E-03
CGA:   4    -0.353151333908E+03   -0.19451E-01   -0.19419E-01 10584   0.275E-01-0.415E-03
CGA:   5    -0.353156524884E+03   -0.51910E-02   -0.51824E-02 10584   0.766E-02-0.163E-03
CGA:   6    -0.353158045856E+03   -0.15210E-02   -0.15191E-02 10584   0.237E-02-0.483E-04
CGA:   7    -0.353158627938E+03   -0.58208E-03   -0.58232E-03 10584   0.928E-03-0.287E-04
CGA:   8    -0.353158889348E+03   -0.26141E-03   -0.26200E-03 10584   0.413E-03-0.127E-04
CGA:   9    -0.353159008897E+03   -0.11955E-03   -0.12030E-03 10584   0.152E-03-0.140E-04
CGA:  10    -0.353159056737E+03   -0.47839E-04   -0.55148E-04 10584   0.806E-04-0.551E-04
CGA:  11    -0.353159071418E+03   -0.14681E-04   -0.16525E-04 10584   0.354E-04-0.257E-04
CGA:  12    -0.353159084658E+03   -0.13240E-04    0.37715E-04 10584   0.147E-04-0.149E-05
CGA:  13    -0.353159086122E+03   -0.14637E-05   -0.20930E-05 10584   0.645E-05 0.595E-05
  14 F= -.35315909E+03 E0= -.35315909E+03  d E =-.109492E-01  mag=    18.0000
       N       E                     dE             d eps       ncg     rms          ort
SDA:   1    -0.333936857890E+03    0.19222E+02    0.00000E+00 10584   0.451E+02 0.000E+00
CGA:   2    -0.349806998908E+03   -0.15870E+02   -0.15876E+02 10584   0.134E+02-0.445E-01
CGA:   3    -0.352341444954E+03   -0.25344E+01   -0.25352E+01 10584   0.347E+01 0.790E-02
CGA:   4    -0.352916273669E+03   -0.57483E+00   -0.57572E+00 10584   0.795E+00-0.139E-02
CGA:   5    -0.353069883978E+03   -0.15361E+00   -0.15355E+00 10584   0.229E+00-0.912E-03
CGA:   6    -0.353116611029E+03   -0.46727E-01   -0.46737E-01 10584   0.762E-01 0.197E-03
CGA:   7    -0.353135959370E+03   -0.19348E-01   -0.19353E-01 10584   0.313E-01-0.356E-03
CGA:   8    -0.353144776814E+03   -0.88174E-02   -0.88291E-02 10584   0.141E-01-0.261E-03
CGA:   9    -0.353148673991E+03   -0.38972E-02   -0.39029E-02 10584   0.491E-02-0.157E-03
CGA:  10    -0.353149933010E+03   -0.12590E-02   -0.12592E-02 10584   0.143E-02-0.711E-05
CGA:  11    -0.353150358314E+03   -0.42530E-03   -0.47727E-03 10584   0.912E-03-0.573E-03
CGA:  12    -0.353150457601E+03   -0.99287E-04   -0.98155E-04 10584   0.323E-03-0.142E-04
CGA:  13    -0.353150515969E+03   -0.58369E-04   -0.60376E-04 10584   0.142E-03 0.362E-04
CGA:  14    -0.353150558062E+03   -0.42093E-04   -0.45049E-04 10584   0.131E-03-0.689E-04
CGA:  15    -0.353150572427E+03   -0.14366E-04   -0.13764E-04 10584   0.882E-04-0.149E-04
CGA:  16    -0.353150586468E+03   -0.14041E-04   -0.13633E-04 10584   0.566E-04-0.596E-05
CGA:  17    -0.353150172474E+03    0.41399E-03   -0.22399E-03 10584   0.165E-02-0.380E-03
CGA:  18    -0.353150541783E+03   -0.36931E-03   -0.39941E-03 10584   0.283E-03 0.160E-03
CGA:  19    -0.353150619343E+03   -0.77560E-04   -0.64622E-04 10584   0.923E-04-0.603E-04
CGA:  20    -0.353150625336E+03   -0.59936E-05   -0.12431E-04 10584   0.236E-04 0.267E-04
  15 F= -.35315063E+03 E0= -.35315063E+03  d E =0.846079E-02  mag=    18.0000
       N       E                     dE             d eps       ncg     rms          ort
SDA:   1    -0.330844472327E+03    0.22306E+02    0.00000E+00 10584   0.481E+02 0.000E+00
CGA:   2    -0.346220083404E+03   -0.15376E+02   -0.15380E+02 10584   0.162E+02-0.123E-01
CGA:   3    -0.349987997984E+03   -0.37679E+01   -0.37750E+01 10584   0.432E+01 0.110E-01
CGA:   4    -0.350619928877E+03   -0.63193E+00   -0.47932E+00 10584   0.132E+01 0.126E+01
CGA:   5    -0.350909804573E+03   -0.28988E+00   -0.30240E+00 10584   0.807E+00-0.298E-01
CGA:   6    -0.351011872731E+03   -0.10207E+00   -0.80416E-01 10584   0.324E+00 0.198E+00
CGA:   7    -0.351079481957E+03   -0.67609E-01   -0.67664E-01 10584   0.197E+00 0.420E-03
CGA:   8    -0.351106018749E+03   -0.26537E-01   -0.28583E-01 10584   0.189E+00-0.122E-01
CGA:   9    -0.351126549448E+03   -0.20531E-01   -0.19496E-01 10584   0.651E-01 0.105E-01
CGA:  10    -0.351136393936E+03   -0.98445E-02   -0.98782E-02 10584   0.591E-01 0.168E-02
CGA:  11    -0.351141713095E+03   -0.53192E-02   -0.56503E-02 10584   0.208E-01-0.552E-02
CGA:  12    -0.351145377745E+03   -0.36646E-02   -0.36597E-02 10584   0.103E-01-0.576E-04
CGA:  13    -0.351146489170E+03   -0.11114E-02   -0.11662E-02 10584   0.698E-02 0.734E-03
CGA:  14    -0.351147545727E+03   -0.10566E-02   -0.10103E-02 10584   0.203E-02-0.384E-03
CGA:  15    -0.351147948039E+03   -0.40231E-03   -0.41000E-03 10584   0.885E-03 0.129E-03
CGA:  16    -0.351148161058E+03   -0.21302E-03   -0.21532E-03 10584   0.413E-03 0.548E-04
CGA:  17    -0.351148293624E+03   -0.13257E-03   -0.15255E-03 10584   0.859E-03-0.251E-03
CGA:  18    -0.351148309657E+03   -0.16033E-04   -0.48946E-04 10584   0.197E-03 0.193E-03
CGA:  19    -0.351148333949E+03   -0.24291E-04   -0.33576E-04 10584   0.173E-03 0.765E-04
CGA:  20    -0.351148379700E+03   -0.45751E-04   -0.33575E-04 10584   0.156E-03-0.106E-03
CGA:  21    -0.351148374746E+03    0.49537E-05   -0.64317E-05 10584   0.322E-04 0.568E-04
  16 F= -.35114837E+03 E0= -.35114716E+03  d E =0.200225E+01  mag=    18.0000
       N       E                     dE             d eps       ncg     rms          ort
SDA:   1    -0.349206682828E+03    0.19417E+01    0.00000E+00 10584   0.805E+01 0.000E+00
CGA:   2    -0.351582203843E+03   -0.23755E+01   -0.24537E+01 10584   0.884E+01-0.879E+00
CGA:   3    -0.352057025128E+03   -0.47482E+00   -0.85965E+00 10584   0.245E+01-0.769E+00
CGA:   4    -0.352458445967E+03   -0.40142E+00   -0.39976E+00 10584   0.439E+00-0.363E-02
CGA:   5    -0.352551074363E+03   -0.92628E-01   -0.92665E-01 10584   0.150E+00 0.414E-04
CGA:   6    -0.352579610315E+03   -0.28536E-01   -0.28522E-01 10584   0.503E-01 0.125E-02
CGA:   7    -0.352591785539E+03   -0.12175E-01   -0.12182E-01 10584   0.221E-01-0.470E-03
CGA:   8    -0.352596449519E+03   -0.46640E-02   -0.46675E-02 10584   0.821E-02 0.549E-03
CGA:   9    -0.352598545971E+03   -0.20965E-02   -0.21270E-02 10584   0.453E-02-0.103E-02
CGA:  10    -0.352599239610E+03   -0.69364E-03   -0.71193E-03 10584   0.140E-02 0.430E-03
CGA:  11    -0.352599644245E+03   -0.40463E-03   -0.40601E-03 10584   0.547E-03-0.311E-04
CGA:  12    -0.352599772122E+03   -0.12788E-03   -0.25311E-03 10584   0.102E-02-0.501E-03
CGA:  13    -0.352599858012E+03   -0.85889E-04   -0.11080E-03 10584   0.162E-03 0.210E-03
CGA:  14    -0.352599903635E+03   -0.45623E-04   -0.45625E-04 10584   0.819E-04-0.429E-06
CGA:  15    -0.352599869807E+03    0.33828E-04   -0.46720E-04 10584   0.668E-03-0.234E-03
CGA:  16    -0.352599923269E+03   -0.53462E-04   -0.69427E-04 10584   0.693E-04 0.122E-03
CGA:  17    -0.352599939217E+03   -0.15948E-04   -0.16366E-04 10584   0.361E-04 0.104E-04
CGA:  18    -0.352599935657E+03    0.35604E-05   -0.21058E-04 10584   0.165E-03-0.909E-04
CGA:  19    -0.352599944998E+03   -0.93417E-05   -0.16736E-04 10584   0.301E-04 0.506E-04
  17 F= -.35259994E+03 E0= -.35259986E+03  d E =-.145157E+01  mag=    18.0000
       N       E                     dE             d eps       ncg     rms          ort
SDA:   1    -0.351329097010E+03    0.12708E+01    0.00000E+00 10584   0.417E+01 0.000E+00
CGA:   2    -0.352680446554E+03   -0.13513E+01   -0.13512E+01 10584   0.139E+01 0.113E-02
CGA:   3    -0.353017317912E+03   -0.33687E+00   -0.33687E+00 10584   0.324E+00-0.131E-02
CGA:   4    -0.353077565994E+03   -0.60248E-01   -0.60206E-01 10584   0.105E+00-0.101E-02
CGA:   5    -0.353098105480E+03   -0.20539E-01   -0.20536E-01 10584   0.301E-01-0.759E-04
CGA:   6    -0.353105241479E+03   -0.71360E-02   -0.71359E-02 10584   0.145E-01-0.189E-03
CGA:   7    -0.353108799642E+03   -0.35582E-02   -0.35610E-02 10584   0.540E-02-0.308E-03
CGA:   8    -0.353110246938E+03   -0.14473E-02   -0.14509E-02 10584   0.211E-02-0.100E-03
CGA:   9    -0.353110749044E+03   -0.50211E-03   -0.50183E-03 10584   0.583E-03 0.123E-03
CGA:  10    -0.353110928009E+03   -0.17896E-03   -0.18200E-03 10584   0.214E-03-0.550E-04
CGA:  11    -0.353109671860E+03    0.12561E-02   -0.68011E-03 10584   0.887E-02-0.117E-02
CGA:  12    -0.353110667142E+03   -0.99528E-03   -0.10938E-02 10584   0.116E-02 0.673E-03
CGA:  13    -0.353110928420E+03   -0.26128E-03   -0.27259E-03 10584   0.285E-03 0.537E-04
CGA:  14    -0.353111056545E+03   -0.12812E-03   -0.12956E-03 10584   0.163E-03-0.814E-04
CGA:  15    -0.353111058766E+03   -0.22215E-05   -0.14819E-04 10584   0.748E-04 0.437E-04
CGA:  16    -0.353111060430E+03   -0.16631E-05   -0.11710E-04 10584   0.304E-04 0.360E-04
  18 F= -.35311106E+03 E0= -.35311106E+03  d E =-.511115E+00  mag=    18.0000
       N       E                     dE             d eps       ncg     rms          ort
SDA:   1    -0.352558875803E+03    0.55218E+00    0.00000E+00 10584   0.150E+01 0.000E+00
CGA:   2    -0.353045093570E+03   -0.48622E+00   -0.48630E+00 10584   0.511E+00-0.128E-03
CGA:   3    -0.353168467271E+03   -0.12337E+00   -0.12339E+00 10584   0.121E+00 0.223E-04
CGA:   4    -0.353190282064E+03   -0.21815E-01   -0.21695E-01 10584   0.404E-01-0.963E-03
CGA:   5    -0.353198022753E+03   -0.77407E-02   -0.76993E-02 10584   0.117E-01-0.256E-03
CGA:   6    -0.353200654134E+03   -0.26314E-02   -0.26186E-02 10584   0.543E-02-0.104E-03
CGA:   7    -0.353202051967E+03   -0.13978E-02   -0.13788E-02 10584   0.208E-02-0.215E-03
CGA:   8    -0.353202566131E+03   -0.51416E-03   -0.51676E-03 10584   0.785E-03 0.321E-04
CGA:   9    -0.353202760097E+03   -0.19397E-03   -0.19560E-03 10584   0.255E-03 0.179E-04
CGA:  10    -0.353202826817E+03   -0.66721E-04   -0.66491E-04 10584   0.804E-04-0.279E-05
CGA:  11    -0.353201872842E+03    0.95397E-03   -0.51784E-03 10584   0.602E-02-0.635E-03
CGA:  12    -0.353202618822E+03   -0.74598E-03   -0.84237E-03 10584   0.845E-03 0.407E-03
CGA:  13    -0.353202809430E+03   -0.19061E-03   -0.19945E-03 10584   0.211E-03 0.234E-04
CGA:  14    -0.353202890969E+03   -0.81539E-04   -0.78645E-04 10584   0.707E-04-0.149E-04
CGA:  15    -0.353202901156E+03   -0.10187E-04   -0.15938E-04 10584   0.180E-04 0.189E-04
CGA:  16    -0.353202903429E+03   -0.22732E-05   -0.47395E-05 10584   0.627E-05 0.761E-05
  19 F= -.35320290E+03 E0= -.35320290E+03  d E =-.918430E-01  mag=    18.0000
       N       E                     dE             d eps       ncg     rms          ort
SDA:   1    -0.353181239262E+03    0.21662E-01    0.00000E+00 10584   0.607E-01 0.000E+00
CGA:   2    -0.353200549499E+03   -0.19310E-01   -0.19304E-01 10584   0.205E-01-0.588E-04
CGA:   3    -0.353205303677E+03   -0.47542E-02   -0.47439E-02 10584   0.592E-02-0.820E-04
CGA:   4    -0.353206236874E+03   -0.93320E-03   -0.94656E-03 10584   0.147E-02 0.533E-04
CGA:   5    -0.353206634134E+03   -0.39726E-03   -0.34919E-03 10584   0.584E-03-0.188E-03
CGA:   6    -0.353206764569E+03   -0.13043E-03   -0.11142E-03 10584   0.291E-03-0.735E-04
CGA:   7    -0.353206817320E+03   -0.52751E-04   -0.53714E-04 10584   0.876E-04 0.383E-05
CGA:   8    -0.353206837161E+03   -0.19841E-04   -0.21106E-04 10584   0.355E-04 0.589E-05
CGA:   9    -0.353206840670E+03   -0.35092E-05   -0.64090E-05 10584   0.999E-05 0.106E-04
  20 F= -.35320684E+03 E0= -.35320684E+03  d E =-.393724E-02  mag=    18.0000
       N       E                     dE             d eps       ncg     rms          ort
SDA:   1    -0.353186387481E+03    0.20450E-01    0.00000E+00 10584   0.654E-01 0.000E+00
CGA:   2    -0.353205235174E+03   -0.18848E-01   -0.18845E-01 10584   0.224E-01-0.134E-04
CGA:   3    -0.353210347420E+03   -0.51122E-02   -0.51196E-02 10584   0.697E-02-0.121E-04
CGA:   4    -0.353211408336E+03   -0.10609E-02   -0.11005E-02 10584   0.150E-02 0.187E-03
CGA:   5    -0.353211815668E+03   -0.40733E-03   -0.37908E-03 10584   0.608E-03-0.193E-03
CGA:   6    -0.353211954684E+03   -0.13902E-03   -0.12126E-03 10584   0.350E-03-0.114E-03
CGA:   7    -0.353212011732E+03   -0.57047E-04   -0.57161E-04 10584   0.103E-03 0.622E-06
CGA:   8    -0.353212027255E+03   -0.15523E-04   -0.19686E-04 10584   0.377E-04 0.233E-04
CGA:   9    -0.353212033791E+03   -0.65364E-05   -0.84207E-05 10584   0.125E-04 0.106E-04
  21 F= -.35321203E+03 E0= -.35321203E+03  d E =-.519312E-02  mag=    18.0000
       N       E                     dE             d eps       ncg     rms          ort
SDA:   1    -0.353208346820E+03    0.36804E-02    0.00000E+00 10584   0.154E-01 0.000E+00
CGA:   2    -0.353212450752E+03   -0.41039E-02   -0.41062E-02 10584   0.530E-02 0.307E-04
CGA:   3    -0.353213637691E+03   -0.11869E-02   -0.11816E-02 10584   0.174E-02-0.492E-04
CGA:   4    -0.353213876576E+03   -0.23888E-03   -0.26036E-03 10584   0.300E-03 0.116E-03
CGA:   5    -0.353213967005E+03   -0.90430E-04   -0.86391E-04 10584   0.164E-03-0.659E-04
CGA:   6    -0.353214004743E+03   -0.37738E-04   -0.31823E-04 10584   0.138E-03-0.742E-04
CGA:   7    -0.353214019671E+03   -0.14928E-04   -0.13783E-04 10584   0.536E-04-0.812E-05
CGA:   8    -0.353214022137E+03   -0.24652E-05   -0.58080E-05 10584   0.247E-04 0.166E-04
  22 F= -.35321402E+03 E0= -.35321402E+03  d E =-.198835E-02  mag=    18.0000
       N       E                     dE             d eps       ncg     rms          ort
SDA:   1    -0.353094529219E+03    0.11949E+00    0.00000E+00 10584   0.334E+00 0.000E+00
CGA:   2    -0.353189636387E+03   -0.95107E-01   -0.95103E-01 10584   0.115E+00-0.339E-03
CGA:   3    -0.353214610179E+03   -0.24974E-01   -0.24986E-01 10584   0.326E-01-0.126E-03
CGA:   4    -0.353219495799E+03   -0.48856E-02   -0.49352E-02 10584   0.692E-02 0.402E-03
CGA:   5    -0.353220951250E+03   -0.14555E-02   -0.14345E-02 10584   0.219E-02-0.260E-03
CGA:   6    -0.353221415870E+03   -0.46462E-03   -0.44518E-03 10584   0.976E-03-0.275E-03
CGA:   7    -0.353221608681E+03   -0.19281E-03   -0.19190E-03 10584   0.339E-03-0.170E-04
CGA:   8    -0.353221700388E+03   -0.91707E-04   -0.91707E-04 10584   0.151E-03-0.644E-06
CGA:   9    -0.353221744480E+03   -0.44092E-04   -0.44432E-04 10584   0.685E-04-0.177E-04
CGA:  10    -0.353221764089E+03   -0.19609E-04   -0.24106E-04 10584   0.555E-04-0.369E-04
CGA:  11    -0.353221773270E+03   -0.91810E-05   -0.94919E-05 10584   0.694E-05 0.278E-05
  23 F= -.35322177E+03 E0= -.35322177E+03  d E =-.775113E-02  mag=    18.0000
       N       E                     dE             d eps       ncg     rms          ort
SDA:   1    -0.353143652622E+03    0.78111E-01    0.00000E+00 10584   0.211E+00 0.000E+00
CGA:   2    -0.353208925853E+03   -0.65273E-01   -0.65288E-01 10584   0.709E-01-0.468E-03
CGA:   3    -0.353223451833E+03   -0.14526E-01   -0.14500E-01 10584   0.191E-01-0.433E-03
CGA:   4    -0.353226428640E+03   -0.29768E-02   -0.29927E-02 10584   0.407E-02 0.141E-03
CGA:   5    -0.353227225658E+03   -0.79702E-03   -0.79861E-03 10584   0.113E-02 0.210E-04
CGA:   6    -0.353227454959E+03   -0.22930E-03   -0.22851E-03 10584   0.396E-03-0.128E-04
CGA:   7    -0.353227544707E+03   -0.89748E-04   -0.90301E-04 10584   0.145E-03 0.180E-04
CGA:   8    -0.353227596209E+03   -0.51501E-04   -0.56595E-04 10584   0.123E-03-0.445E-04
CGA:   9    -0.353227611341E+03   -0.15132E-04   -0.15983E-04 10584   0.460E-04 0.110E-04
CGA:  10    -0.353227619358E+03   -0.80176E-05   -0.85992E-05 10584   0.160E-04 0.643E-05
  24 F= -.35322762E+03 E0= -.35322762E+03  d E =-.584609E-02  mag=    18.0000
       N       E                     dE             d eps       ncg     rms          ort
SDA:   1    -0.352624829892E+03    0.60278E+00    0.00000E+00 10584   0.145E+01 0.000E+00
CGA:   2    -0.353123099803E+03   -0.49827E+00   -0.49833E+00 10584   0.454E+00-0.856E-03
CGA:   3    -0.353210772144E+03   -0.87672E-01   -0.87670E-01 10584   0.115E+00-0.545E-03
CGA:   4    -0.353229405468E+03   -0.18633E-01   -0.18636E-01 10584   0.255E-01 0.133E-04
CGA:   5    -0.353234199547E+03   -0.47941E-02   -0.48029E-02 10584   0.708E-02 0.120E-03
CGA:   6    -0.353235605682E+03   -0.14061E-02   -0.14092E-02 10584   0.214E-02 0.503E-04
CGA:   7    -0.353236147417E+03   -0.54173E-03   -0.54174E-03 10584   0.847E-03 0.365E-05
CGA:   8    -0.353236406148E+03   -0.25873E-03   -0.26308E-03 10584   0.448E-03-0.764E-04
CGA:   9    -0.353236514459E+03   -0.10831E-03   -0.10827E-03 10584   0.143E-03 0.421E-05
CGA:  10    -0.353236555941E+03   -0.41482E-04   -0.41822E-04 10584   0.436E-04-0.105E-04
CGA:  11    -0.353236568019E+03   -0.12079E-04   -0.12599E-04 10584   0.170E-04-0.971E-05
CGA:  12    -0.353236576366E+03   -0.83464E-05    0.82266E-05 10584   0.626E-05-0.148E-05
  25 F= -.35323658E+03 E0= -.35323658E+03  d E =-.895701E-02  mag=    18.0000
       N       E                     dE             d eps       ncg     rms          ort
SDA:   1    -0.352523467197E+03    0.71310E+00    0.00000E+00 10584   0.168E+01 0.000E+00
CGA:   2    -0.353102229374E+03   -0.57876E+00   -0.57851E+00 10584   0.560E+00 0.260E-02
CGA:   3    -0.353205477401E+03   -0.10325E+00   -0.10326E+00 10584   0.140E+00-0.347E-03
CGA:   4    -0.353228618925E+03   -0.23142E-01   -0.23087E-01 10584   0.309E-01-0.613E-03
CGA:   5    -0.353234544360E+03   -0.59254E-02   -0.59096E-02 10584   0.897E-02-0.266E-03
CGA:   6    -0.353236286207E+03   -0.17418E-02   -0.17402E-02 10584   0.267E-02-0.325E-04
CGA:   7    -0.353236943322E+03   -0.65711E-03   -0.65712E-03 10584   0.103E-02 0.271E-04
CGA:   8    -0.353237251123E+03   -0.30780E-03   -0.31085E-03 10584   0.501E-03-0.587E-04
CGA:   9    -0.353237395078E+03   -0.14396E-03   -0.14706E-03 10584   0.194E-03-0.508E-04
CGA:  10    -0.353237443402E+03   -0.48324E-04   -0.48737E-04 10584   0.520E-04-0.152E-04
CGA:  11    -0.353237458661E+03   -0.15258E-04   -0.17515E-04 10584   0.269E-04-0.202E-04
CGA:  12    -0.353237468766E+03   -0.10105E-04    0.11639E-04 10584   0.103E-04-0.173E-05
CGA:  13    -0.353237470812E+03   -0.20466E-05   -0.21041E-05 10584   0.392E-05 0.138E-05
  26 F= -.35323747E+03 E0= -.35323747E+03  d E =-.894447E-03  mag=    18.0000
       N       E                     dE             d eps       ncg     rms          ort
SDA:   1    -0.352050510833E+03    0.11870E+01    0.00000E+00 10584   0.291E+01 0.000E+00
CGA:   2    -0.352960648553E+03   -0.91014E+00   -0.90983E+00 10584   0.112E+01 0.491E-02
CGA:   3    -0.353167779832E+03   -0.20713E+00   -0.20721E+00 10584   0.285E+00 0.161E-03
CGA:   4    -0.353214394929E+03   -0.46615E-01   -0.46531E-01 10584   0.596E-01-0.971E-03
CGA:   5    -0.353225718089E+03   -0.11323E-01   -0.11321E-01 10584   0.174E-01-0.402E-04
CGA:   6    -0.353229085661E+03   -0.33676E-02   -0.33832E-02 10584   0.495E-02 0.270E-03
CGA:   7    -0.353230320536E+03   -0.12349E-02   -0.12352E-02 10584   0.192E-02 0.163E-03
CGA:   8    -0.353230884122E+03   -0.56359E-03   -0.56278E-03 10584   0.874E-03 0.213E-04
CGA:   9    -0.353231150376E+03   -0.26625E-03   -0.26621E-03 10584   0.325E-03 0.612E-06
CGA:  10    -0.353231234331E+03   -0.83955E-04   -0.83794E-04 10584   0.848E-04 0.286E-04
CGA:  11    -0.353231259167E+03   -0.24836E-04   -0.24746E-04 10584   0.231E-04 0.563E-05
CGA:  12    -0.353231267828E+03   -0.86609E-05   -0.90697E-05 10584   0.110E-04-0.354E-05
  27 F= -.35323127E+03 E0= -.35323127E+03  d E =0.620298E-02  mag=    18.0000
       N       E                     dE             d eps       ncg     rms          ort
SDA:   1    -0.352280400164E+03    0.95086E+00    0.00000E+00 10584   0.231E+01 0.000E+00
CGA:   2    -0.353007627324E+03   -0.72723E+00   -0.72709E+00 10584   0.999E+00 0.224E-02
CGA:   3    -0.353176829882E+03   -0.16920E+00   -0.16932E+00 10584   0.235E+00 0.657E-03
CGA:   4    -0.353217057681E+03   -0.40228E-01   -0.40157E-01 10584   0.514E-01-0.824E-03
CGA:   5    -0.353226376460E+03   -0.93188E-02   -0.93260E-02 10584   0.146E-01 0.838E-04
CGA:   6    -0.353229197970E+03   -0.28215E-02   -0.28469E-02 10584   0.393E-02 0.411E-03
CGA:   7    -0.353230161383E+03   -0.96341E-03   -0.96568E-03 10584   0.148E-02 0.170E-03
CGA:   8    -0.353230604489E+03   -0.44311E-03   -0.44344E-03 10584   0.680E-03-0.967E-05
CGA:   9    -0.353230807999E+03   -0.20351E-03   -0.20406E-03 10584   0.263E-03-0.116E-04
CGA:  10    -0.353230871038E+03   -0.63039E-04   -0.63345E-04 10584   0.681E-04 0.286E-04
CGA:  11    -0.353230894350E+03   -0.23312E-04   -0.23977E-04 10584   0.261E-04-0.107E-04
CGA:  12    -0.353230901195E+03   -0.68442E-05   -0.72330E-05 10584   0.125E-04-0.555E-05
  28 F= -.35323090E+03 E0= -.35323090E+03  d E =0.366634E-03  mag=    18.0000
       N       E                     dE             d eps       ncg     rms          ort
SDA:   1    -0.352670109588E+03    0.56078E+00    0.00000E+00 10584   0.130E+01 0.000E+00
CGA:   2    -0.353128431513E+03   -0.45832E+00   -0.45834E+00 10584   0.457E+00-0.388E-03
CGA:   3    -0.353208438801E+03   -0.80007E-01   -0.80107E-01 10584   0.112E+00 0.718E-03
CGA:   4    -0.353227282043E+03   -0.18843E-01   -0.18833E-01 10584   0.251E-01-0.142E-03
CGA:   5    -0.353232084283E+03   -0.48022E-02   -0.47826E-02 10584   0.760E-02-0.302E-03
CGA:   6    -0.353233568259E+03   -0.14840E-02   -0.14798E-02 10584   0.228E-02-0.759E-04
CGA:   7    -0.353234122338E+03   -0.55408E-03   -0.55419E-03 10584   0.879E-03 0.200E-04
CGA:   8    -0.353234380721E+03   -0.25838E-03   -0.26034E-03 10584   0.419E-03-0.460E-04
CGA:   9    -0.353234502053E+03   -0.12133E-03   -0.12408E-03 10584   0.168E-03-0.462E-04
CGA:  10    -0.353234547054E+03   -0.45001E-04   -0.46997E-04 10584   0.572E-04-0.339E-04
CGA:  11    -0.353234554092E+03   -0.70385E-05   -0.25779E-04 10584   0.107E-03-0.613E-04
CGA:  12    -0.353234574704E+03   -0.20611E-04   -0.20620E-04 10584   0.125E-04 0.795E-07
CGA:  13    -0.353234577612E+03   -0.29082E-05   -0.29958E-05 10584   0.354E-05 0.291E-05
  29 F= -.35323458E+03 E0= -.35323458E+03  d E =-.367642E-02  mag=    18.0000
       N       E                     dE             d eps       ncg     rms          ort
SDA:   1    -0.352842790032E+03    0.39178E+00    0.00000E+00 10584   0.915E+00 0.000E+00
CGA:   2    -0.353167785367E+03   -0.32500E+00   -0.32501E+00 10584   0.293E+00-0.364E-03
CGA:   3    -0.353221623171E+03   -0.53838E-01   -0.53904E-01 10584   0.722E-01 0.640E-03
CGA:   4    -0.353233766138E+03   -0.12143E-01   -0.12128E-01 10584   0.166E-01-0.185E-03
CGA:   5    -0.353236981388E+03   -0.32152E-02   -0.32001E-02 10584   0.483E-02-0.219E-03
CGA:   6    -0.353237935263E+03   -0.95388E-03   -0.94943E-03 10584   0.153E-02-0.741E-04
CGA:   7    -0.353238305045E+03   -0.36978E-03   -0.36953E-03 10584   0.604E-03-0.219E-04
CGA:   8    -0.353238465715E+03   -0.16067E-03   -0.16057E-03 10584   0.253E-03 0.715E-05
CGA:   9    -0.353238541820E+03   -0.76105E-04   -0.76545E-04 10584   0.950E-04-0.105E-04
CGA:  10    -0.353238567839E+03   -0.26019E-04   -0.26187E-04 10584   0.271E-04-0.595E-05
CGA:  11    -0.353238575766E+03   -0.79275E-05   -0.10916E-04 10584   0.241E-04-0.177E-04
  30 F= -.35323858E+03 E0= -.35323858E+03  d E =-.399815E-02  mag=    18.0000
       N       E                     dE             d eps       ncg     rms          ort
SDA:   1    -0.352911360168E+03    0.32721E+00    0.00000E+00 10584   0.773E+00 0.000E+00
CGA:   2    -0.353182566592E+03   -0.27121E+00   -0.27118E+00 10584   0.233E+00 0.267E-03
CGA:   3    -0.353227271047E+03   -0.44704E-01   -0.44725E-01 10584   0.559E-01 0.277E-03
CGA:   4    -0.353236805610E+03   -0.95346E-02   -0.95216E-02 10584   0.138E-01-0.175E-03
CGA:   5    -0.353239393824E+03   -0.25882E-02   -0.25998E-02 10584   0.357E-02 0.165E-03
CGA:   6    -0.353240108492E+03   -0.71467E-03   -0.72040E-03 10584   0.116E-02 0.103E-03
CGA:   7    -0.353240407072E+03   -0.29858E-03   -0.29858E-03 10584   0.471E-03-0.310E-05
CGA:   8    -0.353240528626E+03   -0.12155E-03   -0.12131E-03 10584   0.190E-03 0.383E-04
CGA:   9    -0.353240583641E+03   -0.55015E-04   -0.54757E-04 10584   0.646E-04 0.177E-04
CGA:  10    -0.353240598496E+03   -0.14855E-04   -0.15447E-04 10584   0.175E-04 0.172E-04
CGA:  11    -0.353240604439E+03   -0.59429E-05   -0.59171E-05 10584   0.561E-05 0.169E-05
  31 F= -.35324060E+03 E0= -.35324060E+03  d E =-.202867E-02  mag=    18.0000
       N       E                     dE             d eps       ncg     rms          ort
SDA:   1    -0.349996580803E+03    0.32440E+01    0.00000E+00 10584   0.753E+01 0.000E+00
CGA:   2    -0.352696951675E+03   -0.27004E+01   -0.27010E+01 10584   0.222E+01-0.562E-02
CGA:   3    -0.353119672679E+03   -0.42272E+00   -0.42274E+00 10584   0.520E+00 0.851E-03
CGA:   4    -0.353207121728E+03   -0.87449E-01   -0.87458E-01 10584   0.127E+00-0.548E-03
CGA:   5    -0.353231188399E+03   -0.24067E-01   -0.24087E-01 10584   0.337E-01 0.391E-03
CGA:   6    -0.353237882258E+03   -0.66939E-02   -0.67082E-02 10584   0.107E-01 0.331E-03
CGA:   7    -0.353240561874E+03   -0.26796E-02   -0.26805E-02 10584   0.436E-02-0.101E-03
CGA:   8    -0.353241766723E+03   -0.12048E-02   -0.12054E-02 10584   0.200E-02-0.132E-04
CGA:   9    -0.353242314324E+03   -0.54760E-03   -0.54741E-03 10584   0.722E-03 0.558E-05
CGA:  10    -0.353242484865E+03   -0.17054E-03   -0.17097E-03 10584   0.195E-03 0.661E-04
CGA:  11    -0.353242549452E+03   -0.64587E-04   -0.87190E-04 10584   0.211E-03-0.136E-03
CGA:  12    -0.353242564766E+03   -0.15315E-04   -0.23775E-04 10584   0.338E-04 0.618E-04
CGA:  13    -0.353242569016E+03   -0.42492E-05   -0.58438E-05 10584   0.106E-04 0.145E-04
CGA:  14    -0.353242470055E+03    0.98960E-04   -0.53412E-04 10584   0.588E-03-0.945E-04
CGA:  15    -0.353242544441E+03   -0.74386E-04   -0.88685E-04 10584   0.112E-03 0.571E-04
CGA:  16    -0.353242584906E+03   -0.40465E-04   -0.36630E-04 10584   0.197E-04-0.313E-04
CGA:  17    -0.353242583938E+03    0.96889E-06   -0.16430E-05 10584   0.901E-05 0.876E-05
  32 F= -.35324258E+03 E0= -.35324258E+03  d E =-.197950E-02  mag=    18.0000
       N       E                     dE             d eps       ncg     rms          ort
SDA:   1    -0.343091538610E+03    0.10151E+02    0.00000E+00 10584   0.234E+02 0.000E+00
CGA:   2    -0.351422275419E+03   -0.83307E+01   -0.83307E+01 10584   0.741E+01-0.102E-01
CGA:   3    -0.352792868990E+03   -0.13706E+01   -0.13715E+01 10584   0.174E+01 0.989E-02
CGA:   4    -0.353086775342E+03   -0.29391E+00   -0.29444E+00 10584   0.417E+00 0.201E-03
CGA:   5    -0.353167579126E+03   -0.80804E-01   -0.80793E-01 10584   0.121E+00-0.150E-04
CGA:   6    -0.353191699874E+03   -0.24121E-01   -0.24144E-01 10584   0.394E-01 0.109E-03
CGA:   7    -0.353201651582E+03   -0.99517E-02   -0.99369E-02 10584   0.161E-01-0.170E-03
CGA:   8    -0.353206193659E+03   -0.45421E-02   -0.45308E-02 10584   0.722E-02-0.190E-03
CGA:   9    -0.353208169849E+03   -0.19762E-02   -0.19802E-02 10584   0.237E-02 0.638E-04
CGA:  10    -0.353208831864E+03   -0.66202E-03   -0.66099E-03 10584   0.636E-03-0.177E-04
CGA:  11    -0.353209043121E+03   -0.21126E-03   -0.21176E-03 10584   0.253E-03-0.170E-03
CGA:  12    -0.353209081651E+03   -0.38531E-04   -0.41202E-04 10584   0.708E-04 0.242E-04
CGA:  13    -0.353209099908E+03   -0.18257E-04   -0.18777E-04 10584   0.266E-04 0.606E-05
CGA:  14    -0.353208884293E+03    0.21561E-03   -0.11612E-03 10584   0.909E-03-0.158E-03
CGA:  15    -0.353209077555E+03   -0.19326E-03   -0.21800E-03 10584   0.112E-03 0.706E-04
CGA:  16    -0.353209138251E+03   -0.60695E-04   -0.56102E-04 10584   0.550E-04-0.428E-04
CGA:  17    -0.353209135337E+03    0.29133E-05   -0.39697E-05 10584   0.278E-04 0.154E-04
  33 F= -.35320914E+03 E0= -.35320914E+03  d E =0.334486E-01  mag=    18.0000
       N       E                     dE             d eps       ncg     rms          ort
SDA:   1    -0.350992493243E+03    0.22166E+01    0.00000E+00 10584   0.521E+01 0.000E+00
CGA:   2    -0.352840175127E+03   -0.18477E+01   -0.18479E+01 10584   0.166E+01-0.322E-03
CGA:   3    -0.353161393884E+03   -0.32122E+00   -0.32190E+00 10584   0.391E+00-0.824E-03
CGA:   4    -0.353226030556E+03   -0.64637E-01   -0.64729E-01 10584   0.976E-01 0.476E-03
CGA:   5    -0.353244987126E+03   -0.18957E-01   -0.18897E-01 10584   0.284E-01-0.215E-03
CGA:   6    -0.353250709840E+03   -0.57227E-02   -0.56720E-02 10584   0.976E-02-0.199E-03
CGA:   7    -0.353253105384E+03   -0.23955E-02   -0.23947E-02 10584   0.377E-02-0.461E-05
CGA:   8    -0.353254161800E+03   -0.10564E-02   -0.10518E-02 10584   0.168E-02-0.286E-04
CGA:   9    -0.353254636394E+03   -0.47459E-03   -0.46928E-03 10584   0.579E-03-0.346E-04
CGA:  10    -0.353254804439E+03   -0.16804E-03   -0.16300E-03 10584   0.171E-03-0.361E-04
CGA:  11    -0.353254837697E+03   -0.33259E-04   -0.36175E-04 10584   0.404E-04 0.150E-04
CGA:  12    -0.353254853784E+03   -0.16086E-04   -0.15321E-04 10584   0.234E-04-0.124E-04
CGA:  13    -0.353254854806E+03   -0.10221E-05   -0.24218E-05 10584   0.104E-04 0.543E-05
  34 F= -.35325485E+03 E0= -.35325485E+03  d E =-.457195E-01  mag=    18.0000
       N       E                     dE             d eps       ncg     rms          ort
SDA:   1    -0.353200084947E+03    0.54769E-01    0.00000E+00 10584   0.135E+00 0.000E+00
CGA:   2    -0.353240025677E+03   -0.39941E-01   -0.39971E-01 10584   0.593E-01 0.312E-03
CGA:   3    -0.353251100293E+03   -0.11075E-01   -0.11127E-01 10584   0.176E-01 0.259E-03
CGA:   4    -0.353254214237E+03   -0.31139E-02   -0.31118E-02 10584   0.406E-02-0.181E-04
CGA:   5    -0.353254965460E+03   -0.75122E-03   -0.75989E-03 10584   0.130E-02 0.497E-04
CGA:   6    -0.353255227515E+03   -0.26206E-03   -0.27004E-03 10584   0.447E-03 0.549E-04
CGA:   7    -0.353255346857E+03   -0.11934E-03   -0.12132E-03 10584   0.187E-03 0.238E-04
CGA:   8    -0.353255393095E+03   -0.46237E-04   -0.48060E-04 10584   0.683E-04 0.192E-04
CGA:   9    -0.353255415525E+03   -0.22431E-04   -0.22428E-04 10584   0.268E-04-0.113E-06
CGA:  10    -0.353255417741E+03   -0.22155E-05   -0.41845E-05 10584   0.875E-05 0.112E-04
  35 F= -.35325542E+03 E0= -.35325542E+03  d E =-.562935E-03  mag=    18.0000
       N       E                     dE             d eps       ncg     rms          ort
SDA:   1    -0.353222323146E+03    0.33092E-01    0.00000E+00 10584   0.784E-01 0.000E+00
CGA:   2    -0.353250089192E+03   -0.27766E-01   -0.27776E-01 10584   0.265E-01-0.241E-03
CGA:   3    -0.353255046016E+03   -0.49568E-02   -0.49428E-02 10584   0.645E-02-0.126E-03
CGA:   4    -0.353256102984E+03   -0.10570E-02   -0.10635E-02 10584   0.147E-02 0.444E-04
CGA:   5    -0.353256403821E+03   -0.30084E-03   -0.29875E-03 10584   0.444E-03-0.214E-04
CGA:   6    -0.353256492902E+03   -0.89081E-04   -0.88605E-04 10584   0.150E-03-0.522E-05
CGA:   7    -0.353256528543E+03   -0.35641E-04   -0.35736E-04 10584   0.574E-04 0.188E-05
CGA:   8    -0.353256547867E+03   -0.19324E-04   -0.20267E-04 10584   0.420E-04-0.158E-04
CGA:   9    -0.353256552801E+03   -0.49336E-05   -0.55321E-05 10584   0.140E-04 0.544E-05
  36 F= -.35325655E+03 E0= -.35325655E+03  d E =-.113506E-02  mag=    18.0000
       N       E                     dE             d eps       ncg     rms          ort
SDA:   1    -0.353242478984E+03    0.14069E-01    0.00000E+00 10584   0.361E-01 0.000E+00
CGA:   2    -0.353253701182E+03   -0.11222E-01   -0.11223E-01 10584   0.149E-01-0.439E-04
CGA:   3    -0.353256280543E+03   -0.25794E-02   -0.25781E-02 10584   0.375E-02-0.232E-04
CGA:   4    -0.353256904484E+03   -0.62394E-03   -0.62909E-03 10584   0.789E-03 0.464E-04
CGA:   5    -0.353257053651E+03   -0.14917E-03   -0.14796E-03 10584   0.229E-03-0.142E-04
CGA:   6    -0.353257101091E+03   -0.47440E-04   -0.46639E-04 10584   0.736E-04-0.132E-04
CGA:   7    -0.353257112843E+03   -0.11752E-04   -0.12785E-04 10584   0.213E-04 0.128E-04
CGA:   8    -0.353257118281E+03   -0.54384E-05   -0.56137E-05 10584   0.889E-05 0.488E-05
  37 F= -.35325712E+03 E0= -.35325712E+03  d E =-.565481E-03  mag=    18.0000
       N       E                     dE             d eps       ncg     rms          ort
SDA:   1    -0.352753961509E+03    0.50315E+00    0.00000E+00 10584   0.121E+01 0.000E+00
CGA:   2    -0.353144628378E+03   -0.39067E+00   -0.39069E+00 10584   0.513E+00-0.703E-03
CGA:   3    -0.353231591604E+03   -0.86963E-01   -0.87027E-01 10584   0.119E+00 0.118E-03
CGA:   4    -0.353251962517E+03   -0.20371E-01   -0.20368E-01 10584   0.247E-01-0.558E-04
CGA:   5    -0.353256612771E+03   -0.46503E-02   -0.46434E-02 10584   0.715E-02-0.928E-04
CGA:   6    -0.353258024246E+03   -0.14115E-02   -0.14143E-02 10584   0.200E-02 0.401E-04
CGA:   7    -0.353258481109E+03   -0.45686E-03   -0.46042E-03 10584   0.696E-03 0.105E-03
CGA:   8    -0.353258689984E+03   -0.20888E-03   -0.20887E-03 10584   0.322E-03 0.242E-06
CGA:   9    -0.353258796766E+03   -0.10678E-03   -0.11126E-03 10584   0.158E-03-0.535E-04
CGA:  10    -0.353258827987E+03   -0.31221E-04   -0.31418E-04 10584   0.415E-04 0.702E-05
CGA:  11    -0.353258838075E+03   -0.10088E-04   -0.10188E-04 10584   0.109E-04 0.344E-05
CGA:  12    -0.353258770462E+03    0.67613E-04   -0.36411E-04 10584   0.318E-03-0.603E-04
CGA:  13    -0.353258829282E+03   -0.58820E-04   -0.66104E-04 10584   0.384E-04 0.267E-04
CGA:  14    -0.353258849780E+03   -0.20498E-04   -0.22068E-04 10584   0.268E-04-0.245E-04
CGA:  15    -0.353258849373E+03    0.40787E-06   -0.36576E-05 10584   0.649E-05 0.122E-04
  38 F= -.35325885E+03 E0= -.35325885E+03  d E =-.173109E-02  mag=    18.0000
       N       E                     dE             d eps       ncg     rms          ort
SDA:   1    -0.349344310124E+03    0.39145E+01    0.00000E+00 10584   0.917E+01 0.000E+00
CGA:   2    -0.352534153112E+03   -0.31898E+01   -0.31900E+01 10584   0.308E+01-0.146E-03
CGA:   3    -0.353078289166E+03   -0.54414E+00   -0.54553E+00 10584   0.744E+00-0.125E-02
CGA:   4    -0.353203404828E+03   -0.12512E+00   -0.12509E+00 10584   0.169E+00 0.196E-03
CGA:   5    -0.353235475699E+03   -0.32071E-01   -0.32064E-01 10584   0.483E-01-0.578E-04
CGA:   6    -0.353244890674E+03   -0.94150E-02   -0.94535E-02 10584   0.139E-01 0.173E-03
CGA:   7    -0.353248292445E+03   -0.34018E-02   -0.34298E-02 10584   0.530E-02 0.197E-03
CGA:   8    -0.353249836835E+03   -0.15444E-02   -0.15401E-02 10584   0.241E-02-0.491E-04
CGA:   9    -0.353250533964E+03   -0.69713E-03   -0.69590E-03 10584   0.849E-03-0.157E-04
CGA:  10    -0.353250752321E+03   -0.21836E-03   -0.22268E-03 10584   0.219E-03 0.406E-04
CGA:  11    -0.353250808660E+03   -0.56339E-04   -0.58019E-04 10584   0.527E-04 0.150E-04
CGA:  12    -0.353250827236E+03   -0.18576E-04   -0.18385E-04 10584   0.222E-04-0.602E-05
CGA:  13    -0.353250826974E+03    0.26233E-06   -0.23117E-05 10584   0.100E-04 0.107E-04
  39 F= -.35325083E+03 E0= -.35325083E+03  d E =0.802240E-02  mag=    18.0000
       N       E                     dE             d eps       ncg     rms          ort
SDA:   1    -0.352804662253E+03    0.44616E+00    0.00000E+00 10584   0.111E+01 0.000E+00
CGA:   2    -0.353148167826E+03   -0.34351E+00   -0.34352E+00 10584   0.456E+00-0.123E-04
CGA:   3    -0.353229481992E+03   -0.81314E-01   -0.81341E-01 10584   0.120E+00-0.113E-03
CGA:   4    -0.353249734628E+03   -0.20253E-01   -0.20216E-01 10584   0.265E-01-0.264E-03
CGA:   5    -0.353254790431E+03   -0.50558E-02   -0.50138E-02 10584   0.811E-02-0.339E-03
CGA:   6    -0.353256448811E+03   -0.16584E-02   -0.16345E-02 10584   0.256E-02-0.228E-03
CGA:   7    -0.353257090478E+03   -0.64167E-03   -0.63519E-03 10584   0.104E-02-0.132E-03
CGA:   8    -0.353257357611E+03   -0.26713E-03   -0.26575E-03 10584   0.430E-03-0.427E-04
CGA:   9    -0.353257478794E+03   -0.12118E-03   -0.12102E-03 10584   0.149E-03-0.249E-04
CGA:  10    -0.353257528440E+03   -0.49646E-04   -0.56733E-04 10584   0.102E-03-0.689E-04
CGA:  11    -0.353257545775E+03   -0.17335E-04   -0.18210E-04 10584   0.473E-04-0.356E-04
CGA:  12    -0.353257556417E+03   -0.10642E-04   -0.13724E-04 10584   0.367E-04-0.223E-04
CGA:  13    -0.353257532830E+03    0.23587E-04   -0.21565E-04 10584   0.193E-03-0.565E-04
CGA:  14    -0.353257575528E+03   -0.42697E-04   -0.43739E-04 10584   0.263E-04 0.820E-05
CGA:  15    -0.353257578584E+03   -0.30565E-05   -0.46709E-05 10584   0.759E-05 0.919E-05
  40 F= -.35325758E+03 E0= -.35325758E+03  d E =-.675161E-02  mag=    18.0000
       N       E                     dE             d eps       ncg     rms          ort
SDA:   1    -0.352783806254E+03    0.47377E+00    0.00000E+00 10584   0.111E+01 0.000E+00
CGA:   2    -0.353175010501E+03   -0.39120E+00   -0.39121E+00 10584   0.357E+00-0.707E-03
CGA:   3    -0.353240607673E+03   -0.65597E-01   -0.65545E-01 10584   0.886E-01-0.192E-03
CGA:   4    -0.353255311986E+03   -0.14704E-01   -0.14761E-01 10584   0.207E-01 0.312E-03
CGA:   5    -0.353259229635E+03   -0.39176E-02   -0.39446E-02 10584   0.583E-02 0.202E-03
CGA:   6    -0.353260420383E+03   -0.11907E-02   -0.11891E-02 10584   0.187E-02-0.157E-04
CGA:   7    -0.353260913656E+03   -0.49327E-03   -0.48905E-03 10584   0.787E-03-0.907E-04
CGA:   8    -0.353261112855E+03   -0.19920E-03   -0.19967E-03 10584   0.315E-03 0.115E-04
CGA:   9    -0.353261200038E+03   -0.87184E-04   -0.87560E-04 10584   0.101E-03 0.121E-04
CGA:  10    -0.353261233038E+03   -0.32999E-04   -0.33157E-04 10584   0.357E-04-0.118E-04
CGA:  11    -0.353261243309E+03   -0.10271E-04   -0.10643E-04 10584   0.160E-04-0.112E-04
CGA:  12    -0.353261243965E+03   -0.65535E-06   -0.14584E-05 10584   0.649E-05 0.464E-05
  41 F= -.35326124E+03 E0= -.35326124E+03  d E =-.366538E-02  mag=    18.0000
       N       E                     dE             d eps       ncg     rms          ort
SDA:   1    -0.353233773336E+03    0.27470E-01    0.00000E+00 10584   0.653E-01 0.000E+00
CGA:   2    -0.353255010082E+03   -0.21237E-01   -0.21225E-01 10584   0.235E-01 0.318E-03
CGA:   3    -0.353259671509E+03   -0.46614E-02   -0.46279E-02 10584   0.691E-02-0.370E-03
CGA:   4    -0.353260803701E+03   -0.11322E-02   -0.11261E-02 10584   0.158E-02-0.523E-04
CGA:   5    -0.353261080966E+03   -0.27726E-03   -0.28675E-03 10584   0.445E-03 0.976E-04
CGA:   6    -0.353261158198E+03   -0.77232E-04   -0.84623E-04 10584   0.135E-03 0.774E-04
CGA:   7    -0.353261189744E+03   -0.31546E-04   -0.33821E-04 10584   0.534E-04 0.400E-04
CGA:   8    -0.353261209509E+03   -0.19765E-04   -0.19734E-04 10584   0.317E-04 0.171E-05
CGA:   9    -0.353261217832E+03   -0.83231E-05   -0.83413E-05 10584   0.117E-04 0.139E-05
  42 F= -.35326122E+03 E0= -.35326122E+03  d E =0.261328E-04  mag=    18.0000
       N       E                     dE             d eps       ncg     rms          ort
SDA:   1    -0.353257447302E+03    0.37622E-02    0.00000E+00 10584   0.945E-02 0.000E+00
CGA:   2    -0.353260301458E+03   -0.28542E-02   -0.28483E-02 10584   0.333E-02 0.138E-03
CGA:   3    -0.353261024166E+03   -0.72271E-03   -0.72615E-03 10584   0.102E-02 0.729E-04
CGA:   4    -0.353261203616E+03   -0.17945E-03   -0.17693E-03 10584   0.262E-03-0.286E-04
CGA:   5    -0.353261265886E+03   -0.62271E-04   -0.61523E-04 10584   0.124E-03-0.552E-04
CGA:   6    -0.353261288380E+03   -0.22493E-04   -0.21585E-04 10584   0.567E-04-0.264E-04
CGA:   7    -0.353261297917E+03   -0.95377E-05   -0.95473E-05 10584   0.169E-04 0.246E-06
  43 F= -.35326130E+03 E0= -.35326130E+03  d E =-.800857E-04  mag=    18.0000
       N       E                     dE             d eps       ncg     rms          ort
SDA:   1    -0.353250310423E+03    0.10978E-01    0.00000E+00 10584   0.253E-01 0.000E+00
CGA:   2    -0.353258167944E+03   -0.78575E-02   -0.78302E-02 10584   0.111E-01 0.429E-03
CGA:   3    -0.353260123237E+03   -0.19553E-02   -0.19548E-02 10584   0.278E-02-0.145E-04
CGA:   4    -0.353260606227E+03   -0.48299E-03   -0.47559E-03 10584   0.658E-03-0.995E-04
CGA:   5    -0.353260732918E+03   -0.12669E-03   -0.12344E-03 10584   0.226E-03-0.688E-04
CGA:   6    -0.353260775676E+03   -0.42758E-04   -0.42037E-04 10584   0.687E-04-0.227E-04
CGA:   7    -0.353260786235E+03   -0.10559E-04   -0.11245E-04 10584   0.192E-04 0.122E-04
CGA:   8    -0.353260790511E+03   -0.42758E-05   -0.44918E-05 10584   0.760E-05 0.595E-05
  44 F= -.35326079E+03 E0= -.35326079E+03  d E =0.507406E-03  mag=    18.0000
       N       E                     dE             d eps       ncg     rms          ort
SDA:   1    -0.353232972534E+03    0.27814E-01    0.00000E+00 10584   0.663E-01 0.000E+00
CGA:   2    -0.353253829563E+03   -0.20857E-01   -0.20849E-01 10584   0.307E-01 0.115E-03
CGA:   3    -0.353258857464E+03   -0.50279E-02   -0.50387E-02 10584   0.689E-02 0.103E-03
CGA:   4    -0.353260031979E+03   -0.11745E-02   -0.11722E-02 10584   0.143E-02-0.306E-04
CGA:   5    -0.353260305815E+03   -0.27384E-03   -0.27243E-03 10584   0.422E-03-0.260E-04
CGA:   6    -0.353260387531E+03   -0.81716E-04   -0.81448E-04 10584   0.119E-03-0.583E-05
CGA:   7    -0.353260412837E+03   -0.25306E-04   -0.25438E-04 10584   0.406E-04 0.567E-05
CGA:   8    -0.353260423498E+03   -0.10661E-04   -0.10622E-04 10584   0.156E-04 0.392E-05
CGA:   9    -0.353260429702E+03   -0.62039E-05   -0.71422E-05 10584   0.126E-04-0.529E-05
  45 F= -.35326043E+03 E0= -.35326043E+03  d E =0.360809E-03  mag=    18.0000
       N       E                     dE             d eps       ncg     rms          ort
SDA:   1    -0.346493184782E+03    0.67672E+01    0.00000E+00 10584   0.162E+02 0.000E+00
CGA:   2    -0.351568247887E+03   -0.50751E+01   -0.50742E+01 10584   0.784E+01 0.395E-02
CGA:   3    -0.352842202641E+03   -0.12740E+01   -0.12745E+01 10584   0.170E+01 0.399E-02
CGA:   4    -0.353131216061E+03   -0.28901E+00   -0.28907E+00 10584   0.383E+00-0.133E-03
CGA:   5    -0.353200140020E+03   -0.68924E-01   -0.68898E-01 10584   0.109E+00-0.579E-03
CGA:   6    -0.353222052259E+03   -0.21912E-01   -0.21906E-01 10584   0.309E-01-0.191E-03
CGA:   7    -0.353229426968E+03   -0.73747E-02   -0.73747E-02 10584   0.118E-01 0.379E-05
CGA:   8    -0.353232679083E+03   -0.32521E-02   -0.32540E-02 10584   0.492E-02-0.511E-04
CGA:   9    -0.353234169350E+03   -0.14903E-02   -0.15034E-02 10584   0.194E-02-0.192E-03
CGA:  10    -0.353234683311E+03   -0.51396E-03   -0.51456E-03 10584   0.540E-03-0.177E-04
CGA:  11    -0.353234829862E+03   -0.14655E-03   -0.14679E-03 10584   0.133E-03-0.775E-05
CGA:  12    -0.353234875120E+03   -0.45258E-04   -0.50556E-04 10584   0.638E-04-0.377E-04
CGA:  13    -0.353234884804E+03   -0.96842E-05   -0.10090E-04 10584   0.237E-04 0.130E-04
  46 F= -.35323488E+03 E0= -.35323488E+03  d E =0.255449E-01  mag=    18.0000
       N       E                     dE             d eps       ncg     rms          ort
SDA:   1    -0.351573155206E+03    0.16617E+01    0.00000E+00 10584   0.400E+01 0.000E+00
CGA:   2    -0.352835193053E+03   -0.12620E+01   -0.12620E+01 10584   0.183E+01-0.110E-02
CGA:   3    -0.353147801523E+03   -0.31261E+00   -0.31259E+00 10584   0.441E+00-0.126E-02
CGA:   4    -0.353220811105E+03   -0.73010E-01   -0.73020E-01 10584   0.978E-01 0.705E-04
CGA:   5    -0.353238712838E+03   -0.17902E-01   -0.17937E-01 10584   0.293E-01 0.583E-03
CGA:   6    -0.353244551421E+03   -0.58386E-02   -0.58533E-02 10584   0.865E-02 0.356E-03
CGA:   7    -0.353246719656E+03   -0.21682E-02   -0.21684E-02 10584   0.345E-02-0.184E-04
CGA:   8    -0.353247658229E+03   -0.93857E-03   -0.94117E-03 10584   0.148E-02-0.738E-04
CGA:   9    -0.353248061686E+03   -0.40346E-03   -0.40207E-03 10584   0.495E-03 0.358E-04
CGA:  10    -0.353248209377E+03   -0.14769E-03   -0.14883E-03 10584   0.159E-03-0.220E-04
CGA:  11    -0.353248253476E+03   -0.44099E-04   -0.45030E-04 10584   0.469E-04-0.177E-04
CGA:  12    -0.353248261475E+03   -0.79989E-05   -0.84970E-05 10584   0.128E-04 0.116E-04
  47 F= -.35324826E+03 E0= -.35324826E+03  d E =-.133767E-01  mag=    18.0000
       N       E                     dE             d eps       ncg     rms          ort
SDA:   1    -0.350058536269E+03    0.31897E+01    0.00000E+00 10584   0.763E+01 0.000E+00
CGA:   2    -0.352476760310E+03   -0.24182E+01   -0.24179E+01 10584   0.366E+01 0.138E-02
CGA:   3    -0.353069959924E+03   -0.59320E+00   -0.59313E+00 10584   0.805E+00 0.201E-02
CGA:   4    -0.353207483437E+03   -0.13752E+00   -0.13753E+00 10584   0.183E+00 0.227E-04
CGA:   5    -0.353240140462E+03   -0.32657E-01   -0.32660E-01 10584   0.518E-01 0.426E-06
CGA:   6    -0.353250568637E+03   -0.10428E-01   -0.10432E-01 10584   0.148E-01 0.105E-03
CGA:   7    -0.353254156173E+03   -0.35875E-02   -0.35883E-02 10584   0.568E-02-0.148E-03
CGA:   8    -0.353255702350E+03   -0.15462E-02   -0.15508E-02 10584   0.239E-02-0.118E-03
CGA:   9    -0.353256394736E+03   -0.69239E-03   -0.69541E-03 10584   0.886E-03-0.519E-04
CGA:  10    -0.353256651481E+03   -0.25674E-03   -0.26095E-03 10584   0.289E-03-0.706E-04
CGA:  11    -0.353256735776E+03   -0.84295E-04   -0.94932E-04 10584   0.130E-03-0.946E-04
CGA:  12    -0.353256756553E+03   -0.20778E-04   -0.20848E-04 10584   0.396E-04 0.572E-05
CGA:  13    -0.353256769320E+03   -0.12767E-04   -0.13306E-04 10584   0.229E-04-0.745E-05
CGA:  14    -0.353256773755E+03   -0.44348E-05   -0.10684E-04 10584   0.371E-04-0.195E-04
CGA:  15    -0.353256785310E+03   -0.11555E-04   -0.14345E-04 10584   0.367E-04-0.237E-04
CGA:  16    -0.353256785924E+03   -0.61409E-06   -0.31858E-05 10584   0.610E-05 0.138E-04
  48 F= -.35325679E+03 E0= -.35325679E+03  d E =-.852445E-02  mag=    18.0000
       N       E                     dE             d eps       ncg     rms          ort
SDA:   1    -0.352873011728E+03    0.38377E+00    0.00000E+00 10584   0.909E+00 0.000E+00
CGA:   2    -0.353159698772E+03   -0.28669E+00   -0.28662E+00 10584   0.342E+00 0.900E-03
CGA:   3    -0.353226378849E+03   -0.66680E-01   -0.66784E-01 10584   0.105E+00 0.162E-02
CGA:   4    -0.353243144590E+03   -0.16766E-01   -0.16820E-01 10584   0.236E-01 0.553E-03
CGA:   5    -0.353247715437E+03   -0.45708E-02   -0.45711E-02 10584   0.749E-02 0.551E-05
CGA:   6    -0.353249290598E+03   -0.15752E-02   -0.15715E-02 10584   0.276E-02-0.955E-04
CGA:   7    -0.353249976556E+03   -0.68596E-03   -0.68608E-03 10584   0.109E-02-0.226E-04
CGA:   8    -0.353250238011E+03   -0.26146E-03   -0.26183E-03 10584   0.397E-03 0.796E-04
CGA:   9    -0.353250342986E+03   -0.10497E-03   -0.10494E-03 10584   0.117E-03 0.616E-04
CGA:  10    -0.353250377451E+03   -0.34465E-04   -0.34311E-04 10584   0.372E-04 0.192E-04
CGA:  11    -0.353250386290E+03   -0.88391E-05   -0.92302E-05 10584   0.103E-04 0.119E-04
  49 F= -.35325039E+03 E0= -.35325039E+03  d E =0.639963E-02  mag=    18.0000
       N       E                     dE             d eps       ncg     rms          ort
SDA:   1    -0.352869105547E+03    0.38127E+00    0.00000E+00 10584   0.935E+00 0.000E+00
CGA:   2    -0.353162851582E+03   -0.29375E+00   -0.29379E+00 10584   0.428E+00-0.854E-03
CGA:   3    -0.353235471622E+03   -0.72620E-01   -0.72555E-01 10584   0.109E+00-0.119E-02
CGA:   4    -0.353254305916E+03   -0.18834E-01   -0.18803E-01 10584   0.246E-01-0.480E-03
CGA:   5    -0.353258704697E+03   -0.43988E-02   -0.43981E-02 10584   0.727E-02-0.169E-04
CGA:   6    -0.353260196026E+03   -0.14913E-02   -0.14944E-02 10584   0.228E-02 0.102E-03
CGA:   7    -0.353260754933E+03   -0.55891E-03   -0.55848E-03 10584   0.874E-03 0.573E-04
CGA:   8    -0.353261013764E+03   -0.25883E-03   -0.26248E-03 10584   0.414E-03-0.620E-04
CGA:   9    -0.353261130124E+03   -0.11636E-03   -0.12112E-03 10584   0.169E-03-0.611E-04
CGA:  10    -0.353261164295E+03   -0.34172E-04   -0.34192E-04 10584   0.433E-04 0.675E-05
CGA:  11    -0.353261174336E+03   -0.10040E-04   -0.10148E-04 10584   0.115E-04 0.699E-05
CGA:  12    -0.353261178788E+03   -0.44523E-05   -0.62985E-05 10584   0.128E-04-0.797E-05
  50 F= -.35326118E+03 E0= -.35326118E+03  d E =-.107925E-01  mag=    18.0000
       N       E                     dE             d eps       ncg     rms          ort
SDA:   1    -0.353250671174E+03    0.10503E-01    0.00000E+00 10584   0.252E-01 0.000E+00
CGA:   2    -0.353257729149E+03   -0.70580E-02   -0.70568E-02 10584   0.131E-01 0.303E-04
CGA:   3    -0.353259977444E+03   -0.22483E-02   -0.22516E-02 10584   0.317E-02 0.346E-04
CGA:   4    -0.353260508527E+03   -0.53108E-03   -0.53085E-03 10584   0.699E-03-0.347E-05
CGA:   5    -0.353260633359E+03   -0.12483E-03   -0.12383E-03 10584   0.198E-03-0.153E-04
CGA:   6    -0.353260674372E+03   -0.41013E-04   -0.40783E-04 10584   0.594E-04-0.788E-05
CGA:   7    -0.353260686952E+03   -0.12580E-04   -0.12618E-04 10584   0.198E-04 0.218E-05
CGA:   8    -0.353260691798E+03   -0.48458E-05   -0.48510E-05 10584   0.687E-05 0.279E-05
  51 F= -.35326069E+03 E0= -.35326069E+03  d E =0.486990E-03  mag=    18.0000
       N       E                     dE             d eps       ncg     rms          ort
SDA:   1    -0.353040629738E+03    0.22006E+00    0.00000E+00 10584   0.572E+00 0.000E+00
CGA:   2    -0.353184358459E+03   -0.14373E+00   -0.14372E+00 10584   0.305E+00 0.925E-03
CGA:   3    -0.353239233708E+03   -0.54875E-01   -0.54900E-01 10584   0.759E-01 0.278E-03
CGA:   4    -0.353252072911E+03   -0.12839E-01   -0.12834E-01 10584   0.161E-01-0.855E-04
CGA:   5    -0.353254866138E+03   -0.27932E-02   -0.27921E-02 10584   0.442E-02-0.216E-04
CGA:   6    -0.353255768362E+03   -0.90222E-03   -0.90274E-03 10584   0.128E-02 0.145E-04
CGA:   7    -0.353256065113E+03   -0.29675E-03   -0.29678E-03 10584   0.460E-03 0.579E-05
CGA:   8    -0.353256183400E+03   -0.11829E-03   -0.11779E-03 10584   0.171E-03 0.254E-04
CGA:   9    -0.353256235684E+03   -0.52284E-04   -0.51849E-04 10584   0.656E-04 0.838E-05
CGA:  10    -0.353256250968E+03   -0.15284E-04   -0.15513E-04 10584   0.194E-04 0.170E-04
CGA:  11    -0.353256254448E+03   -0.34798E-05   -0.42001E-05 10584   0.703E-05 0.108E-04
  52 F= -.35325625E+03 E0= -.35325625E+03  d E =0.443735E-02  mag=    18.0000
       N       E                     dE             d eps       ncg     rms          ort
SDA:   1    -0.353176824095E+03    0.79427E-01    0.00000E+00 10584   0.190E+00 0.000E+00
CGA:   2    -0.353239899977E+03   -0.63076E-01   -0.63077E-01 10584   0.791E-01-0.436E-04
CGA:   3    -0.353253426572E+03   -0.13527E-01   -0.13519E-01 10584   0.192E-01-0.127E-03
CGA:   4    -0.353256535928E+03   -0.31094E-02   -0.31004E-02 10584   0.441E-02-0.118E-03
CGA:   5    -0.353257354739E+03   -0.81881E-03   -0.81761E-03 10584   0.129E-02-0.253E-04
CGA:   6    -0.353257603907E+03   -0.24917E-03   -0.24969E-03 10584   0.363E-03 0.131E-04
CGA:   7    -0.353257694342E+03   -0.90435E-04   -0.90491E-04 10584   0.141E-03-0.369E-05
CGA:   8    -0.353257734589E+03   -0.40247E-04   -0.41280E-04 10584   0.718E-04-0.160E-04
CGA:   9    -0.353257753604E+03   -0.19014E-04   -0.19861E-04 10584   0.294E-04-0.110E-04
CGA:  10    -0.353257758613E+03   -0.50089E-05   -0.13406E-04 10584   0.465E-04-0.280E-04
  53 F= -.35325776E+03 E0= -.35325776E+03  d E =-.150416E-02  mag=    18.0000
       N       E                     dE             d eps       ncg     rms          ort
SDA:   1    -0.353213488897E+03    0.44265E-01    0.00000E+00 10584   0.115E+00 0.000E+00
CGA:   2    -0.353244292605E+03   -0.30804E-01   -0.30805E-01 10584   0.623E-01-0.113E-03
CGA:   3    -0.353255192353E+03   -0.10900E-01   -0.10913E-01 10584   0.149E-01 0.140E-03
CGA:   4    -0.353257721315E+03   -0.25290E-02   -0.25415E-02 10584   0.329E-02 0.159E-03
CGA:   5    -0.353258296939E+03   -0.57562E-03   -0.58077E-03 10584   0.911E-03 0.738E-04
CGA:   6    -0.353258486480E+03   -0.18954E-03   -0.19036E-03 10584   0.282E-03 0.229E-04
CGA:   7    -0.353258558557E+03   -0.72077E-04   -0.72160E-04 10584   0.119E-03-0.755E-05
CGA:   8    -0.353258588838E+03   -0.30281E-04   -0.30295E-04 10584   0.455E-04-0.678E-06
CGA:   9    -0.353258598818E+03   -0.99800E-05   -0.10135E-04 10584   0.134E-04 0.966E-05
  54 F= -.35325860E+03 E0= -.35325860E+03  d E =-.840205E-03  mag=    18.0000
       N       E                     dE             d eps       ncg     rms          ort
SDA:   1    -0.353248511041E+03    0.10078E-01    0.00000E+00 10584   0.240E-01 0.000E+00
CGA:   2    -0.353255967383E+03   -0.74563E-02   -0.74568E-02 10584   0.997E-02-0.112E-04
CGA:   3    -0.353257816505E+03   -0.18491E-02   -0.18546E-02 10584   0.276E-02 0.869E-04
CGA:   4    -0.353258291272E+03   -0.47477E-03   -0.46863E-03 10584   0.641E-03-0.808E-04
CGA:   5    -0.353258422243E+03   -0.13097E-03   -0.12975E-03 10584   0.201E-03-0.375E-04
CGA:   6    -0.353258460583E+03   -0.38340E-04   -0.38202E-04 10584   0.654E-04-0.366E-05
CGA:   7    -0.353258480217E+03   -0.19634E-04   -0.22240E-04 10584   0.521E-04-0.240E-04
CGA:   8    -0.353258486047E+03   -0.58302E-05   -0.59707E-05 10584   0.194E-04 0.226E-05
  55 F= -.35325849E+03 E0= -.35325849E+03  d E =0.112771E-03  mag=    18.0000
       N       E                     dE             d eps       ncg     rms          ort
SDA:   1    -0.353253260579E+03    0.52196E-02    0.00000E+00 10584   0.128E-01 0.000E+00
CGA:   2    -0.353256331972E+03   -0.30714E-02   -0.30704E-02 10584   0.572E-02 0.210E-03
CGA:   3    -0.353257418977E+03   -0.10870E-02   -0.10888E-02 10584   0.174E-02 0.352E-04
CGA:   4    -0.353257721731E+03   -0.30275E-03   -0.30150E-03 10584   0.364E-03-0.208E-04
CGA:   5    -0.353257782297E+03   -0.60566E-04   -0.61329E-04 10584   0.954E-04 0.127E-04
CGA:   6    -0.353257799095E+03   -0.16798E-04   -0.17578E-04 10584   0.257E-04 0.158E-04
CGA:   7    -0.353257805540E+03   -0.64456E-05   -0.64856E-05 10584   0.100E-04 0.485E-05
  56 F= -.35325781E+03 E0= -.35325781E+03  d E =0.680507E-03  mag=    18.0000
