   16   16  199    2
  0.1300963E+02  0.4784925E-09  0.7010672E-09  0.7017923E-09  0.5000000E-15
  1.000000000000000E-004
  CAR 
 unknown system                          
    188    101    144
 
  0.0000000E+00  0.0000000E+00  0.0000000E+00  0.5000000E-02
    1      -48.835090    -43.781613   1.000000   1.000000
    2      -48.819772    -43.760466   1.000000   1.000000
    3      -48.814937    -43.751463   1.000000   1.000000
    4      -48.812384    -43.748825   1.000000   1.000000
    5      -48.789976    -43.736026   1.000000   1.000000
    6      -48.770529    -43.714986   1.000000   1.000000
    7      -48.762647    -43.709124   1.000000   1.000000
    8      -48.750277    -43.705360   1.000000   1.000000
    9      -48.604322    -43.699247   1.000000   1.000000
   10      -48.573342    -43.684303   1.000000   1.000000
   11      -48.571365    -43.681348   1.000000   1.000000
   12      -48.518787    -43.676923   1.000000   1.000000
   13      -48.490798    -43.671351   1.000000   1.000000
   14      -48.473743    -43.657220   1.000000   1.000000
   15      -48.466761    -43.652283   1.000000   1.000000
   16      -48.463199    -43.643126   1.000000   1.000000
   17      -48.461476    -43.640116   1.000000   1.000000
   18      -48.449628    -43.633273   1.000000   1.000000
   19      -48.445078    -43.613063   1.000000   1.000000
   20      -48.436323    -43.606807   1.000000   1.000000
   21      -48.421582    -43.599979   1.000000   1.000000
   22      -48.406006    -43.594285   1.000000   1.000000
   23      -48.377032    -43.581176   1.000000   1.000000
   24      -48.370053    -43.579324   1.000000   1.000000
   25      -48.358719    -43.565809   1.000000   1.000000
   26      -48.338761    -43.555505   1.000000   1.000000
   27      -48.311175    -43.547628   1.000000   1.000000
   28      -48.298470    -43.542389   1.000000   1.000000
   29      -48.236555    -43.536985   1.000000   1.000000
   30      -48.229457    -43.529844   1.000000   1.000000
   31      -48.209775    -43.520137   1.000000   1.000000
   32      -48.195317    -43.502007   1.000000   1.000000
   33      -48.178336    -43.480254   1.000000   1.000000
   34      -48.157030    -43.477419   1.000000   1.000000
   35      -48.147566    -43.465631   1.000000   1.000000
   36      -48.092946    -43.454049   1.000000   1.000000
   37       -4.206258     -4.144933   1.000000   1.000000
   38       -2.865168     -2.578172   1.000000   1.000000
   39       -2.853530     -2.565678   1.000000   1.000000
   40       -2.560450     -2.043964   1.000000   1.000000
   41        1.806372      2.122635   1.000000   1.000000
   42        2.029246      2.504767   1.000000   1.000000
   43        2.250974      3.599253   1.000000   1.000000
   44        2.265869      3.640076   1.000000   1.000000
   45        2.687659      4.369411   1.000000   1.000000
   46        2.731242      4.388015   1.000000   1.000000
   47        2.746163      4.476458   1.000000   1.000000
   48        3.061589      4.819172   1.000000   1.000000
   49        3.076958      5.268237   1.000000   1.000000
   50        3.089316      5.326424   1.000000   1.000000
   51        3.201038      5.474700   1.000000   1.000000
   52        3.343284      5.479525   1.000000   1.000000
   53        3.355374      5.631607   1.000000   1.000000
   54        3.390604      7.001272   1.000000   1.000000
   55        3.406407      7.019279   1.000000   1.000000
   56        3.459016      7.348679   1.000000   1.000000
   57        3.522525      7.422576   1.000000   1.000000
   58        3.626611      7.597372   1.000000   1.000000
   59        3.632653      7.625155   1.000000   1.000000
   60        3.727355      7.846928   1.000000   1.000000
   61        3.813753      7.865852   1.000000   1.000000
   62        3.862769      8.009714   1.000000   1.000000
   63        3.874895      8.144230   1.000000   1.000000
   64        3.877555      8.152572   1.000000   1.000000
   65        3.952742      8.215809   1.000000   1.000000
   66        4.027275      8.273246   1.000000   1.000000
   67        4.177236      8.375492   1.000000   1.000000
   68        4.197911      8.403111   1.000000   1.000000
   69        4.210305      8.412840   1.000000   1.000000
   70        4.299519      8.503504   1.000000   1.000000
   71        4.331161      8.879991   1.000000   1.000000
   72        4.350416      8.966466   1.000000   1.000000
   73        4.356417      9.034663   1.000000   1.000000
   74        4.465250      9.446067   1.000000   1.000000
   75        4.493111      9.567156   1.000000   0.994716
   76        4.496625      9.850533   1.000000   0.000000
   77        4.512511      9.941406   1.000000   0.000000
   78        4.581787      9.967119   1.000000   0.000000
   79        4.623335     10.039452   1.000000   0.000000
   80        4.660863     10.372753   1.000000   0.000000
   81        4.663874     10.599115   1.000000   0.000000
   82        4.733049     10.633741   1.000000   0.000000
   83        4.855628     10.923412   1.000000   0.000000
   84        4.928774     10.942456   1.000000   0.000000
   85        4.935065     11.088230   1.000000   0.000000
   86        4.955052     11.109827   1.000000   0.000000
   87        5.038522     11.157520   1.000000   0.000000
   88        5.118905     11.240771   1.000000   0.000000
   89        5.126381     11.249892   1.000000   0.000000
   90        5.137606     11.428644   1.000000   0.000000
   91        5.195073     11.519846   1.000000   0.000000
   92        5.212538     11.686864   1.000000   0.000000
   93        5.356140     11.703986   1.000000   0.000000
   94        5.377386     11.737782   1.000000   0.000000
   95        5.518293     11.870717   1.000000   0.000000
   96        5.606245     11.880081   1.000000   0.000000
   97        5.628187     11.909606   1.000000   0.000000
   98        5.784486     11.998676   1.000000   0.000000
   99        5.803275     12.021515   1.000000   0.000000
  100        5.959149     12.160972   1.000000   0.000000
  101        5.994894     12.186248   1.000000   0.000000
  102        5.999682     12.331186   1.000000   0.000000
  103        6.019249     12.438960   1.000000   0.000000
  104        7.053229     12.448419   1.000000   0.000000
  105        7.062366     12.554450   1.000000   0.000000
  106        7.563147     12.658753   1.000000   0.000000
  107        7.767635     12.719327   1.000000   0.000000
  108        7.781123     12.734165   1.000000   0.000000
  109        7.822349     12.743656   1.000000   0.000000
  110        8.029138     12.808433   1.000000   0.000000
  111        8.126545     13.062141   1.000000   0.000000
  112        8.135803     13.152200   1.000000   0.000000
  113        8.684204     13.171436   1.000000   0.000000
  114       11.250384     13.794028   0.000000   0.000000
  115       11.305779     14.639253   0.000000   0.000000
  116       11.585206     14.681281   0.000000   0.000000
  117       12.727910     14.709490   0.000000   0.000000
  118       12.980761     15.025260   0.000000   0.000000
  119       13.630215     15.521355   0.000000   0.000000
  120       13.982172     15.708560   0.000000   0.000000
  121       14.265946     15.742578   0.000000   0.000000
  122       14.284137     15.886817   0.000000   0.000000
  123       14.872204     16.300922   0.000000   0.000000
  124       14.975027     16.312303   0.000000   0.000000
  125       14.985539     16.559835   0.000000   0.000000
  126       15.390389     16.818489   0.000000   0.000000
  127       15.572211     17.169434   0.000000   0.000000
  128       15.599414     17.197341   0.000000   0.000000
  129       16.002914     17.700888   0.000000   0.000000
  130       16.140472     17.826932   0.000000   0.000000
  131       16.169800     17.851048   0.000000   0.000000
  132       16.572644     18.068888   0.000000   0.000000
  133       16.717981     18.230492   0.000000   0.000000
  134       16.791315     18.428438   0.000000   0.000000
  135       17.809137     19.135122   0.000000   0.000000
  136       17.847074     19.378605   0.000000   0.000000
  137       18.019284     19.416507   0.000000   0.000000
  138       18.215486     19.607435   0.000000   0.000000
  139       18.613705     19.693061   0.000000   0.000000
  140       19.481615     20.948470   0.000000   0.000000
  141       19.531250     20.997704   0.000000   0.000000
  142       20.100957     21.103120   0.000000   0.000000
  143       21.041566     21.868064   0.000000   0.000000
  144       21.385067     22.424573   0.000000   0.000000
 
  0.1250000E+00 -0.1649960E-16 -0.5580028E-14  0.1000000E-01
    1      -48.834406    -43.780203   1.000000   1.000000
    2      -48.818737    -43.759509   1.000000   1.000000
    3      -48.815044    -43.751758   1.000000   1.000000
    4      -48.812582    -43.749327   1.000000   1.000000
    5      -48.790393    -43.737088   1.000000   1.000000
    6      -48.770465    -43.713674   1.000000   1.000000
    7      -48.762450    -43.708299   1.000000   1.000000
    8      -48.750990    -43.706103   1.000000   1.000000
    9      -48.604409    -43.698412   1.000000   1.000000
   10      -48.573533    -43.685870   1.000000   1.000000
   11      -48.571489    -43.682107   1.000000   1.000000
   12      -48.519040    -43.678394   1.000000   1.000000
   13      -48.490407    -43.669594   1.000000   1.000000
   14      -48.473944    -43.657682   1.000000   1.000000
   15      -48.467731    -43.653219   1.000000   1.000000
   16      -48.462640    -43.643499   1.000000   1.000000
   17      -48.461109    -43.639288   1.000000   1.000000
   18      -48.450878    -43.632319   1.000000   1.000000
   19      -48.444294    -43.614153   1.000000   1.000000
   20      -48.436056    -43.607114   1.000000   1.000000
   21      -48.421868    -43.599659   1.000000   1.000000
   22      -48.406155    -43.593840   1.000000   1.000000
   23      -48.377181    -43.581540   1.000000   1.000000
   24      -48.369755    -43.579094   1.000000   1.000000
   25      -48.358694    -43.566042   1.000000   1.000000
   26      -48.338989    -43.555675   1.000000   1.000000
   27      -48.310736    -43.547840   1.000000   1.000000
   28      -48.297976    -43.540836   1.000000   1.000000
   29      -48.237057    -43.536240   1.000000   1.000000
   30      -48.229605    -43.529157   1.000000   1.000000
   31      -48.208836    -43.520864   1.000000   1.000000
   32      -48.195401    -43.501809   1.000000   1.000000
   33      -48.178467    -43.480579   1.000000   1.000000
   34      -48.157313    -43.478094   1.000000   1.000000
   35      -48.147597    -43.466245   1.000000   1.000000
   36      -48.093030    -43.454348   1.000000   1.000000
   37       -4.114307     -4.049307   1.000000   1.000000
   38       -2.853668     -2.571036   1.000000   1.000000
   39       -2.845185     -2.560588   1.000000   1.000000
   40       -2.555276     -2.061845   1.000000   1.000000
   41        1.795164      2.224726   1.000000   1.000000
   42        2.067367      2.561090   1.000000   1.000000
   43        2.181362      3.434438   1.000000   1.000000
   44        2.248901      3.497523   1.000000   1.000000
   45        2.545640      3.969331   1.000000   1.000000
   46        2.692716      4.228577   1.000000   1.000000
   47        2.733449      4.316353   1.000000   1.000000
   48        2.978792      4.512843   1.000000   1.000000
   49        3.041943      5.355744   1.000000   1.000000
   50        3.087218      5.444951   1.000000   1.000000
   51        3.260937      5.559589   1.000000   1.000000
   52        3.278356      5.598099   1.000000   1.000000
   53        3.383343      5.997523   1.000000   1.000000
   54        3.421282      7.052759   1.000000   1.000000
   55        3.437768      7.105590   1.000000   1.000000
   56        3.466929      7.357422   1.000000   1.000000
   57        3.530895      7.410649   1.000000   1.000000
   58        3.622675      7.464720   1.000000   1.000000
   59        3.626866      7.756951   1.000000   1.000000
   60        3.720258      7.822160   1.000000   1.000000
   61        3.762478      7.855156   1.000000   1.000000
   62        3.810852      8.050122   1.000000   1.000000
   63        3.854820      8.161412   1.000000   1.000000
   64        3.882871      8.205478   1.000000   1.000000
   65        3.956238      8.244470   1.000000   1.000000
   66        4.034748      8.327647   1.000000   1.000000
   67        4.145277      8.374966   1.000000   1.000000
   68        4.207166      8.402827   1.000000   1.000000
   69        4.228565      8.485226   1.000000   1.000000
   70        4.275561      8.566580   1.000000   1.000000
   71        4.318106      8.860085   1.000000   1.000000
   72        4.356952      9.022286   1.000000   1.000000
   73        4.402564      9.067233   1.000000   1.000000
   74        4.468917      9.389239   1.000000   1.000000
   75        4.494502      9.508469   1.000000   0.999988
   76        4.515970      9.810756   1.000000   0.000007
   77        4.520733      9.883048   1.000000   0.000000
   78        4.554780     10.035798   1.000000   0.000000
   79        4.633494     10.152058   1.000000   0.000000
   80        4.693926     10.417692   1.000000   0.000000
   81        4.710725     10.546068   1.000000   0.000000
   82        4.716911     10.587741   1.000000   0.000000
   83        4.849602     10.793946   1.000000   0.000000
   84        4.905557     10.834714   1.000000   0.000000
   85        4.946014     11.017149   1.000000   0.000000
   86        4.960321     11.080918   1.000000   0.000000
   87        5.061394     11.192043   1.000000   0.000000
   88        5.078121     11.313430   1.000000   0.000000
   89        5.121549     11.350054   1.000000   0.000000
   90        5.153694     11.416033   1.000000   0.000000
   91        5.197293     11.600083   1.000000   0.000000
   92        5.322772     11.630745   1.000000   0.000000
   93        5.365743     11.685275   1.000000   0.000000
   94        5.409892     11.718177   1.000000   0.000000
   95        5.495619     11.839392   1.000000   0.000000
   96        5.571089     11.871490   1.000000   0.000000
   97        5.602739     11.905884   1.000000   0.000000
   98        5.709281     11.956521   1.000000   0.000000
   99        5.792465     12.044761   1.000000   0.000000
  100        5.834811     12.124187   1.000000   0.000000
  101        5.990065     12.147782   1.000000   0.000000
  102        6.000355     12.290725   1.000000   0.000000
  103        6.135611     12.457308   1.000000   0.000000
  104        6.763315     12.512594   1.000000   0.000000
  105        6.836039     12.551196   1.000000   0.000000
  106        7.106590     12.691802   1.000000   0.000000
  107        7.301657     12.728546   1.000000   0.000000
  108        7.443185     12.769675   1.000000   0.000000
  109        7.902473     12.794700   1.000000   0.000000
  110        8.454497     12.977435   1.000000   0.000000
  111        8.918315     13.115998   1.000000   0.000000
  112        8.983598     13.268784   1.000000   0.000000
  113        9.269608     13.311515   1.000000   0.000000
  114       11.010168     13.671772   0.000000   0.000000
  115       11.231326     14.361986   0.000000   0.000000
  116       11.568175     14.515179   0.000000   0.000000
  117       12.442707     14.648708   0.000000   0.000000
  118       12.527810     14.907944   0.000000   0.000000
  119       13.392672     15.103265   0.000000   0.000000
  120       13.675507     15.343982   0.000000   0.000000
  121       13.833474     15.578584   0.000000   0.000000
  122       14.195280     15.794901   0.000000   0.000000
  123       14.635658     16.147988   0.000000   0.000000
  124       15.030568     16.821958   0.000000   0.000000
  125       15.286131     16.845528   0.000000   0.000000
  126       15.389872     16.980789   0.000000   0.000000
  127       15.585624     17.151888   0.000000   0.000000
  128       15.699614     17.321999   0.000000   0.000000
  129       16.007638     17.748077   0.000000   0.000000
  130       16.413571     17.929486   0.000000   0.000000
  131       16.554771     18.035821   0.000000   0.000000
  132       16.898495     18.369102   0.000000   0.000000
  133       17.157968     18.537936   0.000000   0.000000
  134       17.653384     18.966018   0.000000   0.000000
  135       17.911886     19.266740   0.000000   0.000000
  136       18.176400     19.517771   0.000000   0.000000
  137       18.382953     19.676301   0.000000   0.000000
  138       18.558132     19.942045   0.000000   0.000000
  139       19.070317     20.220967   0.000000   0.000000
  140       19.305389     20.582497   0.000000   0.000000
  141       19.868139     21.124487   0.000000   0.000000
  142       20.102552     21.211751   0.000000   0.000000
  143       20.221433     21.415920   0.000000   0.000000
  144       21.125963     22.167626   0.000000   0.000000
 
  0.2500000E+00 -0.6344397E-16  0.3034191E-14  0.1000000E-01
    1      -48.832628    -43.776312   1.000000   1.000000
    2      -48.816536    -43.757159   1.000000   1.000000
    3      -48.814978    -43.753057   1.000000   1.000000
    4      -48.813073    -43.750424   1.000000   1.000000
    5      -48.791410    -43.740610   1.000000   1.000000
    6      -48.770466    -43.711361   1.000000   1.000000
    7      -48.761974    -43.705818   1.000000   1.000000
    8      -48.752720    -43.703796   1.000000   1.000000
    9      -48.604627    -43.697697   1.000000   1.000000
   10      -48.574097    -43.692504   1.000000   1.000000
   11      -48.571709    -43.683772   1.000000   1.000000
   12      -48.519680    -43.678304   1.000000   1.000000
   13      -48.489442    -43.666471   1.000000   1.000000
   14      -48.474405    -43.658699   1.000000   1.000000
   15      -48.468999    -43.653948   1.000000   1.000000
   16      -48.461806    -43.644984   1.000000   1.000000
   17      -48.461391    -43.638494   1.000000   1.000000
   18      -48.452287    -43.631591   1.000000   1.000000
   19      -48.443186    -43.616206   1.000000   1.000000
   20      -48.435520    -43.607600   1.000000   1.000000
   21      -48.422633    -43.599599   1.000000   1.000000
   22      -48.406486    -43.592224   1.000000   1.000000
   23      -48.377549    -43.582408   1.000000   1.000000
   24      -48.369025    -43.578638   1.000000   1.000000
   25      -48.358683    -43.566211   1.000000   1.000000
   26      -48.339561    -43.556439   1.000000   1.000000
   27      -48.309676    -43.548254   1.000000   1.000000
   28      -48.296806    -43.537833   1.000000   1.000000
   29      -48.238246    -43.534565   1.000000   1.000000
   30      -48.229863    -43.528978   1.000000   1.000000
   31      -48.206665    -43.520590   1.000000   1.000000
   32      -48.195645    -43.501848   1.000000   1.000000
   33      -48.178748    -43.480919   1.000000   1.000000
   34      -48.158033    -43.479481   1.000000   1.000000
   35      -48.147657    -43.467864   1.000000   1.000000
   36      -48.093234    -43.455188   1.000000   1.000000
   37       -3.856421     -3.777892   1.000000   1.000000
   38       -2.830395     -2.555168   1.000000   1.000000
   39       -2.818323     -2.547493   1.000000   1.000000
   40       -2.569835     -2.142997   1.000000   1.000000
   41        1.743299      2.410210   1.000000   1.000000
   42        1.961193      2.637793   1.000000   1.000000
   43        2.036556      2.935328   1.000000   1.000000
   44        2.218815      3.214584   1.000000   1.000000
   45        2.410462      3.444020   1.000000   1.000000
   46        2.588370      3.759435   1.000000   1.000000
   47        2.684644      4.412766   1.000000   1.000000
   48        2.825709      4.601167   1.000000   1.000000
   49        2.959740      5.304463   1.000000   1.000000
   50        3.066738      5.406656   1.000000   1.000000
   51        3.113559      5.561111   1.000000   1.000000
   52        3.160132      5.660453   1.000000   1.000000
   53        3.382682      6.280871   1.000000   1.000000
   54        3.436836      7.035628   1.000000   1.000000
   55        3.484055      7.157771   1.000000   1.000000
   56        3.518154      7.322427   1.000000   1.000000
   57        3.582853      7.453941   1.000000   1.000000
   58        3.608979      7.538630   1.000000   1.000000
   59        3.660796      7.726006   1.000000   1.000000
   60        3.711343      7.847905   1.000000   1.000000
   61        3.795740      7.944652   1.000000   1.000000
   62        3.830151      8.093462   1.000000   1.000000
   63        3.856646      8.171217   1.000000   1.000000
   64        3.915761      8.282465   1.000000   1.000000
   65        3.936782      8.342241   1.000000   1.000000
   66        4.038339      8.400037   1.000000   1.000000
   67        4.094934      8.442517   1.000000   1.000000
   68        4.157138      8.522580   1.000000   1.000000
   69        4.208583      8.605069   1.000000   1.000000
   70        4.249093      8.728859   1.000000   1.000000
   71        4.319220      8.863340   1.000000   1.000000
   72        4.368525      9.019464   1.000000   1.000000
   73        4.399815      9.163586   1.000000   1.000000
   74        4.473037      9.324690   1.000000   1.000000
   75        4.511586      9.498452   1.000000   0.999997
   76        4.529065      9.741657   1.000000   0.008681
   77        4.564910      9.883597   1.000000   0.000000
   78        4.620342     10.021446   1.000000   0.000000
   79        4.649862     10.231080   1.000000   0.000000
   80        4.689369     10.370996   1.000000   0.000000
   81        4.781056     10.485877   1.000000   0.000000
   82        4.803992     10.606791   1.000000   0.000000
   83        4.862113     10.784418   1.000000   0.000000
   84        4.918464     10.858652   1.000000   0.000000
   85        4.949951     10.946393   1.000000   0.000000
   86        4.968897     11.064933   1.000000   0.000000
   87        5.034424     11.188253   1.000000   0.000000
   88        5.091236     11.262639   1.000000   0.000000
   89        5.127600     11.342333   1.000000   0.000000
   90        5.209943     11.427806   1.000000   0.000000
   91        5.276079     11.526754   1.000000   0.000000
   92        5.350190     11.547212   1.000000   0.000000
   93        5.388982     11.673982   1.000000   0.000000
   94        5.436606     11.728111   1.000000   0.000000
   95        5.482231     11.829166   1.000000   0.000000
   96        5.557037     11.868901   1.000000   0.000000
   97        5.573979     11.898257   1.000000   0.000000
   98        5.631975     11.939769   1.000000   0.000000
   99        5.751931     12.029570   1.000000   0.000000
  100        5.802468     12.085629   1.000000   0.000000
  101        5.986646     12.138480   1.000000   0.000000
  102        6.013272     12.249006   1.000000   0.000000
  103        6.188738     12.351542   1.000000   0.000000
  104        6.277065     12.423208   1.000000   0.000000
  105        6.421028     12.497655   1.000000   0.000000
  106        6.842402     12.661887   1.000000   0.000000
  107        7.049180     12.787956   1.000000   0.000000
  108        7.327454     12.833856   1.000000   0.000000
  109        8.280677     12.906989   1.000000   0.000000
  110        8.969381     13.241024   1.000000   0.000000
  111        9.293141     13.348169   1.000000   0.000000
  112        9.500318     13.459466   0.999996   0.000000
  113        9.677602     13.503025   0.285286   0.000000
  114       10.768720     13.739893   0.000000   0.000000
  115       11.341992     14.114461   0.000000   0.000000
  116       11.758677     14.272781   0.000000   0.000000
  117       12.186941     14.511074   0.000000   0.000000
  118       12.648055     14.706565   0.000000   0.000000
  119       12.819807     14.905599   0.000000   0.000000
  120       13.296681     15.348357   0.000000   0.000000
  121       13.605155     15.378058   0.000000   0.000000
  122       13.922148     15.594731   0.000000   0.000000
  123       14.224228     15.952618   0.000000   0.000000
  124       14.815651     16.547726   0.000000   0.000000
  125       15.219642     16.891016   0.000000   0.000000
  126       15.503942     17.107682   0.000000   0.000000
  127       15.991521     17.604767   0.000000   0.000000
  128       16.286244     17.827057   0.000000   0.000000
  129       16.525758     18.075385   0.000000   0.000000
  130       16.633391     18.140624   0.000000   0.000000
  131       17.127681     18.413610   0.000000   0.000000
  132       17.581131     18.844480   0.000000   0.000000
  133       17.763716     19.162609   0.000000   0.000000
  134       18.139398     19.449752   0.000000   0.000000
  135       18.151260     19.581661   0.000000   0.000000
  136       18.589518     19.844934   0.000000   0.000000
  137       18.974701     20.069106   0.000000   0.000000
  138       19.232305     20.439585   0.000000   0.000000
  139       19.475323     20.580354   0.000000   0.000000
  140       19.867060     20.968500   0.000000   0.000000
  141       20.213248     21.198948   0.000000   0.000000
  142       20.608644     21.544518   0.000000   0.000000
  143       20.647029     21.667314   0.000000   0.000000
  144       20.803989     21.838220   0.000000   0.000000
 
  0.3750000E+00 -0.3427643E-16 -0.2507049E-14  0.1000000E-01
    1      -48.830588    -43.771176   1.000000   1.000000
    2      -48.816535    -43.756703   1.000000   1.000000
    3      -48.813843    -43.753456   1.000000   1.000000
    4      -48.812434    -43.750654   1.000000   1.000000
    5      -48.792433    -43.745998   1.000000   1.000000
    6      -48.770738    -43.709387   1.000000   1.000000
    7      -48.761468    -43.705558   1.000000   1.000000
    8      -48.754453    -43.700483   1.000000   1.000000
    9      -48.604850    -43.698568   1.000000   1.000000
   10      -48.574777    -43.691885   1.000000   1.000000
   11      -48.571839    -43.684964   1.000000   1.000000
   12      -48.520357    -43.677079   1.000000   1.000000
   13      -48.488470    -43.665895   1.000000   1.000000
   14      -48.474946    -43.659868   1.000000   1.000000
   15      -48.468876    -43.655764   1.000000   1.000000
   16      -48.463802    -43.645072   1.000000   1.000000
   17      -48.460848    -43.639069   1.000000   1.000000
   18      -48.452313    -43.632594   1.000000   1.000000
   19      -48.442424    -43.617622   1.000000   1.000000
   20      -48.435141    -43.606835   1.000000   1.000000
   21      -48.423453    -43.601026   1.000000   1.000000
   22      -48.406780    -43.590457   1.000000   1.000000
   23      -48.377929    -43.583292   1.000000   1.000000
   24      -48.368258    -43.578307   1.000000   1.000000
   25      -48.358775    -43.565586   1.000000   1.000000
   26      -48.340153    -43.557878   1.000000   1.000000
   27      -48.308621    -43.548244   1.000000   1.000000
   28      -48.295668    -43.535749   1.000000   1.000000
   29      -48.239393    -43.533371   1.000000   1.000000
   30      -48.230027    -43.529561   1.000000   1.000000
   31      -48.204576    -43.518680   1.000000   1.000000
   32      -48.195950    -43.502455   1.000000   1.000000
   33      -48.178977    -43.481069   1.000000   1.000000
   34      -48.158805    -43.479822   1.000000   1.000000
   35      -48.147694    -43.469894   1.000000   1.000000
   36      -48.093441    -43.456202   1.000000   1.000000
   37       -3.492290     -3.383323   1.000000   1.000000
   38       -2.852559     -2.607330   1.000000   1.000000
   39       -2.795954     -2.530433   1.000000   1.000000
   40       -2.623837     -2.281155   1.000000   1.000000
   41        1.552971      2.234789   1.000000   1.000000
   42        1.741709      2.388114   1.000000   1.000000
   43        1.888190      2.718392   1.000000   1.000000
   44        2.119518      2.998588   1.000000   1.000000
   45        2.374093      3.457303   1.000000   1.000000
   46        2.567175      3.896112   1.000000   1.000000
   47        2.668507      4.564399   1.000000   1.000000
   48        2.746336      4.786328   1.000000   1.000000
   49        2.882099      4.995255   1.000000   1.000000
   50        2.979849      5.234756   1.000000   1.000000
   51        3.015606      5.394423   1.000000   1.000000
   52        3.099777      5.589703   1.000000   1.000000
   53        3.336777      6.181087   1.000000   1.000000
   54        3.408251      6.931052   1.000000   1.000000
   55        3.464617      7.143371   1.000000   1.000000
   56        3.535985      7.230885   1.000000   1.000000
   57        3.584619      7.543681   1.000000   1.000000
   58        3.626095      7.611117   1.000000   1.000000
   59        3.681146      7.746494   1.000000   1.000000
   60        3.744032      7.878667   1.000000   1.000000
   61        3.799541      8.011617   1.000000   1.000000
   62        3.834205      8.099967   1.000000   1.000000
   63        3.900625      8.281392   1.000000   1.000000
   64        3.940625      8.306854   1.000000   1.000000
   65        3.983902      8.429088   1.000000   1.000000
   66        4.051166      8.480942   1.000000   1.000000
   67        4.060855      8.573638   1.000000   1.000000
   68        4.203484      8.618226   1.000000   1.000000
   69        4.238713      8.745646   1.000000   1.000000
   70        4.255414      8.807322   1.000000   1.000000
   71        4.277496      8.909914   1.000000   1.000000
   72        4.380424      9.086512   1.000000   1.000000
   73        4.429133      9.184676   1.000000   1.000000
   74        4.483209      9.329482   1.000000   1.000000
   75        4.502850      9.442197   1.000000   1.000000
   76        4.531141      9.625682   1.000000   0.816293
   77        4.590698      9.867005   1.000000   0.000000