       N       E                     dE             d eps       ncg     rms          rms(c)
DAV:   1     0.259884886954E+04    0.25988E+04   -0.98234E+04 58400   0.200E+03
DAV:   2     0.872957629047E+02   -0.25116E+04   -0.23578E+04 58176   0.570E+02
DAV:   3    -0.245514542016E+03   -0.33281E+03   -0.29943E+03 60224   0.209E+02
DAV:   4    -0.263122507334E+03   -0.17608E+02   -0.17281E+02 63472   0.480E+01
DAV:   5    -0.263386004623E+03   -0.26350E+00   -0.26325E+00 62736   0.625E+00    0.829E+00
DAV:   6    -0.237500275168E+03    0.25886E+02   -0.11916E+01 62000   0.178E+01    0.144E+01
DAV:   7    -0.237132412545E+03    0.36786E+00   -0.71262E-01 61400   0.484E+00    0.465E+00
DAV:   8    -0.237063602113E+03    0.68810E-01   -0.13485E-01 64824   0.198E+00    0.265E+00
DAV:   9    -0.237058434005E+03    0.51681E-02   -0.24411E-02 62456   0.102E+00    0.214E+00
DAV:  10    -0.237054979244E+03    0.34548E-02   -0.47521E-03 63088   0.549E-01    0.184E+00
DAV:  11    -0.237051476833E+03    0.35024E-02   -0.26135E-03 63488   0.251E-01    0.153E+00
DAV:  12    -0.237046431801E+03    0.50450E-02   -0.39923E-03 63080   0.326E-01    0.111E+00
DAV:  13    -0.237045210474E+03    0.12213E-02   -0.76322E-04 63408   0.151E-01    0.970E-01
DAV:  14    -0.237044668799E+03    0.54168E-03   -0.18331E-04 63152   0.781E-02    0.896E-01
DAV:  15    -0.237043737955E+03    0.93084E-03   -0.24817E-04 63144   0.825E-02    0.787E-01
DAV:  16    -0.237041589461E+03    0.21485E-02   -0.17146E-03 62544   0.215E-01    0.493E-01
DAV:  17    -0.237040421391E+03    0.11681E-02   -0.10093E-03 63792   0.159E-01    0.278E-01
DAV:  18    -0.237039844087E+03    0.57730E-03   -0.39633E-04 63408   0.969E-02    0.145E-01
DAV:  19    -0.237039456594E+03    0.38749E-03   -0.18342E-04 63680   0.665E-02    0.519E-02
DAV:  20    -0.237039345182E+03    0.11141E-03   -0.27584E-05 44008   0.242E-02    0.258E-02
DAV:  21    -0.237039296145E+03    0.49036E-04   -0.50493E-06 32800   0.115E-02    0.162E-02
DAV:  22    -0.237039278912E+03    0.17234E-04   -0.17804E-06 32048   0.666E-03    0.118E-02
DAV:  23    -0.237039273166E+03    0.57457E-05   -0.85792E-07 31712   0.509E-03
   1 F= -.23703927E+03 E0= -.23703684E+03  d E =-.237039E+03  mag=    37.1454
       N       E                     dE             d eps       ncg     rms          rms(c)
DAV:   1    -0.237140296485E+03   -0.10102E+00   -0.11652E+00 62104   0.692E+00    0.292E+00
DAV:   2    -0.237044435388E+03    0.95861E-01   -0.41411E-01 62936   0.400E+00    0.279E+00
DAV:   3    -0.237044917942E+03   -0.48255E-03   -0.22508E-02 61048   0.959E-01    0.495E-01
DAV:   4    -0.237040912412E+03    0.40055E-02   -0.63885E-03 64264   0.743E-01    0.398E-01
DAV:   5    -0.237040966664E+03   -0.54252E-04   -0.37718E-03 62760   0.771E-01    0.354E-01
DAV:   6    -0.237040719303E+03    0.24736E-03   -0.11546E-03 61800   0.417E-01    0.854E-02
DAV:   7    -0.237040878716E+03   -0.15941E-03   -0.30790E-04 64912   0.121E-01    0.719E-02
DAV:   8    -0.237040842846E+03    0.35870E-04   -0.97936E-05 61280   0.106E-01    0.475E-02
DAV:   9    -0.237040752921E+03    0.89924E-04   -0.29414E-05 49064   0.590E-02    0.288E-02
DAV:  10    -0.237040737687E+03    0.15234E-04   -0.16393E-05 36512   0.468E-02    0.122E-02
DAV:  11    -0.237040753672E+03   -0.15985E-04   -0.68982E-06 32184   0.240E-02    0.113E-02
DAV:  12    -0.237040742985E+03    0.10687E-04   -0.32715E-06 31304   0.177E-02    0.625E-03
DAV:  13    -0.237040701327E+03    0.41658E-04   -0.29027E-06 30896   0.114E-02    0.396E-03
DAV:  14    -0.237040689941E+03    0.11386E-04   -0.18764E-06 30512   0.721E-03    0.320E-03
DAV:  15    -0.237040683437E+03    0.65040E-05   -0.73035E-07 30216   0.560E-03
   2 F= -.23704068E+03 E0= -.23703825E+03  d E =-.141027E-02  mag=    37.1966
       N       E                     dE             d eps       ncg     rms          rms(c)
DAV:   1    -0.237045917656E+03   -0.52277E-02   -0.57448E-02 62176   0.153E+00    0.648E-01
DAV:   2    -0.237042219075E+03    0.36986E-02   -0.20354E-02 62880   0.887E-01    0.617E-01
DAV:   3    -0.237040642376E+03    0.15767E-02   -0.11113E-03 60984   0.216E-01    0.109E-01
DAV:   4    -0.237040875390E+03   -0.23301E-03   -0.31285E-04 64320   0.164E-01    0.894E-02
DAV:   5    -0.237040798720E+03    0.76670E-04   -0.18347E-04 61640   0.173E-01    0.770E-02
DAV:   6    -0.237040720897E+03    0.77823E-04   -0.55100E-05 55200   0.875E-02    0.192E-02
DAV:   7    -0.237040679279E+03    0.41617E-04   -0.13021E-05 35624   0.296E-02    0.165E-02
DAV:   8    -0.237040689402E+03   -0.10123E-04   -0.59305E-06 30904   0.264E-02    0.107E-02
DAV:   9    -0.237040711908E+03   -0.22506E-04   -0.21668E-06 29864   0.146E-02    0.627E-03
DAV:  10    -0.237040719997E+03   -0.80882E-05   -0.11574E-06 29576   0.107E-02
   3 F= -.23704072E+03 E0= -.23703829E+03  d E =-.144683E-02  mag=    37.1855
       N       E                     dE             d eps       ncg     rms          rms(c)
DAV:   1    -0.237046054941E+03   -0.53430E-02   -0.61181E-02 62176   0.158E+00    0.668E-01
DAV:   2    -0.237042114949E+03    0.39400E-02   -0.21650E-02 62912   0.915E-01    0.636E-01
DAV:   3    -0.237040476440E+03    0.16385E-02   -0.11839E-03 60952   0.223E-01    0.112E-01
DAV:   4    -0.237040712927E+03   -0.23649E-03   -0.33287E-04 64488   0.169E-01    0.918E-02
DAV:   5    -0.237040635262E+03    0.77664E-04   -0.19533E-04 61680   0.179E-01    0.795E-02
DAV:   6    -0.237040558316E+03    0.76946E-04   -0.58579E-05 55440   0.910E-02    0.201E-02
DAV:   7    -0.237040518130E+03    0.40185E-04   -0.14059E-05 36624   0.314E-02    0.175E-02
DAV:   8    -0.237040528647E+03   -0.10517E-04   -0.64494E-06 31520   0.274E-02    0.111E-02
DAV:   9    -0.237040554323E+03   -0.25676E-04   -0.24840E-06 30600   0.149E-02    0.663E-03
DAV:  10    -0.237040563988E+03   -0.96655E-05   -0.13597E-06 30024   0.113E-02
   4 F= -.23704056E+03 E0= -.23703814E+03  d E =-.129082E-02  mag=    37.1739
       N       E                     dE             d eps       ncg     rms          rms(c)
DAV:   1    -0.237040757786E+03   -0.20346E-03   -0.24432E-03 62224   0.316E-01    0.134E-01
DAV:   2    -0.237040750539E+03    0.72466E-05   -0.86369E-04 63016   0.183E-01    0.127E-01
DAV:   3    -0.237040469697E+03    0.28084E-03   -0.47274E-05 57984   0.463E-02    0.227E-02
DAV:   4    -0.237040539713E+03   -0.70016E-04   -0.13887E-05 39360   0.384E-02    0.199E-02
DAV:   5    -0.237040524179E+03    0.15534E-04   -0.83422E-06 30760   0.371E-02    0.153E-02
DAV:   6    -0.237040510217E+03    0.13961E-04   -0.32259E-06 29680   0.176E-02    0.413E-03
DAV:   7    -0.237040511187E+03   -0.96981E-06   -0.91908E-07 29528   0.689E-03
   5 F= -.23704051E+03 E0= -.23703808E+03  d E =-.123802E-02  mag=    37.1716
       N       E                     dE             d eps       ncg     rms          rms(c)
DAV:   1    -0.237040532296E+03   -0.22079E-04   -0.14810E-04 56072   0.782E-02    0.326E-02
DAV:   2    -0.237040483336E+03    0.48961E-04   -0.53339E-05 52824   0.456E-02    0.314E-02
DAV:   3    -0.237040551478E+03   -0.68143E-04   -0.28751E-06 29312   0.121E-02    0.604E-03
DAV:   4    -0.237040534891E+03    0.16587E-04   -0.84193E-07 29280   0.105E-02    0.539E-03
DAV:   5    -0.237040538683E+03   -0.37919E-05   -0.50103E-07 29264   0.959E-03    0.353E-03
DAV:   6    -0.237040544721E+03   -0.60380E-05   -0.20533E-07 29240   0.399E-03
   6 F= -.23704054E+03 E0= -.23703812E+03  d E =-.127155E-02  mag=    37.1719
       N       E                     dE             d eps       ncg     rms          rms(c)
DAV:   1    -0.237039402022E+03    0.11367E-02   -0.29707E-02 79528   0.242E+00    0.182E-01
DAV:   2    -0.237041081141E+03   -0.16791E-02   -0.12876E-02 60320   0.464E-01    0.110E-01
DAV:   3    -0.237040911859E+03    0.16928E-03   -0.52139E-04 66248   0.155E-01    0.684E-02
DAV:   4    -0.237040829643E+03    0.82216E-04   -0.94783E-05 63472   0.131E-01    0.569E-02
DAV:   5    -0.237040807288E+03    0.22355E-04   -0.46940E-05 58592   0.898E-02    0.168E-02
DAV:   6    -0.237040783617E+03    0.23670E-04   -0.18596E-05 34800   0.331E-02    0.108E-02
DAV:   7    -0.237040779664E+03    0.39534E-05   -0.60516E-06 31264   0.211E-02
   7 F= -.23704078E+03 E0= -.23703835E+03  d E =-.234943E-03  mag=    37.1728
       N       E                     dE             d eps       ncg     rms          rms(c)
DAV:   1    -0.237040760164E+03    0.23453E-04   -0.64007E-04 80048   0.355E-01    0.264E-02
DAV:   2    -0.237040832060E+03   -0.71896E-04   -0.28247E-04 61136   0.681E-02    0.159E-02
DAV:   3    -0.237040798084E+03    0.33976E-04   -0.10362E-05 33208   0.219E-02    0.956E-03
DAV:   4    -0.237040783160E+03    0.14924E-04   -0.26040E-06 30272   0.188E-02    0.859E-03
DAV:   5    -0.237040775348E+03    0.78121E-05   -0.16936E-06 29848   0.146E-02    0.322E-03
DAV:   6    -0.237040767759E+03    0.75890E-05   -0.91601E-07 29640   0.591E-03
   8 F= -.23704077E+03 E0= -.23703834E+03  d E =-.223037E-03  mag=    37.1728
       N       E                     dE             d eps       ncg     rms          rms(c)
DAV:   1    -0.237040675614E+03    0.99734E-04   -0.25634E-03 79840   0.711E-01    0.532E-02
DAV:   2    -0.237040890326E+03   -0.21471E-03   -0.11154E-03 60736   0.136E-01    0.321E-02
DAV:   3    -0.237040834721E+03    0.55606E-04   -0.44409E-05 50944   0.449E-02    0.195E-02
DAV:   4    -0.237040812205E+03    0.22516E-04   -0.81079E-06 32008   0.385E-02    0.170E-02
DAV:   5    -0.237040805015E+03    0.71894E-05   -0.44519E-06 30560   0.273E-02    0.524E-03
DAV:   6    -0.237040796177E+03    0.88380E-05   -0.23893E-06 29928   0.104E-02
   9 F= -.23704080E+03 E0= -.23703836E+03  d E =-.251456E-03  mag=    37.1730
       N       E                     dE             d eps       ncg     rms          rms(c)
DAV:   1    -0.237040371530E+03    0.43349E-03   -0.10240E-02 79632   0.142E+00    0.107E-01
DAV:   2    -0.237041034379E+03   -0.66285E-03   -0.44476E-03 60568   0.272E-01    0.642E-02
DAV:   3    -0.237040927796E+03    0.10658E-03   -0.17910E-04 66376   0.892E-02    0.392E-02
DAV:   4    -0.237040882732E+03    0.45064E-04   -0.31361E-05 50552   0.755E-02    0.336E-02
DAV:   5    -0.237040869708E+03    0.13024E-04   -0.15860E-05 34664   0.534E-02    0.102E-02
DAV:   6    -0.237040854005E+03    0.15703E-04   -0.77780E-06 31264   0.205E-02    0.700E-03
DAV:   7    -0.237040850922E+03    0.30831E-05   -0.26072E-06 30352   0.129E-02
  10 F= -.23704085E+03 E0= -.23703842E+03  d E =-.306201E-03  mag=    37.1734
       N       E                     dE             d eps       ncg     rms          rms(c)
DAV:   1    -0.237039030249E+03    0.18238E-02   -0.35992E-02 80112   0.279E+00    0.179E-01
DAV:   2    -0.237041016002E+03   -0.19858E-02   -0.15681E-02 59536   0.470E-01    0.967E-02
DAV:   3    -0.237041007325E+03    0.86774E-05   -0.62462E-04 65224   0.168E-01    0.557E-02
DAV:   4    -0.237040982144E+03    0.25180E-04   -0.70689E-05 61312   0.876E-02    0.308E-02
DAV:   5    -0.237040968258E+03    0.13886E-04   -0.16806E-05 36728   0.436E-02    0.161E-02
DAV:   6    -0.237040946061E+03    0.22196E-04   -0.94587E-06 31920   0.277E-02    0.115E-02
DAV:   7    -0.237040946733E+03   -0.67161E-06   -0.52125E-06 30680   0.215E-02
  11 F= -.23704095E+03 E0= -.23703851E+03  d E =-.958111E-04  mag=    37.1735
