unknown system                          
           1
     0.003538   -0.001900   -4.784923
    -4.670607   -4.651294   -2.387553
    -4.675573    4.654248   -2.393374
   Fe   P 
    12     4
Direct configuration=     1
   0.12108798  0.02622130  0.18116791
   0.33279639  0.97279735  0.81908502
   0.69486263  0.18564795  0.97546831
   0.85585547  0.82021066  0.02452564
   0.94140478  0.68289102  0.40413460
   0.02832173  0.31472932  0.59677132
   0.65229997  0.40459602  0.31676278
   0.37460254  0.59581149  0.68321050
   0.55610070  0.05686158  0.37626329
   0.99029020  0.94194941  0.62420172
   0.06720735  0.37604741  0.94234677
   0.38625737  0.62351835  0.05635683
   0.43757560  0.76599783  0.34295230
   0.54729774  0.23358285  0.65571863
   0.21568860  0.34475613  0.23521945
   0.79835094  0.65438135  0.76581493
unknown system                          
           1
     0.003753   -0.001935   -4.795059
    -4.677188   -4.657953   -2.392391
    -4.682156    4.660952   -2.398378
   Fe   P 
    12     4
Direct configuration=     2
   0.12120080  0.02620258  0.18115274
   0.33286383  0.97279444  0.81901549
   0.69470113  0.18564246  0.97554724
   0.85583971  0.82022184  0.02452824
   0.94133673  0.68297422  0.40415728
   0.02833506  0.31467729  0.59668056
   0.65211041  0.40455646  0.31676021
   0.37456420  0.59579858  0.68314891
   0.55624926  0.05690748  0.37629218
   0.99041473  0.94187040  0.62422434
   0.06724567  0.37595255  0.94229934
   0.38619803  0.62354054  0.05640134
   0.43759939  0.76602250  0.34298788
   0.54733594  0.23363047  0.65569346
   0.21568053  0.34484941  0.23527034
   0.79832458  0.65435878  0.76584044
unknown system                          
           1
     0.003705   -0.001927   -4.792804
    -4.675724   -4.656472   -2.391315
    -4.680691    4.659461   -2.397265
   Fe   P 
    12     4
Direct configuration=     3
   0.12117575  0.02620674  0.18115611
   0.33284885  0.97279508  0.81903094
   0.69473699  0.18564368  0.97552970
   0.85584321  0.82021936  0.02452766
   0.94135185  0.68295574  0.40415224
   0.02833209  0.31468885  0.59670073
   0.65215249  0.40456525  0.31676078
   0.37457271  0.59580145  0.68316259
   0.55621628  0.05689728  0.37628576
   0.99038708  0.94188795  0.62421932
   0.06723715  0.37597363  0.94230988
   0.38621121  0.62353561  0.05639145
   0.43759411  0.76601701  0.34297997
   0.54732746  0.23361989  0.65569905
   0.21568233  0.34482869  0.23525903
   0.79833044  0.65436379  0.76583477
unknown system                          
           1
     0.003656   -0.001919   -4.790478
    -4.674214   -4.654944   -2.390205
    -4.679181    4.657923   -2.396117
   Fe   P 
    12     4
Direct configuration=     4
   0.12114990  0.02621103  0.18115959
   0.33283340  0.97279575  0.81904687
   0.69477399  0.18564494  0.97551162
   0.85584682  0.82021679  0.02452706
   0.94136744  0.68293667  0.40414704
   0.02832903  0.31470078  0.59672153
   0.65219591  0.40457431  0.31676137
   0.37458149  0.59580440  0.68317671
   0.55618226  0.05688676  0.37627914
   0.99035856  0.94190606  0.62421413
   0.06722837  0.37599537  0.94232075
   0.38622481  0.62353053  0.05638125
   0.43758867  0.76601136  0.34297182
   0.54731871  0.23360898  0.65570482
   0.21568419  0.34480731  0.23524737
   0.79833647  0.65436896  0.76582892
unknown system                          
           1
     0.003646   -0.001917   -4.790015
    -4.673913   -4.654639   -2.389983
    -4.678879    4.657616   -2.395888
   Fe   P 
    12     4
Direct configuration=     5
   0.12114474  0.02621189  0.18116028
   0.33283032  0.97279588  0.81905005
   0.69478137  0.18564519  0.97550801
   0.85584754  0.82021628  0.02452694
   0.94137055  0.68293287  0.40414601
   0.02832842  0.31470316  0.59672568
   0.65220458  0.40457612  0.31676149
   0.37458324  0.59580500  0.68317953
   0.55617547  0.05688466  0.37627782
   0.99035286  0.94190967  0.62421310
   0.06722661  0.37599970  0.94232292
   0.38622752  0.62352951  0.05637922
   0.43758758  0.76601023  0.34297019
   0.54731696  0.23360680  0.65570597
   0.21568456  0.34480304  0.23524504
   0.79833768  0.65437000  0.76582776
unknown system                          
           1
     0.003649   -0.001918   -4.790130
    -4.673988   -4.654715   -2.390038
    -4.678954    4.657692   -2.395945
   Fe   P 
    12     4
Direct configuration=     6
   0.12114602  0.02621167  0.18116011
   0.33283108  0.97279585  0.81904926
   0.69477954  0.18564512  0.97550890
   0.85584736  0.82021641  0.02452697
   0.94136978  0.68293381  0.40414626
   0.02832857  0.31470257  0.59672465
   0.65220243  0.40457567  0.31676146
   0.37458280  0.59580485  0.68317883
   0.55617715  0.05688518  0.37627815
   0.99035427  0.94190878  0.62421335
   0.06722705  0.37599863  0.94232238
   0.38622685  0.62352976  0.05637972
   0.43758785  0.76601051  0.34297060
   0.54731740  0.23360734  0.65570569
   0.21568447  0.34480410  0.23524562
   0.79833738  0.65436974  0.76582805
unknown system                          
           1
     0.003712   -0.002031   -4.791608
    -4.673131   -4.654007   -2.390774
    -4.678448    4.657311   -2.396680
   Fe   P 
    12     4
Direct configuration=     7
   0.12124280  0.02619903  0.18107427
   0.33289603  0.97285250  0.81900877
   0.69472894  0.18559033  0.97559952
   0.85585168  0.82023688  0.02454149
   0.94133887  0.68297921  0.40417021
   0.02842142  0.31461807  0.59662778
   0.65202789  0.40452319  0.31665284
   0.37462104  0.59579687  0.68313207
   0.55616573  0.05692663  0.37627915
   0.99025933  0.94191076  0.62430461
   0.06731580  0.37588088  0.94234079
   0.38617603  0.62357890  0.05643314
   0.43762775  0.76605636  0.34300146
   0.54737937  0.23362534  0.65569006
   0.21563872  0.34489818  0.23526867
   0.79830860  0.65432688  0.76587517
unknown system                          
           1
     0.003721   -0.002048   -4.791825
    -4.673005   -4.653903   -2.390882
    -4.678373    4.657255   -2.396788
   Fe   P 
    12     4
Direct configuration=     8
   0.12125700  0.02619717  0.18106167
   0.33290555  0.97286081  0.81900283
   0.69472152  0.18558229  0.97561282
   0.85585231  0.82023988  0.02454362
   0.94133433  0.68298587  0.40417372
   0.02843505  0.31460567  0.59661357
   0.65200229  0.40451549  0.31663690
   0.37462666  0.59579570  0.68312520
   0.55616405  0.05693271  0.37627930
   0.99024540  0.94191105  0.62431800
   0.06732882  0.37586360  0.94234349
   0.38616857  0.62358611  0.05644098
   0.43763360  0.76606309  0.34300599
   0.54738846  0.23362798  0.65568776
   0.21563201  0.34491198  0.23527205
   0.79830438  0.65432059  0.76588209
unknown system                          
           1
     0.003739   -0.002081   -4.792259
    -4.672754   -4.653696   -2.391098
    -4.678225    4.657143   -2.397004
   Fe   P 
    12     4
Direct configuration=     9
   0.12128540  0.02619346  0.18103648
   0.33292460  0.97287744  0.81899095
   0.69470668  0.18556621  0.97563942
   0.85585358  0.82024589  0.02454789
   0.94132526  0.68299920  0.40418075
   0.02846230  0.31458087  0.59658514
   0.65195111  0.40450008  0.31660502
   0.37463788  0.59579336  0.68311148
   0.55616070  0.05694488  0.37627959
   0.99021755  0.94191164  0.62434479
   0.06735487  0.37582904  0.94234889
   0.38615366  0.62360053  0.05645666
   0.43764529  0.76607654  0.34301504
   0.54740663  0.23363326  0.65568318
   0.21561858  0.34493959  0.23527881
   0.79829594  0.65430801  0.76589592
unknown system                          
           1
     0.003776   -0.002147   -4.793127
    -4.672251   -4.653280   -2.391530
    -4.677928    4.656920   -2.397436
   Fe   P 
    12     4
Direct configuration=    10
   0.12134218  0.02618604  0.18098609
   0.33296270  0.97291070  0.81896718
   0.69467699  0.18553405  0.97569260
   0.85585610  0.82025791  0.02455641
   0.94130711  0.68302585  0.40419481
   0.02851681  0.31453127  0.59652829
   0.65184875  0.40446927  0.31654127
   0.37466032  0.59578868  0.68308403
   0.55615398  0.05696921  0.37628019
   0.99016183  0.94191280  0.62439835
   0.06740695  0.37575991  0.94235969
   0.38612382  0.62362937  0.05648801
   0.43766868  0.76610346  0.34303316
   0.54744298  0.23364382  0.65567400
   0.21559172  0.34499481  0.23529234
   0.79827905  0.65428284  0.76592358
unknown system                          
           1
     0.003647   -0.002097   -4.793620
    -4.671970   -4.652717   -2.391770
    -4.678123    4.657036   -2.398136
   Fe   P 
    12     4
Direct configuration=    11
   0.12140627  0.02621411  0.18099660
   0.33306359  0.97285716  0.81893954
   0.69467408  0.18547698  0.97576120
   0.85587223  0.82020175  0.02455232
   0.94128003  0.68310400  0.40420645
   0.02862971  0.31453554  0.59651952
   0.65176825  0.40444887  0.31625291
   0.37466107  0.59579576  0.68307711
   0.55612711  0.05702958  0.37626458
   0.99012274  0.94178507  0.62447095
   0.06748382  0.37569315  0.94238214
   0.38608007  0.62366654  0.05648907
   0.43765323  0.76617366  0.34312124
   0.54751960  0.23370012  0.65566209
   0.21539844  0.34512386  0.23530162
   0.79825976  0.65419386  0.76600267
