       N       E                     dE             d eps       ncg     rms          ort
DAV:   1     0.251691965365E+04    0.25169E+04   -0.15740E+05 11088   0.159E+03
DAV:   2    -0.177160294534E+03   -0.26941E+04   -0.25399E+04 11088   0.430E+02
DAV:   3    -0.428579282308E+03   -0.25142E+03   -0.24554E+03 11088   0.148E+02
DAV:   4    -0.436906831569E+03   -0.83275E+01   -0.79871E+01 11088   0.275E+01
DAV:   5    -0.437333862280E+03   -0.42703E+00   -0.42004E+00 11088   0.468E+00
SDA:   6    -0.168409633256E+03    0.26892E+03   -0.42004E+00 11088   0.378E+04 0.000E+00
CGA:   7    -0.296005742874E+03   -0.12760E+03   -0.38558E+03 11088   0.640E+03-0.145E+03
CGA:   8    -0.287012652416E+03    0.89931E+01   -0.37540E+02 11088   0.245E+03-0.109E+02
CGA:   9    -0.286903465858E+03    0.10919E+00   -0.86336E+01 11088   0.720E+03 0.715E+02
CGA:  10    -0.280307575202E+03    0.65959E+01   -0.33850E+02 11088   0.880E+03-0.359E+03
CGA:  11    -0.316218595889E+03   -0.35911E+02   -0.93959E+01 11088   0.125E+03-0.496E+03
CGA:  12    -0.320149366800E+03   -0.39308E+01   -0.50505E+01 11088   0.256E+03-0.889E+01
CGA:  13    -0.324602085759E+03   -0.44527E+01   -0.10103E+02 11088   0.844E+02-0.985E+02
CGA:  14    -0.326761978308E+03   -0.21599E+01   -0.20824E+01 11088   0.363E+02-0.122E+01
CGA:  15    -0.328397629958E+03   -0.16357E+01   -0.79811E+00 11088   0.134E+02 0.225E+02
CGA:  16    -0.329523385898E+03   -0.11258E+01   -0.10740E+01 11088   0.280E+02 0.682E+00
CGA:  17    -0.330552746138E+03   -0.10294E+01   -0.90655E+00 11088   0.149E+02-0.913E+01
CGA:  18    -0.331115502192E+03   -0.56276E+00   -0.53116E+00 11088   0.220E+02-0.755E+00
CGA:  19    -0.330628251525E+03    0.48725E+00   -0.53215E+00 11088   0.110E+03-0.501E+02
CGA:  20    -0.330451907389E+03    0.17634E+00   -0.65010E+01 11088   0.263E+02-0.669E+01
CGA:  21    -0.331045792920E+03   -0.59389E+00   -0.37454E+00 11088   0.254E+02 0.165E+02
CGA:  22    -0.331880593589E+03   -0.83480E+00   -0.35422E+00 11088   0.269E+02 0.372E+02
CGA:  23    -0.332407792410E+03   -0.52720E+00   -0.42248E+00 11088   0.477E+01-0.545E+01
CGA:  24    -0.332656995893E+03   -0.24920E+00   -0.25119E+00 11088   0.674E+01 0.778E-01
CGA:  25    -0.332886238916E+03   -0.22924E+00   -0.15136E+00 11088   0.222E+01 0.339E+01
CGA:  26    -0.333041975992E+03   -0.15574E+00   -0.17123E+00 11088   0.200E+01 0.165E+00
CGA:  27    -0.333284501973E+03   -0.24253E+00   -0.26031E+00 11088   0.813E+01-0.566E+00
CGA:  28    -0.333407445474E+03   -0.12294E+00   -0.10432E+00 11088   0.290E+01-0.149E+00
CGA:  29    -0.333408485152E+03   -0.10397E-02   -0.61301E-01 11088   0.309E+01-0.213E+01
CGA:  30    -0.333468264647E+03   -0.59779E-01   -0.97931E-01 11088   0.467E+01-0.928E+00
CGA:  31    -0.333572357367E+03   -0.10409E+00   -0.14877E+00 11088   0.515E+01-0.272E+00
CGA:  32    -0.333676357994E+03   -0.10400E+00   -0.18437E+00 11088   0.285E+01-0.932E+00
CGA:  33    -0.333746254853E+03   -0.69897E-01   -0.69951E-01 11088   0.671E+00-0.179E-01
CGA:  34    -0.333802232787E+03   -0.55978E-01   -0.55988E-01 11088   0.422E+00-0.119E-01
CGA:  35    -0.333844034318E+03   -0.41802E-01   -0.41399E-01 11088   0.766E+00-0.356E-02
CGA:  36    -0.333898712944E+03   -0.54679E-01   -0.54711E-01 11088   0.684E+00-0.392E-01
CGA:  37    -0.333950029277E+03   -0.51316E-01   -0.51457E-01 11088   0.305E+00 0.245E-02
CGA:  38    -0.333969901752E+03   -0.19872E-01   -0.19884E-01 11088   0.204E+00-0.504E-02
CGA:  39    -0.333984997622E+03   -0.15096E-01   -0.15066E-01 11088   0.101E+00-0.864E-02
CGA:  40    -0.333999627039E+03   -0.14629E-01   -0.25544E-01 11088   0.736E+00-0.589E-01
CGA:  41    -0.334020153147E+03   -0.20526E-01   -0.21331E-01 11088   0.382E-01-0.282E-01
CGA:  42    -0.334029046671E+03   -0.88935E-02   -0.10718E-01 11088   0.133E+00-0.878E-02
CGA:  43    -0.334034356519E+03   -0.53098E-02   -0.53529E-02 11088   0.575E-01-0.493E-02
CGA:  44    -0.334040752101E+03   -0.63956E-02   -0.10814E-01 11088   0.222E+00-0.472E-01
CGA:  45    -0.334052949355E+03   -0.12197E-01   -0.11883E-01 11088   0.698E-01-0.132E-01
CGA:  46    -0.334056886451E+03   -0.39371E-02   -0.36824E-02 11088   0.287E-01-0.714E-02
CGA:  47    -0.334065705105E+03   -0.88187E-02   -0.76114E-02 11088   0.865E-01 0.641E-02
CGA:  48    -0.334076463108E+03   -0.10758E-01   -0.62690E-02 11088   0.213E+00 0.471E-01
CGA:  49    -0.334090677889E+03   -0.14215E-01   -0.13941E-01 11088   0.892E-01-0.172E-01
CGA:  50    -0.334111863765E+03   -0.21186E-01   -0.26243E-01 11088   0.803E+00-0.290E-01
CGA:  51    -0.334126078145E+03   -0.14214E-01   -0.88605E-02 11088   0.104E+01 0.266E+00
CGA:  52    -0.334151551007E+03   -0.25473E-01   -0.38711E-01 11088   0.252E+01-0.721E+00
CGA:  53    -0.334237307166E+03   -0.85756E-01   -0.10758E+00 11088   0.776E+00-0.456E+00
CGA:  54    -0.334341913521E+03   -0.10461E+00   -0.11319E+00 11088   0.102E+01-0.104E+00
CGA:  55    -0.334413178401E+03   -0.71265E-01   -0.76090E-01 11088   0.203E+00 0.583E-01
CGA:  56    -0.334444721712E+03   -0.31543E-01   -0.47185E-01 11088   0.105E+01-0.147E+00
CGA:  57    -0.334480258934E+03   -0.35537E-01   -0.32697E-01 11088   0.659E-01 0.331E-01
CGA:  58    -0.334498419278E+03   -0.18160E-01   -0.16675E-01 11088   0.101E+00 0.109E-01
CGA:  59    -0.334506472220E+03   -0.80529E-02   -0.79398E-02 11088   0.114E+00 0.880E-02
CGA:  60    -0.334525837267E+03   -0.19365E-01   -0.19057E-01 11088   0.180E+00 0.600E-02
CGA:  61    -0.334535300630E+03   -0.94634E-02   -0.96648E-02 11088   0.108E+00-0.278E-02
CGA:  62    -0.334545549690E+03   -0.10249E-01   -0.10241E-01 11088   0.105E+00 0.359E-02
CGA:  63    -0.334556350357E+03   -0.10801E-01   -0.10871E-01 11088   0.191E-01 0.658E-02
CGA:  64    -0.334558114738E+03   -0.17644E-02   -0.18149E-02 11088   0.372E-01 0.173E-02
CGA:  65    -0.334562211728E+03   -0.40970E-02   -0.41080E-02 11088   0.235E-01 0.205E-02
CGA:  66    -0.334564028933E+03   -0.18172E-02   -0.19165E-02 11088   0.225E-01 0.214E-02
CGA:  67    -0.334566252624E+03   -0.22237E-02   -0.22498E-02 11088   0.282E-01 0.247E-02
CGA:  68    -0.334570060612E+03   -0.38080E-02   -0.37094E-02 11088   0.153E-01 0.458E-02
CGA:  69    -0.334572368840E+03   -0.23082E-02   -0.23585E-02 11088   0.319E-01-0.234E-02
CGA:  70    -0.334575173939E+03   -0.28051E-02   -0.28058E-02 11088   0.161E-01-0.629E-02
CGA:  71    -0.334498889719E+03    0.76284E-01   -0.24162E-01 11088   0.164E+01-0.220E+00
CGA:  72    -0.334568476468E+03   -0.69587E-01   -0.12877E+00 11088   0.283E+00-0.376E+00
CGA:  73    -0.334586821230E+03   -0.18345E-01   -0.14776E-01 11088   0.250E-01 0.446E-01
CGA:  74    -0.334588956226E+03   -0.21350E-02   -0.19823E-02 11088   0.151E-01 0.218E-02
CGA:  75    -0.334592444161E+03   -0.34879E-02   -0.36014E-02 11088   0.271E-01-0.262E-02
CGA:  76    -0.334594844537E+03   -0.24004E-02   -0.22440E-02 11088   0.205E-01-0.437E-02
CGA:  77    -0.334596960024E+03   -0.21155E-02   -0.16503E-02 11088   0.117E-01-0.269E-02
CGA:  78    -0.334598318367E+03   -0.13583E-02   -0.94506E-03 11088   0.149E-01-0.221E-02
CGA:  79    -0.334599883063E+03   -0.15647E-02   -0.89552E-03 11088   0.196E-01-0.195E-02
CGA:  80    -0.334601182759E+03   -0.12997E-02   -0.76794E-03 11088   0.124E-01-0.242E-02
CGA:  81    -0.334601959086E+03   -0.77633E-03   -0.59097E-03 11088   0.605E-02-0.447E-02
CGA:  82    -0.334602474056E+03   -0.51497E-03   -0.45284E-03 11088   0.891E-02-0.213E-02
CGA:  83    -0.334603036034E+03   -0.56198E-03   -0.40730E-03 11088   0.489E-02-0.841E-03
CGA:  84    -0.334603352811E+03   -0.31678E-03   -0.26388E-03 11088   0.413E-02-0.153E-04
CGA:  85    -0.334603823607E+03   -0.47080E-03   -0.44501E-03 11088   0.706E-02-0.502E-03
CGA:  86    -0.334604220750E+03   -0.39714E-03   -0.34732E-03 11088   0.406E-02-0.685E-03
CGA:  87    -0.334604429226E+03   -0.20848E-03   -0.16992E-03 11088   0.198E-02-0.671E-03
CGA:  88    -0.334604630458E+03   -0.20123E-03   -0.18826E-03 11088   0.414E-02-0.794E-03
CGA:  89    -0.334604811227E+03   -0.18077E-03   -0.13570E-03 11088   0.360E-02-0.423E-03
CGA:  90    -0.334604917647E+03   -0.10642E-03   -0.10108E-03 11088   0.191E-02 0.439E-03
CGA:  91    -0.334604962284E+03   -0.44637E-04   -0.74854E-04 11088   0.165E-02 0.494E-03
CGA:  92    -0.334604999384E+03   -0.37100E-04   -0.85372E-04 11088   0.190E-02 0.754E-03
CGA:  93    -0.334605053217E+03   -0.53833E-04   -0.11422E-03 11088   0.149E-02 0.958E-03
CGA:  94    -0.334605213825E+03   -0.16061E-03   -0.15954E-03 11088   0.123E-02-0.417E-03
CGA:  95    -0.334604692758E+03    0.52107E-03   -0.26521E-03 11088   0.102E-01-0.221E-02
CGA:  96    -0.334605305695E+03   -0.61294E-03   -0.73062E-03 11088   0.200E-02 0.486E-03
CGA:  97    -0.334605401540E+03   -0.95845E-04   -0.17510E-03 11088   0.376E-03 0.720E-03
CGA:  98    -0.334605409296E+03   -0.77560E-05   -0.35002E-04 11088   0.191E-03 0.228E-03
CGA:  99    -0.334605434643E+03   -0.25347E-04   -0.27487E-04 11088   0.136E-03 0.554E-04
CGA: 100    -0.334605437857E+03   -0.32141E-05   -0.13123E-04 11088   0.395E-04 0.939E-04
   1 F= -.33460544E+03 E0= -.33460209E+03  d E =-.334605E+03  mag=     6.0001
       N       E                     dE             d eps       ncg     rms          ort
SDA:   1    -0.334635762612E+03   -0.30328E-01    0.00000E+00 11088   0.728E-02 0.000E+00
CGA:   2    -0.334636471275E+03   -0.70866E-03   -0.70806E-03 11088   0.509E-02 0.136E-03
CGA:   3    -0.334637447846E+03   -0.97657E-03   -0.97455E-03 11088   0.103E-02 0.877E-04
CGA:   4    -0.334637574172E+03   -0.12633E-03   -0.13755E-03 11088   0.293E-03 0.324E-03
CGA:   5    -0.334637633642E+03   -0.59470E-04   -0.59917E-04 11088   0.117E-03 0.495E-04
CGA:   6    -0.334637658449E+03   -0.24807E-04   -0.26918E-04 11088   0.224E-03-0.656E-04
CGA:   7    -0.334637663159E+03   -0.47101E-05   -0.10489E-04 11088   0.294E-04 0.500E-04
   2 F= -.33463766E+03 E0= -.33463444E+03  d E =-.322253E-01  mag=     6.0002
       N       E                     dE             d eps       ncg     rms          ort
SDA:   1    -0.334293854560E+03    0.34380E+00    0.00000E+00 11088   0.267E+01 0.000E+00
CGA:   2    -0.334734804656E+03   -0.44095E+00   -0.45950E+00 11088   0.430E+01-0.643E+00
CGA:   3    -0.335093524175E+03   -0.35872E+00   -0.36101E+00 11088   0.125E+01 0.729E-02
CGA:   4    -0.335177029188E+03   -0.83505E-01   -0.99122E-01 11088   0.482E+00-0.657E-01
CGA:   5    -0.335246472229E+03   -0.69443E-01   -0.69446E-01 11088   0.129E+00-0.817E-03
CGA:   6    -0.335259921409E+03   -0.13449E-01   -0.13364E-01 11088   0.551E-01 0.138E-02
CGA:   7    -0.335267968667E+03   -0.80473E-02   -0.80497E-02 11088   0.246E-01 0.108E-02
CGA:   8    -0.335271478440E+03   -0.35098E-02   -0.35126E-02 11088   0.112E-01 0.435E-03
CGA:   9    -0.335273095592E+03   -0.16172E-02   -0.16185E-02 11088   0.740E-02 0.635E-03
CGA:  10    -0.335274066222E+03   -0.97063E-03   -0.98912E-03 11088   0.263E-02 0.953E-03
CGA:  11    -0.335274422915E+03   -0.35669E-03   -0.37408E-03 11088   0.160E-02 0.921E-03
CGA:  12    -0.335274602128E+03   -0.17921E-03   -0.21260E-03 11088   0.583E-03 0.764E-03
CGA:  13    -0.335274688299E+03   -0.86172E-04   -0.98064E-04 11088   0.405E-03 0.443E-03
CGA:  14    -0.335274722442E+03   -0.34142E-04   -0.40067E-04 11088   0.237E-03 0.142E-03
CGA:  15    -0.335274729796E+03   -0.73548E-05   -0.23805E-04 11088   0.182E-03 0.260E-03
   3 F= -.33527473E+03 E0= -.33527314E+03  d E =-.637067E+00  mag=     6.0136
       N       E                     dE             d eps       ncg     rms          ort
SDA:   1    -0.332214109561E+03    0.30606E+01    0.00000E+00 11088   0.907E+01 0.000E+00
CGA:   2    -0.335039649654E+03   -0.28255E+01   -0.28935E+01 11088   0.692E+01-0.702E+00
CGA:   3    -0.335687781485E+03   -0.64813E+00   -0.70391E+00 11088   0.150E+01 0.600E+00
CGA:   4    -0.336009706076E+03   -0.32192E+00   -0.32188E+00 11088   0.336E+00-0.112E-03
CGA:   5    -0.336074041271E+03   -0.64335E-01   -0.64335E-01 11088   0.136E+00-0.294E-04
CGA:   6    -0.336100005429E+03   -0.25964E-01   -0.25871E-01 11088   0.481E-01 0.184E-02
CGA:   7    -0.336111617812E+03   -0.11612E-01   -0.11291E-01 11088   0.221E-01 0.378E-02
CGA:   8    -0.336117451263E+03   -0.58335E-02   -0.56941E-02 11088   0.830E-02 0.159E-02
CGA:   9    -0.336119550995E+03   -0.20997E-02   -0.19845E-02 11088   0.349E-02 0.169E-02
CGA:  10    -0.336120307449E+03   -0.75645E-03   -0.73556E-03 11088   0.112E-02 0.127E-02
CGA:  11    -0.336120603472E+03   -0.29602E-03   -0.28117E-03 11088   0.476E-03 0.593E-03
CGA:  12    -0.336120669486E+03   -0.66015E-04   -0.70085E-04 11088   0.262E-03 0.304E-03
CGA:  13    -0.336120688832E+03   -0.19346E-04   -0.29888E-04 11088   0.212E-03 0.229E-03
CGA:  14    -0.336120699282E+03   -0.10450E-04   -0.21470E-04 11088   0.185E-03 0.196E-03
CGA:  15    -0.336120704976E+03   -0.56935E-05   -0.16825E-04 11088   0.167E-03 0.174E-03
CGA:  16    -0.336120708283E+03   -0.33074E-05   -0.14019E-04 11088   0.153E-03 0.159E-03
CGA:  17    -0.336120710054E+03   -0.17713E-05   -0.11982E-04 11088   0.141E-03 0.146E-03
CGA:  18    -0.336120710793E+03   -0.73899E-06   -0.10421E-04 11088   0.132E-03 0.136E-03
   4 F= -.33612071E+03 E0= -.33612066E+03  d E =-.845981E+00  mag=     6.0000
       N       E                     dE             d eps       ncg     rms          ort
SDA:   1    -0.335351442785E+03    0.76927E+00    0.00000E+00 11088   0.218E+01 0.000E+00
CGA:   2    -0.336062866884E+03   -0.71142E+00   -0.70903E+00 11088   0.897E+00 0.146E-01
CGA:   3    -0.336218543447E+03   -0.15568E+00   -0.15554E+00 11088   0.338E+00 0.454E-02
CGA:   4    -0.336270834104E+03   -0.52291E-01   -0.52284E-01 11088   0.825E-01 0.957E-03
CGA:   5    -0.336285511855E+03   -0.14678E-01   -0.14681E-01 11088   0.304E-01-0.153E-03
CGA:   6    -0.336291373519E+03   -0.58617E-02   -0.58254E-02 11088   0.105E-01 0.858E-03
CGA:   7    -0.336293930412E+03   -0.25569E-02   -0.24530E-02 11088   0.450E-02 0.137E-02
CGA:   8    -0.336295127016E+03   -0.11966E-02   -0.11469E-02 11088   0.168E-02 0.716E-03
CGA:   9    -0.336295584554E+03   -0.45754E-03   -0.42619E-03 11088   0.643E-03 0.528E-03
CGA:  10    -0.336295758399E+03   -0.17384E-03   -0.16403E-03 11088   0.235E-03 0.309E-03
CGA:  11    -0.336295826588E+03   -0.68189E-04   -0.64702E-04 11088   0.115E-03 0.159E-03
CGA:  12    -0.336295844476E+03   -0.17889E-04   -0.18331E-04 11088   0.671E-04 0.770E-04
CGA:  13    -0.336295853229E+03   -0.87526E-05   -0.98433E-05 11088   0.557E-04 0.603E-04
   5 F= -.33629585E+03 E0= -.33629585E+03  d E =-.175142E+00  mag=     6.0000
       N       E                     dE             d eps       ncg     rms          ort
SDA:   1    -0.336071477856E+03    0.22437E+00    0.00000E+00 11088   0.619E+00 0.000E+00
CGA:   2    -0.336237716722E+03   -0.16624E+00   -0.16587E+00 11088   0.354E+00 0.334E-02
CGA:   3    -0.336294194495E+03   -0.56478E-01   -0.56487E-01 11088   0.108E+00 0.102E-02
CGA:   4    -0.336311268814E+03   -0.17074E-01   -0.17079E-01 11088   0.290E-01 0.416E-03
CGA:   5    -0.336316142612E+03   -0.48738E-02   -0.48738E-02 11088   0.904E-02-0.385E-04
CGA:   6    -0.336317910174E+03   -0.17676E-02   -0.17657E-02 11088   0.308E-02 0.619E-04
CGA:   7    -0.336318580298E+03   -0.67012E-03   -0.65371E-03 11088   0.122E-02 0.382E-03
CGA:   8    -0.336318883434E+03   -0.30314E-03   -0.29046E-03 11088   0.444E-03 0.298E-03
CGA:   9    -0.336319022996E+03   -0.13956E-03   -0.13232E-03 11088   0.200E-03 0.108E-03
CGA:  10    -0.336319087247E+03   -0.64251E-04   -0.60482E-04 11088   0.814E-04 0.549E-04
CGA:  11    -0.336319123449E+03   -0.36202E-04   -0.38609E-04 11088   0.643E-04-0.128E-04
CGA:  12    -0.336319140512E+03   -0.17063E-04   -0.17849E-04 11088   0.474E-04-0.608E-05
CGA:  13    -0.336319154518E+03   -0.14006E-04   -0.20961E-04 11088   0.826E-04-0.247E-04
CGA:  14    -0.336319175945E+03   -0.21426E-04   -0.25670E-04 11088   0.109E-03-0.422E-04
CGA:  15    -0.336319191719E+03   -0.15775E-04   -0.14464E-04 11088   0.232E-04-0.158E-04
CGA:  16    -0.336319203620E+03   -0.11900E-04    0.50502E-05 11088   0.845E-05 0.863E-05
CGA:  17    -0.336319216155E+03   -0.12536E-04    0.78352E-06 11088   0.714E-05 0.835E-05
CGA:  18    -0.336319224181E+03   -0.80254E-05    0.45434E-06 11088   0.722E-05 0.236E-05
   6 F= -.33631922E+03 E0= -.33631922E+03  d E =-.233710E-01  mag=     6.0000
       N       E                     dE             d eps       ncg     rms          ort
SDA:   1    -0.336150960804E+03    0.16826E+00    0.00000E+00 11088   0.526E+00 0.000E+00
CGA:   2    -0.336250383312E+03   -0.99423E-01   -0.99471E-01 11088   0.270E+00 0.185E-02
CGA:   3    -0.336300709752E+03   -0.50326E-01   -0.50337E-01 11088   0.104E+00 0.362E-03
CGA:   4    -0.336316313683E+03   -0.15604E-01   -0.15616E-01 11088   0.238E-01 0.157E-03
CGA:   5    -0.336320122442E+03   -0.38088E-02   -0.38076E-02 11088   0.665E-02-0.318E-04
CGA:   6    -0.336321424876E+03   -0.13024E-02   -0.13015E-02 11088   0.210E-02-0.128E-03
CGA:   7    -0.336321837142E+03   -0.41227E-03   -0.41265E-03 11088   0.711E-03 0.119E-03
CGA:   8    -0.336321996407E+03   -0.15927E-03   -0.15831E-03 11088   0.247E-03 0.124E-03
CGA:   9    -0.336322077174E+03   -0.80766E-04   -0.79829E-04 11088   0.119E-03 0.130E-04
CGA:  10    -0.336322114259E+03   -0.37085E-04   -0.37954E-04 11088   0.592E-04-0.921E-05
CGA:  11    -0.336321923129E+03    0.19113E-03   -0.10327E-03 11088   0.112E-02-0.235E-03
CGA:  12    -0.336322097628E+03   -0.17450E-03   -0.19053E-03 11088   0.149E-03 0.736E-04
CGA:  13    -0.336322154989E+03   -0.57361E-04   -0.56700E-04 11088   0.875E-04-0.371E-04
CGA:  14    -0.336322155791E+03   -0.80147E-06   -0.83022E-05 11088   0.445E-04 0.302E-04
   7 F= -.33632216E+03 E0= -.33632216E+03  d E =-.293161E-02  mag=     6.0000
       N       E                     dE             d eps       ncg     rms          ort
SDA:   1    -0.336126299356E+03    0.19586E+00    0.00000E+00 11088   0.670E+00 0.000E+00
CGA:   2    -0.336238534197E+03   -0.11223E+00   -0.11255E+00 11088   0.295E+00 0.110E-02
CGA:   3    -0.336296227439E+03   -0.57693E-01   -0.57707E-01 11088   0.133E+00 0.291E-04
CGA:   4    -0.336316473903E+03   -0.20246E-01   -0.20263E-01 11088   0.291E-01 0.372E-04
CGA:   5    -0.336320878618E+03   -0.44047E-02   -0.44173E-02 11088   0.720E-02 0.644E-04
CGA:   6    -0.336322267929E+03   -0.13893E-02   -0.13820E-02 11088   0.216E-02-0.588E-04
CGA:   7    -0.336322684017E+03   -0.41609E-03   -0.42259E-03 11088   0.653E-03 0.562E-04
CGA:   8    -0.336322823313E+03   -0.13930E-03   -0.14425E-03 11088   0.218E-03 0.544E-04
CGA:   9    -0.336322888163E+03   -0.64850E-04   -0.64890E-04 11088   0.973E-04 0.141E-05
CGA:  10    -0.336322911861E+03   -0.23697E-04   -0.24262E-04 11088   0.341E-04 0.109E-04
CGA:  11    -0.336322924745E+03   -0.12885E-04   -0.13310E-04 11088   0.189E-04-0.781E-05
CGA:  12    -0.336322926940E+03   -0.21945E-05   -0.26846E-05 11088   0.775E-05 0.423E-05
   8 F= -.33632293E+03 E0= -.33632293E+03  d E =-.771149E-03  mag=     6.0000
       N       E                     dE             d eps       ncg     rms          ort
SDA:   1    -0.334444152887E+03    0.18788E+01    0.00000E+00 11088   0.641E+01 0.000E+00
CGA:   2    -0.335515387240E+03   -0.10712E+01   -0.10748E+01 11088   0.278E+01 0.699E-02
CGA:   3    -0.336059641789E+03   -0.54425E+00   -0.54413E+00 11088   0.125E+01-0.132E-03
CGA:   4    -0.336250649938E+03   -0.19101E+00   -0.19096E+00 11088   0.274E+00-0.754E-03
CGA:   5    -0.336291878441E+03   -0.41229E-01   -0.41315E-01 11088   0.667E-01 0.516E-03
CGA:   6    -0.336304450225E+03   -0.12572E-01   -0.12581E-01 11088   0.194E-01 0.110E-03
CGA:   7    -0.336308361358E+03   -0.39111E-02   -0.39199E-02 11088   0.599E-02 0.138E-03
CGA:   8    -0.336309670896E+03   -0.13095E-02   -0.13199E-02 11088   0.205E-02 0.256E-03
CGA:   9    -0.336310261956E+03   -0.59106E-03   -0.59215E-03 11088   0.908E-03-0.538E-04
CGA:  10    -0.336310482591E+03   -0.22064E-03   -0.22118E-03 11088   0.310E-03 0.718E-04
CGA:  11    -0.336310562837E+03   -0.80246E-04   -0.81068E-04 11088   0.945E-04 0.535E-04
CGA:  12    -0.336310591963E+03   -0.29126E-04   -0.29030E-04 11088   0.349E-04 0.173E-04
CGA:  13    -0.336310598294E+03   -0.63309E-05   -0.76792E-05 11088   0.147E-04 0.190E-04
   9 F= -.33631060E+03 E0= -.33631060E+03  d E =0.123286E-01  mag=     6.0000
       N       E                     dE             d eps       ncg     rms          ort
SDA:   1    -0.335489624038E+03    0.82097E+00    0.00000E+00 11088   0.223E+01 0.000E+00
CGA:   2    -0.336003914805E+03   -0.51429E+00   -0.51454E+00 11088   0.113E+01 0.679E-02
CGA:   3    -0.336201025868E+03   -0.19711E+00   -0.19715E+00 11088   0.398E+00 0.376E-03
CGA:   4    -0.336261736713E+03   -0.60711E-01   -0.60597E-01 11088   0.914E-01-0.121E-02
CGA:   5    -0.336276077600E+03   -0.14341E-01   -0.14300E-01 11088   0.242E-01-0.448E-03
CGA:   6    -0.336280637232E+03   -0.45596E-02   -0.45678E-02 11088   0.747E-02 0.148E-03
CGA:   7    -0.336282246070E+03   -0.16088E-02   -0.16145E-02 11088   0.276E-02 0.203E-03
CGA:   8    -0.336282911521E+03   -0.66545E-03   -0.66657E-03 11088   0.110E-02 0.203E-03
CGA:   9    -0.336283242998E+03   -0.33148E-03   -0.33104E-03 11088   0.481E-03 0.107E-04
CGA:  10    -0.336283347836E+03   -0.10484E-03   -0.10686E-03 11088   0.145E-03 0.912E-04
CGA:  11    -0.336283384847E+03   -0.37011E-04   -0.37827E-04 11088   0.448E-04 0.370E-04
CGA:  12    -0.336283388685E+03   -0.38382E-05   -0.73353E-05 11088   0.201E-04 0.319E-04
  10 F= -.33628339E+03 E0= -.33628339E+03  d E =0.272096E-01  mag=     6.0000
       N       E                     dE             d eps       ncg     rms          ort
SDA:   1    -0.336171578638E+03    0.11181E+00    0.00000E+00 11088   0.353E+00 0.000E+00
CGA:   2    -0.336251373764E+03   -0.79795E-01   -0.79793E-01 11088   0.203E+00-0.102E-02
CGA:   3    -0.336286717651E+03   -0.35344E-01   -0.35306E-01 11088   0.689E-01-0.756E-03
CGA:   4    -0.336296979783E+03   -0.10262E-01   -0.10266E-01 11088   0.158E-01 0.287E-04
CGA:   5    -0.336299497171E+03   -0.25174E-02   -0.25276E-02 11088   0.445E-02 0.161E-03
CGA:   6    -0.336300392435E+03   -0.89526E-03   -0.89378E-03 11088   0.149E-02-0.751E-04
CGA:   7    -0.336300740983E+03   -0.34855E-03   -0.35206E-03 11088   0.693E-03-0.157E-03
CGA:   8    -0.336300908441E+03   -0.16746E-03   -0.17823E-03 11088   0.381E-03-0.158E-03
CGA:   9    -0.336300978607E+03   -0.70166E-04   -0.70706E-04 11088   0.132E-03-0.308E-04
CGA:  10    -0.336301009989E+03   -0.31382E-04   -0.31758E-04 11088   0.431E-04-0.975E-05
CGA:  11    -0.336301014905E+03   -0.49165E-05   -0.60189E-05 11088   0.146E-04 0.148E-04
  11 F= -.33630101E+03 E0= -.33630101E+03  d E =-.176262E-01  mag=     6.0000
       N       E                     dE             d eps       ncg     rms          ort
SDA:   1    -0.336287205410E+03    0.13805E-01    0.00000E+00 11088   0.410E-01 0.000E+00
CGA:   2    -0.336295148693E+03   -0.79433E-02   -0.79461E-02 11088   0.216E-01 0.900E-04
CGA:   3    -0.336299183474E+03   -0.40348E-02   -0.40304E-02 11088   0.835E-02-0.140E-03
CGA:   4    -0.336300442378E+03   -0.12589E-02   -0.12482E-02 11088   0.186E-02-0.164E-03
CGA:   5    -0.336300741104E+03   -0.29873E-03   -0.29580E-03 11088   0.519E-03-0.567E-04
CGA:   6    -0.336300840190E+03   -0.99086E-04   -0.98695E-04 11088   0.172E-03-0.257E-04
CGA:   7    -0.336300879107E+03   -0.38917E-04   -0.40168E-04 11088   0.843E-04-0.361E-04
CGA:   8    -0.336300892511E+03   -0.13405E-04   -0.27807E-04 11088   0.139E-03-0.703E-04
CGA:   9    -0.336300911400E+03   -0.18889E-04   -0.19044E-04 11088   0.192E-04 0.179E-05
CGA:  10    -0.336300916430E+03   -0.50304E-05   -0.50839E-05 11088   0.474E-05-0.126E-05
  12 F= -.33630092E+03 E0= -.33630091E+03  d E =0.984749E-04  mag=     6.0000
       N       E                     dE             d eps       ncg     rms          ort
SDA:   1    -0.336139722100E+03    0.16119E+00    0.00000E+00 11088   0.425E+00 0.000E+00
CGA:   2    -0.336241033196E+03   -0.10131E+00   -0.10125E+00 11088   0.206E+00 0.284E-02
CGA:   3    -0.336276529583E+03   -0.35496E-01   -0.35486E-01 11088   0.719E-01-0.270E-03
CGA:   4    -0.336287477359E+03   -0.10948E-01   -0.10890E-01 11088   0.167E-01-0.894E-03
CGA:   5    -0.336290094153E+03   -0.26168E-02   -0.25961E-02 11088   0.434E-02-0.371E-03
CGA:   6    -0.336290896926E+03   -0.80277E-03   -0.80165E-03 11088   0.131E-02-0.517E-04
CGA:   7    -0.336291177318E+03   -0.28039E-03   -0.28054E-03 11088   0.478E-03-0.198E-04
CGA:   8    -0.336291302844E+03   -0.12553E-03   -0.12899E-03 11088   0.250E-03-0.546E-04
CGA:   9    -0.336291359239E+03   -0.56395E-04   -0.10231E-03 11088   0.363E-03-0.185E-03
CGA:  10    -0.336291405871E+03   -0.46632E-04   -0.50388E-04 11088   0.479E-04 0.431E-04
CGA:  11    -0.336291421641E+03   -0.15771E-04   -0.17705E-04 11088   0.270E-04-0.177E-04
CGA:  12    -0.336291422376E+03   -0.73460E-06   -0.16585E-05 11088   0.132E-04 0.715E-05
  13 F= -.33629142E+03 E0= -.33629141E+03  d E =0.949405E-02  mag=     6.0000
       N       E                     dE             d eps       ncg     rms          ort
SDA:   1    -0.335889826048E+03    0.40160E+00    0.00000E+00 11088   0.110E+01 0.000E+00
CGA:   2    -0.336135415870E+03   -0.24559E+00   -0.24555E+00 11088   0.554E+00 0.568E-02
CGA:   3    -0.336232602004E+03   -0.97186E-01   -0.97179E-01 11088   0.195E+00-0.282E-03
CGA:   4    -0.336261773681E+03   -0.29172E-01   -0.29092E-01 11088   0.450E-01-0.128E-02
CGA:   5    -0.336268860080E+03   -0.70864E-02   -0.70530E-02 11088   0.116E-01-0.631E-03
CGA:   6    -0.336271025761E+03   -0.21657E-02   -0.21622E-02 11088   0.349E-02-0.187E-03
CGA:   7    -0.336271734622E+03   -0.70886E-03   -0.70892E-03 11088   0.116E-02 0.892E-04
CGA:   8    -0.336272028974E+03   -0.29435E-03   -0.29374E-03 11088   0.499E-03 0.145E-04
CGA:   9    -0.336272184832E+03   -0.15586E-03   -0.16815E-03 11088   0.301E-03-0.994E-04
CGA:  10    -0.336272251442E+03   -0.66609E-04   -0.71615E-04 11088   0.132E-03-0.613E-04
CGA:  11    -0.336272281161E+03   -0.29719E-04   -0.34354E-04 11088   0.643E-04-0.431E-04
CGA:  12    -0.336272292966E+03   -0.11806E-04   -0.14021E-04 11088   0.484E-04-0.223E-04
CGA:  13    -0.336272300772E+03   -0.78054E-05   -0.10138E-04 11088   0.553E-04-0.256E-04
  14 F= -.33627230E+03 E0= -.33627228E+03  d E =0.191216E-01  mag=     6.0000
       N       E                     dE             d eps       ncg     rms          ort
SDA:   1    -0.334257361377E+03    0.20149E+01    0.00000E+00 11088   0.543E+01 0.000E+00
CGA:   2    -0.335584392686E+03   -0.13270E+01   -0.13267E+01 11088   0.266E+01 0.193E-01
CGA:   3    -0.336036985512E+03   -0.45259E+00   -0.45256E+00 11088   0.919E+00-0.668E-03
CGA:   4    -0.336175169976E+03   -0.13818E+00   -0.13790E+00 11088   0.207E+00-0.396E-02
CGA:   5    -0.336207576919E+03   -0.32407E-01   -0.32299E-01 11088   0.533E-01-0.161E-02
CGA:   6    -0.336217597242E+03   -0.10020E-01   -0.10016E-01 11088   0.161E-01-0.135E-03
CGA:   7    -0.336221033675E+03   -0.34364E-02   -0.34381E-02 11088   0.581E-02 0.255E-03
CGA:   8    -0.336222493368E+03   -0.14597E-02   -0.14544E-02 11088   0.252E-02 0.192E-03
CGA:   9    -0.336223271650E+03   -0.77828E-03   -0.79559E-03 11088   0.126E-02-0.206E-03
CGA:  10    -0.336223578433E+03   -0.30678E-03   -0.30880E-03 11088   0.455E-03-0.479E-04
CGA:  11    -0.336223706578E+03   -0.12814E-03   -0.14079E-03 11088   0.248E-03-0.134E-03
CGA:  12    -0.336223728315E+03   -0.21737E-04   -0.25024E-04 11088   0.973E-04 0.368E-04
CGA:  13    -0.336223754139E+03   -0.25824E-04   -0.25859E-04 11088   0.597E-04-0.884E-05
CGA:  14    -0.336223780521E+03   -0.26382E-04    0.92041E-04 11088   0.542E-04-0.150E-04
CGA:  15    -0.336223790354E+03   -0.98321E-05   -0.98716E-05 11088   0.376E-04-0.282E-05
  15 F= -.33622379E+03 E0= -.33622375E+03  d E =0.485104E-01  mag=     6.0000
       N       E                     dE             d eps       ncg     rms          ort
SDA:   1    -0.335768044874E+03    0.45574E+00    0.00000E+00 11088   0.152E+01 0.000E+00
CGA:   2    -0.336037541897E+03   -0.26950E+00   -0.26958E+00 11088   0.707E+00 0.580E-03
CGA:   3    -0.336177952147E+03   -0.14041E+00   -0.14039E+00 11088   0.313E+00-0.102E-02
CGA:   4    -0.336223244774E+03   -0.45293E-01   -0.45324E-01 11088   0.657E-01 0.314E-03
CGA:   5    -0.336233283200E+03   -0.10038E-01   -0.10078E-01 11088   0.164E-01 0.609E-03
CGA:   6    -0.336236409411E+03   -0.31262E-02   -0.31286E-02 11088   0.494E-02 0.969E-04
CGA:   7    -0.336237437046E+03   -0.10276E-02   -0.10277E-02 11088   0.157E-02 0.665E-05
CGA:   8    -0.336237793862E+03   -0.35682E-03   -0.35654E-03 11088   0.568E-03 0.167E-04
CGA:   9    -0.336237941931E+03   -0.14807E-03   -0.14736E-03 11088   0.214E-03 0.158E-04
CGA:  10    -0.336238004017E+03   -0.62086E-04   -0.62411E-04 11088   0.832E-04-0.477E-05
CGA:  11    -0.336238022805E+03   -0.18788E-04   -0.18629E-04 11088   0.247E-04 0.146E-04
CGA:  12    -0.336238032617E+03   -0.98115E-05   -0.10459E-04 11088   0.148E-04-0.461E-05
  16 F= -.33623803E+03 E0= -.33623800E+03  d E =-.142423E-01  mag=     6.0000
       N       E                     dE             d eps       ncg     rms          ort
SDA:   1    -0.336090530866E+03    0.14749E+00    0.00000E+00 11088   0.436E+00 0.000E+00
CGA:   2    -0.336203408159E+03   -0.11288E+00   -0.11298E+00 11088   0.207E+00-0.288E-02
CGA:   3    -0.336237698849E+03   -0.34291E-01   -0.34318E-01 11088   0.712E-01 0.461E-03
CGA:   4    -0.336248278729E+03   -0.10580E-01   -0.10634E-01 11088   0.159E-01 0.783E-03
CGA:   5    -0.336250767010E+03   -0.24883E-02   -0.25125E-02 11088   0.420E-02 0.412E-03
CGA:   6    -0.336251583551E+03   -0.81654E-03   -0.81934E-03 11088   0.131E-02 0.129E-03
CGA:   7    -0.336251901193E+03   -0.31764E-03   -0.31935E-03 11088   0.580E-03-0.653E-04
CGA:   8    -0.336252022476E+03   -0.12128E-03   -0.12084E-03 11088   0.218E-03 0.599E-04
CGA:   9    -0.336252071987E+03   -0.49511E-04   -0.49850E-04 11088   0.747E-04 0.633E-04
CGA:  10    -0.336252085279E+03   -0.13292E-04   -0.15463E-04 11088   0.286E-04 0.421E-04
CGA:  11    -0.336252088510E+03   -0.32306E-05   -0.42713E-05 11088   0.134E-04 0.174E-04
  17 F= -.33625209E+03 E0= -.33625206E+03  d E =-.140559E-01  mag=     6.0000
       N       E                     dE             d eps       ncg     rms          ort
SDA:   1    -0.336208857461E+03    0.43228E-01    0.00000E+00 11088   0.105E+00 0.000E+00
CGA:   2    -0.336233411550E+03   -0.24554E-01   -0.24510E-01 11088   0.542E-01 0.135E-02
CGA:   3    -0.336242897632E+03   -0.94861E-02   -0.94867E-02 11088   0.183E-01 0.669E-05
CGA:   4    -0.336245659207E+03   -0.27616E-02   -0.27422E-02 11088   0.431E-02-0.376E-03
CGA:   5    -0.336246356715E+03   -0.69751E-03   -0.68890E-03 11088   0.118E-02-0.238E-03
CGA:   6    -0.336246567356E+03   -0.21064E-03   -0.21008E-03 11088   0.353E-03-0.561E-04
CGA:   7    -0.336246631147E+03   -0.63791E-04   -0.63981E-04 11088   0.103E-03 0.263E-04
CGA:   8    -0.336246655933E+03   -0.24786E-04   -0.24448E-04 11088   0.382E-04 0.146E-04
CGA:   9    -0.336246668645E+03   -0.12712E-04   -0.12770E-04 11088   0.201E-04-0.620E-06
CGA:  10    -0.336246674613E+03   -0.59678E-05   -0.69716E-05 11088   0.135E-04-0.668E-05
  18 F= -.33624667E+03 E0= -.33624665E+03  d E =0.541390E-02  mag=     6.0000
       N       E                     dE             d eps       ncg     rms          ort
SDA:   1    -0.335351633041E+03    0.89504E+00    0.00000E+00 11088   0.244E+01 0.000E+00
CGA:   2    -0.335897415983E+03   -0.54578E+00   -0.54564E+00 11088   0.132E+01 0.944E-02
CGA:   3    -0.336130961724E+03   -0.23355E+00   -0.23354E+00 11088   0.441E+00-0.368E-03
CGA:   4    -0.336194813435E+03   -0.63852E-01   -0.63731E-01 11088   0.974E-01-0.200E-02
CGA:   5    -0.336210299211E+03   -0.15486E-01   -0.15434E-01 11088   0.255E-01-0.112E-02
CGA:   6    -0.336215062874E+03   -0.47637E-02   -0.47570E-02 11088   0.772E-02-0.458E-03
CGA:   7    -0.336216624162E+03   -0.15613E-02   -0.15609E-02 11088   0.254E-02 0.119E-03
CGA:   8    -0.336217238148E+03   -0.61399E-03   -0.61070E-03 11088   0.101E-02 0.949E-04
CGA:   9    -0.336217554007E+03   -0.31586E-03   -0.32899E-03 11088   0.553E-03-0.122E-03
CGA:  10    -0.336217696152E+03   -0.14215E-03   -0.15547E-03 11088   0.277E-03-0.122E-03
CGA:  11    -0.336217758351E+03   -0.62199E-04   -0.78853E-04 11088   0.165E-03-0.112E-03
CGA:  12    -0.336217786644E+03   -0.28293E-04   -0.36123E-04 11088   0.106E-03-0.543E-04
CGA:  13    -0.336217801658E+03   -0.15014E-04   -0.39790E-04 11088   0.230E-03-0.759E-04
CGA:  14    -0.336217835304E+03   -0.33646E-04   -0.33509E-04 11088   0.640E-04-0.119E-05
CGA:  15    -0.336217846943E+03   -0.11639E-04   -0.12312E-04 11088   0.144E-04 0.139E-04
CGA:  16    -0.336217852675E+03   -0.57315E-05   -0.13263E-04 11088   0.713E-04-0.146E-04
  19 F= -.33621785E+03 E0= -.33621780E+03  d E =0.288219E-01  mag=     6.0000
       N       E                     dE             d eps       ncg     rms          ort
SDA:   1    -0.332313768542E+03    0.39041E+01    0.00000E+00 11088   0.103E+02 0.000E+00
CGA:   2    -0.334850539980E+03   -0.25368E+01   -0.25371E+01 11088   0.582E+01 0.194E-01
CGA:   3    -0.335816136932E+03   -0.96560E+00   -0.96566E+00 11088   0.172E+01 0.885E-03
CGA:   4    -0.336066987226E+03   -0.25085E+00   -0.25043E+00 11088   0.388E+00-0.436E-02
CGA:   5    -0.336129223754E+03   -0.62237E-01   -0.62096E-01 11088   0.103E+00-0.177E-02
CGA:   6    -0.336148376046E+03   -0.19152E-01   -0.19153E-01 11088   0.304E-01-0.172E-04
CGA:   7    -0.336154807921E+03   -0.64319E-02   -0.64394E-02 11088   0.107E-01 0.266E-03
CGA:   8    -0.336157324591E+03   -0.25167E-02   -0.25198E-02 11088   0.430E-02 0.620E-03
CGA:   9    -0.336158644055E+03   -0.13195E-02   -0.13206E-02 11088   0.205E-02-0.223E-04
CGA:  10    -0.336159196821E+03   -0.55277E-03   -0.55093E-03 11088   0.792E-03 0.622E-04
CGA:  11    -0.336159418759E+03   -0.22194E-03   -0.22122E-03 11088   0.321E-03 0.243E-04
CGA:  12    -0.336159474656E+03   -0.55896E-04   -0.62158E-04 11088   0.140E-03 0.113E-03
CGA:  13    -0.336159516517E+03   -0.41861E-04   -0.42858E-04 11088   0.811E-04 0.703E-04
CGA:  14    -0.336159531754E+03   -0.15237E-04   -0.16808E-04 11088   0.472E-04 0.481E-04
CGA:  15    -0.336159536276E+03   -0.45223E-05   -0.76644E-05 11088   0.400E-04 0.415E-04
  20 F= -.33615954E+03 E0= -.33615944E+03  d E =0.583164E-01  mag=     6.0000
       N       E                     dE             d eps       ncg     rms          ort
SDA:   1    -0.329105252126E+03    0.70543E+01    0.00000E+00 11088   0.173E+02 0.000E+00
CGA:   2    -0.333866776816E+03   -0.47615E+01   -0.47608E+01 11088   0.990E+01 0.743E-02
CGA:   3    -0.335431104702E+03   -0.15643E+01   -0.15637E+01 11088   0.265E+01 0.386E-02
CGA:   4    -0.335821689032E+03   -0.39058E+00   -0.39067E+00 11088   0.643E+00-0.178E-02
CGA:   5    -0.335929041221E+03   -0.10735E+00   -0.10735E+00 11088   0.179E+00-0.535E-03
CGA:   6    -0.335962296834E+03   -0.33256E-01   -0.33261E-01 11088   0.569E-01 0.134E-03
CGA:   7    -0.335974710147E+03   -0.12413E-01   -0.12411E-01 11088   0.214E-01-0.684E-03
CGA:   8    -0.335980046602E+03   -0.53365E-02   -0.53512E-02 11088   0.941E-02-0.469E-03
CGA:   9    -0.335982488778E+03   -0.24422E-02   -0.24507E-02 11088   0.390E-02-0.200E-03
CGA:  10    -0.335983531410E+03   -0.10426E-02   -0.10653E-02 11088   0.170E-02-0.420E-03
CGA:  11    -0.335983872647E+03   -0.34124E-03   -0.34103E-03 11088   0.679E-03-0.610E-04
CGA:  12    -0.335984019545E+03   -0.14690E-03   -0.14684E-03 11088   0.288E-03-0.194E-04
CGA:  13    -0.335984088819E+03   -0.69273E-04   -0.15979E-03 11088   0.769E-03-0.266E-03
CGA:  14    -0.335984172134E+03   -0.83315E-04   -0.99758E-04 11088   0.183E-03 0.143E-03
CGA:  15    -0.335984228699E+03   -0.56565E-04   -0.56746E-04 11088   0.852E-04-0.809E-05
CGA:  16    -0.335984268381E+03   -0.39683E-04    0.64405E-03 11088   0.558E-04 0.359E-04
CGA:  17    -0.335984283518E+03   -0.15137E-04   -0.16460E-04 11088   0.398E-04 0.399E-04
CGA:  18    -0.335984290354E+03   -0.68361E-05   -0.77998E-05 11088   0.248E-04 0.225E-04
  21 F= -.33598429E+03 E0= -.33598426E+03  d E =0.175246E+00  mag=     6.0000
       N       E                     dE             d eps       ncg     rms          ort
SDA:   1    -0.326902053749E+03    0.90822E+01    0.00000E+00 11088   0.260E+02 0.000E+00
CGA:   2    -0.332877931442E+03   -0.59759E+01   -0.59763E+01 11088   0.139E+02 0.324E-01
CGA:   3    -0.335282027016E+03   -0.24041E+01   -0.24036E+01 11088   0.461E+01-0.329E-02
CGA:   4    -0.335966582235E+03   -0.68456E+00   -0.68472E+00 11088   0.107E+01 0.134E-02
CGA:   5    -0.336135733112E+03   -0.16915E+00   -0.16953E+00 11088   0.282E+00 0.475E-02
CGA:   6    -0.336189142977E+03   -0.53410E-01   -0.53472E-01 11088   0.850E-01 0.170E-02
CGA:   7    -0.336207985672E+03   -0.18843E-01   -0.18843E-01 11088   0.325E-01-0.878E-04
CGA:   8    -0.336215866540E+03   -0.78809E-02   -0.78682E-02 11088   0.134E-01 0.646E-03
CGA:   9    -0.336219615130E+03   -0.37486E-02   -0.37506E-02 11088   0.551E-02-0.433E-04
CGA:  10    -0.336220942480E+03   -0.13273E-02   -0.13190E-02 11088   0.168E-02 0.602E-03
CGA:  11    -0.336221420113E+03   -0.47763E-03   -0.47294E-03 11088   0.541E-03 0.178E-03
CGA:  12    -0.336221537789E+03   -0.11768E-03   -0.12204E-03 11088   0.196E-03 0.179E-03
CGA:  13    -0.336221583089E+03   -0.45300E-04   -0.49451E-04 11088   0.906E-04 0.110E-03
CGA:  14    -0.336221594775E+03   -0.11686E-04   -0.15267E-04 11088   0.539E-04 0.628E-04
CGA:  15    -0.336221600167E+03   -0.53921E-05   -0.85070E-05 11088   0.443E-04 0.481E-04
  22 F= -.33622160E+03 E0= -.33622159E+03  d E =-.237310E+00  mag=     6.0000
       N       E                     dE             d eps       ncg     rms          ort
SDA:   1    -0.323474213073E+03    0.12747E+02    0.00000E+00 11088   0.309E+02 0.000E+00
CGA:   2    -0.331522799357E+03   -0.80486E+01   -0.80335E+01 11088   0.166E+02 0.234E+00
CGA:   3    -0.334344241573E+03   -0.28214E+01   -0.28161E+01 11088   0.549E+01-0.165E-01
CGA:   4    -0.335202825398E+03   -0.85858E+00   -0.85974E+00 11088   0.148E+01 0.584E-02
CGA:   5    -0.335448528305E+03   -0.24570E+00   -0.24597E+00 11088   0.453E+00 0.288E-02
CGA:   6    -0.335537821951E+03   -0.89294E-01   -0.89286E-01 11088   0.168E+00-0.563E-03
CGA:   7    -0.335575900496E+03   -0.38079E-01   -0.38017E-01 11088   0.698E-01 0.324E-02
CGA:   8    -0.335593838284E+03   -0.17938E-01   -0.17863E-01 11088   0.272E-01 0.182E-02
CGA:   9    -0.335601146552E+03   -0.73083E-02   -0.73259E-02 11088   0.104E-01-0.353E-03
CGA:  10    -0.335603856438E+03   -0.27099E-02   -0.27319E-02 11088   0.331E-02-0.429E-03
CGA:  11    -0.335604774287E+03   -0.91785E-03   -0.10094E-02 11088   0.173E-02-0.910E-03
CGA:  12    -0.335604998976E+03   -0.22469E-03   -0.22792E-03 11088   0.615E-03 0.795E-04
CGA:  13    -0.335605161533E+03   -0.16256E-03   -0.16646E-03 11088   0.293E-03-0.101E-03
CGA:  14    -0.335605062941E+03    0.98592E-04   -0.20833E-03 11088   0.153E-02-0.488E-03
CGA:  15    -0.335605264348E+03   -0.20141E-03   -0.23031E-03 11088   0.313E-03 0.281E-03
CGA:  16    -0.335605371714E+03   -0.10737E-03   -0.11647E-03 11088   0.194E-03-0.138E-03
CGA:  17    -0.335605381103E+03   -0.93890E-05   -0.13559E-04 11088   0.981E-04 0.330E-04
CGA:  18    -0.335605387582E+03   -0.64787E-05   -0.12247E-04 11088   0.465E-04 0.416E-04
CGA:  19    -0.335605396681E+03   -0.90989E-05   -0.10357E-04 11088   0.244E-04 0.153E-04
CGA:  20    -0.335605398619E+03   -0.19379E-05   -0.17875E-04 11088   0.154E-03-0.506E-04
CGA:  21    -0.335605407032E+03   -0.84128E-05   -0.15522E-04 11088   0.327E-04 0.478E-04
  23 F= -.33560541E+03 E0= -.33560541E+03  d E =0.616193E+00  mag=     6.0000
       N       E                     dE             d eps       ncg     rms          ort
SDA:   1    -0.333177312727E+03    0.24281E+01    0.00000E+00 11088   0.697E+01 0.000E+00
CGA:   2    -0.335490547772E+03   -0.23132E+01   -0.23185E+01 11088   0.248E+01-0.543E-01
CGA:   3    -0.335957655512E+03   -0.46711E+00   -0.46778E+00 11088   0.931E+00 0.537E-02
CGA:   4    -0.336099864674E+03   -0.14221E+00   -0.14208E+00 11088   0.210E+00-0.219E-02
CGA:   5    -0.336140127175E+03   -0.40263E-01   -0.40242E-01 11088   0.810E-01-0.357E-03
CGA:   6    -0.336154744760E+03   -0.14618E-01   -0.14641E-01 11088   0.302E-01 0.418E-03
CGA:   7    -0.336162705973E+03   -0.79612E-02   -0.80139E-02 11088   0.151E-01-0.175E-02
CGA:   8    -0.336166020962E+03   -0.33150E-02   -0.33134E-02 11088   0.583E-02-0.542E-03
CGA:   9    -0.336167373186E+03   -0.13522E-02   -0.13511E-02 11088   0.186E-02 0.216E-03
CGA:  10    -0.336167834714E+03   -0.46153E-03   -0.46124E-03 11088   0.523E-03 0.716E-04
CGA:  11    -0.336167959890E+03   -0.12518E-03   -0.12553E-03 11088   0.143E-03 0.768E-04
CGA:  12    -0.336168010944E+03   -0.51053E-04   -0.53110E-04 11088   0.724E-04-0.235E-04
CGA:  13    -0.336168018726E+03   -0.77824E-05   -0.95710E-05 11088   0.305E-04 0.219E-04
  24 F= -.33616802E+03 E0= -.33616802E+03  d E =-.562612E+00  mag=     6.0000
       N       E                     dE             d eps       ncg     rms          ort
SDA:   1    -0.335801444333E+03    0.36657E+00    0.00000E+00 11088   0.999E+00 0.000E+00
CGA:   2    -0.336128759701E+03   -0.32732E+00   -0.32810E+00 11088   0.378E+00-0.835E-02
CGA:   3    -0.336195566597E+03   -0.66807E-01   -0.66936E-01 11088   0.144E+00 0.165E-02
CGA:   4    -0.336217959629E+03   -0.22393E-01   -0.22371E-01 11088   0.357E-01-0.243E-03
CGA:   5    -0.336224132810E+03   -0.61732E-02   -0.61664E-02 11088   0.118E-01-0.108E-03
CGA:   6    -0.336226468825E+03   -0.23360E-02   -0.23399E-02 11088   0.452E-02 0.122E-03
CGA:   7    -0.336227740541E+03   -0.12717E-02   -0.13264E-02 11088   0.290E-02-0.879E-03
CGA:   8    -0.336228294947E+03   -0.55441E-03   -0.55687E-03 11088   0.116E-02-0.358E-03
CGA:   9    -0.336228521859E+03   -0.22691E-03   -0.22721E-03 11088   0.361E-03 0.395E-04
CGA:  10    -0.336228601095E+03   -0.79235E-04   -0.80021E-04 11088   0.112E-03 0.450E-04
CGA:  11    -0.336228627111E+03   -0.26016E-04   -0.26513E-04 11088   0.378E-04 0.245E-04
CGA:  12    -0.336228641862E+03   -0.14752E-04   -0.16186E-04 11088   0.264E-04-0.118E-04
CGA:  13    -0.336228651491E+03   -0.96288E-05    0.17268E-04 11088   0.157E-04-0.813E-06
  25 F= -.33622865E+03 E0= -.33622865E+03  d E =-.606328E-01  mag=     6.0000
       N       E                     dE             d eps       ncg     rms          ort
SDA:   1    -0.335937361577E+03    0.29128E+00    0.00000E+00 11088   0.743E+00 0.000E+00
CGA:   2    -0.336167303806E+03   -0.22994E+00   -0.23043E+00 11088   0.329E+00-0.656E-02
CGA:   3    -0.336220568917E+03   -0.53265E-01   -0.53328E-01 11088   0.113E+00 0.656E-03
CGA:   4    -0.336238855052E+03   -0.18286E-01   -0.18292E-01 11088   0.311E-01 0.575E-04
CGA:   5    -0.336243995304E+03   -0.51403E-02   -0.51414E-02 11088   0.894E-02 0.166E-04
CGA:   6    -0.336245777606E+03   -0.17823E-02   -0.17846E-02 11088   0.351E-02 0.786E-04
CGA:   7    -0.336246730247E+03   -0.95264E-03   -0.98411E-03 11088   0.208E-02-0.620E-03
CGA:   8    -0.336247176204E+03   -0.44596E-03   -0.46527E-03 11088   0.103E-02-0.453E-03
CGA:   9    -0.336247348776E+03   -0.17257E-03   -0.17282E-03 11088   0.317E-03 0.135E-04
CGA:  10    -0.336247403642E+03   -0.54866E-04   -0.58651E-04 11088   0.103E-03 0.788E-04
CGA:  11    -0.336247423139E+03   -0.19497E-04   -0.21894E-04 11088   0.376E-04 0.410E-04
CGA:  12    -0.336247429088E+03   -0.59490E-05   -0.78197E-05 11088   0.169E-04 0.244E-04
  26 F= -.33624743E+03 E0= -.33624742E+03  d E =-.187776E-01  mag=     6.0000
       N       E                     dE             d eps       ncg     rms          ort
SDA:   1    -0.336176360216E+03    0.71063E-01    0.00000E+00 11088   0.195E+00 0.000E+00
CGA:   2    -0.336225350131E+03   -0.48990E-01   -0.49039E-01 11088   0.111E+00-0.171E-02
CGA:   3    -0.336243693537E+03   -0.18343E-01   -0.18332E-01 11088   0.348E-01-0.209E-03
CGA:   4    -0.336248894996E+03   -0.52015E-02   -0.52084E-02 11088   0.879E-02 0.864E-04
CGA:   5    -0.336250349334E+03   -0.14543E-02   -0.14600E-02 11088   0.248E-02 0.108E-03
CGA:   6    -0.336250812085E+03   -0.46275E-03   -0.46521E-03 11088   0.833E-03 0.834E-04
CGA:   7    -0.336251025309E+03   -0.21322E-03   -0.21631E-03 11088   0.413E-03-0.808E-04
CGA:   8    -0.336251129973E+03   -0.10466E-03   -0.13425E-03 11088   0.396E-03-0.205E-03
CGA:   9    -0.336251158664E+03   -0.28691E-04   -0.29641E-04 11088   0.176E-03 0.128E-04
CGA:  10    -0.336251171891E+03   -0.13227E-04   -0.19423E-04 11088   0.725E-04 0.555E-04
CGA:  11    -0.336251176059E+03   -0.41674E-05   -0.93361E-05 11088   0.369E-04 0.449E-04
  27 F= -.33625118E+03 E0= -.33625117E+03  d E =-.374697E-02  mag=     6.0000
       N       E                     dE             d eps       ncg     rms          ort
SDA:   1    -0.336233632555E+03    0.17539E-01    0.00000E+00 11088   0.493E-01 0.000E+00
CGA:   2    -0.336246887040E+03   -0.13254E-01   -0.13193E-01 11088   0.255E-01 0.961E-03
CGA:   3    -0.336251244038E+03   -0.43570E-02   -0.43640E-02 11088   0.838E-02 0.173E-03
CGA:   4    -0.336252538713E+03   -0.12947E-02   -0.12938E-02 11088   0.211E-02-0.192E-04
CGA:   5    -0.336252905934E+03   -0.36722E-03   -0.36554E-03 11088   0.673E-03-0.574E-04
CGA:   6    -0.336253026107E+03   -0.12017E-03   -0.12065E-03 11088   0.211E-03 0.275E-04
CGA:   7    -0.336253051516E+03   -0.25409E-04   -0.30763E-04 11088   0.737E-04 0.887E-04
CGA:   8    -0.336253057963E+03   -0.64467E-05   -0.11519E-04 11088   0.388E-04 0.579E-04
  28 F= -.33625306E+03 E0= -.33625305E+03  d E =-.188190E-02  mag=     6.0000
       N       E                     dE             d eps       ncg     rms          ort
SDA:   1    -0.336241908356E+03    0.11143E-01    0.00000E+00 11088   0.273E-01 0.000E+00
CGA:   2    -0.336249270065E+03   -0.73617E-02   -0.72783E-02 11088   0.130E-01 0.111E-02
CGA:   3    -0.336251578628E+03   -0.23086E-02   -0.23100E-02 11088   0.442E-02 0.528E-04
CGA:   4    -0.336252276463E+03   -0.69783E-03   -0.69727E-03 11088   0.114E-02-0.165E-04
CGA:   5    -0.336252472141E+03   -0.19568E-03   -0.19521E-03 11088   0.344E-03-0.227E-04
CGA:   6    -0.336252533450E+03   -0.61309E-04   -0.61515E-04 11088   0.108E-03 0.237E-04
CGA:   7    -0.336252541674E+03   -0.82230E-05   -0.13119E-04 11088   0.454E-04 0.629E-04
  29 F= -.33625254E+03 E0= -.33625254E+03  d E =0.516289E-03  mag=     6.0000
       N       E                     dE             d eps       ncg     rms          ort
SDA:   1    -0.336229164702E+03    0.23369E-01    0.00000E+00 11088   0.576E-01 0.000E+00
CGA:   2    -0.336243416072E+03   -0.14251E-01   -0.14174E-01 11088   0.308E-01 0.119E-02
CGA:   3    -0.336248722887E+03   -0.53068E-02   -0.53081E-02 11088   0.956E-02 0.732E-04
CGA:   4    -0.336250151262E+03   -0.14284E-02   -0.14267E-02 11088   0.230E-02-0.494E-04
CGA:   5    -0.336250522193E+03   -0.37093E-03   -0.37027E-03 11088   0.631E-03-0.310E-04
CGA:   6    -0.336250636773E+03   -0.11458E-03   -0.11455E-03 11088   0.188E-03 0.127E-04
CGA:   7    -0.336250660525E+03   -0.23752E-04   -0.26815E-04 11088   0.598E-04 0.721E-04
CGA:   8    -0.336250665939E+03   -0.54135E-05   -0.87922E-05 11088   0.303E-04 0.459E-04
  30 F= -.33625067E+03 E0= -.33625066E+03  d E =0.187573E-02  mag=     6.0000
       N       E                     dE             d eps       ncg     rms          ort
SDA:   1    -0.336158062634E+03    0.92598E-01    0.00000E+00 11088   0.223E+00 0.000E+00
CGA:   2    -0.336221788207E+03   -0.63726E-01   -0.63529E-01 11088   0.108E+00 0.172E-02
CGA:   3    -0.336239574895E+03   -0.17787E-01   -0.17778E-01 11088   0.327E-01-0.529E-03
CGA:   4    -0.336244411469E+03   -0.48366E-02   -0.48318E-02 11088   0.745E-02-0.159E-03
CGA:   5    -0.336245582487E+03   -0.11710E-02   -0.11716E-02 11088   0.196E-02 0.276E-04
CGA:   6    -0.336245954249E+03   -0.37176E-03   -0.37171E-03 11088   0.596E-03 0.383E-05
CGA:   7    -0.336246067082E+03   -0.11283E-03   -0.11202E-03 11088   0.187E-03 0.800E-04
CGA:   8    -0.336246118897E+03   -0.51816E-04   -0.50133E-04 11088   0.840E-04 0.289E-04
CGA:   9    -0.336246146501E+03   -0.27604E-04   -0.26696E-04 11088   0.434E-04 0.963E-05
CGA:  10    -0.336246151087E+03   -0.45861E-05   -0.61776E-05 11088   0.194E-04 0.275E-04
  31 F= -.33624615E+03 E0= -.33624615E+03  d E =0.451485E-02  mag=     6.0000
       N       E                     dE             d eps       ncg     rms          ort
SDA:   1    -0.336064266478E+03    0.18188E+00    0.00000E+00 11088   0.442E+00 0.000E+00
CGA:   2    -0.336187572039E+03   -0.12331E+00   -0.12303E+00 11088   0.222E+00 0.265E-02
CGA:   3    -0.336224157421E+03   -0.36585E-01   -0.36574E-01 11088   0.667E-01-0.584E-03
CGA:   4    -0.336234022996E+03   -0.98656E-02   -0.98541E-02 11088   0.151E-01-0.346E-03
CGA:   5    -0.336236419777E+03   -0.23968E-02   -0.23979E-02 11088   0.409E-02 0.476E-04
CGA:   6    -0.336237182766E+03   -0.76299E-03   -0.76246E-03 11088   0.122E-02 0.847E-04
CGA:   7    -0.336237433667E+03   -0.25090E-03   -0.24830E-03 11088   0.420E-03 0.138E-03
CGA:   8    -0.336237538647E+03   -0.10498E-03   -0.10141E-03 11088   0.174E-03 0.995E-04
CGA:   9    -0.336237591783E+03   -0.53136E-04   -0.50156E-04 11088   0.807E-04 0.589E-04
CGA:  10    -0.336237602550E+03   -0.10767E-04   -0.14278E-04 11088   0.402E-04 0.659E-04
CGA:  11    -0.336237603732E+03   -0.11822E-05   -0.38803E-05 11088   0.257E-04 0.313E-04
  32 F= -.33623760E+03 E0= -.33623760E+03  d E =0.854735E-02  mag=     6.0000
       N       E                     dE             d eps       ncg     rms          ort
SDA:   1    -0.336175611224E+03    0.61991E-01    0.00000E+00 11088   0.146E+00 0.000E+00
CGA:   2    -0.336218219144E+03   -0.42608E-01   -0.42518E-01 11088   0.729E-01 0.723E-03
CGA:   3    -0.336229875008E+03   -0.11656E-01   -0.11649E-01 11088   0.217E-01-0.349E-03
CGA:   4    -0.336233097457E+03   -0.32224E-02   -0.32182E-02 11088   0.498E-02-0.147E-03
CGA:   5    -0.336233900068E+03   -0.80261E-03   -0.80240E-03 11088   0.140E-02-0.148E-04
CGA:   6    -0.336234168599E+03   -0.26853E-03   -0.26861E-03 11088   0.444E-03-0.551E-05
CGA:   7    -0.336234260995E+03   -0.92397E-04   -0.91223E-04 11088   0.163E-03 0.398E-04
CGA:   8    -0.336234307902E+03   -0.46907E-04   -0.46098E-04 11088   0.805E-04 0.998E-05
CGA:   9    -0.336234329168E+03   -0.21266E-04   -0.20222E-04 11088   0.334E-04 0.193E-04
CGA:  10    -0.336234332617E+03   -0.34493E-05   -0.50755E-05 11088   0.165E-04 0.258E-04
  33 F= -.33623433E+03 E0= -.33623433E+03  d E =0.327111E-02  mag=     6.0000
       N       E                     dE             d eps       ncg     rms          ort
SDA:   1    -0.336227720032E+03    0.66091E-02    0.00000E+00 11088   0.200E-01 0.000E+00
CGA:   2    -0.336232218958E+03   -0.44989E-02   -0.45212E-02 11088   0.116E-01-0.462E-03
CGA:   3    -0.336234277435E+03   -0.20585E-02   -0.20585E-02 11088   0.387E-02-0.734E-04
CGA:   4    -0.336234827076E+03   -0.54964E-03   -0.54974E-03 11088   0.868E-03 0.150E-05
CGA:   5    -0.336234965257E+03   -0.13818E-03   -0.13842E-03 11088   0.238E-03 0.123E-04
CGA:   6    -0.336235010858E+03   -0.45600E-04   -0.45501E-04 11088   0.759E-04 0.866E-05
CGA:   7    -0.336235029748E+03   -0.18890E-04   -0.30297E-04 11088   0.113E-03-0.550E-04
CGA:   8    -0.336235043988E+03   -0.14240E-04   -0.14725E-04 11088   0.164E-04 0.840E-05
CGA:   9    -0.336235047042E+03   -0.30545E-05   -0.30999E-05 11088   0.499E-05 0.492E-05
  34 F= -.33623505E+03 E0= -.33623504E+03  d E =-.714425E-03  mag=     6.0000
       N       E                     dE             d eps       ncg     rms          ort
SDA:   1    -0.336225029275E+03    0.10015E-01    0.00000E+00 11088   0.227E-01 0.000E+00
CGA:   2    -0.336231175822E+03   -0.61465E-02   -0.61403E-02 11088   0.127E-01 0.686E-04
CGA:   3    -0.336233246135E+03   -0.20703E-02   -0.20692E-02 11088   0.363E-02-0.396E-04
CGA:   4    -0.336233776887E+03   -0.53075E-03   -0.52720E-03 11088   0.881E-03-0.809E-04
CGA:   5    -0.336233911726E+03   -0.13484E-03   -0.13478E-03 11088   0.233E-03-0.199E-05
CGA:   6    -0.336233950918E+03   -0.39192E-04   -0.39563E-04 11088   0.628E-04 0.232E-04
CGA:   7    -0.336233965621E+03   -0.14702E-04   -0.14513E-04 11088   0.250E-04 0.773E-05
CGA:   8    -0.336233970086E+03   -0.44650E-05   -0.46842E-05 11088   0.108E-04 0.111E-04
  35 F= -.33623397E+03 E0= -.33623396E+03  d E =0.107696E-02  mag=     6.0000
       N       E                     dE             d eps       ncg     rms          ort
SDA:   1    -0.335712726940E+03    0.52124E+00    0.00000E+00 11088   0.129E+01 0.000E+00
CGA:   2    -0.336073307403E+03   -0.36058E+00   -0.36034E+00 11088   0.708E+00 0.209E-02
CGA:   3    -0.336184798128E+03   -0.11149E+00   -0.11150E+00 11088   0.196E+00-0.242E-04
CGA:   4    -0.336213534738E+03   -0.28737E-01   -0.28698E-01 11088   0.456E-01-0.102E-02
CGA:   5    -0.336220861958E+03   -0.73272E-02   -0.73245E-02 11088   0.122E-01-0.129E-03
CGA:   6    -0.336223103029E+03   -0.22411E-02   -0.22407E-02 11088   0.357E-02 0.279E-03
CGA:   7    -0.336223899863E+03   -0.79683E-03   -0.79321E-03 11088   0.135E-02 0.105E-03
CGA:   8    -0.336224220816E+03   -0.32095E-03   -0.31300E-03 11088   0.556E-03 0.197E-03
CGA:   9    -0.336224392281E+03   -0.17146E-03   -0.16311E-03 11088   0.249E-03 0.121E-03
CGA:  10    -0.336224460279E+03   -0.67998E-04   -0.65285E-04 11088   0.103E-03 0.106E-03
CGA:  11    -0.336224477642E+03   -0.17363E-04   -0.21379E-04 11088   0.524E-04 0.872E-04
CGA:  12    -0.336224481433E+03   -0.37911E-05   -0.64483E-05 11088   0.339E-04 0.402E-04
  36 F= -.33622448E+03 E0= -.33622448E+03  d E =0.948865E-02  mag=     6.0000
       N       E                     dE             d eps       ncg     rms          ort
SDA:   1    -0.335376554440E+03    0.84792E+00    0.00000E+00 11088   0.222E+01 0.000E+00
CGA:   2    -0.335922840451E+03   -0.54629E+00   -0.54595E+00 11088   0.129E+01 0.430E-02
CGA:   3    -0.336138233051E+03   -0.21539E+00   -0.21540E+00 11088   0.372E+00 0.110E-03
CGA:   4    -0.336192056412E+03   -0.53823E-01   -0.53765E-01 11088   0.833E-01-0.154E-02
CGA:   5    -0.336205476877E+03   -0.13420E-01   -0.13416E-01 11088   0.228E-01-0.224E-03
CGA:   6    -0.336209671818E+03   -0.41949E-02   -0.41937E-02 11088   0.656E-02 0.335E-03
CGA:   7    -0.336211118203E+03   -0.14464E-02   -0.14438E-02 11088   0.245E-02 0.690E-04
CGA:   8    -0.336211684217E+03   -0.56601E-03   -0.55401E-03 11088   0.968E-03 0.294E-03
CGA:   9    -0.336211990280E+03   -0.30606E-03   -0.29596E-03 11088   0.447E-03 0.114E-03
CGA:  10    -0.336212127751E+03   -0.13747E-03   -0.13139E-03 11088   0.190E-03 0.815E-04
CGA:  11    -0.336212166863E+03   -0.39112E-04   -0.40443E-04 11088   0.780E-04 0.103E-03
CGA:  12    -0.336212183093E+03   -0.16230E-04   -0.15797E-04 11088   0.368E-04 0.430E-04
CGA:  13    -0.336212187798E+03   -0.47052E-05   -0.58230E-05 11088   0.291E-04 0.321E-04
  37 F= -.33621219E+03 E0= -.33621218E+03  d E =0.122936E-01  mag=     6.0000
       N       E                     dE             d eps       ncg     rms          ort
SDA:   1    -0.335787901753E+03    0.42428E+00    0.00000E+00 11088   0.113E+01 0.000E+00
CGA:   2    -0.336084554139E+03   -0.29665E+00   -0.29673E+00 11088   0.639E+00-0.139E-02
CGA:   3    -0.336186696410E+03   -0.10214E+00   -0.10216E+00 11088   0.180E+00 0.243E-03
CGA:   4    -0.336212916792E+03   -0.26220E-01   -0.26251E-01 11088   0.411E-01 0.623E-03
CGA:   5    -0.336219546265E+03   -0.66295E-02   -0.66348E-02 11088   0.110E-01 0.182E-03
CGA:   6    -0.336221612687E+03   -0.20664E-02   -0.20664E-02 11088   0.325E-02-0.163E-04
CGA:   7    -0.336222318922E+03   -0.70624E-03   -0.70698E-03 11088   0.120E-02-0.258E-04
CGA:   8    -0.336222616916E+03   -0.29799E-03   -0.30040E-03 11088   0.540E-03-0.385E-04
CGA:   9    -0.336222761919E+03   -0.14500E-03   -0.14704E-03 11088   0.234E-03-0.228E-04
CGA:  10    -0.336222819016E+03   -0.57097E-04   -0.56587E-04 11088   0.753E-04 0.908E-05
CGA:  11    -0.336222582620E+03    0.23640E-03   -0.12782E-03 11088   0.152E-02-0.309E-03
CGA:  12    -0.336222783407E+03   -0.20079E-03   -0.22842E-03 11088   0.276E-03 0.130E-03
CGA:  13    -0.336222862435E+03   -0.79028E-04   -0.70868E-04 11088   0.121E-03-0.699E-04
CGA:  14    -0.336222872081E+03   -0.96459E-05   -0.13341E-04 11088   0.331E-04 0.185E-04
  38 F= -.33622287E+03 E0= -.33622287E+03  d E =-.106843E-01  mag=     6.0000
       N       E                     dE             d eps       ncg     rms          ort
SDA:   1    -0.336180398465E+03    0.42464E-01    0.00000E+00 11088   0.109E+00 0.000E+00
CGA:   2    -0.336206841689E+03   -0.26443E-01   -0.26478E-01 11088   0.665E-01 0.355E-03
CGA:   3    -0.336218098652E+03   -0.11257E-01   -0.11247E-01 11088   0.194E-01-0.766E-04
CGA:   4    -0.336220869360E+03   -0.27707E-02   -0.27726E-02 11088   0.433E-02 0.542E-05
CGA:   5    -0.336221550484E+03   -0.68112E-03   -0.68909E-03 11088   0.120E-02 0.521E-04
CGA:   6    -0.336221769295E+03   -0.21881E-03   -0.22422E-03 11088   0.357E-03 0.462E-04
CGA:   7    -0.336221830890E+03   -0.61595E-04   -0.68866E-04 11088   0.117E-03 0.664E-04
CGA:   8    -0.336221849265E+03   -0.18375E-04   -0.24172E-04 11088   0.476E-04 0.502E-04
CGA:   9    -0.336221852414E+03   -0.31487E-05   -0.89919E-05 11088   0.249E-04 0.384E-04
  39 F= -.33622185E+03 E0= -.33622185E+03  d E =0.101967E-02  mag=     6.0000
       N       E                     dE             d eps       ncg     rms          ort
SDA:   1    -0.336207324200E+03    0.14525E-01    0.00000E+00 11088   0.343E-01 0.000E+00
CGA:   2    -0.336216719754E+03   -0.93956E-02   -0.93944E-02 11088   0.186E-01 0.217E-03
CGA:   3    -0.336219710550E+03   -0.29908E-02   -0.29892E-02 11088   0.515E-02-0.191E-04
CGA:   4    -0.336220491237E+03   -0.78069E-03   -0.76996E-03 11088   0.127E-02-0.951E-04
CGA:   5    -0.336220696572E+03   -0.20533E-03   -0.20391E-03 11088   0.352E-03-0.154E-04
CGA:   6    -0.336220755410E+03   -0.58838E-04   -0.60646E-04 11088   0.971E-04 0.228E-04
CGA:   7    -0.336220775706E+03   -0.20296E-04   -0.20917E-04 11088   0.351E-04 0.131E-04
CGA:   8    -0.336220781194E+03   -0.54879E-05   -0.67199E-05 11088   0.143E-04 0.157E-04
  40 F= -.33622078E+03 E0= -.33622078E+03  d E =0.107122E-02  mag=     6.0000
       N       E                     dE             d eps       ncg     rms          ort
SDA:   1    -0.336146099954E+03    0.74676E-01    0.00000E+00 11088   0.185E+00 0.000E+00
CGA:   2    -0.336196661373E+03   -0.50561E-01   -0.50544E-01 11088   0.104E+00 0.431E-03
CGA:   3    -0.336213212393E+03   -0.16551E-01   -0.16554E-01 11088   0.281E-01 0.738E-05
CGA:   4    -0.336217335895E+03   -0.41235E-02   -0.41070E-02 11088   0.653E-02-0.190E-03
CGA:   5    -0.336218402019E+03   -0.10661E-02   -0.10646E-02 11088   0.178E-02-0.234E-04
CGA:   6    -0.336218716745E+03   -0.31473E-03   -0.31830E-03 11088   0.500E-03 0.735E-04
CGA:   7    -0.336218825114E+03   -0.10837E-03   -0.10893E-03 11088   0.180E-03 0.346E-04
CGA:   8    -0.336218861346E+03   -0.36232E-04   -0.37751E-04 11088   0.689E-04 0.527E-04
CGA:   9    -0.336218875088E+03   -0.13742E-04   -0.15625E-04 11088   0.316E-04 0.396E-04
CGA:  10    -0.336218882214E+03   -0.71257E-05   -0.70821E-05 11088   0.156E-04 0.130E-04
  41 F= -.33621888E+03 E0= -.33621888E+03  d E =0.189898E-02  mag=     6.0000
       N       E                     dE             d eps       ncg     rms          ort
SDA:   1    -0.326315192359E+03    0.99037E+01    0.00000E+00 11088   0.246E+02 0.000E+00
CGA:   2    -0.333345791825E+03   -0.70306E+01   -0.70296E+01 11088   0.139E+02 0.767E-02
CGA:   3    -0.335451555573E+03   -0.21058E+01   -0.21070E+01 11088   0.351E+01 0.961E-02
CGA:   4    -0.335984578243E+03   -0.53302E+00   -0.53261E+00 11088   0.837E+00-0.658E-02
CGA:   5    -0.336120817519E+03   -0.13624E+00   -0.13620E+00 11088   0.243E+00-0.108E-02
CGA:   6    -0.336164991999E+03   -0.44174E-01   -0.44249E-01 11088   0.722E-01 0.269E-02
CGA:   7    -0.336181070409E+03   -0.16078E-01   -0.16082E-01 11088   0.292E-01-0.339E-03
CGA:   8    -0.336188172356E+03   -0.71019E-02   -0.70660E-02 11088   0.129E-01 0.104E-02
CGA:   9    -0.336191797243E+03   -0.36249E-02   -0.36071E-02 11088   0.583E-02 0.293E-03
CGA:  10    -0.336193325841E+03   -0.15286E-02   -0.15155E-02 11088   0.216E-02 0.320E-03
CGA:  11    -0.336193849384E+03   -0.52354E-03   -0.51990E-03 11088   0.745E-03 0.298E-03
CGA:  12    -0.336194004987E+03   -0.15560E-03   -0.16243E-03 11088   0.290E-03 0.278E-03
CGA:  13    -0.336194093844E+03   -0.88857E-04   -0.87927E-04 11088   0.158E-03 0.165E-03
CGA:  14    -0.336194117238E+03   -0.23395E-04   -0.27677E-04 11088   0.953E-04 0.106E-03
CGA:  15    -0.336194128778E+03   -0.11540E-04   -0.15645E-04 11088   0.782E-04 0.836E-04
CGA:  16    -0.336194137924E+03   -0.91459E-05   -0.12656E-04 11088   0.677E-04 0.718E-04
  42 F= -.33619414E+03 E0= -.33619414E+03  d E =0.247443E-01  mag=     6.0000
       N       E                     dE             d eps       ncg     rms          ort
SDA:   1    -0.335440017546E+03    0.75411E+00    0.00000E+00 11088   0.211E+01 0.000E+00
CGA:   2    -0.335929450948E+03   -0.48943E+00   -0.48945E+00 11088   0.122E+01-0.152E-02
CGA:   3    -0.336138143956E+03   -0.20869E+00   -0.20868E+00 11088   0.375E+00-0.846E-03
CGA:   4    -0.336191622845E+03   -0.53479E-01   -0.53536E-01 11088   0.813E-01 0.804E-03
CGA:   5    -0.336204592615E+03   -0.12970E-01   -0.12995E-01 11088   0.215E-01 0.590E-03
CGA:   6    -0.336208669723E+03   -0.40771E-02   -0.40761E-02 11088   0.641E-02-0.934E-04
CGA:   7    -0.336210028800E+03   -0.13591E-02   -0.13607E-02 11088   0.225E-02-0.116E-03
CGA:   8    -0.336210582966E+03   -0.55417E-03   -0.56125E-03 11088   0.989E-03-0.131E-03
CGA:   9    -0.336210848109E+03   -0.26514E-03   -0.28097E-03 11088   0.497E-03-0.159E-03
CGA:  10    -0.336210942224E+03   -0.94115E-04   -0.93619E-04 11088   0.147E-03 0.286E-04
CGA:  11    -0.336210971324E+03   -0.29099E-04   -0.80421E-04 11088   0.277E-03-0.165E-03
CGA:  12    -0.336211006424E+03   -0.35100E-04   -0.39889E-04 11088   0.404E-04 0.601E-04
CGA:  13    -0.336210725553E+03    0.28087E-03   -0.15147E-03 11088   0.176E-02-0.289E-03
CGA:  14    -0.336210956492E+03   -0.23094E-03   -0.26306E-03 11088   0.363E-03 0.130E-03
CGA:  15    -0.336211050026E+03   -0.93534E-04   -0.81290E-04 11088   0.483E-04-0.685E-04
CGA:  16    -0.336211051494E+03   -0.14674E-05   -0.48164E-05 11088   0.107E-04 0.131E-04
  43 F= -.33621105E+03 E0= -.33621105E+03  d E =-.169136E-01  mag=     6.0000
       N       E                     dE             d eps       ncg     rms          ort
SDA:   1    -0.335034127665E+03    0.11769E+01    0.00000E+00 11088   0.301E+01 0.000E+00
CGA:   2    -0.335860226141E+03   -0.82610E+00   -0.82621E+00 11088   0.173E+01-0.371E-03
CGA:   3    -0.336128890140E+03   -0.26866E+00   -0.26870E+00 11088   0.447E+00 0.867E-03
CGA:   4    -0.336194956958E+03   -0.66067E-01   -0.66061E-01 11088   0.105E+00-0.140E-03
CGA:   5    -0.336211994182E+03   -0.17037E-01   -0.17049E-01 11088   0.292E-01 0.440E-04
CGA:   6    -0.336217414199E+03   -0.54200E-02   -0.54139E-02 11088   0.838E-02-0.482E-04
CGA:   7    -0.336219240440E+03   -0.18262E-02   -0.18136E-02 11088   0.318E-02-0.131E-03
CGA:   8    -0.336220014893E+03   -0.77445E-03   -0.77370E-03 11088   0.137E-02-0.127E-04
CGA:   9    -0.336220443210E+03   -0.42832E-03   -0.42998E-03 11088   0.789E-03-0.224E-03
CGA:  10    -0.336220592204E+03   -0.14899E-03   -0.14998E-03 11088   0.267E-03 0.122E-04
CGA:  11    -0.336220682059E+03   -0.89855E-04   -0.10507E-03 11088   0.300E-03-0.183E-03
CGA:  12    -0.336220710770E+03   -0.28710E-04   -0.38037E-04 11088   0.537E-04 0.514E-04
CGA:  13    -0.336220688799E+03    0.21970E-04   -0.48243E-04 11088   0.473E-03-0.150E-03
CGA:  14    -0.336220753612E+03   -0.64813E-04   -0.72963E-04 11088   0.790E-04 0.484E-04
CGA:  15    -0.336220777909E+03   -0.24297E-04   -0.34706E-04 11088   0.233E-03-0.124E-03
CGA:  16    -0.336220788641E+03   -0.10733E-04   -0.21731E-04 11088   0.272E-04 0.489E-04
CGA:  17    -0.336220794668E+03   -0.60265E-05   -0.61188E-05 11088   0.125E-04 0.751E-06
  44 F= -.33622079E+03 E0= -.33622079E+03  d E =-.974317E-02  mag=     6.0000
       N       E                     dE             d eps       ncg     rms          ort
SDA:   1    -0.335897769065E+03    0.32302E+00    0.00000E+00 11088   0.113E+01 0.000E+00
CGA:   2    -0.336077562363E+03   -0.17979E+00   -0.18003E+00 11088   0.481E+00 0.588E-03
CGA:   3    -0.336175211179E+03   -0.97649E-01   -0.97627E-01 11088   0.230E+00-0.391E-03
CGA:   4    -0.336209896274E+03   -0.34685E-01   -0.34653E-01 11088   0.492E-01-0.307E-03
CGA:   5    -0.336217196440E+03   -0.73002E-02   -0.73361E-02 11088   0.120E-01 0.243E-03
CGA:   6    -0.336219509797E+03   -0.23134E-02   -0.23241E-02 11088   0.351E-02 0.123E-03
CGA:   7    -0.336220240812E+03   -0.73102E-03   -0.73026E-03 11088   0.111E-02-0.129E-04
CGA:   8    -0.336220467606E+03   -0.22679E-03   -0.23142E-03 11088   0.352E-03 0.769E-04
CGA:   9    -0.336220568729E+03   -0.10112E-03   -0.10111E-03 11088   0.145E-03 0.281E-05
CGA:  10    -0.336220612721E+03   -0.43992E-04   -0.44544E-04 11088   0.664E-04-0.146E-04
CGA:  11    -0.336220626528E+03   -0.13807E-04   -0.13999E-04 11088   0.202E-04 0.577E-05
CGA:  12    -0.336220638907E+03   -0.12378E-04    0.48189E-04 11088   0.764E-05 0.192E-05
CGA:  13    -0.336220644507E+03   -0.56003E-05    0.43028E-05 11088   0.348E-05 0.126E-05
  45 F= -.33622064E+03 E0= -.33622064E+03  d E =0.150161E-03  mag=     6.0000
       N       E                     dE             d eps       ncg     rms          ort
SDA:   1    -0.336040247480E+03    0.18039E+00    0.00000E+00 11088   0.551E+00 0.000E+00
CGA:   2    -0.336145456958E+03   -0.10521E+00   -0.10529E+00 11088   0.296E+00 0.767E-03
CGA:   3    -0.336199846546E+03   -0.54390E-01   -0.54398E-01 11088   0.106E+00 0.369E-04
CGA:   4    -0.336215231926E+03   -0.15385E-01   -0.15371E-01 11088   0.227E-01-0.171E-03
CGA:   5    -0.336218805179E+03   -0.35733E-02   -0.35692E-02 11088   0.619E-02-0.510E-04
CGA:   6    -0.336219974357E+03   -0.11692E-02   -0.11723E-02 11088   0.174E-02 0.527E-04
CGA:   7    -0.336220327978E+03   -0.35362E-03   -0.35516E-03 11088   0.559E-03 0.355E-04
CGA:   8    -0.336220451265E+03   -0.12329E-03   -0.12439E-03 11088   0.193E-03 0.446E-04
CGA:   9    -0.336220502448E+03   -0.51184E-04   -0.51092E-04 11088   0.714E-04 0.252E-04
CGA:  10    -0.336220521556E+03   -0.19108E-04   -0.19170E-04 11088   0.239E-04 0.151E-04
CGA:  11    -0.336220525874E+03   -0.43171E-05   -0.50978E-05 11088   0.806E-05 0.119E-04
  46 F= -.33622053E+03 E0= -.33622053E+03  d E =0.118633E-03  mag=     6.0000
