 vasp.6.1.2 22Jul20 (build Feb 09 2022 12:23:39) complex                        
  
 executed on             LinuxIFC date 2022.02.23  11:04:32
 running on  240 total cores
 distrk:  each k-point on  240 cores,    1 groups
 distr:  one band on NCORE=  24 cores,   10 groups


--------------------------------------------------------------------------------------------------------


 INCAR:
 POTCAR:    PAW_PBE Ca_sv 06Sep2000               
 POTCAR:    PAW_PBE V_pv 07Sep2000                
 POTCAR:    PAW_PBE P 06Sep2000                   
 POTCAR:    PAW_PBE O 08Apr2002                   
 POTCAR:    PAW_PBE Ca_sv 06Sep2000               
   SHA256 =  a47365830e737f14e0e6c5cf1ed81b94e081eecf0a33df105380881bc9da05d5 Ca_sv/POTCAR          
   COPYR  = (c) Copyright 06Sep2000 Georg Kresse                                                    
   COPYR  = This file is part of the software VASP. Any use, copying, and all other rights are regul
   COPYR  = If you do not have a valid VASP license, you may not use, copy or distribute this file. 
   VRHFIN =Ca: 3s3p4s                                                                               
   LEXCH  = PE                                                                                      
   EATOM  =  1006.0909 eV,   73.9456 Ry                                                             
                                                                                                    
   TITEL  = PAW_PBE Ca_sv 06Sep2000                                                                 
   LULTRA =        F    use ultrasoft PP ?                                                          
   IUNSCR =        1    unscreen: 0-lin 1-nonlin 2-no                                               
   RPACOR =    2.000    partial core radius                                                         
   POMASS =   40.078; ZVAL   =   10.000    mass and valenz                                          
   RCORE  =    2.300    outmost cutoff radius                                                       
   RWIGS  =    2.500; RWIGS  =    1.323    wigner-seitz radius (au A)                               
   ENMAX  =  266.622; ENMIN  =  199.967 eV                                                          
   RCLOC  =    1.808    cutoff for local pot                                                        
   LCOR   =        T    correct aug charges                                                         
   LPAW   =        T    paw PP                                                                      
   EAUG   =  420.852                                                                                
   RMAX   =    2.359    core radius for proj-oper                                                   
   RAUG   =    1.300    factor for augmentation sphere                                              
   RDEP   =    2.392    radius for radial grids                                                     
   RDEPT  =    1.987    core radius for aug-charge                                                  
                                                                                                    
   Atomic configuration                                                                             
    7 entries                                                                                       
     n  l   j            E        occ.                                                              
     1  0  0.50     -3949.1705   2.0000                                                             
     2  0  0.50      -414.3434   2.0000                                                             
     2  1  1.50      -334.7047   6.0000                                                             
     3  0  0.50       -47.0896   2.0000                                                             
     4  0  0.50        -3.7663   2.0000                                                             
     3  1  1.50       -28.0061   6.0000                                                             
     3  2  1.50        -4.0817   0.0000                                                             
   Description                                                                                      
     l       E           TYP  RCUT    TYP  RCUT                                                     
     0    -47.0896403     23  2.300                                                                 
     0     -3.7663320     23  2.300                                                                 
     1    -28.0060855     23  2.300                                                                 
     1      6.8029130     23  2.300                                                                 
     2     -4.0817478     23  2.300                                                                 
     2      0.4464412     23  2.300                                                                 
  local pseudopotential read in
  partial core-charges read in
  partial kinetic energy density read in
  atomic valenz-charges read in
  non local Contribution for L=           0  read in
    real space projection operators read in
  non local Contribution for L=           0  read in
    real space projection operators read in
  non local Contribution for L=           1  read in
    real space projection operators read in
  non local Contribution for L=           1  read in
    real space projection operators read in
  non local Contribution for L=           2  read in
    real space projection operators read in
  non local Contribution for L=           2  read in
    real space projection operators read in
    PAW grid and wavefunctions read in
 
   number of l-projection  operators is LMAX  =           6
   number of lm-projection operators is LMMAX =          18
 
 POTCAR:    PAW_PBE V_pv 07Sep2000                
   SHA256 =  1175d3c8cb4ffd1d150a520fa74fae5c3ec72c0849b5615a94a5372dd2cf07f7 V_pv/POTCAR           
   COPYR  = (c) Copyright 07Sep2000 Georg Kresse                                                    
   COPYR  = This file is part of the software VASP. Any use, copying, and all other rights are regul
   COPYR  = If you do not have a valid VASP license, you may not use, copy or distribute this file. 
   VRHFIN =V: p6 d4 s1                                                                              
   LEXCH  = PE                                                                                      
   EATOM  =  1321.6206 eV,   97.1364 Ry                                                             
                                                                                                    
   TITEL  = PAW_PBE V_pv 07Sep2000                                                                  
   LULTRA =        F    use ultrasoft PP ?                                                          
   IUNSCR =        1    unscreen: 0-lin 1-nonlin 2-no                                               
   RPACOR =    1.700    partial core radius                                                         
   POMASS =   50.941; ZVAL   =   11.000    mass and valenz                                          
   RCORE  =    2.300    outmost cutoff radius                                                       
   RWIGS  =    2.300; RWIGS  =    1.217    wigner-seitz radius (au A)                               
   ENMAX  =  263.673; ENMIN  =  197.755 eV                                                          
   RCLOC  =    1.779    cutoff for local pot                                                        
   LCOR   =        T    correct aug charges                                                         
   LPAW   =        T    paw PP                                                                      
   EAUG   =  598.473                                                                                
   DEXC   =    0.000                                                                                
   RMAX   =    2.359    core radius for proj-oper                                                   
   RAUG   =    1.300    factor for augmentation sphere                                              
   RDEP   =    2.430    radius for radial grids                                                     
   RDEPT  =    1.700    core radius for aug-charge                                                  
                                                                                                    
   Atomic configuration                                                                             
    8 entries                                                                                       
     n  l   j            E        occ.                                                              
     1  0  0.50     -5360.7193   2.0000                                                             
     2  0  0.50      -598.4546   2.0000                                                             
     2  1  1.50      -499.0155   6.0000                                                             
     3  0  0.50       -66.5711   2.0000                                                             
     3  1  1.50       -40.5282   6.0000                                                             
     3  2  2.50        -2.4291   4.0000                                                             
     4  0  0.50        -3.8743   1.0000                                                             
     4  3  2.50        -1.3606   0.0000                                                             
   Description                                                                                      
     l       E           TYP  RCUT    TYP  RCUT                                                     
     1    -40.5282431     23  2.000                                                                 
     1      5.4423304     23  2.000                                                                 
     2     -2.4290905     23  2.300                                                                 
     2     -1.0472488     23  2.300                                                                 
     0     -3.8742754     23  2.300                                                                 
     0     27.2116520     23  2.300                                                                 
  local pseudopotential read in
  partial core-charges read in
  partial kinetic energy density read in
  atomic valenz-charges read in
  non local Contribution for L=           1  read in
    real space projection operators read in
  non local Contribution for L=           1  read in
    real space projection operators read in
  non local Contribution for L=           2  read in
    real space projection operators read in
  non local Contribution for L=           2  read in
    real space projection operators read in
  non local Contribution for L=           0  read in
    real space projection operators read in
  non local Contribution for L=           0  read in
    real space projection operators read in
    PAW grid and wavefunctions read in
 
   number of l-projection  operators is LMAX  =           6
   number of lm-projection operators is LMMAX =          18
 
 POTCAR:    PAW_PBE P 06Sep2000                   
   SHA256 =  df60c54a93efe35c9e85ae94c010c75e9f6960a95d5595d7cdba4096d109af88 P/POTCAR              
   COPYR  = (c) Copyright 06Sep2000 Georg Kresse                                                    
   COPYR  = This file is part of the software VASP. Any use, copying, and all other rights are regul
   COPYR  = If you do not have a valid VASP license, you may not use, copy or distribute this file. 
   VRHFIN =P : s2p3                                                                                 
   LEXCH  = PE                                                                                      
   EATOM  =   176.0430 eV,   12.9388 Ry                                                             
                                                                                                    
   TITEL  = PAW_PBE P 06Sep2000                                                                     
   LULTRA =        F    use ultrasoft PP ?                                                          
   IUNSCR =        1    unscreen: 0-lin 1-nonlin 2-no                                               
   RPACOR =    1.500    partial core radius                                                         
   POMASS =   30.974; ZVAL   =    5.000    mass and valenz                                          
   RCORE  =    1.900    outmost cutoff radius                                                       
   RWIGS  =    2.330; RWIGS  =    1.233    wigner-seitz radius (au A)                               
   ENMAX  =  255.040; ENMIN  =  191.280 eV                                                          
   ICORE  =        2    local potential                                                             
   LCOR   =        T    correct aug charges                                                         
   LPAW   =        T    paw PP                                                                      
   EAUG   =  342.924                                                                                
   DEXC   =    0.000                                                                                
   RMAX   =    1.935    core radius for proj-oper                                                   
   RAUG   =    1.300    factor for augmentation sphere                                              
   RDEP   =    1.931    radius for radial grids                                                     
   RDEPT  =    1.794    core radius for aug-charge                                                  
                                                                                                    
   Atomic configuration                                                                             
    6 entries                                                                                       
     n  l   j            E        occ.                                                              
     1  0  0.50     -2084.0982   2.0000                                                             
     2  0  0.50      -173.9859   2.0000                                                             
     2  1  1.50      -124.4865   6.0000                                                             
     3  0  0.50       -13.9692   2.0000                                                             
     3  1  0.50        -5.5067   3.0000                                                             
     3  2  1.50        -5.4423   0.0000                                                             
   Description                                                                                      
     l       E           TYP  RCUT    TYP  RCUT                                                     
     0    -13.9691527     23  1.900                                                                 
     0    -11.7794650     23  1.900                                                                 
     1     -5.5066937     23  1.900                                                                 
     1     -0.2556953     23  1.900                                                                 
     2     -5.4423304     23  1.900                                                                 
  local pseudopotential read in
  partial core-charges read in
  partial kinetic energy density read in
  atomic valenz-charges read in
  non local Contribution for L=           0  read in
    real space projection operators read in
  non local Contribution for L=           0  read in
    real space projection operators read in
  non local Contribution for L=           1  read in
    real space projection operators read in
  non local Contribution for L=           1  read in
    real space projection operators read in
    PAW grid and wavefunctions read in
 
   number of l-projection  operators is LMAX  =           4
   number of lm-projection operators is LMMAX =           8
 
 POTCAR:    PAW_PBE O 08Apr2002                   
   SHA256 =  818f92134a0a090dccd8ba1447fa70422a3b330e708bb4f08108d8ae51209ddf O/POTCAR              
   COPYR  = (c) Copyright 08Apr2002 Georg Kresse                                                    
   COPYR  = This file is part of the software VASP. Any use, copying, and all other rights are regul
   COPYR  = If you do not have a valid VASP license, you may not use, copy or distribute this file. 
   VRHFIN =O: s2p4                                                                                  
   LEXCH  = PE                                                                                      
   EATOM  =   432.3788 eV,   31.7789 Ry                                                             
                                                                                                    
   TITEL  = PAW_PBE O 08Apr2002                                                                     
   LULTRA =        F    use ultrasoft PP ?                                                          
   IUNSCR =        1    unscreen: 0-lin 1-nonlin 2-no                                               
   RPACOR =    1.200    partial core radius                                                         
   POMASS =   16.000; ZVAL   =    6.000    mass and valenz                                          
   RCORE  =    1.520    outmost cutoff radius                                                       
   RWIGS  =    1.550; RWIGS  =    0.820    wigner-seitz radius (au A)                               
   ENMAX  =  400.000; ENMIN  =  300.000 eV                                                          
   ICORE  =        2    local potential                                                             
   LCOR   =        T    correct aug charges                                                         
   LPAW   =        T    paw PP                                                                      
   EAUG   =  605.392                                                                                
   DEXC   =    0.000                                                                                
   RMAX   =    1.553    core radius for proj-oper                                                   
   RAUG   =    1.300    factor for augmentation sphere                                              
   RDEP   =    1.550    radius for radial grids                                                     
   RDEPT  =    1.329    core radius for aug-charge                                                  
                                                                                                    
   Atomic configuration                                                                             
    4 entries                                                                                       
     n  l   j            E        occ.                                                              
     1  0  0.50      -514.6923   2.0000                                                             
     2  0  0.50       -23.9615   2.0000                                                             
     2  1  0.50        -9.0305   4.0000                                                             
     3  2  1.50        -9.5241   0.0000                                                             
   Description                                                                                      
     l       E           TYP  RCUT    TYP  RCUT                                                     
     0    -23.9615318     23  1.200                                                                 
     0     -9.5240782     23  1.200                                                                 
     1     -9.0304911     23  1.520                                                                 
     1      8.1634956     23  1.520                                                                 
     2     -9.5240782      7  1.500                                                                 
  local pseudopotential read in
  partial core-charges read in
  partial kinetic energy density read in
  kinetic energy density of atom read in
  atomic valenz-charges read in
  non local Contribution for L=           0  read in
    real space projection operators read in
  non local Contribution for L=           0  read in
    real space projection operators read in
  non local Contribution for L=           1  read in
    real space projection operators read in
  non local Contribution for L=           1  read in
    real space projection operators read in
    PAW grid and wavefunctions read in
 
   number of l-projection  operators is LMAX  =           4
   number of lm-projection operators is LMMAX =           8
 
 Optimization of the real space projectors (new method)

 maximal supplied QI-value         = 16.25
 optimisation between [QCUT,QGAM] = [ 11.54, 23.24] = [ 37.28,151.24] Ry 
 Optimized for a Real-space Cutoff    1.58 Angstroem

   l    n(q)    QCUT    max X(q) W(low)/X(q) W(high)/X(q)  e(spline) 
   0     11    11.539    11.817    0.25E-04    0.22E-05    0.26E-07
   0     11    11.539     8.461    0.39E-04    0.49E-05    0.55E-07
   1     11    11.539     3.957    0.21E-05    0.44E-05    0.32E-07
   1     11    11.539     4.314    0.56E-04    0.44E-04    0.19E-06
   2     10    11.539    14.565    0.25E-03    0.21E-04    0.75E-06
   2     10    11.539    14.552    0.23E-03    0.22E-04    0.72E-06
 Optimization of the real space projectors (new method)

 maximal supplied QI-value         = 16.25
 optimisation between [QCUT,QGAM] = [ 11.54, 23.24] = [ 37.28,151.24] Ry 
 Optimized for a Real-space Cutoff    1.53 Angstroem

   l    n(q)    QCUT    max X(q) W(low)/X(q) W(high)/X(q)  e(spline) 
   1     10    11.539     3.206    0.43E-05    0.46E-05    0.52E-07
   1     10    11.539     4.597    0.39E-04    0.25E-04    0.17E-06
   2     10    11.539    89.000    0.10E-03    0.13E-03    0.24E-06
   2     10    11.539    82.410    0.10E-03    0.13E-03    0.23E-06
   0     11    11.539    36.565    0.42E-04    0.19E-04    0.30E-06
   0     11    11.539    13.729    0.20E-04    0.13E-04    0.22E-06
 Optimization of the real space projectors (new method)

 maximal supplied QI-value         = 19.84
 optimisation between [QCUT,QGAM] = [ 11.51, 23.22] = [ 37.09,150.92] Ry 
 Optimized for a Real-space Cutoff    1.21 Angstroem

   l    n(q)    QCUT    max X(q) W(low)/X(q) W(high)/X(q)  e(spline) 
   0      8    11.508   160.924    0.96E-04    0.17E-03    0.52E-07
   0      8    11.508   130.086    0.95E-04    0.17E-03    0.51E-07
   1      8    11.508    74.434    0.16E-03    0.74E-04    0.91E-07
   1      8    11.508    49.120    0.16E-03    0.71E-04    0.89E-07
 Optimization of the real space projectors (new method)

 maximal supplied QI-value         = 24.76
 optimisation between [QCUT,QGAM] = [ 11.64, 23.27] = [ 37.91,151.63] Ry 
 Optimized for a Real-space Cutoff    1.14 Angstroem

   l    n(q)    QCUT    max X(q) W(low)/X(q) W(high)/X(q)  e(spline) 
   0      8    11.635    20.381    0.10E-03    0.33E-03    0.24E-06
   0      8    11.635    15.268    0.11E-03    0.35E-03    0.26E-06
   1      7    11.635     5.964    0.24E-03    0.31E-03    0.30E-06
   1      7    11.635     5.382    0.22E-03    0.25E-03    0.26E-06
  PAW_PBE Ca_sv 06Sep2000               :
 energy of atom  1       EATOM=-1006.0909
 kinetic energy error for atom=    0.0022 (will be added to EATOM!!)
  PAW_PBE V_pv 07Sep2000                :
 energy of atom  2       EATOM=-1321.6206
 kinetic energy error for atom=    0.0054 (will be added to EATOM!!)
  PAW_PBE P 06Sep2000                   :
 energy of atom  3       EATOM= -176.0430
 kinetic energy error for atom=    0.0011 (will be added to EATOM!!)
  PAW_PBE O 08Apr2002                   :
 energy of atom  4       EATOM= -432.3788
 kinetic energy error for atom=    0.0208 (will be added to EATOM!!)
 
 
 POSCAR: Ca1 V4 P6 O24
  positions in direct lattice
  velocities in cartesian coordinates

 METAGGA = SCAN     LMAXTAU =  6    LMIXTAU =  F

 exchange correlation table for  LEXCH =        8
   RHO(1)=    0.500       N(1)  =     2000
   RHO(2)=  100.500       N(2)  =     4000
 


--------------------------------------------------------------------------------------------------------


 ion  position               nearest neighbor table
   1  0.507  0.507  0.478-  12 2.38  21 2.40  19 2.41  16 2.44  14 2.44  23 2.44
   2  0.644  0.646  0.642-  29 1.82  27 1.87  25 1.88  12 1.94  16 1.98  14 2.01
   3  0.139  0.140  0.146-  17 1.83  24 1.90  15 1.92  13 1.93  28 1.95  26 1.96
   4  0.852  0.850  0.858-  22 1.85  33 1.88  20 1.91  18 1.93  31 1.96  35 1.96
   5  0.349  0.350  0.354-  32 1.82  34 1.86  30 1.88  19 1.96  23 1.99  21 2.00
   6  0.251  0.526  0.960-  30 1.52  14 1.53  24 1.53  22 1.53
   7  0.035  0.744  0.469-  31 1.51  25 1.52  21 1.53  17 1.54
   8  0.959  0.248  0.530-  18 1.51  26 1.53  16 1.53  32 1.55
   9  0.464  0.032  0.748-  13 1.51  27 1.53  23 1.54  33 1.54
  10  0.530  0.963  0.246-  20 1.52  28 1.52  34 1.52  12 1.55
  11  0.746  0.467  0.036-  15 1.51  35 1.53  19 1.53  29 1.54
  12  0.603  0.759  0.398-  10 1.55   2 1.94   1 2.38
  13  0.309  0.021  0.949-   9 1.51   3 1.93
  14  0.398  0.592  0.755-   6 1.53   2 2.01   1 2.44
  15  0.950  0.312  0.016-  11 1.51   3 1.92
  16  0.758  0.398  0.601-   8 1.53   2 1.98   1 2.44
  17  0.024  0.953  0.314-   7 1.54   3 1.83
  18  0.977  0.044  0.682-   8 1.51   4 1.93
  19  0.596  0.391  0.235-  11 1.53   5 1.96   1 2.41
  20  0.686  0.980  0.043-  10 1.52   4 1.91
  21  0.239  0.600  0.394-   7 1.53   5 2.00   1 2.40
  22  0.045  0.681  0.970-   6 1.53   4 1.85
  23  0.406  0.239  0.595-   9 1.54   5 1.99   1 2.44
  24  0.261  0.331  0.989-   6 1.53   3 1.90
  25  0.877  0.700  0.490-   7 1.52   2 1.88
  26  0.974  0.272  0.336-   8 1.53   3 1.96
  27  0.489  0.881  0.690-   9 1.53   2 1.87
  28  0.340  0.971  0.267-  10 1.52   3 1.95
  29  0.691  0.509  0.872-  11 1.54   2 1.82
  30  0.300  0.503  0.116-   6 1.52   5 1.88
  31  0.015  0.724  0.663-   7 1.51   4 1.96
  32  0.119  0.304  0.499-   8 1.55   5 1.82
  33  0.661  1.000  0.739-   9 1.54   4 1.88
  34  0.495  0.120  0.301-  10 1.52   5 1.86
  35  0.724  0.654  0.033-  11 1.53   4 1.96
 

IMPORTANT INFORMATION: All symmetrisations will be switched off!
NOSYMM: (Re-)initialisation of all symmetry stuff for point group C_1.


----------------------------------------------------------------------------------------

                                     Primitive cell                                     

  volume of cell :     431.1116

  direct lattice vectors                    reciprocal lattice vectors
     2.618295372  6.936722928  4.521752464    -0.001645024  0.146789168 -0.003080360
     0.290532574  0.186125443  8.714326184    -0.071299775 -0.050138127  0.118201553
     7.413509324  0.178511842  4.547586587     0.138264083 -0.049877949 -0.003544355

  length of vectors
     8.684459741  8.721154322  8.698995961     0.146830700  0.146864212  0.147028326

  position of ions in fractional coordinates (direct lattice)
     0.506845098  0.507476478  0.478022629
     0.643786821  0.645790109  0.642170542
     0.138747636  0.140152741  0.145671132
     0.852072779  0.850158180  0.857707246
     0.348615891  0.350341723  0.353546709
     0.250722163  0.525663569  0.959714700
     0.035412980  0.744460731  0.468877166
     0.959490612  0.248414289  0.530339360
     0.463637566  0.032263945  0.747871250
     0.529898284  0.962551446  0.246110039
     0.746211763  0.466523316  0.035984394
     0.603025186  0.759100757  0.397535500
     0.308598634  0.021150046  0.949078689
     0.398476100  0.591594112  0.755301681
     0.949769652  0.312084106  0.015535940
     0.757854588  0.398131748  0.600670903
     0.023796394  0.952860951  0.313734261
     0.977403251  0.044167203  0.682018541
     0.596037263  0.391239284  0.235267353
     0.685956988  0.979863681  0.042885707
     0.238763397  0.599901736  0.394349163
     0.044918682  0.681490837  0.970328752
     0.405697692  0.238517288  0.594793066
     0.261166355  0.330587066  0.989111500
     0.877390460  0.699773199  0.489614542
     0.974106044  0.272479547  0.335548761
     0.488699927  0.881194989  0.690415228
     0.340097383  0.971228036  0.266706441
     0.691040275  0.508697064  0.872163568
     0.299833872  0.503476275  0.115508756
     0.015344130  0.723665573  0.663022238
     0.118819889  0.303807651  0.499001750
     0.661273836  0.999594561  0.739233456
     0.494930507  0.119950412  0.301108340
     0.723957902  0.654047352  0.033450697

  ion indices of the primitive-cell ions
   primitive index   ion index
                 1           1
                 2           2
                 3           3
                 4           4
                 5           5
                 6           6
                 7           7
                 8           8
                 9           9
                10          10
                11          11
                12          12
                13          13
                14          14
                15          15
                16          16
                17          17
                18          18
                19          19
                20          20
                21          21
                22          22
                23          23
                24          24
                25          25
                26          26
                27          27
                28          28
                29          29
                30          30
                31          31
                32          32
                33          33
                34          34
                35          35

----------------------------------------------------------------------------------------

 
 
 KPOINTS: Fully automatic kpoint scheme           

Automatic generation of k-mesh.
 generate k-points for:    5    5    5
Space group operators:
 irot       det(A)        alpha          n_x          n_y          n_z        tau_x        tau_y        tau_z
    1     1.000000     0.000000     1.000000     0.000000     0.000000     0.000000     0.000000     0.000000
 
 Subroutine IBZKPT returns following result:
 ===========================================
 
 Found     63 irreducible k-points:
 
 Following reciprocal coordinates:
            Coordinates               Weight
  0.000000  0.000000  0.000000      1.000000
  0.200000  0.000000 -0.000000      2.000000
  0.400000 -0.000000 -0.000000      2.000000
  0.000000  0.200000  0.000000      2.000000
  0.200000  0.200000 -0.000000      2.000000
  0.400000  0.200000 -0.000000      2.000000
 -0.400000  0.200000  0.000000      2.000000
 -0.200000  0.200000  0.000000      2.000000
  0.000000  0.400000  0.000000      2.000000
  0.200000  0.400000  0.000000      2.000000
  0.400000  0.400000  0.000000      2.000000
 -0.400000  0.400000  0.000000      2.000000
 -0.200000  0.400000  0.000000      2.000000
  0.000000 -0.000000  0.200000      2.000000
  0.200000 -0.000000  0.200000      2.000000
  0.400000 -0.000000  0.200000      2.000000
 -0.400000  0.000000  0.200000      2.000000
 -0.200000  0.000000  0.200000      2.000000
  0.000000  0.200000  0.200000      2.000000
  0.200000  0.200000  0.200000      2.000000
  0.400000  0.200000  0.200000      2.000000
 -0.400000  0.200000  0.200000      2.000000
 -0.200000  0.200000  0.200000      2.000000
  0.000000  0.400000  0.200000      2.000000
  0.200000  0.400000  0.200000      2.000000
  0.400000  0.400000  0.200000      2.000000
 -0.400000  0.400000  0.200000      2.000000
 -0.200000  0.400000  0.200000      2.000000
 -0.000000 -0.400000  0.200000      2.000000
  0.200000 -0.400000  0.200000      2.000000
  0.400000 -0.400000  0.200000      2.000000
 -0.400000 -0.400000  0.200000      2.000000
 -0.200000 -0.400000  0.200000      2.000000
 -0.000000 -0.200000  0.200000      2.000000
  0.200000 -0.200000  0.200000      2.000000
  0.400000 -0.200000  0.200000      2.000000
 -0.400000 -0.200000  0.200000      2.000000
 -0.200000 -0.200000  0.200000      2.000000
  0.000000 -0.000000  0.400000      2.000000
  0.200000 -0.000000  0.400000      2.000000
  0.400000 -0.000000  0.400000      2.000000
 -0.400000 -0.000000  0.400000      2.000000
 -0.200000 -0.000000  0.400000      2.000000
  0.000000  0.200000  0.400000      2.000000
  0.200000  0.200000  0.400000      2.000000
  0.400000  0.200000  0.400000      2.000000
 -0.400000  0.200000  0.400000      2.000000
 -0.200000  0.200000  0.400000      2.000000
  0.000000  0.400000  0.400000      2.000000
  0.200000  0.400000  0.400000      2.000000
  0.400000  0.400000  0.400000      2.000000
 -0.400000  0.400000  0.400000      2.000000
 -0.200000  0.400000  0.400000      2.000000
 -0.000000 -0.400000  0.400000      2.000000
  0.200000 -0.400000  0.400000      2.000000
  0.400000 -0.400000  0.400000      2.000000
 -0.400000 -0.400000  0.400000      2.000000
 -0.200000 -0.400000  0.400000      2.000000
  0.000000 -0.200000  0.400000      2.000000
  0.200000 -0.200000  0.400000      2.000000
  0.400000 -0.200000  0.400000      2.000000
 -0.400000 -0.200000  0.400000      2.000000
 -0.200000 -0.200000  0.400000      2.000000
 
 Following cartesian coordinates:
            Coordinates               Weight
  0.000000  0.000000  0.000000      1.000000
 -0.000329  0.029358 -0.000616      2.000000
 -0.000658  0.058716 -0.001232      2.000000
 -0.014260 -0.010028  0.023640      2.000000
 -0.014589  0.019330  0.023024      2.000000
 -0.014918  0.048688  0.022408      2.000000
 -0.013602 -0.068743  0.024872      2.000000
 -0.013931 -0.039385  0.024256      2.000000
 -0.028520 -0.020055  0.047281      2.000000
 -0.028849  0.009303  0.046665      2.000000
 -0.029178  0.038660  0.046048      2.000000
 -0.027862 -0.078771  0.048513      2.000000
 -0.028191 -0.049413  0.047897      2.000000
  0.027653 -0.009976 -0.000709      2.000000
  0.027324  0.019382 -0.001325      2.000000
  0.026995  0.048740 -0.001941      2.000000
  0.028311 -0.068691  0.000523      2.000000
  0.027982 -0.039333 -0.000093      2.000000
  0.013393 -0.020003  0.022931      2.000000
  0.013064  0.009355  0.022315      2.000000
  0.012735  0.038712  0.021699      2.000000
  0.014051 -0.078719  0.024164      2.000000
  0.013722 -0.049361  0.023548      2.000000
 -0.000867 -0.030031  0.046572      2.000000
 -0.001196 -0.000673  0.045956      2.000000
 -0.001525  0.028685  0.045340      2.000000
 -0.000209 -0.088747  0.047804      2.000000
 -0.000538 -0.059389  0.047188      2.000000
  0.056173  0.010080 -0.047989      2.000000
  0.055844  0.039437 -0.048606      2.000000
  0.055515  0.068795 -0.049222      2.000000
  0.056831 -0.048636 -0.046757      2.000000
  0.056502 -0.019278 -0.047373      2.000000
  0.041913  0.000052 -0.024349      2.000000
  0.041584  0.029410 -0.024965      2.000000
  0.041255  0.058768 -0.025581      2.000000
  0.042571 -0.058664 -0.023117      2.000000
  0.042242 -0.029306 -0.023733      2.000000
  0.055306 -0.019951 -0.001418      2.000000
  0.054977  0.009407 -0.002034      2.000000
  0.054648  0.038764 -0.002650      2.000000
  0.055964 -0.078667 -0.000186      2.000000
  0.055635 -0.049309 -0.000802      2.000000
  0.041046 -0.029979  0.022223      2.000000
  0.040717 -0.000621  0.021606      2.000000
  0.040388  0.028737  0.020990      2.000000
  0.041704 -0.088694  0.023455      2.000000
  0.041375 -0.059337  0.022839      2.000000
  0.026786 -0.040006  0.045863      2.000000
  0.026457 -0.010649  0.045247      2.000000
  0.026128  0.018709  0.044631      2.000000
  0.027444 -0.098722  0.047095      2.000000
  0.027115 -0.069364  0.046479      2.000000
  0.083826  0.000104 -0.048698      2.000000
  0.083497  0.029462 -0.049314      2.000000
  0.083168  0.058820 -0.049931      2.000000
  0.084484 -0.058612 -0.047466      2.000000
  0.084155 -0.029254 -0.048082      2.000000
  0.069566 -0.009924 -0.025058      2.000000
  0.069237  0.019434 -0.025674      2.000000
  0.068908  0.048792 -0.026290      2.000000
  0.070224 -0.068639 -0.023826      2.000000
  0.069895 -0.039281 -0.024442      2.000000
 


--------------------------------------------------------------------------------------------------------




 Dimension of arrays:
   k-points           NKPTS =     63   k-points in BZ     NKDIM =     63   number of bands    NBANDS=    150
   number of dos      NEDOS =    301   number of ions     NIONS =     35
   non local maximal  LDIM  =      6   non local SUM 2l+1 LMDIM =     18
   total plane-waves  NPLWV = 343000
   max r-space proj   IRMAX =  13190   max aug-charges    IRDMAX=  38155
   dimension x,y,z NGX =    70 NGY =   70 NGZ =   70
   dimension x,y,z NGXF=   140 NGYF=  140 NGZF=  140
   support grid    NGXF=   140 NGYF=  140 NGZF=  140
   ions per type =               1   4   6  24
   NGX,Y,Z   is equivalent  to a cutoff of  13.40, 13.34, 13.38 a.u.
   NGXF,Y,Z  is equivalent  to a cutoff of  26.80, 26.69, 26.76 a.u.

 SYSTEM =  unknown system                          
 POSCAR =  Ca1 V4 P6 O24                           

 Startparameter for this run:
   NWRITE =      2    write-flag & timer
   PREC   = accura    normal or accurate (medium, high low for compatibility)
   ISTART =      0    job   : 0-new  1-cont  2-samecut
   ICHARG =      1    charge: 1-file 2-atom 10-const
   ISPIN  =      2    spin polarized calculation?
   LNONCOLLINEAR =      F non collinear calculations
   LSORBIT =      F    spin-orbit coupling
   INIWAV =      1    electr: 0-lowe 1-rand  2-diag
   LASPH  =      T    aspherical Exc in radial PAW
   METAGGA=      F    non-selfconsistent MetaGGA calc.

 Electronic Relaxation 1
   ENCUT  =  520.0 eV  38.22 Ry    6.18 a.u.  16.15 16.22 16.17*2*pi/ulx,y,z
   ENINI  =  520.0     initial cutoff
   ENAUG  =  605.4 eV  augmentation charge cutoff
   NELM   =    150;   NELMIN=  6; NELMDL= -5     # of ELM steps 
   EDIFF  = 0.1E-04   stopping-criterion for ELM
   LREAL  =      T    real-space projection
   NLSPLINE    = F    spline interpolate recip. space projectors
   LCOMPAT=      F    compatible to vasp.4.4
   GGA_COMPAT  = T    GGA compatible to vasp.4.4-vasp.4.6
   LMAXPAW     = -100 max onsite density
   LMAXMIX     =    2 max onsite mixed and CHGCAR
   VOSKOWN=      0    Vosko Wilk Nusair interpolation
   ROPT   =   -0.00025  -0.00025  -0.00025  -0.00025
 Ionic relaxation
   EDIFFG = -.3E-01   stopping-criterion for IOM
   NSW    =    199    number of steps for IOM
   NBLOCK =      1;   KBLOCK =    199    inner block; outer block 
   IBRION =      2    ionic relax: 0-MD 1-quasi-New 2-CG
   NFREE  =      1    steps in history (QN), initial steepest desc. (CG)
   ISIF   =      3    stress and relaxation
   IWAVPR =     11    prediction:  0-non 1-charg 2-wave 3-comb
   ISYM   =      0    0-nonsym 1-usesym 2-fastsym
   LCORR  =      T    Harris-Foulkes like correction to forces

   POTIM  = 0.5000    time-step for ionic-motion
   TEIN   =    0.0    initial temperature
   TEBEG  =    0.0;   TEEND  =   0.0 temperature during run
   SMASS  =  -3.00    Nose mass-parameter (am)
   estimated Nose-frequenzy (Omega)   =  0.10E-29 period in steps = 0.13E+47 mass=  -0.172E-26a.u.
   SCALEE = 1.0000    scale energy and forces
   NPACO  =    256;   APACO  = 16.0  distance and # of slots for P.C.
   PSTRESS=    0.0 pullay stress

  Mass of Ions in am
   POMASS =  40.08 50.94 30.97 16.00
  Ionic Valenz
   ZVAL   =  10.00 11.00  5.00  6.00
  Atomic Wigner-Seitz radii
   RWIGS  =  -1.00 -1.00 -1.00 -1.00
  virtual crystal weights 
   VCA    =   1.00  1.00  1.00  1.00
   NELECT =     228.0000    total number of electrons
   NUPDOWN=      -1.0000    fix difference up-down

 DOS related values:
   EMIN   =  10.00;   EMAX   =-10.00  energy-range for DOS
   EFERMI =   0.00
   ISMEAR =     0;   SIGMA  =   0.05  broadening in eV -4-tet -1-fermi 0-gaus

 Electronic relaxation 2 (details)
   IALGO  =     38    algorithm
   LDIAG  =      T    sub-space diagonalisation (order eigenvalues)
   LSUBROT=      F    optimize rotation matrix (better conditioning)
   TURBO    =      0    0=normal 1=particle mesh
   IRESTART =      0    0=no restart 2=restart with 2 vectors
   NREBOOT  =      0    no. of reboots
   NMIN     =      0    reboot dimension
   EREF     =   0.00    reference energy to select bands
   IMIX   =      4    mixing-type and parameters
     AMIX     =   0.40;   BMIX     =  1.00
     AMIX_MAG =   1.60;   BMIX_MAG =  1.00
     AMIN     =   0.10
     WC   =   100.;   INIMIX=   1;  MIXPRE=   1;  MAXMIX= -45

 Intra band minimization:
   WEIMIN = 0.0010     energy-eigenvalue tresh-hold
   EBREAK =  0.17E-07  absolut break condition
   DEPER  =   0.30     relativ break condition  

   TIME   =   0.40     timestep for ELM

  volume/ion in A,a.u.               =      12.32        83.12
  Fermi-wavevector in a.u.,A,eV,Ry     =   1.323904  2.501816 23.847232  1.752722
  Thomas-Fermi vector in A             =   2.453478
 
 Write flags
   LWAVE        =      F    write WAVECAR
   LDOWNSAMPLE  =      F    k-point downsampling of WAVECAR
   LCHARG       =      T    write CHGCAR
   LVTOT        =      F    write LOCPOT, total local potential
   LVHAR        =      F    write LOCPOT, Hartree potential only
   LELF         =      F    write electronic localiz. function (ELF)
   LORBIT       =     11    0 simple, 1 ext, 2 COOP (PROOUT), +10 PAW based schemes


 Dipole corrections
   LMONO  =      F    monopole corrections only (constant potential shift)
   LDIPOL =      F    correct potential (dipole corrections)
   IDIPOL =      0    1-x, 2-y, 3-z, 4-all directions 
   EPSILON=  1.0000000 bulk dielectric constant

 Exchange correlation treatment:
   GGA     =    --    GGA type
   LEXCH   =     8    internal setting for exchange type
   VOSKOWN=      0    Vosko Wilk Nusair interpolation
   LHFCALC =     F    Hartree Fock is set to
   LHFONE  =     F    Hartree Fock one center treatment
   AEXX    =    0.0000 exact exchange contribution

 Linear response parameters
   LEPSILON=     F    determine dielectric tensor
   LRPA    =     F    only Hartree local field effects (RPA)
   LNABLA  =     F    use nabla operator in PAW spheres
   LVEL    =     F    velocity operator in full k-point grid
   LINTERFAST=   F  fast interpolation
   KINTER  =     0    interpolate to denser k-point grid
   CSHIFT  =0.1000    complex shift for real part using Kramers Kronig
   OMEGAMAX=  -1.0    maximum frequency
   DEG_THRESHOLD= 0.2000000E-02 threshold for treating states as degnerate
   RTIME   =   -0.100 relaxation time in fs
  (WPLASMAI=    0.000 imaginary part of plasma frequency in eV, 0.658/RTIME)
   DFIELD  = 0.0000000 0.0000000 0.0000000 field for delta impulse in time
 
 Orbital magnetization related:
   ORBITALMAG=     F  switch on orbital magnetization
   LCHIMAG   =     F  perturbation theory with respect to B field
   DQ        =  0.001000  dq finite difference perturbation B field
   LLRAUG    =     F  two centre corrections for induced B field



--------------------------------------------------------------------------------------------------------


 conjugate gradient relaxation of ions
 charge density and potential will be updated during run
 spin polarized calculation
 Variant of blocked Davidson
 Davidson routine will perform the subspace rotation
 perform sub-space diagonalisation
    after iterative eigenvector-optimisation
 modified Broyden-mixing scheme, WC =      100.0
 initial mixing is a Kerker type mixing with AMIX =  0.4000 and BMIX =      1.0000
 Hartree-type preconditioning will be used
 using additional bands           36
 real space projection scheme for non local part
 use partial core corrections
 calculate Harris-corrections to forces 
   (improved forces if not selfconsistent)
 use gradient corrections 
 use of overlap-Matrix (Vanderbilt PP)
 Gauss-broadening in eV      SIGMA  =   0.05


--------------------------------------------------------------------------------------------------------


  energy-cutoff  :      520.00
  volume of cell :      431.11
      direct lattice vectors                 reciprocal lattice vectors
     2.618295372  6.936722928  4.521752464    -0.001645024  0.146789168 -0.003080360
     0.290532574  0.186125443  8.714326184    -0.071299775 -0.050138127  0.118201553
     7.413509324  0.178511842  4.547586587     0.138264083 -0.049877949 -0.003544355

  length of vectors
     8.684459741  8.721154322  8.698995961     0.146830700  0.146864212  0.147028326


 
 k-points in units of 2pi/SCALE and weight: Fully automatic kpoint scheme           
   0.00000000  0.00000000  0.00000000       0.008
  -0.00032900  0.02935783 -0.00061607       0.016
  -0.00065801  0.05871567 -0.00123214       0.016
  -0.01425996 -0.01002763  0.02364031       0.016
  -0.01458896  0.01933021  0.02302424       0.016
  -0.01491796  0.04868804  0.02240817       0.016
  -0.01360195 -0.06874329  0.02487245       0.016
  -0.01393095 -0.03938546  0.02425638       0.016
  -0.02851991 -0.02005525  0.04728062       0.016
  -0.02884891  0.00930258  0.04666455       0.016
  -0.02917792  0.03866042  0.04604848       0.016
  -0.02786190 -0.07877092  0.04851277       0.016
  -0.02819091 -0.04941308  0.04789669       0.016
   0.02765282 -0.00997559 -0.00070887       0.016
   0.02732381  0.01938224 -0.00132494       0.016
   0.02699481  0.04874008 -0.00194102       0.016
   0.02831083 -0.06869126  0.00052327       0.016
   0.02798182 -0.03933342 -0.00009280       0.016
   0.01339286 -0.02000322  0.02293144       0.016
   0.01306386  0.00935462  0.02231537       0.016
   0.01273485  0.03871245  0.02169930       0.016
   0.01405087 -0.07871888  0.02416358       0.016
   0.01372187 -0.04936105  0.02354751       0.016
  -0.00086709 -0.03003084  0.04657175       0.016
  -0.00119610 -0.00067301  0.04595568       0.016
  -0.00152510  0.02868483  0.04533961       0.016
  -0.00020908 -0.08874651  0.04780389       0.016
  -0.00053809 -0.05938867  0.04718782       0.016
   0.05617273  0.01007966 -0.04798949       0.016
   0.05584372  0.03943749 -0.04860556       0.016
   0.05551472  0.06879533 -0.04922164       0.016
   0.05683074 -0.04863601 -0.04675735       0.016
   0.05650173 -0.01927817 -0.04737342       0.016
   0.04191277  0.00005204 -0.02434918       0.016
   0.04158377  0.02940987 -0.02496525       0.016
   0.04125476  0.05876770 -0.02558133       0.016
   0.04257078 -0.05866363 -0.02311704       0.016
   0.04224178 -0.02930580 -0.02373311       0.016
   0.05530563 -0.01995118 -0.00141774       0.016
   0.05497663  0.00940665 -0.00203381       0.016
   0.05464762  0.03876449 -0.00264989       0.016
   0.05596364 -0.07866685 -0.00018560       0.016
   0.05563464 -0.04930901 -0.00080167       0.016
   0.04104568 -0.02997880  0.02222257       0.016
   0.04071667 -0.00062097  0.02160650       0.016
   0.04038767  0.02873686  0.02099042       0.016
   0.04170369 -0.08869447  0.02345471       0.016
   0.04137468 -0.05933664  0.02283864       0.016
   0.02678572 -0.04000643  0.04586288       0.016
   0.02645672 -0.01064860  0.04524681       0.016
   0.02612771  0.01870924  0.04463074       0.016
   0.02744373 -0.09872210  0.04709502       0.016
   0.02711473 -0.06936426  0.04647895       0.016
   0.08382554  0.00010407 -0.04869836       0.016
   0.08349654  0.02946190 -0.04931444       0.016
   0.08316753  0.05881974 -0.04993051       0.016
   0.08448355 -0.05861160 -0.04746622       0.016
   0.08415455 -0.02925376 -0.04808229       0.016
   0.06956559 -0.00992355 -0.02505805       0.016
   0.06923658  0.01943428 -0.02567412       0.016
   0.06890758  0.04879211 -0.02629020       0.016
   0.07022360 -0.06863922 -0.02382591       0.016
   0.06989459 -0.03928139 -0.02444198       0.016
 
 k-points in reciprocal lattice and weights: Fully automatic kpoint scheme           
   0.00000000  0.00000000  0.00000000       0.008
   0.20000000  0.00000000 -0.00000000       0.016
   0.40000000 -0.00000000 -0.00000000       0.016
   0.00000000  0.20000000  0.00000000       0.016
   0.20000000  0.20000000 -0.00000000       0.016
   0.40000000  0.20000000 -0.00000000       0.016
  -0.40000000  0.20000000  0.00000000       0.016
  -0.20000000  0.20000000  0.00000000       0.016
   0.00000000  0.40000000  0.00000000       0.016
   0.20000000  0.40000000  0.00000000       0.016
   0.40000000  0.40000000  0.00000000       0.016
  -0.40000000  0.40000000  0.00000000       0.016
  -0.20000000  0.40000000  0.00000000       0.016
   0.00000000 -0.00000000  0.20000000       0.016
   0.20000000 -0.00000000  0.20000000       0.016
   0.40000000 -0.00000000  0.20000000       0.016
  -0.40000000  0.00000000  0.20000000       0.016
  -0.20000000  0.00000000  0.20000000       0.016
   0.00000000  0.20000000  0.20000000       0.016
   0.20000000  0.20000000  0.20000000       0.016
   0.40000000  0.20000000  0.20000000       0.016
  -0.40000000  0.20000000  0.20000000       0.016
  -0.20000000  0.20000000  0.20000000       0.016
   0.00000000  0.40000000  0.20000000       0.016
   0.20000000  0.40000000  0.20000000       0.016
   0.40000000  0.40000000  0.20000000       0.016
  -0.40000000  0.40000000  0.20000000       0.016
  -0.20000000  0.40000000  0.20000000       0.016
  -0.00000000 -0.40000000  0.20000000       0.016
   0.20000000 -0.40000000  0.20000000       0.016
   0.40000000 -0.40000000  0.20000000       0.016
  -0.40000000 -0.40000000  0.20000000       0.016
  -0.20000000 -0.40000000  0.20000000       0.016
  -0.00000000 -0.20000000  0.20000000       0.016
   0.20000000 -0.20000000  0.20000000       0.016
   0.40000000 -0.20000000  0.20000000       0.016
  -0.40000000 -0.20000000  0.20000000       0.016
  -0.20000000 -0.20000000  0.20000000       0.016
   0.00000000 -0.00000000  0.40000000       0.016
   0.20000000 -0.00000000  0.40000000       0.016
   0.40000000 -0.00000000  0.40000000       0.016
  -0.40000000 -0.00000000  0.40000000       0.016
  -0.20000000 -0.00000000  0.40000000       0.016
   0.00000000  0.20000000  0.40000000       0.016
   0.20000000  0.20000000  0.40000000       0.016
   0.40000000  0.20000000  0.40000000       0.016
  -0.40000000  0.20000000  0.40000000       0.016
  -0.20000000  0.20000000  0.40000000       0.016
   0.00000000  0.40000000  0.40000000       0.016
   0.20000000  0.40000000  0.40000000       0.016
   0.40000000  0.40000000  0.40000000       0.016
  -0.40000000  0.40000000  0.40000000       0.016
  -0.20000000  0.40000000  0.40000000       0.016
  -0.00000000 -0.40000000  0.40000000       0.016
   0.20000000 -0.40000000  0.40000000       0.016
   0.40000000 -0.40000000  0.40000000       0.016
  -0.40000000 -0.40000000  0.40000000       0.016
  -0.20000000 -0.40000000  0.40000000       0.016
   0.00000000 -0.20000000  0.40000000       0.016
   0.20000000 -0.20000000  0.40000000       0.016
   0.40000000 -0.20000000  0.40000000       0.016
  -0.40000000 -0.20000000  0.40000000       0.016
  -0.20000000 -0.20000000  0.40000000       0.016
 
 position of ions in fractional coordinates (direct lattice) 
   0.50684510  0.50747648  0.47802263
   0.64378682  0.64579011  0.64217054
   0.13874764  0.14015274  0.14567113
   0.85207278  0.85015818  0.85770725
   0.34861589  0.35034172  0.35354671
   0.25072216  0.52566357  0.95971470
   0.03541298  0.74446073  0.46887717
   0.95949061  0.24841429  0.53033936
   0.46363757  0.03226394  0.74787125
   0.52989828  0.96255145  0.24611004
   0.74621176  0.46652332  0.03598439
   0.60302519  0.75910076  0.39753550
   0.30859863  0.02115005  0.94907869
   0.39847610  0.59159411  0.75530168
   0.94976965  0.31208411  0.01553594
   0.75785459  0.39813175  0.60067090
   0.02379639  0.95286095  0.31373426
   0.97740325  0.04416720  0.68201854
   0.59603726  0.39123928  0.23526735
   0.68595699  0.97986368  0.04288571
   0.23876340  0.59990174  0.39434916
   0.04491868  0.68149084  0.97032875
   0.40569769  0.23851729  0.59479307
   0.26116636  0.33058707  0.98911150
   0.87739046  0.69977320  0.48961454
   0.97410604  0.27247955  0.33554876
   0.48869993  0.88119499  0.69041523
   0.34009738  0.97122804  0.26670644
   0.69104027  0.50869706  0.87216357
   0.29983387  0.50347627  0.11550876
   0.01534413  0.72366557  0.66302224
   0.11881989  0.30380765  0.49900175
   0.66127384  0.99959456  0.73923346
   0.49493051  0.11995041  0.30110834
   0.72395790  0.65404735  0.03345070
 
 position of ions in cartesian coordinates  (Angst):
   5.01833384  3.69563100  8.88799293
   6.63398442  4.70060382 11.45899645
   1.48393553  1.01454392  2.51117125
   8.83659752  6.22193975 15.16191584
   3.63558688  2.54657163  6.23713109
   7.92404094  2.00834998 10.07889305
   3.78503698  0.46791324  8.77986188
   6.51607806  6.79662860  8.91510634
   6.76766430  3.35563435  5.77862211
   3.49162184  3.89884645 11.90326286
   2.35611367  5.26951974  7.60326338
   4.74657469  4.39527139 11.14960933
   7.85015086  2.31402157  5.89573255
   6.81464154  3.00905931 10.39195414
   2.69262392  6.64914907  7.08487700
   6.55303674  5.43835662  9.62788371
   2.66501500  0.39842594  9.83787626
   7.62811323  6.90994457  7.90600134
   3.41842608  4.24936294  7.17441836
   2.39865391  4.94832673 11.83560589
   3.72295529  1.83828850  8.10070535
   7.50914691  0.61164641 10.55449862
   5.54103737  2.96478423  6.61785496
   8.11264430  2.04973742  8.55984333
   6.13033627  6.30386211 12.29195891
   5.11725540  6.86771854  8.30507911
   6.65397634  3.67723609 13.02852369
   3.14987947  2.58754182 11.21430472
   8.42293336  5.04392791 11.52390456
   1.78765514  2.19419392  6.26851710
   5.16574543  0.35948787  9.39079124
   4.09872571  0.96984470  5.45400676
   7.50213912  4.90508529 15.06263780
   3.56299325  3.50927302  4.65255650
   2.33354474  5.14960158  9.12526034
 


--------------------------------------------------------------------------------------------------------


 k-point   1 :   0.0000 0.0000 0.0000  plane waves:   11621
 k-point   2 :   0.2000 0.0000-0.0000  plane waves:   11621
 k-point   3 :   0.4000-0.0000-0.0000  plane waves:   11585
 k-point   4 :   0.0000 0.2000 0.0000  plane waves:   11618
 k-point   5 :   0.2000 0.2000-0.0000  plane waves:   11619
 k-point   6 :   0.4000 0.2000-0.0000  plane waves:   11607
 k-point   7 :  -0.4000 0.2000 0.0000  plane waves:   11590
 k-point   8 :  -0.2000 0.2000 0.0000  plane waves:   11605
 k-point   9 :   0.0000 0.4000 0.0000  plane waves:   11590
 k-point  10 :   0.2000 0.4000 0.0000  plane waves:   11617
 k-point  11 :   0.4000 0.4000 0.0000  plane waves:   11614
 k-point  12 :  -0.4000 0.4000 0.0000  plane waves:   11608
 k-point  13 :  -0.2000 0.4000 0.0000  plane waves:   11593
 k-point  14 :   0.0000-0.0000 0.2000  plane waves:   11615
 k-point  15 :   0.2000-0.0000 0.2000  plane waves:   11630
 k-point  16 :   0.4000-0.0000 0.2000  plane waves:   11608
 k-point  17 :  -0.4000 0.0000 0.2000  plane waves:   11606
 k-point  18 :  -0.2000 0.0000 0.2000  plane waves:   11613
 k-point  19 :   0.0000 0.2000 0.2000  plane waves:   11631
 k-point  20 :   0.2000 0.2000 0.2000  plane waves:   11611
 k-point  21 :   0.4000 0.2000 0.2000  plane waves:   11614
 k-point  22 :  -0.4000 0.2000 0.2000  plane waves:   11580
 k-point  23 :  -0.2000 0.2000 0.2000  plane waves:   11583
 k-point  24 :   0.0000 0.4000 0.2000  plane waves:   11593
 k-point  25 :   0.2000 0.4000 0.2000  plane waves:   11590
 k-point  26 :   0.4000 0.4000 0.2000  plane waves:   11610
 k-point  27 :  -0.4000 0.4000 0.2000  plane waves:   11606
 k-point  28 :  -0.2000 0.4000 0.2000  plane waves:   11610
 k-point  29 :  -0.0000-0.4000 0.2000  plane waves:   11601
 k-point  30 :   0.2000-0.4000 0.2000  plane waves:   11602
 k-point  31 :   0.4000-0.4000 0.2000  plane waves:   11606
 k-point  32 :  -0.4000-0.4000 0.2000  plane waves:   11616
 k-point  33 :  -0.2000-0.4000 0.2000  plane waves:   11607
 k-point  34 :  -0.0000-0.2000 0.2000  plane waves:   11597
 k-point  35 :   0.2000-0.2000 0.2000  plane waves:   11610
 k-point  36 :   0.4000-0.2000 0.2000  plane waves:   11597
 k-point  37 :  -0.4000-0.2000 0.2000  plane waves:   11605
 k-point  38 :  -0.2000-0.2000 0.2000  plane waves:   11590
 k-point  39 :   0.0000-0.0000 0.4000  plane waves:   11594
 k-point  40 :   0.2000-0.0000 0.4000  plane waves:   11612
 k-point  41 :   0.4000-0.0000 0.4000  plane waves:   11604
 k-point  42 :  -0.4000-0.0000 0.4000  plane waves:   11606
 k-point  43 :  -0.2000-0.0000 0.4000  plane waves:   11601
 k-point  44 :   0.0000 0.2000 0.4000  plane waves:   11590
 k-point  45 :   0.2000 0.2000 0.4000  plane waves:   11599
 k-point  46 :   0.4000 0.2000 0.4000  plane waves:   11625
 k-point  47 :  -0.4000 0.2000 0.4000  plane waves:   11611
 k-point  48 :  -0.2000 0.2000 0.4000  plane waves:   11608
 k-point  49 :   0.0000 0.4000 0.4000  plane waves:   11594
 k-point  50 :   0.2000 0.4000 0.4000  plane waves:   11612
 k-point  51 :   0.4000 0.4000 0.4000  plane waves:   11661
 k-point  52 :  -0.4000 0.4000 0.4000  plane waves:   11624
 k-point  53 :  -0.2000 0.4000 0.4000  plane waves:   11609
 k-point  54 :  -0.0000-0.4000 0.4000  plane waves:   11613
 k-point  55 :   0.2000-0.4000 0.4000  plane waves:   11601
 k-point  56 :   0.4000-0.4000 0.4000  plane waves:   11613
 k-point  57 :  -0.4000-0.4000 0.4000  plane waves:   11623
 k-point  58 :  -0.2000-0.4000 0.4000  plane waves:   11603
 k-point  59 :   0.0000-0.2000 0.4000  plane waves:   11599
 k-point  60 :   0.2000-0.2000 0.4000  plane waves:   11596
 k-point  61 :   0.4000-0.2000 0.4000  plane waves:   11608
 k-point  62 :  -0.4000-0.2000 0.4000  plane waves:   11604
 k-point  63 :  -0.2000-0.2000 0.4000  plane waves:   11595

 maximum and minimum number of plane-waves per node :       515      454

 maximum number of plane-waves:     11661
 maximum index in each direction: 
   IXMAX=   16   IYMAX=   16   IZMAX=   16
   IXMIN=  -16   IYMIN=  -16   IZMIN=  -16


 real space projection operators:
  total allocation   :      17716.06 KBytes
  max/ min on nodes  :        836.28        567.16


 parallel 3D FFT for wavefunctions:
    minimum data exchange during FFTs selected (reduces bandwidth)
 parallel 3D FFT for charge:
    minimum data exchange during FFTs selected (reduces bandwidth)


 total amount of memory used by VASP MPI-rank0    60423. kBytes
=======================================================================

   base      :      30000. kBytes
   nonlr-proj:       8879. kBytes
   fftplans  :       1111. kBytes
   grid      :       4344. kBytes
   one-center:         62. kBytes
   wavefun   :      16027. kBytes
 
     INWAV:  cpu time    0.0000: real time    0.0002
 Broyden mixing: mesh for mixing (old mesh)
   NGX = 33   NGY = 33   NGZ = 33
  (NGX  =140   NGY  =140   NGZ  =140)
  gives a total of  35937 points

 initial charge density was supplied:
 number of electron     228.0000005 magnetization       4.0000002
 keeping initial charge density in first step


--------------------------------------------------------------------------------------------------------


 Maximum index for non-local projection operator          566
 Maximum index for augmentation-charges          839 (set IRDMAX)


--------------------------------------------------------------------------------------------------------


 First call to EWALD:  gamma=   0.235
 Maximum number of real-space cells 3x 3x 3
 Maximum number of reciprocal cells 3x 3x 3

    FEWALD:  cpu time    0.0027: real time    0.0027


--------------------------------------- Iteration      1(   1)  ---------------------------------------


    POTLOK:  cpu time    0.2932: real time    0.3018
    SETDIJ:  cpu time    0.8388: real time    0.8415
     EDDAV:  cpu time   41.8543: real time   42.3662
       DOS:  cpu time    0.0075: real time    0.0075
    --------------------------------------------
      LOOP:  cpu time   42.9939: real time   43.5171

 eigenvalue-minimisations  : 39550
 total energy-change (2. order) : 0.2105911E+04  (-0.1225334E+05)
 number of electron     228.0000005 magnetization       4.0000002
 augmentation part      228.0000005 magnetization       4.0000002

 Free energy of the ion-electron system (eV)
  ---------------------------------------------------
  alpha Z        PSCENC =       689.57978986
  Ewald energy   TEWEN  =    -10806.46199215
  -Hartree energ DENC   =     -6595.74829560
  -exchange      EXHF   =         0.00000000
  -V(xc)+E(xc)   XCENC  =      1046.92763062
  PAW double counting   =     37333.24920100   -37373.18544228
  entropy T*S    EENTRO =        -0.01374399
  eigenvalues    EBANDS =        86.17090186
  atomic energy  EATOM  =     17725.39291388
  Solvation  Ediel_sol  =         0.00000000
  ---------------------------------------------------
  free energy    TOTEN  =      2105.91096321 eV

  energy without entropy =     2105.92470720  energy(sigma->0) =     2105.91783521


--------------------------------------------------------------------------------------------------------




--------------------------------------- Iteration      1(   2)  ---------------------------------------


     EDDAV:  cpu time   18.2856: real time   18.3448
       DOS:  cpu time    0.0062: real time    0.0062
    --------------------------------------------
      LOOP:  cpu time   18.2918: real time   18.3510

 eigenvalue-minimisations  : 40530
 total energy-change (2. order) :-0.2311172E+04  (-0.2168048E+04)
 number of electron     228.0000005 magnetization       4.0000002
 augmentation part      228.0000005 magnetization       4.0000002

 Free energy of the ion-electron system (eV)
  ---------------------------------------------------
  alpha Z        PSCENC =       689.57978986
  Ewald energy   TEWEN  =    -10806.46199215
  -Hartree energ DENC   =     -6595.74829560
  -exchange      EXHF   =         0.00000000
  -V(xc)+E(xc)   XCENC  =      1046.92763062
  PAW double counting   =     37333.24920100   -37373.18544228
  entropy T*S    EENTRO =        -0.01130094
  eigenvalues    EBANDS =     -2225.00401007
  atomic energy  EATOM  =     17725.39291388
  Solvation  Ediel_sol  =         0.00000000
  ---------------------------------------------------
  free energy    TOTEN  =      -205.26150568 eV

  energy without entropy =     -205.25020474  energy(sigma->0) =     -205.25585521


--------------------------------------------------------------------------------------------------------




--------------------------------------- Iteration      1(   3)  ---------------------------------------


     EDDAV:  cpu time   21.0875: real time   21.1680
       DOS:  cpu time    0.0062: real time    0.0062
    --------------------------------------------
      LOOP:  cpu time   21.0936: real time   21.1742

 eigenvalue-minimisations  : 45630
 total energy-change (2. order) :-0.2446695E+03  (-0.2338786E+03)
 number of electron     228.0000005 magnetization       4.0000002
 augmentation part      228.0000005 magnetization       4.0000002

 Free energy of the ion-electron system (eV)
  ---------------------------------------------------
  alpha Z        PSCENC =       689.57978986
  Ewald energy   TEWEN  =    -10806.46199215
  -Hartree energ DENC   =     -6595.74829560
  -exchange      EXHF   =         0.00000000
  -V(xc)+E(xc)   XCENC  =      1046.92763062
  PAW double counting   =     37333.24920100   -37373.18544228
  entropy T*S    EENTRO =        -0.01026439
  eigenvalues    EBANDS =     -2469.67456734
  atomic energy  EATOM  =     17725.39291388
  Solvation  Ediel_sol  =         0.00000000
  ---------------------------------------------------
  free energy    TOTEN  =      -449.93102639 eV

  energy without entropy =     -449.92076201  energy(sigma->0) =     -449.92589420


--------------------------------------------------------------------------------------------------------




--------------------------------------- Iteration      1(   4)  ---------------------------------------


     EDDAV:  cpu time   20.6323: real time   20.7222
       DOS:  cpu time    0.0063: real time    0.0063
    --------------------------------------------
      LOOP:  cpu time   20.6386: real time   20.7285

 eigenvalue-minimisations  : 48260
 total energy-change (2. order) :-0.8054866E+01  (-0.7990635E+01)
 number of electron     228.0000005 magnetization       4.0000002
 augmentation part      228.0000005 magnetization       4.0000002

 Free energy of the ion-electron system (eV)
  ---------------------------------------------------
  alpha Z        PSCENC =       689.57978986
  Ewald energy   TEWEN  =    -10806.46199215
  -Hartree energ DENC   =     -6595.74829560
  -exchange      EXHF   =         0.00000000
  -V(xc)+E(xc)   XCENC  =      1046.92763062
  PAW double counting   =     37333.24920100   -37373.18544228
  entropy T*S    EENTRO =        -0.00970171
  eigenvalues    EBANDS =     -2477.72999564
  atomic energy  EATOM  =     17725.39291388
  Solvation  Ediel_sol  =         0.00000000
  ---------------------------------------------------
  free energy    TOTEN  =      -457.98589201 eV

  energy without entropy =     -457.97619030  energy(sigma->0) =     -457.98104115


--------------------------------------------------------------------------------------------------------




--------------------------------------- Iteration      1(   5)  ---------------------------------------


     EDDAV:  cpu time   26.3003: real time   26.3948
       DOS:  cpu time    0.0063: real time    0.0063
    CHARGE:  cpu time    1.6207: real time    1.6254
    MIXING:  cpu time    0.0016: real time    0.0017
    --------------------------------------------
      LOOP:  cpu time   27.9290: real time   28.0282

 eigenvalue-minimisations  : 64610
 total energy-change (2. order) :-0.4776459E+00  (-0.4771326E+00)
 number of electron     228.0000005 magnetization       4.0000002
 augmentation part       33.1078159 magnetization       2.4175521

 Broyden mixing:
  rms(total) = 0.90341E+00    rms(broyden)= 0.90235E+00
  rms(prec ) = 0.10752E+01
  weight for this iteration     100.00

 Free energy of the ion-electron system (eV)
  ---------------------------------------------------
  alpha Z        PSCENC =       689.57978986
  Ewald energy   TEWEN  =    -10806.46199215
  -Hartree energ DENC   =     -6595.74829560
  -exchange      EXHF   =         0.00000000
  -V(xc)+E(xc)   XCENC  =      1046.92763062
  PAW double counting   =     37333.24920100   -37373.18544228
  entropy T*S    EENTRO =        -0.00969880
  eigenvalues    EBANDS =     -2478.20764447
  atomic energy  EATOM  =     17725.39291388
  Solvation  Ediel_sol  =         0.00000000
  ---------------------------------------------------
  free energy    TOTEN  =      -458.46353794 eV

  energy without entropy =     -458.45383914  energy(sigma->0) =     -458.45868854


--------------------------------------------------------------------------------------------------------




--------------------------------------- Iteration      1(   6)  ---------------------------------------


    POTLOK:  cpu time    0.0794: real time    0.0873
    SETDIJ:  cpu time    0.8350: real time    0.8379
     EDDAV:  cpu time   17.9901: real time   18.0418
       DOS:  cpu time    0.0060: real time    0.0060
    CHARGE:  cpu time    1.6194: real time    1.6237
    MIXING:  cpu time    0.0009: real time    0.0009
    --------------------------------------------
      LOOP:  cpu time   20.5309: real time   20.5977

 eigenvalue-minimisations  : 41110
 total energy-change (2. order) : 0.7648353E+02  (-0.2339114E+01)
 number of electron     228.0000004 magnetization       4.0000002
 augmentation part       34.3889348 magnetization       2.4806108

 Broyden mixing:
  rms(total) = 0.12745E+01    rms(broyden)= 0.12741E+01
  rms(prec ) = 0.17915E+01
  weight for this iteration     100.00

 eigenvalues of (default mixing * dielectric matrix)
  average eigenvalue GAMMA=   0.3520
  0.3520

 Free energy of the ion-electron system (eV)
  ---------------------------------------------------
  alpha Z        PSCENC =       689.57978986
  Ewald energy   TEWEN  =    -10806.46199215
  -Hartree energ DENC   =     -6546.11799237
  -exchange      EXHF   =         0.00000000
  -V(xc)+E(xc)   XCENC  =      1076.75597828
  PAW double counting   =     37560.43261327   -37598.73267632
  entropy T*S    EENTRO =        -0.01591081
  eigenvalues    EBANDS =     -2482.81273462
  atomic energy  EATOM  =     17725.39291388
  Solvation  Ediel_sol  =         0.00000000
  ---------------------------------------------------
  free energy    TOTEN  =      -381.98001099 eV

  energy without entropy =     -381.96410018  energy(sigma->0) =     -381.97205558


--------------------------------------------------------------------------------------------------------




--------------------------------------- Iteration      1(   7)  ---------------------------------------


    POTLOK:  cpu time    0.0787: real time    0.0855
    SETDIJ:  cpu time    0.7914: real time    0.8394
     EDDAV:  cpu time   22.9031: real time   23.0210
       DOS:  cpu time    0.0061: real time    0.0061
    CHARGE:  cpu time    1.6254: real time    1.6300
    MIXING:  cpu time    0.0008: real time    0.0008
    --------------------------------------------
      LOOP:  cpu time   25.4055: real time   25.5828

 eigenvalue-minimisations  : 52230
 total energy-change (2. order) : 0.2455407E+00  (-0.5603024E+00)
 number of electron     228.0000005 magnetization       4.0000002
 augmentation part       34.4803264 magnetization       2.5012101

 Broyden mixing:
  rms(total) = 0.70820E+00    rms(broyden)= 0.70753E+00
  rms(prec ) = 0.93648E+00
  weight for this iteration     100.00

 eigenvalues of (default mixing * dielectric matrix)
  average eigenvalue GAMMA=   0.3535
  0.3822  0.3247

 Free energy of the ion-electron system (eV)
  ---------------------------------------------------
  alpha Z        PSCENC =       689.57978986
  Ewald energy   TEWEN  =    -10806.46199215
  -Hartree energ DENC   =     -6556.83969860
  -exchange      EXHF   =         0.00000000
  -V(xc)+E(xc)   XCENC  =      1081.05970992
  PAW double counting   =     37474.13442804   -37512.98410402
  entropy T*S    EENTRO =        -0.00298107
  eigenvalues    EBANDS =     -2475.61253614
  atomic energy  EATOM  =     17725.39291388
  Solvation  Ediel_sol  =         0.00000000
  ---------------------------------------------------
  free energy    TOTEN  =      -381.73447029 eV

  energy without entropy =     -381.73148922  energy(sigma->0) =     -381.73297975


--------------------------------------------------------------------------------------------------------




--------------------------------------- Iteration      1(   8)  ---------------------------------------


    POTLOK:  cpu time    0.0822: real time    0.0887
    SETDIJ:  cpu time    0.8346: real time    0.8369
     EDDAV:  cpu time   21.6202: real time   21.9170
       DOS:  cpu time    0.0047: real time    0.0047
    CHARGE:  cpu time    1.8483: real time    1.8567
    MIXING:  cpu time    0.0021: real time    0.0021
    --------------------------------------------
      LOOP:  cpu time   24.3920: real time   24.7060

 eigenvalue-minimisations  : 52930
 total energy-change (2. order) :-0.1185323E-01  (-0.9290821E-01)
 number of electron     228.0000005 magnetization       4.0000002
 augmentation part       34.4448162 magnetization       2.5084652

 Broyden mixing:
  rms(total) = 0.38258E+00    rms(broyden)= 0.38223E+00
  rms(prec ) = 0.44084E+00
  weight for this iteration     100.00

 eigenvalues of (default mixing * dielectric matrix)
  average eigenvalue GAMMA=   0.4358
  0.5257  0.5257  0.2561

 Free energy of the ion-electron system (eV)
  ---------------------------------------------------
  alpha Z        PSCENC =       689.57978986
  Ewald energy   TEWEN  =    -10806.46199215
  -Hartree energ DENC   =     -6569.38689587
  -exchange      EXHF   =         0.00000000
  -V(xc)+E(xc)   XCENC  =      1081.72994636
  PAW double counting   =     37453.28568491   -37492.70391353
  entropy T*S    EENTRO =        -0.00000003
  eigenvalues    EBANDS =     -2463.18185694
  atomic energy  EATOM  =     17725.39291388
  Solvation  Ediel_sol  =         0.00000000
  ---------------------------------------------------
  free energy    TOTEN  =      -381.74632351 eV

  energy without entropy =     -381.74632348  energy(sigma->0) =     -381.74632349


--------------------------------------------------------------------------------------------------------




--------------------------------------- Iteration      1(   9)  ---------------------------------------


    POTLOK:  cpu time    0.0873: real time    0.0939
    SETDIJ:  cpu time    0.8362: real time    0.8385
     EDDAV:  cpu time   22.4152: real time   22.5124
       DOS:  cpu time    0.0034: real time    0.0034
    CHARGE:  cpu time    1.7415: real time    1.7465
    MIXING:  cpu time    0.0008: real time    0.0008
    --------------------------------------------
      LOOP:  cpu time   25.0845: real time   25.1955

 eigenvalue-minimisations  : 53190
 total energy-change (2. order) :-0.3806446E-01  (-0.1405127E-01)
 number of electron     228.0000005 magnetization       4.0000002
 augmentation part       34.3739316 magnetization       2.4991733

 Broyden mixing:
  rms(total) = 0.29133E+00    rms(broyden)= 0.29123E+00
  rms(prec ) = 0.34089E+00
  weight for this iteration     100.00

 eigenvalues of (default mixing * dielectric matrix)
  average eigenvalue GAMMA=   0.5106
  0.6893  0.6893  0.2739  0.3899

 Free energy of the ion-electron system (eV)
  ---------------------------------------------------
  alpha Z        PSCENC =       689.57978986
  Ewald energy   TEWEN  =    -10806.46199215
  -Hartree energ DENC   =     -6576.15274277
  -exchange      EXHF   =         0.00000000
  -V(xc)+E(xc)   XCENC  =      1081.80370997
  PAW double counting   =     37489.70034204   -37529.37718542
  entropy T*S    EENTRO =        -0.00000000
  eigenvalues    EBANDS =     -2456.26922338
  atomic energy  EATOM  =     17725.39291388
  Solvation  Ediel_sol  =         0.00000000
  ---------------------------------------------------
  free energy    TOTEN  =      -381.78438797 eV

  energy without entropy =     -381.78438797  energy(sigma->0) =     -381.78438797


--------------------------------------------------------------------------------------------------------




--------------------------------------- Iteration      1(  10)  ---------------------------------------


    POTLOK:  cpu time    0.2103: real time    0.2174
    SETDIJ:  cpu time    0.8060: real time    0.8373
     EDDAV:  cpu time   21.9984: real time   22.1122
       DOS:  cpu time    0.0035: real time    0.0035
    CHARGE:  cpu time    1.7267: real time    1.7316
    MIXING:  cpu time    0.0008: real time    0.0008
    --------------------------------------------
      LOOP:  cpu time   24.7458: real time   24.9028

 eigenvalue-minimisations  : 53290
 total energy-change (2. order) : 0.5612923E-02  (-0.2209350E-02)
 number of electron     228.0000005 magnetization       4.0000002
 augmentation part       34.3584899 magnetization       2.4966323

 Broyden mixing:
  rms(total) = 0.23180E+00    rms(broyden)= 0.23178E+00
  rms(prec ) = 0.27281E+00
  weight for this iteration     100.00

 eigenvalues of (default mixing * dielectric matrix)
  average eigenvalue GAMMA=   0.5859
  0.8612  0.8612  0.2621  0.4726  0.4726

 Free energy of the ion-electron system (eV)
  ---------------------------------------------------
  alpha Z        PSCENC =       689.57978986
  Ewald energy   TEWEN  =    -10806.46199215
  -Hartree energ DENC   =     -6579.58092478
  -exchange      EXHF   =         0.00000000
  -V(xc)+E(xc)   XCENC  =      1081.86151810
  PAW double counting   =     37500.33129197   -37540.23129555
  entropy T*S    EENTRO =        -0.00000000
  eigenvalues    EBANDS =     -2452.67007639
  atomic energy  EATOM  =     17725.39291388
  Solvation  Ediel_sol  =         0.00000000
  ---------------------------------------------------
  free energy    TOTEN  =      -381.77877505 eV

  energy without entropy =     -381.77877505  energy(sigma->0) =     -381.77877505


--------------------------------------------------------------------------------------------------------




--------------------------------------- Iteration      1(  11)  ---------------------------------------


    POTLOK:  cpu time    0.0797: real time    0.0865
    SETDIJ:  cpu time    0.8379: real time    0.8403
     EDDAV:  cpu time   22.1654: real time   22.3763
       DOS:  cpu time    0.0036: real time    0.0036
    CHARGE:  cpu time    1.6929: real time    1.6991
    MIXING:  cpu time    0.0007: real time    0.0007
    --------------------------------------------
      LOOP:  cpu time   24.7802: real time   25.0065

 eigenvalue-minimisations  : 53130
 total energy-change (2. order) : 0.1001881E-01  (-0.1036450E-02)
 number of electron     228.0000005 magnetization       4.0000002
 augmentation part       34.3384006 magnetization       2.4954523

 Broyden mixing:
  rms(total) = 0.17870E+00    rms(broyden)= 0.17869E+00
  rms(prec ) = 0.21232E+00
  weight for this iteration     100.00

 eigenvalues of (default mixing * dielectric matrix)
  average eigenvalue GAMMA=   0.6518
  1.0633  1.0633  0.5493  0.5493  0.2649  0.4206

 Free energy of the ion-electron system (eV)
  ---------------------------------------------------
  alpha Z        PSCENC =       689.57978986
  Ewald energy   TEWEN  =    -10806.46199215
  -Hartree energ DENC   =     -6582.81992498
  -exchange      EXHF   =         0.00000000
  -V(xc)+E(xc)   XCENC  =      1081.95925221
  PAW double counting   =     37475.45000845   -37515.51806690
  entropy T*S    EENTRO =        -0.00000000
  eigenvalues    EBANDS =     -2449.35073661
  atomic energy  EATOM  =     17725.39291388
  Solvation  Ediel_sol  =         0.00000000
  ---------------------------------------------------
  free energy    TOTEN  =      -381.76875624 eV

  energy without entropy =     -381.76875624  energy(sigma->0) =     -381.76875624


--------------------------------------------------------------------------------------------------------




--------------------------------------- Iteration      1(  12)  ---------------------------------------


    POTLOK:  cpu time    0.1269: real time    0.1274
    SETDIJ:  cpu time    0.8345: real time    0.8369
     EDDAV:  cpu time   22.1229: real time   22.1945
       DOS:  cpu time    0.0045: real time    0.0045
    CHARGE:  cpu time    1.9530: real time    1.9826
    MIXING:  cpu time    0.0046: real time    0.0046
    --------------------------------------------
      LOOP:  cpu time   25.0463: real time   25.1504

 eigenvalue-minimisations  : 51760
 total energy-change (2. order) : 0.5766739E-02  (-0.1015313E-02)
 number of electron     228.0000005 magnetization       4.0000002
 augmentation part       34.3181547 magnetization       2.4938195

 Broyden mixing:
  rms(total) = 0.13128E+00    rms(broyden)= 0.13126E+00
  rms(prec ) = 0.15548E+00
  weight for this iteration     100.00

 eigenvalues of (default mixing * dielectric matrix)
  average eigenvalue GAMMA=   0.7536
  1.3667  1.3667  0.6820  0.6820  0.2641  0.4569  0.4569

 Free energy of the ion-electron system (eV)
  ---------------------------------------------------
  alpha Z        PSCENC =       689.57978986
  Ewald energy   TEWEN  =    -10806.46199215
  -Hartree energ DENC   =     -6586.13483071
  -exchange      EXHF   =         0.00000000
[...]
 -0.000   0.001   0.000  -0.000  -0.000   0.000   0.000   0.000  -0.000  -0.000   0.000  -0.000  -0.000   0.000   0.000  -0.000
 -0.000   0.001  -0.000   0.000  -0.000  -0.000  -0.000   0.000   0.000  -0.000  -0.000   0.000   0.000  -0.000   0.000   0.000
  0.000   0.000  -0.000  -0.000   0.000  -0.000  -0.000   0.000  -0.000  -0.000  -0.000   0.000  -0.000  -0.000   0.000   0.000


------------------------ aborting loop because EDIFF is reached ----------------------------------------


 


 total charge     
 
# of ion       s       p       d       tot
------------------------------------------
    1        2.014   5.861   0.178   8.053
    2        0.319   6.357   2.749   9.424
    3        0.317   6.354   2.719   9.390
    4        0.316   6.353   2.720   9.388
    5        0.319   6.357   2.752   9.427
    6        0.896   1.523   0.000   2.418
    7        0.897   1.527   0.000   2.423
    8        0.897   1.522   0.000   2.419
    9        0.896   1.523   0.000   2.419
   10        0.898   1.529   0.000   2.427
   11        0.898   1.525   0.000   2.423
   12        1.576   3.659   0.000   5.235
   13        1.576   3.647   0.000   5.223
   14        1.574   3.655   0.000   5.229
   15        1.579   3.638   0.000   5.217
   16        1.576   3.653   0.000   5.229
   17        1.580   3.632   0.000   5.212
   18        1.576   3.647   0.000   5.223
   19        1.577   3.663   0.000   5.240
   20        1.579   3.636   0.000   5.215
   21        1.575   3.659   0.000   5.233
   22        1.580   3.637   0.000   5.217
   23        1.575   3.648   0.000   5.223
   24        1.578   3.640   0.000   5.218
   25        1.576   3.652   0.000   5.228
   26        1.577   3.631   0.000   5.208
   27        1.577   3.643   0.000   5.220
   28        1.577   3.639   0.000   5.217
   29        1.578   3.644   0.000   5.222
   30        1.577   3.647   0.000   5.224
   31        1.578   3.643   0.000   5.221
   32        1.578   3.634   0.000   5.212
   33        1.578   3.635   0.000   5.213
   34        1.576   3.656   0.000   5.232
   35        1.578   3.629   0.000   5.207
--------------------------------------------------
tot         46.520 127.895  11.118 185.533
 


 magnetization (x)
 
# of ion       s       p       d       tot
------------------------------------------
    1        0.001  -0.000   0.000   0.001
    2        0.003   0.008   0.992   1.003
    3        0.003   0.007   0.973   0.984
    4        0.004   0.007   0.984   0.995
    5        0.003   0.007   0.993   1.004
    6        0.002   0.004   0.000   0.006
    7        0.001   0.004   0.000   0.006
    8        0.003   0.005   0.000   0.008
    9        0.003   0.006   0.000   0.009
   10        0.002   0.005   0.000   0.008
   11        0.003   0.005   0.000   0.008
   12       -0.000  -0.017   0.000  -0.017
   13       -0.000  -0.001   0.000  -0.002
   14       -0.000  -0.005   0.000  -0.006
   15        0.000  -0.003   0.000  -0.003
   16        0.000  -0.009   0.000  -0.009
   17       -0.001  -0.037   0.000  -0.038
   18       -0.000   0.003   0.000   0.003
   19       -0.000  -0.015   0.000  -0.015
   20        0.000  -0.002   0.000  -0.002
   21       -0.000  -0.004   0.000  -0.004
   22       -0.001  -0.033   0.000  -0.035
   23        0.000  -0.010   0.000  -0.010
   24       -0.001  -0.025   0.000  -0.026
   25       -0.000  -0.003   0.000  -0.003
   26       -0.000  -0.005   0.000  -0.005
   27        0.001  -0.007   0.000  -0.006
   28       -0.000  -0.000   0.000  -0.000
   29       -0.001  -0.028   0.000  -0.029
   30        0.001  -0.008   0.000  -0.008
   31       -0.000  -0.002   0.000  -0.002
   32       -0.001  -0.030   0.000  -0.031
   33       -0.001  -0.030   0.000  -0.031
   34       -0.000  -0.003   0.000  -0.003
   35        0.000  -0.006   0.000  -0.006
--------------------------------------------------
tot          0.021  -0.220   3.943   3.744
 
    CHARGE:  cpu time    0.2144: real time    0.2150
    FORLOC:  cpu time    0.0018: real time    0.0018
    FORNL :  cpu time    1.4293: real time    1.4977
    STRESS:  cpu time   32.9837: real time   33.2682
    FORCOR:  cpu time    0.0638: real time    0.0640
    FORHAR:  cpu time    0.0057: real time    0.0057
    MIXING:  cpu time    0.0006: real time    0.0006
    OFIELD:  cpu time    0.0000: real time    0.0000

  FORCE on cell =-STRESS in cart. coord.  units (eV):
  Direction    XX          YY          ZZ          XY          YZ          ZX
  --------------------------------------------------------------------------------------
  Alpha Z   688.98326   688.98326   688.98326
  Ewald   -3624.14287 -3691.89210 -3487.32009    73.20819   111.48320   143.82094
  Hartree  2186.17306  2149.35744  2261.44053    40.75911    40.89753    74.03966
  E(xc)   -1180.08593 -1180.09196 -1180.19514     0.02683    -0.03552    -0.09926
  Local   -2036.21842 -1929.67129 -2255.50862  -112.27197  -143.35314  -223.90108
  n-local  -592.73274  -591.39302  -598.11257    -1.92979    -0.44316    -3.43463
  augment   314.19812   312.43182   320.49834     0.45512    -1.81320     5.28946
  Kinetic  4243.36613  4241.78906  4249.77401    -0.27278    -6.77547     4.33037
  Fock        0.00000     0.00000     0.00000     0.00000     0.00000     0.00000
  -------------------------------------------------------------------------------------
  Total      -0.45940    -0.48679    -0.44029    -0.02529    -0.03977     0.04546
  in kB      -1.70582    -1.80752    -1.63485    -0.09392    -0.14768     0.16880
  external pressure =       -1.72 kB  Pullay stress =        0.00 kB


 VOLUME and BASIS-vectors are now :
 -----------------------------------------------------------------------------
  energy-cutoff  :      520.00
  volume of cell :      431.48
      direct lattice vectors                 reciprocal lattice vectors
     2.619089462  6.938671205  4.523103888    -0.001644633  0.146747741 -0.003079055
     0.290747386  0.186156284  8.716908873    -0.071280651 -0.050123948  0.118167525
     7.415707686  0.178556738  4.549020027     0.138224448 -0.049863354 -0.003545525

  length of vectors
     8.686958990  8.723742804  8.701619746     0.146789253  0.146822700  0.146986132


 FORCES acting on ions
    electron-ion (+dipol)            ewald-force                    non-local-force                 convergence-correction
 -----------------------------------------------------------------------------------------------
   -.190E+02 0.298E+01 0.902E+01   0.192E+02 -.332E+01 -.903E+01   -.103E+00 0.329E+00 0.368E-02   0.885E-04 -.152E-03 -.791E-04
   -.172E+02 -.269E+00 -.786E+01   0.172E+02 0.606E+00 0.875E+01   0.402E-01 -.279E+00 -.760E+00   0.558E-05 0.221E-04 0.958E-04
   0.767E+02 0.479E+02 0.116E+03   -.769E+02 -.475E+02 -.116E+03   0.222E+00 -.378E+00 -.318E+00   -.415E-04 -.214E-03 -.257E-03
   -.581E+02 -.515E+02 -.132E+03   0.578E+02 0.514E+02 0.132E+03   0.264E+00 0.108E+00 -.556E-01   -.720E-04 0.903E-04 0.290E-03
   0.445E-01 0.155E+02 0.724E+01   -.676E+00 -.154E+02 -.792E+01   0.574E+00 -.181E+00 0.524E+00   0.102E-03 -.856E-04 -.731E-04
   0.769E+01 0.147E+02 -.452E+02   -.726E+01 -.134E+02 0.452E+02   -.404E+00 -.126E+01 0.745E-01   -.214E-03 -.188E-03 -.260E-03
   0.538E+02 0.445E+01 0.526E+01   -.508E+02 -.467E+01 -.582E+01   -.286E+01 0.209E+00 0.563E+00   0.924E-04 0.863E-04 0.405E-03
   -.577E+02 -.711E+01 -.840E+01   0.575E+02 0.542E+01 0.559E+01   0.131E+00 0.165E+01 0.271E+01   -.995E-04 0.547E-05 -.325E-03
   -.277E+01 0.477E+02 0.150E+02   0.353E+01 -.492E+02 -.151E+02   -.722E+00 0.151E+01 0.142E+00   0.207E-03 0.171E-03 0.374E-03
   0.943E+01 -.500E+02 -.273E+02   -.112E+02 0.490E+02 0.268E+02   0.171E+01 0.905E+00 0.481E+00   -.286E-03 -.138E-03 -.223E-03
   0.644E+01 -.219E+02 0.552E+02   -.449E+01 0.234E+02 -.537E+02   -.190E+01 -.148E+01 -.146E+01   0.940E-04 0.107E-03 0.155E-03
   0.898E+02 -.640E+02 0.237E+02   -.724E+02 0.767E+02 -.416E+02   -.174E+02 -.127E+02 0.179E+02   0.791E-03 0.272E-03 -.762E-03
   0.205E+02 0.770E+02 0.176E+03   0.297E+01 -.991E+02 -.183E+03   -.235E+02 0.221E+02 0.731E+01   0.765E-03 -.918E-03 0.113E-02
   0.448E+02 0.890E+02 0.708E+01   -.716E+02 -.736E+02 -.251E+01   0.269E+02 -.155E+02 -.459E+01   -.118E-02 0.593E-03 -.227E-04
   0.131E+03 -.181E+02 0.161E+03   -.134E+03 0.485E+02 -.178E+03   0.349E+01 -.305E+02 0.164E+02   0.888E-03 0.144E-02 -.511E-03
   -.764E+02 0.978E+01 0.957E+02   0.802E+02 -.391E+02 -.884E+02   -.381E+01 0.294E+02 -.735E+01   -.102E-03 -.123E-02 0.301E-03
   0.941E+02 0.131E+03 0.117E+03   -.116E+03 -.142E+03 -.103E+03   0.220E+02 0.107E+02 -.139E+02   -.113E-02 -.665E-03 0.212E-02
   -.117E+03 -.118E+03 -.956E+02   0.143E+03 0.129E+03 0.777E+02   -.263E+02 -.114E+02 0.179E+02   0.111E-02 -.220E-03 -.168E-02
   -.386E+02 -.107E+03 0.278E+02   0.636E+02 0.934E+02 -.360E+02   -.250E+02 0.134E+02 0.823E+01   0.112E-02 -.655E-03 -.322E-03
   -.515E+01 -.761E+02 -.197E+03   -.187E+02 0.978E+02 0.208E+03   0.239E+02 -.217E+02 -.108E+02   -.149E-02 0.998E-03 -.764E-03
   0.617E+02 -.711E+01 -.826E+02   -.658E+02 0.365E+02 0.751E+02   0.413E+01 -.294E+02 0.745E+01   0.143E-03 0.121E-02 -.447E-03
   -.129E+03 -.141E+02 -.149E+03   0.131E+03 -.119E+02 0.162E+03   -.187E+01 0.261E+02 -.135E+02   -.965E-03 -.156E-02 0.109E-03
   -.895E+02 0.449E+02 -.507E+02   0.704E+02 -.545E+02 0.723E+02   0.191E+02 0.964E+01 -.217E+02   -.102E-02 -.184E-03 0.102E-02
   0.961E+02 -.103E+03 -.435E+01   -.987E+02 0.113E+03 -.246E+02   0.261E+01 -.921E+01 0.290E+02   0.450E-03 0.552E-03 -.223E-02
   0.150E+03 -.751E+02 -.246E+01   -.164E+03 0.594E+02 -.195E+02   0.140E+02 0.157E+02 0.220E+02   -.139E-03 -.666E-03 -.602E-03
   0.325E+02 0.112E+03 -.466E+02   -.639E+02 -.119E+03 0.396E+02   0.314E+02 0.705E+01 0.696E+01   -.843E-03 -.202E-03 -.147E-02
   0.144E+02 0.168E+03 -.206E+02   -.259E+02 -.176E+03 -.660E+01   0.115E+02 0.803E+01 0.272E+02   -.415E-03 0.181E-03 -.867E-03
   -.940E+02 -.239E+00 0.807E+02   0.952E+02 -.263E+02 -.100E+03   -.128E+01 0.266E+02 0.196E+02   -.638E-03 -.126E-02 -.290E-03
   -.105E+03 -.363E+02 0.111E+03   0.872E+02 0.293E+02 -.129E+03   0.174E+02 0.703E+01 0.174E+02   -.867E-03 -.304E-03 -.246E-03
   0.962E+02 0.407E+02 -.131E+03   -.770E+02 -.340E+02 0.155E+03   -.192E+02 -.668E+01 -.238E+02   0.105E-02 0.186E-03 0.365E-03
   -.381E+02 -.113E+03 0.500E+02   0.703E+02 0.119E+03 -.423E+02   -.323E+02 -.568E+01 -.763E+01   0.149E-02 -.228E-03 0.105E-02
   -.147E+03 0.945E+02 0.503E+01   0.159E+03 -.822E+02 0.149E+02   -.114E+02 -.123E+02 -.200E+02   -.796E-04 0.681E-03 0.766E-03
   0.112E+03 0.242E+02 -.761E+02   -.112E+03 -.110E+00 0.911E+02   0.789E+00 -.241E+02 -.149E+02   0.773E-03 0.137E-02 0.717E-03
   -.913E+01 -.154E+03 0.231E+02   0.196E+02 0.159E+03 0.298E+01   -.105E+02 -.503E+01 -.261E+02   0.286E-03 -.247E-03 0.114E-02
   -.882E+02 0.890E+02 -.149E+02   0.947E+02 -.994E+02 0.463E+02   -.644E+01 0.104E+02 -.314E+02   -.107E-03 0.892E-04 0.184E-02
 -----------------------------------------------------------------------------------------------
   0.472E+01 -.317E+01 -.374E+01   -.568E-13 0.114E-12 -.426E-13   -.473E+01 0.317E+01 0.372E+01   -.226E-03 -.105E-02 0.452E-03
 
 
 POSITION                                       TOTAL-FORCE (eV/Angst)
 -----------------------------------------------------------------------------------
      5.02002      3.69661      8.89060         0.011821     -0.003637     -0.007354
      6.63612      4.70194     11.46263         0.009551      0.004306      0.017522
      1.48431      1.01479      2.51185        -0.000088     -0.007516     -0.002461
      8.83935      6.22364     15.16650         0.001155     -0.002400     -0.002907
      3.63667      2.54732      6.23882        -0.004351      0.005280     -0.019595
      7.92649      2.00893     10.08204         0.001517     -0.007032     -0.002627
      3.78614      0.46806      8.78239        -0.002902      0.002748      0.002505
      6.51800      6.79856      8.91804        -0.005666      0.002871     -0.001169
      6.76958      3.35667      5.78034         0.006419      0.006961      0.001388
      3.49291      3.89999     11.90700        -0.000010     -0.006851      0.003879
      2.35671      5.27079      7.60540        -0.005102      0.002007     -0.001025
      4.74801      4.39626     11.15296         0.004647     -0.021151      0.003596
      7.85244      2.31469      5.89758        -0.014658      0.017162      0.002671
      6.81689      3.00984     10.39498         0.015526      0.001382     -0.008982
      2.69346      6.65098      7.08710        -0.004342     -0.022721      0.007774
      6.55491      5.43996      9.63066        -0.012932      0.005946     -0.001215
      2.66593      0.39857      9.84077        -0.000594      0.006977     -0.005782
      7.63027      6.91185      7.90847        -0.017337     -0.006136      0.015185
      3.41941      4.25056      7.17679        -0.010124     -0.007107      0.016279
      2.39962      4.94959     11.83904         0.015904     -0.012548     -0.009510
      3.72433      1.83863      8.10313         0.017674     -0.014694     -0.008594
      7.51149      0.61176     10.55778         0.001343      0.007220      0.002979
      5.54288      2.96570      6.61981         0.004486      0.009512     -0.008840
      8.11496      2.05017      8.56253        -0.012609     -0.013410      0.012300
      6.13232      6.30566     12.29575         0.007533     -0.001554      0.005707
      5.11898      6.86946      8.30742         0.020686     -0.012698     -0.008508
      6.65618      3.67818     13.03252         0.010338     -0.000868      0.002248
      3.15101      2.58823     11.21782         0.006000      0.014467      0.023256
      8.42562      5.04538     11.52732        -0.004488      0.000360     -0.009448
      1.78816      2.19484      6.27033        -0.006076      0.004734     -0.007775
      5.16718      0.35972      9.39365        -0.025571      0.011905      0.000768
      4.09997      0.97019      5.45561        -0.006433      0.014094     -0.002754
      7.50446      4.90647     15.06729        -0.004995     -0.005678      0.006631
      3.56410      3.51039      4.65395         0.003344      0.010450      0.006307
      2.33438      5.15121      9.12781         0.000335      0.017618     -0.022449
 -----------------------------------------------------------------------------------
    total drift:                               -0.010162     -0.003041     -0.029361


--------------------------------------------------------------------------------------------------------



  FREE ENERGIE OF THE ION-ELECTRON SYSTEM (eV)
  ---------------------------------------------------
  free  energy   TOTEN  =      -381.76126089 eV

  energy  without entropy=     -381.76126089  energy(sigma->0) =     -381.76126089
 
 d Force =-0.4360586E-04[-0.449E-04,-0.423E-04]  d Energy = 0.1551929E-03-0.199E-03
 d Force = 0.2516462E-01[ 0.251E-01, 0.252E-01]  d Ewald  = 0.1764148E+01-0.174E+01


--------------------------------------------------------------------------------------------------------


    POTLOK:  cpu time    0.9133: real time    0.9159


--------------------------------------------------------------------------------------------------------




--------------------------------------------------------------------------------------------------------


  
 reached required accuracy - stopping structural energy minimisation
     LOOP+:  cpu time  177.5246: real time  178.7508
    4ORBIT:  cpu time    0.0000: real time    0.0000
 


 total charge     
 
# of ion       s       p       d       tot
------------------------------------------
    1        2.014   5.861   0.178   8.053
    2        0.319   6.357   2.749   9.424
    3        0.317   6.354   2.719   9.390
    4        0.316   6.353   2.720   9.388
    5        0.319   6.357   2.752   9.427
    6        0.896   1.523   0.000   2.418
    7        0.897   1.527   0.000   2.423
    8        0.897   1.522   0.000   2.419
    9        0.896   1.523   0.000   2.419
   10        0.898   1.529   0.000   2.427
   11        0.898   1.525   0.000   2.423
   12        1.576   3.659   0.000   5.235
   13        1.576   3.647   0.000   5.223
   14        1.574   3.655   0.000   5.229
   15        1.579   3.638   0.000   5.217
   16        1.576   3.653   0.000   5.229
   17        1.580   3.632   0.000   5.212
   18        1.576   3.647   0.000   5.223
   19        1.577   3.663   0.000   5.240
   20        1.579   3.636   0.000   5.215
   21        1.575   3.659   0.000   5.233
   22        1.580   3.637   0.000   5.217
   23        1.575   3.648   0.000   5.223
   24        1.578   3.640   0.000   5.218
   25        1.576   3.652   0.000   5.228
   26        1.577   3.631   0.000   5.208
   27        1.577   3.643   0.000   5.220
   28        1.577   3.639   0.000   5.217
   29        1.578   3.644   0.000   5.222
   30        1.577   3.647   0.000   5.224
   31        1.578   3.643   0.000   5.221
   32        1.578   3.634   0.000   5.212
   33        1.578   3.635   0.000   5.213
   34        1.576   3.656   0.000   5.232
   35        1.578   3.629   0.000   5.207
--------------------------------------------------
tot         46.520 127.895  11.118 185.533
 


 magnetization (x)
 
# of ion       s       p       d       tot
------------------------------------------
    1        0.001  -0.000   0.000   0.001
    2        0.003   0.008   0.992   1.003
    3        0.003   0.007   0.973   0.984
    4        0.004   0.007   0.984   0.995
    5        0.003   0.007   0.993   1.004
    6        0.002   0.004   0.000   0.006
    7        0.001   0.004   0.000   0.006
    8        0.003   0.005   0.000   0.008
    9        0.003   0.006   0.000   0.009
   10        0.002   0.005   0.000   0.008
   11        0.003   0.005   0.000   0.008
   12       -0.000  -0.017   0.000  -0.017
   13       -0.000  -0.001   0.000  -0.002
   14       -0.000  -0.005   0.000  -0.006
   15        0.000  -0.003   0.000  -0.003
   16        0.000  -0.009   0.000  -0.009
   17       -0.001  -0.037   0.000  -0.038
   18       -0.000   0.003   0.000   0.003
   19       -0.000  -0.015   0.000  -0.015
   20        0.000  -0.002   0.000  -0.002
   21       -0.000  -0.004   0.000  -0.004
   22       -0.001  -0.033   0.000  -0.035
   23        0.000  -0.010   0.000  -0.010
   24       -0.001  -0.025   0.000  -0.026
   25       -0.000  -0.003   0.000  -0.003
   26       -0.000  -0.005   0.000  -0.005
   27        0.001  -0.007   0.000  -0.006
   28       -0.000  -0.000   0.000  -0.000
   29       -0.001  -0.028   0.000  -0.029
   30        0.001  -0.008   0.000  -0.008
   31       -0.000  -0.002   0.000  -0.002
   32       -0.001  -0.030   0.000  -0.031
   33       -0.001  -0.030   0.000  -0.031
   34       -0.000  -0.003   0.000  -0.003
   35        0.000  -0.006   0.000  -0.006
--------------------------------------------------
tot          0.021  -0.220   3.943   3.744
 

 total amount of memory used by VASP MPI-rank0    60423. kBytes
=======================================================================

   base      :      30000. kBytes
   nonlr-proj:       8879. kBytes
   fftplans  :       1111. kBytes
   grid      :       4344. kBytes
   one-center:         62. kBytes
   wavefun   :      16027. kBytes
 
  
  
 General timing and accounting informations for this job:
 ========================================================
  
                  Total CPU time used (sec):     1526.263
                            User time (sec):     1521.934
                          System time (sec):        4.329
                         Elapsed time (sec):     1538.144
  
                   Maximum memory used (kb):      452552.
                   Average memory used (kb):           0.
  
                          Minor page faults:       224400
                          Major page faults:            0
                 Voluntary context switches:         8235
