       N       E                     dE             d eps       ncg     rms          ort
DAV:   1     0.842201426964E+04    0.84220E+04   -0.52694E+05   598   0.159E+03
DAV:   2    -0.806896869817E+03   -0.92289E+04   -0.86774E+04   598   0.416E+02
DAV:   3    -0.179735844839E+04   -0.99046E+03   -0.94268E+03   598   0.147E+02
DAV:   4    -0.183100576500E+04   -0.33647E+02   -0.33464E+02   598   0.284E+01
DAV:   5    -0.183249037864E+04   -0.14846E+01   -0.14832E+01   598   0.452E+00
SDA:   6    -0.150529625643E+04    0.32719E+03   -0.14832E+01   598   0.320E+03 0.000E+00
CGA:   7    -0.151434966301E+04   -0.90534E+01   -0.18977E+02   598   0.136E+03-0.110E+03
CGA:   8    -0.152092295240E+04   -0.65733E+01   -0.48718E+01   598   0.224E+02 0.364E+02
CGA:   9    -0.152208003060E+04   -0.11571E+01   -0.81352E+00   598   0.749E+01 0.106E+02
CGA:  10    -0.152288277000E+04   -0.80274E+00   -0.67652E+00   598   0.137E+02 0.130E+01
CGA:  11    -0.152374458024E+04   -0.86181E+00   -0.89543E+00   598   0.114E+02-0.148E+01
CGA:  12    -0.152404476727E+04   -0.30019E+00   -0.45592E+00   598   0.513E+01-0.326E+01
CGA:  13    -0.152428535740E+04   -0.24059E+00   -0.27110E+00   598   0.382E+01-0.565E+00
CGA:  14    -0.152468186090E+04   -0.39650E+00   -0.39304E+00   598   0.268E+01-0.150E+00
CGA:  15    -0.152492578697E+04   -0.24393E+00   -0.24837E+00   598   0.115E+01-0.532E-01
CGA:  16    -0.152506870958E+04   -0.14292E+00   -0.14317E+00   598   0.818E+00-0.100E-01
CGA:  17    -0.152520343010E+04   -0.13472E+00   -0.13576E+00   598   0.564E+00-0.594E-01
CGA:  18    -0.152527646904E+04   -0.73039E-01   -0.72339E-01   598   0.260E+00-0.605E-01
CGA:  19    -0.152531533941E+04   -0.38870E-01   -0.39853E-01   598   0.185E+00-0.453E-01
CGA:  20    -0.152534175683E+04   -0.26417E-01   -0.27119E-01   598   0.112E+00-0.267E-01
CGA:  21    -0.152535499339E+04   -0.13237E-01   -0.13206E-01   598   0.607E-01-0.220E-02
CGA:  22    -0.152536379569E+04   -0.88023E-02   -0.88289E-02   598   0.401E-01 0.772E-02
CGA:  23    -0.152536973714E+04   -0.59415E-02   -0.60988E-02   598   0.203E-01 0.937E-02
CGA:  24    -0.152537270980E+04   -0.29727E-02   -0.31351E-02   598   0.104E-01 0.633E-02
CGA:  25    -0.152537434359E+04   -0.16338E-02   -0.17339E-02   598   0.565E-02 0.428E-02
CGA:  26    -0.152537510029E+04   -0.75670E-03   -0.87337E-03   598   0.273E-02 0.299E-02
CGA:  27    -0.152537543781E+04   -0.33753E-03   -0.36079E-03   598   0.116E-02 0.161E-02
CGA:  28    -0.152537547928E+04   -0.41466E-04   -0.10044E-03   598   0.849E-03 0.989E-03
CGA:  29    -0.152537548264E+04   -0.33573E-05   -0.59256E-04   598   0.688E-03 0.762E-03
CGA:  30    -0.152537547303E+04    0.96082E-05   -0.41017E-04   598   0.588E-03 0.634E-03
CGA:  31    -0.152537545825E+04    0.14778E-04   -0.30855E-04   598   0.519E-03 0.550E-03
CGA:  32    -0.152537544142E+04    0.16830E-04   -0.24442E-04   598   0.468E-03 0.490E-03
CGA:  33    -0.152537542396E+04    0.17461E-04   -0.20062E-04   598   0.429E-03 0.446E-03
CGA:  34    -0.152537540651E+04    0.17453E-04   -0.16900E-04   598   0.399E-03 0.411E-03
CGA:  35    -0.152537538942E+04    0.17086E-04   -0.14517E-04   598   0.374E-03 0.384E-03
CGA:  36    -0.152537537289E+04    0.16527E-04   -0.12659E-04   598   0.354E-03 0.361E-03
CGA:  37    -0.152537535701E+04    0.15880E-04   -0.11171E-04   598   0.336E-03 0.343E-03
CGA:  38    -0.152537534181E+04    0.15203E-04   -0.99414E-05   598   0.321E-03 0.327E-03
CGA:  39    -0.152537532730E+04    0.14507E-04   -0.89288E-05   598   0.308E-03 0.313E-03
CGA:  40    -0.152537531348E+04    0.13824E-04   -0.80729E-05   598   0.297E-03 0.301E-03
CGA:  41    -0.152537530032E+04    0.13161E-04   -0.73400E-05   598   0.287E-03 0.290E-03
CGA:  42    -0.152537528780E+04    0.12522E-04   -0.66982E-05   598   0.278E-03 0.281E-03
CGA:  43    -0.152537527589E+04    0.11910E-04   -0.61359E-05   598   0.270E-03 0.272E-03
CGA:  44    -0.152537526456E+04    0.11323E-04   -0.56410E-05   598   0.262E-03 0.265E-03
CGA:  45    -0.152537525380E+04    0.10763E-04   -0.52028E-05   598   0.255E-03 0.258E-03
CGA:  46    -0.152537524357E+04    0.10229E-04   -0.48111E-05   598   0.249E-03 0.251E-03
CGA:  47    -0.152537523385E+04    0.97271E-05   -0.44574E-05   598   0.243E-03 0.245E-03
   1 F= -.15253752E+04 E0= -.15253752E+04  d E =-.152538E+04  mag=    16.0000
