       N       E                     dE             d eps       ncg     rms          ort
DAV:   1     0.332925525570E+04    0.33293E+04   -0.14817E+05  6480   0.180E+03
DAV:   2     0.213159415270E+02   -0.33079E+04   -0.30344E+04  6480   0.482E+02
DAV:   3    -0.492789913277E+03   -0.51411E+03   -0.49922E+03  6480   0.204E+02
DAV:   4    -0.524991123614E+03   -0.32201E+02   -0.31148E+02  6480   0.471E+01
DAV:   5    -0.527258577062E+03   -0.22675E+01   -0.22204E+01  6480   0.889E+00
SDA:   6    -0.203630422344E+03    0.32363E+03   -0.22204E+01  6480   0.305E+04 0.000E+00
CGA:   7    -0.318056403693E+03   -0.11443E+03   -0.30078E+03  6480   0.262E+04-0.466E+03
CGA:   8    -0.277168069641E+03    0.40888E+02   -0.11478E+03  6480   0.109E+04-0.563E+03
CGA:   9    -0.374358309511E+03   -0.97190E+02   -0.28366E+02  6480   0.330E+03-0.254E+03
CGA:  10    -0.382261853852E+03   -0.79035E+01   -0.11261E+02  6480   0.394E+03-0.230E+03
CGA:  11    -0.393610223227E+03   -0.11348E+02   -0.10916E+02  6480   0.261E+03-0.208E+03
CGA:  12    -0.369294868841E+03    0.24315E+02   -0.14153E+02  6480   0.720E+03-0.241E+03
CGA:  13    -0.382021439021E+03   -0.12727E+02   -0.25290E+02  6480   0.398E+03-0.459E+03
CGA:  14    -0.404695300963E+03   -0.22674E+02   -0.97010E+01  6480   0.230E+02 0.726E+02
CGA:  15    -0.405088556550E+03   -0.39326E+00   -0.40647E+00  6480   0.323E+02-0.541E+01
CGA:  16    -0.405045465049E+03    0.43092E-01   -0.44803E+00  6480   0.121E+03-0.244E+02
CGA:  17    -0.403746149012E+03    0.12993E+01   -0.54280E+01  6480   0.148E+03-0.607E+02
CGA:  18    -0.405288456321E+03   -0.15423E+01   -0.21391E+01  6480   0.198E+03-0.106E+03
CGA:  19    -0.404759564916E+03    0.52889E+00   -0.10681E+02  6480   0.888E+02-0.302E+02
CGA:  20    -0.406366335301E+03   -0.16068E+01   -0.13820E+01  6480   0.265E+02-0.174E+01
CGA:  21    -0.406902299550E+03   -0.53596E+00   -0.23615E+00  6480   0.326E+02 0.351E+02
CGA:  22    -0.407664285796E+03   -0.76199E+00   -0.33510E+00  6480   0.300E+02 0.412E+02
CGA:  23    -0.408189556044E+03   -0.52527E+00   -0.27448E+00  6480   0.141E+02 0.239E+02
CGA:  24    -0.408464325485E+03   -0.27477E+00   -0.22900E+00  6480   0.350E+01 0.161E+01
CGA:  25    -0.409123087218E+03   -0.65876E+00   -0.63876E+00  6480   0.285E+02 0.880E-01
CGA:  26    -0.403632762366E+03    0.54903E+01   -0.61918E+00  6480   0.398E+03-0.249E+03
CGA:  27    -0.403772676710E+03   -0.13991E+00   -0.14254E+02  6480   0.184E+03-0.160E+03
CGA:  28    -0.408473948787E+03   -0.47013E+01   -0.23029E+01  6480   0.108E+03 0.152E+03
CGA:  29    -0.409182128831E+03   -0.70818E+00   -0.20443E+01  6480   0.101E+03-0.123E+03
CGA:  30    -0.408262914126E+03    0.91921E+00   -0.28626E+01  6480   0.109E+03-0.686E+02
CGA:  31    -0.409985233238E+03   -0.17223E+01   -0.18726E+01  6480   0.339E+02-0.779E+02
CGA:  32    -0.409965803174E+03    0.19430E-01   -0.80499E+00  6480   0.319E+02-0.235E+02
CGA:  33    -0.410407338732E+03   -0.44154E+00   -0.40895E+00  6480   0.154E+01-0.611E+00
CGA:  34    -0.410893588974E+03   -0.48625E+00   -0.41166E+00  6480   0.129E+01 0.341E+00
CGA:  35    -0.411048351702E+03   -0.15476E+00   -0.14928E+00  6480   0.123E+01 0.293E+00
CGA:  36    -0.411196122315E+03   -0.14777E+00   -0.14294E+00  6480   0.112E+01 0.288E+00
CGA:  37    -0.411253930213E+03   -0.57808E-01   -0.39401E-01  6480   0.346E+00 0.476E+00
CGA:  38    -0.411278789648E+03   -0.24859E-01   -0.24943E-01  6480   0.608E+00-0.200E-02
CGA:  39    -0.411320273295E+03   -0.41484E-01   -0.42026E-01  6480   0.126E+01 0.192E-01
CGA:  40    -0.411368978708E+03   -0.48705E-01   -0.51468E-01  6480   0.742E+00 0.255E-01
CGA:  41    -0.411390147174E+03   -0.21168E-01   -0.15955E-01  6480   0.248E+00 0.227E+00
CGA:  42    -0.411398932076E+03   -0.87849E-02   -0.83962E-02  6480   0.151E+00 0.136E-01
CGA:  43    -0.411406403660E+03   -0.74716E-02   -0.75596E-02  6480   0.288E+00 0.149E-02
CGA:  44    -0.411420704761E+03   -0.14301E-01   -0.15240E-01  6480   0.451E+00 0.153E-01
CGA:  45    -0.411444889924E+03   -0.24185E-01   -0.24671E-01  6480   0.296E+00 0.129E-01
CGA:  46    -0.411459038698E+03   -0.14149E-01   -0.15010E-01  6480   0.928E-01 0.625E-02
CGA:  47    -0.411467549180E+03   -0.85105E-02   -0.84503E-02  6480   0.116E+00 0.185E-02
CGA:  48    -0.411480627925E+03   -0.13079E-01   -0.13352E-01  6480   0.158E+00-0.602E-02
CGA:  49    -0.411488319825E+03   -0.76919E-02   -0.77669E-02  6480   0.655E-01-0.811E-03
CGA:  50    -0.411496109922E+03   -0.77901E-02   -0.76458E-02  6480   0.114E+00 0.272E-02
CGA:  51    -0.411503758303E+03   -0.76484E-02   -0.76351E-02  6480   0.691E-01 0.522E-03
CGA:  52    -0.411509662195E+03   -0.59039E-02   -0.58785E-02  6480   0.624E-01 0.136E-02
CGA:  53    -0.411518074736E+03   -0.84125E-02   -0.85542E-02  6480   0.120E+00-0.183E-02
CGA:  54    -0.411525129142E+03   -0.70544E-02   -0.67623E-02  6480   0.579E-01-0.622E-02
CGA:  55    -0.411528892910E+03   -0.37638E-02   -0.37199E-02  6480   0.536E-01-0.398E-02
CGA:  56    -0.411533505251E+03   -0.46123E-02   -0.46222E-02  6480   0.981E-01-0.166E-02
CGA:  57    -0.411542538733E+03   -0.90335E-02   -0.91826E-02  6480   0.447E-01-0.709E-02
CGA:  58    -0.411545024872E+03   -0.24861E-02   -0.24170E-02  6480   0.426E-01-0.219E-02
CGA:  59    -0.411551001899E+03   -0.59770E-02   -0.62478E-02  6480   0.972E-01-0.327E-02
CGA:  60    -0.411557178127E+03   -0.61762E-02   -0.61063E-02  6480   0.458E-01-0.462E-02
CGA:  61    -0.411559881209E+03   -0.27031E-02   -0.25947E-02  6480   0.495E-01-0.222E-02
CGA:  62    -0.411564459428E+03   -0.45782E-02   -0.47454E-02  6480   0.905E-01-0.613E-02
SDA:  63    -0.411568203282E+03   -0.37439E-02   -0.35830E-02  6480   0.783E-01-0.135E-02
CGA:  64    -0.411573932828E+03   -0.57295E-02   -0.57420E-02  6480   0.362E-01 0.199E-02
CGA:  65    -0.411578378385E+03   -0.44456E-02   -0.43475E-02  6480   0.741E-01 0.230E-02
CGA:  66    -0.411585785092E+03   -0.74067E-02   -0.75210E-02  6480   0.516E-01-0.376E-02
CGA:  67    -0.411590183136E+03   -0.43980E-02   -0.43727E-02  6480   0.450E-01 0.218E-02
CGA:  68    -0.411596610102E+03   -0.64270E-02   -0.65680E-02  6480   0.210E-01-0.256E-02
CGA:  69    -0.411597643857E+03   -0.10338E-02   -0.10544E-02  6480   0.146E-01 0.140E-03
CGA:  70    -0.411600029452E+03   -0.23856E-02   -0.23045E-02  6480   0.945E-02 0.113E-02
CGA:  71    -0.411600656886E+03   -0.62743E-03   -0.63782E-03  6480   0.689E-02 0.242E-03
CGA:  72    -0.411601594538E+03   -0.93765E-03   -0.92108E-03  6480   0.120E-01 0.416E-03
CGA:  73    -0.411602888602E+03   -0.12941E-02   -0.12790E-02  6480   0.871E-02 0.829E-03
CGA:  74    -0.411603760453E+03   -0.87185E-03   -0.87813E-03  6480   0.962E-02-0.544E-03
CGA:  75    -0.411604627372E+03   -0.86692E-03   -0.86660E-03  6480   0.876E-02-0.144E-03
CGA:  76    -0.411605189288E+03   -0.56192E-03   -0.55899E-03  6480   0.534E-02 0.137E-03
CGA:  77    -0.411606424167E+03   -0.12349E-02   -0.11746E-02  6480   0.846E-02 0.472E-03
CGA:  78    -0.411607299534E+03   -0.87537E-03   -0.87491E-03  6480   0.727E-02 0.510E-03
CGA:  79    -0.411607931090E+03   -0.63156E-03   -0.63793E-03  6480   0.103E-01 0.339E-03
CGA:  80    -0.411609702162E+03   -0.17711E-02   -0.19638E-02  6480   0.229E-01-0.238E-02
CGA:  81    -0.411610637851E+03   -0.93569E-03   -0.98718E-03  6480   0.100E-01-0.521E-03
CGA:  82    -0.411611328049E+03   -0.69020E-03   -0.69935E-03  6480   0.155E-01-0.439E-03
CGA:  83    -0.411612609865E+03   -0.12818E-02   -0.12423E-02  6480   0.101E-01-0.228E-02
CGA:  84    -0.411613365469E+03   -0.75560E-03   -0.74399E-03  6480   0.890E-02-0.129E-02
CGA:  85    -0.411613913887E+03   -0.54842E-03   -0.54584E-03  6480   0.857E-02-0.514E-03
CGA:  86    -0.411614651003E+03   -0.73712E-03   -0.73632E-03  6480   0.928E-02-0.578E-03
CGA:  87    -0.411615170972E+03   -0.51997E-03   -0.51963E-03  6480   0.481E-02-0.293E-03
CGA:  88    -0.411616102440E+03   -0.93147E-03   -0.11205E-02  6480   0.109E-01-0.120E-02
CGA:  89    -0.411616525660E+03   -0.42322E-03   -0.39473E-03  6480   0.645E-02-0.353E-03
CGA:  90    -0.411616897634E+03   -0.37197E-03   -0.36800E-03  6480   0.458E-02-0.381E-03
CGA:  91    -0.411617409024E+03   -0.51139E-03   -0.52440E-03  6480   0.851E-02-0.404E-03
CGA:  92    -0.411617901023E+03   -0.49200E-03   -0.45569E-03  6480   0.710E-02-0.868E-04
CGA:  93    -0.411618239115E+03   -0.33809E-03   -0.34857E-03  6480   0.376E-02 0.362E-04
SDA:  94    -0.411618486029E+03   -0.24691E-03   -0.25764E-03  6480   0.628E-02 0.357E-03
CGA:  95    -0.411618747849E+03   -0.26182E-03   -0.26080E-03  6480   0.309E-02 0.102E-03
CGA:  96    -0.411619115580E+03   -0.36773E-03   -0.35688E-03  6480   0.493E-02 0.418E-03
CGA:  97    -0.411619859726E+03   -0.74415E-03   -0.71817E-03  6480   0.339E-02 0.676E-03
CGA:  98    -0.411620231277E+03   -0.37155E-03   -0.37011E-03  6480   0.335E-02 0.327E-03
CGA:  99    -0.411620688203E+03   -0.45693E-03   -0.44441E-03  6480   0.678E-02 0.422E-03
CGA: 100    -0.411621111688E+03   -0.42349E-03   -0.41854E-03  6480   0.169E-02 0.320E-03
CGA: 101    -0.411621489151E+03   -0.37746E-03   -0.32643E-03  6480   0.215E-02 0.542E-03
CGA: 102    -0.411621803699E+03   -0.31455E-03   -0.30965E-03  6480   0.225E-02 0.372E-03
CGA: 103    -0.411622202322E+03   -0.39862E-03   -0.37198E-03  6480   0.174E-02 0.589E-03
CGA: 104    -0.411622551880E+03   -0.34956E-03   -0.33759E-03  6480   0.480E-02 0.222E-03
CGA: 105    -0.411622930539E+03   -0.37866E-03   -0.39238E-03  6480   0.422E-02 0.425E-03
CGA: 106    -0.411623306490E+03   -0.37595E-03   -0.38383E-03  6480   0.230E-02 0.388E-03
CGA: 107    -0.411623620674E+03   -0.31418E-03   -0.30472E-03  6480   0.346E-02 0.424E-03
CGA: 108    -0.411623888238E+03   -0.26756E-03   -0.28636E-03  6480   0.265E-02 0.541E-03
CGA: 109    -0.411624045195E+03   -0.15696E-03   -0.16857E-03  6480   0.107E-02 0.289E-03
CGA: 110    -0.411624284411E+03   -0.23922E-03   -0.20501E-03  6480   0.569E-03 0.436E-03
CGA: 111    -0.411624422754E+03   -0.13834E-03   -0.12921E-03  6480   0.109E-02 0.147E-03
CGA: 112    -0.411624523775E+03   -0.10102E-03   -0.10630E-03  6480   0.111E-02 0.184E-03
CGA: 113    -0.411624610555E+03   -0.86780E-04   -0.90920E-04  6480   0.876E-03 0.142E-03
CGA: 114    -0.411624742524E+03   -0.13197E-03   -0.12484E-03  6480   0.869E-03 0.262E-03
CGA: 115    -0.411624883940E+03   -0.14142E-03   -0.13734E-03  6480   0.749E-03 0.195E-03
CGA: 116    -0.411625032929E+03   -0.14899E-03   -0.15057E-03  6480   0.366E-02-0.287E-04
CGA: 117    -0.411625276739E+03   -0.24381E-03   -0.24493E-03  6480   0.280E-02-0.984E-04
CGA: 118    -0.411625392707E+03   -0.11597E-03   -0.11486E-03  6480   0.283E-02-0.191E-03
CGA: 119    -0.411625667930E+03   -0.27522E-03   -0.27816E-03  6480   0.349E-02-0.544E-03
CGA: 120    -0.411625814453E+03   -0.14652E-03   -0.12481E-03  6480   0.379E-02-0.119E-03
CGA: 121    -0.411626029180E+03   -0.21473E-03   -0.20796E-03  6480   0.243E-02-0.234E-03
CGA: 122    -0.411626122954E+03   -0.93774E-04   -0.94807E-04  6480   0.254E-02-0.655E-04
CGA: 123    -0.411626405020E+03   -0.28207E-03   -0.28144E-03  6480   0.287E-02 0.467E-04
CGA: 124    -0.411626495881E+03   -0.90861E-04   -0.87954E-04  6480   0.140E-02 0.933E-04
SDA: 125    -0.411626646771E+03   -0.15089E-03   -0.15070E-03  6480   0.345E-02 0.280E-04
CGA: 126    -0.411626761905E+03   -0.11513E-03   -0.11834E-03  6480   0.125E-02-0.788E-05
CGA: 127    -0.411626906652E+03   -0.14475E-03   -0.14506E-03  6480   0.293E-02-0.106E-04
CGA: 128    -0.411627300443E+03   -0.39379E-03   -0.39169E-03  6480   0.111E-02 0.476E-04
CGA: 129    -0.411627631470E+03   -0.33103E-03   -0.27582E-03  6480   0.147E-02 0.360E-03
CGA: 130    -0.411627730263E+03   -0.98793E-04   -0.10552E-03  6480   0.129E-02 0.124E-03
CGA: 131    -0.411627855280E+03   -0.12502E-03   -0.12587E-03  6480   0.130E-02 0.112E-03
CGA: 132    -0.411628001591E+03   -0.14631E-03   -0.14598E-03  6480   0.849E-03 0.590E-04
CGA: 133    -0.411628100096E+03   -0.98505E-04   -0.98664E-04  6480   0.764E-03-0.166E-04
CGA: 134    -0.411628185589E+03   -0.85493E-04   -0.85796E-04  6480   0.123E-02-0.207E-04
CGA: 135    -0.411628244981E+03   -0.59392E-04   -0.57470E-04  6480   0.562E-03-0.330E-04
CGA: 136    -0.411628344693E+03   -0.99712E-04   -0.96728E-04  6480   0.559E-03 0.348E-04
CGA: 137    -0.411628417952E+03   -0.73259E-04   -0.73167E-04  6480   0.611E-03 0.420E-05
CGA: 138    -0.411628518723E+03   -0.10077E-03   -0.10365E-03  6480   0.110E-02-0.459E-04
CGA: 139    -0.411628615238E+03   -0.96515E-04   -0.95355E-04  6480   0.162E-02-0.106E-03
CGA: 140    -0.411628711851E+03   -0.96614E-04   -0.88572E-04  6480   0.106E-02-0.191E-03
CGA: 141    -0.411628860491E+03   -0.14864E-03   -0.33800E-03  6480   0.448E-02-0.752E-03
CGA: 142    -0.411629105075E+03   -0.24458E-03   -0.24640E-03  6480   0.111E-02 0.338E-04
CGA: 143    -0.411629237190E+03   -0.13211E-03   -0.13138E-03  6480   0.946E-03 0.157E-03
CGA: 144    -0.411629296388E+03   -0.59198E-04   -0.61202E-04  6480   0.666E-03 0.385E-04
CGA: 145    -0.411629345792E+03   -0.49404E-04   -0.50916E-04  6480   0.639E-03 0.396E-04
CGA: 146    -0.411629524596E+03   -0.17880E-03   -0.18562E-03  6480   0.547E-03-0.399E-04
CGA: 147    -0.411629598943E+03   -0.74347E-04   -0.74606E-04  6480   0.116E-02-0.910E-05
CGA: 148    -0.411629684218E+03   -0.85275E-04   -0.82196E-04  6480   0.137E-02-0.523E-04
CGA: 149    -0.411629811698E+03   -0.12748E-03   -0.12748E-03  6480   0.489E-03-0.114E-04
CGA: 150    -0.411629945540E+03   -0.13384E-03   -0.13763E-03  6480   0.129E-02-0.235E-04
CGA: 151    -0.411630022972E+03   -0.77432E-04   -0.76597E-04  6480   0.892E-03-0.292E-04
CGA: 152    -0.411630090488E+03   -0.67516E-04   -0.63517E-04  6480   0.111E-02-0.896E-04
CGA: 153    -0.411630245392E+03   -0.15490E-03   -0.16741E-03  6480   0.165E-02-0.240E-03
CGA: 154    -0.411630392458E+03   -0.14707E-03   -0.14584E-03  6480   0.167E-02-0.173E-03
CGA: 155    -0.411630538929E+03   -0.14647E-03   -0.14673E-03  6480   0.352E-02 0.231E-04
CGA: 156    -0.411630950896E+03   -0.41197E-03   -0.41260E-03  6480   0.147E-02 0.151E-03
CGA: 157    -0.411631068404E+03   -0.11751E-03   -0.11977E-03  6480   0.297E-02 0.913E-04
CGA: 158    -0.411631779228E+03   -0.71082E-03   -0.72169E-03  6480   0.869E-02-0.286E-03
CGA: 159    -0.411632602731E+03   -0.82350E-03   -0.79960E-03  6480   0.860E-02-0.975E-03
CGA: 160    -0.411633183318E+03   -0.58059E-03   -0.53705E-03  6480   0.657E-02-0.851E-03
CGA: 161    -0.411633968156E+03   -0.78484E-03   -0.77993E-03  6480   0.711E-02 0.294E-03
CGA: 162    -0.411634545529E+03   -0.57737E-03   -0.57503E-03  6480   0.906E-02 0.155E-03
CGA: 163    -0.411635143800E+03   -0.59827E-03   -0.61763E-03  6480   0.862E-02-0.253E-03
CGA: 164    -0.411635717691E+03   -0.57389E-03   -0.56779E-03  6480   0.498E-02-0.323E-03
CGA: 165    -0.411636209974E+03   -0.49228E-03   -0.49166E-03  6480   0.815E-02-0.401E-03
CGA: 166    -0.411636653575E+03   -0.44360E-03   -0.41930E-03  6480   0.596E-02-0.430E-03
CGA: 167    -0.411637141971E+03   -0.48840E-03   -0.47399E-03  6480   0.765E-02-0.551E-03
CGA: 168    -0.411637986186E+03   -0.84422E-03   -0.89859E-03  6480   0.118E-01-0.243E-02
CGA: 169    -0.411638350687E+03   -0.36450E-03   -0.32121E-03  6480   0.828E-02-0.921E-03
CGA: 170    -0.411638815919E+03   -0.46523E-03   -0.47120E-03  6480   0.763E-02-0.893E-04
CGA: 171    -0.411639375437E+03   -0.55952E-03   -0.55137E-03  6480   0.877E-02-0.793E-04
SDA: 172    -0.411639745960E+03   -0.37052E-03   -0.35087E-03  6480   0.427E-02-0.437E-03
CGA: 173    -0.411641472872E+03   -0.17269E-02   -0.17390E-02  6480   0.107E-01-0.681E-04
CGA: 174    -0.411642568718E+03   -0.10958E-02   -0.11006E-02  6480   0.461E-02 0.244E-03
CGA: 175    -0.411642993064E+03   -0.42435E-03   -0.41743E-03  6480   0.111E-01-0.192E-03
CGA: 176    -0.411643831408E+03   -0.83834E-03   -0.83222E-03  6480   0.226E-02-0.345E-03
CGA: 177    -0.411643994696E+03   -0.16329E-03   -0.16538E-03  6480   0.532E-02 0.267E-04
CGA: 178    -0.411644606377E+03   -0.61168E-03   -0.61205E-03  6480   0.174E-02 0.571E-05
CGA: 179    -0.411644756761E+03   -0.15038E-03   -0.14987E-03  6480   0.152E-02-0.269E-04
CGA: 180    -0.411644863094E+03   -0.10633E-03   -0.10530E-03  6480   0.267E-02-0.374E-04
CGA: 181    -0.411645196159E+03   -0.33307E-03   -0.34070E-03  6480   0.697E-03-0.283E-03
CGA: 182    -0.411645356951E+03   -0.16079E-03   -0.15986E-03  6480   0.289E-02 0.841E-05
CGA: 183    -0.411645517621E+03   -0.16067E-03   -0.16656E-03  6480   0.194E-02 0.101E-03
CGA: 184    -0.411645634548E+03   -0.11693E-03   -0.12203E-03  6480   0.553E-03 0.754E-04
CGA: 185    -0.411645836674E+03   -0.20213E-03   -0.19133E-03  6480   0.115E-02 0.509E-04
CGA: 186    -0.411645880750E+03   -0.44076E-04   -0.46122E-04  6480   0.475E-03 0.314E-04
CGA: 187    -0.411645945818E+03   -0.65068E-04   -0.63018E-04  6480   0.381E-03 0.159E-03
CGA: 188    -0.411645999230E+03   -0.53412E-04   -0.54619E-04  6480   0.381E-03 0.130E-03
CGA: 189    -0.411646021724E+03   -0.22493E-04   -0.28148E-04  6480   0.353E-03 0.877E-04
CGA: 190    -0.411646067487E+03   -0.45763E-04   -0.46725E-04  6480   0.129E-03 0.164E-03
CGA: 191    -0.411646103846E+03   -0.36359E-04   -0.32775E-04  6480   0.222E-03 0.586E-04
CGA: 192    -0.411646121992E+03   -0.18146E-04   -0.20514E-04  6480   0.264E-03 0.476E-04
CGA: 193    -0.411646140398E+03   -0.18405E-04   -0.22788E-04  6480   0.122E-03 0.995E-04
CGA: 194    -0.411646154825E+03   -0.14427E-04   -0.15878E-04  6480   0.165E-03 0.867E-04
CGA: 195    -0.411646159490E+03   -0.46649E-05   -0.49578E-05  6480   0.658E-04 0.419E-05
   1 F= -.41164616E+03 E0= -.41164055E+03  d E =-.411646E+03  mag=    14.0000
       N       E                     dE             d eps       ncg     rms          ort
SDA:   1    -0.411645438953E+03    0.71587E-03    0.00000E+00  6480   0.332E-01 0.000E+00
CGA:   2    -0.411646142221E+03   -0.70327E-03   -0.67113E-03  6480   0.448E-03 0.122E-02
CGA:   3    -0.411646185760E+03   -0.43539E-04   -0.43626E-04  6480   0.870E-03 0.101E-04
CGA:   4    -0.411646225048E+03   -0.39288E-04   -0.41810E-04  6480   0.336E-03 0.441E-04
CGA:   5    -0.411646245736E+03   -0.20688E-04   -0.22509E-04  6480   0.161E-03 0.487E-04
CGA:   6    -0.411646256258E+03   -0.10522E-04   -0.10858E-04  6480   0.215E-03 0.877E-05
CGA:   7    -0.411646270559E+03   -0.14301E-04   -0.14557E-04  6480   0.441E-04 0.803E-05
CGA:   8    -0.411646273794E+03   -0.32346E-05   -0.33342E-05  6480   0.849E-04 0.462E-05
   2 F= -.41164627E+03 E0= -.41164065E+03  d E =-.114304E-03  mag=    14.0000
       N       E                     dE             d eps       ncg     rms          ort
SDA:   1    -0.411646202292E+03    0.68267E-04    0.00000E+00  6480   0.217E-02 0.000E+00
CGA:   2    -0.411646290207E+03   -0.87915E-04   -0.84905E-04  6480   0.441E-03-0.249E-04
CGA:   3    -0.411646303706E+03   -0.13500E-04   -0.13729E-04  6480   0.999E-04 0.281E-05
CGA:   4    -0.411646317400E+03   -0.13694E-04   -0.12452E-04  6480   0.372E-04 0.334E-04
CGA:   5    -0.411646322155E+03   -0.47551E-05   -0.46963E-05  6480   0.725E-04 0.977E-05
   3 F= -.41164632E+03 E0= -.41164069E+03  d E =-.483618E-04  mag=    14.0000
       N       E                     dE             d eps       ncg     rms          ort
SDA:   1    -0.411640002529E+03    0.63149E-02    0.00000E+00  6480   0.289E-01 0.000E+00
CGA:   2    -0.411642548786E+03   -0.25463E-02   -0.25473E-02  6480   0.203E-01-0.484E-03
CGA:   3    -0.411644466990E+03   -0.19182E-02   -0.19148E-02  6480   0.257E-01 0.366E-03
CGA:   4    -0.411645519285E+03   -0.10523E-02   -0.10419E-02  6480   0.597E-02 0.306E-03
CGA:   5    -0.411646330145E+03   -0.81086E-03   -0.81102E-03  6480   0.285E-02-0.276E-05
CGA:   6    -0.411646481489E+03   -0.15134E-03   -0.15055E-03  6480   0.181E-02-0.121E-04
CGA:   7    -0.411646577031E+03   -0.95542E-04   -0.95827E-04  6480   0.803E-03-0.730E-06
CGA:   8    -0.411646653308E+03   -0.76278E-04   -0.77392E-04  6480   0.261E-03-0.922E-04
CGA:   9    -0.411646664155E+03   -0.10847E-04   -0.11143E-04  6480   0.199E-03 0.779E-05
CGA:  10    -0.411646680705E+03   -0.16550E-04   -0.16584E-04  6480   0.715E-04 0.158E-04
CGA:  11    -0.411646687286E+03   -0.65810E-05   -0.65606E-05  6480   0.498E-04 0.102E-04
   4 F= -.41164669E+03 E0= -.41164107E+03  d E =-.365131E-03  mag=    14.0000
       N       E                     dE             d eps       ncg     rms          ort
SDA:   1    -0.411644526931E+03    0.21538E-02    0.00000E+00  6480   0.430E-01 0.000E+00
CGA:   2    -0.411645543268E+03   -0.10163E-02   -0.97527E-03  6480   0.383E-02 0.110E-02
CGA:   3    -0.411645946950E+03   -0.40368E-03   -0.40826E-03  6480   0.398E-02-0.168E-03
CGA:   4    -0.411646319580E+03   -0.37263E-03   -0.37195E-03  6480   0.378E-02 0.350E-04
CGA:   5    -0.411646445720E+03   -0.12614E-03   -0.12498E-03  6480   0.870E-03 0.111E-04
CGA:   6    -0.411646564188E+03   -0.11847E-03   -0.11781E-03  6480   0.324E-03 0.117E-04
CGA:   7    -0.411646586891E+03   -0.22703E-04   -0.22963E-04  6480   0.114E-03 0.225E-04
CGA:   8    -0.411646595720E+03   -0.88287E-05   -0.89271E-05  6480   0.141E-03 0.134E-04
   5 F= -.41164660E+03 E0= -.41164097E+03  d E =0.915664E-04  mag=    14.0000
       N       E                     dE             d eps       ncg     rms          ort
SDA:   1    -0.411646504080E+03    0.82811E-04    0.00000E+00  6480   0.309E-02 0.000E+00
CGA:   2    -0.411646575614E+03   -0.71535E-04   -0.74297E-04  6480   0.341E-03 0.252E-04
CGA:   3    -0.411646596627E+03   -0.21012E-04   -0.21458E-04  6480   0.177E-03 0.320E-04
CGA:   4    -0.411646630738E+03   -0.34111E-04   -0.32271E-04  6480   0.898E-04 0.200E-04
CGA:   5    -0.411646634073E+03   -0.33347E-05   -0.37807E-05  6480   0.557E-04 0.105E-04
   6 F= -.41164663E+03 E0= -.41164100E+03  d E =-.383533E-04  mag=    14.0000
