       N       E                     dE             d eps       ncg     rms          rms(c)
DAV:   1     0.253790372056E+04    0.25379E+04   -0.13381E+05 24500   0.153E+03
DAV:   2    -0.159147740036E+03   -0.26971E+04   -0.25632E+04 25010   0.438E+02
DAV:   3    -0.491378620133E+03   -0.33223E+03   -0.32107E+03 30590   0.154E+02
DAV:   4    -0.506275963796E+03   -0.14897E+02   -0.14782E+02 35100   0.353E+01
DAV:   5    -0.507512187752E+03   -0.12362E+01   -0.12337E+01 46140   0.730E+00    0.696E+00
DAV:   6    -0.424415742317E+03    0.83096E+02   -0.25293E+01 26900   0.146E+01    0.542E+00
DAV:   7    -0.424361961091E+03    0.53781E-01   -0.14278E+00 39710   0.387E+00    0.339E+00
DAV:   8    -0.424255398567E+03    0.10656E+00   -0.12299E-01 30270   0.978E-01    0.245E+00
DAV:   9    -0.424219789746E+03    0.35609E-01   -0.40498E-02 32690   0.560E-01    0.171E+00
DAV:  10    -0.424200673629E+03    0.19116E-01   -0.13597E-02 29530   0.322E-01    0.130E+00
DAV:  11    -0.424195051321E+03    0.56223E-02   -0.26730E-03 35620   0.147E-01    0.111E+00
DAV:  12    -0.424191034254E+03    0.40171E-02   -0.12976E-03 29330   0.102E-01    0.977E-01
DAV:  13    -0.424183210896E+03    0.78234E-02   -0.97813E-03 28660   0.274E-01    0.600E-01
DAV:  14    -0.424181613912E+03    0.15970E-02   -0.14081E-03 36950   0.106E-01    0.477E-01
DAV:  15    -0.424179778698E+03    0.18352E-02   -0.24465E-03 28280   0.141E-01    0.293E-01
DAV:  16    -0.424178813063E+03    0.96563E-03   -0.53022E-03 29440   0.208E-01    0.514E-02
DAV:  17    -0.424179208993E+03   -0.39593E-03   -0.14289E-03 32330   0.109E-01    0.134E-01
DAV:  18    -0.424179315936E+03   -0.10694E-03   -0.73735E-05 30890   0.342E-02    0.127E-01
DAV:  19    -0.424179274144E+03    0.41792E-04   -0.74608E-05 22530   0.389E-02    0.111E-01
DAV:  20    -0.424179375011E+03   -0.10087E-03   -0.10722E-03 32700   0.137E-01    0.469E-02
DAV:  21    -0.424179299886E+03    0.75125E-04   -0.18597E-04 29030   0.463E-02    0.250E-02
DAV:  22    -0.424179282726E+03    0.17160E-04   -0.11561E-04 27690   0.328E-02    0.306E-02
DAV:  23    -0.424179336722E+03   -0.53996E-04   -0.48030E-06 14620   0.975E-03    0.307E-02
DAV:  24    -0.424179318187E+03    0.18535E-04   -0.28498E-05 20980   0.165E-02    0.900E-03
DAV:  25    -0.424179315406E+03    0.27808E-05   -0.78940E-06 14410   0.895E-03
   1 F= -.42417932E+03 E0= -.42417932E+03  d E =-.424179E+03  mag=    10.0000
