       N       E                     dE             d eps       ncg     rms          ort
DAV:   1     0.333039039790E+04    0.33304E+04   -0.14815E+05  6480   0.179E+03
DAV:   2     0.222027739446E+02   -0.33082E+04   -0.30369E+04  6480   0.482E+02
DAV:   3    -0.492123872788E+03   -0.51433E+03   -0.49987E+03  6480   0.204E+02
DAV:   4    -0.523690116927E+03   -0.31566E+02   -0.30577E+02  6480   0.470E+01
DAV:   5    -0.525950426877E+03   -0.22603E+01   -0.22207E+01  6480   0.891E+00
SDA:   6    -0.225268277534E+03    0.30068E+03   -0.22207E+01  6480   0.252E+04 0.000E+00
CGA:   7    -0.301664547791E+03   -0.76396E+02   -0.24076E+03  6480   0.130E+04-0.356E+03
CGA:   8    -0.312960560297E+03   -0.11296E+02   -0.38346E+02  6480   0.594E+03-0.374E+03
CGA:   9    -0.384714715604E+03   -0.71754E+02   -0.88761E+01  6480   0.116E+04-0.783E+03
CGA:  10    -0.314204950968E+03    0.70510E+02   -0.84141E+02  6480   0.878E+03-0.184E+03
CGA:  11    -0.363290659233E+03   -0.49086E+02   -0.19384E+02  6480   0.727E+03-0.106E+04
CGA:  12    -0.363988758938E+03   -0.69810E+00   -0.25015E+02  6480   0.271E+03-0.320E+03
CGA:  13    -0.378882080332E+03   -0.14893E+02   -0.19080E+01  6480   0.341E+03 0.320E+03
CGA:  14    -0.373500938498E+03    0.53811E+01   -0.90316E+01  6480   0.648E+03-0.461E+03
CGA:  15    -0.354674102820E+03    0.18827E+02   -0.23373E+02  6480   0.598E+03-0.293E+03
CGA:  16    -0.389788508901E+03   -0.35114E+02   -0.74204E+01  6480   0.188E+04-0.135E+04
CGA:  17    -0.305814060093E+03    0.83974E+02   -0.10290E+03  6480   0.473E+03-0.183E+03
CGA:  18    -0.369889014139E+03   -0.64075E+02   -0.52045E+01  6480   0.153E+04 0.394E+04
CGA:  19    -0.366934939740E+03    0.29541E+01   -0.66328E+02  6480   0.321E+03-0.230E+03
CGA:  20    -0.373890910754E+03   -0.69560E+01   -0.68911E+01  6480   0.127E+04-0.954E+03
CGA:  21    -0.358136787174E+03    0.15754E+02   -0.48195E+02  6480   0.299E+03-0.188E+03
CGA:  22    -0.381383850323E+03   -0.23247E+02   -0.41115E+01  6480   0.297E+03 0.442E+03
CGA:  23    -0.372453434238E+03    0.89304E+01   -0.64425E+01  6480   0.287E+03-0.172E+03
CGA:  24    -0.374554739757E+03   -0.21013E+01   -0.48670E+01  6480   0.292E+04-0.297E+04
CGA:  25    -0.361195393359E+03    0.13359E+02   -0.12055E+03  6480   0.582E+03-0.225E+03
CGA:  26    -0.399786125974E+03   -0.38591E+02   -0.16456E+02  6480   0.925E+03-0.132E+04
CGA:  27    -0.370701023421E+03    0.29085E+02   -0.27362E+02  6480   0.904E+03-0.251E+03
CGA:  28    -0.351374856205E+03    0.19326E+02   -0.19064E+02  6480   0.302E+04-0.148E+04
CGA:  29    -0.327868373416E+03    0.23506E+02   -0.11723E+03  6480   0.390E+03-0.319E+03
CGA:  30    -0.400727569081E+03   -0.72859E+02   -0.86842E+01  6480   0.889E+03-0.833E+03
CGA:  31    -0.382489369816E+03    0.18238E+02   -0.21653E+02  6480   0.204E+04-0.696E+03
CGA:  32    -0.372038199878E+03    0.10451E+02   -0.73529E+02  6480   0.209E+03-0.163E+03
CGA:  33    -0.388614930447E+03   -0.16577E+02   -0.36550E+01  6480   0.128E+04 0.181E+04
CGA:  34    -0.370334667666E+03    0.18280E+02   -0.37891E+02  6480   0.880E+03-0.483E+03
CGA:  35    -0.376938945630E+03   -0.66043E+01   -0.18767E+02  6480   0.240E+03-0.135E+03
CGA:  36    -0.382222446535E+03   -0.52835E+01   -0.18055E+01  6480   0.740E+03 0.829E+03
CGA:  37    -0.360491979884E+03    0.21730E+02   -0.15263E+02  6480   0.142E+04-0.102E+04
CGA:  38    -0.372202063072E+03   -0.11710E+02   -0.44152E+02  6480   0.216E+03-0.229E+03
CGA:  39    -0.375238162671E+03   -0.30361E+01   -0.13826E+01  6480   0.242E+03 0.225E+03
CGA:  40    -0.379582441360E+03   -0.43443E+01   -0.19688E+01  6480   0.289E+03 0.347E+03
CGA:  41    -0.398296174168E+03   -0.18714E+02   -0.32401E+01  6480   0.226E+04-0.123E+04
CGA:  42    -0.387738786182E+03    0.10557E+02   -0.47460E+02  6480   0.217E+04-0.948E+03
CGA:  43    -0.380384233020E+03    0.73546E+01   -0.26116E+02  6480   0.448E+04-0.134E+04
CGA:  44    -0.378100554803E+03    0.22837E+01   -0.10275E+03  6480   0.182E+03-0.194E+03
CGA:  45    -0.388817968512E+03   -0.10717E+02   -0.16846E+01  6480   0.795E+03 0.125E+04
CGA:  46    -0.373271288582E+03    0.15547E+02   -0.12605E+02  6480   0.177E+04-0.163E+04
CGA:  47    -0.377549991611E+03   -0.42787E+01   -0.39804E+02  6480   0.201E+03-0.191E+03
CGA:  48    -0.380859103928E+03   -0.33091E+01   -0.15526E+01  6480   0.271E+03 0.263E+03
CGA:  49    -0.409514259306E+03   -0.28655E+02   -0.26040E+01  6480   0.994E+02-0.733E+03
CGA:  50    -0.409807069124E+03   -0.29281E+00   -0.72244E+00  6480   0.514E+02-0.622E+02
CGA:  51    -0.409976106792E+03   -0.16904E+00   -0.31827E+00  6480   0.151E+02-0.228E+02
CGA:  52    -0.410081433613E+03   -0.10533E+00   -0.13363E+00  6480   0.686E+01-0.107E+01
CGA:  53    -0.410149262187E+03   -0.67829E-01   -0.82293E-01  6480   0.628E+01-0.799E+00
CGA:  54    -0.410363843787E+03   -0.21458E+00   -0.20984E+00  6480   0.671E+01 0.130E+01
CGA:  55    -0.410465413346E+03   -0.10157E+00   -0.13189E+00  6480   0.670E+01-0.100E+01
CGA:  56    -0.410695918136E+03   -0.23050E+00   -0.22778E+00  6480   0.713E+01 0.350E+00
CGA:  57    -0.410829398437E+03   -0.13348E+00   -0.14662E+00  6480   0.253E+01 0.501E-03
CGA:  58    -0.410903708427E+03   -0.74310E-01   -0.75874E-01  6480   0.207E+01 0.121E+00
CGA:  59    -0.411004113250E+03   -0.10040E+00   -0.95739E-01  6480   0.155E+01 0.307E+00
CGA:  60    -0.411054071270E+03   -0.49958E-01   -0.51246E-01  6480   0.101E+01 0.660E-01
CGA:  61    -0.411107461219E+03   -0.53390E-01   -0.52397E-01  6480   0.107E+01 0.492E-01
CGA:  62    -0.411149909621E+03   -0.42448E-01   -0.42154E-01  6480   0.567E+00 0.669E-01
CGA:  63    -0.411170852503E+03   -0.20943E-01   -0.20945E-01  6480   0.401E+00 0.292E-02
CGA:  64    -0.411194885476E+03   -0.24033E-01   -0.23026E-01  6480   0.395E+00 0.381E-01
CGA:  65    -0.411211901235E+03   -0.17016E-01   -0.16998E-01  6480   0.297E+00 0.367E-02
CGA:  66    -0.411229126806E+03   -0.17226E-01   -0.16735E-01  6480   0.274E+00 0.208E-01
CGA:  67    -0.411242262527E+03   -0.13136E-01   -0.13092E-01  6480   0.219E+00 0.425E-02
CGA:  68    -0.411255321005E+03   -0.13058E-01   -0.12673E-01  6480   0.184E+00 0.165E-01
CGA:  69    -0.411264355532E+03   -0.90345E-02   -0.90060E-02  6480   0.133E+00 0.332E-02
CGA:  70    -0.411272609856E+03   -0.82543E-02   -0.80575E-02  6480   0.122E+00 0.800E-02
CGA:  71    -0.411279632750E+03   -0.70229E-02   -0.69895E-02  6480   0.105E+00 0.205E-02
CGA:  72    -0.411286250408E+03   -0.66177E-02   -0.65166E-02  6480   0.904E-01 0.380E-02
CGA:  73    -0.411291295811E+03   -0.50454E-02   -0.50347E-02  6480   0.682E-01 0.626E-03
CGA:  74    -0.411295885162E+03   -0.45894E-02   -0.45338E-02  6480   0.707E-01 0.151E-02
CGA:  75    -0.411300727332E+03   -0.48422E-02   -0.48568E-02  6480   0.758E-01-0.895E-03
CGA:  76    -0.411306160960E+03   -0.54336E-02   -0.54050E-02  6480   0.740E-01 0.333E-03
CGA:  77    -0.411310400140E+03   -0.42392E-02   -0.42775E-02  6480   0.579E-01-0.282E-02
CGA:  78    -0.411314822564E+03   -0.44224E-02   -0.44233E-02  6480   0.686E-01-0.256E-03
CGA:  79    -0.411319389393E+03   -0.45668E-02   -0.46717E-02  6480   0.715E-01-0.488E-02
CGA:  80    -0.411324953243E+03   -0.55638E-02   -0.55610E-02  6480   0.684E-01-0.669E-03
SDA:  81    -0.411328608147E+03   -0.36549E-02   -0.36771E-02  6480   0.513E-01-0.536E-02
CGA:  82    -0.411329889682E+03   -0.12815E-02   -0.12847E-02  6480   0.175E-01-0.104E-02
CGA:  83    -0.411337697936E+03   -0.78083E-02   -0.25534E-02  6480   0.129E-01 0.651E-02
CGA:  84    -0.411340489325E+03   -0.27914E-02   -0.28289E-02  6480   0.485E-01-0.574E-03
CGA:  85    -0.411343555322E+03   -0.30660E-02   -0.30209E-02  6480   0.533E-01-0.940E-03
CGA:  86    -0.411345609220E+03   -0.20539E-02   -0.20123E-02  6480   0.271E-01-0.262E-03
CGA:  87    -0.411347322801E+03   -0.17136E-02   -0.17091E-02  6480   0.389E-01-0.481E-03
CGA:  88    -0.411348778395E+03   -0.14556E-02   -0.14165E-02  6480   0.122E-01 0.155E-03
CGA:  89    -0.411349616666E+03   -0.83827E-03   -0.81702E-03  6480   0.275E-01-0.737E-03
CGA:  90    -0.411351621492E+03   -0.20048E-02   -0.19868E-02  6480   0.460E-01-0.220E-02
CGA:  91    -0.411353281827E+03   -0.16603E-02   -0.15452E-02  6480   0.250E-01 0.653E-04
CGA:  92    -0.411354314407E+03   -0.10326E-02   -0.99186E-03  6480   0.359E-01 0.908E-03
CGA:  93    -0.411357652552E+03   -0.33381E-02   -0.33384E-02  6480   0.901E-01 0.733E-03
CGA:  94    -0.411360131675E+03   -0.24791E-02   -0.27064E-02  6480   0.333E-01-0.339E-02
CGA:  95    -0.411361389455E+03   -0.12578E-02   -0.12443E-02  6480   0.327E-01-0.286E-03
CGA:  96    -0.411363534924E+03   -0.21455E-02   -0.21093E-02  6480   0.711E-01-0.214E-02
CGA:  97    -0.411366133240E+03   -0.25983E-02   -0.24747E-02  6480   0.486E-01-0.209E-02
CGA:  98    -0.411367591793E+03   -0.14586E-02   -0.15137E-02  6480   0.476E-01-0.359E-02
CGA:  99    -0.411370936187E+03   -0.33444E-02   -0.33514E-02  6480   0.763E-01-0.259E-02
CGA: 100    -0.411373136509E+03   -0.22003E-02   -0.19857E-02  6480   0.383E-01 0.189E-02
CGA: 101    -0.411374402378E+03   -0.12659E-02   -0.12419E-02  6480   0.311E-01-0.571E-03
CGA: 102    -0.411376056119E+03   -0.16537E-02   -0.16714E-02  6480   0.589E-01 0.854E-04
CGA: 103    -0.411378806054E+03   -0.27499E-02   -0.27070E-02  6480   0.259E-01-0.571E-04
CGA: 104    -0.411379522190E+03   -0.71614E-03   -0.67647E-03  6480   0.174E-01 0.765E-03
CGA: 105    -0.411381097263E+03   -0.15751E-02   -0.16279E-02  6480   0.615E-01-0.174E-02
CGA: 106    -0.411383105417E+03   -0.20082E-02   -0.20254E-02  6480   0.488E-01-0.231E-02
CGA: 107    -0.411384257840E+03   -0.11524E-02   -0.11843E-02  6480   0.162E-01-0.304E-02
CGA: 108    -0.411384695421E+03   -0.43758E-03   -0.41469E-03  6480   0.125E-01-0.535E-04
CGA: 109    -0.411385607009E+03   -0.91159E-03   -0.92387E-03  6480   0.414E-01-0.806E-03
CGA: 110    -0.411387026628E+03   -0.14196E-02   -0.13945E-02  6480   0.302E-01-0.883E-03
CGA: 111    -0.411387626341E+03   -0.59971E-03   -0.62190E-03  6480   0.125E-01-0.135E-02
SDA: 112    -0.411388115299E+03   -0.48896E-03   -0.49588E-03  6480   0.176E-01 0.279E-03
CGA: 113    -0.411388858991E+03   -0.74369E-03   -0.74077E-03  6480   0.107E-01 0.209E-03
CGA: 114    -0.411389623009E+03   -0.76402E-03   -0.75994E-03  6480   0.116E-01 0.285E-03
CGA: 115    -0.411390329375E+03   -0.70637E-03   -0.70506E-03  6480   0.438E-02 0.683E-03
CGA: 116    -0.411391648458E+03   -0.13191E-02   -0.11308E-02  6480   0.291E-02 0.971E-03
CGA: 117    -0.411392311691E+03   -0.66323E-03   -0.55994E-03  6480   0.460E-02 0.113E-02
CGA: 118    -0.411392748441E+03   -0.43675E-03   -0.43903E-03  6480   0.182E-02 0.969E-03
CGA: 119    -0.411392891372E+03   -0.14293E-03   -0.14474E-03  6480   0.309E-02 0.354E-03
CGA: 120    -0.411393241351E+03   -0.34998E-03   -0.33847E-03  6480   0.331E-02 0.544E-03
CGA: 121    -0.411393563973E+03   -0.32262E-03   -0.31624E-03  6480   0.144E-02 0.666E-03
CGA: 122    -0.411393794953E+03   -0.23098E-03   -0.20995E-03  6480   0.217E-02 0.428E-03
CGA: 123    -0.411393960395E+03   -0.16544E-03   -0.17089E-03  6480   0.265E-02 0.368E-03
CGA: 124    -0.411394131412E+03   -0.17102E-03   -0.18040E-03  6480   0.125E-02 0.628E-03
CGA: 125    -0.411394297137E+03   -0.16573E-03   -0.15371E-03  6480   0.124E-02 0.454E-03
CGA: 126    -0.411394467517E+03   -0.17038E-03   -0.16242E-03  6480   0.279E-02 0.358E-03
CGA: 127    -0.411394670507E+03   -0.20299E-03   -0.20801E-03  6480   0.244E-02 0.423E-03
CGA: 128    -0.411394928698E+03   -0.25819E-03   -0.25386E-03  6480   0.155E-02 0.285E-03
CGA: 129    -0.411395054729E+03   -0.12603E-03   -0.12638E-03  6480   0.222E-02 0.125E-03
CGA: 130    -0.411395171772E+03   -0.11704E-03   -0.11951E-03  6480   0.192E-02 0.228E-03
CGA: 131    -0.411395412430E+03   -0.24066E-03   -0.22829E-03  6480   0.275E-02 0.380E-03
CGA: 132    -0.411395608297E+03   -0.19587E-03   -0.20529E-03  6480   0.327E-02 0.476E-03
CGA: 133    -0.411395773094E+03   -0.16480E-03   -0.17038E-03  6480   0.130E-02 0.551E-03
CGA: 134    -0.411396053341E+03   -0.28025E-03   -0.23834E-03  6480   0.250E-02 0.492E-03
CGA: 135    -0.411396652671E+03   -0.59933E-03   -0.51673E-03  6480   0.483E-02 0.107E-02
CGA: 136    -0.411397000262E+03   -0.34759E-03   -0.31183E-03  6480   0.601E-02 0.684E-03
CGA: 137    -0.411397393536E+03   -0.39327E-03   -0.37881E-03  6480   0.113E-01 0.391E-04
CGA: 138    -0.411397823376E+03   -0.42984E-03   -0.47458E-03  6480   0.101E-01-0.161E-03
CGA: 139    -0.411398244207E+03   -0.42083E-03   -0.38457E-03  6480   0.426E-02 0.406E-03
CGA: 140    -0.411398659064E+03   -0.41486E-03   -0.43662E-03  6480   0.106E-01-0.813E-03
CGA: 141    -0.411398932698E+03   -0.27363E-03   -0.20387E-03  6480   0.906E-02 0.183E-02
CGA: 142    -0.411399202701E+03   -0.27000E-03   -0.25104E-03  6480   0.436E-02 0.912E-04
SDA: 143    -0.411399401630E+03   -0.19893E-03   -0.19775E-03  6480   0.836E-02-0.377E-03
CGA: 144    -0.411399724340E+03   -0.32271E-03   -0.31708E-03  6480   0.444E-02 0.163E-04
CGA: 145    -0.411400243119E+03   -0.51878E-03   -0.56876E-03  6480   0.159E-01-0.832E-03
CGA: 146    -0.411400935209E+03   -0.69209E-03   -0.67574E-03  6480   0.838E-02-0.768E-03
CGA: 147    -0.411401481733E+03   -0.54652E-03   -0.54647E-03  6480   0.174E-01 0.162E-04
CGA: 148    -0.411402338309E+03   -0.85658E-03   -0.86415E-03  6480   0.458E-02 0.656E-04
CGA: 149    -0.411402501051E+03   -0.16274E-03   -0.16557E-03  6480   0.250E-02 0.443E-05
CGA: 150    -0.411402702672E+03   -0.20162E-03   -0.19931E-03  6480   0.595E-02 0.193E-03
CGA: 151    -0.411403135858E+03   -0.43319E-03   -0.43322E-03  6480   0.141E-02 0.181E-03
CGA: 152    -0.411403239664E+03   -0.10381E-03   -0.10373E-03  6480   0.374E-02 0.256E-04
CGA: 153    -0.411403637244E+03   -0.39758E-03   -0.38071E-03  6480   0.207E-02 0.525E-03
CGA: 154    -0.411403731865E+03   -0.94621E-04   -0.96999E-04  6480   0.203E-02 0.932E-04
CGA: 155    -0.411403935704E+03   -0.20384E-03   -0.20915E-03  6480   0.442E-02-0.181E-03
CGA: 156    -0.411404155918E+03   -0.22021E-03   -0.21680E-03  6480   0.248E-02-0.151E-03
CGA: 157    -0.411404252820E+03   -0.96903E-04   -0.10037E-03  6480   0.320E-02 0.127E-03
CGA: 158    -0.411404591103E+03   -0.33828E-03   -0.32752E-03  6480   0.245E-02 0.325E-03
CGA: 159    -0.411404678368E+03   -0.87264E-04   -0.85877E-04  6480   0.158E-02-0.613E-04
CGA: 160    -0.411404872038E+03   -0.19367E-03   -0.19497E-03  6480   0.479E-02-0.314E-04
CGA: 161    -0.411405211648E+03   -0.33961E-03   -0.34107E-03  6480   0.187E-02-0.489E-03
CGA: 162    -0.411405305347E+03   -0.93699E-04   -0.90850E-04  6480   0.327E-02-0.155E-03
CGA: 163    -0.411405699530E+03   -0.39418E-03   -0.39126E-03  6480   0.306E-02-0.743E-04
CGA: 164    -0.411405795127E+03   -0.95597E-04   -0.97213E-04  6480   0.184E-02-0.131E-03
CGA: 165    -0.411406060047E+03   -0.26492E-03   -0.45661E-03  6480   0.944E-02-0.105E-02
CGA: 166    -0.411406339764E+03   -0.27972E-03   -0.28057E-03  6480   0.178E-02 0.391E-03
CGA: 167    -0.411406444182E+03   -0.10442E-03   -0.10695E-03  6480   0.206E-02 0.118E-03
CGA: 168    -0.411406602904E+03   -0.15872E-03   -0.15996E-03  6480   0.773E-03 0.348E-03
CGA: 169    -0.411406783140E+03   -0.18024E-03   -0.15926E-03  6480   0.206E-02 0.208E-03
CGA: 170    -0.411406921589E+03   -0.13845E-03   -0.14329E-03  6480   0.134E-02 0.130E-03
CGA: 171    -0.411406995640E+03   -0.74051E-04   -0.79486E-04  6480   0.148E-02 0.239E-03
CGA: 172    -0.411407242286E+03   -0.24665E-03   -0.22050E-03  6480   0.796E-03 0.551E-03
CGA: 173    -0.411407310054E+03   -0.67768E-04   -0.70504E-04  6480   0.115E-02 0.149E-03
CGA: 174    -0.411407400562E+03   -0.90507E-04   -0.93928E-04  6480   0.146E-02 0.307E-03
CGA: 175    -0.411407542597E+03   -0.14204E-03   -0.14255E-03  6480   0.142E-02 0.247E-03
CGA: 176    -0.411407678107E+03   -0.13551E-03   -0.13509E-03  6480   0.290E-02 0.214E-03
CGA: 177    -0.411407836212E+03   -0.15811E-03   -0.16536E-03  6480   0.990E-03 0.369E-03
CGA: 178    -0.411407964206E+03   -0.12799E-03   -0.12172E-03  6480   0.148E-02 0.214E-03
CGA: 179    -0.411408127354E+03   -0.16315E-03   -0.15944E-03  6480   0.136E-02 0.379E-03
CGA: 180    -0.411408186631E+03   -0.59278E-04   -0.66189E-04  6480   0.828E-03 0.193E-03
CGA: 181    -0.411408390150E+03   -0.20352E-03   -0.18777E-03  6480   0.154E-02 0.128E-03
CGA: 182    -0.411408533073E+03   -0.14292E-03   -0.14309E-03  6480   0.143E-02 0.552E-04
CGA: 183    -0.411408686904E+03   -0.15383E-03   -0.15840E-03  6480   0.344E-02-0.198E-03
CGA: 184    -0.411408830622E+03   -0.14372E-03   -0.14500E-03  6480   0.128E-02-0.132E-04
CGA: 185    -0.411408967547E+03   -0.13692E-03   -0.13449E-03  6480   0.317E-02 0.131E-03
CGA: 186    -0.411409155535E+03   -0.18799E-03   -0.18640E-03  6480   0.277E-02 0.160E-03
CGA: 187    -0.411409315391E+03   -0.15986E-03   -0.17299E-03  6480   0.169E-02 0.327E-03
CGA: 188    -0.411409435306E+03   -0.11991E-03   -0.12512E-03  6480   0.313E-02 0.259E-03
CGA: 189    -0.411409713899E+03   -0.27859E-03   -0.27544E-03  6480   0.329E-02-0.321E-03
CGA: 190    -0.411409925764E+03   -0.21186E-03   -0.21307E-03  6480   0.463E-02 0.337E-04
CGA: 191    -0.411410150840E+03   -0.22508E-03   -0.25986E-03  6480   0.292E-02 0.193E-03
CGA: 192    -0.411410414117E+03   -0.26328E-03   -0.44721E-03  6480   0.119E-01-0.273E-02
CGA: 193    -0.411410765221E+03   -0.35110E-03   -0.34856E-03  6480   0.265E-02 0.610E-03
CGA: 194    -0.411411016455E+03   -0.25123E-03   -0.25142E-03  6480   0.589E-02-0.330E-04
CGA: 195    -0.411411749799E+03   -0.73334E-03   -0.73677E-03  6480   0.170E-02-0.773E-04
CGA: 196    -0.411411838480E+03   -0.88681E-04   -0.91040E-04  6480   0.186E-02 0.967E-04
CGA: 197    -0.411412074535E+03   -0.23605E-03   -0.22747E-03  6480   0.307E-02 0.246E-03
CGA: 198    -0.411412244986E+03   -0.17045E-03   -0.17701E-03  6480   0.151E-02 0.327E-03
CGA: 199    -0.411412561105E+03   -0.31612E-03   -0.32597E-03  6480   0.136E-02-0.886E-04
CGA: 200    -0.411412639146E+03   -0.78041E-04   -0.76522E-04  6480   0.127E-02-0.559E-04
   1 F= -.41141264E+03 E0= -.41140720E+03  d E =-.411413E+03  mag=    14.0000
       N       E                     dE             d eps       ncg     rms          ort
SDA:   1    -0.411376383659E+03    0.36177E-01    0.00000E+00  6480   0.124E+01 0.000E+00
CGA:   2    -0.411404761099E+03   -0.28377E-01   -0.20652E-01  6480   0.172E+00 0.422E+00
CGA:   3    -0.411409230833E+03   -0.44697E-02   -0.35599E-02  6480   0.353E-01 0.548E-01
CGA:   4    -0.411410464709E+03   -0.12339E-02   -0.12027E-02  6480   0.228E-01 0.829E-03
CGA:   5    -0.411411504241E+03   -0.10395E-02   -0.10544E-02  6480   0.427E-01-0.331E-03
CGA:   6    -0.411413371608E+03   -0.18674E-02   -0.18748E-02  6480   0.476E-01 0.164E-03
CGA:   7    -0.411414278393E+03   -0.90678E-03   -0.89207E-03  6480   0.105E-01 0.204E-02
CGA:   8    -0.411414510357E+03   -0.23196E-03   -0.23638E-03  6480   0.762E-02 0.266E-03
CGA:   9    -0.411414979672E+03   -0.46931E-03   -0.46744E-03  6480   0.154E-01-0.152E-03
CGA:  10    -0.411415327720E+03   -0.34805E-03   -0.33241E-03  6480   0.382E-02-0.443E-03
CGA:  11    -0.411415408748E+03   -0.81028E-04   -0.76741E-04  6480   0.235E-02-0.123E-03
CGA:  12    -0.411415516934E+03   -0.10819E-03   -0.11029E-03  6480   0.377E-02 0.114E-03
CGA:  13    -0.411415600685E+03   -0.83751E-04   -0.94258E-04  6480   0.112E-02 0.258E-03
CGA:  14    -0.411415626264E+03   -0.25579E-04   -0.29163E-04  6480   0.838E-03 0.102E-03
CGA:  15    -0.411415676975E+03   -0.50711E-04   -0.50597E-04  6480   0.156E-02-0.191E-04
CGA:  16    -0.411415738027E+03   -0.61052E-04   -0.56249E-04  6480   0.135E-02-0.199E-03
CGA:  17    -0.411415771440E+03   -0.33413E-04   -0.29060E-04  6480   0.589E-03-0.124E-03
CGA:  18    -0.411415783908E+03   -0.12468E-04   -0.11864E-04  6480   0.419E-03-0.132E-04
CGA:  19    -0.411415808920E+03   -0.25012E-04   -0.25046E-04  6480   0.138E-02-0.687E-05
CGA:  20    -0.411415878499E+03   -0.69579E-04   -0.68717E-04  6480   0.124E-02-0.153E-03
CGA:  21    -0.411415904006E+03   -0.25507E-04   -0.21354E-04  6480   0.515E-03-0.117E-03
CGA:  22    -0.411415930993E+03   -0.26987E-04   -0.27801E-04  6480   0.167E-02-0.155E-03
CGA:  23    -0.411415973449E+03   -0.42456E-04   -0.39539E-04  6480   0.229E-02-0.150E-03
CGA:  24    -0.411416012362E+03   -0.38913E-04   -0.38783E-04  6480   0.113E-02-0.275E-04
CGA:  25    -0.411416038596E+03   -0.26234E-04   -0.27697E-04  6480   0.137E-02 0.613E-04
CGA:  26    -0.411416096525E+03   -0.57929E-04   -0.58966E-04  6480   0.276E-02 0.117E-03
CGA:  27    -0.411416191951E+03   -0.95426E-04   -0.97035E-04  6480   0.355E-02 0.150E-03
CGA:  28    -0.411416284585E+03   -0.92634E-04   -0.97332E-04  6480   0.313E-02 0.137E-03
CGA:  29    -0.411416350417E+03   -0.65832E-04   -0.71291E-04  6480   0.204E-02 0.483E-04
CGA:  30    -0.411416424558E+03   -0.74140E-04   -0.74673E-04  6480   0.403E-02-0.269E-04
CGA:  31    -0.411416773678E+03   -0.34912E-03   -0.41005E-03  6480   0.122E-01-0.135E-02
SDA:  32    -0.411416891408E+03   -0.11773E-03   -0.70358E-04  6480   0.779E-02 0.154E-02
CGA:  33    -0.411417167782E+03   -0.27637E-03   -0.27664E-03  6480   0.468E-02-0.206E-04
CGA:  34    -0.411417534115E+03   -0.36633E-03   -0.34367E-03  6480   0.152E-02 0.832E-03
CGA:  35    -0.411417729047E+03   -0.19493E-03   -0.19188E-03  6480   0.314E-02 0.514E-04
CGA:  36    -0.411417973257E+03   -0.24421E-03   -0.25703E-03  6480   0.238E-02-0.450E-03
CGA:  37    -0.411418028806E+03   -0.55550E-04   -0.54906E-04  6480   0.569E-03-0.445E-05
CGA:  38    -0.411418089044E+03   -0.60238E-04   -0.59565E-04  6480   0.233E-02 0.125E-04
CGA:  39    -0.411418269173E+03   -0.18013E-03   -0.18791E-03  6480   0.119E-02-0.309E-03
CGA:  40    -0.411418339606E+03   -0.70432E-04   -0.69867E-04  6480   0.234E-02 0.443E-04
CGA:  41    -0.411418532919E+03   -0.19331E-03   -0.18124E-03  6480   0.180E-02 0.624E-03
CGA:  42    -0.411418655423E+03   -0.12250E-03   -0.12337E-03  6480   0.127E-02 0.352E-03
CGA:  43    -0.411418843300E+03   -0.18788E-03   -0.17494E-03  6480   0.422E-02 0.214E-03
CGA:  44    -0.411419175023E+03   -0.33172E-03   -0.32764E-03  6480   0.234E-02 0.548E-03
CGA:  45    -0.411419477563E+03   -0.30254E-03   -0.30002E-03  6480   0.862E-02 0.387E-04
CGA:  46    -0.411420054263E+03   -0.57670E-03   -0.59031E-03  6480   0.504E-02-0.194E-02
CGA:  47    -0.411420377269E+03   -0.32301E-03   -0.33383E-03  6480   0.857E-02-0.390E-03
CGA:  48    -0.411421482355E+03   -0.11051E-02   -0.10758E-02  6480   0.217E-01-0.899E-03
CGA:  49    -0.411422293139E+03   -0.81078E-03   -0.65031E-03  6480   0.260E-01 0.207E-02
CGA:  50    -0.411423314961E+03   -0.10218E-02   -0.99141E-03  6480   0.281E-01 0.198E-02
CGA:  51    -0.411424430548E+03   -0.11156E-02   -0.12501E-02  6480   0.160E-01 0.274E-02
CGA:  52    -0.411425334175E+03   -0.90363E-03   -0.94853E-03  6480   0.172E-01 0.274E-02
CGA:  53    -0.411426809673E+03   -0.14755E-02   -0.19433E-02  6480   0.528E-01-0.125E-01
CGA:  54    -0.411428384824E+03   -0.15752E-02   -0.15428E-02  6480   0.180E-01 0.146E-02
CGA:  55    -0.411431384980E+03   -0.30002E-02   -0.31993E-02  6480   0.556E-01-0.189E-02
CGA:  56    -0.411435015060E+03   -0.36301E-02   -0.36222E-02  6480   0.301E-01 0.415E-03
CGA:  57    -0.411436357806E+03   -0.13427E-02   -0.13415E-02  6480   0.262E-01 0.950E-03
CGA:  58    -0.411439668663E+03   -0.33109E-02   -0.31332E-02  6480   0.241E-01 0.362E-02
CGA:  59    -0.411440988996E+03   -0.13203E-02   -0.13476E-02  6480   0.171E-01 0.893E-03
CGA:  60    -0.411442785749E+03   -0.17968E-02   -0.17842E-02  6480   0.334E-01 0.482E-03
CGA:  61    -0.411444550532E+03   -0.17648E-02   -0.17679E-02  6480   0.118E-01-0.376E-03
CGA:  62    -0.411446064669E+03   -0.15141E-02   -0.15941E-02  6480   0.315E-01-0.120E-02
CGA:  63    -0.411447106866E+03   -0.10422E-02   -0.10448E-02  6480   0.883E-02-0.164E-03
CGA:  64    -0.411447578674E+03   -0.47181E-03   -0.47382E-03  6480   0.124E-01 0.188E-03
CGA:  65    -0.411448874094E+03   -0.12954E-02   -0.12946E-02  6480   0.275E-01-0.379E-04
CGA:  66    -0.411450076199E+03   -0.12021E-02   -0.11830E-02  6480   0.702E-02 0.485E-04
CGA:  67    -0.411450299841E+03   -0.22364E-03   -0.22782E-03  6480   0.597E-02 0.247E-03
CGA:  68    -0.411451709732E+03   -0.14099E-02   -0.13548E-02  6480   0.363E-01 0.330E-03
CGA:  69    -0.411453073934E+03   -0.13642E-02   -0.13193E-02  6480   0.107E-01 0.151E-03
CGA:  70    -0.411453706982E+03   -0.63305E-03   -0.63557E-03  6480   0.158E-01-0.777E-04
CGA:  71    -0.411455021851E+03   -0.13149E-02   -0.13065E-02  6480   0.307E-01 0.468E-03
CGA:  72    -0.411456694837E+03   -0.16730E-02   -0.16312E-02  6480   0.124E-01-0.889E-03
CGA:  73    -0.411457703053E+03   -0.10082E-02   -0.10225E-02  6480   0.340E-01-0.107E-02
CGA:  74    -0.411459717574E+03   -0.20145E-02   -0.20169E-02  6480   0.259E-01-0.623E-03
CGA:  75    -0.411460544350E+03   -0.82678E-03   -0.84559E-03  6480   0.194E-01-0.610E-03
CGA:  76    -0.411463951071E+03   -0.34067E-02   -0.35759E-02  6480   0.389E-01-0.130E-02
CGA:  77    -0.411465172181E+03   -0.12211E-02   -0.10853E-02  6480   0.192E-01 0.624E-03
CGA:  78    -0.411466068396E+03   -0.89621E-03   -0.86853E-03  6480   0.244E-01-0.236E-03
CGA:  79    -0.411468362441E+03   -0.22940E-02   -0.22744E-02  6480   0.843E-01 0.569E-03
CGA:  80    -0.411471646621E+03   -0.32842E-02   -0.27812E-02  6480   0.484E-01 0.898E-02
CGA:  81    -0.411473306805E+03   -0.16602E-02   -0.16996E-02  6480   0.329E-01-0.289E-02
CGA:  82    -0.411474347490E+03   -0.10407E-02   -0.10628E-02  6480   0.278E-01-0.190E-02
CGA:  83    -0.411477034695E+03   -0.26872E-02   -0.25771E-02  6480   0.702E-01 0.264E-02
SDA:  84    -0.411479460320E+03   -0.24256E-02   -0.19735E-02  6480   0.147E-01 0.859E-02
CGA:  85    -0.411481107434E+03   -0.16471E-02   -0.15954E-02  6480   0.300E-01 0.118E-02
CGA:  86    -0.411484063122E+03   -0.29557E-02   -0.29640E-02  6480   0.412E-01 0.276E-03
CGA:  87    -0.411486146918E+03   -0.20838E-02   -0.21613E-02  6480   0.102E-01 0.168E-02
CGA:  88    -0.411488491071E+03   -0.23442E-02   -0.22227E-02  6480   0.330E-01 0.894E-03
CGA:  89    -0.411490084282E+03   -0.15932E-02   -0.15105E-02  6480   0.211E-01 0.198E-02
CGA:  90    -0.411491473851E+03   -0.13896E-02   -0.14111E-02  6480   0.176E-01 0.136E-02
CGA:  91    -0.411492474943E+03   -0.10011E-02   -0.10306E-02  6480   0.196E-01 0.942E-03
CGA:  92    -0.411493524976E+03   -0.10500E-02   -0.10396E-02  6480   0.760E-02 0.117E-02
CGA:  93    -0.411494170109E+03   -0.64513E-03   -0.64105E-03  6480   0.144E-01 0.644E-03
CGA:  94    -0.411495042848E+03   -0.87274E-03   -0.89319E-03  6480   0.898E-02 0.679E-03
CGA:  95    -0.411495653886E+03   -0.61104E-03   -0.61056E-03  6480   0.521E-02-0.125E-04
CGA:  96    -0.411495977149E+03   -0.32326E-03   -0.32352E-03  6480   0.894E-02 0.632E-04
CGA:  97    -0.411496938762E+03   -0.96161E-03   -0.95734E-03  6480   0.767E-02 0.212E-04
CGA:  98    -0.411497328118E+03   -0.38936E-03   -0.38481E-03  6480   0.535E-02-0.234E-03
CGA:  99    -0.411497563332E+03   -0.23521E-03   -0.23755E-03  6480   0.431E-02 0.145E-03
CGA: 100    -0.411498215118E+03   -0.65179E-03   -0.60545E-03  6480   0.817E-02 0.692E-03
CGA: 101    -0.411498629578E+03   -0.41446E-03   -0.41163E-03  6480   0.574E-02-0.508E-05
CGA: 102    -0.411499170719E+03   -0.54114E-03   -0.54469E-03  6480   0.592E-02-0.126E-03
CGA: 103    -0.411499772998E+03   -0.60228E-03   -0.60154E-03  6480   0.647E-02 0.409E-04
CGA: 104    -0.411500082488E+03   -0.30949E-03   -0.29512E-03  6480   0.501E-02-0.375E-03
CGA: 105    -0.411500571707E+03   -0.48922E-03   -0.51401E-03  6480   0.605E-02-0.645E-03
CGA: 106    -0.411501111987E+03   -0.54028E-03   -0.53962E-03  6480   0.474E-02 0.652E-05
CGA: 107    -0.411501433525E+03   -0.32154E-03   -0.31688E-03  6480   0.838E-02-0.392E-03
CGA: 108    -0.411502091430E+03   -0.65790E-03   -0.66264E-03  6480   0.562E-02-0.343E-03
CGA: 109    -0.411502362214E+03   -0.27078E-03   -0.27594E-03  6480   0.487E-02 0.118E-03
CGA: 110    -0.411502695335E+03   -0.33312E-03   -0.33233E-03  6480   0.728E-02-0.166E-03
CGA: 111    -0.411503745268E+03   -0.10499E-02   -0.12564E-02  6480   0.142E-01-0.224E-02
CGA: 112    -0.411504004225E+03   -0.25896E-03   -0.26433E-03  6480   0.640E-02-0.467E-03
CGA: 113    -0.411504280893E+03   -0.27667E-03   -0.27404E-03  6480   0.717E-02-0.167E-03
CGA: 114    -0.411504622153E+03   -0.34126E-03   -0.33158E-03  6480   0.830E-02-0.389E-03
SDA: 115    -0.411505166845E+03   -0.54469E-03   -0.53991E-03  6480   0.134E-01-0.636E-03
CGA: 116    -0.411505491995E+03   -0.32515E-03   -0.33454E-03  6480   0.333E-02 0.483E-03
CGA: 117    -0.411505931443E+03   -0.43945E-03   -0.40703E-03  6480   0.203E-02 0.697E-03
CGA: 118    -0.411506160359E+03   -0.22892E-03   -0.22691E-03  6480   0.640E-02 0.105E-03
CGA: 119    -0.411506762342E+03   -0.60198E-03   -0.59506E-03  6480   0.578E-02 0.508E-03
CGA: 120    -0.411507006653E+03   -0.24431E-03   -0.24418E-03  6480   0.301E-02 0.216E-03
CGA: 121    -0.411507161106E+03   -0.15445E-03   -0.15175E-03  6480   0.337E-02-0.145E-03
CGA: 122    -0.411507638440E+03   -0.47733E-03   -0.51724E-03  6480   0.790E-02-0.439E-03
CGA: 123    -0.411507803576E+03   -0.16514E-03   -0.16652E-03  6480   0.252E-02 0.138E-03
CGA: 124    -0.411507953136E+03   -0.14956E-03   -0.15382E-03  6480   0.553E-02 0.309E-03
CGA: 125    -0.411508258510E+03   -0.30537E-03   -0.31529E-03  6480   0.178E-02 0.448E-03
CGA: 126    -0.411508347863E+03   -0.89352E-04   -0.87430E-04  6480   0.264E-02-0.734E-04
CGA: 127    -0.411508557973E+03   -0.21011E-03   -0.21333E-03  6480   0.219E-02-0.229E-03
CGA: 128    -0.411508606001E+03   -0.48028E-04   -0.46430E-04  6480   0.926E-03-0.276E-04
CGA: 129    -0.411508702708E+03   -0.96706E-04   -0.11517E-03  6480   0.503E-02-0.323E-03
CGA: 130    -0.411508797584E+03   -0.94877E-04   -0.75199E-04  6480   0.354E-02-0.390E-03
CGA: 131    -0.411508854529E+03   -0.56945E-04   -0.46744E-04  6480   0.110E-02-0.212E-03
CGA: 132    -0.411508877462E+03   -0.22932E-04   -0.22046E-04  6480   0.111E-02-0.294E-04
CGA: 133    -0.411508907202E+03   -0.29740E-04   -0.34066E-04  6480   0.175E-02 0.129E-03
CGA: 134    -0.411508949899E+03   -0.42697E-04   -0.53993E-04  6480   0.192E-02 0.329E-03
CGA: 135    -0.411509000618E+03   -0.50719E-04   -0.63746E-04  6480   0.184E-02 0.415E-03
CGA: 136    -0.411509041183E+03   -0.40565E-04   -0.49607E-04  6480   0.766E-03 0.229E-03
CGA: 137    -0.411509061595E+03   -0.20413E-04   -0.20590E-04  6480   0.656E-03-0.650E-06
CGA: 138    -0.411509108099E+03   -0.46504E-04   -0.49888E-04  6480   0.278E-02-0.168E-03
CGA: 139    -0.411509159022E+03   -0.50923E-04   -0.45873E-04  6480   0.237E-02-0.153E-03
CGA: 140    -0.411509188506E+03   -0.29484E-04   -0.28247E-04  6480   0.779E-03 0.350E-05
CGA: 141    -0.411509199351E+03   -0.10845E-04   -0.11892E-04  6480   0.620E-03 0.334E-04
CGA: 142    -0.411509215968E+03   -0.16617E-04   -0.17901E-04  6480   0.115E-02 0.571E-04
CGA: 143    -0.411509245777E+03   -0.29809E-04   -0.30903E-04  6480   0.994E-03 0.416E-04
CGA: 144    -0.411509262607E+03   -0.16830E-04   -0.16093E-04  6480   0.476E-03-0.262E-04
CGA: 145    -0.411509275239E+03   -0.12632E-04   -0.11492E-04  6480   0.711E-03-0.529E-04
SDA: 146    -0.411509299025E+03   -0.23785E-04   -0.22957E-04  6480   0.155E-02-0.900E-04
CGA: 147    -0.411509335813E+03   -0.36788E-04   -0.37824E-04  6480   0.267E-03 0.582E-04
CGA: 148    -0.411509358112E+03   -0.22299E-04   -0.34245E-04  6480   0.592E-03-0.151E-03
CGA: 149    -0.411509378123E+03   -0.20011E-04   -0.20505E-04  6480   0.893E-04 0.386E-04
CGA: 150    -0.411509386655E+03   -0.85324E-05   -0.79066E-05  6480   0.161E-03 0.177E-04
CGA: 151    -0.411509398702E+03   -0.12048E-04   -0.11414E-04  6480   0.809E-04 0.657E-04
CGA: 152    -0.411509426112E+03   -0.27410E-04   -0.12531E-09  6480   0.657E-03-0.421E-04
CGA: 153    -0.411509447767E+03   -0.21654E-04   -0.21909E-04  6480   0.489E-04 0.149E-05
CGA: 154    -0.411509448799E+03   -0.10321E-05   -0.20503E-05  6480   0.452E-04 0.220E-04
   2 F= -.41150945E+03 E0= -.41150490E+03  d E =-.968097E-01  mag=    14.0000
       N       E                     dE             d eps       ncg     rms          ort
SDA:   1    -0.411509111616E+03    0.33615E-03    0.00000E+00  6480   0.197E-01 0.000E+00
CGA:   2    -0.411509489481E+03   -0.37786E-03   -0.37874E-03  6480   0.306E-03 0.650E-03
CGA:   3    -0.411509515584E+03   -0.26103E-04   -0.26095E-04  6480   0.449E-03 0.813E-04
CGA:   4    -0.411509546500E+03   -0.30916E-04   -0.31806E-04  6480   0.291E-03 0.334E-04
CGA:   5    -0.411509563053E+03   -0.16553E-04   -0.17624E-04  6480   0.131E-03 0.440E-04
CGA:   6    -0.411509580831E+03   -0.17778E-04   -0.20902E-04  6480   0.168E-03-0.534E-04
CGA:   7    -0.411509582753E+03   -0.19220E-05   -0.25214E-05  6480   0.791E-04 0.106E-04
   3 F= -.41150958E+03 E0= -.41150502E+03  d E =-.133954E-03  mag=    14.0000
       N       E                     dE             d eps       ncg     rms          ort
SDA:   1    -0.411457217229E+03    0.52364E-01    0.00000E+00  6480   0.608E+00 0.000E+00
CGA:   2    -0.411472609941E+03   -0.15393E-01   -0.13328E-01  6480   0.998E-01 0.788E-01
CGA:   3    -0.411482137672E+03   -0.95277E-02   -0.96240E-02  6480   0.267E+00-0.555E-02
CGA:   4    -0.411494366270E+03   -0.12229E-01   -0.12316E-01  6480   0.224E+00-0.831E-03
CGA:   5    -0.411501298714E+03   -0.69324E-02   -0.72908E-02  6480   0.780E-01-0.712E-02
CGA:   6    -0.411503007735E+03   -0.17090E-02   -0.15786E-02  6480   0.250E-01 0.560E-02
CGA:   7    -0.411504420142E+03   -0.14124E-02   -0.14124E-02  6480   0.524E-01 0.215E-03
CGA:   8    -0.411506496040E+03   -0.20759E-02   -0.20713E-02  6480   0.224E-01-0.216E-03
CGA:   9    -0.411506914953E+03   -0.41891E-03   -0.41522E-03  6480   0.595E-02-0.638E-03
CGA:  10    -0.411507275730E+03   -0.36078E-03   -0.36000E-03  6480   0.134E-01-0.324E-03
CGA:  11    -0.411507705621E+03   -0.42989E-03   -0.42429E-03  6480   0.426E-02-0.143E-03
CGA:  12    -0.411507785183E+03   -0.79562E-04   -0.84262E-04  6480   0.188E-02 0.152E-03
CGA:  13    -0.411507882495E+03   -0.97312E-04   -0.10039E-03  6480   0.334E-02 0.332E-03
CGA:  14    -0.411508001326E+03   -0.11883E-03   -0.12787E-03  6480   0.754E-03 0.319E-03
CGA:  15    -0.411508032921E+03   -0.31595E-04   -0.32065E-04  6480   0.960E-03 0.224E-04
CGA:  16    -0.411508102915E+03   -0.69994E-04   -0.68867E-04  6480   0.906E-03 0.969E-04
CGA:  17    -0.411508124124E+03   -0.21209E-04   -0.23135E-04  6480   0.228E-03 0.579E-04
CGA:  18    -0.411508137816E+03   -0.13692E-04   -0.13691E-04  6480   0.310E-03-0.189E-05
CGA:  19    -0.411508157469E+03   -0.19654E-04   -0.20187E-04  6480   0.570E-03-0.599E-04
CGA:  20    -0.411508175907E+03   -0.18437E-04   -0.18172E-04  6480   0.293E-03-0.151E-04
CGA:  21    -0.411508180118E+03   -0.42112E-05   -0.51173E-05  6480   0.842E-04 0.248E-04
   4 F= -.41150818E+03 E0= -.41150366E+03  d E =0.140263E-02  mag=    14.0000
       N       E                     dE             d eps       ncg     rms          ort
SDA:   1    -0.411496011954E+03    0.12164E-01    0.00000E+00  6480   0.597E-01 0.000E+00
CGA:   2    -0.411498400660E+03   -0.23887E-02   -0.23766E-02  6480   0.529E-01 0.389E-03
CGA:   3    -0.411506710357E+03   -0.83097E-02   -0.83012E-02  6480   0.315E-01 0.137E-03
CGA:   4    -0.411508140899E+03   -0.14305E-02   -0.14283E-02  6480   0.709E-02 0.100E-03
CGA:   5    -0.411508961907E+03   -0.82101E-03   -0.79071E-03  6480   0.118E-01 0.564E-03
CGA:   6    -0.411509426150E+03   -0.46424E-03   -0.46538E-03  6480   0.181E-02-0.168E-04
CGA:   7    -0.411509622091E+03   -0.19594E-03   -0.19287E-03  6480   0.165E-02 0.652E-04
CGA:   8    -0.411509693196E+03   -0.71105E-04   -0.68896E-04  6480   0.586E-03-0.109E-03
CGA:   9    -0.411509732327E+03   -0.39131E-04   -0.38846E-04  6480   0.401E-03 0.270E-04
CGA:  10    -0.411509767146E+03   -0.34819E-04   -0.37239E-04  6480   0.480E-03-0.857E-04
CGA:  11    -0.411509781452E+03   -0.14306E-04   -0.14449E-04  6480   0.116E-03 0.695E-05
CGA:  12    -0.411509792627E+03   -0.11175E-04   -0.13622E-04  6480   0.290E-03-0.441E-04
CGA:  13    -0.411509803984E+03   -0.11357E-04   -0.11313E-04  6480   0.320E-03-0.805E-04
CGA:  14    -0.411509809781E+03   -0.57967E-05   -0.58347E-05  6480   0.995E-04 0.205E-05
   5 F= -.41150981E+03 E0= -.41150526E+03  d E =-.162966E-02  mag=    14.0000
       N       E                     dE             d eps       ncg     rms          ort
SDA:   1    -0.411509105462E+03    0.69852E-03    0.00000E+00  6480   0.305E-02 0.000E+00
CGA:   2    -0.411509324171E+03   -0.21871E-03   -0.21909E-03  6480   0.455E-02-0.196E-04
CGA:   3    -0.411509588507E+03   -0.26434E-03   -0.26381E-03  6480   0.207E-02-0.296E-03
CGA:   4    -0.411509732623E+03   -0.14412E-03   -0.14193E-03  6480   0.119E-02 0.167E-03
CGA:   5    -0.411509811909E+03   -0.79286E-04   -0.79141E-04  6480   0.132E-03 0.179E-03
CGA:   6    -0.411509827863E+03   -0.15954E-04   -0.14061E-04  6480   0.133E-03 0.591E-04
CGA:   7    -0.411509841468E+03   -0.13605E-04   -0.13835E-04  6480   0.193E-03-0.241E-04
CGA:   8    -0.411509846868E+03   -0.53995E-05   -0.57093E-05  6480   0.620E-04 0.117E-04
   6 F= -.41150985E+03 E0= -.41150528E+03  d E =-.370871E-04  mag=    14.0000
