 vasp.6.1.2 22Jul20 (build Mar 19 2021 09:51:12) complex                        
  
 executed on             LinuxIFC date 2021.06.21  16:42:40
 running on   12 total cores
 distrk:  each k-point on   12 cores,    1 groups
 distr:  one band on NCORE=   4 cores,    3 groups


--------------------------------------------------------------------------------------------------------


 INCAR:
 POTCAR:    PAW_PBE Ca_sv 06Sep2000               
 POTCAR:    PAW_PBE Mn_pv 02Aug2007               
 POTCAR:    PAW_PBE O 08Apr2002                   
 POTCAR:    PAW_PBE Ca_sv 06Sep2000               
   VRHFIN =Ca: 3s3p4s                                                                               
   LEXCH  = PE                                                                                      
   EATOM  =  1006.0909 eV,   73.9456 Ry                                                             
                                                                                                    
   TITEL  = PAW_PBE Ca_sv 06Sep2000                                                                 
   LULTRA =        F    use ultrasoft PP ?                                                          
   IUNSCR =        1    unscreen: 0-lin 1-nonlin 2-no                                               
   RPACOR =    2.000    partial core radius                                                         
   POMASS =   40.078; ZVAL   =   10.000    mass and valenz                                          
   RCORE  =    2.300    outmost cutoff radius                                                       
   RWIGS  =    2.500; RWIGS  =    1.323    wigner-seitz radius (au A)                               
   ENMAX  =  266.622; ENMIN  =  199.967 eV                                                          
   RCLOC  =    1.808    cutoff for local pot                                                        
   LCOR   =        T    correct aug charges                                                         
   LPAW   =        T    paw PP                                                                      
   EAUG   =  420.852                                                                                
   RMAX   =    2.359    core radius for proj-oper                                                   
   RAUG   =    1.300    factor for augmentation sphere                                              
   RDEP   =    2.392    radius for radial grids                                                     
   RDEPT  =    1.987    core radius for aug-charge                                                  
                                                                                                    
   Atomic configuration                                                                             
    7 entries                                                                                       
     n  l   j            E        occ.                                                              
     1  0  0.50     -3949.1705   2.0000                                                             
     2  0  0.50      -414.3434   2.0000                                                             
     2  1  1.50      -334.7047   6.0000                                                             
     3  0  0.50       -47.0896   2.0000                                                             
     4  0  0.50        -3.7663   2.0000                                                             
     3  1  1.50       -28.0061   6.0000                                                             
     3  2  1.50        -4.0817   0.0000                                                             
   Description                                                                                      
     l       E           TYP  RCUT    TYP  RCUT                                                     
     0    -47.0896403     23  2.300                                                                 
     0     -3.7663320     23  2.300                                                                 
     1    -28.0060855     23  2.300                                                                 
     1      6.8029130     23  2.300                                                                 
     2     -4.0817478     23  2.300                                                                 
     2      0.4464412     23  2.300                                                                 
  local pseudopotential read in
  partial core-charges read in
  partial kinetic energy density read in
  atomic valenz-charges read in
  non local Contribution for L=           0  read in
    real space projection operators read in
  non local Contribution for L=           0  read in
    real space projection operators read in
  non local Contribution for L=           1  read in
    real space projection operators read in
  non local Contribution for L=           1  read in
    real space projection operators read in
  non local Contribution for L=           2  read in
    real space projection operators read in
  non local Contribution for L=           2  read in
    real space projection operators read in
    PAW grid and wavefunctions read in
 
   number of l-projection  operators is LMAX  =           6
   number of lm-projection operators is LMMAX =          18
 
 POTCAR:    PAW_PBE Mn_pv 02Aug2007               
   VRHFIN =Mn: 3p4s3d                                                                               
   LEXCH  = PE                                                                                      
   EATOM  =  2025.2664 eV,  148.8529 Ry                                                             
                                                                                                    
   TITEL  = PAW_PBE Mn_pv 02Aug2007                                                                 
   LULTRA =        F    use ultrasoft PP ?                                                          
   IUNSCR =        1    unscreen: 0-lin 1-nonlin 2-no                                               
   RPACOR =    2.080    partial core radius                                                         
   POMASS =   54.938; ZVAL   =   13.000    mass and valenz                                          
   RCORE  =    2.300    outmost cutoff radius                                                       
   RWIGS  =    2.500; RWIGS  =    1.323    wigner-seitz radius (au A)                               
   ENMAX  =  269.864; ENMIN  =  202.398 eV                                                          
   ICORE  =        3    local potential                                                             
   LCOR   =        T    correct aug charges                                                         
   LPAW   =        T    paw PP                                                                      
   EAUG   =  569.085                                                                                
   DEXC   =    0.000                                                                                
   RMAX   =    2.343    core radius for proj-oper                                                   
   RAUG   =    1.300    factor for augmentation sphere                                              
   RDEP   =    2.338    radius for radial grids                                                     
   RDEPT  =    1.798    core radius for aug-charge                                                  
                                                                                                    
   Atomic configuration                                                                             
    8 entries                                                                                       
     n  l   j            E        occ.                                                              
     1  0  0.50     -6424.8287   2.0000                                                             
     2  0  0.50      -739.1154   2.0000                                                             
     2  1  1.50      -625.3949   6.0000                                                             
     3  0  0.50       -81.6100   2.0000                                                             
     3  1  1.50       -50.4667   6.0000                                                             
     3  2  2.50        -3.3745   6.0000                                                             
     4  0  0.50        -4.1331   1.0000                                                             
     4  3  2.50        -1.3606   0.0000                                                             
   Description                                                                                      
     l       E           TYP  RCUT    TYP  RCUT                                                     
     1    -50.4666628     23  2.000                                                                 
     1     -1.3605826     23  2.000                                                                 
     2     -3.3744729     23  2.300                                                                 
     2     -4.7350555     23  2.300                                                                 
     0     -4.1331431     23  2.300                                                                 
     0      7.6656591     23  2.300                                                                 
     3      9.5240782     23  2.300                                                                 
  local pseudopotential read in
  partial core-charges read in
  partial kinetic energy density read in
  atomic valenz-charges read in
  non local Contribution for L=           1  read in
    real space projection operators read in
  non local Contribution for L=           1  read in
    real space projection operators read in
  non local Contribution for L=           2  read in
    real space projection operators read in
  non local Contribution for L=           2  read in
    real space projection operators read in
  non local Contribution for L=           0  read in
    real space projection operators read in
  non local Contribution for L=           0  read in
    real space projection operators read in
    PAW grid and wavefunctions read in
 
   number of l-projection  operators is LMAX  =           6
   number of lm-projection operators is LMMAX =          18
 
 POTCAR:    PAW_PBE O 08Apr2002                   
   VRHFIN =O: s2p4                                                                                  
   LEXCH  = PE                                                                                      
   EATOM  =   432.3788 eV,   31.7789 Ry                                                             
                                                                                                    
   TITEL  = PAW_PBE O 08Apr2002                                                                     
   LULTRA =        F    use ultrasoft PP ?                                                          
   IUNSCR =        1    unscreen: 0-lin 1-nonlin 2-no                                               
   RPACOR =    1.200    partial core radius                                                         
   POMASS =   16.000; ZVAL   =    6.000    mass and valenz                                          
   RCORE  =    1.520    outmost cutoff radius                                                       
   RWIGS  =    1.550; RWIGS  =    0.820    wigner-seitz radius (au A)                               
   ENMAX  =  400.000; ENMIN  =  300.000 eV                                                          
   ICORE  =        2    local potential                                                             
   LCOR   =        T    correct aug charges                                                         
   LPAW   =        T    paw PP                                                                      
   EAUG   =  605.392                                                                                
   DEXC   =    0.000                                                                                
   RMAX   =    1.553    core radius for proj-oper                                                   
   RAUG   =    1.300    factor for augmentation sphere                                              
   RDEP   =    1.550    radius for radial grids                                                     
   RDEPT  =    1.329    core radius for aug-charge                                                  
                                                                                                    
   Atomic configuration                                                                             
    4 entries                                                                                       
     n  l   j            E        occ.                                                              
     1  0  0.50      -514.6923   2.0000                                                             
     2  0  0.50       -23.9615   2.0000                                                             
     2  1  0.50        -9.0305   4.0000                                                             
     3  2  1.50        -9.5241   0.0000                                                             
   Description                                                                                      
     l       E           TYP  RCUT    TYP  RCUT                                                     
     0    -23.9615318     23  1.200                                                                 
     0     -9.5240782     23  1.200                                                                 
     1     -9.0304911     23  1.520                                                                 
     1      8.1634956     23  1.520                                                                 
     2     -9.5240782      7  1.500                                                                 
  local pseudopotential read in
  partial core-charges read in
  partial kinetic energy density read in
  kinetic energy density of atom read in
  atomic valenz-charges read in
  non local Contribution for L=           0  read in
    real space projection operators read in
  non local Contribution for L=           0  read in
    real space projection operators read in
  non local Contribution for L=           1  read in
    real space projection operators read in
  non local Contribution for L=           1  read in
    real space projection operators read in
    PAW grid and wavefunctions read in
 
   number of l-projection  operators is LMAX  =           4
   number of lm-projection operators is LMMAX =           8
 
 Optimization of the real space projectors (new method)

 maximal supplied QI-value         = 16.25
 optimisation between [QCUT,QGAM] = [ 11.54, 23.24] = [ 37.28,151.24] Ry 
 Optimized for a Real-space Cutoff    1.58 Angstroem

   l    n(q)    QCUT    max X(q) W(low)/X(q) W(high)/X(q)  e(spline) 
   0     11    11.539    11.817    0.25E-04    0.22E-05    0.26E-07
   0     11    11.539     8.461    0.39E-04    0.49E-05    0.55E-07
   1     11    11.539     3.957    0.21E-05    0.44E-05    0.32E-07
   1     11    11.539     4.314    0.56E-04    0.44E-04    0.19E-06
   2     10    11.539    14.565    0.25E-03    0.21E-04    0.75E-06
   2     10    11.539    14.552    0.23E-03    0.22E-04    0.72E-06
 Optimization of the real space projectors (new method)

 maximal supplied QI-value         = 16.25
 optimisation between [QCUT,QGAM] = [ 11.54, 23.24] = [ 37.28,151.24] Ry 
 Optimized for a Real-space Cutoff    1.45 Angstroem

   l    n(q)    QCUT    max X(q) W(low)/X(q) W(high)/X(q)  e(spline) 
   1     10    11.539     3.658    0.56E-04    0.12E-03    0.13E-06
   1     10    11.539     5.612    0.11E-03    0.23E-03    0.24E-06
   2      9    11.539    55.373    0.45E-04    0.92E-04    0.22E-06
   2      9    11.539    50.863    0.47E-04    0.95E-04    0.22E-06
   0     10    11.539    79.536    0.46E-04    0.27E-04    0.11E-06
   0     10    11.539    38.668    0.38E-04    0.25E-04    0.10E-06
 Optimization of the real space projectors (new method)

 maximal supplied QI-value         = 24.76
 optimisation between [QCUT,QGAM] = [ 11.64, 23.27] = [ 37.91,151.63] Ry 
 Optimized for a Real-space Cutoff    1.14 Angstroem

   l    n(q)    QCUT    max X(q) W(low)/X(q) W(high)/X(q)  e(spline) 
   0      8    11.635    20.381    0.10E-03    0.33E-03    0.24E-06
   0      8    11.635    15.268    0.11E-03    0.35E-03    0.26E-06
   1      7    11.635     5.964    0.24E-03    0.31E-03    0.30E-06
   1      7    11.635     5.382    0.22E-03    0.25E-03    0.26E-06
  PAW_PBE Ca_sv 06Sep2000               :
 energy of atom  1       EATOM=-1006.0909
 kinetic energy error for atom=    0.0022 (will be added to EATOM!!)
  PAW_PBE Mn_pv 02Aug2007               :
 energy of atom  2       EATOM=-2025.2664
 kinetic energy error for atom=    0.0058 (will be added to EATOM!!)
  PAW_PBE O 08Apr2002                   :
 energy of atom  3       EATOM= -432.3788
 kinetic energy error for atom=    0.0208 (will be added to EATOM!!)
 
 
 POSCAR: Ca1 Mn7 O12
  positions in direct lattice
  velocities in cartesian coordinates

 METAGGA = SCAN     LMAXTAU =  6    LMIXTAU =  F

 exchange correlation table for  LEXCH =        8
   RHO(1)=    0.500       N(1)  =     2000
   RHO(2)=  100.500       N(2)  =     4000
 


--------------------------------------------------------------------------------------------------------


 ion  position               nearest neighbor table
   1  0.000  1.000  1.000-
   2  0.500  0.500  0.000-  18 1.93  15 1.93  12 1.93   9 1.93
   3  1.000  0.500  0.500-  19 1.93  16 1.93  13 1.93  10 1.93
   4  0.500  1.000  0.500-  20 1.93  17 1.93  14 1.93  11 1.93
   5  1.000  0.500  0.000-   9 1.90  12 1.90  13 2.04  10 2.04  20 2.04  17 2.04
   6  0.500  0.500  0.500-  10 1.90  13 1.90  14 2.04  11 2.04  18 2.04  15 2.04
   7  1.000  1.000  0.500-  11 1.90  14 1.90  12 2.04   9 2.04  19 2.04  16 2.04
   8  0.500  0.000  0.000-  20 1.92  18 1.92  19 1.92  15 1.92  17 1.92  16 1.92
   9  0.869  0.677  0.173-   5 1.90   2 1.93   7 2.04
  10  0.192  0.496  0.323-   6 1.90   3 1.93   5 2.04
  11  0.697  0.827  0.505-   7 1.90   4 1.93   6 2.04
  12  0.131  0.323  0.827-   5 1.90   2 1.93   7 2.04
  13  0.808  0.504  0.677-   6 1.90   3 1.93   5 2.04
  14  0.303  0.173  0.495-   7 1.90   4 1.93   6 2.04
  15  0.480  0.298  0.164-   8 1.92   2 1.93   6 2.04
  16  0.182  0.866  0.702-   8 1.92   3 1.93   7 2.04
  17  0.316  0.836  0.134-   8 1.92   4 1.93   5 2.04
  18  0.520  0.702  0.836-   8 1.92   2 1.93   6 2.04
  19  0.818  0.134  0.298-   8 1.92   3 1.93   7 2.04
  20  0.684  0.164  0.866-   8 1.92   4 1.93   5 2.04
 

IMPORTANT INFORMATION: All symmetrisations will be switched off!
NOSYMM: (Re-)initialisation of all symmetry stuff for point group C_1.


----------------------------------------------------------------------------------------

                                     Primitive cell                                     

  volume of cell :     202.2592

  direct lattice vectors                    reciprocal lattice vectors
     0.000013978 -0.000008631  6.359362947     0.095264163  0.055009292  0.157248321
     5.248324645 -3.029425130 -2.119772866     0.190543249  0.000011130 -0.000000419
    -0.000358635  6.060220171 -2.119795333     0.095250224  0.165016148  0.000000015

  length of vectors
     6.359362947  6.419950561  6.420264862     0.191907054  0.190543249  0.190533289

  position of ions in fractional coordinates (direct lattice)
     0.000026685  0.999997874  0.999999846
     0.499965067  0.500029259  0.000010592
     0.999934013  0.499983802  0.499968948
     0.499958004  0.999992258  0.500015953
     0.999971537  0.500035193  0.000014976
     0.499934542  0.499975745  0.499963534
     0.999959039  0.999984439  0.500022873
     0.500258254  0.000003195  0.000005965
     0.869362395  0.677331384  0.172845195
     0.192021140  0.495509279  0.322656416
     0.696516969  0.827151097  0.504506142
     0.130611212  0.322684342  0.827170577
     0.807935372  0.504483659  0.677318637
     0.303441212  0.172834895  0.495497772
     0.480050010  0.297898473  0.163979392
     0.182148866  0.866077308  0.702102120
     0.316077134  0.836034648  0.133942698
     0.519964365  0.702056916  0.835993086
     0.817910849  0.133937622  0.297941598
     0.683953334  0.163998611  0.866043682

  ion indices of the primitive-cell ions
   primitive index   ion index
                 1           1
                 2           2
                 3           3
                 4           4
                 5           5
                 6           6
                 7           7
                 8           8
                 9           9
                10          10
                11          11
                12          12
                13          13
                14          14
                15          15
                16          16
                17          17
                18          18
                19          19
                20          20

----------------------------------------------------------------------------------------

 
 
 KPOINTS: K-points file                           

Automatic generation of k-mesh.
Space group operators:
 irot       det(A)        alpha          n_x          n_y          n_z        tau_x        tau_y        tau_z
    1     1.000000     0.000001     1.000000     0.000000     0.000000     0.000000     0.000000     0.000000
 
 Subroutine IBZKPT returns following result:
 ===========================================
 
 Found    128 irreducible k-points:
 
 Following reciprocal coordinates:
            Coordinates               Weight
  0.000000  0.000000  0.000000      1.000000
  0.166667 -0.000000 -0.000000      2.000000
  0.333333 -0.000000 -0.000000      2.000000
  0.500000 -0.000000 -0.000000      1.000000
  0.000000  0.166667 -0.000000      2.000000
  0.166667  0.166667  0.000000      2.000000
  0.333333  0.166667  0.000000      2.000000
  0.500000  0.166667  0.000000      2.000000
 -0.333333  0.166667 -0.000000      2.000000
 -0.166667  0.166667 -0.000000      2.000000
  0.000000  0.333333  0.000000      2.000000
  0.166667  0.333333  0.000000      2.000000
  0.333333  0.333333 -0.000000      2.000000
  0.500000  0.333333 -0.000000      2.000000
 -0.333333  0.333333 -0.000000      2.000000
 -0.166667  0.333333 -0.000000      2.000000
  0.000000  0.500000 -0.000000      1.000000
  0.166667  0.500000 -0.000000      2.000000
  0.333333  0.500000 -0.000000      2.000000
  0.500000  0.500000  0.000000      1.000000
  0.000000 -0.000000  0.142857      2.000000
  0.166667 -0.000000  0.142857      2.000000
  0.333333 -0.000000  0.142857      2.000000
  0.500000 -0.000000  0.142857      2.000000
 -0.333333 -0.000000  0.142857      2.000000
 -0.166667  0.000000  0.142857      2.000000
  0.000000  0.166667  0.142857      2.000000
  0.166667  0.166667  0.142857      2.000000
  0.333333  0.166667  0.142857      2.000000
  0.500000  0.166667  0.142857      2.000000
 -0.333333  0.166667  0.142857      2.000000
 -0.166667  0.166667  0.142857      2.000000
  0.000000  0.333333  0.142857      2.000000
  0.166667  0.333333  0.142857      2.000000
  0.333333  0.333333  0.142857      2.000000
  0.500000  0.333333  0.142857      2.000000
 -0.333333  0.333333  0.142857      2.000000
 -0.166667  0.333333  0.142857      2.000000
 -0.000000  0.500000  0.142857      2.000000
  0.166667  0.500000  0.142857      2.000000
  0.333333  0.500000  0.142857      2.000000
  0.500000  0.500000  0.142857      2.000000
 -0.333333  0.500000  0.142857      2.000000
 -0.166667  0.500000  0.142857      2.000000
 -0.000000 -0.333333  0.142857      2.000000
  0.166667 -0.333333  0.142857      2.000000
  0.333333 -0.333333  0.142857      2.000000
  0.500000 -0.333333  0.142857      2.000000
 -0.333333 -0.333333  0.142857      2.000000
 -0.166667 -0.333333  0.142857      2.000000
  0.000000 -0.166667  0.142857      2.000000
  0.166667 -0.166667  0.142857      2.000000
  0.333333 -0.166667  0.142857      2.000000
  0.500000 -0.166667  0.142857      2.000000
 -0.333333 -0.166667  0.142857      2.000000
 -0.166667 -0.166667  0.142857      2.000000
  0.000000 -0.000000  0.285714      2.000000
  0.166667 -0.000000  0.285714      2.000000
  0.333333 -0.000000  0.285714      2.000000
  0.500000 -0.000000  0.285714      2.000000
 -0.333333  0.000000  0.285714      2.000000
 -0.166667 -0.000000  0.285714      2.000000
  0.000000  0.166667  0.285714      2.000000
  0.166667  0.166667  0.285714      2.000000
  0.333333  0.166667  0.285714      2.000000
  0.500000  0.166667  0.285714      2.000000
 -0.333333  0.166667  0.285714      2.000000
 -0.166667  0.166667  0.285714      2.000000
  0.000000  0.333333  0.285714      2.000000
  0.166667  0.333333  0.285714      2.000000
  0.333333  0.333333  0.285714      2.000000
  0.500000  0.333333  0.285714      2.000000
 -0.333333  0.333333  0.285714      2.000000
 -0.166667  0.333333  0.285714      2.000000
  0.000000  0.500000  0.285714      2.000000
  0.166667  0.500000  0.285714      2.000000
  0.333333  0.500000  0.285714      2.000000
  0.500000  0.500000  0.285714      2.000000
 -0.333333  0.500000  0.285714      2.000000
 -0.166667  0.500000  0.285714      2.000000
 -0.000000 -0.333333  0.285714      2.000000
  0.166667 -0.333333  0.285714      2.000000
  0.333333 -0.333333  0.285714      2.000000
  0.500000 -0.333333  0.285714      2.000000
 -0.333333 -0.333333  0.285714      2.000000
 -0.166667 -0.333333  0.285714      2.000000
  0.000000 -0.166667  0.285714      2.000000
  0.166667 -0.166667  0.285714      2.000000
  0.333333 -0.166667  0.285714      2.000000
  0.500000 -0.166667  0.285714      2.000000
 -0.333333 -0.166667  0.285714      2.000000
 -0.166667 -0.166667  0.285714      2.000000
  0.000000 -0.000000  0.428571      2.000000
  0.166667 -0.000000  0.428571      2.000000
  0.333333  0.000000  0.428571      2.000000
  0.500000 -0.000000  0.428571      2.000000
 -0.333333 -0.000000  0.428571      2.000000
 -0.166667 -0.000000  0.428571      2.000000
  0.000000  0.166667  0.428571      2.000000
  0.166667  0.166667  0.428571      2.000000
  0.333333  0.166667  0.428571      2.000000
  0.500000  0.166667  0.428571      2.000000
 -0.333333  0.166667  0.428571      2.000000
 -0.166667  0.166667  0.428571      2.000000
  0.000000  0.333333  0.428571      2.000000
  0.166667  0.333333  0.428571      2.000000
  0.333333  0.333333  0.428571      2.000000
  0.500000  0.333333  0.428571      2.000000
 -0.333333  0.333333  0.428571      2.000000
 -0.166667  0.333333  0.428571      2.000000
 -0.000000  0.500000  0.428571      2.000000
  0.166667  0.500000  0.428571      2.000000
  0.333333  0.500000  0.428571      2.000000
  0.500000  0.500000  0.428571      2.000000
 -0.333333  0.500000  0.428571      2.000000
 -0.166667  0.500000  0.428571      2.000000
 -0.000000 -0.333333  0.428571      2.000000
  0.166667 -0.333333  0.428571      2.000000
  0.333333 -0.333333  0.428571      2.000000
  0.500000 -0.333333  0.428571      2.000000
 -0.333333 -0.333333  0.428571      2.000000
 -0.166667 -0.333333  0.428571      2.000000
  0.000000 -0.166667  0.428571      2.000000
  0.166667 -0.166667  0.428571      2.000000
  0.333333 -0.166667  0.428571      2.000000
  0.500000 -0.166667  0.428571      2.000000
 -0.333333 -0.166667  0.428571      2.000000
 -0.166667 -0.166667  0.428571      2.000000
 
 Following cartesian coordinates:
            Coordinates               Weight
  0.000000  0.000000  0.000000      1.000000
  0.015877  0.009168  0.026208      2.000000
  0.031755  0.018336  0.052416      2.000000
  0.047632  0.027505  0.078624      1.000000
  0.031757  0.000002 -0.000000      2.000000
  0.047635  0.009170  0.026208      2.000000
  0.063512  0.018338  0.052416      2.000000
  0.079389  0.027507  0.078624      2.000000
  0.000002 -0.018335 -0.052416      2.000000
  0.015880 -0.009166 -0.026208      2.000000
  0.063514  0.000004 -0.000000      2.000000
  0.079392  0.009172  0.026208      2.000000
  0.095269  0.018340  0.052416      2.000000
  0.111146  0.027508  0.078624      2.000000
  0.031760 -0.018333 -0.052416      2.000000
  0.047637 -0.009165 -0.026208      2.000000
  0.095272  0.000006 -0.000000      1.000000
  0.111149  0.009174  0.026208      2.000000
  0.127026  0.018342  0.052416      2.000000
  0.142904  0.027510  0.078624      1.000000
  0.013607  0.023574  0.000000      2.000000
  0.029485  0.032742  0.026208      2.000000
  0.045362  0.041910  0.052416      2.000000
  0.061239  0.051078  0.078624      2.000000
 -0.018148  0.005237 -0.052416      2.000000
 -0.002270  0.014406 -0.026208      2.000000
  0.045364  0.023576 -0.000000      2.000000
  0.061242  0.032744  0.026208      2.000000
  0.077119  0.041912  0.052416      2.000000
  0.092996  0.051080  0.078624      2.000000
  0.013610  0.005239 -0.052416      2.000000
  0.029487  0.014407 -0.026208      2.000000
  0.077122  0.023577 -0.000000      2.000000
  0.092999  0.032746  0.026208      2.000000
  0.108876  0.041914  0.052416      2.000000
  0.124754  0.051082  0.078624      2.000000
  0.045367  0.005241 -0.052416      2.000000
  0.061244  0.014409 -0.026208      2.000000
  0.108879  0.023579 -0.000000      2.000000
  0.124756  0.032748  0.026208      2.000000
  0.140634  0.041916  0.052416      2.000000
  0.156511  0.051084  0.078624      2.000000
  0.077124  0.005243 -0.052416      2.000000
  0.093001  0.014411 -0.026208      2.000000
 -0.049907  0.023570  0.000000      2.000000
 -0.034030  0.032738  0.026208      2.000000
 -0.018153  0.041906  0.052416      2.000000
 -0.002275  0.051075  0.078624      2.000000
 -0.081662  0.005234 -0.052416      2.000000
 -0.065785  0.014402 -0.026208      2.000000
 -0.018150  0.023572  0.000000      2.000000
 -0.002273  0.032740  0.026208      2.000000
  0.013605  0.041908  0.052416      2.000000
  0.029482  0.051077  0.078624      2.000000
 -0.049905  0.005235 -0.052416      2.000000
 -0.034027  0.014404 -0.026208      2.000000
  0.027214  0.047147  0.000000      2.000000
  0.043092  0.056316  0.026208      2.000000
  0.058969  0.065484  0.052416      2.000000
  0.074846  0.074652  0.078624      2.000000
 -0.004540  0.028811 -0.052416      2.000000
  0.011337  0.037979 -0.026208      2.000000
  0.058972  0.047149 -0.000000      2.000000
  0.074849  0.056318  0.026208      2.000000
  0.090726  0.065486  0.052416      2.000000
  0.106604  0.074654  0.078624      2.000000
  0.027217  0.028813 -0.052416      2.000000
  0.043094  0.037981 -0.026208      2.000000
  0.090729  0.047151 -0.000000      2.000000
  0.106606  0.056319  0.026208      2.000000
  0.122483  0.065488  0.052416      2.000000
  0.138361  0.074656  0.078624      2.000000
  0.058974  0.028815 -0.052416      2.000000
  0.074851  0.037983 -0.026208      2.000000
  0.122486  0.047153 -0.000000      2.000000
  0.138363  0.056321  0.026208      2.000000
  0.154241  0.065489  0.052416      2.000000
  0.170118  0.074658  0.078624      2.000000
  0.090731  0.028817 -0.052416      2.000000
  0.106609  0.037985 -0.026208      2.000000
 -0.036300  0.047144  0.000000      2.000000
 -0.020423  0.056312  0.026208      2.000000
 -0.004545  0.065480  0.052416      2.000000
  0.011332  0.074648  0.078624      2.000000
 -0.068055  0.028807 -0.052416      2.000000
 -0.052177  0.037976 -0.026208      2.000000
 -0.004543  0.047146  0.000000      2.000000
  0.011335  0.056314  0.026208      2.000000
  0.027212  0.065482  0.052416      2.000000
  0.043089  0.074650  0.078624      2.000000
 -0.036298  0.028809 -0.052416      2.000000
 -0.020420  0.037977 -0.026208      2.000000
  0.040822  0.070721  0.000000      2.000000
  0.056699  0.079889  0.026208      2.000000
  0.072576  0.089058  0.052416      2.000000
  0.088454  0.098226  0.078624      2.000000
  0.009067  0.052385 -0.052416      2.000000
  0.024944  0.061553 -0.026208      2.000000
  0.072579  0.070723 -0.000000      2.000000
  0.088456  0.079891  0.026208      2.000000
  0.104333  0.089059  0.052416      2.000000
  0.120211  0.098228  0.078624      2.000000
  0.040824  0.052387 -0.052416      2.000000
  0.056701  0.061555 -0.026208      2.000000
  0.104336  0.070725 -0.000000      2.000000
  0.120213  0.079893  0.026208      2.000000
  0.136091  0.089061  0.052416      2.000000
  0.151968  0.098230  0.078624      2.000000
  0.072581  0.052388 -0.052416      2.000000
  0.088459  0.061557 -0.026208      2.000000
  0.136093  0.070727 -0.000000      2.000000
  0.151971  0.079895  0.026208      2.000000
  0.167848  0.089063  0.052416      2.000000
  0.183725  0.098231  0.078624      2.000000
  0.104338  0.052390 -0.052416      2.000000
  0.120216  0.061559 -0.026208      2.000000
 -0.022693  0.070717  0.000000      2.000000
 -0.006816  0.079886  0.026208      2.000000
  0.009062  0.089054  0.052416      2.000000
  0.024939  0.098222  0.078624      2.000000
 -0.054448  0.052381 -0.052416      2.000000
 -0.038570  0.061549 -0.026208      2.000000
  0.009064  0.070719  0.000000      2.000000
  0.024942  0.079888  0.026208      2.000000
  0.040819  0.089056  0.052416      2.000000
  0.056696  0.098224  0.078624      2.000000
 -0.022690  0.052383 -0.052416      2.000000
 -0.006813  0.061551 -0.026208      2.000000
 


--------------------------------------------------------------------------------------------------------




 Dimension of arrays:
   k-points           NKPTS =    128   k-points in BZ     NKDIM =    128   number of bands    NBANDS=    117
   number of dos      NEDOS =    301   number of ions     NIONS =     20
   non local maximal  LDIM  =      6   non local SUM 2l+1 LMDIM =     18
   total plane-waves  NPLWV = 110592
   max r-space proj   IRMAX =   9080   max aug-charges    IRDMAX=  26284
   dimension x,y,z NGX =    48 NGY =   48 NGZ =   48
   dimension x,y,z NGXF=    96 NGYF=   96 NGZF=   96
   support grid    NGXF=    96 NGYF=   96 NGZF=   96
   ions per type =               1   7  12
   NGX,Y,Z   is equivalent  to a cutoff of  12.55, 12.43, 12.43 a.u.
   NGXF,Y,Z  is equivalent  to a cutoff of  25.10, 24.86, 24.86 a.u.

 SYSTEM =  unknown system                          
 POSCAR =  Ca1 Mn7 O12                             

 Startparameter for this run:
   NWRITE =      2    write-flag & timer
   PREC   = accura    normal or accurate (medium, high low for compatibility)
   ISTART =      0    job   : 0-new  1-cont  2-samecut
   ICHARG =      2    charge: 1-file 2-atom 10-const
   ISPIN  =      2    spin polarized calculation?
   LNONCOLLINEAR =      F non collinear calculations
   LSORBIT =      F    spin-orbit coupling
   INIWAV =      1    electr: 0-lowe 1-rand  2-diag
   LASPH  =      T    aspherical Exc in radial PAW
   METAGGA=      F    non-selfconsistent MetaGGA calc.

 Electronic Relaxation 1
   ENCUT  =  520.0 eV  38.22 Ry    6.18 a.u.  11.82 11.94 11.94*2*pi/ulx,y,z
   ENINI  =  520.0     initial cutoff
   ENAUG  =  605.4 eV  augmentation charge cutoff
   NELM   =    100;   NELMIN=  6; NELMDL= -5     # of ELM steps 
   EDIFF  = 0.1E-04   stopping-criterion for ELM
   LREAL  =      T    real-space projection
   NLSPLINE    = F    spline interpolate recip. space projectors
   LCOMPAT=      F    compatible to vasp.4.4
   GGA_COMPAT  = T    GGA compatible to vasp.4.4-vasp.4.6
   LMAXPAW     = -100 max onsite density
   LMAXMIX     =    4 max onsite mixed and CHGCAR
   VOSKOWN=      0    Vosko Wilk Nusair interpolation
   ROPT   =   -0.00025  -0.00025  -0.00025
 Ionic relaxation
   EDIFFG = -.3E-01   stopping-criterion for IOM
   NSW    =     99    number of steps for IOM
   NBLOCK =      1;   KBLOCK =     99    inner block; outer block 
   IBRION =      2    ionic relax: 0-MD 1-quasi-New 2-CG
   NFREE  =      1    steps in history (QN), initial steepest desc. (CG)
   ISIF   =      3    stress and relaxation
   IWAVPR =     11    prediction:  0-non 1-charg 2-wave 3-comb
   ISYM   =      0    0-nonsym 1-usesym 2-fastsym
   LCORR  =      T    Harris-Foulkes like correction to forces

   POTIM  = 0.5000    time-step for ionic-motion
   TEIN   =    0.0    initial temperature
   TEBEG  =    0.0;   TEEND  =   0.0 temperature during run
   SMASS  =  -3.00    Nose mass-parameter (am)
   estimated Nose-frequenzy (Omega)   =  0.10E-29 period in steps = 0.13E+47 mass=  -0.924E-27a.u.
   SCALEE = 1.0000    scale energy and forces
   NPACO  =    256;   APACO  = 16.0  distance and # of slots for P.C.
   PSTRESS=    0.0 pullay stress

  Mass of Ions in am
   POMASS =  40.08 54.94 16.00
  Ionic Valenz
   ZVAL   =  10.00 13.00  6.00
  Atomic Wigner-Seitz radii
   RWIGS  =  -1.00 -1.00 -1.00
  virtual crystal weights 
   VCA    =   1.00  1.00  1.00
   NELECT =     173.0000    total number of electrons
   NUPDOWN=      -1.0000    fix difference up-down

 DOS related values:
   EMIN   =  10.00;   EMAX   =-10.00  energy-range for DOS
   EFERMI =   0.00
   ISMEAR =     0;   SIGMA  =   0.05  broadening in eV -4-tet -1-fermi 0-gaus

 Electronic relaxation 2 (details)
   IALGO  =     38    algorithm
   LDIAG  =      T    sub-space diagonalisation (order eigenvalues)
   LSUBROT=      F    optimize rotation matrix (better conditioning)
   TURBO    =      0    0=normal 1=particle mesh
   IRESTART =      0    0=no restart 2=restart with 2 vectors
   NREBOOT  =      0    no. of reboots
   NMIN     =      0    reboot dimension
   EREF     =   0.00    reference energy to select bands
   IMIX   =      4    mixing-type and parameters
     AMIX     =   0.40;   BMIX     =  1.00
     AMIX_MAG =   1.60;   BMIX_MAG =  1.00
     AMIN     =   0.10
     WC   =   100.;   INIMIX=   1;  MIXPRE=   1;  MAXMIX= -45

 Intra band minimization:
   WEIMIN = 0.0010     energy-eigenvalue tresh-hold
   EBREAK =  0.21E-07  absolut break condition
   DEPER  =   0.30     relativ break condition  

   TIME   =   0.40     timestep for ELM

  volume/ion in A,a.u.               =      10.11        68.25
  Fermi-wavevector in a.u.,A,eV,Ry     =   1.554011  2.936655 32.857396  2.414951
  Thomas-Fermi vector in A             =   2.658159
 
 Write flags
   LWAVE        =      F    write WAVECAR
   LDOWNSAMPLE  =      F    k-point downsampling of WAVECAR
   LCHARG       =      T    write CHGCAR
   LVTOT        =      F    write LOCPOT, total local potential
   LVHAR        =      F    write LOCPOT, Hartree potential only
   LELF         =      F    write electronic localiz. function (ELF)
   LORBIT       =     11    0 simple, 1 ext, 2 COOP (PROOUT), +10 PAW based schemes


 Dipole corrections
   LMONO  =      F    monopole corrections only (constant potential shift)
   LDIPOL =      F    correct potential (dipole corrections)
   IDIPOL =      0    1-x, 2-y, 3-z, 4-all directions 
   EPSILON=  1.0000000 bulk dielectric constant

 LDA+U is selected, type is set to LDAUTYPE =  2
   angular momentum for each species LDAUL =    -1    2   -1
   U (eV)           for each species LDAUU =   0.0  2.7  0.0
   J (eV)           for each species LDAUJ =   0.0  0.0  0.0
 Exchange correlation treatment:
   GGA     =    --    GGA type
   LEXCH   =     8    internal setting for exchange type
   VOSKOWN=      0    Vosko Wilk Nusair interpolation
   LHFCALC =     F    Hartree Fock is set to
   LHFONE  =     F    Hartree Fock one center treatment
   AEXX    =    0.0000 exact exchange contribution

 Linear response parameters
   LEPSILON=     F    determine dielectric tensor
   LRPA    =     F    only Hartree local field effects (RPA)
   LNABLA  =     F    use nabla operator in PAW spheres
   LVEL    =     F    velocity operator in full k-point grid
   LINTERFAST=   F  fast interpolation
   KINTER  =     0    interpolate to denser k-point grid
   CSHIFT  =0.1000    complex shift for real part using Kramers Kronig
   OMEGAMAX=  -1.0    maximum frequency
   DEG_THRESHOLD= 0.2000000E-02 threshold for treating states as degnerate
   RTIME   =   -0.100 relaxation time in fs
  (WPLASMAI=    0.000 imaginary part of plasma frequency in eV, 0.658/RTIME)
   DFIELD  = 0.0000000 0.0000000 0.0000000 field for delta impulse in time
 
 Orbital magnetization related:
   ORBITALMAG=     F  switch on orbital magnetization
   LCHIMAG   =     F  perturbation theory with respect to B field
   DQ        =  0.001000  dq finite difference perturbation B field
   LLRAUG    =     F  two centre corrections for induced B field



--------------------------------------------------------------------------------------------------------


 conjugate gradient relaxation of ions
 charge density and potential will be updated during run
 spin polarized calculation
 Variant of blocked Davidson
 Davidson routine will perform the subspace rotation
 perform sub-space diagonalisation
    after iterative eigenvector-optimisation
 modified Broyden-mixing scheme, WC =      100.0
 initial mixing is a Kerker type mixing with AMIX =  0.4000 and BMIX =      1.0000
 Hartree-type preconditioning will be used
 using additional bands           30
 real space projection scheme for non local part
 use partial core corrections
 calculate Harris-corrections to forces 
   (improved forces if not selfconsistent)
 use gradient corrections 
 use of overlap-Matrix (Vanderbilt PP)
 Gauss-broadening in eV      SIGMA  =   0.05


--------------------------------------------------------------------------------------------------------


  energy-cutoff  :      520.00
  volume of cell :      202.26
      direct lattice vectors                 reciprocal lattice vectors
     0.000013978 -0.000008631  6.359362947     0.095264163  0.055009292  0.157248321
     5.248324645 -3.029425130 -2.119772866     0.190543249  0.000011130 -0.000000419
    -0.000358635  6.060220171 -2.119795333     0.095250224  0.165016148  0.000000015

  length of vectors
     6.359362947  6.419950561  6.420264862     0.191907054  0.190543249  0.190533289


 
 k-points in units of 2pi/SCALE and weight: K-points file                           
   0.00000000  0.00000000  0.00000000       0.004
   0.01587736  0.00916822  0.02620805       0.008
   0.03175472  0.01833643  0.05241611       0.008
   0.04763208  0.02750465  0.07862416       0.004
   0.03175721  0.00000185 -0.00000007       0.008
   0.04763457  0.00917007  0.02620798       0.008
   0.06351193  0.01833829  0.05241604       0.008
   0.07938929  0.02750650  0.07862409       0.008
   0.00000249 -0.01833458 -0.05241618       0.008
   0.01587985 -0.00916636 -0.02620812       0.008
   0.06351442  0.00000371 -0.00000014       0.008
   0.07939178  0.00917193  0.02620791       0.008
   0.09526914  0.01834014  0.05241597       0.008
   0.11114650  0.02750836  0.07862402       0.008
   0.03175970 -0.01833272 -0.05241625       0.008
   0.04763706 -0.00916451 -0.02620819       0.008
   0.09527162  0.00000556 -0.00000021       0.004
   0.11114898  0.00917378  0.02620784       0.008
   0.12702635  0.01834200  0.05241590       0.008
   0.14290371  0.02751021  0.07862395       0.004
   0.01360717  0.02357374  0.00000000       0.008
   0.02948454  0.03274195  0.02620806       0.008
   0.04536190  0.04191017  0.05241611       0.008
   0.06123926  0.05107838  0.07862416       0.008
  -0.01814755  0.00523730 -0.05241610       0.008
  -0.00227019  0.01440552 -0.02620805       0.008
   0.04536438  0.02357559 -0.00000007       0.008
   0.06124174  0.03274381  0.02620799       0.008
   0.07711910  0.04191202  0.05241604       0.008
   0.09299646  0.05108024  0.07862409       0.008
   0.01360966  0.00523916 -0.05241617       0.008
   0.02948702  0.01440738 -0.02620812       0.008
   0.07712159  0.02357745 -0.00000014       0.008
   0.09299895  0.03274566  0.02620792       0.008
   0.10887631  0.04191388  0.05241597       0.008
   0.12475367  0.05108209  0.07862402       0.008
   0.04536687  0.00524101 -0.05241624       0.008
   0.06124423  0.01440923 -0.02620819       0.008
   0.10887880  0.02357930 -0.00000021       0.008
   0.12475616  0.03274752  0.02620785       0.008
   0.14063352  0.04191573  0.05241590       0.008
   0.15651088  0.05108395  0.07862395       0.008
   0.07712408  0.00524287 -0.05241631       0.008
   0.09300144  0.01441108 -0.02620826       0.008
  -0.04990724  0.02357003  0.00000014       0.008
  -0.03402988  0.03273824  0.02620820       0.008
  -0.01815252  0.04190646  0.05241625       0.008
  -0.00227516  0.05107467  0.07862430       0.008
  -0.08166196  0.00523359 -0.05241597       0.008
  -0.06578460  0.01440181 -0.02620791       0.008
  -0.01815003  0.02357188  0.00000007       0.008
  -0.00227267  0.03274010  0.02620813       0.008
   0.01360469  0.04190831  0.05241618       0.008
   0.02948205  0.05107653  0.07862423       0.008
  -0.04990475  0.00523545 -0.05241603       0.008
  -0.03402739  0.01440367 -0.02620798       0.008
   0.02721435  0.04714747  0.00000000       0.008
   0.04309171  0.05631569  0.02620806       0.008
   0.05896907  0.06548390  0.05241611       0.008
   0.07484643  0.07465212  0.07862416       0.008
  -0.00454037  0.02881104 -0.05241610       0.008
   0.01133699  0.03797926 -0.02620805       0.008
   0.05897156  0.04714933 -0.00000007       0.008
   0.07484892  0.05631754  0.02620799       0.008
   0.09072628  0.06548576  0.05241604       0.008
   0.10660364  0.07465397  0.07862409       0.008
   0.02721684  0.02881290 -0.05241617       0.008
   0.04309420  0.03798111 -0.02620812       0.008
   0.09072877  0.04715118 -0.00000014       0.008
   0.10660613  0.05631940  0.02620792       0.008
   0.12248349  0.06548761  0.05241597       0.008
   0.13836085  0.07465583  0.07862402       0.008
   0.05897404  0.02881475 -0.05241624       0.008
   0.07485141  0.03798297 -0.02620819       0.008
   0.12248597  0.04715304 -0.00000021       0.008
   0.13836333  0.05632125  0.02620785       0.008
   0.15424070  0.06548947  0.05241590       0.008
   0.17011806  0.07465768  0.07862396       0.008
   0.09073125  0.02881661 -0.05241631       0.008
   0.10660861  0.03798482 -0.02620826       0.008
  -0.03630007  0.04714376  0.00000014       0.008
  -0.02042271  0.05631198  0.02620820       0.008
  -0.00454535  0.06548019  0.05241625       0.008
   0.01133201  0.07464841  0.07862430       0.008
  -0.06805479  0.02880733 -0.05241596       0.008
  -0.05217743  0.03797555 -0.02620791       0.008
  -0.00454286  0.04714562  0.00000007       0.008
   0.01133450  0.05631383  0.02620813       0.008
   0.02721186  0.06548205  0.05241618       0.008
   0.04308922  0.07465026  0.07862423       0.008
  -0.03629758  0.02880919 -0.05241603       0.008
  -0.02042022  0.03797740 -0.02620798       0.008
   0.04082152  0.07072121  0.00000001       0.008
   0.05669889  0.07988942  0.02620806       0.008
   0.07257625  0.08905764  0.05241611       0.008
   0.08845361  0.09822585  0.07862417       0.008
   0.00906680  0.05238478 -0.05241610       0.008
   0.02494416  0.06155299 -0.02620805       0.008
   0.07257873  0.07072306 -0.00000006       0.008
   0.08845609  0.07989128  0.02620799       0.008
   0.10433345  0.08905949  0.05241604       0.008
   0.12021081  0.09822771  0.07862410       0.008
   0.04082401  0.05238663 -0.05241617       0.008
   0.05670137  0.06155485 -0.02620812       0.008
   0.10433594  0.07072492 -0.00000013       0.008
   0.12021330  0.07989313  0.02620792       0.008
   0.13609066  0.08906135  0.05241597       0.008
   0.15196802  0.09822956  0.07862403       0.008
   0.07258122  0.05238849 -0.05241624       0.008
   0.08845858  0.06155670 -0.02620819       0.008
   0.13609315  0.07072677 -0.00000020       0.008
   0.15197051  0.07989499  0.02620785       0.008
   0.16784787  0.08906320  0.05241590       0.008
   0.18372523  0.09823142  0.07862396       0.008
   0.10433843  0.05239034 -0.05241631       0.008
   0.12021579  0.06155856 -0.02620826       0.008
  -0.02269289  0.07071750  0.00000015       0.008
  -0.00681553  0.07988571  0.02620820       0.008
   0.00906183  0.08905393  0.05241625       0.008
   0.02493919  0.09822214  0.07862431       0.008
  -0.05444761  0.05238107 -0.05241596       0.008
  -0.03857025  0.06154928 -0.02620791       0.008
   0.00906432  0.07071935  0.00000008       0.008
   0.02494168  0.07988757  0.02620813       0.008
   0.04081904  0.08905578  0.05241618       0.008
   0.05669640  0.09822400  0.07862424       0.008
  -0.02269040  0.05238292 -0.05241603       0.008
  -0.00681304  0.06155114 -0.02620798       0.008
 
 k-points in reciprocal lattice and weights: K-points file                           
   0.00000000  0.00000000  0.00000000       0.004
   0.16666667 -0.00000000 -0.00000000       0.008
   0.33333333 -0.00000000 -0.00000000       0.008
   0.50000000 -0.00000000 -0.00000000       0.004
   0.00000000  0.16666667 -0.00000000       0.008
   0.16666667  0.16666667  0.00000000       0.008
   0.33333333  0.16666667  0.00000000       0.008
   0.50000000  0.16666667  0.00000000       0.008
  -0.33333333  0.16666667 -0.00000000       0.008
  -0.16666667  0.16666667 -0.00000000       0.008
   0.00000000  0.33333333  0.00000000       0.008
   0.16666667  0.33333333  0.00000000       0.008
   0.33333333  0.33333333 -0.00000000       0.008
   0.50000000  0.33333333 -0.00000000       0.008
  -0.33333333  0.33333333 -0.00000000       0.008
  -0.16666667  0.33333333 -0.00000000       0.008
   0.00000000  0.50000000 -0.00000000       0.004
   0.16666667  0.50000000 -0.00000000       0.008
   0.33333333  0.50000000 -0.00000000       0.008
   0.50000000  0.50000000  0.00000000       0.004
   0.00000000 -0.00000000  0.14285714       0.008
   0.16666667 -0.00000000  0.14285714       0.008
   0.33333333 -0.00000000  0.14285714       0.008
   0.50000000 -0.00000000  0.14285714       0.008
  -0.33333333 -0.00000000  0.14285714       0.008
  -0.16666667  0.00000000  0.14285714       0.008
   0.00000000  0.16666667  0.14285714       0.008
   0.16666667  0.16666667  0.14285714       0.008
   0.33333333  0.16666667  0.14285714       0.008
   0.50000000  0.16666667  0.14285714       0.008
  -0.33333333  0.16666667  0.14285714       0.008
  -0.16666667  0.16666667  0.14285714       0.008
   0.00000000  0.33333333  0.14285714       0.008
   0.16666667  0.33333333  0.14285714       0.008
   0.33333333  0.33333333  0.14285714       0.008
   0.50000000  0.33333333  0.14285714       0.008
  -0.33333333  0.33333333  0.14285714       0.008
  -0.16666667  0.33333333  0.14285714       0.008
  -0.00000000  0.50000000  0.14285714       0.008
   0.16666667  0.50000000  0.14285714       0.008
   0.33333333  0.50000000  0.14285714       0.008
   0.50000000  0.50000000  0.14285714       0.008
  -0.33333333  0.50000000  0.14285714       0.008
  -0.16666667  0.50000000  0.14285714       0.008
  -0.00000000 -0.33333333  0.14285714       0.008
   0.16666667 -0.33333333  0.14285714       0.008
   0.33333333 -0.33333333  0.14285714       0.008
   0.50000000 -0.33333333  0.14285714       0.008
  -0.33333333 -0.33333333  0.14285714       0.008
  -0.16666667 -0.33333333  0.14285714       0.008
   0.00000000 -0.16666667  0.14285714       0.008
   0.16666667 -0.16666667  0.14285714       0.008
   0.33333333 -0.16666667  0.14285714       0.008
   0.50000000 -0.16666667  0.14285714       0.008
  -0.33333333 -0.16666667  0.14285714       0.008
  -0.16666667 -0.16666667  0.14285714       0.008
   0.00000000 -0.00000000  0.28571429       0.008
   0.16666667 -0.00000000  0.28571429       0.008
   0.33333333 -0.00000000  0.28571429       0.008
   0.50000000 -0.00000000  0.28571429       0.008
  -0.33333333  0.00000000  0.28571429       0.008
  -0.16666667 -0.00000000  0.28571429       0.008
   0.00000000  0.16666667  0.28571429       0.008
   0.16666667  0.16666667  0.28571429       0.008
   0.33333333  0.16666667  0.28571429       0.008
   0.50000000  0.16666667  0.28571429       0.008
  -0.33333333  0.16666667  0.28571429       0.008
  -0.16666667  0.16666667  0.28571429       0.008
   0.00000000  0.33333333  0.28571429       0.008
   0.16666667  0.33333333  0.28571429       0.008
   0.33333333  0.33333333  0.28571429       0.008
   0.50000000  0.33333333  0.28571429       0.008
  -0.33333333  0.33333333  0.28571429       0.008
  -0.16666667  0.33333333  0.28571429       0.008
   0.00000000  0.50000000  0.28571429       0.008
   0.16666667  0.50000000  0.28571429       0.008
   0.33333333  0.50000000  0.28571429       0.008
   0.50000000  0.50000000  0.28571429       0.008
  -0.33333333  0.50000000  0.28571429       0.008
  -0.16666667  0.50000000  0.28571429       0.008
  -0.00000000 -0.33333333  0.28571429       0.008
   0.16666667 -0.33333333  0.28571429       0.008
   0.33333333 -0.33333333  0.28571429       0.008
   0.50000000 -0.33333333  0.28571429       0.008
  -0.33333333 -0.33333333  0.28571429       0.008
  -0.16666667 -0.33333333  0.28571429       0.008
   0.00000000 -0.16666667  0.28571429       0.008
   0.16666667 -0.16666667  0.28571429       0.008
   0.33333333 -0.16666667  0.28571429       0.008
   0.50000000 -0.16666667  0.28571429       0.008
  -0.33333333 -0.16666667  0.28571429       0.008
  -0.16666667 -0.16666667  0.28571429       0.008
   0.00000000 -0.00000000  0.42857143       0.008
   0.16666667 -0.00000000  0.42857143       0.008
   0.33333333  0.00000000  0.42857143       0.008
   0.50000000 -0.00000000  0.42857143       0.008
  -0.33333333 -0.00000000  0.42857143       0.008
  -0.16666667 -0.00000000  0.42857143       0.008
   0.00000000  0.16666667  0.42857143       0.008
   0.16666667  0.16666667  0.42857143       0.008
   0.33333333  0.16666667  0.42857143       0.008
   0.50000000  0.16666667  0.42857143       0.008
  -0.33333333  0.16666667  0.42857143       0.008
  -0.16666667  0.16666667  0.42857143       0.008
   0.00000000  0.33333333  0.42857143       0.008
   0.16666667  0.33333333  0.42857143       0.008
   0.33333333  0.33333333  0.42857143       0.008
   0.50000000  0.33333333  0.42857143       0.008
  -0.33333333  0.33333333  0.42857143       0.008
  -0.16666667  0.33333333  0.42857143       0.008
  -0.00000000  0.50000000  0.42857143       0.008
   0.16666667  0.50000000  0.42857143       0.008
   0.33333333  0.50000000  0.42857143       0.008
   0.50000000  0.50000000  0.42857143       0.008
  -0.33333333  0.50000000  0.42857143       0.008
  -0.16666667  0.50000000  0.42857143       0.008
  -0.00000000 -0.33333333  0.42857143       0.008
   0.16666667 -0.33333333  0.42857143       0.008
   0.33333333 -0.33333333  0.42857143       0.008
   0.50000000 -0.33333333  0.42857143       0.008
  -0.33333333 -0.33333333  0.42857143       0.008
  -0.16666667 -0.33333333  0.42857143       0.008
   0.00000000 -0.16666667  0.42857143       0.008
   0.16666667 -0.16666667  0.42857143       0.008
   0.33333333 -0.16666667  0.42857143       0.008
   0.50000000 -0.16666667  0.42857143       0.008
  -0.33333333 -0.16666667  0.42857143       0.008
  -0.16666667 -0.16666667  0.42857143       0.008
 
 position of ions in fractional coordinates (direct lattice) 
   0.00002669  0.99999787  0.99999985
   0.49996507  0.50002926  0.00001059
   0.99993401  0.49998380  0.49996895
   0.49995800  0.99999226  0.50001595
   0.99997154  0.50003519  0.00001498
   0.49993454  0.49997574  0.49996353
   0.99995904  0.99998444  0.50002287
   0.50025825  0.00000319  0.00000597
   0.86936239  0.67733138  0.17284520
   0.19202114  0.49550928  0.32265642
   0.69651697  0.82715110  0.50450614
   0.13061121  0.32268434  0.82717058
   0.80793537  0.50448366  0.67731864
   0.30344121  0.17283489  0.49549777
   0.48005001  0.29789847  0.16397939
   0.18214887  0.86607731  0.70210212
   0.31607713  0.83603465  0.13394270
   0.51996437  0.70205692  0.83599309
   0.81791085  0.13393762  0.29794160
   0.68395333  0.16399861  0.86604368
 
 position of ions in cartesian coordinates  (Angst):
   5.24795485  3.03080055 -4.23939366
   2.62432287 -1.51474133  2.11948841
   2.62391198  1.51524978  4.23925937
   5.24811168  0.00080077 -0.00027354
   2.62436100 -1.51473706  5.29918916
   2.62386271  1.51524569  1.05960982
   5.24807763  0.00086208  3.17941643
   0.00002376  0.00002215  3.18130438
   3.55480516 -1.00445228  3.72640587
   2.60048053  0.45425900 -0.51320057
   4.34098629  0.55161997  1.60658199
   1.69325736  4.03528663 -1.60684574
   2.64746240  2.57639762  2.63278661
   0.90692018  2.47923260  0.51296822
   1.56341580  0.09128595  2.07373240
   4.54520563  1.63117549 -2.16584922
   4.38773763 -1.72098486 -0.04608545
   3.68433007  2.93946881  0.04630668
   0.70285270  1.39983062  4.28589940
   0.86041692  4.75158797  2.16603233
 


--------------------------------------------------------------------------------------------------------


 k-point   1 :   0.0000 0.0000 0.0000  plane waves:    5449
 k-point   2 :   0.1667-0.0000-0.0000  plane waves:    5430
 k-point   3 :   0.3333-0.0000-0.0000  plane waves:    5436
 k-point   4 :   0.5000-0.0000-0.0000  plane waves:    5440
 k-point   5 :   0.0000 0.1667-0.0000  plane waves:    5437
 k-point   6 :   0.1667 0.1667 0.0000  plane waves:    5439
 k-point   7 :   0.3333 0.1667 0.0000  plane waves:    5442
 k-point   8 :   0.5000 0.1667 0.0000  plane waves:    5447
 k-point   9 :  -0.3333 0.1667-0.0000  plane waves:    5438
 k-point  10 :  -0.1667 0.1667-0.0000  plane waves:    5430
 k-point  11 :   0.0000 0.3333 0.0000  plane waves:    5440
 k-point  12 :   0.1667 0.3333 0.0000  plane waves:    5441
 k-point  13 :   0.3333 0.3333-0.0000  plane waves:    5453
 k-point  14 :   0.5000 0.3333-0.0000  plane waves:    5447
 k-point  15 :  -0.3333 0.3333-0.0000  plane waves:    5436
 k-point  16 :  -0.1667 0.3333-0.0000  plane waves:    5439
 k-point  17 :   0.0000 0.5000-0.0000  plane waves:    5444
 k-point  18 :   0.1667 0.5000-0.0000  plane waves:    5441
 k-point  19 :   0.3333 0.5000-0.0000  plane waves:    5442
 k-point  20 :   0.5000 0.5000 0.0000  plane waves:    5440
 k-point  21 :   0.0000-0.0000 0.1429  plane waves:    5439
 k-point  22 :   0.1667-0.0000 0.1429  plane waves:    5439
 k-point  23 :   0.3333-0.0000 0.1429  plane waves:    5437
 k-point  24 :   0.5000-0.0000 0.1429  plane waves:    5445
 k-point  25 :  -0.3333-0.0000 0.1429  plane waves:    5438
 k-point  26 :  -0.1667 0.0000 0.1429  plane waves:    5422
 k-point  27 :   0.0000 0.1667 0.1429  plane waves:    5445
 k-point  28 :   0.1667 0.1667 0.1429  plane waves:    5434
 k-point  29 :   0.3333 0.1667 0.1429  plane waves:    5455
 k-point  30 :   0.5000 0.1667 0.1429  plane waves:    5435
 k-point  31 :  -0.3333 0.1667 0.1429  plane waves:    5438
 k-point  32 :  -0.1667 0.1667 0.1429  plane waves:    5438
 k-point  33 :   0.0000 0.3333 0.1429  plane waves:    5453
 k-point  34 :   0.1667 0.3333 0.1429  plane waves:    5446
 k-point  35 :   0.3333 0.3333 0.1429  plane waves:    5454
 k-point  36 :   0.5000 0.3333 0.1429  plane waves:    5446
 k-point  37 :  -0.3333 0.3333 0.1429  plane waves:    5440
 k-point  38 :  -0.1667 0.3333 0.1429  plane waves:    5446
 k-point  39 :  -0.0000 0.5000 0.1429  plane waves:    5455
 k-point  40 :   0.1667 0.5000 0.1429  plane waves:    5439
 k-point  41 :   0.3333 0.5000 0.1429  plane waves:    5440
 k-point  42 :   0.5000 0.5000 0.1429  plane waves:    5440
 k-point  43 :  -0.3333 0.5000 0.1429  plane waves:    5445
 k-point  44 :  -0.1667 0.5000 0.1429  plane waves:    5440
 k-point  45 :  -0.0000-0.3333 0.1429  plane waves:    5442
 k-point  46 :   0.1667-0.3333 0.1429  plane waves:    5438
 k-point  47 :   0.3333-0.3333 0.1429  plane waves:    5440
 k-point  48 :   0.5000-0.3333 0.1429  plane waves:    5448
 k-point  49 :  -0.3333-0.3333 0.1429  plane waves:    5446
 k-point  50 :  -0.1667-0.3333 0.1429  plane waves:    5446
 k-point  51 :   0.0000-0.1667 0.1429  plane waves:    5442
 k-point  52 :   0.1667-0.1667 0.1429  plane waves:    5438
 k-point  53 :   0.3333-0.1667 0.1429  plane waves:    5442
 k-point  54 :   0.5000-0.1667 0.1429  plane waves:    5442
 k-point  55 :  -0.3333-0.1667 0.1429  plane waves:    5437
 k-point  56 :  -0.1667-0.1667 0.1429  plane waves:    5445
 k-point  57 :   0.0000-0.0000 0.2857  plane waves:    5436
 k-point  58 :   0.1667-0.0000 0.2857  plane waves:    5442
 k-point  59 :   0.3333-0.0000 0.2857  plane waves:    5452
 k-point  60 :   0.5000-0.0000 0.2857  plane waves:    5439
 k-point  61 :  -0.3333 0.0000 0.2857  plane waves:    5429
 k-point  62 :  -0.1667-0.0000 0.2857  plane waves:    5443
 k-point  63 :   0.0000 0.1667 0.2857  plane waves:    5443
 k-point  64 :   0.1667 0.1667 0.2857  plane waves:    5453
 k-point  65 :   0.3333 0.1667 0.2857  plane waves:    5464
 k-point  66 :   0.5000 0.1667 0.2857  plane waves:    5446
 k-point  67 :  -0.3333 0.1667 0.2857  plane waves:    5445
 k-point  68 :  -0.1667 0.1667 0.2857  plane waves:    5445
 k-point  69 :   0.0000 0.3333 0.2857  plane waves:    5453
 k-point  70 :   0.1667 0.3333 0.2857  plane waves:    5469
 k-point  71 :   0.3333 0.3333 0.2857  plane waves:    5460
 k-point  72 :   0.5000 0.3333 0.2857  plane waves:    5442
 k-point  73 :  -0.3333 0.3333 0.2857  plane waves:    5443
 k-point  74 :  -0.1667 0.3333 0.2857  plane waves:    5459
 k-point  75 :   0.0000 0.5000 0.2857  plane waves:    5452
 k-point  76 :   0.1667 0.5000 0.2857  plane waves:    5444
 k-point  77 :   0.3333 0.5000 0.2857  plane waves:    5446
 k-point  78 :   0.5000 0.5000 0.2857  plane waves:    5450
 k-point  79 :  -0.3333 0.5000 0.2857  plane waves:    5458
 k-point  80 :  -0.1667 0.5000 0.2857  plane waves:    5458
 k-point  81 :  -0.0000-0.3333 0.2857  plane waves:    5440
 k-point  82 :   0.1667-0.3333 0.2857  plane waves:    5447
 k-point  83 :   0.3333-0.3333 0.2857  plane waves:    5443
 k-point  84 :   0.5000-0.3333 0.2857  plane waves:    5455
 k-point  85 :  -0.3333-0.3333 0.2857  plane waves:    5459
 k-point  86 :  -0.1667-0.3333 0.2857  plane waves:    5449
 k-point  87 :   0.0000-0.1667 0.2857  plane waves:    5442
 k-point  88 :   0.1667-0.1667 0.2857  plane waves:    5445
 k-point  89 :   0.3333-0.1667 0.2857  plane waves:    5441
 k-point  90 :   0.5000-0.1667 0.2857  plane waves:    5449
 k-point  91 :  -0.3333-0.1667 0.2857  plane waves:    5436
 k-point  92 :  -0.1667-0.1667 0.2857  plane waves:    5448
 k-point  93 :   0.0000-0.0000 0.4286  plane waves:    5442
 k-point  94 :   0.1667-0.0000 0.4286  plane waves:    5449
 k-point  95 :   0.3333 0.0000 0.4286  plane waves:    5450
 k-point  96 :   0.5000-0.0000 0.4286  plane waves:    5439
 k-point  97 :  -0.3333-0.0000 0.4286  plane waves:    5433
 k-point  98 :  -0.1667-0.0000 0.4286  plane waves:    5437
 k-point  99 :   0.0000 0.1667 0.4286  plane waves:    5458
 k-point 100 :   0.1667 0.1667 0.4286  plane waves:    5450
 k-point 101 :   0.3333 0.1667 0.4286  plane waves:    5449
 k-point 102 :   0.5000 0.1667 0.4286  plane waves:    5444
 k-point 103 :  -0.3333 0.1667 0.4286  plane waves:    5446
 k-point 104 :  -0.1667 0.1667 0.4286  plane waves:    5442
 k-point 105 :   0.0000 0.3333 0.4286  plane waves:    5449
 k-point 106 :   0.1667 0.3333 0.4286  plane waves:    5448
 k-point 107 :   0.3333 0.3333 0.4286  plane waves:    5445
 k-point 108 :   0.5000 0.3333 0.4286  plane waves:    5455
 k-point 109 :  -0.3333 0.3333 0.4286  plane waves:    5467
 k-point 110 :  -0.1667 0.3333 0.4286  plane waves:    5445
 k-point 111 :  -0.0000 0.5000 0.4286  plane waves:    5443
 k-point 112 :   0.1667 0.5000 0.4286  plane waves:    5438
 k-point 113 :   0.3333 0.5000 0.4286  plane waves:    5457
 k-point 114 :   0.5000 0.5000 0.4286  plane waves:    5478
 k-point 115 :  -0.3333 0.5000 0.4286  plane waves:    5476
 k-point 116 :  -0.1667 0.5000 0.4286  plane waves:    5454
 k-point 117 :  -0.0000-0.3333 0.4286  plane waves:    5440
 k-point 118 :   0.1667-0.3333 0.4286  plane waves:    5451
 k-point 119 :   0.3333-0.3333 0.4286  plane waves:    5467
 k-point 120 :   0.5000-0.3333 0.4286  plane waves:    5467
 k-point 121 :  -0.3333-0.3333 0.4286  plane waves:    5458
 k-point 122 :  -0.1667-0.3333 0.4286  plane waves:    5453
 k-point 123 :   0.0000-0.1667 0.4286  plane waves:    5449
 k-point 124 :   0.1667-0.1667 0.4286  plane waves:    5442
 k-point 125 :   0.3333-0.1667 0.4286  plane waves:    5447
 k-point 126 :   0.5000-0.1667 0.4286  plane waves:    5453
 k-point 127 :  -0.3333-0.1667 0.4286  plane waves:    5441
 k-point 128 :  -0.1667-0.1667 0.4286  plane waves:    5433

 maximum and minimum number of plane-waves per node :      1386     1336

 maximum number of plane-waves:      5478
 maximum index in each direction: 
   IXMAX=   12   IYMAX=   12   IZMAX=   11
   IXMIN=  -12   IYMIN=  -12   IZMIN=  -12


 real space projection operators:
  total allocation   :      10325.56 KBytes
  max/ min on nodes  :       2596.38       2570.73


 parallel 3D FFT for wavefunctions:
    minimum data exchange during FFTs selected (reduces bandwidth)
 parallel 3D FFT for charge:
    minimum data exchange during FFTs selected (reduces bandwidth)


 total amount of memory used by VASP MPI-rank0   281585. kBytes
=======================================================================

   base      :      30000. kBytes
   nonlr-proj:       6255. kBytes
   fftplans  :       3343. kBytes
   grid      :      11801. kBytes
   one-center:        155. kBytes
   wavefun   :     230031. kBytes
 
     INWAV:  cpu time    0.0000: real time    0.0000
 Broyden mixing: mesh for mixing (old mesh)
   NGX = 23   NGY = 23   NGZ = 23
  (NGX  = 96   NGY  = 96   NGZ  = 96)
  gives a total of  12167 points

 initial charge density was supplied:
 charge density of overlapping atoms calculated
 number of electron     173.0000000 magnetization      28.7800000
 keeping initial charge density in first step


--------------------------------------------------------------------------------------------------------


 Maximum index for non-local projection operator         2189
 Maximum index for augmentation-charges         2151 (set IRDMAX)


--------------------------------------------------------------------------------------------------------


 First call to EWALD:  gamma=   0.302
 Maximum number of real-space cells 3x 3x 3
 Maximum number of reciprocal cells 3x 3x 3

    FEWALD:  cpu time    0.0012: real time    0.0012


--------------------------------------- Iteration      1(   1)  ---------------------------------------


    POTLOK:  cpu time    0.2700: real time    0.2701
    SETDIJ:  cpu time    1.4227: real time    1.4227
atom =   2  type =  2  l = 2
 
 onsite density matrix
 
spin component  1
 
  0.6884  0.0000  0.0000  0.0000  0.0000
  0.0000  0.6884  0.0000  0.0000  0.0000
  0.0000  0.0000  0.6884  0.0000  0.0000
  0.0000  0.0000  0.0000  0.6884  0.0000
  0.0000  0.0000  0.0000  0.0000  0.6884
 
spin component  2
 
  0.3644  0.0000  0.0000  0.0000  0.0000
  0.0000  0.3644  0.0000  0.0000  0.0000
  0.0000  0.0000  0.3644  0.0000  0.0000
  0.0000  0.0000  0.0000  0.3644  0.0000
  0.0000  0.0000  0.0000  0.0000  0.3644
 
 occupancies and eigenvectors
 
  o =  0.3644  v =  0.0000  0.0000  0.0000  0.0000  0.0000  1.0000  0.0000  0.0000  0.0000  0.0000      0.0000  0.0000  0.0000  0.0000  0.0000  0.0000  0.0000  0.0000  0.0000  0.0000
  o =  0.3644  v =  0.0000  0.0000  0.0000  0.0000  0.0000  0.0000  1.0000  0.0000  0.0000  0.0000      0.0000  0.0000  0.0000  0.0000  0.0000  0.0000  0.0000  0.0000  0.0000  0.0000
  o =  0.3644  v =  0.0000  0.0000  0.0000  0.0000  0.0000  0.0000  0.0000  1.0000  0.0000  0.0000      0.0000  0.0000  0.0000  0.0000  0.0000  0.0000  0.0000  0.0000  0.0000  0.0000
  o =  0.3644  v =  0.0000  0.0000  0.0000  0.0000  0.0000  0.0000  0.0000  0.0000  0.0000 -1.0000      0.0000  0.0000  0.0000  0.0000  0.0000  0.0000  0.0000  0.0000  0.0000  0.0000
  o =  0.3644  v =  0.0000  0.0000  0.0000  0.0000  0.0000  0.0000  0.0000  0.0000 -1.0000  0.0000      0.0000  0.0000  0.0000  0.0000  0.0000  0.0000  0.0000  0.0000  0.0000  0.0000
  o =  0.6884  v =  0.0000  0.0000  0.0000  0.7071  0.7071  0.0000  0.0000  0.0000  0.0000  0.0000      0.0000  0.0000  0.0000  0.0000  0.0000  0.0000  0.0000  0.0000  0.0000  0.0000
  o =  0.6884  v =  0.0000  1.0000  0.0000  0.0000  0.0000  0.0000  0.0000  0.0000  0.0000  0.0000      0.0000  0.0000  0.0000  0.0000  0.0000  0.0000  0.0000  0.0000  0.0000  0.0000
  o =  0.6884  v =  0.0000  0.0000  1.0000  0.0000  0.0000  0.0000  0.0000  0.0000  0.0000  0.0000      0.0000  0.0000  0.0000  0.0000  0.0000  0.0000  0.0000  0.0000  0.0000  0.0000
  o =  0.6884  v =  0.0000  0.0000  0.0000 -0.7071  0.7071  0.0000  0.0000  0.0000  0.0000  0.0000      0.0000  0.0000  0.0000  0.0000  0.0000  0.0000  0.0000  0.0000  0.0000  0.0000
  o =  0.6884  v =  1.0000  0.0000  0.0000  0.0000  0.0000  0.0000  0.0000  0.0000  0.0000  0.0000      0.0000  0.0000  0.0000  0.0000  0.0000  0.0000  0.0000  0.0000  0.0000  0.0000
atom =   3  type =  2  l = 2
 
 onsite density matrix
 
spin component  1
 
  0.6884  0.0000  0.0000  0.0000  0.0000
  0.0000  0.6884  0.0000  0.0000  0.0000
  0.0000  0.0000  0.6884  0.0000  0.0000
  0.0000  0.0000  0.0000  0.6884  0.0000
  0.0000  0.0000  0.0000  0.0000  0.6884
 
spin component  2
 
  0.3644  0.0000  0.0000  0.0000  0.0000
  0.0000  0.3644  0.0000  0.0000  0.0000
  0.0000  0.0000  0.3644  0.0000  0.0000
  0.0000  0.0000  0.0000  0.3644  0.0000
  0.0000  0.0000  0.0000  0.0000  0.3644
 
 occupancies and eigenvectors
 
  o =  0.3644  v =  0.0000  0.0000  0.0000  0.0000  0.0000  1.0000  0.0000  0.0000  0.0000  0.0000      0.0000  0.0000  0.0000  0.0000  0.0000  0.0000  0.0000  0.0000  0.0000  0.0000
  o =  0.3644  v =  0.0000  0.0000  0.0000  0.0000  0.0000  0.0000  1.0000  0.0000  0.0000  0.0000      0.0000  0.0000  0.0000  0.0000  0.0000  0.0000  0.0000  0.0000  0.0000  0.0000
  o =  0.3644  v =  0.0000  0.0000  0.0000  0.0000  0.0000  0.0000  0.0000  1.0000  0.0000  0.0000      0.0000  0.0000  0.0000  0.0000  0.0000  0.0000  0.0000  0.0000  0.0000  0.0000
  o =  0.3644  v =  0.0000  0.0000  0.0000  0.0000  0.0000  0.0000  0.0000  0.0000  0.0000 -1.0000      0.0000  0.0000  0.0000  0.0000  0.0000  0.0000  0.0000  0.0000  0.0000  0.0000
  o =  0.3644  v =  0.0000  0.0000  0.0000  0.0000  0.0000  0.0000  0.0000  0.0000 -1.0000  0.0000      0.0000  0.0000  0.0000  0.0000  0.0000  0.0000  0.0000  0.0000  0.0000  0.0000
  o =  0.6884  v =  0.0000  0.0000  0.0000  0.7071  0.7071  0.0000  0.0000  0.0000  0.0000  0.0000      0.0000  0.0000  0.0000  0.0000  0.0000  0.0000  0.0000  0.0000  0.0000  0.0000
  o =  0.6884  v =  0.0000  1.0000  0.0000  0.0000  0.0000  0.0000  0.0000  0.0000  0.0000  0.0000      0.0000  0.0000  0.0000  0.0000  0.0000  0.0000  0.0000  0.0000  0.0000  0.0000
  o =  0.6884  v =  0.0000  0.0000  1.0000  0.0000  0.0000  0.0000  0.0000  0.0000  0.0000  0.0000      0.0000  0.0000  0.0000  0.0000  0.0000  0.0000  0.0000  0.0000  0.0000  0.0000
  o =  0.6884  v =  0.0000  0.0000  0.0000 -0.7071  0.7071  0.0000  0.0000  0.0000  0.0000  0.0000      0.0000  0.0000  0.0000  0.0000  0.0000  0.0000  0.0000  0.0000  0.0000  0.0000
  o =  0.6884  v =  1.0000  0.0000  0.0000  0.0000  0.0000  0.0000  0.0000  0.0000  0.0000  0.0000      0.0000  0.0000  0.0000  0.0000  0.0000  0.0000  0.0000  0.0000  0.0000  0.0000
atom =   4  type =  2  l = 2
 
 onsite density matrix
 
spin component  1
 
  0.6884  0.0000  0.0000  0.0000  0.0000
  0.0000  0.6884  0.0000  0.0000  0.0000
  0.0000  0.0000  0.6884  0.0000  0.0000
  0.0000  0.0000  0.0000  0.6884  0.0000
  0.0000  0.0000  0.0000  0.0000  0.6884
 
spin component  2
 
  0.3644  0.0000  0.0000  0.0000  0.0000
  0.0000  0.3644  0.0000  0.0000  0.0000
  0.0000  0.0000  0.3644  0.0000  0.0000
  0.0000  0.0000  0.0000  0.3644  0.0000
  0.0000  0.0000  0.0000  0.0000  0.3644
 
 occupancies and eigenvectors
 
  o =  0.3644  v =  0.0000  0.0000  0.0000  0.0000  0.0000  1.0000  0.0000  0.0000  0.0000  0.0000      0.0000  0.0000  0.0000  0.0000  0.0000  0.0000  0.0000  0.0000  0.0000  0.0000
  o =  0.3644  v =  0.0000  0.0000  0.0000  0.0000  0.0000  0.0000  1.0000  0.0000  0.0000  0.0000      0.0000  0.0000  0.0000  0.0000  0.0000  0.0000  0.0000  0.0000  0.0000  0.0000
  o =  0.3644  v =  0.0000  0.0000  0.0000  0.0000  0.0000  0.0000  0.0000  1.0000  0.0000  0.0000      0.0000  0.0000  0.0000  0.0000  0.0000  0.0000  0.0000  0.0000  0.0000  0.0000
  o =  0.3644  v =  0.0000  0.0000  0.0000  0.0000  0.0000  0.0000  0.0000  0.0000  0.0000 -1.0000      0.0000  0.0000  0.0000  0.0000  0.0000  0.0000  0.0000  0.0000  0.0000  0.0000
  o =  0.3644  v =  0.0000  0.0000  0.0000  0.0000  0.0000  0.0000  0.0000  0.0000 -1.0000  0.0000      0.0000  0.0000  0.0000  0.0000  0.0000  0.0000  0.0000  0.0000  0.0000  0.0000
  o =  0.6884  v =  0.0000  0.0000  0.0000  0.7071  0.7071  0.0000  0.0000  0.0000  0.0000  0.0000      0.0000  0.0000  0.0000  0.0000  0.0000  0.0000  0.0000  0.0000  0.0000  0.0000
  o =  0.6884  v =  0.0000  1.0000  0.0000  0.0000  0.0000  0.0000  0.0000  0.0000  0.0000  0.0000      0.0000  0.0000  0.0000  0.0000  0.0000  0.0000  0.0000  0.0000  0.0000  0.0000
  o =  0.6884  v =  0.0000  0.0000  1.0000  0.0000  0.0000  0.0000  0.0000  0.0000  0.0000  0.0000      0.0000  0.0000  0.0000  0.0000  0.0000  0.0000  0.0000  0.0000  0.0000  0.0000
  o =  0.6884  v =  0.0000  0.0000  0.0000 -0.7071  0.7071  0.0000  0.0000  0.0000  0.0000  0.0000      0.0000  0.0000  0.0000  0.0000  0.0000  0.0000  0.0000  0.0000  0.0000  0.0000
  o =  0.6884  v =  1.0000  0.0000  0.0000  0.0000  0.0000  0.0000  0.0000  0.0000  0.0000  0.0000      0.0000  0.0000  0.0000  0.0000  0.0000  0.0000  0.0000  0.0000  0.0000  0.0000
atom =   5  type =  2  l = 2
 
 onsite density matrix
 
spin component  1
 
  0.6884  0.0000  0.0000  0.0000  0.0000
  0.0000  0.6884  0.0000  0.0000  0.0000
  0.0000  0.0000  0.6884  0.0000  0.0000
  0.0000  0.0000  0.0000  0.6884  0.0000
  0.0000  0.0000  0.0000  0.0000  0.6884
 
spin component  2
 
  0.3644  0.0000  0.0000  0.0000  0.0000
  0.0000  0.3644  0.0000  0.0000  0.0000
  0.0000  0.0000  0.3644  0.0000  0.0000
  0.0000  0.0000  0.0000  0.3644  0.0000
  0.0000  0.0000  0.0000  0.0000  0.3644
 
 occupancies and eigenvectors
 
  o =  0.3644  v =  0.0000  0.0000  0.0000  0.0000  0.0000  1.0000  0.0000  0.0000  0.0000  0.0000      0.0000  0.0000  0.0000  0.0000  0.0000  0.0000  0.0000  0.0000  0.0000  0.0000
  o =  0.3644  v =  0.0000  0.0000  0.0000  0.0000  0.0000  0.0000  1.0000  0.0000  0.0000  0.0000      0.0000  0.0000  0.0000  0.0000  0.0000  0.0000  0.0000  0.0000  0.0000  0.0000
  o =  0.3644  v =  0.0000  0.0000  0.0000  0.0000  0.0000  0.0000  0.0000  1.0000  0.0000  0.0000      0.0000  0.0000  0.0000  0.0000  0.0000  0.0000  0.0000  0.0000  0.0000  0.0000
  o =  0.3644  v =  0.0000  0.0000  0.0000  0.0000  0.0000  0.0000  0.0000  0.0000  0.0000 -1.0000      0.0000  0.0000  0.0000  0.0000  0.0000  0.0000  0.0000  0.0000  0.0000  0.0000
  o =  0.3644  v =  0.0000  0.0000  0.0000  0.0000  0.0000  0.0000  0.0000  0.0000 -1.0000  0.0000      0.0000  0.0000  0.0000  0.0000  0.0000  0.0000  0.0000  0.0000  0.0000  0.0000
  o =  0.6884  v =  0.0000  0.0000  0.0000  0.7071  0.7071  0.0000  0.0000  0.0000  0.0000  0.0000      0.0000  0.0000  0.0000  0.0000  0.0000  0.0000  0.0000  0.0000  0.0000  0.0000
  o =  0.6884  v =  0.0000  1.0000  0.0000  0.0000  0.0000  0.0000  0.0000  0.0000  0.0000  0.0000      0.0000  0.0000  0.0000  0.0000  0.0000  0.0000  0.0000  0.0000  0.0000  0.0000
  o =  0.6884  v =  0.0000  0.0000  1.0000  0.0000  0.0000  0.0000  0.0000  0.0000  0.0000  0.0000      0.0000  0.0000  0.0000  0.0000  0.0000  0.0000  0.0000  0.0000  0.0000  0.0000
  o =  0.6884  v =  0.0000  0.0000  0.0000 -0.7071  0.7071  0.0000  0.0000  0.0000  0.0000  0.0000      0.0000  0.0000  0.0000  0.0000  0.0000  0.0000  0.0000  0.0000  0.0000  0.0000
  o =  0.6884  v =  1.0000  0.0000  0.0000  0.0000  0.0000  0.0000  0.0000  0.0000  0.0000  0.0000      0.0000  0.0000  0.0000  0.0000  0.0000  0.0000  0.0000  0.0000  0.0000  0.0000
atom =   6  type =  2  l = 2
 
 onsite density matrix
 
spin component  1
 
  0.6884  0.0000  0.0000  0.0000  0.0000
  0.0000  0.6884  0.0000  0.0000  0.0000
  0.0000  0.0000  0.6884  0.0000  0.0000
  0.0000  0.0000  0.0000  0.6884  0.0000
  0.0000  0.0000  0.0000  0.0000  0.6884
 
spin component  2
 
  0.3644  0.0000  0.0000  0.0000  0.0000
  0.0000  0.3644  0.0000  0.0000  0.0000
  0.0000  0.0000  0.3644  0.0000  0.0000
  0.0000  0.0000  0.0000  0.3644  0.0000
  0.0000  0.0000  0.0000  0.0000  0.3644
 
 occupancies and eigenvectors
 
  o =  0.3644  v =  0.0000  0.0000  0.0000  0.0000  0.0000  1.0000  0.0000  0.0000  0.0000  0.0000      0.0000  0.0000  0.0000  0.0000  0.0000  0.0000  0.0000  0.0000  0.0000  0.0000
  o =  0.3644  v =  0.0000  0.0000  0.0000  0.0000  0.0000  0.0000  1.0000  0.0000  0.0000  0.0000      0.0000  0.0000  0.0000  0.0000  0.0000  0.0000  0.0000  0.0000  0.0000  0.0000
  o =  0.3644  v =  0.0000  0.0000  0.0000  0.0000  0.0000  0.0000  0.0000  1.0000  0.0000  0.0000      0.0000  0.0000  0.0000  0.0000  0.0000  0.0000  0.0000  0.0000  0.0000  0.0000
  o =  0.3644  v =  0.0000  0.0000  0.0000  0.0000  0.0000  0.0000  0.0000  0.0000  0.0000 -1.0000      0.0000  0.0000  0.0000  0.0000  0.0000  0.0000  0.0000  0.0000  0.0000  0.0000
  o =  0.3644  v =  0.0000  0.0000  0.0000  0.0000  0.0000  0.0000  0.0000  0.0000 -1.0000  0.0000      0.0000  0.0000  0.0000  0.0000  0.0000  0.0000  0.0000  0.0000  0.0000  0.0000
  o =  0.6884  v =  0.0000  0.0000  0.0000  0.7071  0.7071  0.0000  0.0000  0.0000  0.0000  0.0000      0.0000  0.0000  0.0000  0.0000  0.0000  0.0000  0.0000  0.0000  0.0000  0.0000
  o =  0.6884  v =  0.0000  1.0000  0.0000  0.0000  0.0000  0.0000  0.0000  0.0000  0.0000  0.0000      0.0000  0.0000  0.0000  0.0000  0.0000  0.0000  0.0000  0.0000  0.0000  0.0000
  o =  0.6884  v =  0.0000  0.0000  1.0000  0.0000  0.0000  0.0000  0.0000  0.0000  0.0000  0.0000      0.0000  0.0000  0.0000  0.0000  0.0000  0.0000  0.0000  0.0000  0.0000  0.0000
  o =  0.6884  v =  0.0000  0.0000  0.0000 -0.7071  0.7071  0.0000  0.0000  0.0000  0.0000  0.0000      0.0000  0.0000  0.0000  0.0000  0.0000  0.0000  0.0000  0.0000  0.0000  0.0000
  o =  0.6884  v =  1.0000  0.0000  0.0000  0.0000  0.0000  0.0000  0.0000  0.0000  0.0000  0.0000      0.0000  0.0000  0.0000  0.0000  0.0000  0.0000  0.0000  0.0000  0.0000  0.0000
atom =   7  type =  2  l = 2
 
 onsite density matrix
 
spin component  1
 
  0.6884  0.0000  0.0000  0.0000  0.0000
  0.0000  0.6884  0.0000  0.0000  0.0000
  0.0000  0.0000  0.6884  0.0000  0.0000
  0.0000  0.0000  0.0000  0.6884  0.0000
  0.0000  0.0000  0.0000  0.0000  0.6884
 
spin component  2
 
  0.3644  0.0000  0.0000  0.0000  0.0000
  0.0000  0.3644  0.0000  0.0000  0.0000
  0.0000  0.0000  0.3644  0.0000  0.0000
  0.0000  0.0000  0.0000  0.3644  0.0000
  0.0000  0.0000  0.0000  0.0000  0.3644
 
 occupancies and eigenvectors
 
  o =  0.3644  v =  0.0000  0.0000  0.0000  0.0000  0.0000  1.0000  0.0000  0.0000  0.0000  0.0000      0.0000  0.0000  0.0000  0.0000  0.0000  0.0000  0.0000  0.0000  0.0000  0.0000
  o =  0.3644  v =  0.0000  0.0000  0.0000  0.0000  0.0000  0.0000  1.0000  0.0000  0.0000  0.0000      0.0000  0.0000  0.0000  0.0000  0.0000  0.0000  0.0000  0.0000  0.0000  0.0000
  o =  0.3644  v =  0.0000  0.0000  0.0000  0.0000  0.0000  0.0000  0.0000  1.0000  0.0000  0.0000      0.0000  0.0000  0.0000  0.0000  0.0000  0.0000  0.0000  0.0000  0.0000  0.0000
  o =  0.3644  v =  0.0000  0.0000  0.0000  0.0000  0.0000  0.0000  0.0000  0.0000  0.0000 -1.0000      0.0000  0.0000  0.0000  0.0000  0.0000  0.0000  0.0000  0.0000  0.0000  0.0000
[...]
 -0.000  -0.000  -0.000   0.000  -0.000  -0.000  -0.000  -0.000
 -0.000  -0.000   0.000   0.000  -0.000  -0.000  -0.000   0.000
 -0.000  -0.000   0.000  -0.000   0.000  -0.000  -0.000  -0.000
  0.002   0.001   0.000   0.000  -0.000  -0.000  -0.000   0.000
 -0.000  -0.000   0.000   0.000   0.000  -0.000   0.000  -0.000
 -0.000  -0.000  -0.000   0.000  -0.000   0.000  -0.000   0.000
 pseudopotential strength for first ion, spin component:           2
-17.864  -4.867  -0.000   0.000   0.000  -0.000  -0.000   0.000
 -4.867  -1.937   0.000   0.000  -0.000   0.000   0.000  -0.000
 -0.000   0.000 -18.844  -0.000  -0.000   5.802   0.000   0.000
  0.000   0.000  -0.000 -18.850  -0.000   0.000   5.795   0.000
  0.000  -0.000  -0.000  -0.000 -18.844   0.000   0.000   5.802
 -0.000   0.000   5.802   0.000   0.000   9.313   0.000  -0.000
 -0.000   0.000   0.000   5.795   0.000   0.000   9.369   0.000
  0.000  -0.000   0.000   0.000   5.802  -0.000   0.000   9.313
 -0.000  -0.000   0.000   0.000  -0.000  -0.000  -0.000   0.000
 -0.000  -0.000   0.000  -0.000   0.000  -0.000   0.000  -0.000
 -0.006   0.007  -0.000   0.000   0.000  -0.000  -0.000  -0.000
 -0.000   0.000   0.000   0.000   0.000  -0.000  -0.000  -0.000
 -0.000  -0.000  -0.000   0.000  -0.000   0.000  -0.000   0.000
 -0.000  -0.000   0.000   0.000  -0.000  -0.000  -0.000   0.000
 -0.000  -0.000   0.000  -0.000   0.000  -0.000   0.000  -0.000
 -0.005   0.003  -0.000   0.000   0.000  -0.000  -0.000  -0.000
 -0.000  -0.000   0.000   0.000   0.000  -0.000  -0.000  -0.000
 -0.000  -0.000  -0.000   0.000  -0.000   0.000  -0.000   0.000
 total augmentation occupancy for first ion, spin component:           1
  2.003   0.006  -0.000  -0.000  -0.000  -0.000  -0.000   0.000  -0.000  -0.000  -0.002  -0.000  -0.000   0.000   0.000   0.000
  0.006   0.357  -0.000  -0.000   0.000   0.000   0.000  -0.000  -0.000   0.000   0.028   0.000  -0.000   0.000  -0.000  -0.016
 -0.000  -0.000   2.005  -0.000  -0.000  -0.001  -0.000  -0.000  -0.000  -0.000  -0.000   0.000   0.000   0.000   0.000   0.000
 -0.000  -0.000  -0.000   2.006  -0.000  -0.000  -0.004  -0.000   0.000  -0.000  -0.000   0.000   0.000  -0.000   0.000   0.000
 -0.000   0.000  -0.000  -0.000   2.005  -0.000  -0.000  -0.001   0.000   0.000   0.000  -0.000   0.000  -0.000  -0.000  -0.000
 -0.000   0.000  -0.001  -0.000  -0.000   0.022   0.000  -0.000  -0.000   0.000   0.000  -0.000   0.000   0.000  -0.000  -0.000
 -0.000   0.000  -0.000  -0.004  -0.000   0.000   0.025   0.000  -0.000   0.000  -0.000  -0.000  -0.000   0.000  -0.000   0.000
  0.000  -0.000  -0.000  -0.000  -0.001  -0.000   0.000   0.022   0.000  -0.000  -0.000   0.000   0.000  -0.000   0.000   0.000
 -0.000  -0.000  -0.000   0.000   0.000  -0.000  -0.000   0.000   0.209  -0.021   0.000   0.001   0.000  -0.116   0.011  -0.000
 -0.000   0.000  -0.000  -0.000   0.000   0.000   0.000  -0.000  -0.021   0.247   0.000   0.000   0.001   0.011  -0.136  -0.000
 -0.002   0.028  -0.000  -0.000   0.000   0.000  -0.000  -0.000   0.000   0.000   0.238   0.000   0.000  -0.000  -0.000  -0.133
 -0.000   0.000   0.000   0.000  -0.000  -0.000  -0.000   0.000   0.001   0.000   0.000   0.247   0.021  -0.002   0.000  -0.000
 -0.000  -0.000   0.000   0.000   0.000   0.000  -0.000   0.000   0.000   0.001   0.000   0.021   0.209   0.000  -0.002  -0.000
  0.000   0.000   0.000  -0.000  -0.000   0.000   0.000  -0.000  -0.116   0.011  -0.000  -0.002   0.000   0.065  -0.006   0.000
  0.000  -0.000   0.000   0.000  -0.000  -0.000  -0.000   0.000   0.011  -0.136  -0.000   0.000  -0.002  -0.006   0.076   0.000
  0.000  -0.016   0.000   0.000  -0.000  -0.000   0.000   0.000  -0.000  -0.000  -0.133  -0.000  -0.000   0.000   0.000   0.076
  0.000  -0.000  -0.000  -0.000   0.000   0.000   0.000  -0.000  -0.002  -0.000  -0.000  -0.136  -0.011   0.001   0.000   0.000
  0.000  -0.000  -0.000  -0.000  -0.000  -0.000   0.000  -0.000  -0.000  -0.002  -0.000  -0.011  -0.116   0.000   0.001   0.000
 total augmentation occupancy for first ion, spin component:           2
  0.000   0.001  -0.000  -0.000  -0.000  -0.000  -0.000   0.000   0.000   0.000   0.000   0.000   0.000  -0.000  -0.000  -0.000
  0.001   0.014  -0.000  -0.000  -0.000   0.000   0.000  -0.000   0.000  -0.000   0.001   0.000  -0.000   0.000   0.000  -0.000
 -0.000  -0.000   0.000   0.000   0.000  -0.000   0.000   0.000  -0.000   0.000   0.000   0.000   0.000   0.000  -0.000  -0.000
 -0.000  -0.000   0.000  -0.000  -0.000   0.000  -0.000   0.000  -0.000   0.000   0.000  -0.000  -0.000   0.000  -0.000  -0.000
 -0.000  -0.000   0.000  -0.000   0.000   0.000   0.000  -0.000   0.000  -0.000  -0.000   0.000   0.000  -0.000   0.000   0.000
 -0.000   0.000  -0.000   0.000   0.000   0.000  -0.000   0.000   0.000   0.000   0.000  -0.000  -0.000  -0.000  -0.000  -0.000
 -0.000   0.000   0.000  -0.000   0.000  -0.000   0.001   0.000   0.000   0.000   0.000  -0.000  -0.000  -0.000  -0.000  -0.000
  0.000  -0.000   0.000   0.000  -0.000   0.000   0.000   0.000  -0.000   0.000   0.000   0.000  -0.000   0.000  -0.000  -0.000
  0.000   0.000  -0.000  -0.000   0.000   0.000   0.000  -0.000   0.002   0.000   0.000  -0.006  -0.000  -0.000  -0.000  -0.000
  0.000  -0.000   0.000   0.000  -0.000   0.000   0.000   0.000   0.000   0.007   0.000   0.000  -0.006  -0.000  -0.002  -0.000
  0.000   0.001   0.000   0.000  -0.000   0.000   0.000   0.000   0.000   0.000  -0.003   0.000   0.000  -0.000  -0.000   0.002
  0.000   0.000   0.000  -0.000   0.000  -0.000  -0.000   0.000  -0.006   0.000   0.000   0.007  -0.000   0.002  -0.000  -0.000
  0.000  -0.000   0.000  -0.000   0.000  -0.000  -0.000  -0.000  -0.000  -0.006   0.000  -0.000   0.002  -0.000   0.002  -0.000
 -0.000   0.000   0.000   0.000  -0.000  -0.000  -0.000   0.000  -0.000  -0.000  -0.000   0.002  -0.000   0.000   0.000   0.000
 -0.000   0.000  -0.000  -0.000   0.000  -0.000  -0.000  -0.000  -0.000  -0.002  -0.000  -0.000   0.002   0.000   0.001   0.000
 -0.000  -0.000  -0.000  -0.000   0.000  -0.000  -0.000  -0.000  -0.000  -0.000   0.002  -0.000  -0.000   0.000   0.000  -0.001
 -0.000   0.000  -0.000   0.000  -0.000   0.000   0.000  -0.000   0.002   0.000  -0.000  -0.002   0.000  -0.001  -0.000   0.000
 -0.000   0.000  -0.000   0.000  -0.000   0.000   0.000   0.000   0.000   0.002  -0.000   0.000  -0.000  -0.000  -0.001   0.000


------------------------ aborting loop because EDIFF is reached ----------------------------------------


 


 total charge     
 
# of ion       s       p       d       tot
------------------------------------------
    1        2.014   5.857   0.202   8.073
    2        0.321   6.314   4.782  11.417
    3        0.321   6.314   4.782  11.417
    4        0.321   6.314   4.782  11.417
    5        0.315   6.346   4.806  11.467
    6        0.315   6.346   4.806  11.467
    7        0.315   6.346   4.806  11.467
    8        0.371   6.444   4.773  11.589
    9        1.572   3.521   0.000   5.093
   10        1.572   3.521   0.000   5.093
   11        1.572   3.521   0.000   5.093
   12        1.572   3.521   0.000   5.092
   13        1.572   3.521   0.000   5.092
   14        1.572   3.521   0.000   5.093
   15        1.573   3.513   0.000   5.087
   16        1.573   3.513   0.000   5.087
   17        1.573   3.513   0.000   5.087
   18        1.574   3.514   0.000   5.087
   19        1.574   3.514   0.000   5.087
   20        1.574   3.514   0.000   5.087
--------------------------------------------------
tot         23.168  92.485  33.740 149.393
 


 magnetization (x)
 
# of ion       s       p       d       tot
------------------------------------------
    1        0.002   0.001   0.006   0.009
    2        0.052   0.034   3.843   3.928
    3        0.052   0.034   3.843   3.928
    4        0.052   0.034   3.843   3.928
    5        0.017   0.030   3.747   3.794
    6        0.017   0.030   3.747   3.794
    7        0.017   0.030   3.747   3.794
    8        0.020   0.038   3.187   3.245
    9        0.005  -0.024   0.000  -0.018
   10        0.005  -0.024   0.000  -0.018
   11        0.005  -0.024   0.000  -0.018
   12        0.005  -0.024   0.000  -0.018
   13        0.005  -0.024   0.000  -0.018
   14        0.005  -0.024   0.000  -0.018
   15        0.006  -0.025   0.000  -0.019
   16        0.006  -0.025   0.000  -0.019
   17        0.006  -0.025   0.000  -0.019
   18        0.006  -0.025   0.000  -0.019
   19        0.006  -0.025   0.000  -0.019
   20        0.006  -0.025   0.000  -0.019
--------------------------------------------------
tot          0.296  -0.063  25.963  26.196
 
    CHARGE:  cpu time    2.8369: real time    2.8370
    FORLOC:  cpu time    0.0097: real time    0.0097
    FORNL :  cpu time   44.0821: real time   44.0863
    STRESS:  cpu time  638.4661: real time  638.7734
    FORCOR:  cpu time    0.2402: real time    0.2402
    FORHAR:  cpu time    0.0239: real time    0.0239
    MIXING:  cpu time    0.0063: real time    0.0063
    OFIELD:  cpu time    0.0000: real time    0.0000

  FORCE on cell =-STRESS in cart. coord.  units (eV):
  Direction    XX          YY          ZZ          XY          YZ          ZX
  --------------------------------------------------------------------------------------
  Alpha Z   901.67458   901.67458   901.67458
  Ewald   -5043.57240 -5043.55870 -4745.90495    -0.09994    -0.02077    -0.03084
  Hartree  1634.31639  1634.31931  1766.54305    -0.05968    -0.01631    -0.01646
  E(xc)   -1031.48475 -1031.48428 -1031.68012    -0.00092    -0.00048    -0.00059
  Local     551.48407   551.46961   144.37580     0.15670     0.03927     0.04798
  n-local  -538.95395  -538.95399  -531.12536    -0.00243    -0.00033    -0.00027
  augment   859.18268   859.18415   845.92272     0.00771    -0.00061     0.00007
  Kinetic  2667.32920  2667.31886  2650.30089    -0.00423    -0.00183    -0.00118
  Fock        0.00000     0.00000     0.00000     0.00000     0.00000     0.00000
  -------------------------------------------------------------------------------------
  Total      -0.02418    -0.03047     0.10660    -0.00279    -0.00106    -0.00128
  in kB      -0.19151    -0.24135     0.84444    -0.02208    -0.00842    -0.01016
  external pressure =        0.14 kB  Pullay stress =        0.00 kB


 VOLUME and BASIS-vectors are now :
 -----------------------------------------------------------------------------
  energy-cutoff  :      520.00
  volume of cell :      202.26
      direct lattice vectors                 reciprocal lattice vectors
     0.000013978 -0.000008631  6.359362947     0.095264163  0.055009292  0.157248321
     5.248324645 -3.029425130 -2.119772866     0.190543249  0.000011130 -0.000000419
    -0.000358635  6.060220171 -2.119795333     0.095250224  0.165016148  0.000000015

  length of vectors
     6.359362947  6.419950561  6.420264862     0.191907054  0.190543249  0.190533289


 FORCES acting on ions
    electron-ion (+dipol)            ewald-force                    non-local-force                 convergence-correction
 -----------------------------------------------------------------------------------------------
   -.927E-03 0.918E-02 -.257E+00   0.924E-03 -.901E-02 0.276E+00   0.114E-03 -.251E-03 -.132E-01   -.255E-05 0.106E-05 0.989E-05
   0.186E+00 -.153E+00 0.446E-01   -.204E+00 0.147E+00 -.411E-01   0.153E-01 0.132E-01 -.311E-04   -.942E-04 -.105E-04 0.886E-04
   -.232E+00 -.902E-01 0.133E-01   0.237E+00 0.109E+00 -.979E-02   0.316E-02 -.197E-01 0.278E-04   0.436E-04 0.983E-04 0.877E-04
   0.433E-01 0.223E+00 0.291E-01   -.304E-01 -.235E+00 -.264E-01   -.173E-01 0.675E-02 0.638E-03   0.575E-04 -.864E-04 0.916E-04
   -.114E+00 0.159E+00 -.160E+00   0.120E+00 -.160E+00 0.164E+00   -.333E-02 -.108E-03 -.494E-03   0.895E-05 -.133E-04 0.797E-05
   0.172E+00 0.281E-01 -.141E+00   -.176E+00 -.332E-01 0.144E+00   0.243E-02 0.265E-02 0.110E-04   -.539E-05 0.565E-05 0.124E-04
   -.736E-01 -.179E+00 -.146E+00   0.717E-01 0.186E+00 0.151E+00   0.924E-03 -.364E-02 -.719E-03   0.209E-05 0.112E-04 0.762E-05
   0.275E-01 0.952E-02 0.634E+00   -.274E-01 -.104E-01 -.666E+00   0.246E-03 0.815E-03 0.522E-01   -.111E-04 0.777E-06 -.450E-04
   -.597E+02 0.600E+01 -.183E+02   0.649E+02 -.269E+01 0.194E+02   -.526E+01 -.331E+01 -.108E+01   0.290E-03 -.241E-04 0.191E-03
   0.350E+02 0.487E+02 -.183E+02   -.348E+02 -.549E+02 0.194E+02   -.230E+00 0.621E+01 -.108E+01   -.165E-03 -.243E-03 0.194E-03
   0.246E+02 -.547E+02 -.184E+02   -.301E+02 0.576E+02 0.194E+02   0.549E+01 -.291E+01 -.108E+01   -.117E-03 0.255E-03 0.210E-03
   0.596E+02 -.602E+01 0.184E+02   -.649E+02 0.272E+01 -.195E+02   0.526E+01 0.330E+01 0.109E+01   -.293E-03 0.119E-04 -.188E-03
   -.350E+02 -.486E+02 0.184E+02   0.348E+02 0.549E+02 -.195E+02   0.226E+00 -.621E+01 0.109E+01   0.157E-03 0.252E-03 -.190E-03
   -.246E+02 0.546E+02 0.184E+02   0.301E+02 -.576E+02 -.195E+02   -.548E+01 0.291E+01 0.109E+01   0.128E-03 -.252E-03 -.205E-03
   0.136E+02 -.334E+02 0.589E+02   -.134E+02 0.388E+02 -.616E+02   -.174E+00 -.541E+01 0.269E+01   -.111E-03 -.133E-03 -.212E-03
   -.358E+02 0.487E+01 0.588E+02   0.404E+02 -.772E+01 -.615E+02   -.460E+01 0.285E+01 0.269E+01   -.481E-04 0.152E-03 -.218E-03
   0.221E+02 0.285E+02 0.589E+02   -.269E+02 -.311E+02 -.616E+02   0.477E+01 0.255E+01 0.269E+01   0.160E-03 -.366E-04 -.211E-03
   -.131E+02 0.335E+02 -.589E+02   0.129E+02 -.389E+02 0.616E+02   0.234E+00 0.542E+01 -.270E+01   0.103E-03 0.120E-03 0.209E-03
   0.356E+02 -.536E+01 -.589E+02   -.401E+02 0.827E+01 0.616E+02   0.457E+01 -.291E+01 -.270E+01   0.406E-04 -.136E-03 0.212E-03
   -.224E+02 -.281E+02 -.589E+02   0.272E+02 0.306E+02 0.616E+02   -.480E+01 -.250E+01 -.269E+01   -.146E-03 0.341E-04 0.206E-03
 -----------------------------------------------------------------------------------------------
   0.111E-02 0.620E-03 0.172E-02   0.355E-13 -.533E-13 0.497E-13   0.666E-03 0.253E-04 0.565E-01   -.115E-05 0.574E-05 0.258E-03
 
 
 POSITION                                       TOTAL-FORCE (eV/Angst)
 -----------------------------------------------------------------------------------
      5.24795      3.03080     -4.23939         0.000020     -0.000121      0.002885
      2.62432     -1.51474      2.11949        -0.002572      0.007420      0.000360
      2.62391      1.51525      4.23926         0.007536     -0.001181      0.000469
      5.24811      0.00080     -0.00027        -0.004480     -0.005327      0.000206
      2.62436     -1.51474      5.29919         0.002848     -0.001332      0.000945
      2.62386      1.51525      1.05961        -0.002221     -0.002248      0.000981
      5.24808      0.00086      3.17942        -0.000815      0.002868      0.000763
      0.00002      0.00002      3.18130         0.000192     -0.000091      0.012164
      3.55481     -1.00445      3.72641         0.013817      0.003748      0.009714
      2.60048      0.45426     -0.51320        -0.003425     -0.013410      0.010527
      4.34099      0.55162      1.60658        -0.010199      0.009401      0.010678
      1.69326      4.03529     -1.60685        -0.013742     -0.004538     -0.018002
      2.64746      2.57640      2.63279         0.002528      0.014103     -0.019215
      0.90692      2.47923      0.51297         0.010577     -0.008972     -0.018655
      1.56342      0.09129      2.07373         0.000974      0.003773     -0.006968
      4.54521      1.63118     -2.16585         0.003424     -0.002525     -0.006790
      4.38774     -1.72098     -0.04609        -0.004521     -0.002589     -0.006083
      3.68433      2.93947      0.04631        -0.001345     -0.007211      0.008814
      0.70285      1.39983      4.28590        -0.006251      0.004789      0.008638
      0.86042      4.75159      2.16603         0.007655      0.003444      0.008569
 -----------------------------------------------------------------------------------
    total drift:                                0.001776      0.000651      0.058438


--------------------------------------------------------------------------------------------------------



  FREE ENERGIE OF THE ION-ELECTRON SYSTEM (eV)
  ---------------------------------------------------
  free  energy   TOTEN  =      -249.57392770 eV

  energy  without entropy=     -249.57392180  energy(sigma->0) =     -249.57392475
 


--------------------------------------------------------------------------------------------------------


    POTLOK:  cpu time    1.9308: real time    1.9308


--------------------------------------------------------------------------------------------------------




--------------------------------------------------------------------------------------------------------


  
 reached required accuracy - stopping structural energy minimisation
     LOOP+:  cpu time 6707.0096: real time 6709.8604
    4ORBIT:  cpu time    0.0000: real time    0.0000
 


 total charge     
 
# of ion       s       p       d       tot
------------------------------------------
    1        2.014   5.857   0.202   8.073
    2        0.321   6.314   4.782  11.417
    3        0.321   6.314   4.782  11.417
    4        0.321   6.314   4.782  11.417
    5        0.315   6.346   4.806  11.467
    6        0.315   6.346   4.806  11.467
    7        0.315   6.346   4.806  11.467
    8        0.371   6.444   4.773  11.589
    9        1.572   3.521   0.000   5.093
   10        1.572   3.521   0.000   5.093
   11        1.572   3.521   0.000   5.093
   12        1.572   3.521   0.000   5.092
   13        1.572   3.521   0.000   5.092
   14        1.572   3.521   0.000   5.093
   15        1.573   3.513   0.000   5.087
   16        1.573   3.513   0.000   5.087
   17        1.573   3.513   0.000   5.087
   18        1.574   3.514   0.000   5.087
   19        1.574   3.514   0.000   5.087
   20        1.574   3.514   0.000   5.087
--------------------------------------------------
tot         23.168  92.485  33.740 149.393
 


 magnetization (x)
 
# of ion       s       p       d       tot
------------------------------------------
    1        0.002   0.001   0.006   0.009
    2        0.052   0.034   3.843   3.928
    3        0.052   0.034   3.843   3.928
    4        0.052   0.034   3.843   3.928
    5        0.017   0.030   3.747   3.794
    6        0.017   0.030   3.747   3.794
    7        0.017   0.030   3.747   3.794
    8        0.020   0.038   3.187   3.245
    9        0.005  -0.024   0.000  -0.018
   10        0.005  -0.024   0.000  -0.018
   11        0.005  -0.024   0.000  -0.018
   12        0.005  -0.024   0.000  -0.018
   13        0.005  -0.024   0.000  -0.018
   14        0.005  -0.024   0.000  -0.018
   15        0.006  -0.025   0.000  -0.019
   16        0.006  -0.025   0.000  -0.019
   17        0.006  -0.025   0.000  -0.019
   18        0.006  -0.025   0.000  -0.019
   19        0.006  -0.025   0.000  -0.019
   20        0.006  -0.025   0.000  -0.019
--------------------------------------------------
tot          0.296  -0.063  25.963  26.196
 

 total amount of memory used by VASP MPI-rank0   281585. kBytes
=======================================================================

   base      :      30000. kBytes
   nonlr-proj:       6255. kBytes
   fftplans  :       3343. kBytes
   grid      :      11801. kBytes
   one-center:        155. kBytes
   wavefun   :     230031. kBytes
 
  
  
 General timing and accounting informations for this job:
 ========================================================
  
                  Total CPU time used (sec):     6741.076
                            User time (sec):     6733.797
                          System time (sec):        7.279
                         Elapsed time (sec):     6744.180
  
                   Maximum memory used (kb):      515728.
                   Average memory used (kb):           0.
  
                          Minor page faults:        91204
                          Major page faults:            0
                 Voluntary context switches:           68
