       N       E                     dE             d eps       ncg     rms          rms(c)
DAV:   1     0.249102262234E+04    0.24910E+04   -0.12046E+05 23616   0.149E+03
DAV:   2    -0.953149365913E+02   -0.25863E+04   -0.24464E+04 24224   0.418E+02
DAV:   3    -0.425905244805E+03   -0.33059E+03   -0.32218E+03 27272   0.158E+02
DAV:   4    -0.440117887130E+03   -0.14213E+02   -0.14049E+02 30672   0.344E+01
DAV:   5    -0.441231576223E+03   -0.11137E+01   -0.11118E+01 42656   0.703E+00    0.588E+00
DAV:   6    -0.365411649518E+03    0.75820E+02   -0.17342E+01 26040   0.128E+01    0.357E+00
DAV:   7    -0.362136869047E+03    0.32748E+01   -0.26899E+00 27240   0.669E+00    0.291E+00
DAV:   8    -0.362164197671E+03   -0.27329E-01   -0.16654E-01 36648   0.141E+00    0.254E+00
DAV:   9    -0.362120653526E+03    0.43544E-01   -0.67693E-02 28672   0.773E-01    0.175E+00
DAV:  10    -0.362093954300E+03    0.26699E-01   -0.56745E-02 29080   0.677E-01    0.873E-01
DAV:  11    -0.362088029626E+03    0.59247E-02   -0.10454E-02 31168   0.293E-01    0.409E-01
DAV:  12    -0.362086094430E+03    0.19352E-02   -0.28192E-03 29072   0.158E-01    0.259E-01
DAV:  13    -0.362085716854E+03    0.37758E-03   -0.43716E-04 34760   0.660E-02    0.188E-01
DAV:  14    -0.362085277382E+03    0.43947E-03   -0.52595E-04 27808   0.616E-02    0.124E-01
DAV:  15    -0.362085145807E+03    0.13157E-03   -0.18810E-04 31736   0.321E-02    0.809E-02
DAV:  16    -0.362085135775E+03    0.10033E-04   -0.10486E-04 19816   0.162E-02    0.535E-02
DAV:  17    -0.362085110976E+03    0.24799E-04   -0.10936E-04 21832   0.165E-02    0.405E-02
DAV:  18    -0.362085110966E+03    0.10128E-07   -0.58599E-06 15672   0.887E-03
   1 F= -.36208511E+03 E0= -.36208511E+03  d E =-.362085E+03  mag=     8.0000
