 vasp.6.1.2 22Jul20 (build Mar 19 2021 09:51:12) complex                        
  
 executed on             LinuxIFC date 2021.07.24  07:53:26
 running on   12 total cores
 distrk:  each k-point on   12 cores,    1 groups
 distr:  one band on NCORE=   4 cores,    3 groups


--------------------------------------------------------------------------------------------------------


 INCAR:
 POTCAR:    PAW_PBE Ca_sv 06Sep2000               
 POTCAR:    PAW_PBE Ti_pv 07Sep2000               
 POTCAR:    PAW_PBE O 08Apr2002                   
 POTCAR:    PAW_PBE Ca_sv 06Sep2000               
   VRHFIN =Ca: 3s3p4s                                                                               
   LEXCH  = PE                                                                                      
   EATOM  =  1006.0909 eV,   73.9456 Ry                                                             
                                                                                                    
   TITEL  = PAW_PBE Ca_sv 06Sep2000                                                                 
   LULTRA =        F    use ultrasoft PP ?                                                          
   IUNSCR =        1    unscreen: 0-lin 1-nonlin 2-no                                               
   RPACOR =    2.000    partial core radius                                                         
   POMASS =   40.078; ZVAL   =   10.000    mass and valenz                                          
   RCORE  =    2.300    outmost cutoff radius                                                       
   RWIGS  =    2.500; RWIGS  =    1.323    wigner-seitz radius (au A)                               
   ENMAX  =  266.622; ENMIN  =  199.967 eV                                                          
   RCLOC  =    1.808    cutoff for local pot                                                        
   LCOR   =        T    correct aug charges                                                         
   LPAW   =        T    paw PP                                                                      
   EAUG   =  420.852                                                                                
   RMAX   =    2.359    core radius for proj-oper                                                   
   RAUG   =    1.300    factor for augmentation sphere                                              
   RDEP   =    2.392    radius for radial grids                                                     
   RDEPT  =    1.987    core radius for aug-charge                                                  
                                                                                                    
   Atomic configuration                                                                             
    7 entries                                                                                       
     n  l   j            E        occ.                                                              
     1  0  0.50     -3949.1705   2.0000                                                             
     2  0  0.50      -414.3434   2.0000                                                             
     2  1  1.50      -334.7047   6.0000                                                             
     3  0  0.50       -47.0896   2.0000                                                             
     4  0  0.50        -3.7663   2.0000                                                             
     3  1  1.50       -28.0061   6.0000                                                             
     3  2  1.50        -4.0817   0.0000                                                             
   Description                                                                                      
     l       E           TYP  RCUT    TYP  RCUT                                                     
     0    -47.0896403     23  2.300                                                                 
     0     -3.7663320     23  2.300                                                                 
     1    -28.0060855     23  2.300                                                                 
     1      6.8029130     23  2.300                                                                 
     2     -4.0817478     23  2.300                                                                 
     2      0.4464412     23  2.300                                                                 
  local pseudopotential read in
  partial core-charges read in
  partial kinetic energy density read in
  atomic valenz-charges read in
  non local Contribution for L=           0  read in
    real space projection operators read in
  non local Contribution for L=           0  read in
    real space projection operators read in
  non local Contribution for L=           1  read in
    real space projection operators read in
  non local Contribution for L=           1  read in
    real space projection operators read in
  non local Contribution for L=           2  read in
    real space projection operators read in
  non local Contribution for L=           2  read in
    real space projection operators read in
    PAW grid and wavefunctions read in
 
   number of l-projection  operators is LMAX  =           6
   number of lm-projection operators is LMMAX =          18
 
 POTCAR:    PAW_PBE Ti_pv 07Sep2000               
   VRHFIN =Ti: d3 s1                                                                                
   LEXCH  = PE                                                                                      
   EATOM  =  1042.5995 eV,   76.6289 Ry                                                             
                                                                                                    
   TITEL  = PAW_PBE Ti_pv 07Sep2000                                                                 
   LULTRA =        F    use ultrasoft PP ?                                                          
   IUNSCR =        1    unscreen: 0-lin 1-nonlin 2-no                                               
   RPACOR =    2.200    partial core radius                                                         
   POMASS =   47.880; ZVAL   =   10.000    mass and valenz                                          
   RCORE  =    2.500    outmost cutoff radius                                                       
   RWIGS  =    2.500; RWIGS  =    1.323    wigner-seitz radius (au A)                               
   ENMAX  =  222.335; ENMIN  =  166.751 eV                                                          
   RCLOC  =    1.701    cutoff for local pot                                                        
   LCOR   =        T    correct aug charges                                                         
   LPAW   =        T    paw PP                                                                      
   EAUG   =  482.848                                                                                
   DEXC   =    0.000                                                                                
   RMAX   =    2.564    core radius for proj-oper                                                   
   RAUG   =    1.300    factor for augmentation sphere                                              
   RDEP   =    2.538    radius for radial grids                                                     
   RDEPT  =    1.952    core radius for aug-charge                                                  
                                                                                                    
   Atomic configuration                                                                             
    8 entries                                                                                       
     n  l   j            E        occ.                                                              
     1  0  0.50     -4865.3608   2.0000                                                             
     2  0  0.50      -533.1368   2.0000                                                             
     2  1  1.50      -440.5031   6.0000                                                             
     3  0  0.50       -59.3186   2.0000                                                             
     3  1  1.50       -35.7012   6.0000                                                             
     3  2  2.50        -1.9157   3.0000                                                             
     4  0  0.50        -3.7291   1.0000                                                             
     4  3  2.50        -1.3606   0.0000                                                             
   Description                                                                                      
     l       E           TYP  RCUT    TYP  RCUT                                                     
     1    -35.7012140     23  2.300                                                                 
     1     -1.3605826     23  2.300                                                                 
     2     -1.9156996     23  2.500                                                                 
     2     -0.4063033     23  2.500                                                                 
     0     -3.7290856     23  2.500                                                                 
     0     20.4087390     23  2.500                                                                 
  local pseudopotential read in
  partial core-charges read in
  partial kinetic energy density read in
  atomic valenz-charges read in
  non local Contribution for L=           1  read in
    real space projection operators read in
  non local Contribution for L=           1  read in
    real space projection operators read in
  non local Contribution for L=           2  read in
    real space projection operators read in
  non local Contribution for L=           2  read in
    real space projection operators read in
  non local Contribution for L=           0  read in
    real space projection operators read in
  non local Contribution for L=           0  read in
    real space projection operators read in
    PAW grid and wavefunctions read in
 
   number of l-projection  operators is LMAX  =           6
   number of lm-projection operators is LMMAX =          18
 
 POTCAR:    PAW_PBE O 08Apr2002                   
   VRHFIN =O: s2p4                                                                                  
   LEXCH  = PE                                                                                      
   EATOM  =   432.3788 eV,   31.7789 Ry                                                             
                                                                                                    
   TITEL  = PAW_PBE O 08Apr2002                                                                     
   LULTRA =        F    use ultrasoft PP ?                                                          
   IUNSCR =        1    unscreen: 0-lin 1-nonlin 2-no                                               
   RPACOR =    1.200    partial core radius                                                         
   POMASS =   16.000; ZVAL   =    6.000    mass and valenz                                          
   RCORE  =    1.520    outmost cutoff radius                                                       
   RWIGS  =    1.550; RWIGS  =    0.820    wigner-seitz radius (au A)                               
   ENMAX  =  400.000; ENMIN  =  300.000 eV                                                          
   ICORE  =        2    local potential                                                             
   LCOR   =        T    correct aug charges                                                         
   LPAW   =        T    paw PP                                                                      
   EAUG   =  605.392                                                                                
   DEXC   =    0.000                                                                                
   RMAX   =    1.553    core radius for proj-oper                                                   
   RAUG   =    1.300    factor for augmentation sphere                                              
   RDEP   =    1.550    radius for radial grids                                                     
   RDEPT  =    1.329    core radius for aug-charge                                                  
                                                                                                    
   Atomic configuration                                                                             
    4 entries                                                                                       
     n  l   j            E        occ.                                                              
     1  0  0.50      -514.6923   2.0000                                                             
     2  0  0.50       -23.9615   2.0000                                                             
     2  1  0.50        -9.0305   4.0000                                                             
     3  2  1.50        -9.5241   0.0000                                                             
   Description                                                                                      
     l       E           TYP  RCUT    TYP  RCUT                                                     
     0    -23.9615318     23  1.200                                                                 
     0     -9.5240782     23  1.200                                                                 
     1     -9.0304911     23  1.520                                                                 
     1      8.1634956     23  1.520                                                                 
     2     -9.5240782      7  1.500                                                                 
  local pseudopotential read in
  partial core-charges read in
  partial kinetic energy density read in
  kinetic energy density of atom read in
  atomic valenz-charges read in
  non local Contribution for L=           0  read in
    real space projection operators read in
  non local Contribution for L=           0  read in
    real space projection operators read in
  non local Contribution for L=           1  read in
    real space projection operators read in
  non local Contribution for L=           1  read in
    real space projection operators read in
    PAW grid and wavefunctions read in
 
   number of l-projection  operators is LMAX  =           4
   number of lm-projection operators is LMMAX =           8
 
 Optimization of the real space projectors (new method)

 maximal supplied QI-value         = 16.25
 optimisation between [QCUT,QGAM] = [ 11.54, 23.24] = [ 37.28,151.24] Ry 
 Optimized for a Real-space Cutoff    1.58 Angstroem

   l    n(q)    QCUT    max X(q) W(low)/X(q) W(high)/X(q)  e(spline) 
   0     11    11.539    11.817    0.25E-04    0.22E-05    0.26E-07
   0     11    11.539     8.461    0.39E-04    0.49E-05    0.55E-07
   1     11    11.539     3.957    0.21E-05    0.44E-05    0.32E-07
   1     11    11.539     4.314    0.56E-04    0.44E-04    0.19E-06
   2     10    11.539    14.565    0.25E-03    0.21E-04    0.75E-06
   2     10    11.539    14.552    0.23E-03    0.22E-04    0.72E-06
 Optimization of the real space projectors (new method)

 maximal supplied QI-value         = 15.12
 optimisation between [QCUT,QGAM] = [ 11.64, 23.28] = [ 37.95,151.78] Ry 
 Optimized for a Real-space Cutoff    1.49 Angstroem

   l    n(q)    QCUT    max X(q) W(low)/X(q) W(high)/X(q)  e(spline) 
   1     10    11.641     4.216    0.17E-04    0.40E-04    0.50E-07
   1     10    11.641     5.422    0.66E-04    0.10E-03    0.13E-06
   2      9    11.641    72.084    0.68E-04    0.13E-03    0.50E-06
   2      9    11.641    65.965    0.66E-04    0.13E-03    0.50E-06
   0     10    11.641    41.531    0.10E-03    0.87E-04    0.31E-06
   0     10    11.641    16.290    0.75E-04    0.66E-04    0.24E-06
 Optimization of the real space projectors (new method)

 maximal supplied QI-value         = 24.76
 optimisation between [QCUT,QGAM] = [ 11.64, 23.27] = [ 37.91,151.63] Ry 
 Optimized for a Real-space Cutoff    1.14 Angstroem

   l    n(q)    QCUT    max X(q) W(low)/X(q) W(high)/X(q)  e(spline) 
   0      8    11.635    20.381    0.10E-03    0.33E-03    0.24E-06
   0      8    11.635    15.268    0.11E-03    0.35E-03    0.26E-06
   1      7    11.635     5.964    0.24E-03    0.31E-03    0.30E-06
   1      7    11.635     5.382    0.22E-03    0.25E-03    0.26E-06
  PAW_PBE Ca_sv 06Sep2000               :
 energy of atom  1       EATOM=-1006.0909
 kinetic energy error for atom=    0.0022 (will be added to EATOM!!)
  PAW_PBE Ti_pv 07Sep2000               :
 energy of atom  2       EATOM=-1042.5995
 kinetic energy error for atom=    0.0019 (will be added to EATOM!!)
  PAW_PBE O 08Apr2002                   :
 energy of atom  3       EATOM= -432.3788
 kinetic energy error for atom=    0.0208 (will be added to EATOM!!)
 
 
 POSCAR: Ca4 Ti4 O12
  positions in direct lattice
  velocities in cartesian coordinates

 METAGGA = SCAN     LMAXTAU =  6    LMIXTAU =  F

 exchange correlation table for  LEXCH =        8
   RHO(1)=    0.500       N(1)  =     2000
   RHO(2)=  100.500       N(2)  =     4000
 


--------------------------------------------------------------------------------------------------------


 ion  position               nearest neighbor table
   1  0.459  0.250  0.493-   9 2.34  13 2.37  19 2.37  10 2.44   8 3.16   6 3.16
   2  0.959  0.250  0.007-  10 2.34  14 2.37  20 2.37   9 2.44   5 3.16   7 3.16
   3  0.541  0.750  0.507-  11 2.34  17 2.37  15 2.37  12 2.44   6 3.16   8 3.16
   4  0.041  0.750  0.993-  12 2.34  18 2.37  16 2.37  11 2.44   7 3.16   5 3.16
   5  0.500  1.000  0.000-  11 1.96   9 1.96  19 1.97  15 1.97  18 1.98  14 1.98   2 3.16   4 3.16

   6  0.000  0.500  0.500-  12 1.96  10 1.96  20 1.97  16 1.97  17 1.98  13 1.98   1 3.16   3 3.16

   7  0.500  0.500  0.000-  11 1.96   9 1.96  13 1.97  17 1.97  16 1.98  20 1.98   2 3.16   4 3.16

   8  0.000  1.000  0.500-  12 1.96  10 1.96  14 1.97  18 1.97  15 1.98  19 1.98   1 3.16   3 3.16

   9  0.520  0.250  0.923-   7 1.96   5 1.96   1 2.34   2 2.44
  10  0.020  0.250  0.577-   8 1.96   6 1.96   2 2.34   1 2.44
  11  0.480  0.750  0.077-   7 1.96   5 1.96   3 2.34   4 2.44
  12  0.980  0.750  0.423-   8 1.96   6 1.96   4 2.34   3 2.44
  13  0.708  0.460  0.293-   7 1.97   6 1.98   1 2.37
  14  0.208  0.040  0.207-   8 1.97   5 1.98   2 2.37
  15  0.292  0.960  0.707-   5 1.97   8 1.98   3 2.37
  16  0.792  0.540  0.793-   6 1.97   7 1.98   4 2.37
  17  0.292  0.540  0.707-   7 1.97   6 1.98   3 2.37
  18  0.792  0.960  0.793-   8 1.97   5 1.98   4 2.37
  19  0.708  0.040  0.293-   5 1.97   8 1.98   1 2.37
  20  0.208  0.460  0.207-   6 1.97   7 1.98   2 2.37
 

IMPORTANT INFORMATION: All symmetrisations will be switched off!
NOSYMM: (Re-)initialisation of all symmetry stuff for point group C_1.


----------------------------------------------------------------------------------------

                                     Primitive cell                                     

  volume of cell :     226.2243

  direct lattice vectors                    reciprocal lattice vectors
     5.470858188 -0.000000025  0.000000372     0.182786679  0.000000001 -0.000000012
    -0.000000039  7.665405778 -0.000000035     0.000000001  0.130456238  0.000000001
     0.000000365 -0.000000024  5.394467375    -0.000000013  0.000000001  0.185375113

  length of vectors
     5.470858188  7.665405778  5.394467375     0.182786679  0.130456238  0.185375113

  position of ions in fractional coordinates (direct lattice)
     0.458913681  0.249999986  0.493146402
     0.958913812  0.249999975  0.006853692
     0.541087321  0.749999985  0.506848815
     0.041087388  0.749999987  0.993151048
     0.500022441  0.999983088  0.000010292
     0.000022655  0.500016821  0.499990075
     0.500022546  0.500017014  0.000009918
     0.000022535  0.999983300  0.499989716
     0.519872937  0.250000264  0.922555967
     0.019872831  0.249999746  0.577444051
     0.480137387  0.749999709  0.077435971
     0.980137421  0.750000242  0.422564015
     0.707795273  0.459637483  0.292653572
     0.207795182  0.040362455  0.207346518
     0.292175999  0.959643794  0.707354576
     0.792176013  0.540356190  0.792645316
     0.292176527  0.540356202  0.707355060
     0.792176555  0.959643778  0.792644864
     0.707795783  0.040362469  0.292654078
     0.207795713  0.459637511  0.207346054

  ion indices of the primitive-cell ions
   primitive index   ion index
                 1           1
                 2           2
                 3           3
                 4           4
                 5           5
                 6           6
                 7           7
                 8           8
                 9           9
                10          10
                11          11
                12          12
                13          13
                14          14
                15          15
                16          16
                17          17
                18          18
                19          19
                20          20

----------------------------------------------------------------------------------------

 
 
 KPOINTS: K-points file                           

Automatic generation of k-mesh.
Space group operators:
 irot       det(A)        alpha          n_x          n_y          n_z        tau_x        tau_y        tau_z
    1     1.000000     0.000000     1.000000     0.000000     0.000000     0.000000     0.000000     0.000000
 
 Subroutine IBZKPT returns following result:
 ===========================================
 
 Found     92 irreducible k-points:
 
 Following reciprocal coordinates:
            Coordinates               Weight
  0.000000  0.000000  0.000000      1.000000
  0.166667  0.000000 -0.000000      2.000000
  0.333333  0.000000  0.000000      2.000000
  0.500000  0.000000  0.000000      1.000000
  0.000000  0.200000 -0.000000      2.000000
  0.166667  0.200000 -0.000000      2.000000
  0.166667 -0.200000  0.000000      2.000000
  0.333333  0.200000  0.000000      2.000000
  0.333333 -0.200000  0.000000      2.000000
  0.500000  0.200000  0.000000      2.000000
  0.000000  0.400000 -0.000000      2.000000
  0.166667  0.400000 -0.000000      2.000000
  0.166667 -0.400000  0.000000      2.000000
  0.333333  0.400000  0.000000      2.000000
  0.333333 -0.400000  0.000000      2.000000
  0.500000  0.400000  0.000000      2.000000
  0.000000  0.000000  0.166667      2.000000
  0.166667 -0.000000  0.166667      2.000000
 -0.166667 -0.000000  0.166667      2.000000
  0.333333  0.000000  0.166667      2.000000
 -0.333333  0.000000  0.166667      2.000000
  0.500000  0.000000  0.166667      2.000000
 -0.000000  0.200000  0.166667      2.000000
 -0.000000 -0.200000  0.166667      2.000000
  0.166667  0.200000  0.166667      2.000000
 -0.166667 -0.200000  0.166667      2.000000
  0.166667 -0.200000 -0.166667      2.000000
 -0.166667  0.200000 -0.166667      2.000000
  0.333333  0.200000  0.166667      2.000000
 -0.333333 -0.200000  0.166667      2.000000
  0.333333 -0.200000 -0.166667      2.000000
 -0.333333  0.200000 -0.166667      2.000000
  0.500000  0.200000  0.166667      2.000000
  0.500000 -0.200000  0.166667      2.000000
 -0.000000  0.400000  0.166667      2.000000
 -0.000000 -0.400000  0.166667      2.000000
  0.166667  0.400000  0.166667      2.000000
 -0.166667 -0.400000  0.166667      2.000000
  0.166667 -0.400000 -0.166667      2.000000
 -0.166667  0.400000 -0.166667      2.000000
  0.333333  0.400000  0.166667      2.000000
 -0.333333 -0.400000  0.166667      2.000000
  0.333333 -0.400000 -0.166667      2.000000
 -0.333333  0.400000 -0.166667      2.000000
  0.500000  0.400000  0.166667      2.000000
  0.500000 -0.400000  0.166667      2.000000
  0.000000  0.000000  0.333333      2.000000
  0.166667 -0.000000  0.333333      2.000000
 -0.166667  0.000000  0.333333      2.000000
  0.333333  0.000000  0.333333      2.000000
 -0.333333 -0.000000  0.333333      2.000000
  0.500000 -0.000000  0.333333      2.000000
  0.000000  0.200000  0.333333      2.000000
  0.000000 -0.200000  0.333333      2.000000
  0.166667  0.200000  0.333333      2.000000
 -0.166667 -0.200000  0.333333      2.000000
  0.166667 -0.200000 -0.333333      2.000000
 -0.166667  0.200000 -0.333333      2.000000
  0.333333  0.200000  0.333333      2.000000
 -0.333333 -0.200000  0.333333      2.000000
  0.333333 -0.200000 -0.333333      2.000000
 -0.333333  0.200000 -0.333333      2.000000
  0.500000  0.200000  0.333333      2.000000
  0.500000 -0.200000  0.333333      2.000000
  0.000000  0.400000  0.333333      2.000000
 -0.000000 -0.400000  0.333333      2.000000
  0.166667  0.400000  0.333333      2.000000
 -0.166667 -0.400000  0.333333      2.000000
  0.166667 -0.400000 -0.333333      2.000000
 -0.166667  0.400000 -0.333333      2.000000
  0.333333  0.400000  0.333333      2.000000
 -0.333333 -0.400000  0.333333      2.000000
  0.333333 -0.400000 -0.333333      2.000000
 -0.333333  0.400000 -0.333333      2.000000
  0.500000  0.400000  0.333333      2.000000
  0.500000 -0.400000  0.333333      2.000000
  0.000000 -0.000000  0.500000      1.000000
  0.166667  0.000000  0.500000      2.000000
  0.333333  0.000000  0.500000      2.000000
  0.500000  0.000000  0.500000      1.000000
 -0.000000  0.200000  0.500000      2.000000
  0.166667  0.200000  0.500000      2.000000
  0.166667 -0.200000  0.500000      2.000000
  0.333333  0.200000  0.500000      2.000000
  0.333333 -0.200000  0.500000      2.000000
  0.500000  0.200000  0.500000      2.000000
  0.000000  0.400000  0.500000      2.000000
  0.166667  0.400000  0.500000      2.000000
  0.166667 -0.400000  0.500000      2.000000
  0.333333  0.400000  0.500000      2.000000
  0.333333 -0.400000  0.500000      2.000000
  0.500000  0.400000  0.500000      2.000000
 
 Following cartesian coordinates:
            Coordinates               Weight
  0.000000  0.000000  0.000000      1.000000
  0.030464  0.000000 -0.000000      2.000000
  0.060929  0.000000 -0.000000      2.000000
  0.091393  0.000000 -0.000000      1.000000
  0.000000  0.026091  0.000000      2.000000
  0.030464  0.026091 -0.000000      2.000000
  0.030464 -0.026091 -0.000000      2.000000
  0.060929  0.026091 -0.000000      2.000000
  0.060929 -0.026091 -0.000000      2.000000
  0.091393  0.026091 -0.000000      2.000000
  0.000000  0.052182  0.000000      2.000000
  0.030464  0.052182 -0.000000      2.000000
  0.030464 -0.052182 -0.000000      2.000000
  0.060929  0.052182 -0.000000      2.000000
  0.060929 -0.052182 -0.000000      2.000000
  0.091393  0.052182 -0.000000      2.000000
 -0.000000  0.000000  0.030896      2.000000
  0.030464  0.000000  0.030896      2.000000
 -0.030464 -0.000000  0.030896      2.000000
  0.060929  0.000000  0.030896      2.000000
 -0.060929 -0.000000  0.030896      2.000000
  0.091393  0.000000  0.030896      2.000000
 -0.000000  0.026091  0.030896      2.000000
 -0.000000 -0.026091  0.030896      2.000000
  0.030464  0.026091  0.030896      2.000000
 -0.030464 -0.026091  0.030896      2.000000
  0.030464 -0.026091 -0.030896      2.000000
 -0.030464  0.026091 -0.030896      2.000000
  0.060929  0.026091  0.030896      2.000000
 -0.060929 -0.026091  0.030896      2.000000
  0.060929 -0.026091 -0.030896      2.000000
 -0.060929  0.026091 -0.030896      2.000000
  0.091393  0.026091  0.030896      2.000000
  0.091393 -0.026091  0.030896      2.000000
 -0.000000  0.052182  0.030896      2.000000
 -0.000000 -0.052182  0.030896      2.000000
  0.030464  0.052182  0.030896      2.000000
 -0.030464 -0.052182  0.030896      2.000000
  0.030464 -0.052182 -0.030896      2.000000
 -0.030464  0.052182 -0.030896      2.000000
  0.060929  0.052182  0.030896      2.000000
 -0.060929 -0.052182  0.030896      2.000000
  0.060929 -0.052182 -0.030896      2.000000
 -0.060929  0.052182 -0.030896      2.000000
  0.091393  0.052182  0.030896      2.000000
  0.091393 -0.052182  0.030896      2.000000
 -0.000000  0.000000  0.061792      2.000000
  0.030464  0.000000  0.061792      2.000000
 -0.030464  0.000000  0.061792      2.000000
  0.060929  0.000000  0.061792      2.000000
 -0.060929 -0.000000  0.061792      2.000000
  0.091393  0.000000  0.061792      2.000000
 -0.000000  0.026091  0.061792      2.000000
 -0.000000 -0.026091  0.061792      2.000000
  0.030464  0.026091  0.061792      2.000000
 -0.030464 -0.026091  0.061792      2.000000
  0.030464 -0.026091 -0.061792      2.000000
 -0.030464  0.026091 -0.061792      2.000000
  0.060929  0.026091  0.061792      2.000000
 -0.060929 -0.026091  0.061792      2.000000
  0.060929 -0.026091 -0.061792      2.000000
 -0.060929  0.026091 -0.061792      2.000000
  0.091393  0.026091  0.061792      2.000000
  0.091393 -0.026091  0.061792      2.000000
 -0.000000  0.052182  0.061792      2.000000
 -0.000000 -0.052182  0.061792      2.000000
  0.030464  0.052182  0.061792      2.000000
 -0.030464 -0.052182  0.061792      2.000000
  0.030464 -0.052182 -0.061792      2.000000
 -0.030464  0.052182 -0.061792      2.000000
  0.060929  0.052182  0.061792      2.000000
 -0.060929 -0.052182  0.061792      2.000000
  0.060929 -0.052182 -0.061792      2.000000
 -0.060929  0.052182 -0.061792      2.000000
  0.091393  0.052182  0.061792      2.000000
  0.091393 -0.052182  0.061792      2.000000
 -0.000000  0.000000  0.092688      1.000000
  0.030464  0.000000  0.092688      2.000000
  0.060929  0.000000  0.092688      2.000000
  0.091393  0.000000  0.092688      1.000000
 -0.000000  0.026091  0.092688      2.000000
  0.030464  0.026091  0.092688      2.000000
  0.030464 -0.026091  0.092688      2.000000
  0.060929  0.026091  0.092688      2.000000
  0.060929 -0.026091  0.092688      2.000000
  0.091393  0.026091  0.092688      2.000000
 -0.000000  0.052182  0.092688      2.000000
  0.030464  0.052182  0.092688      2.000000
  0.030464 -0.052182  0.092688      2.000000
  0.060929  0.052182  0.092688      2.000000
  0.060929 -0.052182  0.092688      2.000000
  0.091393  0.052182  0.092688      2.000000
 


--------------------------------------------------------------------------------------------------------




 Dimension of arrays:
   k-points           NKPTS =     92   k-points in BZ     NKDIM =     92   number of bands    NBANDS=     93
   number of dos      NEDOS =    301   number of ions     NIONS =     20
   non local maximal  LDIM  =      6   non local SUM 2l+1 LMDIM =     18
   total plane-waves  NPLWV = 100800
   max r-space proj   IRMAX =   7409   max aug-charges    IRDMAX=  21456
   dimension x,y,z NGX =    42 NGY =   60 NGZ =   40
   dimension x,y,z NGXF=    84 NGYF=  120 NGZF=   80
   support grid    NGXF=    84 NGYF=  120 NGZF=   80
   ions per type =               4   4  12
   NGX,Y,Z   is equivalent  to a cutoff of  12.76, 13.01, 12.33 a.u.
   NGXF,Y,Z  is equivalent  to a cutoff of  25.53, 26.03, 24.65 a.u.

 SYSTEM =  unknown system                          
 POSCAR =  Ca4 Ti4 O12                             

 Startparameter for this run:
   NWRITE =      2    write-flag & timer
   PREC   = accura    normal or accurate (medium, high low for compatibility)
   ISTART =      0    job   : 0-new  1-cont  2-samecut
   ICHARG =      1    charge: 1-file 2-atom 10-const
   ISPIN  =      2    spin polarized calculation?
   LNONCOLLINEAR =      F non collinear calculations
   LSORBIT =      F    spin-orbit coupling
   INIWAV =      1    electr: 0-lowe 1-rand  2-diag
   LASPH  =      T    aspherical Exc in radial PAW
   METAGGA=      F    non-selfconsistent MetaGGA calc.

 Electronic Relaxation 1
   ENCUT  =  520.0 eV  38.22 Ry    6.18 a.u.  10.17 14.25 10.03*2*pi/ulx,y,z
   ENINI  =  520.0     initial cutoff
   ENAUG  =  605.4 eV  augmentation charge cutoff
   NELM   =    100;   NELMIN=  6; NELMDL= -5     # of ELM steps 
   EDIFF  = 0.1E-04   stopping-criterion for ELM
   LREAL  =      T    real-space projection
   NLSPLINE    = F    spline interpolate recip. space projectors
   LCOMPAT=      F    compatible to vasp.4.4
   GGA_COMPAT  = T    GGA compatible to vasp.4.4-vasp.4.6
   LMAXPAW     = -100 max onsite density
   LMAXMIX     =    4 max onsite mixed and CHGCAR
   VOSKOWN=      0    Vosko Wilk Nusair interpolation
   ROPT   =   -0.00025  -0.00025  -0.00025
 Ionic relaxation
   EDIFFG = -.3E-01   stopping-criterion for IOM
   NSW    =     99    number of steps for IOM
   NBLOCK =      1;   KBLOCK =     99    inner block; outer block 
   IBRION =      2    ionic relax: 0-MD 1-quasi-New 2-CG
   NFREE  =      1    steps in history (QN), initial steepest desc. (CG)
   ISIF   =      3    stress and relaxation
   IWAVPR =     11    prediction:  0-non 1-charg 2-wave 3-comb
   ISYM   =      0    0-nonsym 1-usesym 2-fastsym
   LCORR  =      T    Harris-Foulkes like correction to forces

   POTIM  = 0.5000    time-step for ionic-motion
   TEIN   =    0.0    initial temperature
   TEBEG  =    0.0;   TEEND  =   0.0 temperature during run
   SMASS  =  -3.00    Nose mass-parameter (am)
   estimated Nose-frequenzy (Omega)   =  0.10E-29 period in steps = 0.13E+47 mass=  -0.684E-27a.u.
   SCALEE = 1.0000    scale energy and forces
   NPACO  =    256;   APACO  = 16.0  distance and # of slots for P.C.
   PSTRESS=    0.0 pullay stress

  Mass of Ions in am
   POMASS =  40.08 47.88 16.00
  Ionic Valenz
   ZVAL   =  10.00 10.00  6.00
  Atomic Wigner-Seitz radii
   RWIGS  =  -1.00 -1.00 -1.00
  virtual crystal weights 
   VCA    =   1.00  1.00  1.00
   NELECT =     152.0000    total number of electrons
   NUPDOWN=      -1.0000    fix difference up-down

 DOS related values:
   EMIN   =  10.00;   EMAX   =-10.00  energy-range for DOS
   EFERMI =   0.00
   ISMEAR =     0;   SIGMA  =   0.05  broadening in eV -4-tet -1-fermi 0-gaus

 Electronic relaxation 2 (details)
   IALGO  =     38    algorithm
   LDIAG  =      T    sub-space diagonalisation (order eigenvalues)
   LSUBROT=      F    optimize rotation matrix (better conditioning)
   TURBO    =      0    0=normal 1=particle mesh
   IRESTART =      0    0=no restart 2=restart with 2 vectors
   NREBOOT  =      0    no. of reboots
   NMIN     =      0    reboot dimension
   EREF     =   0.00    reference energy to select bands
   IMIX   =      4    mixing-type and parameters
     AMIX     =   0.40;   BMIX     =  1.00
     AMIX_MAG =   1.60;   BMIX_MAG =  1.00
     AMIN     =   0.10
     WC   =   100.;   INIMIX=   1;  MIXPRE=   1;  MAXMIX= -45

 Intra band minimization:
   WEIMIN = 0.0010     energy-eigenvalue tresh-hold
   EBREAK =  0.27E-07  absolut break condition
   DEPER  =   0.30     relativ break condition  

   TIME   =   0.40     timestep for ELM

  volume/ion in A,a.u.               =      11.31        76.33
  Fermi-wavevector in a.u.,A,eV,Ry     =   1.433870  2.709621 27.973331  2.055982
  Thomas-Fermi vector in A             =   2.553340
 
 Write flags
   LWAVE        =      F    write WAVECAR
   LDOWNSAMPLE  =      F    k-point downsampling of WAVECAR
   LCHARG       =      T    write CHGCAR
   LVTOT        =      F    write LOCPOT, total local potential
   LVHAR        =      F    write LOCPOT, Hartree potential only
   LELF         =      F    write electronic localiz. function (ELF)
   LORBIT       =     11    0 simple, 1 ext, 2 COOP (PROOUT), +10 PAW based schemes


 Dipole corrections
   LMONO  =      F    monopole corrections only (constant potential shift)
   LDIPOL =      F    correct potential (dipole corrections)
   IDIPOL =      0    1-x, 2-y, 3-z, 4-all directions 
   EPSILON=  1.0000000 bulk dielectric constant

 LDA+U is selected, type is set to LDAUTYPE =  2
   angular momentum for each species LDAUL =    -1    2   -1
   U (eV)           for each species LDAUU =   0.0  2.5  0.0
   J (eV)           for each species LDAUJ =   0.0  0.0  0.0
 Exchange correlation treatment:
   GGA     =    --    GGA type
   LEXCH   =     8    internal setting for exchange type
   VOSKOWN=      0    Vosko Wilk Nusair interpolation
   LHFCALC =     F    Hartree Fock is set to
   LHFONE  =     F    Hartree Fock one center treatment
   AEXX    =    0.0000 exact exchange contribution

 Linear response parameters
   LEPSILON=     F    determine dielectric tensor
   LRPA    =     F    only Hartree local field effects (RPA)
   LNABLA  =     F    use nabla operator in PAW spheres
   LVEL    =     F    velocity operator in full k-point grid
   LINTERFAST=   F  fast interpolation
   KINTER  =     0    interpolate to denser k-point grid
   CSHIFT  =0.1000    complex shift for real part using Kramers Kronig
   OMEGAMAX=  -1.0    maximum frequency
   DEG_THRESHOLD= 0.2000000E-02 threshold for treating states as degnerate
   RTIME   =   -0.100 relaxation time in fs
  (WPLASMAI=    0.000 imaginary part of plasma frequency in eV, 0.658/RTIME)
   DFIELD  = 0.0000000 0.0000000 0.0000000 field for delta impulse in time
 
 Orbital magnetization related:
   ORBITALMAG=     F  switch on orbital magnetization
   LCHIMAG   =     F  perturbation theory with respect to B field
   DQ        =  0.001000  dq finite difference perturbation B field
   LLRAUG    =     F  two centre corrections for induced B field



--------------------------------------------------------------------------------------------------------


 conjugate gradient relaxation of ions
 charge density and potential will be updated during run
 spin polarized calculation
 Variant of blocked Davidson
 Davidson routine will perform the subspace rotation
 perform sub-space diagonalisation
    after iterative eigenvector-optimisation
 modified Broyden-mixing scheme, WC =      100.0
 initial mixing is a Kerker type mixing with AMIX =  0.4000 and BMIX =      1.0000
 Hartree-type preconditioning will be used
 using additional bands           17
 real space projection scheme for non local part
 use partial core corrections
 calculate Harris-corrections to forces 
   (improved forces if not selfconsistent)
 use gradient corrections 
 use of overlap-Matrix (Vanderbilt PP)
 Gauss-broadening in eV      SIGMA  =   0.05


--------------------------------------------------------------------------------------------------------


  energy-cutoff  :      520.00
  volume of cell :      226.22
      direct lattice vectors                 reciprocal lattice vectors
     5.470858188 -0.000000025  0.000000372     0.182786679  0.000000001 -0.000000012
    -0.000000039  7.665405778 -0.000000035     0.000000001  0.130456238  0.000000001
     0.000000365 -0.000000024  5.394467375    -0.000000013  0.000000001  0.185375113

  length of vectors
     5.470858188  7.665405778  5.394467375     0.182786679  0.130456238  0.185375113


 
 k-points in units of 2pi/SCALE and weight: K-points file                           
   0.00000000  0.00000000  0.00000000       0.006
   0.03046445  0.00000000 -0.00000000       0.011
   0.06092889  0.00000000 -0.00000000       0.011
   0.09139334  0.00000000 -0.00000001       0.006
   0.00000000  0.02609125  0.00000000       0.011
   0.03046445  0.02609125 -0.00000000       0.011
   0.03046445 -0.02609125 -0.00000000       0.011
   0.06092889  0.02609125 -0.00000000       0.011
   0.06092889 -0.02609125 -0.00000000       0.011
   0.09139334  0.02609125 -0.00000001       0.011
   0.00000000  0.05218250  0.00000000       0.011
   0.03046445  0.05218250 -0.00000000       0.011
   0.03046445 -0.05218250 -0.00000000       0.011
   0.06092889  0.05218250 -0.00000000       0.011
   0.06092889 -0.05218249 -0.00000000       0.011
   0.09139334  0.05218250 -0.00000001       0.011
  -0.00000000  0.00000000  0.03089585       0.011
   0.03046444  0.00000000  0.03089585       0.011
  -0.03046445 -0.00000000  0.03089585       0.011
   0.06092889  0.00000000  0.03089585       0.011
  -0.06092890 -0.00000000  0.03089586       0.011
   0.09139334  0.00000000  0.03089585       0.011
  -0.00000000  0.02609125  0.03089585       0.011
  -0.00000000 -0.02609125  0.03089585       0.011
   0.03046444  0.02609125  0.03089585       0.011
  -0.03046445 -0.02609125  0.03089585       0.011
   0.03046445 -0.02609125 -0.03089585       0.011
  -0.03046444  0.02609125 -0.03089585       0.011
   0.06092889  0.02609125  0.03089585       0.011
  -0.06092890 -0.02609125  0.03089586       0.011
   0.06092890 -0.02609125 -0.03089586       0.011
  -0.06092889  0.02609125 -0.03089585       0.011
   0.09139334  0.02609125  0.03089585       0.011
   0.09139334 -0.02609125  0.03089585       0.011
  -0.00000000  0.05218250  0.03089585       0.011
  -0.00000000 -0.05218250  0.03089585       0.011
   0.03046444  0.05218250  0.03089585       0.011
  -0.03046445 -0.05218250  0.03089585       0.011
   0.03046445 -0.05218250 -0.03089585       0.011
  -0.03046444  0.05218249 -0.03089585       0.011
   0.06092889  0.05218250  0.03089585       0.011
  -0.06092890 -0.05218250  0.03089586       0.011
   0.06092889 -0.05218250 -0.03089586       0.011
  -0.06092889  0.05218249 -0.03089585       0.011
   0.09139334  0.05218250  0.03089585       0.011
   0.09139334 -0.05218249  0.03089585       0.011
  -0.00000000  0.00000000  0.06179170       0.011
   0.03046444  0.00000000  0.06179170       0.011
  -0.03046445  0.00000000  0.06179171       0.011
   0.06092889  0.00000000  0.06179170       0.011
  -0.06092890 -0.00000000  0.06179171       0.011
   0.09139334  0.00000000  0.06179170       0.011
  -0.00000000  0.02609125  0.06179170       0.011
  -0.00000000 -0.02609125  0.06179170       0.011
   0.03046444  0.02609125  0.06179170       0.011
  -0.03046445 -0.02609125  0.06179171       0.011
   0.03046445 -0.02609125 -0.06179171       0.011
  -0.03046444  0.02609125 -0.06179170       0.011
   0.06092889  0.02609125  0.06179170       0.011
  -0.06092890 -0.02609125  0.06179171       0.011
   0.06092890 -0.02609125 -0.06179171       0.011
  -0.06092889  0.02609125 -0.06179170       0.011
   0.09139334  0.02609125  0.06179170       0.011
   0.09139334 -0.02609125  0.06179170       0.011
  -0.00000000  0.05218250  0.06179170       0.011
  -0.00000000 -0.05218249  0.06179170       0.011
   0.03046444  0.05218250  0.06179170       0.011
  -0.03046445 -0.05218250  0.06179171       0.011
   0.03046445 -0.05218250 -0.06179171       0.011
  -0.03046444  0.05218249 -0.06179170       0.011
   0.06092889  0.05218250  0.06179170       0.011
  -0.06092890 -0.05218250  0.06179171       0.011
   0.06092890 -0.05218250 -0.06179171       0.011
  -0.06092889  0.05218249 -0.06179170       0.011
   0.09139334  0.05218250  0.06179170       0.011
   0.09139334 -0.05218249  0.06179170       0.011
  -0.00000001  0.00000000  0.09268756       0.006
   0.03046444  0.00000000  0.09268755       0.011
   0.06092889  0.00000000  0.09268755       0.011
   0.09139333  0.00000000  0.09268755       0.006
  -0.00000001  0.02609125  0.09268756       0.011
   0.03046444  0.02609125  0.09268755       0.011
   0.03046444 -0.02609125  0.09268755       0.011
   0.06092889  0.02609125  0.09268755       0.011
   0.06092889 -0.02609125  0.09268755       0.011
   0.09139333  0.02609125  0.09268755       0.011
  -0.00000001  0.05218250  0.09268756       0.011
   0.03046444  0.05218250  0.09268755       0.011
   0.03046444 -0.05218249  0.09268755       0.011
   0.06092889  0.05218250  0.09268755       0.011
   0.06092889 -0.05218249  0.09268755       0.011
   0.09139333  0.05218250  0.09268755       0.011
 
 k-points in reciprocal lattice and weights: K-points file                           
   0.00000000  0.00000000  0.00000000       0.006
   0.16666667  0.00000000 -0.00000000       0.011
   0.33333333  0.00000000  0.00000000       0.011
   0.50000000  0.00000000  0.00000000       0.006
   0.00000000  0.20000000 -0.00000000       0.011
   0.16666667  0.20000000 -0.00000000       0.011
   0.16666667 -0.20000000  0.00000000       0.011
   0.33333333  0.20000000  0.00000000       0.011
   0.33333333 -0.20000000  0.00000000       0.011
   0.50000000  0.20000000  0.00000000       0.011
   0.00000000  0.40000000 -0.00000000       0.011
   0.16666667  0.40000000 -0.00000000       0.011
   0.16666667 -0.40000000  0.00000000       0.011
   0.33333333  0.40000000  0.00000000       0.011
   0.33333333 -0.40000000  0.00000000       0.011
   0.50000000  0.40000000  0.00000000       0.011
   0.00000000  0.00000000  0.16666667       0.011
   0.16666667 -0.00000000  0.16666667       0.011
  -0.16666667 -0.00000000  0.16666667       0.011
   0.33333333  0.00000000  0.16666667       0.011
  -0.33333333  0.00000000  0.16666667       0.011
   0.50000000  0.00000000  0.16666667       0.011
  -0.00000000  0.20000000  0.16666667       0.011
  -0.00000000 -0.20000000  0.16666667       0.011
   0.16666667  0.20000000  0.16666667       0.011
  -0.16666667 -0.20000000  0.16666667       0.011
   0.16666667 -0.20000000 -0.16666667       0.011
  -0.16666667  0.20000000 -0.16666667       0.011
   0.33333333  0.20000000  0.16666667       0.011
  -0.33333333 -0.20000000  0.16666667       0.011
   0.33333333 -0.20000000 -0.16666667       0.011
  -0.33333333  0.20000000 -0.16666667       0.011
   0.50000000  0.20000000  0.16666667       0.011
   0.50000000 -0.20000000  0.16666667       0.011
  -0.00000000  0.40000000  0.16666667       0.011
  -0.00000000 -0.40000000  0.16666667       0.011
   0.16666667  0.40000000  0.16666667       0.011
  -0.16666667 -0.40000000  0.16666667       0.011
   0.16666667 -0.40000000 -0.16666667       0.011
  -0.16666667  0.40000000 -0.16666667       0.011
   0.33333333  0.40000000  0.16666667       0.011
  -0.33333333 -0.40000000  0.16666667       0.011
   0.33333333 -0.40000000 -0.16666667       0.011
  -0.33333333  0.40000000 -0.16666667       0.011
   0.50000000  0.40000000  0.16666667       0.011
   0.50000000 -0.40000000  0.16666667       0.011
   0.00000000  0.00000000  0.33333333       0.011
   0.16666667 -0.00000000  0.33333333       0.011
  -0.16666667  0.00000000  0.33333333       0.011
   0.33333333  0.00000000  0.33333333       0.011
  -0.33333333 -0.00000000  0.33333333       0.011
   0.50000000 -0.00000000  0.33333333       0.011
   0.00000000  0.20000000  0.33333333       0.011
   0.00000000 -0.20000000  0.33333333       0.011
   0.16666667  0.20000000  0.33333333       0.011
  -0.16666667 -0.20000000  0.33333333       0.011
   0.16666667 -0.20000000 -0.33333333       0.011
  -0.16666667  0.20000000 -0.33333333       0.011
   0.33333333  0.20000000  0.33333333       0.011
  -0.33333333 -0.20000000  0.33333333       0.011
   0.33333333 -0.20000000 -0.33333333       0.011
  -0.33333333  0.20000000 -0.33333333       0.011
   0.50000000  0.20000000  0.33333333       0.011
   0.50000000 -0.20000000  0.33333333       0.011
   0.00000000  0.40000000  0.33333333       0.011
  -0.00000000 -0.40000000  0.33333333       0.011
   0.16666667  0.40000000  0.33333333       0.011
  -0.16666667 -0.40000000  0.33333333       0.011
   0.16666667 -0.40000000 -0.33333333       0.011
  -0.16666667  0.40000000 -0.33333333       0.011
   0.33333333  0.40000000  0.33333333       0.011
  -0.33333333 -0.40000000  0.33333333       0.011
   0.33333333 -0.40000000 -0.33333333       0.011
  -0.33333333  0.40000000 -0.33333333       0.011
   0.50000000  0.40000000  0.33333333       0.011
   0.50000000 -0.40000000  0.33333333       0.011
   0.00000000 -0.00000000  0.50000000       0.006
   0.16666667  0.00000000  0.50000000       0.011
   0.33333333  0.00000000  0.50000000       0.011
   0.50000000  0.00000000  0.50000000       0.006
  -0.00000000  0.20000000  0.50000000       0.011
   0.16666667  0.20000000  0.50000000       0.011
   0.16666667 -0.20000000  0.50000000       0.011
   0.33333333  0.20000000  0.50000000       0.011
   0.33333333 -0.20000000  0.50000000       0.011
   0.50000000  0.20000000  0.50000000       0.011
   0.00000000  0.40000000  0.50000000       0.011
   0.16666667  0.40000000  0.50000000       0.011
   0.16666667 -0.40000000  0.50000000       0.011
   0.33333333  0.40000000  0.50000000       0.011
   0.33333333 -0.40000000  0.50000000       0.011
   0.50000000  0.40000000  0.50000000       0.011
 
 position of ions in fractional coordinates (direct lattice) 
   0.45891368  0.24999999  0.49314640
   0.95891381  0.24999998  0.00685369
   0.54108732  0.74999999  0.50684882
   0.04108739  0.74999999  0.99315105
   0.50002244  0.99998309  0.00001029
   0.00002265  0.50001682  0.49999008
   0.50002255  0.50001701  0.00000992
   0.00002254  0.99998330  0.49998972
   0.51987294  0.25000026  0.92255597
   0.01987283  0.24999975  0.57744405
   0.48013739  0.74999971  0.07743597
   0.98013742  0.75000024  0.42256402
   0.70779527  0.45963748  0.29265357
   0.20779518  0.04036245  0.20734652
   0.29217600  0.95964379  0.70735458
   0.79217601  0.54035619  0.79264532
   0.29217653  0.54035620  0.70735506
   0.79217656  0.95964378  0.79264486
   0.70779578  0.04036247  0.29265408
   0.20779571  0.45963751  0.20734605
 
 position of ions in cartesian coordinates  (Angst):
   2.51065184  1.91635132  2.66026234
   5.24608147  1.91635123  0.03697237
   2.96021216  5.74905419  2.73417957
   0.22478360  5.74905421  5.35752091
   2.73555182  7.66527613  0.00005567
   0.00012410  3.83283182  2.69718013
   2.73555242  3.83283330  0.00005367
   0.00012343  7.66527775  2.69717818
   2.84415144  1.91635343  4.97669825
   0.10872164  1.91634948  3.11500309
   2.62676355  5.74905209  0.41772597
   5.36219296  5.74905615  2.27950813
   3.87224765  3.52330780  1.57871039
   1.13681805  0.30939458  1.11852410
   1.59845368  7.35605906  3.81580126
   4.33388290  4.14204942  4.27589957
   1.59845658  4.14204953  3.81580388
   4.33388584  7.35605892  4.27589712
   3.87225046  0.30939467  1.57871314
   1.13682094  3.52330802  1.11852159
 


--------------------------------------------------------------------------------------------------------


 k-point   1 :   0.0000 0.0000 0.0000  plane waves:    6105
 k-point   2 :   0.1667 0.0000-0.0000  plane waves:    6097
 k-point   3 :   0.3333 0.0000 0.0000  plane waves:    6090
 k-point   4 :   0.5000 0.0000 0.0000  plane waves:    6068
 k-point   5 :   0.0000 0.2000-0.0000  plane waves:    6069
 k-point   6 :   0.1667 0.2000-0.0000  plane waves:    6079
 k-point   7 :   0.1667-0.2000 0.0000  plane waves:    6079
 k-point   8 :   0.3333 0.2000 0.0000  plane waves:    6085
 k-point   9 :   0.3333-0.2000 0.0000  plane waves:    6085
 k-point  10 :   0.5000 0.2000 0.0000  plane waves:    6088
 k-point  11 :   0.0000 0.4000-0.0000  plane waves:    6092
 k-point  12 :   0.1667 0.4000-0.0000  plane waves:    6057
 k-point  13 :   0.1667-0.4000 0.0000  plane waves:    6057
 k-point  14 :   0.3333 0.4000 0.0000  plane waves:    6057
 k-point  15 :   0.3333-0.4000 0.0000  plane waves:    6057
 k-point  16 :   0.5000 0.4000 0.0000  plane waves:    6072
 k-point  17 :   0.0000 0.0000 0.1667  plane waves:    6084
 k-point  18 :   0.1667-0.0000 0.1667  plane waves:    6082
 k-point  19 :  -0.1667-0.0000 0.1667  plane waves:    6082
 k-point  20 :   0.3333 0.0000 0.1667  plane waves:    6088
 k-point  21 :  -0.3333 0.0000 0.1667  plane waves:    6088
 k-point  22 :   0.5000 0.0000 0.1667  plane waves:    6098
 k-point  23 :  -0.0000 0.2000 0.1667  plane waves:    6088
 k-point  24 :  -0.0000-0.2000 0.1667  plane waves:    6088
 k-point  25 :   0.1667 0.2000 0.1667  plane waves:    6083
 k-point  26 :  -0.1667-0.2000 0.1667  plane waves:    6083
 k-point  27 :   0.1667-0.2000-0.1667  plane waves:    6083
 k-point  28 :  -0.1667 0.2000-0.1667  plane waves:    6083
 k-point  29 :   0.3333 0.2000 0.1667  plane waves:    6093
 k-point  30 :  -0.3333-0.2000 0.1667  plane waves:    6093
 k-point  31 :   0.3333-0.2000-0.1667  plane waves:    6093
 k-point  32 :  -0.3333 0.2000-0.1667  plane waves:    6093
 k-point  33 :   0.5000 0.2000 0.1667  plane waves:    6080
 k-point  34 :   0.5000-0.2000 0.1667  plane waves:    6080
 k-point  35 :  -0.0000 0.4000 0.1667  plane waves:    6084
 k-point  36 :  -0.0000-0.4000 0.1667  plane waves:    6084
 k-point  37 :   0.1667 0.4000 0.1667  plane waves:    6085
 k-point  38 :  -0.1667-0.4000 0.1667  plane waves:    6085
 k-point  39 :   0.1667-0.4000-0.1667  plane waves:    6085
 k-point  40 :  -0.1667 0.4000-0.1667  plane waves:    6085
 k-point  41 :   0.3333 0.4000 0.1667  plane waves:    6096
 k-point  42 :  -0.3333-0.4000 0.1667  plane waves:    6096
 k-point  43 :   0.3333-0.4000-0.1667  plane waves:    6096
 k-point  44 :  -0.3333 0.4000-0.1667  plane waves:    6096
 k-point  45 :   0.5000 0.4000 0.1667  plane waves:    6104
 k-point  46 :   0.5000-0.4000 0.1667  plane waves:    6104
 k-point  47 :   0.0000 0.0000 0.3333  plane waves:    6094
 k-point  48 :   0.1667-0.0000 0.3333  plane waves:    6095
 k-point  49 :  -0.1667 0.0000 0.3333  plane waves:    6095
 k-point  50 :   0.3333 0.0000 0.3333  plane waves:    6105
 k-point  51 :  -0.3333-0.0000 0.3333  plane waves:    6105
 k-point  52 :   0.5000-0.0000 0.3333  plane waves:    6084
 k-point  53 :   0.0000 0.2000 0.3333  plane waves:    6078
 k-point  54 :   0.0000-0.2000 0.3333  plane waves:    6078
 k-point  55 :   0.1667 0.2000 0.3333  plane waves:    6089
 k-point  56 :  -0.1667-0.2000 0.3333  plane waves:    6089
 k-point  57 :   0.1667-0.2000-0.3333  plane waves:    6089
 k-point  58 :  -0.1667 0.2000-0.3333  plane waves:    6089
 k-point  59 :   0.3333 0.2000 0.3333  plane waves:    6088
 k-point  60 :  -0.3333-0.2000 0.3333  plane waves:    6088
 k-point  61 :   0.3333-0.2000-0.3333  plane waves:    6088
 k-point  62 :  -0.3333 0.2000-0.3333  plane waves:    6088
 k-point  63 :   0.5000 0.2000 0.3333  plane waves:    6114
 k-point  64 :   0.5000-0.2000 0.3333  plane waves:    6114
 k-point  65 :   0.0000 0.4000 0.3333  plane waves:    6095
 k-point  66 :  -0.0000-0.4000 0.3333  plane waves:    6095
 k-point  67 :   0.1667 0.4000 0.3333  plane waves:    6096
 k-point  68 :  -0.1667-0.4000 0.3333  plane waves:    6096
 k-point  69 :   0.1667-0.4000-0.3333  plane waves:    6096
 k-point  70 :  -0.1667 0.4000-0.3333  plane waves:    6096
 k-point  71 :   0.3333 0.4000 0.3333  plane waves:    6110
 k-point  72 :  -0.3333-0.4000 0.3333  plane waves:    6110
 k-point  73 :   0.3333-0.4000-0.3333  plane waves:    6110
 k-point  74 :  -0.3333 0.4000-0.3333  plane waves:    6110
 k-point  75 :   0.5000 0.4000 0.3333  plane waves:    6118
 k-point  76 :   0.5000-0.4000 0.3333  plane waves:    6118
 k-point  77 :   0.0000-0.0000 0.5000  plane waves:    6136
 k-point  78 :   0.1667 0.0000 0.5000  plane waves:    6116
 k-point  79 :   0.3333 0.0000 0.5000  plane waves:    6078
 k-point  80 :   0.5000 0.0000 0.5000  plane waves:    6076
 k-point  81 :  -0.0000 0.2000 0.5000  plane waves:    6100
 k-point  82 :   0.1667 0.2000 0.5000  plane waves:    6090
 k-point  83 :   0.1667-0.2000 0.5000  plane waves:    6090
 k-point  84 :   0.3333 0.2000 0.5000  plane waves:    6104
 k-point  85 :   0.3333-0.2000 0.5000  plane waves:    6104
 k-point  86 :   0.5000 0.2000 0.5000  plane waves:    6076
 k-point  87 :   0.0000 0.4000 0.5000  plane waves:    6106
 k-point  88 :   0.1667 0.4000 0.5000  plane waves:    6086
 k-point  89 :   0.1667-0.4000 0.5000  plane waves:    6086
 k-point  90 :   0.3333 0.4000 0.5000  plane waves:    6108
 k-point  91 :   0.3333-0.4000 0.5000  plane waves:    6108
 k-point  92 :   0.5000 0.4000 0.5000  plane waves:    6124

 maximum and minimum number of plane-waves per node :      1566     1487

 maximum number of plane-waves:      6136
 maximum index in each direction: 
   IXMAX=   10   IYMAX=   14   IZMAX=   10
   IXMIN=  -10   IYMIN=  -14   IZMIN=  -10


 real space projection operators:
  total allocation   :       9407.81 KBytes
  max/ min on nodes  :       2485.25       2218.66


 parallel 3D FFT for wavefunctions:
    minimum data exchange during FFTs selected (reduces bandwidth)
 parallel 3D FFT for charge:
    minimum data exchange during FFTs selected (reduces bandwidth)


 total amount of memory used by VASP MPI-rank0   195712. kBytes
=======================================================================

   base      :      30000. kBytes
   nonlr-proj:       5568. kBytes
   fftplans  :       3100. kBytes
   grid      :      10958. kBytes
   one-center:        155. kBytes
   wavefun   :     145931. kBytes
 
     INWAV:  cpu time    0.0000: real time    0.0000
 Broyden mixing: mesh for mixing (old mesh)
   NGX = 21   NGY = 29   NGZ = 21
  (NGX  = 84   NGY  =120   NGZ  = 80)
  gives a total of  12789 points

 initial charge density was supplied:
 charge density of overlapping atoms calculated
 number of electron     152.0000000 magnetization       1.2000000
 keeping initial charge density in first step


--------------------------------------------------------------------------------------------------------


 Maximum index for non-local projection operator         2009
 Maximum index for augmentation-charges         1778 (set IRDMAX)


--------------------------------------------------------------------------------------------------------


 First call to EWALD:  gamma=   0.291
 Maximum number of real-space cells 3x 2x 3
 Maximum number of reciprocal cells 3x 3x 2

    FEWALD:  cpu time    0.0010: real time    0.0010


--------------------------------------- Iteration      1(   1)  ---------------------------------------


    POTLOK:  cpu time    0.2411: real time    0.2411
    SETDIJ:  cpu time    1.4451: real time    1.4451
atom =   5  type =  2  l = 2
 
 onsite density matrix
 
spin component  1
 
  0.2308  0.0000  0.0000  0.0000  0.0000
  0.0000  0.2308  0.0000  0.0000  0.0000
  0.0000  0.0000  0.2308  0.0000  0.0000
  0.0000  0.0000  0.0000  0.2308  0.0000
  0.0000  0.0000  0.0000  0.0000  0.2308
 
spin component  2
 
  0.2280  0.0000  0.0000  0.0000  0.0000
  0.0000  0.2280  0.0000  0.0000  0.0000
  0.0000  0.0000  0.2280  0.0000  0.0000
  0.0000  0.0000  0.0000  0.2280  0.0000
  0.0000  0.0000  0.0000  0.0000  0.2280
 
 occupancies and eigenvectors
 
  o =  0.2280  v =  0.0000  0.0000  0.0000  0.0000  0.0000  0.0000  0.0000  0.0000  0.7071  0.7071      0.0000  0.0000  0.0000  0.0000  0.0000  0.0000  0.0000  0.0000  0.0000  0.0000
  o =  0.2280  v =  0.0000  0.0000  0.0000  0.0000  0.0000  1.0000  0.0000  0.0000  0.0000  0.0000      0.0000  0.0000  0.0000  0.0000  0.0000  0.0000  0.0000  0.0000  0.0000  0.0000
  o =  0.2280  v =  0.0000  0.0000  0.0000  0.0000  0.0000  0.0000  1.0000  0.0000  0.0000  0.0000      0.0000  0.0000  0.0000  0.0000  0.0000  0.0000  0.0000  0.0000  0.0000  0.0000
  o =  0.2280  v =  0.0000  0.0000  0.0000  0.0000  0.0000  0.0000  0.0000  1.0000  0.0000  0.0000      0.0000  0.0000  0.0000  0.0000  0.0000  0.0000  0.0000  0.0000  0.0000  0.0000
  o =  0.2280  v =  0.0000  0.0000  0.0000  0.0000  0.0000  0.0000  0.0000  0.0000 -0.7071  0.7071      0.0000  0.0000  0.0000  0.0000  0.0000  0.0000  0.0000  0.0000  0.0000  0.0000
  o =  0.2308  v =  0.0000  1.0000  0.0000  0.0000  0.0000  0.0000  0.0000  0.0000  0.0000  0.0000      0.0000  0.0000  0.0000  0.0000  0.0000  0.0000  0.0000  0.0000  0.0000  0.0000
  o =  0.2308  v =  0.0000  0.0000  1.0000  0.0000  0.0000  0.0000  0.0000  0.0000  0.0000  0.0000      0.0000  0.0000  0.0000  0.0000  0.0000  0.0000  0.0000  0.0000  0.0000  0.0000
  o =  0.2308  v =  0.0000  0.0000  0.0000  0.0000 -1.0000  0.0000  0.0000  0.0000  0.0000  0.0000      0.0000  0.0000  0.0000  0.0000  0.0000  0.0000  0.0000  0.0000  0.0000  0.0000
  o =  0.2308  v =  0.0000  0.0000  0.0000 -1.0000  0.0000  0.0000  0.0000  0.0000  0.0000  0.0000      0.0000  0.0000  0.0000  0.0000  0.0000  0.0000  0.0000  0.0000  0.0000  0.0000
  o =  0.2308  v =  1.0000  0.0000  0.0000  0.0000  0.0000  0.0000  0.0000  0.0000  0.0000  0.0000      0.0000  0.0000  0.0000  0.0000  0.0000  0.0000  0.0000  0.0000  0.0000  0.0000
atom =   6  type =  2  l = 2
 
 onsite density matrix
 
spin component  1
 
  0.2308  0.0000  0.0000  0.0000  0.0000
  0.0000  0.2308  0.0000  0.0000  0.0000
  0.0000  0.0000  0.2308  0.0000  0.0000
  0.0000  0.0000  0.0000  0.2308  0.0000
  0.0000  0.0000  0.0000  0.0000  0.2308
 
spin component  2
 
  0.2280  0.0000  0.0000  0.0000  0.0000
  0.0000  0.2280  0.0000  0.0000  0.0000
  0.0000  0.0000  0.2280  0.0000  0.0000
  0.0000  0.0000  0.0000  0.2280  0.0000
  0.0000  0.0000  0.0000  0.0000  0.2280
 
 occupancies and eigenvectors
 
  o =  0.2280  v =  0.0000  0.0000  0.0000  0.0000  0.0000  0.0000  0.0000  0.0000  0.7071  0.7071      0.0000  0.0000  0.0000  0.0000  0.0000  0.0000  0.0000  0.0000  0.0000  0.0000
  o =  0.2280  v =  0.0000  0.0000  0.0000  0.0000  0.0000  1.0000  0.0000  0.0000  0.0000  0.0000      0.0000  0.0000  0.0000  0.0000  0.0000  0.0000  0.0000  0.0000  0.0000  0.0000
  o =  0.2280  v =  0.0000  0.0000  0.0000  0.0000  0.0000  0.0000  1.0000  0.0000  0.0000  0.0000      0.0000  0.0000  0.0000  0.0000  0.0000  0.0000  0.0000  0.0000  0.0000  0.0000
  o =  0.2280  v =  0.0000  0.0000  0.0000  0.0000  0.0000  0.0000  0.0000  1.0000  0.0000  0.0000      0.0000  0.0000  0.0000  0.0000  0.0000  0.0000  0.0000  0.0000  0.0000  0.0000
  o =  0.2280  v =  0.0000  0.0000  0.0000  0.0000  0.0000  0.0000  0.0000  0.0000 -0.7071  0.7071      0.0000  0.0000  0.0000  0.0000  0.0000  0.0000  0.0000  0.0000  0.0000  0.0000
  o =  0.2308  v =  0.0000  1.0000  0.0000  0.0000  0.0000  0.0000  0.0000  0.0000  0.0000  0.0000      0.0000  0.0000  0.0000  0.0000  0.0000  0.0000  0.0000  0.0000  0.0000  0.0000
  o =  0.2308  v =  0.0000  0.0000  1.0000  0.0000  0.0000  0.0000  0.0000  0.0000  0.0000  0.0000      0.0000  0.0000  0.0000  0.0000  0.0000  0.0000  0.0000  0.0000  0.0000  0.0000
  o =  0.2308  v =  0.0000  0.0000  0.0000  0.0000 -1.0000  0.0000  0.0000  0.0000  0.0000  0.0000      0.0000  0.0000  0.0000  0.0000  0.0000  0.0000  0.0000  0.0000  0.0000  0.0000
  o =  0.2308  v =  0.0000  0.0000  0.0000 -1.0000  0.0000  0.0000  0.0000  0.0000  0.0000  0.0000      0.0000  0.0000  0.0000  0.0000  0.0000  0.0000  0.0000  0.0000  0.0000  0.0000
  o =  0.2308  v =  1.0000  0.0000  0.0000  0.0000  0.0000  0.0000  0.0000  0.0000  0.0000  0.0000      0.0000  0.0000  0.0000  0.0000  0.0000  0.0000  0.0000  0.0000  0.0000  0.0000
atom =   7  type =  2  l = 2
 
 onsite density matrix
 
spin component  1
 
  0.2308  0.0000  0.0000  0.0000  0.0000
  0.0000  0.2308  0.0000  0.0000  0.0000
  0.0000  0.0000  0.2308  0.0000  0.0000
  0.0000  0.0000  0.0000  0.2308  0.0000
  0.0000  0.0000  0.0000  0.0000  0.2308
 
spin component  2
 
  0.2280  0.0000  0.0000  0.0000  0.0000
  0.0000  0.2280  0.0000  0.0000  0.0000
  0.0000  0.0000  0.2280  0.0000  0.0000
  0.0000  0.0000  0.0000  0.2280  0.0000
  0.0000  0.0000  0.0000  0.0000  0.2280
 
 occupancies and eigenvectors
 
  o =  0.2280  v =  0.0000  0.0000  0.0000  0.0000  0.0000  0.0000  0.0000  0.0000  0.7071  0.7071      0.0000  0.0000  0.0000  0.0000  0.0000  0.0000  0.0000  0.0000  0.0000  0.0000
  o =  0.2280  v =  0.0000  0.0000  0.0000  0.0000  0.0000  1.0000  0.0000  0.0000  0.0000  0.0000      0.0000  0.0000  0.0000  0.0000  0.0000  0.0000  0.0000  0.0000  0.0000  0.0000
  o =  0.2280  v =  0.0000  0.0000  0.0000  0.0000  0.0000  0.0000  1.0000  0.0000  0.0000  0.0000      0.0000  0.0000  0.0000  0.0000  0.0000  0.0000  0.0000  0.0000  0.0000  0.0000
  o =  0.2280  v =  0.0000  0.0000  0.0000  0.0000  0.0000  0.0000  0.0000  1.0000  0.0000  0.0000      0.0000  0.0000  0.0000  0.0000  0.0000  0.0000  0.0000  0.0000  0.0000  0.0000
  o =  0.2280  v =  0.0000  0.0000  0.0000  0.0000  0.0000  0.0000  0.0000  0.0000 -0.7071  0.7071      0.0000  0.0000  0.0000  0.0000  0.0000  0.0000  0.0000  0.0000  0.0000  0.0000
  o =  0.2308  v =  0.0000  1.0000  0.0000  0.0000  0.0000  0.0000  0.0000  0.0000  0.0000  0.0000      0.0000  0.0000  0.0000  0.0000  0.0000  0.0000  0.0000  0.0000  0.0000  0.0000
  o =  0.2308  v =  0.0000  0.0000  1.0000  0.0000  0.0000  0.0000  0.0000  0.0000  0.0000  0.0000      0.0000  0.0000  0.0000  0.0000  0.0000  0.0000  0.0000  0.0000  0.0000  0.0000
  o =  0.2308  v =  0.0000  0.0000  0.0000  0.0000 -1.0000  0.0000  0.0000  0.0000  0.0000  0.0000      0.0000  0.0000  0.0000  0.0000  0.0000  0.0000  0.0000  0.0000  0.0000  0.0000
  o =  0.2308  v =  0.0000  0.0000  0.0000 -1.0000  0.0000  0.0000  0.0000  0.0000  0.0000  0.0000      0.0000  0.0000  0.0000  0.0000  0.0000  0.0000  0.0000  0.0000  0.0000  0.0000
  o =  0.2308  v =  1.0000  0.0000  0.0000  0.0000  0.0000  0.0000  0.0000  0.0000  0.0000  0.0000      0.0000  0.0000  0.0000  0.0000  0.0000  0.0000  0.0000  0.0000  0.0000  0.0000
atom =   8  type =  2  l = 2
 
 onsite density matrix
 
spin component  1
 
  0.2308  0.0000  0.0000  0.0000  0.0000
  0.0000  0.2308  0.0000  0.0000  0.0000
  0.0000  0.0000  0.2308  0.0000  0.0000
  0.0000  0.0000  0.0000  0.2308  0.0000
  0.0000  0.0000  0.0000  0.0000  0.2308
 
spin component  2
 
  0.2280  0.0000  0.0000  0.0000  0.0000
  0.0000  0.2280  0.0000  0.0000  0.0000
  0.0000  0.0000  0.2280  0.0000  0.0000
  0.0000  0.0000  0.0000  0.2280  0.0000
  0.0000  0.0000  0.0000  0.0000  0.2280
 
 occupancies and eigenvectors
 
  o =  0.2280  v =  0.0000  0.0000  0.0000  0.0000  0.0000  0.0000  0.0000  0.0000  0.7071  0.7071      0.0000  0.0000  0.0000  0.0000  0.0000  0.0000  0.0000  0.0000  0.0000  0.0000
  o =  0.2280  v =  0.0000  0.0000  0.0000  0.0000  0.0000  1.0000  0.0000  0.0000  0.0000  0.0000      0.0000  0.0000  0.0000  0.0000  0.0000  0.0000  0.0000  0.0000  0.0000  0.0000
  o =  0.2280  v =  0.0000  0.0000  0.0000  0.0000  0.0000  0.0000  1.0000  0.0000  0.0000  0.0000      0.0000  0.0000  0.0000  0.0000  0.0000  0.0000  0.0000  0.0000  0.0000  0.0000
  o =  0.2280  v =  0.0000  0.0000  0.0000  0.0000  0.0000  0.0000  0.0000  1.0000  0.0000  0.0000      0.0000  0.0000  0.0000  0.0000  0.0000  0.0000  0.0000  0.0000  0.0000  0.0000
  o =  0.2280  v =  0.0000  0.0000  0.0000  0.0000  0.0000  0.0000  0.0000  0.0000 -0.7071  0.7071      0.0000  0.0000  0.0000  0.0000  0.0000  0.0000  0.0000  0.0000  0.0000  0.0000
  o =  0.2308  v =  0.0000  1.0000  0.0000  0.0000  0.0000  0.0000  0.0000  0.0000  0.0000  0.0000      0.0000  0.0000  0.0000  0.0000  0.0000  0.0000  0.0000  0.0000  0.0000  0.0000
  o =  0.2308  v =  0.0000  0.0000  1.0000  0.0000  0.0000  0.0000  0.0000  0.0000  0.0000  0.0000      0.0000  0.0000  0.0000  0.0000  0.0000  0.0000  0.0000  0.0000  0.0000  0.0000
  o =  0.2308  v =  0.0000  0.0000  0.0000  0.0000 -1.0000  0.0000  0.0000  0.0000  0.0000  0.0000      0.0000  0.0000  0.0000  0.0000  0.0000  0.0000  0.0000  0.0000  0.0000  0.0000
  o =  0.2308  v =  0.0000  0.0000  0.0000 -1.0000  0.0000  0.0000  0.0000  0.0000  0.0000  0.0000      0.0000  0.0000  0.0000  0.0000  0.0000  0.0000  0.0000  0.0000  0.0000  0.0000
  o =  0.2308  v =  1.0000  0.0000  0.0000  0.0000  0.0000  0.0000  0.0000  0.0000  0.0000  0.0000      0.0000  0.0000  0.0000  0.0000  0.0000  0.0000  0.0000  0.0000  0.0000  0.0000
     EDDAV:  cpu time  151.9868: real time  152.0149
       DOS:  cpu time    0.0121: real time    0.0120
    --------------------------------------------
      LOOP:  cpu time  153.6850: real time  153.7131

 eigenvalue-minimisations  : 34314
 total energy-change (2. order) : 0.2145934E+04  (-0.7611572E+04)
 number of electron     152.0000000 magnetization       1.2000000
 augmentation part      152.0000000 magnetization       1.2000000

 Free energy of the ion-electron system (eV)
  ---------------------------------------------------
  alpha Z        PSCENC =       821.00384311
  Ewald energy   TEWEN  =    -10609.38213889
  -Hartree energ DENC   =     -2788.47280038
  -exchange      EXHF   =         0.00000000
  -V(xc)+E(xc)   XCENC  =       754.81480195
  PAW double counting   =     10298.44292571   -10347.08543505
  entropy T*S    EENTRO =        -0.00714182
  eigenvalues    EBANDS =       633.57887632
  atomic energy  EATOM  =     13383.04089882
  Solvation  Ediel_sol  =         0.00000000
  ---------------------------------------------------
  free energy    TOTEN  =      2145.93382977 eV

  energy without entropy =     2145.94097159  energy(sigma->0) =     2145.93740068


--------------------------------------------------------------------------------------------------------




--------------------------------------- Iteration      1(   2)  ---------------------------------------


     EDDAV:  cpu time  149.0697: real time  149.0883
       DOS:  cpu time    0.0121: real time    0.0121
    --------------------------------------------
      LOOP:  cpu time  149.0818: real time  149.1005

 eigenvalue-minimisations  : 34227
 total energy-change (2. order) :-0.2049778E+04  (-0.1976582E+04)
 number of electron     152.0000000 magnetization       1.2000000
 augmentation part      152.0000000 magnetization       1.2000000

 Free energy of the ion-electron system (eV)
  ---------------------------------------------------
  alpha Z        PSCENC =       821.00384311
  Ewald energy   TEWEN  =    -10609.38213889
  -Hartree energ DENC   =     -2788.47280038
  -exchange      EXHF   =         0.00000000
  -V(xc)+E(xc)   XCENC  =       754.81480195
  PAW double counting   =     10298.44292571   -10347.08543505
  entropy T*S    EENTRO =        -0.00737903
  eigenvalues    EBANDS =     -1416.19888179
  atomic energy  EATOM  =     13383.04089882
  Solvation  Ediel_sol  =         0.00000000
  ---------------------------------------------------
  free energy    TOTEN  =        96.15583445 eV

  energy without entropy =       96.16321348  energy(sigma->0) =       96.15952396


--------------------------------------------------------------------------------------------------------




--------------------------------------- Iteration      1(   3)  ---------------------------------------


     EDDAV:  cpu time  183.1420: real time  183.1575
       DOS:  cpu time    0.0041: real time    0.0041
    --------------------------------------------
      LOOP:  cpu time  183.1461: real time  183.1616

 eigenvalue-minimisations  : 45369
 total energy-change (2. order) :-0.3971622E+03  (-0.3884754E+03)
 number of electron     152.0000000 magnetization       1.2000000
 augmentation part      152.0000000 magnetization       1.2000000

 Free energy of the ion-electron system (eV)
  ---------------------------------------------------
  alpha Z        PSCENC =       821.00384311
  Ewald energy   TEWEN  =    -10609.38213889
  -Hartree energ DENC   =     -2788.47280038
  -exchange      EXHF   =         0.00000000
  -V(xc)+E(xc)   XCENC  =       754.81480195
  PAW double counting   =     10298.44292571   -10347.08543505
  entropy T*S    EENTRO =        -0.00000000
  eigenvalues    EBANDS =     -1813.36842026
  atomic energy  EATOM  =     13383.04089882
  Solvation  Ediel_sol  =         0.00000000
  ---------------------------------------------------
  free energy    TOTEN  =      -301.00632499 eV

  energy without entropy =     -301.00632499  energy(sigma->0) =     -301.00632499


--------------------------------------------------------------------------------------------------------




--------------------------------------- Iteration      1(   4)  ---------------------------------------


     EDDAV:  cpu time  185.6700: real time  185.6908
       DOS:  cpu time    0.0041: real time    0.0041
    --------------------------------------------
      LOOP:  cpu time  185.6741: real time  185.6949

 eigenvalue-minimisations  : 45984
 total energy-change (2. order) :-0.2282946E+02  (-0.2272960E+02)
 number of electron     152.0000000 magnetization       1.2000000
 augmentation part      152.0000000 magnetization       1.2000000

 Free energy of the ion-electron system (eV)
  ---------------------------------------------------
  alpha Z        PSCENC =       821.00384311
  Ewald energy   TEWEN  =    -10609.38213889
  -Hartree energ DENC   =     -2788.47280038
  -exchange      EXHF   =         0.00000000
  -V(xc)+E(xc)   XCENC  =       754.81480195
  PAW double counting   =     10298.44292571   -10347.08543505
  entropy T*S    EENTRO =        -0.00000000
  eigenvalues    EBANDS =     -1836.19787701
  atomic energy  EATOM  =     13383.04089882
  Solvation  Ediel_sol  =         0.00000000
  ---------------------------------------------------
  free energy    TOTEN  =      -323.83578174 eV

  energy without entropy =     -323.83578174  energy(sigma->0) =     -323.83578174


--------------------------------------------------------------------------------------------------------




--------------------------------------- Iteration      1(   5)  ---------------------------------------


     EDDAV:  cpu time  239.4326: real time  239.4557
       DOS:  cpu time    0.0041: real time    0.0041
    CHARGE:  cpu time   17.6501: real time   17.6510
    MIXING:  cpu time    0.0049: real time    0.0049
    --------------------------------------------
      LOOP:  cpu time  257.0917: real time  257.1156

 eigenvalue-minimisations  : 66657
 total energy-change (2. order) :-0.1408903E+01  (-0.1406077E+01)
 number of electron     152.0000066 magnetization       0.4284102
 augmentation part       35.1689055 magnetization       0.4590574

 Broyden mixing:
  rms(total) = 0.60434E+01    rms(broyden)= 0.60433E+01
  rms(prec ) = 0.75654E+01
  weight for this iteration     100.00

 Free energy of the ion-electron system (eV)
  ---------------------------------------------------
  alpha Z        PSCENC =       821.00384311
  Ewald energy   TEWEN  =    -10609.38213889
  -Hartree energ DENC   =     -2788.47280038
  -exchange      EXHF   =         0.00000000
  -V(xc)+E(xc)   XCENC  =       754.81480195
  PAW double counting   =     10298.44292571   -10347.08543505
  entropy T*S    EENTRO =        -0.00000000
  eigenvalues    EBANDS =     -1837.60678043
  atomic energy  EATOM  =     13383.04089882
  Solvation  Ediel_sol  =         0.00000000
  ---------------------------------------------------
  free energy    TOTEN  =      -325.24468516 eV

  energy without entropy =     -325.24468516  energy(sigma->0) =     -325.24468516


--------------------------------------------------------------------------------------------------------




--------------------------------------- Iteration      1(   6)  ---------------------------------------


    POTLOK:  cpu time    0.2608: real time    0.2609
    SETDIJ:  cpu time    1.7043: real time    1.7043
atom =   5  type =  2  l = 2
 
 onsite density matrix
 
spin component  1
 
  0.1545 -0.0010  0.0005  0.0091 -0.0046
 -0.0010  0.1582  0.0078  0.0021  0.0134
  0.0005  0.0078  0.1643  0.0122  0.0146
  0.0091  0.0021  0.0122  0.1903 -0.0058
 -0.0046  0.0134  0.0146 -0.0058  0.1839
 
spin component  2
 
  0.1568 -0.0010  0.0005  0.0092 -0.0046
 -0.0010  0.1606  0.0080  0.0021  0.0136
  0.0005  0.0080  0.1668  0.0124  0.0148
  0.0092  0.0021  0.0124  0.1932 -0.0059
 -0.0046  0.0136  0.0148 -0.0059  0.1867
 
 occupancies and eigenvectors
 
  o =  0.1514  v =  0.6273  0.0383  0.6192 -0.3830 -0.2737  0.0000  0.0000  0.0000  0.0000  0.0000      0.0000  0.0000  0.0000  0.0000  0.0000  0.0000  0.0000  0.0000  0.0000  0.0000
  o =  0.1520  v =  0.0521 -0.9279  0.1696  0.0336  0.3261  0.0000  0.0000  0.0000  0.0000  0.0000      0.0000  0.0000  0.0000  0.0000  0.0000  0.0000  0.0000  0.0000  0.0000  0.0000
  o =  0.1525  v = -0.7411 -0.0639  0.5655 -0.0542 -0.3521  0.0000  0.0000  0.0000  0.0000  0.0000      0.0000  0.0000  0.0000  0.0000  0.0000  0.0000  0.0000  0.0000  0.0000  0.0000
  o =  0.1536  v =  0.0000  0.0000  0.0000  0.0000  0.0000  0.6212  0.0339  0.6245 -0.3835 -0.2755      0.0000  0.0000  0.0000  0.0000  0.0000  0.0000  0.0000  0.0000  0.0000  0.0000
  o =  0.1543  v =  0.0000  0.0000  0.0000  0.0000  0.0000  0.0882 -0.9234  0.1380  0.0378  0.3451      0.0000  0.0000  0.0000  0.0000  0.0000  0.0000  0.0000  0.0000  0.0000  0.0000
  o =  0.1548  v =  0.0000  0.0000  0.0000  0.0000  0.0000 -0.7427 -0.1124  0.5680 -0.0491 -0.3326      0.0000  0.0000  0.0000  0.0000  0.0000  0.0000  0.0000  0.0000  0.0000  0.0000
  o =  0.1970  v = -0.2336  0.0893 -0.1071 -0.8581  0.4355  0.0000  0.0000  0.0000  0.0000  0.0000      0.0000  0.0000  0.0000  0.0000  0.0000  0.0000  0.0000  0.0000  0.0000  0.0000
  o =  0.1983  v =  0.0063 -0.3541 -0.5065 -0.3360 -0.7107  0.0000  0.0000  0.0000  0.0000  0.0000      0.0000  0.0000  0.0000  0.0000  0.0000  0.0000  0.0000  0.0000  0.0000  0.0000
  o =  0.2000  v =  0.0000  0.0000  0.0000  0.0000  0.0000 -0.2338  0.0910 -0.1047 -0.8564  0.4389      0.0000  0.0000  0.0000  0.0000  0.0000  0.0000  0.0000  0.0000  0.0000  0.0000
  o =  0.2013  v =  0.0000  0.0000  0.0000  0.0000  0.0000  0.0052 -0.3540 -0.5073 -0.3400 -0.7083      0.0000  0.0000  0.0000  0.0000  0.0000  0.0000  0.0000  0.0000  0.0000  0.0000
atom =   6  type =  2  l = 2
 
 onsite density matrix
 
spin component  1
 
  0.1545  0.0010 -0.0005  0.0091  0.0046
  0.0010  0.1582  0.0078 -0.0021  0.0134
 -0.0005  0.0078  0.1643 -0.0121  0.0146
  0.0091 -0.0021 -0.0121  0.1903  0.0058
  0.0046  0.0134  0.0146  0.0058  0.1839
 
spin component  2
 
  0.1568  0.0010 -0.0005  0.0093  0.0046
  0.0010  0.1606  0.0080 -0.0021  0.0136
 -0.0005  0.0080  0.1668 -0.0124  0.0148
  0.0093 -0.0021 -0.0124  0.1932  0.0059
  0.0046  0.0136  0.0148  0.0059  0.1867
 
 occupancies and eigenvectors
 
  o =  0.1514  v = -0.6260  0.0367  0.6207  0.3827 -0.2739  0.0000  0.0000  0.0000  0.0000  0.0000      0.0000  0.0000  0.0000  0.0000  0.0000  0.0000  0.0000  0.0000  0.0000  0.0000
  o =  0.1520  v = -0.0873 -0.9238  0.1408 -0.0369  0.3432  0.0000  0.0000  0.0000  0.0000  0.0000      0.0000  0.0000  0.0000  0.0000  0.0000  0.0000  0.0000  0.0000  0.0000  0.0000
  o =  0.1525  v =  0.7389 -0.1094  0.5717  0.0517 -0.3355  0.0000  0.0000  0.0000  0.0000  0.0000      0.0000  0.0000  0.0000  0.0000  0.0000  0.0000  0.0000  0.0000  0.0000  0.0000
  o =  0.1536  v =  0.0000  0.0000  0.0000  0.0000  0.0000  0.6218 -0.0222 -0.6264 -0.3833  0.2712      0.0000  0.0000  0.0000  0.0000  0.0000  0.0000  0.0000  0.0000  0.0000  0.0000
  o =  0.1543  v =  0.0000  0.0000  0.0000  0.0000  0.0000 -0.0361 -0.9287  0.1636 -0.0398  0.3283      0.0000  0.0000  0.0000  0.0000  0.0000  0.0000  0.0000  0.0000  0.0000  0.0000
  o =  0.1548  v =  0.0000  0.0000  0.0000  0.0000  0.0000 -0.7466  0.0572 -0.5591 -0.0513  0.3523      0.0000  0.0000  0.0000  0.0000  0.0000  0.0000  0.0000  0.0000  0.0000  0.0000
  o =  0.1970  v = -0.2335 -0.0886  0.1076 -0.8588 -0.4343  0.0000  0.0000  0.0000  0.0000  0.0000      0.0000  0.0000  0.0000  0.0000  0.0000  0.0000  0.0000  0.0000  0.0000  0.0000
  o =  0.1983  v =  0.0070  0.3541  0.5065 -0.3347  0.7113  0.0000  0.0000  0.0000  0.0000  0.0000      0.0000  0.0000  0.0000  0.0000  0.0000  0.0000  0.0000  0.0000  0.0000  0.0000
  o =  0.2000  v =  0.0000  0.0000  0.0000  0.0000  0.0000 -0.2339 -0.0886  0.1082 -0.8585 -0.4345      0.0000  0.0000  0.0000  0.0000  0.0000  0.0000  0.0000  0.0000  0.0000  0.0000
  o =  0.2013  v =  0.0000  0.0000  0.0000  0.0000  0.0000  0.0065  0.3547  0.5064 -0.3345  0.7112      0.0000  0.0000  0.0000  0.0000  0.0000  0.0000  0.0000  0.0000  0.0000  0.0000
atom =   7  type =  2  l = 2
 
 onsite density matrix
 
spin component  1
 
  0.1545 -0.0010 -0.0005 -0.0091  0.0045
 -0.0010  0.1582 -0.0078 -0.0021 -0.0134
 -0.0005 -0.0078  0.1643  0.0121  0.0146
 -0.0091 -0.0021  0.0121  0.1903 -0.0058
  0.0045 -0.0134  0.0146 -0.0058  0.1839
 
spin component  2
 
  0.1568 -0.0010 -0.0005 -0.0092  0.0046
 -0.0010  0.1606 -0.0080 -0.0021 -0.0136
 -0.0005 -0.0080  0.1668  0.0124  0.0148
 -0.0092 -0.0021  0.0124  0.1932 -0.0059
  0.0046 -0.0136  0.0148 -0.0059  0.1867
 
[...]
  0.009  -0.002   0.000   0.012  -0.003   0.000  -0.016   0.001
 -0.015   0.000  -0.000   0.002  -0.004   0.000  -0.004   0.004
  0.003  -0.001   0.000   0.002   0.000  -0.000  -0.002   0.003
 pseudopotential strength for first ion, spin component:           2
-18.056  -5.104  -0.000   0.001   0.004   0.000   0.000  -0.002
 -5.104  -1.701  -0.000   0.001   0.001  -0.000  -0.002  -0.003
 -0.000  -0.000 -19.251   0.000  -0.000   6.179  -0.000   0.000
  0.001   0.001   0.000 -19.234  -0.013  -0.000   6.172   0.012
  0.004   0.001  -0.000  -0.013 -19.245   0.000   0.012   6.177
  0.000  -0.000   6.179  -0.000   0.000   9.078   0.000   0.000
  0.000  -0.002  -0.000   6.172   0.012   0.000   9.035   0.010
 -0.002  -0.003   0.000   0.012   6.177   0.000   0.010   9.057
 -0.000   0.000   0.006   0.000  -0.000  -0.012   0.000   0.000
  0.000   0.000  -0.006  -0.000   0.000   0.012   0.000   0.000
  0.009  -0.004   0.000   0.010  -0.003  -0.000  -0.021   0.002
 -0.012   0.002   0.000   0.002  -0.003   0.000  -0.005   0.005
  0.003  -0.003   0.000   0.002   0.000  -0.000  -0.004   0.003
 -0.000   0.000   0.008   0.000  -0.000  -0.009  -0.000   0.000
  0.000   0.000  -0.007  -0.000   0.000   0.009   0.000  -0.000
  0.009  -0.002   0.000   0.012  -0.003  -0.000  -0.016   0.001
 -0.015   0.000   0.000   0.002  -0.004  -0.000  -0.004   0.004
  0.003  -0.001   0.000   0.002   0.000  -0.000  -0.002   0.003
 total augmentation occupancy for first ion, spin component:           1
  2.003   0.010  -0.000  -0.000  -0.000   0.000  -0.000  -0.000  -0.000  -0.000  -0.001   0.003  -0.000   0.000   0.000  -0.000
  0.010   0.430  -0.000  -0.003  -0.002   0.000   0.003   0.002  -0.000  -0.000   0.030  -0.060   0.010   0.000   0.000  -0.017
 -0.000  -0.000   2.007  -0.000  -0.000   0.001  -0.000  -0.000  -0.009   0.012   0.000   0.000  -0.000   0.004  -0.004  -0.000
 -0.000  -0.003  -0.000   2.007  -0.000  -0.000  -0.000   0.003   0.000   0.000  -0.021  -0.005  -0.003  -0.000  -0.000   0.008
 -0.000  -0.002  -0.000  -0.000   2.007  -0.000   0.003   0.001   0.000   0.000  -0.004   0.008   0.010  -0.000  -0.000   0.001
  0.000   0.000   0.001  -0.000  -0.000   0.027   0.000  -0.000   0.015  -0.028  -0.000  -0.000  -0.000  -0.008   0.016   0.000
 -0.000   0.003  -0.000  -0.000   0.003   0.000   0.030  -0.004  -0.000  -0.000   0.044   0.015   0.008   0.000   0.000  -0.025
 -0.000   0.002  -0.000   0.003   0.001  -0.000  -0.004   0.028   0.000  -0.000   0.015  -0.018  -0.025  -0.000   0.000  -0.009
 -0.000  -0.000  -0.009   0.000   0.000   0.015  -0.000   0.000   0.338  -0.103   0.000   0.000   0.000  -0.190   0.059   0.000
 -0.000  -0.000   0.012   0.000   0.000  -0.028  -0.000  -0.000  -0.103   0.297  -0.000  -0.000  -0.000   0.059  -0.169   0.000
 -0.001   0.030   0.000  -0.021  -0.004  -0.000   0.044   0.015   0.000  -0.000   0.339   0.093  -0.029  -0.000   0.000  -0.193
  0.003  -0.060   0.000  -0.005   0.008  -0.000   0.015  -0.018   0.000  -0.000   0.093   0.253  -0.017   0.000   0.000  -0.052
 -0.000   0.010  -0.000  -0.003   0.010  -0.000   0.008  -0.025   0.000  -0.000  -0.029  -0.017   0.232  -0.000  -0.000   0.018
  0.000   0.000   0.004  -0.000  -0.000  -0.008   0.000  -0.000  -0.190   0.059  -0.000   0.000  -0.000   0.109  -0.035  -0.000
  0.000   0.000  -0.004  -0.000  -0.000   0.016   0.000   0.000   0.059  -0.169   0.000   0.000  -0.000  -0.035   0.098  -0.000
 -0.000  -0.017  -0.000   0.008   0.001   0.000  -0.025  -0.009   0.000   0.000  -0.193  -0.052   0.018  -0.000  -0.000   0.111
  0.000   0.034  -0.000   0.002  -0.003   0.000  -0.008   0.010   0.000   0.000  -0.052  -0.141   0.009  -0.000  -0.000   0.030
 -0.000  -0.006   0.000   0.001  -0.004   0.000  -0.004   0.014  -0.000   0.000   0.018   0.009  -0.130  -0.000   0.000  -0.011
 total augmentation occupancy for first ion, spin component:           2
  0.000   0.000   0.000   0.000  -0.000   0.000  -0.000  -0.000  -0.000   0.000  -0.000   0.000   0.000   0.000  -0.000   0.000
  0.000   0.000   0.000   0.000  -0.000  -0.000   0.000   0.000   0.000  -0.000  -0.000  -0.000  -0.000   0.000   0.000   0.000
  0.000   0.000   0.000   0.000  -0.000   0.000   0.000   0.000  -0.000   0.000  -0.000   0.000  -0.000   0.000  -0.000   0.000
  0.000   0.000   0.000   0.000   0.000   0.000   0.000   0.000  -0.000   0.000  -0.000  -0.000  -0.000   0.000  -0.000   0.000
 -0.000  -0.000  -0.000   0.000  -0.000  -0.000   0.000  -0.000  -0.000   0.000  -0.000  -0.000  -0.000   0.000  -0.000   0.000
  0.000  -0.000   0.000   0.000  -0.000  -0.000  -0.000  -0.000   0.000   0.000  -0.000  -0.000  -0.000  -0.000  -0.000   0.000
 -0.000   0.000   0.000   0.000   0.000  -0.000  -0.000  -0.000  -0.000  -0.000   0.000   0.000   0.000   0.000   0.000  -0.000
 -0.000   0.000   0.000   0.000  -0.000  -0.000  -0.000  -0.000   0.000  -0.000  -0.000   0.000   0.000  -0.000  -0.000   0.000
 -0.000   0.000  -0.000  -0.000  -0.000   0.000  -0.000   0.000  -0.000  -0.000   0.000  -0.000  -0.000   0.000   0.000  -0.000
  0.000  -0.000   0.000   0.000   0.000   0.000  -0.000  -0.000  -0.000  -0.000  -0.000  -0.000  -0.000   0.000   0.000   0.000
 -0.000  -0.000  -0.000  -0.000  -0.000  -0.000   0.000  -0.000   0.000  -0.000  -0.000  -0.000  -0.000  -0.000   0.000   0.000
  0.000  -0.000   0.000  -0.000  -0.000  -0.000   0.000   0.000  -0.000  -0.000  -0.000  -0.000  -0.000   0.000   0.000   0.000
  0.000  -0.000  -0.000  -0.000  -0.000  -0.000   0.000   0.000  -0.000  -0.000  -0.000  -0.000  -0.000   0.000   0.000   0.000
  0.000   0.000   0.000   0.000   0.000  -0.000   0.000  -0.000   0.000   0.000  -0.000   0.000   0.000  -0.000  -0.000   0.000
 -0.000   0.000  -0.000  -0.000  -0.000  -0.000   0.000  -0.000   0.000   0.000   0.000   0.000   0.000  -0.000  -0.000  -0.000
  0.000   0.000   0.000   0.000   0.000   0.000  -0.000   0.000  -0.000   0.000   0.000   0.000   0.000   0.000  -0.000  -0.000
 -0.000   0.000  -0.000   0.000   0.000   0.000  -0.000   0.000   0.000   0.000   0.000   0.000   0.000  -0.000  -0.000  -0.000
 -0.000   0.000   0.000   0.000   0.000   0.000  -0.000  -0.000   0.000   0.000   0.000   0.000   0.000  -0.000  -0.000   0.000


------------------------ aborting loop because EDIFF is reached ----------------------------------------


 


 total charge     
 
# of ion       s       p       d       tot
------------------------------------------
    1        2.023   5.868   0.242   8.132
    2        2.023   5.868   0.242   8.132
    3        2.023   5.868   0.242   8.132
    4        2.023   5.868   0.242   8.132
    5        0.357   6.484   1.769   8.610
    6        0.357   6.484   1.769   8.610
    7        0.357   6.484   1.769   8.610
    8        0.357   6.484   1.769   8.610
    9        1.573   3.538   0.000   5.111
   10        1.573   3.538   0.000   5.111
   11        1.573   3.538   0.000   5.111
   12        1.573   3.538   0.000   5.111
   13        1.571   3.529   0.000   5.100
   14        1.571   3.529   0.000   5.100
   15        1.571   3.529   0.000   5.100
   16        1.571   3.529   0.000   5.100
   17        1.571   3.529   0.000   5.100
   18        1.571   3.529   0.000   5.100
   19        1.571   3.529   0.000   5.100
   20        1.571   3.529   0.000   5.100
--------------------------------------------------
tot         28.380  91.793   8.041 128.214
 


 magnetization (x)
 
# of ion       s       p       d       tot
------------------------------------------
    1        0.000   0.000  -0.000   0.000
    2        0.000  -0.000   0.000   0.000
    3        0.000   0.000  -0.000   0.000
    4        0.000   0.000  -0.000   0.000
    5        0.000  -0.000   0.000   0.000
    6       -0.000   0.000   0.000   0.000
    7        0.000  -0.000  -0.000  -0.000
    8       -0.000   0.000  -0.000  -0.000
    9        0.000   0.000   0.000   0.000
   10        0.000   0.000   0.000   0.000
   11       -0.000  -0.000   0.000  -0.000
   12        0.000   0.000   0.000   0.000
   13        0.000  -0.000   0.000  -0.000
   14        0.000  -0.000   0.000   0.000
   15        0.000   0.000   0.000   0.000
   16        0.000  -0.000   0.000  -0.000
   17       -0.000   0.000   0.000   0.000
   18        0.000  -0.000   0.000  -0.000
   19        0.000  -0.000   0.000  -0.000
   20        0.000  -0.000   0.000   0.000
--------------------------------------------------
tot          0.000   0.000  -0.000   0.000
 
    CHARGE:  cpu time    1.9426: real time    1.9426
    FORLOC:  cpu time    0.0088: real time    0.0088
    FORNL :  cpu time   24.1162: real time   24.1176
    STRESS:  cpu time  380.0418: real time  380.1529
    FORCOR:  cpu time    0.2466: real time    0.2467
    FORHAR:  cpu time    0.0282: real time    0.0282
    MIXING:  cpu time    0.0067: real time    0.0067
    OFIELD:  cpu time    0.0001: real time    0.0001

  FORCE on cell =-STRESS in cart. coord.  units (eV):
  Direction    XX          YY          ZZ          XY          YZ          ZX
  --------------------------------------------------------------------------------------
  Alpha Z   818.55384   818.55384   818.55384
  Ewald   -3577.64740 -3507.29120 -3512.91432     0.00006     0.00008     0.00032
  Hartree   902.49632   943.77030   931.79403     0.00003     0.00005     0.00015
  E(xc)    -775.54129  -775.57790  -775.39329     0.00000     0.00000     0.00000
  Local     254.38687   143.88951   160.53167    -0.00009    -0.00013    -0.00047
  n-local  -490.56377  -489.36180  -491.36254    -0.00000    -0.00000     0.00000
  augment   420.00568   419.56182   419.89714     0.00000    -0.00000     0.00000
  Kinetic  2448.22239  2446.33737  2448.78416     0.00000     0.00001     0.00002
  Fock        0.00000     0.00000     0.00000     0.00000     0.00000     0.00000
  -------------------------------------------------------------------------------------
  Total      -0.08735    -0.11806    -0.10932     0.00000     0.00000     0.00002
  in kB      -0.61678    -0.83364    -0.77189     0.00001     0.00003     0.00013
  external pressure =       -0.74 kB  Pullay stress =        0.00 kB


 VOLUME and BASIS-vectors are now :
 -----------------------------------------------------------------------------
  energy-cutoff  :      520.00
  volume of cell :      226.90
      direct lattice vectors                 reciprocal lattice vectors
     5.484862559 -0.000000028 -0.000000231     0.182319974  0.000000001  0.000000008
    -0.000000041  7.671982930 -0.000000104     0.000000001  0.130344398  0.000000002
    -0.000000228 -0.000000074  5.392172015     0.000000008  0.000000003  0.185454024

  length of vectors
     5.484862559  7.671982930  5.392172015     0.182319974  0.130344398  0.185454024


 FORCES acting on ions
    electron-ion (+dipol)            ewald-force                    non-local-force                 convergence-correction
 -----------------------------------------------------------------------------------------------
   -.366E+02 0.455E-04 -.104E+02   0.367E+02 -.502E-04 0.106E+02   -.139E+00 0.179E-05 -.208E+00   0.207E-03 0.391E-07 -.331E-04
   -.366E+02 0.478E-04 0.104E+02   0.367E+02 -.529E-04 -.106E+02   -.139E+00 0.109E-05 0.208E+00   0.207E-03 0.321E-06 0.352E-04
   0.366E+02 0.813E-04 0.104E+02   -.367E+02 -.871E-04 -.106E+02   0.138E+00 0.165E-05 0.210E+00   -.186E-03 0.557E-06 0.413E-04
   0.366E+02 0.681E-04 -.104E+02   -.367E+02 -.697E-04 0.106E+02   0.138E+00 0.126E-06 -.210E+00   -.186E-03 -.103E-06 -.442E-04
   0.255E-01 -.319E-01 -.283E-01   -.278E-01 0.360E-01 0.313E-01   0.268E-02 -.127E-03 0.248E-03   -.783E-04 -.299E-04 -.699E-04
   0.258E-01 0.317E-01 0.279E-01   -.281E-01 -.358E-01 -.309E-01   0.267E-02 0.142E-03 -.239E-03   -.767E-04 0.312E-04 0.667E-04
   0.254E-01 0.317E-01 -.279E-01   -.276E-01 -.357E-01 0.309E-01   0.268E-02 0.140E-03 0.245E-03   -.820E-04 0.323E-04 -.715E-04
   0.257E-01 -.320E-01 0.283E-01   -.280E-01 0.360E-01 -.314E-01   0.268E-02 -.126E-03 -.248E-03   -.769E-04 -.319E-04 0.693E-04
   0.146E+02 -.151E-03 0.333E+02   -.153E+02 0.147E-03 -.356E+02   0.699E+00 0.111E-04 0.230E+01   0.223E-03 0.554E-05 -.544E-04
   0.146E+02 0.234E-03 -.333E+02   -.153E+02 -.245E-03 0.356E+02   0.699E+00 0.539E-05 -.230E+01   0.223E-03 -.530E-05 0.558E-04
   -.146E+02 0.296E-03 -.334E+02   0.153E+02 -.306E-03 0.357E+02   -.697E+00 0.149E-05 -.230E+01   -.215E-03 -.638E-05 0.270E-04
   -.146E+02 -.825E-04 0.334E+02   0.153E+02 0.764E-04 -.357E+02   -.697E+00 0.117E-04 0.230E+01   -.216E-03 0.473E-05 -.276E-04
   0.130E+02 0.158E+02 -.220E+02   -.141E+02 -.173E+02 0.237E+02   0.116E+01 0.156E+01 -.175E+01   0.323E-03 -.329E-03 -.221E-03
   0.130E+02 -.158E+02 0.220E+02   -.141E+02 0.173E+02 -.237E+02   0.116E+01 -.156E+01 0.175E+01   0.325E-03 0.328E-03 0.218E-03
   -.130E+02 0.158E+02 0.220E+02   0.141E+02 -.173E+02 -.237E+02   -.116E+01 0.156E+01 0.175E+01   -.304E-03 -.209E-03 0.251E-03
   -.130E+02 -.158E+02 -.220E+02   0.141E+02 0.173E+02 0.237E+02   -.116E+01 -.156E+01 -.175E+01   -.308E-03 0.209E-03 -.247E-03
   -.130E+02 -.158E+02 0.220E+02   0.141E+02 0.173E+02 -.237E+02   -.116E+01 -.156E+01 0.175E+01   -.296E-03 0.209E-03 0.259E-03
   -.130E+02 0.158E+02 -.220E+02   0.141E+02 -.173E+02 0.237E+02   -.116E+01 0.156E+01 -.175E+01   -.301E-03 -.209E-03 -.255E-03
   0.130E+02 -.158E+02 -.220E+02   -.141E+02 0.173E+02 0.237E+02   0.116E+01 -.156E+01 -.175E+01   0.329E-03 0.329E-03 -.214E-03
   0.130E+02 0.158E+02 0.220E+02   -.141E+02 -.173E+02 -.237E+02   0.116E+01 0.156E+01 0.175E+01   0.333E-03 -.328E-03 0.210E-03
 -----------------------------------------------------------------------------------------------
   0.634E-02 -.183E-04 0.173E-04   0.533E-13 0.135E-12 0.853E-13   -.334E-02 0.442E-04 0.190E-05   -.156E-03 0.105E-05 -.363E-05
 
 
 POSITION                                       TOTAL-FORCE (eV/Angst)
 -----------------------------------------------------------------------------------
      2.51235      1.91800      2.65692        -0.022775     -0.000004     -0.017585
      5.25478      1.91800      0.03916        -0.022787     -0.000005      0.017583
      2.97257      5.75399      2.73529         0.021917     -0.000005      0.016097
      0.23014      5.75399      5.35297         0.021906     -0.000003     -0.016098
      2.74245     -0.00006     -0.00006         0.000072      0.003766      0.003170
      0.00002      3.83605      2.69614         0.000027     -0.003743     -0.003109
      2.74245      3.83605     -0.00006         0.000087     -0.003745      0.003122
      0.00002     -0.00006      2.69614         0.000036      0.003769     -0.003164
      2.85266      1.91800      4.97413         0.011861      0.000011     -0.005020
      0.11023      1.91800      3.11412         0.011873     -0.000012      0.005016
      2.63233      5.75399      0.41806        -0.010328     -0.000016      0.005219
      5.37476      5.75399      2.27802        -0.010318      0.000009     -0.005225
      3.88477      3.52538      1.57828         0.006124     -0.009241     -0.008314
      1.14234      0.31061      1.11780         0.006118      0.009236      0.008315
      1.59998      7.36139      3.81390        -0.006532     -0.010714      0.008304
      4.34241      4.14659      4.27436        -0.006529      0.010705     -0.008308
      1.59998      4.14659      3.81390        -0.006519      0.010707      0.008320
      4.34241      7.36139      4.27436        -0.006509     -0.010712     -0.008326
      3.88477      0.31061      1.57828         0.006143      0.009237     -0.008296
      1.14234      3.52538      1.11780         0.006134     -0.009240      0.008300
 -----------------------------------------------------------------------------------
    total drift:                                0.002842      0.000027      0.000016


--------------------------------------------------------------------------------------------------------



  FREE ENERGIE OF THE ION-ELECTRON SYSTEM (eV)
  ---------------------------------------------------
  free  energy   TOTEN  =      -239.59400597 eV

  energy  without entropy=     -239.59400597  energy(sigma->0) =     -239.59400597
 
 d Force = 0.1252764E-03[ 0.116E-03, 0.134E-03]  d Energy = 0.2062419E-03-0.810E-04
 d Force =-0.1368018E+00[-0.137E+00,-0.136E+00]  d Ewald  = 0.1464969E+00-0.283E+00


--------------------------------------------------------------------------------------------------------


    POTLOK:  cpu time    2.3570: real time    2.3574


--------------------------------------------------------------------------------------------------------




--------------------------------------------------------------------------------------------------------


  
 reached required accuracy - stopping structural energy minimisation
     LOOP+:  cpu time 1295.0718: real time 1295.3713
    4ORBIT:  cpu time    0.0000: real time    0.0000
 


 total charge     
 
# of ion       s       p       d       tot
------------------------------------------
    1        2.023   5.868   0.242   8.132
    2        2.023   5.868   0.242   8.132
    3        2.023   5.868   0.242   8.132
    4        2.023   5.868   0.242   8.132
    5        0.357   6.484   1.769   8.610
    6        0.357   6.484   1.769   8.610
    7        0.357   6.484   1.769   8.610
    8        0.357   6.484   1.769   8.610
    9        1.573   3.538   0.000   5.111
   10        1.573   3.538   0.000   5.111
   11        1.573   3.538   0.000   5.111
   12        1.573   3.538   0.000   5.111
   13        1.571   3.529   0.000   5.100
   14        1.571   3.529   0.000   5.100
   15        1.571   3.529   0.000   5.100
   16        1.571   3.529   0.000   5.100
   17        1.571   3.529   0.000   5.100
   18        1.571   3.529   0.000   5.100
   19        1.571   3.529   0.000   5.100
   20        1.571   3.529   0.000   5.100
--------------------------------------------------
tot         28.380  91.793   8.041 128.214
 


 magnetization (x)
 
# of ion       s       p       d       tot
------------------------------------------
    1        0.000   0.000  -0.000   0.000
    2        0.000  -0.000   0.000   0.000
    3        0.000   0.000  -0.000   0.000
    4        0.000   0.000  -0.000   0.000
    5        0.000  -0.000   0.000   0.000
    6       -0.000   0.000   0.000   0.000
    7        0.000  -0.000  -0.000  -0.000
    8       -0.000   0.000  -0.000  -0.000
    9        0.000   0.000   0.000   0.000
   10        0.000   0.000   0.000   0.000
   11       -0.000  -0.000   0.000  -0.000
   12        0.000   0.000   0.000   0.000
   13        0.000  -0.000   0.000  -0.000
   14        0.000  -0.000   0.000   0.000
   15        0.000   0.000   0.000   0.000
   16        0.000  -0.000   0.000  -0.000
   17       -0.000   0.000   0.000   0.000
   18        0.000  -0.000   0.000  -0.000
   19        0.000  -0.000   0.000  -0.000
   20        0.000  -0.000   0.000   0.000
--------------------------------------------------
tot          0.000   0.000  -0.000   0.000
 

 total amount of memory used by VASP MPI-rank0   195712. kBytes
=======================================================================

   base      :      30000. kBytes
   nonlr-proj:       5568. kBytes
   fftplans  :       3100. kBytes
   grid      :      10958. kBytes
   one-center:        155. kBytes
   wavefun   :     145931. kBytes
 
  
  
 General timing and accounting informations for this job:
 ========================================================
  
                  Total CPU time used (sec):     9499.549
                            User time (sec):     9496.453
                          System time (sec):        3.096
                         Elapsed time (sec):     9500.840
  
                   Maximum memory used (kb):      444752.
                   Average memory used (kb):           0.
  
                          Minor page faults:        57583
                          Major page faults:            0
                 Voluntary context switches:           71
