       N       E                     dE             d eps       ncg     rms          ort
DAV:   1     0.241072764684E+04    0.24107E+04   -0.14221E+05  8364   0.158E+03
DAV:   2    -0.176189685563E+03   -0.25869E+04   -0.24241E+04  8364   0.414E+02
DAV:   3    -0.439521997471E+03   -0.26333E+03   -0.25952E+03  8364   0.144E+02
DAV:   4    -0.448022005181E+03   -0.85000E+01   -0.84226E+01  8364   0.247E+01
DAV:   5    -0.448591643452E+03   -0.56964E+00   -0.56787E+00  8364   0.491E+00
SDA:   6    -0.365076603649E+03    0.83515E+02   -0.56787E+00  8364   0.160E+02 0.000E+00
CGA:   7    -0.367703803591E+03   -0.26272E+01   -0.26338E+01  8364   0.275E+01 0.965E-01
CGA:   8    -0.368214543018E+03   -0.51074E+00   -0.51128E+00  8364   0.835E+00 0.393E-01
CGA:   9    -0.368423472229E+03   -0.20893E+00   -0.20791E+00  8364   0.288E+00 0.209E-01
CGA:  10    -0.368499892722E+03   -0.76420E-01   -0.76944E-01  8364   0.149E+00-0.849E-02
CGA:  11    -0.368539153826E+03   -0.39261E-01   -0.39991E-01  8364   0.651E-01-0.975E-02
CGA:  12    -0.368554549278E+03   -0.15395E-01   -0.15218E-01  8364   0.201E-01 0.422E-02
CGA:  13    -0.368558500175E+03   -0.39509E-02   -0.40738E-02  8364   0.613E-02 0.682E-02
CGA:  14    -0.368559589649E+03   -0.10895E-02   -0.12918E-02  8364   0.292E-02 0.402E-02
CGA:  15    -0.368560132430E+03   -0.54278E-03   -0.56379E-03  8364   0.153E-02 0.174E-02
CGA:  16    -0.368560211461E+03   -0.79031E-04   -0.18858E-03  8364   0.122E-02 0.135E-02
CGA:  17    -0.368560260086E+03   -0.48625E-04   -0.14178E-03  8364   0.102E-02 0.111E-02
CGA:  18    -0.368560279875E+03   -0.19789E-04   -0.10589E-03  8364   0.871E-03 0.937E-03
CGA:  19    -0.368560281871E+03   -0.19955E-05   -0.81429E-04  8364   0.762E-03 0.812E-03
CGA:  20    -0.368560273240E+03    0.86302E-05   -0.64307E-04  8364   0.675E-03 0.716E-03
CGA:  21    -0.368560258181E+03    0.15059E-04   -0.51760E-04  8364   0.606E-03 0.639E-03
CGA:  22    -0.368560239277E+03    0.18904E-04   -0.42270E-04  8364   0.548E-03 0.576E-03
CGA:  23    -0.368560218172E+03    0.21105E-04   -0.34905E-04  8364   0.500E-03 0.523E-03
CGA:  24    -0.368560195965E+03    0.22207E-04   -0.29106E-04  8364   0.459E-03 0.479E-03
CGA:  25    -0.368560173383E+03    0.22581E-04   -0.24479E-04  8364   0.424E-03 0.441E-03
CGA:  26    -0.368560150905E+03    0.22478E-04   -0.20726E-04  8364   0.393E-03 0.408E-03
CGA:  27    -0.368560128843E+03    0.22062E-04   -0.17608E-04  8364   0.362E-03 0.379E-03
CGA:  28    -0.368560107376E+03    0.21466E-04   -0.14778E-04  8364   0.332E-03 0.351E-03
CGA:  29    -0.368560086689E+03    0.20687E-04   -0.12293E-04  8364   0.307E-03 0.323E-03
CGA:  30    -0.368560066942E+03    0.19747E-04   -0.10283E-04  8364   0.285E-03 0.299E-03
CGA:  31    -0.368560048233E+03    0.18709E-04   -0.87202E-05  8364   0.267E-03 0.279E-03
CGA:  32    -0.368560030573E+03    0.17661E-04   -0.75027E-05  8364   0.252E-03 0.262E-03
CGA:  33    -0.368560013937E+03    0.16635E-04   -0.65237E-05  8364   0.239E-03 0.248E-03
CGA:  34    -0.368559998284E+03    0.15653E-04   -0.57256E-05  8364   0.228E-03 0.236E-03
CGA:  35    -0.368559983562E+03    0.14722E-04   -0.50638E-05  8364   0.219E-03 0.225E-03
CGA:  36    -0.368559969716E+03    0.13847E-04   -0.45116E-05  8364   0.210E-03 0.216E-03
CGA:  37    -0.368559956688E+03    0.13028E-04   -0.40444E-05  8364   0.203E-03 0.208E-03
CGA:  38    -0.368559944424E+03    0.12264E-04   -0.36474E-05  8364   0.196E-03 0.201E-03
CGA:  39    -0.368559932869E+03    0.11555E-04   -0.33067E-05  8364   0.190E-03 0.194E-03
CGA:  40    -0.368559921975E+03    0.10894E-04   -0.30125E-05  8364   0.185E-03 0.189E-03
CGA:  41    -0.368559911697E+03    0.10278E-04   -0.27552E-05  8364   0.180E-03 0.184E-03
CGA:  42    -0.368559901993E+03    0.97044E-05   -0.25298E-05  8364   0.176E-03 0.179E-03
   1 F= -.36855990E+03 E0= -.36855990E+03  d E =-.368560E+03  mag=    16.0000
       N       E                     dE             d eps       ncg     rms          ort
SDA:   1    -0.368540130574E+03    0.19781E-01    0.00000E+00  8364   0.486E-01 0.000E+00
CGA:   2    -0.368553762821E+03   -0.13632E-01   -0.13212E-01  8364   0.157E-01 0.214E-02
CGA:   3    -0.368557173325E+03   -0.34105E-02   -0.33603E-02  8364   0.496E-02 0.423E-03
CGA:   4    -0.368558098729E+03   -0.92540E-03   -0.87672E-03  8364   0.876E-03 0.603E-03
CGA:   5    -0.368558178343E+03   -0.79614E-04   -0.85219E-04  8364   0.430E-03 0.640E-03
CGA:   6    -0.368558189982E+03   -0.11639E-04   -0.24935E-04  8364   0.308E-03 0.359E-03
CGA:   7    -0.368558193419E+03   -0.34368E-05   -0.15410E-04  8364   0.251E-03 0.277E-03
CGA:   8    -0.368558193940E+03   -0.52093E-06   -0.11263E-04  8364   0.216E-03 0.232E-03
   2 F= -.36855819E+03 E0= -.36855819E+03  d E =0.170805E-02  mag=    16.0000
       N       E                     dE             d eps       ncg     rms          ort
SDA:   1    -0.368554244193E+03    0.39492E-02    0.00000E+00  8364   0.113E-01 0.000E+00
CGA:   2    -0.368557274279E+03   -0.30301E-02   -0.28168E-02  8364   0.337E-02 0.130E-02
CGA:   3    -0.368557940157E+03   -0.66588E-03   -0.60743E-03  8364   0.851E-03 0.874E-03
CGA:   4    -0.368558108787E+03   -0.16863E-03   -0.14847E-03  8364   0.266E-03 0.495E-03
CGA:   5    -0.368558149989E+03   -0.41203E-04   -0.35571E-04  8364   0.137E-03 0.166E-03
CGA:   6    -0.368558167228E+03   -0.17239E-04   -0.15726E-04  8364   0.962E-04 0.113E-03
CGA:   7    -0.368558170226E+03   -0.29985E-05   -0.62686E-05  8364   0.815E-04 0.881E-04
   3 F= -.36855817E+03 E0= -.36855817E+03  d E =0.173177E-02  mag=    16.0000
       N       E                     dE             d eps       ncg     rms          ort
SDA:   1    -0.368556606784E+03    0.15604E-02    0.00000E+00  8364   0.351E-02 0.000E+00
CGA:   2    -0.368557559745E+03   -0.95296E-03   -0.96504E-03  8364   0.128E-02-0.682E-04
CGA:   3    -0.368557805236E+03   -0.24549E-03   -0.25252E-03  8364   0.419E-03-0.743E-04
CGA:   4    -0.368557871622E+03   -0.66387E-04   -0.63107E-04  8364   0.777E-04 0.676E-04
CGA:   5    -0.368557872238E+03   -0.61610E-06   -0.48125E-05  8364   0.490E-04 0.691E-04
CGA:   6    -0.368557870800E+03    0.14386E-05   -0.17979E-05  8364   0.387E-04 0.436E-04
   4 F= -.36855787E+03 E0= -.36855787E+03  d E =0.203119E-02  mag=    16.0000
       N       E                     dE             d eps       ncg     rms          ort
SDA:   1    -0.368557867864E+03    0.43743E-05    0.00000E+00  8364   0.143E-03 0.000E+00
CGA:   2    -0.368557870269E+03   -0.24051E-05   -0.79395E-05  8364   0.976E-04 0.115E-03
CGA:   3    -0.368557870256E+03    0.12955E-07   -0.45725E-05  8364   0.757E-04 0.845E-04
CGA:   4    -0.368557869555E+03    0.70055E-06   -0.31335E-05  8364   0.618E-04 0.673E-04
CGA:   5    -0.368557868615E+03    0.94076E-06   -0.23110E-05  8364   0.522E-04 0.559E-04
CGA:   6    -0.368557867597E+03    0.10181E-05   -0.17797E-05  8364   0.451E-04 0.478E-04
   5 F= -.36855787E+03 E0= -.36855787E+03  d E =0.203440E-02  mag=    16.0000
       N       E                     dE             d eps       ncg     rms          ort
SDA:   1    -0.368557813868E+03    0.54747E-04    0.00000E+00  8364   0.365E-04 0.000E+00
CGA:   2    -0.368557814637E+03   -0.76929E-06   -0.18297E-05  8364   0.245E-04 0.289E-04
CGA:   3    -0.368557814932E+03   -0.29540E-06   -0.11241E-05  8364   0.193E-04 0.212E-04
CGA:   4    -0.368557814963E+03   -0.30992E-07   -0.77777E-06  8364   0.163E-04 0.175E-04
CGA:   5    -0.368557814846E+03    0.11712E-06   -0.57607E-06  8364   0.143E-04 0.152E-04
CGA:   6    -0.368557814654E+03    0.19202E-06   -0.44878E-06  8364   0.128E-04 0.135E-04
   6 F= -.36855781E+03 E0= -.36855781E+03  d E =0.208734E-02  mag=    16.0000
       N       E                     dE             d eps       ncg     rms          ort
SDA:   1    -0.368557823522E+03   -0.86756E-05    0.00000E+00  8364   0.165E-04 0.000E+00
CGA:   2    -0.368557823352E+03    0.16983E-06   -0.49400E-06  8364   0.141E-04 0.152E-04
CGA:   3    -0.368557823061E+03    0.29141E-06   -0.33912E-06  8364   0.126E-04 0.133E-04
CGA:   4    -0.368557822737E+03    0.32336E-06   -0.26160E-06  8364   0.116E-04 0.121E-04
CGA:   5    -0.368557822408E+03    0.32946E-06   -0.21212E-06  8364   0.108E-04 0.112E-04
CGA:   6    -0.368557822084E+03    0.32394E-06   -0.17750E-06  8364   0.102E-04 0.105E-04
   7 F= -.36855782E+03 E0= -.36855782E+03  d E =0.207991E-02  mag=    16.0000
       N       E                     dE             d eps       ncg     rms          ort
SDA:   1    -0.368557814683E+03    0.77246E-05    0.00000E+00  8364   0.627E-05 0.000E+00
CGA:   2    -0.368557814426E+03    0.25757E-06   -0.56831E-07  8364   0.582E-05 0.622E-05
CGA:   3    -0.368557814192E+03    0.23350E-06   -0.48586E-07  8364   0.545E-05 0.579E-05
CGA:   4    -0.368557813980E+03    0.21253E-06   -0.41881E-07  8364   0.513E-05 0.542E-05
CGA:   5    -0.368557813785E+03    0.19425E-06   -0.36395E-07  8364   0.486E-05 0.510E-05
CGA:   6    -0.368557813607E+03    0.17825E-06   -0.31853E-07  8364   0.463E-05 0.483E-05
   8 F= -.36855781E+03 E0= -.36855781E+03  d E =0.208839E-02  mag=    16.0000
       N       E                     dE             d eps       ncg     rms          ort
SDA:   1    -0.368555019800E+03    0.27940E-02    0.00000E+00  8364   0.783E-02 0.000E+00
CGA:   2    -0.368556786977E+03   -0.17672E-02   -0.16304E-02  8364   0.278E-02 0.843E-03
CGA:   3    -0.368557467037E+03   -0.68006E-03   -0.67364E-03  8364   0.790E-03 0.388E-04
CGA:   4    -0.368557464962E+03    0.20745E-05   -0.50967E-04  8364   0.159E-02-0.921E-03
CGA:   5    -0.368557635693E+03   -0.17073E-03   -0.17189E-03  8364   0.144E-03 0.206E-03
CGA:   6    -0.368557666249E+03   -0.30555E-04   -0.28588E-04  8364   0.499E-04 0.314E-04
CGA:   7    -0.368557681976E+03   -0.15727E-04    0.30933E-04  8364   0.210E-04 0.304E-04
CGA:   8    -0.368557688504E+03   -0.65289E-05    0.35884E-05  8364   0.933E-05 0.126E-04
   9 F= -.36855769E+03 E0= -.36855769E+03  d E =0.125103E-03  mag=    16.0000
       N       E                     dE             d eps       ncg     rms          ort
SDA:   1    -0.368532845714E+03    0.24836E-01    0.00000E+00  8364   0.707E-01 0.000E+00
CGA:   2    -0.368549243467E+03   -0.16398E-01   -0.16294E-01  8364   0.290E-01 0.926E-03
CGA:   3    -0.368555157399E+03   -0.59139E-02   -0.59316E-02  8364   0.729E-02-0.222E-03
CGA:   4    -0.368556586425E+03   -0.14290E-02   -0.14865E-02  8364   0.164E-02-0.725E-03
CGA:   5    -0.368556869304E+03   -0.28288E-03   -0.28628E-03  8364   0.430E-03-0.538E-04
CGA:   6    -0.368556966848E+03   -0.97543E-04   -0.11164E-03  8364   0.207E-03-0.105E-03
CGA:   7    -0.368557029297E+03   -0.62450E-04    0.25582E-04  8364   0.760E-04 0.674E-04
CGA:   8    -0.368557082556E+03   -0.53259E-04    0.79208E-05  8364   0.275E-04 0.247E-04
CGA:   9    -0.368557116341E+03   -0.33785E-04    0.11034E-05  8364   0.154E-04 0.177E-04
CGA:  10    -0.368557126885E+03   -0.10544E-04    0.73775E-06  8364   0.710E-05 0.877E-05
CGA:  11    -0.368557138393E+03   -0.11508E-04    0.10372E-06  8364   0.525E-05 0.590E-05
CGA:  12    -0.368557147780E+03   -0.93875E-05    0.68208E-07  8364   0.410E-05 0.452E-05
  10 F= -.36855715E+03 E0= -.36855715E+03  d E =0.665827E-03  mag=    16.0000
       N       E                     dE             d eps       ncg     rms          ort
SDA:   1    -0.368554829357E+03    0.23090E-02    0.00000E+00  8364   0.788E-02 0.000E+00
CGA:   2    -0.368556720767E+03   -0.18914E-02   -0.19217E-02  8364   0.360E-02-0.290E-03
CGA:   3    -0.368557377467E+03   -0.65670E-03   -0.65491E-03  8364   0.799E-03 0.412E-04
CGA:   4    -0.368557504480E+03   -0.12701E-03   -0.12584E-03  8364   0.131E-03 0.139E-03
CGA:   5    -0.368557527787E+03   -0.23307E-04   -0.23187E-04  8364   0.356E-04 0.434E-04
CGA:   6    -0.368557537795E+03   -0.10008E-04   -0.95592E-05  8364   0.125E-04 0.835E-05
CGA:   7    -0.368557537712E+03    0.82691E-07   -0.96213E-06  8364   0.821E-05 0.118E-04
  11 F= -.36855754E+03 E0= -.36855754E+03  d E =0.275895E-03  mag=    16.0000
       N       E                     dE             d eps       ncg     rms          ort
SDA:   1    -0.368555425207E+03    0.21126E-02    0.00000E+00  8364   0.491E-02 0.000E+00
CGA:   2    -0.368557070259E+03   -0.16451E-02   -0.15871E-02  8364   0.127E-02 0.317E-03
CGA:   3    -0.368557331013E+03   -0.26075E-03   -0.25251E-03  8364   0.269E-03 0.221E-03
CGA:   4    -0.368557405602E+03   -0.74588E-04   -0.10196E-03  8364   0.257E-03-0.160E-03
CGA:   5    -0.368557441585E+03   -0.35983E-04   -0.35560E-04  8364   0.326E-04-0.199E-04
CGA:   6    -0.368557457420E+03   -0.15835E-04    0.36419E-05  8364   0.570E-05 0.609E-05
CGA:   7    -0.368557465739E+03   -0.83189E-05    0.18698E-06  8364   0.324E-05 0.328E-05
  12 F= -.36855747E+03 E0= -.36855747E+03  d E =0.719736E-04  mag=    16.0000
