       N       E                     dE             d eps       ncg     rms          ort
DAV:   1     0.297684594404E+04    0.29768E+04   -0.13733E+05 10584   0.178E+03
DAV:   2    -0.172530384187E+02   -0.29941E+04   -0.27443E+04 10584   0.462E+02
DAV:   3    -0.427663243635E+03   -0.41041E+03   -0.40130E+03 10584   0.194E+02
DAV:   4    -0.445265004857E+03   -0.17602E+02   -0.17203E+02 10584   0.393E+01
DAV:   5    -0.445923468280E+03   -0.65846E+00   -0.64840E+00 10584   0.617E+00
SDA:   6    -0.238416758232E+03    0.20751E+03   -0.64840E+00 10584   0.147E+04 0.000E+00
CGA:   7    -0.233959815964E+03    0.44569E+01   -0.11762E+03 10584   0.587E+03-0.287E+02
CGA:   8    -0.287497159423E+03   -0.53537E+02   -0.14797E+02 10584   0.170E+04 0.103E+04
CGA:   9    -0.231157869005E+03    0.56339E+02   -0.76937E+02 10584   0.635E+03-0.302E+03
CGA:  10    -0.293017502838E+03   -0.61860E+02   -0.11820E+02 10584   0.120E+04-0.321E+04
CGA:  11    -0.237417738024E+03    0.55600E+02   -0.54362E+02 10584   0.184E+04-0.529E+03
CGA:  12    -0.274073183127E+03   -0.36655E+02   -0.39316E+02 10584   0.312E+03-0.133E+03
CGA:  13    -0.303067737162E+03   -0.28995E+02   -0.30329E+01 10584   0.704E+03 0.171E+04
CGA:  14    -0.270359025647E+03    0.32709E+02   -0.19910E+02 10584   0.709E+03-0.506E+03
CGA:  15    -0.293304853534E+03   -0.22946E+02   -0.13505E+02 10584   0.232E+04-0.261E+04
CGA:  16    -0.213443019429E+03    0.79862E+02   -0.10543E+03 10584   0.628E+03-0.314E+03
CGA:  17    -0.272801267541E+03   -0.59358E+02   -0.89608E+01 10584   0.155E+04 0.192E+04
CGA:  18    -0.270081926387E+03    0.27193E+01   -0.55823E+02 10584   0.335E+03-0.278E+03
CGA:  19    -0.292003686862E+03   -0.21922E+02   -0.70506E+01 10584   0.187E+04-0.234E+04
CGA:  20    -0.246441683299E+03    0.45562E+02   -0.79923E+02 10584   0.416E+03-0.260E+03
CGA:  21    -0.262854401850E+03   -0.16413E+02   -0.53758E+01 10584   0.219E+04 0.240E+04
CGA:  22    -0.251986635004E+03    0.10868E+02   -0.78322E+02 10584   0.383E+03-0.325E+03
CGA:  23    -0.289003467884E+03   -0.37017E+02   -0.41588E+01 10584   0.238E+04 0.383E+04
CGA:  24    -0.250732528757E+03    0.38271E+02   -0.10485E+03 10584   0.398E+03-0.273E+03
CGA:  25    -0.288510901316E+03   -0.37778E+02   -0.50693E+01 10584   0.566E+04 0.851E+04
CGA:  26    -0.249726110677E+03    0.38785E+02   -0.25048E+03 10584   0.381E+03-0.274E+03
CGA:  27    -0.300495030567E+03   -0.50769E+02   -0.72818E+01 10584   0.786E+03 0.155E+04
CGA:  28    -0.260089318761E+03    0.40406E+02   -0.22998E+02 10584   0.563E+03-0.342E+03
CGA:  29    -0.265395689110E+03   -0.53064E+01   -0.99940E+01 10584   0.142E+04-0.830E+03
CGA:  30    -0.249268484031E+03    0.16127E+02   -0.48034E+02 10584   0.444E+03-0.357E+03
CGA:  31    -0.292359140350E+03   -0.43091E+02   -0.11181E+02 10584   0.239E+04-0.363E+04
CGA:  32    -0.252431492067E+03    0.39928E+02   -0.79336E+02 10584   0.549E+03-0.375E+03
CGA:  33    -0.263461629361E+03   -0.11030E+02   -0.13880E+02 10584   0.357E+03-0.330E+03
CGA:  34    -0.281739560900E+03   -0.18278E+02   -0.72179E+01 10584   0.245E+04 0.113E+04
CGA:  35    -0.231475264698E+03    0.50264E+02   -0.70138E+02 10584   0.512E+03-0.348E+03
CGA:  36    -0.263136761805E+03   -0.31661E+02   -0.19157E+02 10584   0.345E+03-0.353E+03
CGA:  37    -0.273962696094E+03   -0.10826E+02   -0.55651E+01 10584   0.303E+03 0.333E+03
CGA:  38    -0.297400677886E+03   -0.23438E+02   -0.36230E+01 10584   0.317E+04 0.456E+04
CGA:  39    -0.232378051151E+03    0.65023E+02   -0.80495E+02 10584   0.520E+03-0.297E+03
CGA:  40    -0.262851439086E+03   -0.30473E+02   -0.19849E+02 10584   0.351E+03-0.375E+03
CGA:  41    -0.272886983041E+03   -0.10036E+02   -0.51731E+01 10584   0.306E+03 0.334E+03
CGA:  42    -0.279618439362E+03   -0.67315E+01   -0.32706E+01 10584   0.331E+03 0.353E+03
CGA:  43    -0.321405219114E+03   -0.41787E+02   -0.31376E+01 10584   0.123E+04-0.213E+03
CGA:  44    -0.280162916057E+03    0.41242E+02   -0.20675E+02 10584   0.435E+04-0.124E+04
CGA:  45    -0.260107626593E+03    0.20055E+02   -0.10207E+03 10584   0.386E+03-0.279E+03
CGA:  46    -0.283441520087E+03   -0.23334E+02   -0.54741E+01 10584   0.867E+03 0.300E+02
CGA:  47    -0.255238846457E+03    0.28203E+02   -0.11090E+02 10584   0.116E+04-0.776E+03
CGA:  48    -0.334571579940E+03   -0.79333E+02   -0.26396E+02 10584   0.581E+03 0.253E+04
CGA:  49    -0.327635878899E+03    0.69357E+01   -0.82142E+01 10584   0.125E+04-0.707E+03
CGA:  50    -0.321066410352E+03    0.65695E+01   -0.20741E+02 10584   0.762E+03-0.567E+03
CGA:  51    -0.336567338404E+03   -0.15501E+02   -0.55498E+01 10584   0.364E+03-0.824E+03
CGA:  52    -0.333882241671E+03    0.26851E+01   -0.43068E+01 10584   0.823E+03-0.470E+03
CGA:  53    -0.326281284355E+03    0.76010E+01   -0.11390E+02 10584   0.999E+03-0.584E+03
CGA:  54    -0.320011355786E+03    0.62699E+01   -0.13927E+02 10584   0.848E+03-0.677E+03
CGA:  55    -0.325559997253E+03   -0.55486E+01   -0.10072E+02 10584   0.772E+03-0.925E+03
CGA:  56    -0.324483344904E+03    0.10767E+01   -0.90614E+01 10584   0.128E+04-0.124E+04
CGA:  57    -0.323796969288E+03    0.68638E+00   -0.16260E+02 10584   0.654E+03-0.610E+03
CGA:  58    -0.336616160507E+03   -0.12819E+02   -0.34641E+01 10584   0.373E+03 0.577E+03
CGA:  59    -0.336264409646E+03    0.35175E+00   -0.33720E+01 10584   0.472E+03-0.416E+03
CGA:  60    -0.334697259959E+03    0.15671E+01   -0.47513E+01 10584   0.754E+03-0.553E+03
CGA:  61    -0.332321208657E+03    0.23761E+01   -0.75924E+01 10584   0.115E+04-0.893E+03
CGA:  62    -0.327762148187E+03    0.45591E+01   -0.13091E+02 10584   0.114E+04-0.833E+03
CGA:  63    -0.326845539084E+03    0.91661E+00   -0.11823E+02 10584   0.153E+04-0.147E+04
CGA:  64    -0.325577226098E+03    0.12683E+01   -0.16986E+02 10584   0.961E+03-0.888E+03
CGA:  65    -0.330529232114E+03   -0.49520E+01   -0.90551E+01 10584   0.131E+04-0.168E+04
CGA:  66    -0.329548046818E+03    0.98119E+00   -0.13177E+02 10584   0.125E+04-0.117E+04
CGA:  67    -0.330678885013E+03   -0.11308E+01   -0.11716E+02 10584   0.129E+04-0.138E+04
CGA:  68    -0.330943746782E+03   -0.26486E+00   -0.12374E+02 10584   0.120E+04-0.121E+04
CGA:  69    -0.333156648134E+03   -0.22129E+01   -0.10472E+02 10584   0.100E+04-0.119E+04
CGA:  70    -0.334854948908E+03   -0.16983E+01   -0.84684E+01 10584   0.759E+03-0.900E+03
CGA:  71    -0.337242027450E+03   -0.23871E+01   -0.54732E+01 10584   0.303E+03-0.495E+03
CGA:  72    -0.338552311791E+03   -0.13103E+01   -0.17160E+01 10584   0.250E+02-0.855E+02
CGA:  73    -0.338673204780E+03   -0.12089E+00   -0.12517E+00 10584   0.149E+01-0.520E+00
CGA:  74    -0.338765433123E+03   -0.92228E-01   -0.12772E+00 10584   0.308E+02-0.434E+00
CGA:  75    -0.339072753394E+03   -0.30732E+00   -0.18391E+00 10584   0.371E+02 0.730E+01
CGA:  76    -0.339193120354E+03   -0.12037E+00   -0.25497E+00 10584   0.274E+02-0.290E+02
CGA:  77    -0.339482295634E+03   -0.28918E+00   -0.29761E+00 10584   0.217E+01-0.425E+00
CGA:  78    -0.339525980409E+03   -0.43685E-01   -0.43695E-01 10584   0.252E+01-0.963E-01
CGA:  79    -0.339772420643E+03   -0.24644E+00   -0.31996E-01 10584   0.541E+01 0.162E+00
CGA:  80    -0.339879244174E+03   -0.10682E+00   -0.31118E+00 10584   0.188E+02-0.127E+02
CGA:  81    -0.340109267681E+03   -0.23002E+00   -0.38779E+00 10584   0.157E+01-0.261E+01
CGA:  82    -0.340154755451E+03   -0.45488E-01   -0.43610E-01 10584   0.628E+00-0.946E-01
CGA:  83    -0.340206084120E+03   -0.51329E-01   -0.96039E-01 10584   0.340E+01-0.294E+00
CGA:  84    -0.340266064489E+03   -0.59980E-01   -0.57940E-01 10584   0.246E+01-0.210E+00
CGA:  85    -0.340332517279E+03   -0.66453E-01   -0.60851E-01 10584   0.139E+01 0.196E-01
CGA:  86    -0.340370745135E+03   -0.38228E-01   -0.34973E-01 10584   0.125E+01-0.274E-01
CGA:  87    -0.340423907809E+03   -0.53163E-01   -0.53115E-01 10584   0.135E+01-0.497E-01
CGA:  88    -0.340477625172E+03   -0.53717E-01   -0.53687E-01 10584   0.415E+00-0.777E-01
CGA:  89    -0.340483397265E+03   -0.57721E-02   -0.54570E-02 10584   0.188E+00 0.584E-01
CGA:  90    -0.340489849778E+03   -0.64525E-02   -0.65021E-02 10584   0.354E+00 0.920E-02
CGA:  91    -0.340501705733E+03   -0.11856E-01   -0.11529E-01 10584   0.461E+00-0.362E-01
CGA:  92    -0.340510691448E+03   -0.89857E-02   -0.80906E-02 10584   0.265E+00-0.820E-01
CGA:  93    -0.340517350099E+03   -0.66587E-02   -0.60953E-02 10584   0.311E+00-0.674E-01
CGA:  94    -0.340524263177E+03   -0.69131E-02   -0.64015E-02 10584   0.288E+00-0.483E-01
CGA:  95    -0.340530789957E+03   -0.65268E-02   -0.62033E-02 10584   0.254E+00-0.248E-01
CGA:  96    -0.340536914831E+03   -0.61249E-02   -0.56982E-02 10584   0.186E+00-0.339E-01
CGA:  97    -0.340542501504E+03   -0.55867E-02   -0.55373E-02 10584   0.155E+00-0.451E-01
CGA:  98    -0.340548347538E+03   -0.58460E-02   -0.10997E-01 10584   0.449E+00-0.832E-01
CGA:  99    -0.340557093473E+03   -0.87459E-02   -0.90834E-02 10584   0.428E-01 0.437E-01
CGA: 100    -0.340560556651E+03   -0.34632E-02   -0.31944E-02 10584   0.480E-01 0.927E-02
CGA: 101    -0.340563297539E+03   -0.27409E-02   -0.29377E-02 10584   0.337E-01-0.185E-01
CGA: 102    -0.340564310547E+03   -0.10130E-02   -0.99429E-03 10584   0.189E-01 0.259E-02
CGA: 103    -0.340566110809E+03   -0.18003E-02   -0.16761E-02 10584   0.321E-01 0.313E-02
CGA: 104    -0.340568086825E+03   -0.19760E-02   -0.22681E-02 10584   0.229E-01-0.160E-01
CGA: 105    -0.340568409359E+03   -0.32253E-03   -0.36491E-03 10584   0.141E-01 0.398E-02
CGA: 106    -0.340568893212E+03   -0.48385E-03   -0.54808E-03 10584   0.151E-01 0.701E-02
CGA: 107    -0.340570395083E+03   -0.15019E-02   -0.13860E-02 10584   0.842E-02 0.656E-02
CGA: 108    -0.340571066292E+03   -0.67121E-03   -0.77417E-03 10584   0.248E-01-0.487E-02
CGA: 109    -0.340571434932E+03   -0.36864E-03   -0.48740E-03 10584   0.452E-02 0.534E-02
CGA: 110    -0.340571845575E+03   -0.41064E-03   -0.41551E-03 10584   0.121E-01-0.101E-03
CGA: 111    -0.340571433027E+03    0.41255E-03   -0.13380E-02 10584   0.353E-01-0.251E-01
CGA: 112    -0.340572892495E+03   -0.14595E-02   -0.15172E-02 10584   0.183E-01 0.114E-01
CGA: 113    -0.340574121236E+03   -0.12287E-02   -0.12265E-02 10584   0.413E-02 0.904E-03
CGA: 114    -0.340574182043E+03   -0.60807E-04   -0.10521E-03 10584   0.140E-02 0.191E-02
CGA: 115    -0.340574286769E+03   -0.10473E-03   -0.10225E-03 10584   0.258E-02 0.785E-03
CGA: 116    -0.340574552948E+03   -0.26618E-03    0.62000E-03 10584   0.334E-02-0.479E-03
CGA: 117    -0.340575067919E+03   -0.51497E-03   -0.66155E-05 10584   0.387E-01-0.230E-02
CGA: 118    -0.340576656715E+03   -0.15888E-02   -0.15726E-02 10584   0.319E-02-0.279E-02
CGA: 119    -0.340577036030E+03   -0.37931E-03   -0.40714E-03 10584   0.547E-02-0.483E-03
CGA: 120    -0.340577105107E+03   -0.69077E-04   -0.13774E-03 10584   0.285E-02 0.132E-02
CGA: 121    -0.340577507670E+03   -0.40256E-03   -0.51717E-03 10584   0.229E-01-0.171E-02
CGA: 122    -0.340578303883E+03   -0.79621E-03   -0.64287E-03 10584   0.523E-02-0.417E-02
CGA: 123    -0.340578339971E+03   -0.36088E-04   -0.10836E-03 10584   0.116E-02 0.128E-02
CGA: 124    -0.340578362059E+03   -0.22088E-04   -0.49082E-04 10584   0.154E-02 0.592E-03
CGA: 125    -0.340578639755E+03   -0.27770E-03    0.40656E-03 10584   0.754E-02-0.135E-02
CGA: 126    -0.340578653969E+03   -0.14214E-04   -0.11900E-03 10584   0.941E-03 0.180E-02
CGA: 127    -0.340578647180E+03    0.67892E-05   -0.24309E-04 10584   0.938E-03 0.579E-03
CGA: 128    -0.340578855305E+03   -0.20813E-03    0.63966E-04 10584   0.225E-02 0.233E-03
CGA: 129    -0.340579266197E+03   -0.41089E-03    0.95448E-02 10584   0.786E-03 0.244E-02
CGA: 130    -0.340579343664E+03   -0.77467E-04   -0.71692E-04 10584   0.182E-02 0.319E-03
CGA: 131    -0.340579853686E+03   -0.51002E-03    0.26013E-03 10584   0.148E-02 0.171E-02
CGA: 132    -0.340579849074E+03    0.46123E-05   -0.31497E-04 10584   0.682E-03 0.700E-03
CGA: 133    -0.340579890429E+03   -0.41355E-04   -0.50002E-04 10584   0.132E-02 0.426E-03
CGA: 134    -0.340580127734E+03   -0.23730E-03    0.15966E-03 10584   0.426E-02-0.917E-03
CGA: 135    -0.340580119410E+03    0.83238E-05   -0.63913E-04 10584   0.784E-03 0.135E-02
CGA: 136    -0.340580110203E+03    0.92077E-05   -0.17450E-04 10584   0.675E-03 0.536E-03
CGA: 137    -0.340580252894E+03   -0.14269E-03    0.34094E-04 10584   0.116E-02 0.332E-03
CGA: 138    -0.340580676317E+03   -0.42342E-03   -0.79284E-05 10584   0.403E-01-0.935E-03
CGA: 139    -0.340581866314E+03   -0.11900E-02   -0.86617E-03 10584   0.220E-02-0.605E-02
CGA: 140    -0.340581878146E+03   -0.11832E-04   -0.48794E-04 10584   0.461E-03 0.461E-03
CGA: 141    -0.340581768337E+03    0.10981E-03   -0.10505E-03 10584   0.435E-01-0.886E-03
CGA: 142    -0.340582985310E+03   -0.12170E-02   -0.11778E-02 10584   0.868E-02-0.119E-01
CGA: 143    -0.340583001340E+03   -0.16031E-04   -0.14949E-03 10584   0.817E-03 0.945E-03
CGA: 144    -0.340582987487E+03    0.13853E-04   -0.22200E-04 10584   0.632E-03 0.245E-03
CGA: 145    -0.340583133406E+03   -0.14592E-03   -0.27573E-03 10584   0.190E-01-0.773E-03
CGA: 146    -0.340583785945E+03   -0.65254E-03   -0.54477E-03 10584   0.351E-02-0.266E-02
CGA: 147    -0.340583775148E+03    0.10798E-04   -0.67571E-04 10584   0.595E-03 0.563E-03
CGA: 148    -0.340583782228E+03   -0.70800E-05   -0.30494E-04 10584   0.112E-02 0.200E-03
CGA: 149    -0.340584356088E+03   -0.57386E-03    0.59608E-03 10584   0.352E-02 0.410E-03
CGA: 150    -0.340582352361E+03    0.20037E-02   -0.24040E-02 10584   0.162E+00-0.125E-01
CGA: 151    -0.340586822348E+03   -0.44700E-02   -0.40546E-02 10584   0.317E-01 0.314E-01
CGA: 152    -0.340589013987E+03   -0.21916E-02   -0.22548E-02 10584   0.257E-01-0.199E-02
CGA: 153    -0.340590207708E+03   -0.11937E-02   -0.12977E-02 10584   0.840E-02 0.109E-02
CGA: 154    -0.340590288191E+03   -0.80483E-04   -0.19015E-03 10584   0.183E-02 0.153E-02
CGA: 155    -0.340590369273E+03   -0.81081E-04   -0.10234E-03 10584   0.254E-02 0.270E-03
CGA: 156    -0.340590745259E+03   -0.37599E-03   -0.29338E-03 10584   0.623E-02-0.181E-02
CGA: 157    -0.340590900805E+03   -0.15555E-03   -0.19108E-03 10584   0.115E-02 0.424E-03
CGA: 158    -0.340591073630E+03   -0.17283E-03   -0.14451E-03 10584   0.734E-02-0.139E-02
CGA: 159    -0.340591101959E+03   -0.28328E-04   -0.14803E-03 10584   0.789E-03 0.117E-02
CGA: 160    -0.340591113828E+03   -0.11870E-04   -0.30270E-04 10584   0.462E-03 0.207E-03
CGA: 161    -0.340588697034E+03    0.24168E-02   -0.14107E-02 10584   0.137E+00-0.393E-02
CGA: 162    -0.340591514351E+03   -0.28173E-02   -0.23006E-02 10584   0.193E-01 0.461E-01
CGA: 163    -0.340592017274E+03   -0.50292E-03   -0.52135E-03 10584   0.355E-02 0.205E-02
CGA: 164    -0.340592272585E+03   -0.25531E-03   -0.14091E-03 10584   0.174E-02-0.970E-03
CGA: 165    -0.340592495571E+03   -0.22299E-03   -0.17670E-03 10584   0.402E-02-0.747E-03
CGA: 166    -0.340592498942E+03   -0.33714E-05   -0.41869E-04 10584   0.214E-02 0.311E-03
CGA: 167    -0.340592496094E+03    0.28478E-05   -0.57677E-04 10584   0.258E-02 0.441E-03
CGA: 168    -0.340592666371E+03   -0.17028E-03   -0.19465E-03 10584   0.619E-02 0.367E-03
CGA: 169    -0.340592992534E+03   -0.32616E-03   -0.22566E-03 10584   0.274E-02-0.158E-02
CGA: 170    -0.340593336809E+03   -0.34427E-03   -0.34108E-03 10584   0.441E-01-0.314E-02
CGA: 171    -0.340594000451E+03   -0.66364E-03   -0.83703E-03 10584   0.335E-02 0.584E-02
CGA: 172    -0.340594172537E+03   -0.17209E-03   -0.19774E-03 10584   0.390E-02 0.274E-03
CGA: 173    -0.340594489628E+03   -0.31709E-03   -0.19274E-03 10584   0.100E-02-0.121E-02
CGA: 174    -0.340594587305E+03   -0.97676E-04   -0.97822E-04 10584   0.227E-02 0.338E-04
CGA: 175    -0.340595043603E+03   -0.45630E-03   -0.48085E-03 10584   0.664E-02-0.299E-03
CGA: 176    -0.340595693071E+03   -0.64947E-03   -0.55595E-03 10584   0.192E-01-0.335E-02
CGA: 177    -0.340596005073E+03   -0.31200E-03   -0.46799E-03 10584   0.394E-02 0.173E-02
CGA: 178    -0.340596544579E+03   -0.53951E-03   -0.50885E-03 10584   0.368E-02-0.123E-02
CGA: 179    -0.340596829080E+03   -0.28450E-03   -0.14908E-03 10584   0.453E-02-0.170E-02
CGA: 180    -0.340596957211E+03   -0.12813E-03   -0.12064E-03 10584   0.415E-02-0.268E-04
CGA: 181    -0.340597079911E+03   -0.12270E-03   -0.18278E-03 10584   0.280E-02 0.794E-03
CGA: 182    -0.340597248147E+03   -0.16824E-03   -0.13639E-03 10584   0.130E-02-0.435E-03
CGA: 183    -0.340597372008E+03   -0.12386E-03   -0.40272E-03 10584   0.101E-01-0.106E-02
CGA: 184    -0.340597870125E+03   -0.49812E-03   -0.50525E-03 10584   0.315E-02 0.484E-03
CGA: 185    -0.340598301018E+03   -0.43089E-03   -0.38283E-03 10584   0.776E-02-0.295E-02
CGA: 186    -0.340598340259E+03   -0.39241E-04   -0.15977E-03 10584   0.104E-02 0.127E-02
CGA: 187    -0.340598348397E+03   -0.81384E-05   -0.50569E-04 10584   0.970E-03 0.514E-03
CGA: 188    -0.340598440360E+03   -0.91962E-04   -0.86412E-04 10584   0.638E-03-0.877E-04
CGA: 189    -0.340598497366E+03   -0.57006E-04   -0.60006E-04 10584   0.125E-02 0.214E-03
CGA: 190    -0.340598977067E+03   -0.47970E-03    0.44465E-03 10584   0.118E-02 0.148E-02
CGA: 191    -0.340599256306E+03   -0.27924E-03    0.52109E+00 10584   0.282E-02-0.451E-03
CGA: 192    -0.340599325791E+03   -0.69485E-04   -0.54026E-04 10584   0.133E-02-0.146E-03
CGA: 193    -0.340599348034E+03   -0.22243E-04   -0.37556E-04 10584   0.140E-02 0.213E-03
CGA: 194    -0.340599531765E+03   -0.18373E-03   -0.18670E-03 10584   0.611E-02-0.471E-03
CGA: 195    -0.340599752333E+03   -0.22057E-03   -0.13896E-03 10584   0.846E-02-0.133E-02
CGA: 196    -0.340600051710E+03   -0.29938E-03   -0.20732E-03 10584   0.817E-02-0.130E-02
CGA: 197    -0.340600300628E+03   -0.24892E-03   -0.17149E-03 10584   0.866E-02 0.106E-02
CGA: 198    -0.340600761332E+03   -0.46070E-03   -0.31600E-03 10584   0.152E-01 0.135E-02
CGA: 199    -0.340601466484E+03   -0.70515E-03   -0.37819E-03 10584   0.217E-01 0.460E-02
CGA: 200    -0.340602433977E+03   -0.96749E-03   -0.50892E-03 10584   0.180E-01 0.451E-02
   1 F= -.34060243E+03 E0= -.34059860E+03  d E =-.340602E+03  mag=    14.0000
       N       E                     dE             d eps       ncg     rms          ort
SDA:   1    -0.339775656623E+03    0.82581E+00    0.00000E+00 10584   0.490E+02 0.000E+00
CGA:   2    -0.340101188111E+03   -0.32553E+00   -0.19613E+01 10584   0.133E+02-0.110E+02
CGA:   3    -0.340534481020E+03   -0.43329E+00   -0.28575E+00 10584   0.231E+01 0.375E+01
CGA:   4    -0.340582995077E+03   -0.48514E-01   -0.32700E-01 10584   0.670E+00 0.144E+01
CGA:   5    -0.340601992264E+03   -0.18997E-01   -0.16585E-01 10584   0.558E-01 0.941E-01
CGA:   6    -0.340605254159E+03   -0.32619E-02   -0.31779E-02 10584   0.323E-01-0.634E-02
CGA:   7    -0.340608604339E+03   -0.33502E-02   -0.43335E-02 10584   0.764E-01-0.119E-01
CGA:   8    -0.340609439947E+03   -0.83561E-03   -0.85856E-03 10584   0.255E-01 0.443E-02
CGA:   9    -0.340609712397E+03   -0.27245E-03   -0.42374E-03 10584   0.106E-01 0.311E-02
CGA:  10    -0.340609948521E+03   -0.23612E-03   -0.34461E-03 10584   0.147E-01 0.267E-02
CGA:  11    -0.340610581694E+03   -0.63317E-03   -0.68369E-03 10584   0.101E-01 0.166E-02
CGA:  12    -0.340610915020E+03   -0.33333E-03   -0.25782E-03 10584   0.289E-02-0.189E-02
CGA:  13    -0.340606924561E+03    0.39905E-02   -0.22204E-02 10584   0.160E+00-0.138E-01
CGA:  14    -0.340610153898E+03   -0.32293E-02   -0.35188E-02 10584   0.893E-02 0.150E-01
CGA:  15    -0.340610659208E+03   -0.50531E-03   -0.58317E-03 10584   0.943E-02 0.169E-02
CGA:  16    -0.340611518777E+03   -0.85957E-03   -0.80354E-03 10584   0.724E-02-0.157E-02
CGA:  17    -0.340611724553E+03   -0.20578E-03   -0.21455E-03 10584   0.139E-02 0.158E-03
CGA:  18    -0.340611759951E+03   -0.35397E-04   -0.50292E-04 10584   0.103E-02 0.227E-03
CGA:  19    -0.340611889209E+03   -0.12926E-03   -0.14895E-03 10584   0.133E-02-0.875E-03
CGA:  20    -0.340611968783E+03   -0.79574E-04   -0.83580E-04 10584   0.668E-03 0.107E-03
CGA:  21    -0.340611968502E+03    0.28087E-06   -0.22017E-04 10584   0.212E-03 0.323E-03
CGA:  22    -0.340611979506E+03   -0.11004E-04   -0.14562E-04 10584   0.206E-03 0.725E-04
CGA:  23    -0.340612048713E+03   -0.69207E-04    0.40200E-04 10584   0.601E-03 0.320E-04
CGA:  24    -0.340612060867E+03   -0.12155E-04   -0.15160E-03 10584   0.290E-02-0.100E-02
CGA:  25    -0.340612261301E+03   -0.20043E-03   -0.20678E-03 10584   0.237E-02 0.229E-03
CGA:  26    -0.340612514124E+03   -0.25282E-03   -0.24159E-03 10584   0.491E-02-0.230E-02
CGA:  27    -0.340612537836E+03   -0.23712E-04   -0.10329E-03 10584   0.680E-03 0.108E-02
CGA:  28    -0.340612536401E+03    0.14356E-05   -0.23892E-04 10584   0.493E-03 0.385E-03
CGA:  29    -0.340610380096E+03    0.21563E-02   -0.12014E-02 10584   0.989E-01-0.478E-02
CGA:  30    -0.340612302277E+03   -0.19222E-02   -0.20558E-02 10584   0.470E-02 0.133E-01
CGA:  31    -0.340612459845E+03   -0.15757E-03   -0.20988E-03 10584   0.337E-02 0.484E-03
CGA:  32    -0.340612751512E+03   -0.29167E-03   -0.20688E-03 10584   0.312E-03-0.897E-03
CGA:  33    -0.340611677915E+03    0.10736E-02   -0.16949E-03 10584   0.619E-01-0.208E-02
CGA:  34    -0.340612767016E+03   -0.10891E-02   -0.12601E-02 10584   0.171E-02 0.758E-02
CGA:  35    -0.340612791962E+03   -0.24947E-04   -0.56273E-04 10584   0.804E-03 0.237E-03
CGA:  36    -0.340612943585E+03   -0.15162E-03   -0.11803E-03 10584   0.102E-02-0.958E-03
CGA:  37    -0.340613021966E+03   -0.78381E-04   -0.78427E-04 10584   0.524E-03 0.378E-05
CGA:  38    -0.340613004222E+03    0.17744E-04   -0.10942E-04 10584   0.120E-03 0.212E-03
CGA:  39    -0.340612995185E+03    0.90367E-05   -0.27770E-05 10584   0.702E-04 0.884E-04
CGA:  40    -0.340613023183E+03   -0.27998E-04    0.13182E-04 10584   0.156E-03 0.386E-04
CGA:  41    -0.340613021945E+03    0.12382E-05   -0.47168E-05 10584   0.678E-04 0.534E-04
CGA:  42    -0.340613054348E+03   -0.32404E-04    0.22065E-04 10584   0.328E-03 0.254E-04
CGA:  43    -0.340613258463E+03   -0.20411E-03    0.49084E-04 10584   0.984E-03 0.360E-03
CGA:  44    -0.340613262095E+03   -0.36319E-05   -0.26277E-04 10584   0.102E-03 0.225E-03
   2 F= -.34061326E+03 E0= -.34060965E+03  d E =-.108281E-01  mag=    14.0000
       N       E                     dE             d eps       ncg     rms          ort
SDA:   1    -0.340566243657E+03    0.47015E-01    0.00000E+00 10584   0.238E+00 0.000E+00
CGA:   2    -0.340590402368E+03   -0.24159E-01   -0.23767E-01 10584   0.412E+00 0.390E-02
CGA:   3    -0.340626921551E+03   -0.36519E-01   -0.36328E-01 10584   0.214E+00-0.107E-01
CGA:   4    -0.340635060613E+03   -0.81391E-02   -0.74476E-02 10584   0.398E-01 0.257E-01
CGA:   5    -0.340641535598E+03   -0.64750E-02   -0.64123E-02 10584   0.606E-01 0.279E-02
CGA:   6    -0.340644095654E+03   -0.25601E-02   -0.25464E-02 10584   0.154E-01-0.494E-02
CGA:   7    -0.340644850894E+03   -0.75524E-03   -0.86268E-03 10584   0.879E-02 0.213E-02
CGA:   8    -0.340645801082E+03   -0.95019E-03   -0.94659E-03 10584   0.260E-02-0.201E-03
CGA:   9    -0.340646081367E+03   -0.28029E-03   -0.27664E-03 10584   0.576E-02-0.787E-03
CGA:  10    -0.340646169555E+03   -0.88188E-04   -0.14269E-03 10584   0.266E-02 0.720E-03
CGA:  11    -0.340646210682E+03   -0.41128E-04   -0.77892E-04 10584   0.119E-02 0.506E-03
CGA:  12    -0.340646327409E+03   -0.11673E-03   -0.10109E-03 10584   0.228E-02-0.465E-03
CGA:  13    -0.340646443763E+03   -0.11635E-03   -0.73856E-04 10584   0.395E-02-0.848E-03
CGA:  14    -0.340646500853E+03   -0.57089E-04   -0.52207E-04 10584   0.241E-02-0.202E-04
CGA:  15    -0.340646507475E+03   -0.66225E-05   -0.34509E-04 10584   0.883E-03 0.429E-03
CGA:  16    -0.340646499831E+03    0.76446E-05   -0.15564E-04 10584   0.595E-03 0.314E-03
CGA:  17    -0.340646501273E+03   -0.14420E-05   -0.20266E-04 10584   0.920E-03 0.302E-03
CGA:  18    -0.340645105710E+03    0.13956E-02   -0.35093E-03 10584   0.763E-01-0.585E-02
CGA:  19    -0.340646621876E+03   -0.15162E-02   -0.17827E-02 10584   0.309E-02 0.761E-02
CGA:  20    -0.340646685581E+03   -0.63705E-04   -0.92860E-04 10584   0.296E-03 0.541E-03
CGA:  21    -0.340646717889E+03   -0.32308E-04   -0.24054E-04 10584   0.807E-03-0.339E-03
CGA:  22    -0.340646719499E+03   -0.16106E-05   -0.17695E-04 10584   0.132E-03 0.238E-03
   3 F= -.34064672E+03 E0= -.34064323E+03  d E =-.334574E-01  mag=    14.0000
       N       E                     dE             d eps       ncg     rms          ort
SDA:   1    -0.340209670734E+03    0.43705E+00    0.00000E+00 10584   0.138E+01 0.000E+00
CGA:   2    -0.340354390552E+03   -0.14472E+00   -0.14796E+00 10584   0.389E+01-0.974E-01
CGA:   3    -0.340595495382E+03   -0.24110E+00   -0.24155E+00 10584   0.552E+00-0.211E-01
CGA:   4    -0.340633131283E+03   -0.37636E-01   -0.38240E-01 10584   0.724E+00-0.152E-02
CGA:   5    -0.340676519655E+03   -0.43388E-01   -0.43542E-01 10584   0.141E+00 0.216E-01
CGA:   6    -0.340687570867E+03   -0.11051E-01   -0.11070E-01 10584   0.138E+00 0.388E-02
CGA:   7    -0.340695777164E+03   -0.82063E-02   -0.81091E-02 10584   0.687E-01-0.660E-02
CGA:   8    -0.340698325437E+03   -0.25483E-02   -0.26769E-02 10584   0.139E-01 0.685E-02
CGA:   9    -0.340699705376E+03   -0.13799E-02   -0.13501E-02 10584   0.203E-01 0.368E-02
CGA:  10    -0.340701397715E+03   -0.16923E-02   -0.16364E-02 10584   0.728E-02-0.345E-02
CGA:  11    -0.340701654863E+03   -0.25715E-03   -0.30605E-03 10584   0.368E-02 0.170E-02
CGA:  12    -0.340702420650E+03   -0.76579E-03   -0.83156E-03 10584   0.373E-02-0.615E-03
CGA:  13    -0.340702668250E+03   -0.24760E-03   -0.23895E-03 10584   0.288E-02-0.131E-02
CGA:  14    -0.340702733547E+03   -0.65297E-04   -0.92151E-04 10584   0.210E-02 0.799E-03
CGA:  15    -0.340702869476E+03   -0.13593E-03   -0.15139E-03 10584   0.105E-02 0.645E-03
CGA:  16    -0.340702790157E+03    0.79319E-04   -0.35652E-03 10584   0.149E-01-0.241E-02
CGA:  17    -0.340702977735E+03   -0.18758E-03   -0.32063E-03 10584   0.107E-02 0.241E-02
CGA:  18    -0.340702994885E+03   -0.17149E-04   -0.42942E-04 10584   0.927E-03 0.507E-03
CGA:  19    -0.340703167730E+03   -0.17284E-03   -0.22016E-03 10584   0.740E-03-0.605E-03
CGA:  20    -0.340703231969E+03   -0.64240E-04   -0.63805E-04 10584   0.173E-02-0.473E-03
CGA:  21    -0.340703225740E+03    0.62292E-05   -0.31461E-04 10584   0.257E-03 0.569E-03
   4 F= -.34070323E+03 E0= -.34069997E+03  d E =-.565062E-01  mag=    14.0000
       N       E                     dE             d eps       ncg     rms          ort
SDA:   1    -0.340453336258E+03    0.24990E+00    0.00000E+00 10584   0.705E+00 0.000E+00
CGA:   2    -0.340649882770E+03   -0.19655E+00   -0.19807E+00 10584   0.569E+00-0.726E-02
CGA:   3    -0.340683864745E+03   -0.33982E-01   -0.34266E-01 10584   0.508E+00-0.189E-01
CGA:   4    -0.340717439464E+03   -0.33575E-01   -0.33617E-01 10584   0.959E-01 0.177E-01
CGA:   5    -0.340728429220E+03   -0.10990E-01   -0.10968E-01 10584   0.782E-01 0.219E-02
CGA:   6    -0.340734157336E+03   -0.57281E-02   -0.57532E-02 10584   0.121E-01 0.289E-03
CGA:   7    -0.340735592656E+03   -0.14353E-02   -0.13576E-02 10584   0.849E-02 0.331E-02
CGA:   8    -0.340736421440E+03   -0.82878E-03   -0.77999E-03 10584   0.120E-01-0.298E-02
CGA:   9    -0.340736742112E+03   -0.32067E-03   -0.36807E-03 10584   0.591E-02 0.118E-02
CGA:  10    -0.340736794312E+03   -0.52201E-04   -0.14000E-03 10584   0.199E-02 0.145E-02
CGA:  11    -0.340736888920E+03   -0.94607E-04   -0.12263E-03 10584   0.332E-02 0.835E-03
CGA:  12    -0.340737311659E+03   -0.42274E-03   -0.44523E-03 10584   0.158E-02-0.171E-02
CGA:  13    -0.340737483598E+03   -0.17194E-03   -0.17428E-03 10584   0.134E-02-0.783E-04
CGA:  14    -0.340737496635E+03   -0.13037E-04   -0.41707E-04 10584   0.430E-03 0.572E-03
CGA:  15    -0.340737508885E+03   -0.12250E-04   -0.20722E-04 10584   0.218E-03 0.186E-03
CGA:  16    -0.340737568508E+03   -0.59623E-04    0.56477E-04 10584   0.434E-03 0.726E-04
CGA:  17    -0.340736539046E+03    0.10295E-02   -0.55741E-03 10584   0.128E-01-0.303E-02
CGA:  18    -0.340737205385E+03   -0.66634E-03   -0.79361E-03 10584   0.340E-02 0.204E-02
CGA:  19    -0.340737474458E+03   -0.26907E-03   -0.27995E-03 10584   0.139E-02 0.170E-03
CGA:  20    -0.340737521055E+03   -0.46597E-04   -0.88760E-04 10584   0.110E-02 0.564E-03
CGA:  21    -0.340737744452E+03   -0.22340E-03   -0.25000E-03 10584   0.176E-02-0.894E-03
CGA:  22    -0.340737757130E+03   -0.12678E-04   -0.51136E-04 10584   0.304E-03 0.404E-03
CGA:  23    -0.340737770777E+03   -0.13647E-04   -0.19537E-04 10584   0.226E-03 0.786E-04
CGA:  24    -0.340737786346E+03   -0.15569E-04   -0.19439E-04 10584   0.195E-03 0.697E-04
CGA:  25    -0.340737781105E+03    0.52404E-05   -0.74902E-05 10584   0.107E-03 0.140E-03
CGA:  26    -0.340737796707E+03   -0.15602E-04   -0.18299E-04 10584   0.293E-03-0.494E-04
CGA:  27    -0.340737881820E+03   -0.85113E-04    0.76529E-05 10584   0.126E-02-0.389E-03
CGA:  28    -0.340737861501E+03    0.20320E-04   -0.29524E-04 10584   0.378E-03 0.529E-03
CGA:  29    -0.340737847792E+03    0.13709E-04   -0.12312E-04 10584   0.203E-03 0.287E-03
CGA:  30    -0.340737870186E+03   -0.22394E-04   -0.22625E-04 10584   0.627E-03-0.177E-03
CGA:  31    -0.340737855997E+03    0.14189E-04   -0.96431E-05 10584   0.116E-03 0.254E-03
CGA:  32    -0.340737849141E+03    0.68566E-05   -0.16206E-05 10584   0.472E-04 0.889E-04
   5 F= -.34073785E+03 E0= -.34073479E+03  d E =-.346234E-01  mag=    14.0000
       N       E                     dE             d eps       ncg     rms          ort
SDA:   1    -0.338255568763E+03    0.24823E+01    0.00000E+00 10584   0.682E+01 0.000E+00
CGA:   2    -0.339754405015E+03   -0.14988E+01   -0.13779E+01 10584   0.460E+01 0.102E+01
CGA:   3    -0.340293745112E+03   -0.53934E+00   -0.53751E+00 10584   0.501E+01-0.222E+01
CGA:   4    -0.340452043911E+03   -0.15830E+00   -0.15474E+00 10584   0.834E+01 0.517E-01
CGA:   5    -0.340645525503E+03   -0.19348E+00   -0.25252E+00 10584   0.850E+00-0.150E+01
CGA:   6    -0.340716425993E+03   -0.70900E-01   -0.70889E-01 10584   0.918E+00-0.519E-02
CGA:   7    -0.340748384441E+03   -0.31958E-01   -0.30310E-01 10584   0.149E+00 0.877E-01
CGA:   8    -0.340774519059E+03   -0.26135E-01   -0.25298E-01 10584   0.211E+00 0.138E-01
CGA:   9    -0.340782766535E+03   -0.82475E-02   -0.83044E-02 10584   0.541E-01-0.202E-01
CGA:  10    -0.340789499934E+03   -0.67334E-02   -0.65584E-02 10584   0.367E-01 0.428E-02
CGA:  11    -0.340792448401E+03   -0.29485E-02   -0.27793E-02 10584   0.433E-01-0.799E-02
CGA:  12    -0.340794713312E+03   -0.22649E-02   -0.22952E-02 10584   0.865E-02 0.108E-02
CGA:  13    -0.340795404120E+03   -0.69081E-03   -0.71074E-03 10584   0.123E-01 0.159E-02
CGA:  14    -0.340796824418E+03   -0.14203E-02   -0.14517E-02 10584   0.899E-02-0.433E-02
CGA:  15    -0.340796914449E+03   -0.90031E-04   -0.15711E-03 10584   0.291E-02 0.101E-02
CGA:  16    -0.340796945755E+03   -0.31306E-04   -0.90561E-04 10584   0.232E-02 0.962E-03
CGA:  17    -0.340797192560E+03   -0.24680E-03   -0.25058E-03 10584   0.409E-02 0.706E-03
CGA:  18    -0.340797511141E+03   -0.31858E-03   -0.26239E-03 10584   0.120E-02-0.157E-02
CGA:  19    -0.340797505942E+03    0.51985E-05   -0.19063E-04 10584   0.803E-03 0.420E-03
CGA:  20    -0.340797492048E+03    0.13894E-04   -0.23439E-04 10584   0.499E-03 0.633E-03
CGA:  21    -0.340797547040E+03   -0.54992E-04   -0.50373E-04 10584   0.313E-03 0.207E-03
CGA:  22    -0.340797550640E+03   -0.35999E-05   -0.16195E-04 10584   0.155E-03 0.294E-03
CGA:  23    -0.340797585981E+03   -0.35341E-04    0.12766E-04 10584   0.113E-03 0.107E-03
CGA:  24    -0.340797584714E+03    0.12663E-05   -0.32899E-05 10584   0.891E-04 0.947E-04
CGA:  25    -0.340797621976E+03   -0.37262E-04   -0.26802E-04 10584   0.739E-04 0.475E-04
CGA:  26    -0.340797618540E+03    0.34363E-05   -0.92482E-06 10584   0.503E-04 0.593E-04
   6 F= -.34079762E+03 E0= -.34079460E+03  d E =-.597694E-01  mag=    14.0000
       N       E                     dE             d eps       ncg     rms          ort
SDA:   1    -0.336938115743E+03    0.38595E+01    0.00000E+00 10584   0.110E+02 0.000E+00
CGA:   2    -0.339186084223E+03   -0.22480E+01   -0.19670E+01 10584   0.629E+01 0.252E+01
CGA:   3    -0.339791988850E+03   -0.60590E+00   -0.78654E+00 10584   0.204E+02-0.809E+01
CGA:   4    -0.340198613270E+03   -0.40662E+00   -0.79421E+00 10584   0.496E+01-0.528E+01
CGA:   5    -0.340433724316E+03   -0.23511E+00   -0.21504E+00 10584   0.183E+01-0.166E-01
CGA:   6    -0.340583514899E+03   -0.14979E+00   -0.14967E+00 10584   0.138E+01 0.145E+00
CGA:   7    -0.340746463227E+03   -0.16295E+00   -0.15871E+00 10584   0.638E+00 0.125E+00
CGA:   8    -0.340788158443E+03   -0.41695E-01   -0.39276E-01 10584   0.329E+00 0.247E-01
CGA:   9    -0.340809164613E+03   -0.21006E-01   -0.21375E-01 10584   0.216E+00-0.881E-02
CGA:  10    -0.340824872784E+03   -0.15708E-01   -0.15738E-01 10584   0.588E-01 0.380E-02
CGA:  11    -0.340826948771E+03   -0.20760E-02   -0.23229E-02 10584   0.223E-01 0.812E-02
CGA:  12    -0.340828728144E+03   -0.17794E-02   -0.17735E-02 10584   0.257E-01-0.106E-02
CGA:  13    -0.340831812252E+03   -0.30841E-02   -0.31937E-02 10584   0.392E-01-0.207E-02
CGA:  14    -0.340832655084E+03   -0.84283E-03   -0.10444E-02 10584   0.822E-02 0.466E-02
CGA:  15    -0.340832960730E+03   -0.30565E-03   -0.36662E-03 10584   0.717E-02 0.165E-02
CGA:  16    -0.340833719456E+03   -0.75873E-03   -0.83669E-03 10584   0.119E-01-0.363E-02
CGA:  17    -0.340834198695E+03   -0.47924E-03   -0.50702E-03 10584   0.193E-02 0.774E-03
CGA:  18    -0.340834269813E+03   -0.71118E-04   -0.98925E-04 10584   0.823E-03 0.103E-02
CGA:  19    -0.340834273894E+03   -0.40814E-05   -0.29811E-03 10584   0.124E-01-0.999E-03
CGA:  20    -0.340834609058E+03   -0.33516E-03   -0.38223E-03 10584   0.391E-03 0.117E-02
CGA:  21    -0.340834369157E+03    0.23990E-03   -0.11917E-03 10584   0.147E-01-0.183E-02
CGA:  22    -0.340834690583E+03   -0.32143E-03   -0.41042E-03 10584   0.707E-03 0.231E-02
CGA:  23    -0.340834713575E+03   -0.22992E-04   -0.26343E-04 10584   0.135E-03 0.634E-04
CGA:  24    -0.340834732207E+03   -0.18632E-04   -0.17611E-04 10584   0.317E-03 0.345E-04
CGA:  25    -0.340834729054E+03    0.31532E-05   -0.13011E-04 10584   0.199E-03 0.283E-03
   7 F= -.34083473E+03 E0= -.34083180E+03  d E =-.371105E-01  mag=    14.0000
       N       E                     dE             d eps       ncg     rms          ort
SDA:   1    -0.337999790378E+03    0.28349E+01    0.00000E+00 10584   0.820E+01 0.000E+00
CGA:   2    -0.339445939985E+03   -0.14461E+01   -0.12564E+01 10584   0.636E+01 0.230E+01
CGA:   3    -0.340133655685E+03   -0.68772E+00   -0.62257E+00 10584   0.777E+01-0.140E+01
CGA:   4    -0.340271338246E+03   -0.13768E+00   -0.13856E+00 10584   0.110E+02-0.700E-01
CGA:   5    -0.340579777913E+03   -0.30844E+00   -0.35645E+00 10584   0.319E+01-0.103E+01
CGA:   6    -0.340711861557E+03   -0.13208E+00   -0.13049E+00 10584   0.208E+01 0.110E+00
CGA:   7    -0.340750378733E+03   -0.38517E-01   -0.27824E-01 10584   0.913E+00 0.888E+00
CGA:   8    -0.340773727908E+03   -0.23349E-01   -0.22431E-01 10584   0.587E+00 0.134E+00
CGA:   9    -0.340790829537E+03   -0.17102E-01   -0.15835E-01 10584   0.877E+00 0.725E-01
CGA:  10    -0.340814219431E+03   -0.23390E-01   -0.24356E-01 10584   0.117E+01-0.363E-01
CGA:  11    -0.340832110119E+03   -0.17891E-01   -0.18475E-01 10584   0.606E+00-0.925E-01
CGA:  12    -0.340839704918E+03   -0.75948E-02   -0.88090E-02 10584   0.320E+00-0.101E+00
CGA:  13    -0.340844316554E+03   -0.46116E-02   -0.47722E-02 10584   0.219E+00 0.863E-02
CGA:  14    -0.340847250022E+03   -0.29335E-02   -0.30568E-02 10584   0.121E+00 0.404E-01
CGA:  15    -0.340849108732E+03   -0.18587E-02   -0.23364E-02 10584   0.997E-01 0.163E-01
CGA:  16    -0.340851297121E+03   -0.21884E-02   -0.25076E-02 10584   0.139E+00 0.118E-01
CGA:  17    -0.340854759752E+03   -0.34626E-02   -0.35725E-02 10584   0.158E+00 0.510E-03
CGA:  18    -0.340857913341E+03   -0.31536E-02   -0.29301E-02 10584   0.103E+00-0.166E-01
CGA:  19    -0.340859938386E+03   -0.20250E-02   -0.17116E-02 10584   0.777E-01-0.169E-01
CGA:  20    -0.340861582909E+03   -0.16445E-02   -0.14767E-02 10584   0.656E-01-0.104E-01
CGA:  21    -0.340862493344E+03   -0.91044E-03   -0.89770E-03 10584   0.338E-01 0.153E-02
CGA:  22    -0.340862906014E+03   -0.41267E-03   -0.51294E-03 10584   0.204E-01 0.344E-02
CGA:  23    -0.340863303828E+03   -0.39781E-03   -0.46879E-03 10584   0.245E-01 0.307E-02
CGA:  24    -0.340864164837E+03   -0.86101E-03   -0.86790E-03 10584   0.403E-01 0.682E-03
CGA:  25    -0.340865230488E+03   -0.10657E-02   -0.99469E-03 10584   0.374E-01-0.417E-02
CGA:  26    -0.340865859378E+03   -0.62889E-03   -0.56439E-03 10584   0.231E-01-0.338E-02
CGA:  27    -0.340866137364E+03   -0.27799E-03   -0.31261E-03 10584   0.138E-01 0.872E-03
CGA:  28    -0.340866216784E+03   -0.79419E-04   -0.17168E-03 10584   0.776E-02 0.354E-02
CGA:  29    -0.340866223100E+03   -0.63167E-05   -0.10383E-03 10584   0.490E-02 0.363E-02
CGA:  30    -0.340866221095E+03    0.20048E-05   -0.82425E-04 10584   0.432E-02 0.331E-02
CGA:  31    -0.340866072166E+03    0.14893E-03   -0.22055E-03 10584   0.356E-01-0.583E-02
CGA:  32    -0.340867104030E+03   -0.10319E-02   -0.11144E-02 10584   0.781E-03 0.416E-02
CGA:  33    -0.340867126352E+03   -0.22321E-04   -0.29329E-04 10584   0.284E-03 0.235E-03
CGA:  34    -0.340867148667E+03   -0.22316E-04   -0.22616E-04 10584   0.391E-03 0.252E-03
CGA:  35    -0.340867172772E+03   -0.24104E-04   -0.24126E-04 10584   0.282E-03 0.398E-04
CGA:  36    -0.340867219887E+03   -0.47115E-04   -0.35296E-04 10584   0.197E-03 0.233E-03
CGA:  37    -0.340867215082E+03    0.48046E-05   -0.29660E-05 10584   0.131E-03 0.156E-03
   8 F= -.34086722E+03 E0= -.34086405E+03  d E =-.324860E-01  mag=    14.0000
       N       E                     dE             d eps       ncg     rms          ort
SDA:   1    -0.339933918553E+03    0.93330E+00    0.00000E+00 10584   0.237E+01 0.000E+00
CGA:   2    -0.340619892985E+03   -0.68597E+00   -0.79724E-03 10584   0.279E+01-0.601E+00
CGA:   3    -0.340699450320E+03   -0.79557E-01   -0.62216E-01 10584   0.107E+01 0.587E+00
CGA:   4    -0.340758156063E+03   -0.58706E-01   -0.50608E-01 10584   0.106E+01 0.211E+00
CGA:   5    -0.340822743271E+03   -0.64587E-01   -0.65348E-01 10584   0.855E+00 0.696E-02
CGA:   6    -0.340848775217E+03   -0.26032E-01   -0.29231E-01 10584   0.411E+00-0.984E-01
CGA:   7    -0.340862402938E+03   -0.13628E-01   -0.12898E-01 10584   0.217E+00 0.645E-02
CGA:   8    -0.340871549634E+03   -0.91467E-02   -0.90017E-02 10584   0.155E+00 0.257E-02
CGA:   9    -0.340877802650E+03   -0.62530E-02   -0.60300E-02 10584   0.831E-01-0.543E-02
CGA:  10    -0.340882007625E+03   -0.42050E-02   -0.40203E-02 10584   0.904E-01-0.685E-02
CGA:  11    -0.340885819044E+03   -0.38114E-02   -0.38989E-02 10584   0.459E-01 0.290E-02
CGA:  12    -0.340886685347E+03   -0.86630E-03   -0.11108E-02 10584   0.154E-01 0.662E-02
CGA:  13    -0.340887347605E+03   -0.66226E-03   -0.79772E-03 10584   0.228E-01 0.388E-02
CGA:  14    -0.340889201619E+03   -0.18540E-02   -0.18611E-02 10584   0.112E-01 0.493E-03
CGA:  15    -0.340889766564E+03   -0.56495E-03   -0.41269E-03 10584   0.503E-02-0.378E-02
CGA:  16    -0.340890116844E+03   -0.35028E-03   -0.48091E-03 10584   0.612E-02-0.194E-02
CGA:  17    -0.340890161732E+03   -0.44888E-04   -0.10585E-03 10584   0.409E-02 0.121E-02
CGA:  18    -0.340890272204E+03   -0.11047E-03   -0.18079E-03 10584   0.303E-02 0.180E-02
CGA:  19    -0.340890446524E+03   -0.17432E-03   -0.19419E-03 10584   0.132E-02 0.674E-03
CGA:  20    -0.340890572736E+03   -0.12621E-03   -0.12627E-03 10584   0.189E-02-0.102E-04
CGA:  21    -0.340890627882E+03   -0.55146E-04   -0.69961E-04 10584   0.967E-03 0.403E-03
CGA:  22    -0.340890678440E+03   -0.50558E-04   -0.47067E-04 10584   0.465E-03-0.102E-03
CGA:  23    -0.340890792669E+03   -0.11423E-03    0.15532E-04 10584   0.637E-03-0.231E-03
CGA:  24    -0.340890543059E+03    0.24961E-03   -0.87943E-04 10584   0.552E-02-0.166E-02
CGA:  25    -0.340890594656E+03   -0.51597E-04   -0.15140E-03 10584   0.144E-02 0.198E-02
CGA:  26    -0.340890608427E+03   -0.13771E-04   -0.58290E-04 10584   0.794E-03 0.946E-03
CGA:  27    -0.340890458611E+03    0.14982E-03   -0.20496E-03 10584   0.162E-01-0.193E-02
CGA:  28    -0.340890695687E+03   -0.23708E-03   -0.37306E-03 10584   0.804E-03 0.262E-02
CGA:  29    -0.340890715638E+03   -0.19950E-04   -0.28000E-04 10584   0.284E-03 0.161E-03
CGA:  30    -0.340890819752E+03   -0.10411E-03    0.14587E-04 10584   0.261E-03-0.162E-03
CGA:  31    -0.340890816692E+03    0.30602E-05   -0.58272E-05 10584   0.111E-03 0.158E-03
   9 F= -.34089082E+03 E0= -.34088780E+03  d E =-.236016E-01  mag=    14.0000
       N       E                     dE             d eps       ncg     rms          ort
SDA:   1    -0.340211145391E+03    0.67967E+00    0.00000E+00 10584   0.175E+01 0.000E+00
CGA:   2    -0.340653315806E+03   -0.44217E+00   -0.43834E+00 10584   0.314E+01 0.438E-01
CGA:   3    -0.340786796846E+03   -0.13348E+00   -0.11995E+00 10584   0.520E+00 0.283E+00
CGA:   4    -0.340845739866E+03   -0.58943E-01   -0.60377E-01 10584   0.468E+00-0.294E-01
CGA:   5    -0.340868019977E+03   -0.22280E-01   -0.22552E-01 10584   0.321E+00-0.167E-01
CGA:   6    -0.340891278229E+03   -0.23258E-01   -0.23253E-01 10584   0.601E-01-0.375E-02
CGA:   7    -0.340893205126E+03   -0.19269E-02   -0.21248E-02 10584   0.293E-01 0.662E-02
CGA:   8    -0.340896946233E+03   -0.37411E-02   -0.37015E-02 10584   0.255E-01 0.115E-02
CGA:   9    -0.340898138296E+03   -0.11921E-02   -0.10943E-02 10584   0.887E-02-0.344E-02
CGA:  10    -0.340898523787E+03   -0.38549E-03   -0.42578E-03 10584   0.543E-02 0.190E-02
CGA:  11    -0.340899033514E+03   -0.50973E-03   -0.50913E-03 10584   0.427E-02 0.612E-03
CGA:  12    -0.340899409784E+03   -0.37627E-03   -0.41086E-03 10584   0.849E-02-0.339E-02
CGA:  13    -0.340899462183E+03   -0.52398E-04   -0.18264E-03 10584   0.124E-02 0.248E-02
CGA:  14    -0.340899448383E+03    0.13799E-04   -0.32142E-04 10584   0.765E-03 0.860E-03
CGA:  15    -0.340899286466E+03    0.16192E-03   -0.11953E-03 10584   0.152E-01-0.128E-02
CGA:  16    -0.340899523585E+03   -0.23712E-03   -0.37796E-03 10584   0.107E-02 0.197E-02
CGA:  17    -0.340899616124E+03   -0.92539E-04   -0.82974E-04 10584   0.112E-02-0.161E-03
CGA:  18    -0.340899685571E+03   -0.69447E-04   -0.14667E-03 10584   0.741E-02-0.238E-02
CGA:  19    -0.340899709439E+03   -0.23868E-04   -0.19227E-03 10584   0.126E-02 0.194E-02
CGA:  20    -0.340899692812E+03    0.16627E-04   -0.43255E-04 10584   0.489E-03 0.690E-03
CGA:  21    -0.340899741916E+03   -0.49103E-04   -0.40735E-04 10584   0.820E-03-0.270E-03
CGA:  22    -0.340899723966E+03    0.17949E-04   -0.13853E-04 10584   0.171E-03 0.335E-03
CGA:  23    -0.340899714402E+03    0.95645E-05   -0.29820E-05 10584   0.861E-04 0.132E-03
  10 F= -.34089971E+03 E0= -.34089654E+03  d E =-.889771E-02  mag=    14.0000
       N       E                     dE             d eps       ncg     rms          ort
SDA:   1    -0.336679285197E+03    0.42204E+01    0.00000E+00 10584   0.111E+02 0.000E+00
CGA:   2    -0.339456563054E+03   -0.27773E+01   -0.25070E+01 10584   0.863E+01 0.197E+01
CGA:   3    -0.340057285253E+03   -0.60072E+00   -0.41394E+00 10584   0.356E+01 0.379E+01
CGA:   4    -0.340276144651E+03   -0.21886E+00   -0.16196E+00 10584   0.299E+01 0.149E+01
CGA:   5    -0.340523195795E+03   -0.24705E+00   -0.23783E+00 10584   0.380E+01 0.239E+00
CGA:   6    -0.340653540207E+03   -0.13034E+00   -0.15105E+00 10584   0.328E+01-0.364E+00
CGA:   7    -0.340758506923E+03   -0.10497E+00   -0.97056E-01 10584   0.210E+01 0.224E+00
CGA:   8    -0.340812511456E+03   -0.54005E-01   -0.44439E-01 10584   0.928E+00 0.463E+00
CGA:   9    -0.340839886035E+03   -0.27375E-01   -0.24476E-01 10584   0.447E+00 0.108E+00
CGA:  10    -0.340854158197E+03   -0.14272E-01   -0.14305E-01 10584   0.334E+00-0.357E-01
CGA:  11    -0.340865269811E+03   -0.11112E-01   -0.10646E-01 10584   0.348E+00-0.282E-01
CGA:  12    -0.340878159907E+03   -0.12890E-01   -0.12859E-01 10584   0.390E+00-0.103E-01
CGA:  13    -0.340886659129E+03   -0.84992E-02   -0.84618E-02 10584   0.147E+00 0.447E-01
CGA:  14    -0.340889132817E+03   -0.24737E-02   -0.30109E-02 10584   0.675E-01 0.212E-01
CGA:  15    -0.340891182962E+03   -0.20501E-02   -0.24248E-02 10584   0.950E-01 0.121E-01
CGA:  16    -0.340895620675E+03   -0.44377E-02   -0.46382E-02 10584   0.128E+00 0.731E-02
CGA:  17    -0.340899565296E+03   -0.39446E-02   -0.38039E-02 10584   0.744E-01-0.819E-02
CGA:  18    -0.340901880215E+03   -0.23149E-02   -0.20931E-02 10584   0.559E-01-0.871E-02
CGA:  19    -0.340903131031E+03   -0.12508E-02   -0.12030E-02 10584   0.273E-01-0.508E-03
CGA:  20    -0.340903610797E+03   -0.47977E-03   -0.56255E-03 10584   0.164E-01 0.233E-02
CGA:  21    -0.340904210015E+03   -0.59922E-03   -0.63857E-03 10584   0.260E-01 0.171E-02
CGA:  22    -0.340905627327E+03   -0.14173E-02   -0.13852E-02 10584   0.341E-01-0.282E-02
CGA:  23    -0.340906437634E+03   -0.81031E-03   -0.69011E-03 10584   0.159E-01-0.382E-02
CGA:  24    -0.340906709615E+03   -0.27198E-03   -0.28277E-03 10584   0.907E-02 0.109E-03
CGA:  25    -0.340906778344E+03   -0.68729E-04   -0.16679E-03 10584   0.668E-02 0.283E-02
CGA:  26    -0.340906799405E+03   -0.21061E-04   -0.15537E-03 10584   0.530E-02 0.391E-02
CGA:  27    -0.340907197495E+03   -0.39809E-03   -0.38064E-03 10584   0.396E-02 0.894E-03
CGA:  28    -0.340907731284E+03   -0.53379E-03   -0.55316E-03 10584   0.307E-02-0.282E-03
CGA:  29    -0.340907719539E+03    0.11745E-04   -0.52723E-04 10584   0.143E-02 0.173E-02
CGA:  30    -0.340907715496E+03    0.40436E-05   -0.28281E-04 10584   0.774E-03 0.949E-03
CGA:  31    -0.340907735437E+03   -0.19941E-04   -0.28863E-04 10584   0.532E-03 0.597E-03
CGA:  32    -0.340907910308E+03   -0.17487E-03   -0.47777E-05 10584   0.140E-02-0.664E-04
CGA:  33    -0.340907898335E+03    0.11973E-04   -0.30528E-04 10584   0.660E-03 0.620E-03
CGA:  34    -0.340907891588E+03    0.67475E-05   -0.24573E-04 10584   0.483E-03 0.483E-03
CGA:  35    -0.340907993164E+03   -0.10158E-03    0.10490E-03 10584   0.713E-03-0.296E-04
CGA:  36    -0.340907977494E+03    0.15670E-04   -0.14957E-04 10584   0.401E-03 0.471E-03
CGA:  37    -0.340907961116E+03    0.16377E-04   -0.44551E-05 10584   0.218E-03 0.287E-03
CGA:  38    -0.340907950661E+03    0.10455E-04   -0.22312E-05 10584   0.156E-03 0.181E-03
CGA:  39    -0.340907943027E+03    0.76338E-05   -0.16724E-05 10584   0.130E-03 0.141E-03
  11 F= -.34090794E+03 E0= -.34090447E+03  d E =-.822863E-02  mag=    14.0000
       N       E                     dE             d eps       ncg     rms          ort
SDA:   1    -0.324991571463E+03    0.15916E+02    0.00000E+00 10584   0.495E+02 0.000E+00
CGA:   2    -0.331662202091E+03   -0.66706E+01   -0.56302E+01 10584   0.325E+02 0.183E+02
CGA:   3    -0.335107673948E+03   -0.34455E+01   -0.47509E+01 10584   0.115E+03-0.333E+02
CGA:   4    -0.337597875531E+03   -0.24902E+01   -0.45486E+01 10584   0.203E+02-0.226E+02
CGA:   5    -0.338786522897E+03   -0.11886E+01   -0.74148E+00 10584   0.526E+01 0.429E+01
CGA:   6    -0.339193115920E+03   -0.40659E+00   -0.38025E+00 10584   0.156E+02-0.594E+00
CGA:   7    -0.339673412635E+03   -0.48030E+00   -0.45735E+00 10584   0.353E+02 0.474E+00
CGA:   8    -0.340376497234E+03   -0.70308E+00   -0.78551E+00 10584   0.111E+02-0.294E+01
CGA:   9    -0.340555256551E+03   -0.17876E+00   -0.23837E+00 10584   0.458E+01-0.107E+01
CGA:  10    -0.340603389051E+03   -0.48133E-01   -0.28821E-01 10584   0.284E+01 0.291E+01
CGA:  11    -0.340681981933E+03   -0.78593E-01   -0.66483E-01 10584   0.743E+00 0.538E+00
CGA:  12    -0.340767152960E+03   -0.85171E-01   -0.84645E-01 10584   0.210E+01 0.178E-01
CGA:  13    -0.340834705276E+03   -0.67552E-01   -0.68667E-01 10584   0.580E+00-0.967E-01
CGA:  14    -0.340852397054E+03   -0.17692E-01   -0.17822E-01 10584   0.210E+00-0.292E-01
CGA:  15    -0.340858364682E+03   -0.59676E-02   -0.63162E-02 10584   0.154E+00 0.186E-01
CGA:  16    -0.340871456653E+03   -0.13092E-01   -0.12693E-01 10584   0.278E+00 0.222E-01
CGA:  17    -0.340883077399E+03   -0.11621E-01   -0.11430E-01 10584   0.377E-01-0.208E-01
CGA:  18    -0.340885374662E+03   -0.22973E-02   -0.23865E-02 10584   0.553E-01-0.823E-02
CGA:  19    -0.340888460130E+03   -0.30855E-02   -0.29754E-02 10584   0.512E-01 0.992E-02
CGA:  20    -0.340890861650E+03   -0.24015E-02   -0.24174E-02 10584   0.131E-01 0.116E-02
CGA:  21    -0.340887077791E+03    0.37839E-02   -0.25524E-02 10584   0.337E+00-0.265E-01
CGA:  22    -0.340893620045E+03   -0.65423E-02   -0.70831E-02 10584   0.194E-01 0.488E-01
CGA:  23    -0.340894082544E+03   -0.46250E-03   -0.68776E-03 10584   0.913E-02 0.404E-02
CGA:  24    -0.340894874594E+03   -0.79205E-03   -0.75832E-03 10584   0.143E-01-0.127E-02
CGA:  25    -0.340895600819E+03   -0.72623E-03   -0.70407E-03 10584   0.125E-01-0.591E-03
CGA:  26    -0.340895744021E+03   -0.14320E-03   -0.25117E-03 10584   0.352E-02 0.204E-02
CGA:  27    -0.340895762373E+03   -0.18352E-04   -0.86383E-04 10584   0.203E-02 0.108E-02
CGA:  28    -0.340895854675E+03   -0.92302E-04   -0.11375E-03 10584   0.322E-02 0.495E-03
CGA:  29    -0.340896149885E+03   -0.29521E-03   -0.28475E-03 10584   0.794E-02-0.804E-03
CGA:  30    -0.340896245257E+03   -0.95373E-04   -0.11931E-03 10584   0.700E-02 0.387E-03
CGA:  31    -0.340896274544E+03   -0.29287E-04   -0.10734E-03 10584   0.292E-02 0.121E-02
CGA:  32    -0.340896259980E+03    0.14564E-04   -0.44195E-04 10584   0.160E-02 0.939E-03
CGA:  33    -0.340896250264E+03    0.97161E-05   -0.34711E-04 10584   0.169E-02 0.779E-03
CGA:  34    -0.340896277015E+03   -0.26751E-04   -0.67757E-04 10584   0.306E-02 0.934E-03
CGA:  35    -0.340896477503E+03   -0.20049E-03   -0.30949E-03 10584   0.101E-01-0.338E-02
CGA:  36    -0.340896555709E+03   -0.78206E-04   -0.20960E-03 10584   0.139E-02 0.279E-02
CGA:  37    -0.340896565257E+03   -0.95475E-05   -0.38643E-04 10584   0.564E-03 0.638E-03
CGA:  38    -0.340896609070E+03   -0.43813E-04   -0.42708E-04 10584   0.949E-03-0.771E-04
CGA:  39    -0.340896640981E+03   -0.31912E-04   -0.34366E-04 10584   0.200E-02 0.111E-03
CGA:  40    -0.340896672523E+03   -0.31542E-04   -0.62486E-04 10584   0.159E-02 0.879E-03
CGA:  41    -0.340896678614E+03   -0.60910E-05   -0.44373E-04 10584   0.644E-03 0.918E-03
CGA:  42    -0.340896736893E+03   -0.58278E-04   -0.83315E-04 10584   0.175E-02-0.353E-03
CGA:  43    -0.340896790805E+03   -0.53912E-04   -0.60055E-04 10584   0.220E-03 0.221E-03
CGA:  44    -0.340896785605E+03    0.51996E-05   -0.41336E-05 10584   0.179E-03 0.207E-03
  12 F= -.34089679E+03 E0= -.34089050E+03  d E =0.111574E-01  mag=    14.0000
       N       E                     dE             d eps       ncg     rms          ort
SDA:   1    -0.339087499702E+03    0.18093E+01    0.00000E+00 10584   0.464E+01 0.000E+00
CGA:   2    -0.340064737651E+03   -0.97724E+00   -0.90611E+00 10584   0.917E+01 0.628E+00
CGA:   3    -0.340524227197E+03   -0.45949E+00   -0.38239E+00 10584   0.155E+01 0.920E+00
CGA:   4    -0.340739295823E+03   -0.21507E+00   -0.20693E+00 10584   0.138E+01 0.131E+00
CGA:   5    -0.340835349195E+03   -0.96053E-01   -0.94988E-01 10584   0.422E+00-0.124E+00
CGA:   6    -0.340871689129E+03   -0.36340E-01   -0.36282E-01 10584   0.201E+00-0.113E-02
CGA:   7    -0.340883468177E+03   -0.11779E-01   -0.11840E-01 10584   0.648E-01 0.970E-02
CGA:   8    -0.340888402098E+03   -0.49339E-02   -0.50439E-02 10584   0.123E+00-0.169E-01
CGA:   9    -0.340893095467E+03   -0.46934E-02   -0.47859E-02 10584   0.362E-01 0.662E-02
CGA:  10    -0.340893561769E+03   -0.46630E-03   -0.76779E-03 10584   0.114E-01 0.710E-02
CGA:  11    -0.340894178888E+03   -0.61712E-03   -0.67837E-03 10584   0.182E-01 0.419E-02
CGA:  12    -0.340895976398E+03   -0.17975E-02   -0.18598E-02 10584   0.232E-01-0.573E-02
CGA:  13    -0.340896395149E+03   -0.41875E-03   -0.39909E-03 10584   0.973E-02-0.502E-03
CGA:  14    -0.340896501263E+03   -0.10611E-03   -0.16013E-03 10584   0.422E-02 0.139E-02
CGA:  15    -0.340896619262E+03   -0.11800E-03   -0.15274E-03 10584   0.693E-02 0.126E-02
CGA:  16    -0.340897323865E+03   -0.70460E-03   -0.71257E-03 10584   0.136E-01-0.356E-03
CGA:  17    -0.340897686608E+03   -0.36274E-03   -0.29127E-03 10584   0.398E-02-0.198E-02
CGA:  18    -0.340897748234E+03   -0.61626E-04   -0.61819E-04 10584   0.183E-02 0.280E-04
CGA:  19    -0.340897754056E+03   -0.58220E-05   -0.32543E-04 10584   0.161E-02 0.711E-03
CGA:  20    -0.340897771918E+03   -0.17862E-04   -0.53629E-04 10584   0.207E-02 0.119E-02
CGA:  21    -0.340895449170E+03    0.23227E-02   -0.13132E-02 10584   0.109E+00-0.104E-01
CGA:  22    -0.340898020477E+03   -0.25713E-02   -0.26673E-02 10584   0.525E-02 0.187E-01
CGA:  23    -0.340898156345E+03   -0.13587E-03   -0.15028E-03 10584   0.239E-03 0.335E-03
CGA:  24    -0.340898212763E+03   -0.56418E-04    0.45200E-04 10584   0.413E-03 0.928E-04
CGA:  25    -0.340898230427E+03   -0.17664E-04   -0.28564E-04 10584   0.147E-03 0.283E-03
CGA:  26    -0.340898272986E+03   -0.42559E-04    0.95838E-05 10584   0.295E-03 0.121E-04
CGA:  27    -0.340898267165E+03    0.58205E-05   -0.95234E-05 10584   0.228E-03 0.271E-03
  13 F= -.34089827E+03 E0= -.34089158E+03  d E =-.148156E-02  mag=    14.0000
       N       E                     dE             d eps       ncg     rms          ort
SDA:   1    -0.340665552080E+03    0.23272E+00    0.00000E+00 10584   0.134E+01 0.000E+00
CGA:   2    -0.340707991103E+03   -0.42439E-01   -0.38935E-01 10584   0.590E+00 0.172E+00
CGA:   3    -0.340852012648E+03   -0.14402E+00   -0.14284E+00 10584   0.115E+01 0.848E-02
CGA:   4    -0.340881390887E+03   -0.29378E-01   -0.33531E-01 10584   0.216E+00-0.188E+00
CGA:   5    -0.340900853341E+03   -0.19462E-01   -0.19195E-01 10584   0.162E+00 0.119E-01
CGA:   6    -0.340911623539E+03   -0.10770E-01   -0.10620E-01 10584   0.681E-01-0.157E-01
CGA:   7    -0.340914576258E+03   -0.29527E-02   -0.32037E-02 10584   0.297E-01 0.893E-02
CGA:   8    -0.340917100330E+03   -0.25241E-02   -0.24918E-02 10584   0.306E-01-0.533E-02
CGA:   9    -0.340918662913E+03   -0.15626E-02   -0.15812E-02 10584   0.578E-02 0.119E-02
CGA:  10    -0.340919273856E+03   -0.61094E-03   -0.64814E-03 10584   0.128E-01-0.129E-02
CGA:  11    -0.340920012306E+03   -0.73845E-03   -0.72492E-03 10584   0.684E-02-0.160E-02
CGA:  12    -0.340920083387E+03   -0.71081E-04   -0.13727E-03 10584   0.235E-02 0.129E-02
CGA:  13    -0.340920117011E+03   -0.33624E-04   -0.81327E-04 10584   0.224E-02 0.101E-02
CGA:  14    -0.340920377448E+03   -0.26044E-03   -0.25808E-03 10584   0.402E-02 0.455E-03
CGA:  15    -0.340920687988E+03   -0.31054E-03   -0.25286E-03 10584   0.131E-02-0.250E-02
CGA:  16    -0.340920705979E+03   -0.17991E-04   -0.46882E-04 10584   0.789E-03 0.748E-03
CGA:  17    -0.340920883106E+03   -0.17713E-03    0.52193E-04 10584   0.779E-03 0.303E-03
CGA:  18    -0.340920902118E+03   -0.19012E-04   -0.39472E-04 10584   0.181E-03 0.572E-03
CGA:  19    -0.340920953933E+03   -0.51815E-04   -0.40946E-04 10584   0.258E-03 0.725E-04
CGA:  20    -0.340921101114E+03   -0.14718E-03    0.88450E-05 10584   0.744E-03-0.157E-03
CGA:  21    -0.340921080225E+03    0.20889E-04   -0.78527E-05 10584   0.259E-03 0.426E-03
CGA:  22    -0.340921070177E+03    0.10048E-04   -0.22443E-05 10584   0.141E-03 0.186E-03
CGA:  23    -0.340921064262E+03    0.59145E-05   -0.12167E-05 10584   0.960E-04 0.113E-03
  14 F= -.34092106E+03 E0= -.34091546E+03  d E =-.227971E-01  mag=    14.0000
       N       E                     dE             d eps       ncg     rms          ort
SDA:   1    -0.339796484744E+03    0.11246E+01    0.00000E+00 10584   0.306E+01 0.000E+00
CGA:   2    -0.340252961971E+03   -0.45648E+00   -0.41601E+00 10584   0.562E+01 0.564E+00
CGA:   3    -0.340674289717E+03   -0.42133E+00   -0.41091E+00 10584   0.212E+01-0.421E+00
CGA:   4    -0.340802285536E+03   -0.12800E+00   -0.12828E+00 10584   0.741E+00-0.313E-02
CGA:   5    -0.340852838048E+03   -0.50553E-01   -0.50556E-01 10584   0.558E+00 0.349E-01
CGA:   6    -0.340890545910E+03   -0.37708E-01   -0.37729E-01 10584   0.223E+00-0.161E-01
CGA:   7    -0.340901944358E+03   -0.11398E-01   -0.11421E-01 10584   0.599E-01 0.158E-01
CGA:   8    -0.340907355391E+03   -0.54110E-02   -0.58787E-02 10584   0.114E+00-0.200E-01
CGA:   9    -0.340910884307E+03   -0.35289E-02   -0.36798E-02 10584   0.356E-01 0.788E-02
CGA:  10    -0.340911511119E+03   -0.62681E-03   -0.90558E-03 10584   0.119E-01 0.718E-02
CGA:  11    -0.340912140162E+03   -0.62904E-03   -0.65398E-03 10584   0.106E-01 0.138E-02
CGA:  12    -0.340913048407E+03   -0.90825E-03   -0.11561E-02 10584   0.385E-01-0.761E-02
CGA:  13    -0.340913719361E+03   -0.67095E-03   -0.89155E-03 10584   0.424E-02 0.698E-02
CGA:  14    -0.340913938677E+03   -0.21932E-03   -0.21584E-03 10584   0.207E-02-0.153E-03
CGA:  15    -0.340914265360E+03   -0.32668E-03    0.21362E-03 10584   0.365E-02 0.123E-04
CGA:  16    -0.340914678811E+03   -0.41345E-03   -0.41398E-03 10584   0.266E-02 0.224E-06
CGA:  17    -0.340914650231E+03    0.28580E-04   -0.37827E-04 10584   0.100E-02 0.130E-02
CGA:  18    -0.340914624966E+03    0.25265E-04   -0.18134E-04 10584   0.638E-03 0.858E-03
CGA:  19    -0.340914704292E+03   -0.79327E-04    0.69232E-03 10584   0.415E-03 0.449E-03
CGA:  20    -0.340914716076E+03   -0.11784E-04   -0.17588E-04 10584   0.317E-03 0.322E-03
CGA:  21    -0.340914774956E+03   -0.58880E-04    0.16905E-04 10584   0.273E-03 0.237E-03
CGA:  22    -0.340914769872E+03    0.50839E-05   -0.47295E-05 10584   0.220E-03 0.233E-03
CGA:  23    -0.340914787468E+03   -0.17596E-04   -0.15311E-04 10584   0.182E-03 0.187E-03
CGA:  24    -0.340914827173E+03   -0.39705E-04    0.59652E-05 10584   0.173E-03 0.145E-03
CGA:  25    -0.340914823041E+03    0.41318E-05   -0.25528E-05 10584   0.149E-03 0.154E-03
  15 F= -.34091482E+03 E0= -.34090918E+03  d E =0.624122E-02  mag=    14.0000
       N       E                     dE             d eps       ncg     rms          ort
SDA:   1    -0.311629032149E+03    0.29286E+02    0.00000E+00 10584   0.727E+02 0.000E+00
CGA:   2    -0.329479094064E+03   -0.17850E+02   -0.19969E+02 10584   0.235E+03-0.774E+01
CGA:   3    -0.334677186324E+03   -0.51981E+01   -0.69970E+01 10584   0.398E+02-0.448E+02
CGA:   4    -0.337335667340E+03   -0.26585E+01   -0.32787E+01 10584   0.736E+02-0.150E+02
CGA:   5    -0.338817163075E+03   -0.14815E+01   -0.15997E+01 10584   0.142E+02-0.229E+01
CGA:   6    -0.339359626627E+03   -0.54246E+00   -0.62683E+00 10584   0.985E+01 0.309E+00
CGA:   7    -0.340068829056E+03   -0.70920E+00   -0.76777E+00 10584   0.102E+02-0.322E+01
CGA:   8    -0.340301390321E+03   -0.23256E+00   -0.24856E+00 10584   0.216E+01-0.158E+00
CGA:   9    -0.340428378001E+03   -0.12699E+00   -0.12507E+00 10584   0.244E+01-0.154E+00
CGA:  10    -0.340608629200E+03   -0.18025E+00   -0.18009E+00 10584   0.210E+01 0.219E-01
CGA:  11    -0.340667737545E+03   -0.59108E-01   -0.70285E-01 10584   0.438E+00-0.184E+00
CGA:  12    -0.340724185516E+03   -0.56448E-01   -0.58711E-01 10584   0.806E+00-0.241E-01
CGA:  13    -0.340752789572E+03   -0.28604E-01   -0.28911E-01 10584   0.170E+00 0.480E-01
CGA:  14    -0.340761464414E+03   -0.86748E-02   -0.87439E-02 10584   0.121E+00 0.165E-01
CGA:  15    -0.340773559688E+03   -0.12095E-01   -0.12309E-01 10584   0.190E+00-0.854E-02
CGA:  16    -0.340782767838E+03   -0.92082E-02   -0.91439E-02 10584   0.645E-01-0.637E-02
CGA:  17    -0.340785226486E+03   -0.24586E-02   -0.24812E-02 10584   0.332E-01 0.136E-02
CGA:  18    -0.340787726144E+03   -0.24997E-02   -0.25798E-02 10584   0.379E-01-0.637E-02
CGA:  19    -0.340790797739E+03   -0.30716E-02   -0.37811E-02 10584   0.561E-01-0.117E-01
CGA:  20    -0.340791670608E+03   -0.87287E-03   -0.99885E-03 10584   0.202E-01 0.356E-02
CGA:  21    -0.340792040739E+03   -0.37013E-03   -0.49988E-03 10584   0.112E-01 0.379E-02
CGA:  22    -0.340792668887E+03   -0.62815E-03   -0.64867E-03 10584   0.189E-01 0.156E-02
CGA:  23    -0.340794005946E+03   -0.13371E-02   -0.13364E-02 10584   0.253E-01-0.648E-02
CGA:  24    -0.340794684938E+03   -0.67899E-03   -0.49812E-03 10584   0.212E-01-0.575E-02
CGA:  25    -0.340795187685E+03   -0.50275E-03   -0.40655E-03 10584   0.123E-01-0.240E-02
CGA:  26    -0.340795447135E+03   -0.25945E-03   -0.25034E-03 10584   0.822E-02 0.620E-04
CGA:  27    -0.340795750305E+03   -0.30317E-03   -0.29299E-03 10584   0.103E-01-0.339E-03
CGA:  28    -0.340796294685E+03   -0.54438E-03   -0.53813E-03 10584   0.153E-01-0.401E-02
CGA:  29    -0.340796634529E+03   -0.33984E-03   -0.24024E-03 10584   0.135E-01-0.326E-02
CGA:  30    -0.340796925729E+03   -0.29120E-03   -0.25034E-03 10584   0.103E-01-0.129E-02
CGA:  31    -0.340797076888E+03   -0.15116E-03   -0.18760E-03 10584   0.763E-02 0.125E-02
SDA:  32    -0.340797188143E+03   -0.11126E-03   -0.17289E-03 10584   0.619E-02 0.212E-02
CGA:  33    -0.340797025787E+03    0.16236E-03   -0.39622E-03 10584   0.380E-01-0.858E-02
CGA:  34    -0.340798734469E+03   -0.17087E-02   -0.17006E-02 10584   0.917E-02-0.156E-02
CGA:  35    -0.340798826953E+03   -0.92484E-04   -0.27976E-03 10584   0.219E-02 0.342E-02
CGA:  36    -0.340798832050E+03   -0.50970E-05   -0.82019E-04 10584   0.110E-02 0.134E-02
CGA:  37    -0.340799052726E+03   -0.22068E-03    0.21154E-03 10584   0.101E-02 0.234E-03
CGA:  38    -0.340799061639E+03   -0.89130E-05   -0.43520E-04 10584   0.389E-03 0.739E-03
  16 F= -.34079906E+03 E0= -.34079654E+03  d E =0.115761E+00  mag=    14.0000
       N       E                     dE             d eps       ncg     rms          ort
SDA:   1    -0.275311350933E+03    0.65488E+02    0.00000E+00 10584   0.306E+03 0.000E+00
CGA:   2    -0.288686307336E+03   -0.13375E+02   -0.17854E+02 10584   0.131E+03 0.701E+02
CGA:   3    -0.303228120984E+03   -0.14542E+02   -0.70663E+01 10584   0.984E+02 0.402E+02
CGA:   4    -0.320724344309E+03   -0.17496E+02   -0.15712E+02 10584   0.104E+03 0.227E+02
CGA:   5    -0.327894901336E+03   -0.71706E+01   -0.61636E+01 10584   0.875E+02-0.846E+02
CGA:   6    -0.329036363479E+03   -0.11415E+01   -0.36927E+01 10584   0.488E+02-0.274E+00
CGA:   7    -0.330672940274E+03   -0.16366E+01   -0.16196E+01 10584   0.118E+03-0.332E+02
CGA:   8    -0.332230796928E+03   -0.15579E+01   -0.45945E+01 10584   0.910E+01 0.229E+00
CGA:   9    -0.326386254849E+03    0.58445E+01   -0.12641E+01 10584   0.309E+03-0.509E+02
CGA:  10    -0.332893379897E+03   -0.65071E+01   -0.11515E+02 10584   0.361E+02-0.325E+02
CGA:  11    -0.333502378605E+03   -0.60900E+00   -0.70018E+00 10584   0.171E+02-0.128E+02
CGA:  12    -0.333810511412E+03   -0.30813E+00   -0.90595E+00 10584   0.528E+02-0.448E+02
CGA:  13    -0.334536310359E+03   -0.72580E+00   -0.20233E+01 10584   0.204E+01-0.602E+00
CGA:  14    -0.334645078981E+03   -0.10877E+00   -0.11008E+00 10584   0.560E+01 0.597E-02
CGA:  15    -0.334692984446E+03   -0.47905E-01   -0.24963E-01 10584   0.496E+01 0.516E+01
CGA:  16    -0.334770251642E+03   -0.77267E-01   -0.72600E-01 10584   0.105E+01 0.246E+00
CGA:  17    -0.334943146265E+03   -0.17289E+00   -0.32227E+00 10584   0.195E+02-0.979E+00
CGA:  18    -0.335152368324E+03   -0.20922E+00   -0.57969E+00 10584   0.825E+01-0.624E+01
CGA:  19    -0.335275364447E+03   -0.12300E+00   -0.10630E+00 10584   0.328E+00 0.687E+00
CGA:  20    -0.335290918501E+03   -0.15554E-01   -0.15628E-01 10584   0.912E+00 0.529E-02
CGA:  21    -0.335387150499E+03   -0.96232E-01   -0.97139E-01 10584   0.141E+01-0.223E-01
CGA:  22    -0.335415639191E+03   -0.28489E-01   -0.32239E-01 10584   0.103E+01-0.172E+00
CGA:  23    -0.335487432794E+03   -0.71794E-01   -0.70637E-01 10584   0.378E+00 0.602E-01
CGA:  24    -0.335493929989E+03   -0.64972E-02   -0.65092E-02 10584   0.872E-01 0.213E-01
CGA:  25    -0.335502809433E+03   -0.88794E-02   -0.88465E-02 10584   0.105E+00 0.922E-03
CGA:  26    -0.335505522842E+03   -0.27134E-02   -0.25565E-02 10584   0.690E-01-0.729E-02
CGA:  27    -0.335515680427E+03   -0.10158E-01   -0.10879E-01 10584   0.812E-01-0.671E-02
CGA:  28    -0.335517239461E+03   -0.15590E-02   -0.16977E-02 10584   0.534E-01 0.376E-02
CGA:  29    -0.335521512484E+03   -0.42730E-02   -0.42508E-02 10584   0.296E-01 0.267E-02
CGA:  30    -0.335522347312E+03   -0.83483E-03   -0.77236E-03 10584   0.213E-01-0.241E-02
CGA:  31    -0.335524456863E+03   -0.21096E-02   -0.20066E-02 10584   0.162E-01 0.282E-02
CGA:  32    -0.335525166917E+03   -0.71005E-03   -0.76360E-03 10584   0.264E-01 0.222E-02
CGA:  33    -0.335527559065E+03   -0.23921E-02   -0.24332E-02 10584   0.923E-02-0.296E-02
CGA:  34    -0.335529406388E+03   -0.18473E-02   -0.50538E-04 10584   0.592E-01-0.404E-02
CGA:  35    -0.335529690197E+03   -0.28381E-03   -0.31038E-03 10584   0.278E-01 0.703E-02
CGA:  36    -0.335529978846E+03   -0.28865E-03   -0.37956E-03 10584   0.213E-01 0.351E-02
CGA:  37    -0.335530594994E+03   -0.61615E-03   -0.70522E-03 10584   0.555E-01 0.239E-02
CGA:  38    -0.335531860460E+03   -0.12655E-02   -0.12877E-02 10584   0.474E-01 0.938E-03
CGA:  39    -0.335532497564E+03   -0.63710E-03   -0.61455E-03 10584   0.147E-01-0.957E-02
CGA:  40    -0.335532958672E+03   -0.46111E-03   -0.33132E-03 10584   0.331E-01-0.278E-02
CGA:  41    -0.335534960035E+03   -0.20014E-02   -0.18697E-02 10584   0.959E-01-0.728E-02
CGA:  42    -0.335535728921E+03   -0.76889E-03   -0.49284E-03 10584   0.496E-01 0.301E-01
CGA:  43    -0.335536242389E+03   -0.51347E-03   -0.46505E-03 10584   0.186E-01 0.133E-01
CGA:  44    -0.335536510870E+03   -0.26848E-03   -0.30610E-03 10584   0.270E-01 0.237E-02
CGA:  45    -0.335537101465E+03   -0.59059E-03   -0.56991E-03 10584   0.745E-01 0.316E-02
CGA:  46    -0.335538399968E+03   -0.12985E-02   -0.10513E-02 10584   0.110E+00 0.123E-01
CGA:  47    -0.335539900093E+03   -0.15001E-02   -0.15151E-02 10584   0.526E-01-0.228E-01
SDA:  48    -0.335540361370E+03   -0.46128E-03   -0.39274E-03 10584   0.235E-01-0.140E-01
CGA:  49    -0.335543414724E+03   -0.30534E-02   -0.31169E-02 10584   0.458E-01-0.967E-03
CGA:  50    -0.335544038537E+03   -0.62381E-03   -0.78985E-03 10584   0.520E-02 0.347E-02
CGA:  51    -0.335544416217E+03   -0.37768E-03   -0.37933E-03 10584   0.176E-01 0.111E-02
CGA:  52    -0.335546274576E+03   -0.18584E-02   -0.19896E-02 10584   0.984E-02-0.555E-02
CGA:  53    -0.335546546347E+03   -0.27177E-03   -0.31297E-03 10584   0.103E-01 0.180E-02
CGA:  54    -0.335547518758E+03   -0.97241E-03   -0.95991E-03 10584   0.770E-02 0.131E-02
CGA:  55    -0.335547696347E+03   -0.17759E-03   -0.25835E-03 10584   0.510E-02 0.216E-02
CGA:  56    -0.335549635583E+03   -0.19392E-02   -0.19865E-02 10584   0.100E-01-0.129E-03
CGA:  57    -0.335544714405E+03    0.49212E-02   -0.21219E-02 10584   0.161E+00-0.296E-01
CGA:  58    -0.335548408820E+03   -0.36944E-02   -0.38213E-02 10584   0.802E-01-0.209E-01
CGA:  59    -0.335554980669E+03   -0.65718E-02   -0.67029E-02 10584   0.204E-01 0.457E-02
CGA:  60    -0.335556768086E+03   -0.17874E-02   -0.16489E-02 10584   0.691E-01-0.275E-02
CGA:  61    -0.335560086821E+03   -0.33187E-02   -0.32816E-02 10584   0.151E-01-0.555E-03
CGA:  62    -0.335560251854E+03   -0.16503E-03   -0.25364E-03 10584   0.591E-02 0.114E-02
CGA:  63    -0.335561049286E+03   -0.79743E-03   -0.79632E-03 10584   0.331E-01 0.107E-02
CGA:  64    -0.335562672864E+03   -0.16236E-02   -0.15126E-02 10584   0.908E-02-0.268E-02
CGA:  65    -0.335557795041E+03    0.48778E-02   -0.29407E-02 10584   0.147E+00-0.175E-01
CGA:  66    -0.335561239185E+03   -0.34441E-02   -0.39762E-02 10584   0.983E-01-0.357E-01
CGA:  67    -0.335567784712E+03   -0.65455E-02   -0.67327E-02 10584   0.142E-01 0.442E-02
CGA:  68    -0.335570752411E+03   -0.29677E-02   -0.29557E-02 10584   0.723E-01-0.303E-02
CGA:  69    -0.335571826877E+03   -0.10745E-02   -0.10224E-02 10584   0.146E-01 0.460E-02
CGA:  70    -0.335571994989E+03   -0.16811E-03   -0.25716E-03 10584   0.972E-02 0.138E-02
CGA:  71    -0.335572638771E+03   -0.64378E-03   -0.73021E-03 10584   0.394E-01 0.116E-02
CGA:  72    -0.335573989949E+03   -0.13512E-02   -0.13405E-02 10584   0.150E-01-0.169E-02
CGA:  73    -0.335574494162E+03   -0.50421E-03   -0.36467E-03 10584   0.178E-01-0.256E-02
CGA:  74    -0.335576618676E+03   -0.21245E-02   -0.20329E-02 10584   0.856E-01-0.439E-02
CGA:  75    -0.335577299911E+03   -0.68123E-03   -0.41944E-03 10584   0.445E-01 0.318E-01
CGA:  76    -0.335577756129E+03   -0.45622E-03   -0.41415E-03 10584   0.998E-02 0.150E-01
CGA:  77    -0.335577853939E+03   -0.97810E-04   -0.14518E-03 10584   0.747E-02 0.122E-02
CGA:  78    -0.335578049589E+03   -0.19565E-03   -0.21668E-03 10584   0.253E-01 0.601E-03
CGA:  79    -0.335578907678E+03   -0.85809E-03   -0.65402E-03 10584   0.716E-01 0.325E-02
CGA:  80    -0.335580505597E+03   -0.15979E-02   -0.10751E-02 10584   0.627E-01 0.925E-02
CGA:  81    -0.335581595707E+03   -0.10901E-02   -0.10969E-02 10584   0.135E-01-0.386E-01
CGA:  82    -0.335585271967E+03   -0.36763E-02   -0.41492E-02 10584   0.815E-02-0.252E-02
CGA:  83    -0.335585410532E+03   -0.13857E-03   -0.22207E-03 10584   0.820E-02 0.971E-03
CGA:  84    -0.335587082599E+03   -0.16721E-02   -0.16858E-02 10584   0.845E-02-0.179E-03
CGA:  85    -0.335588475563E+03   -0.13930E-02   -0.14699E-02 10584   0.588E-01-0.137E-02
CGA:  86    -0.335591098153E+03   -0.26226E-02   -0.21888E-02 10584   0.151E-01-0.109E-01
CGA:  87    -0.335592082876E+03   -0.98472E-03   -0.73573E-03 10584   0.475E-01-0.511E-02
CGA:  88    -0.335595883509E+03   -0.38006E-02   -0.37493E-02 10584   0.182E-01-0.201E-01
CGA:  89    -0.335597254689E+03   -0.13712E-02   -0.15237E-02 10584   0.556E-01-0.473E-02
CGA:  90    -0.335598873210E+03   -0.16185E-02   -0.18797E-02 10584   0.230E-01-0.149E-01
CGA:  91    -0.335600908949E+03   -0.20357E-02   -0.21366E-02 10584   0.835E-01-0.789E-02
CGA:  92    -0.335603241249E+03   -0.23323E-02   -0.14803E-02 10584   0.612E-01 0.788E-02
CGA:  93    -0.335605418222E+03   -0.21770E-02   -0.31512E-02 10584   0.925E-01-0.332E-01
CGA:  94    -0.335607112887E+03   -0.16947E-02   -0.18416E-02 10584   0.225E-01 0.829E-02
CGA:  95    -0.335611425356E+03   -0.43125E-02   -0.42323E-02 10584   0.466E-01 0.122E-02
CGA:  96    -0.335612763170E+03   -0.13378E-02   -0.11718E-02 10584   0.134E-01-0.294E-02
CGA:  97    -0.335616745859E+03   -0.39827E-02   -0.34769E-02 10584   0.820E-02 0.299E-02
CGA:  98    -0.335617822647E+03   -0.10768E-02   -0.10940E-02 10584   0.133E-01 0.349E-02
CGA:  99    -0.335618531172E+03   -0.70852E-03   -0.72217E-03 10584   0.661E-02-0.157E-03
CGA: 100    -0.335618687938E+03   -0.15677E-03   -0.26496E-03 10584   0.170E-02 0.164E-02
CGA: 101    -0.335618667809E+03    0.20129E-04   -0.10791E-02 10584   0.495E-01-0.271E-02
CGA: 102    -0.335619277972E+03   -0.61016E-03   -0.77208E-03 10584   0.274E-02 0.422E-02
CGA: 103    -0.335619387400E+03   -0.10943E-03   -0.17199E-03 10584   0.476E-02 0.992E-03
CGA: 104    -0.335619701486E+03   -0.31409E-03   -0.32799E-03 10584   0.144E-02 0.136E-03
CGA: 105    -0.335619716117E+03   -0.14631E-04   -0.48998E-04 10584   0.779E-03 0.424E-03
CGA: 106    -0.335619086631E+03    0.62949E-03   -0.39151E-03 10584   0.153E-01-0.237E-02
CGA: 107    -0.335619443519E+03   -0.35689E-03   -0.53016E-03 10584   0.127E-01 0.163E-02
CGA: 108    -0.335620289169E+03   -0.84565E-03   -0.91589E-03 10584   0.155E-02 0.721E-03
CGA: 109    -0.335620564890E+03   -0.27572E-03   -0.27764E-03 10584   0.353E-02 0.112E-03
CGA: 110    -0.335620764816E+03   -0.19993E-03   -0.11204E-03 10584   0.703E-03-0.675E-03
CGA: 111    -0.335620776454E+03   -0.11638E-04   -0.24511E-04 10584   0.422E-03 0.100E-03
CGA: 112    -0.335620986518E+03   -0.21006E-03    0.15197E-03 10584   0.171E-02 0.126E-03
CGA: 113    -0.335621131652E+03   -0.14513E-03   -0.13645E-03 10584   0.182E-02 0.132E-03
CGA: 114    -0.335621475007E+03   -0.34335E-03   -0.47049E-03 10584   0.244E-01-0.183E-02
CGA: 115    -0.335621743553E+03   -0.26855E-03   -0.39316E-03 10584   0.179E-02 0.211E-02
CGA: 116    -0.335621849094E+03   -0.10554E-03   -0.15188E-03 10584   0.394E-02 0.552E-03
CGA: 117    -0.335622101243E+03   -0.25215E-03   -0.22756E-03 10584   0.956E-03-0.293E-03
CGA: 118    -0.335622096491E+03    0.47517E-05   -0.23055E-04 10584   0.283E-03 0.224E-03
CGA: 119    -0.335622176499E+03   -0.80008E-04   -0.83595E-04 10584   0.920E-03-0.379E-04
CGA: 120    -0.335622235325E+03   -0.58826E-04   -0.21144E-04 10584   0.350E-03-0.328E-03
CGA: 121    -0.335622307406E+03   -0.72082E-04   -0.74233E-04 10584   0.412E-03-0.643E-05
CGA: 122    -0.335622451413E+03   -0.14401E-03    0.19271E-03 10584   0.382E-03 0.216E-03
CGA: 123    -0.335622463470E+03   -0.12057E-04   -0.21218E-04 10584   0.680E-03 0.942E-04
CGA: 124    -0.335622744355E+03   -0.28088E-03    0.54466E-03 10584   0.934E-03-0.435E-04
CGA: 125    -0.335622754045E+03   -0.96904E-05   -0.19278E-04 10584   0.115E-03 0.880E-04
  17 F= -.33562275E+03 E0= -.33561855E+03  d E =0.517631E+01  mag=    14.0000
       N       E                     dE             d eps       ncg     rms          ort
SDA:   1    -0.319591437543E+03    0.16031E+02    0.00000E+00 10584   0.513E+02 0.000E+00
CGA:   2    -0.329806142348E+03   -0.10215E+02   -0.95656E+01 10584   0.126E+03 0.106E+02
CGA:   3    -0.334880065038E+03   -0.50739E+01   -0.93796E+01 10584   0.325E+02-0.223E+02
CGA:   4    -0.337109887373E+03   -0.22298E+01   -0.11878E+01 10584   0.158E+02 0.189E+02
CGA:   5    -0.338056801569E+03   -0.94691E+00   -0.90692E+00 10584   0.206E+02-0.536E+00
CGA:   6    -0.339081102494E+03   -0.10243E+01   -0.11382E+01 10584   0.825E+01-0.186E+01
CGA:   7    -0.339418178477E+03   -0.33708E+00   -0.25875E+00 10584   0.376E+01 0.216E+01
CGA:   8    -0.339544477183E+03   -0.12630E+00   -0.71214E-01 10584   0.184E+01 0.350E+01
CGA:   9    -0.339627357379E+03   -0.82880E-01   -0.84630E-01 10584   0.136E+01-0.222E-01
CGA:  10    -0.339719628430E+03   -0.92271E-01   -0.92019E-01 10584   0.286E+01 0.189E-01
CGA:  11    -0.339901694781E+03   -0.18207E+00   -0.18557E+00 10584   0.208E+01-0.186E-01
CGA:  12    -0.339950112911E+03   -0.48418E-01   -0.57284E-01 10584   0.736E+00-0.336E+00
CGA:  13    -0.339999583362E+03   -0.49470E-01   -0.46639E-01 10584   0.681E+00-0.893E-02
CGA:  14    -0.340047451231E+03   -0.47868E-01   -0.47015E-01 10584   0.393E+00-0.540E-02
CGA:  15    -0.340061700859E+03   -0.14250E-01   -0.14235E-01 10584   0.149E+00-0.226E-01
CGA:  16    -0.340070109757E+03   -0.84089E-02   -0.83270E-02 10584   0.929E-01 0.546E-02
CGA:  17    -0.340080855637E+03   -0.10746E-01   -0.10745E-01 10584   0.973E-01-0.916E-03
CGA:  18    -0.340086990441E+03   -0.61348E-02   -0.61601E-02 10584   0.532E-01-0.422E-02
CGA:  19    -0.340089183511E+03   -0.21931E-02   -0.22756E-02 10584   0.344E-01 0.162E-02
CGA:  20    -0.340092417786E+03   -0.32343E-02   -0.32327E-02 10584   0.431E-01-0.494E-02
CGA:  21    -0.340095148681E+03   -0.27309E-02   -0.26966E-02 10584   0.136E-01-0.205E-02
CGA:  22    -0.340095635170E+03   -0.48649E-03   -0.57373E-03 10584   0.103E-01 0.188E-02
CGA:  23    -0.340096608053E+03   -0.97288E-03   -0.97231E-03 10584   0.852E-02-0.109E-03
CGA:  24    -0.340097138674E+03   -0.53062E-03   -0.53021E-03 10584   0.382E-02-0.152E-04
CGA:  25    -0.340097452485E+03   -0.31381E-03   -0.87269E-03 10584   0.200E-01-0.390E-02
CGA:  26    -0.340098104071E+03   -0.65159E-03   -0.61721E-03 10584   0.582E-02-0.126E-02
CGA:  27    -0.340098290671E+03   -0.18660E-03   -0.26515E-03 10584   0.201E-02 0.191E-02
CGA:  28    -0.340098405871E+03   -0.11520E-03   -0.14308E-03 10584   0.167E-02 0.812E-03
CGA:  29    -0.340098705137E+03   -0.29927E-03   -0.34337E-03 10584   0.765E-02-0.745E-03
CGA:  30    -0.340098766142E+03   -0.61005E-04   -0.72261E-04 10584   0.629E-02 0.113E-03
CGA:  31    -0.340098823962E+03   -0.57820E-04   -0.91662E-04 10584   0.237E-02 0.372E-03
CGA:  32    -0.340098871718E+03   -0.47756E-04   -0.58446E-04 10584   0.303E-02 0.155E-03
CGA:  33    -0.340099116515E+03   -0.24480E-03   -0.23555E-03 10584   0.125E-01-0.141E-02
CGA:  34    -0.340099305234E+03   -0.18872E-03   -0.82989E-04 10584   0.122E-01-0.154E-02
CGA:  35    -0.340099554140E+03   -0.24891E-03   -0.12758E-03 10584   0.712E-02-0.141E-02
CGA:  36    -0.340099698514E+03   -0.14437E-03   -0.89264E-04 10584   0.744E-02-0.812E-03
CGA:  37    -0.340099813901E+03   -0.11539E-03   -0.11278E-03 10584   0.115E-01 0.146E-03
CGA:  38    -0.340099920708E+03   -0.10681E-03   -0.17628E-03 10584   0.117E-01 0.181E-02
CGA:  39    -0.340099967329E+03   -0.46621E-04   -0.16158E-03 10584   0.646E-02 0.201E-02
CGA:  40    -0.340099979546E+03   -0.12217E-04   -0.86186E-04 10584   0.423E-02 0.128E-02
CGA:  41    -0.340100018822E+03   -0.39275E-04   -0.81137E-04 10584   0.563E-02 0.897E-03
CGA:  42    -0.340100183411E+03   -0.16459E-03   -0.17963E-03 10584   0.134E-01 0.287E-03
CGA:  43    -0.340100565121E+03   -0.38171E-03   -0.34667E-03 10584   0.256E-01-0.216E-02
CGA:  44    -0.340100955001E+03   -0.38988E-03   -0.25409E-03 10584   0.238E-01-0.778E-03
CGA:  45    -0.340101288039E+03   -0.33304E-03   -0.21517E-03 10584   0.152E-01 0.315E-03
CGA:  46    -0.340101473305E+03   -0.18527E-03   -0.13888E-03 10584   0.877E-02-0.369E-03
CGA:  47    -0.340101549490E+03   -0.76186E-04   -0.73713E-04 10584   0.577E-02 0.200E-03
CGA:  48    -0.340101589923E+03   -0.40432E-04   -0.56247E-04 10584   0.529E-02 0.530E-03
CGA:  49    -0.340101638899E+03   -0.48976E-04   -0.73852E-04 10584   0.786E-02 0.774E-03
CGA:  50    -0.340101773730E+03   -0.13483E-03   -0.16515E-03 10584   0.165E-01 0.102E-02
CGA:  51    -0.340102110736E+03   -0.33701E-03   -0.36399E-03 10584   0.256E-01 0.119E-03
CGA:  52    -0.340102455679E+03   -0.34494E-03   -0.30282E-03 10584   0.158E-01-0.912E-03
CGA:  53    -0.340102647949E+03   -0.19227E-03   -0.14244E-03 10584   0.802E-02-0.112E-02
CGA:  54    -0.340102762881E+03   -0.11493E-03   -0.87185E-04 10584   0.766E-02-0.980E-03
CGA:  55    -0.340102865532E+03   -0.10265E-03   -0.97575E-04 10584   0.124E-01-0.137E-03
SDA:  56    -0.340103006901E+03   -0.14137E-03   -0.17196E-03 10584   0.174E-01 0.176E-02
CGA:  57    -0.340103346723E+03   -0.33982E-03   -0.38214E-03 10584   0.332E-02 0.352E-02
CGA:  58    -0.340103668851E+03   -0.32213E-03   -0.27846E-03 10584   0.628E-02 0.119E-02
CGA:  59    -0.340104088231E+03   -0.41938E-03   -0.90583E-03 10584   0.956E-02-0.688E-02
CGA:  60    -0.340104244963E+03   -0.15673E-03   -0.20989E-03 10584   0.275E-02 0.315E-02
CGA:  61    -0.340104337269E+03   -0.92307E-04   -0.11004E-03 10584   0.261E-02 0.229E-02
CGA:  62    -0.340104494873E+03   -0.15760E-03   -0.20692E-03 10584   0.711E-02-0.120E-02
CGA:  63    -0.340104568429E+03   -0.73555E-04   -0.99794E-04 10584   0.720E-02 0.192E-02
CGA:  64    -0.340104650583E+03   -0.82154E-04   -0.15069E-03 10584   0.103E-02 0.305E-02
CGA:  65    -0.340104654396E+03   -0.38127E-05   -0.20927E-04 10584   0.545E-03 0.728E-03
CGA:  66    -0.340104698632E+03   -0.44236E-04    0.91264E-04 10584   0.485E-03 0.501E-03
CGA:  67    -0.340104901436E+03   -0.20280E-03   -0.32040E-03 10584   0.466E-03 0.365E-03
CGA:  68    -0.340104935461E+03   -0.34025E-04   -0.32810E-04 10584   0.487E-03 0.330E-03
CGA:  69    -0.340104946336E+03   -0.10875E-04   -0.19662E-04 10584   0.412E-03 0.331E-03
CGA:  70    -0.340105073086E+03   -0.12675E-03   -0.32758E-07 10584   0.947E-02-0.171E-03
CGA:  71    -0.340105260431E+03   -0.18734E-03   -0.28881E-03 10584   0.263E-01 0.143E-02
CGA:  72    -0.340106100449E+03   -0.84002E-03   -0.12529E-02 10584   0.514E-02 0.708E-02
CGA:  73    -0.340106276869E+03   -0.17642E-03   -0.22360E-03 10584   0.200E-02 0.874E-03
CGA:  74    -0.340106644727E+03   -0.36786E-03   -0.45125E-03 10584   0.133E-01-0.988E-03
[...]
CGA:   5    -0.340843420885E+03   -0.22847E-02   -0.21167E-02 10584   0.276E-01-0.289E-02
CGA:   6    -0.340844342516E+03   -0.92163E-03   -0.98003E-03 10584   0.377E-02 0.107E-02
CGA:   7    -0.340844498521E+03   -0.15601E-03   -0.21959E-03 10584   0.427E-02 0.685E-03
CGA:   8    -0.340844971180E+03   -0.47266E-03   -0.40200E-03 10584   0.119E-02-0.104E-02
CGA:   9    -0.340844972803E+03   -0.16236E-05   -0.36084E-04 10584   0.610E-03 0.329E-03
CGA:  10    -0.340845051552E+03   -0.78749E-04   -0.81514E-04 10584   0.607E-03 0.791E-04
CGA:  11    -0.340845139008E+03   -0.87456E-04   -0.58796E-04 10584   0.107E-02-0.554E-03
CGA:  12    -0.340845119827E+03    0.19181E-04   -0.20222E-04 10584   0.201E-03 0.344E-03
CGA:  13    -0.340845111668E+03    0.81590E-05   -0.60156E-05 10584   0.156E-03 0.133E-03
CGA:  14    -0.340845185262E+03   -0.73594E-04    0.10668E-04 10584   0.652E-03-0.747E-04
CGA:  15    -0.340845192228E+03   -0.69664E-05   -0.95557E-05 10584   0.531E-03 0.269E-04
 121 F= -.34084519E+03 E0= -.34083893E+03  d E =0.871108E-03  mag=    14.0000
       N       E                     dE             d eps       ncg     rms          ort
SDA:   1    -0.339912332939E+03    0.93285E+00    0.00000E+00 10584   0.418E+02 0.000E+00
CGA:   2    -0.340135563983E+03   -0.22323E+00   -0.18585E+01 10584   0.217E+02-0.237E+02
CGA:   3    -0.340802443416E+03   -0.66688E+00   -0.49606E+00 10584   0.101E+01 0.434E+01
CGA:   4    -0.340825423717E+03   -0.22980E-01   -0.18478E-01 10584   0.144E+00 0.348E+00
CGA:   5    -0.340829468608E+03   -0.40449E-02   -0.38941E-02 10584   0.588E-01 0.191E-01
CGA:   6    -0.340833100660E+03   -0.36321E-02   -0.34939E-02 10584   0.106E+00-0.556E-02
CGA:   7    -0.340837132209E+03   -0.40315E-02   -0.36232E-02 10584   0.121E+00-0.928E-02
CGA:   8    -0.340840194867E+03   -0.30627E-02   -0.29521E-02 10584   0.734E-01-0.122E-02
CGA:   9    -0.340841518720E+03   -0.13239E-02   -0.14632E-02 10584   0.317E-01 0.526E-02
CGA:  10    -0.340842137193E+03   -0.61847E-03   -0.70855E-03 10584   0.168E-01 0.243E-02
CGA:  11    -0.340842716430E+03   -0.57924E-03   -0.56423E-03 10584   0.193E-01-0.462E-03
CGA:  12    -0.340843528628E+03   -0.81220E-03   -0.77245E-03 10584   0.286E-01-0.111E-02
CGA:  13    -0.340844035995E+03   -0.50737E-03   -0.59836E-03 10584   0.132E-01 0.167E-02
CGA:  14    -0.340844100070E+03   -0.64075E-04   -0.18330E-03 10584   0.329E-02 0.235E-02
CGA:  15    -0.340844082478E+03    0.17592E-04   -0.46465E-04 10584   0.148E-02 0.111E-02
CGA:  16    -0.340844074401E+03    0.80771E-05   -0.32741E-04 10584   0.159E-02 0.784E-03
CGA:  17    -0.340844321726E+03   -0.24733E-03    0.31071E-03 10584   0.211E-02 0.760E-05
CGA:  18    -0.340844454359E+03   -0.13263E-03   -0.13455E-03 10584   0.398E-03 0.635E-03
CGA:  19    -0.340844456269E+03   -0.19100E-05   -0.12761E-04 10584   0.166E-03 0.261E-03
CGA:  20    -0.340844482238E+03   -0.25970E-04    0.24515E-04 10584   0.135E-03 0.112E-03
CGA:  21    -0.340844478351E+03    0.38868E-05   -0.19404E-05 10584   0.110E-03 0.117E-03
 122 F= -.34084448E+03 E0= -.34083817E+03  d E =0.713877E-03  mag=    14.0000
       N       E                     dE             d eps       ncg     rms          ort
SDA:   1    -0.340836964106E+03    0.75181E-02    0.00000E+00 10584   0.312E-01 0.000E+00
CGA:   2    -0.340839377117E+03   -0.24130E-02   -0.28206E-02 10584   0.951E-01-0.137E-01
CGA:   3    -0.340842139400E+03   -0.27623E-02   -0.27453E-02 10584   0.978E-01-0.164E-02
CGA:   4    -0.340843656764E+03   -0.15174E-02   -0.18125E-02 10584   0.181E-01 0.880E-02
CGA:   5    -0.340843991918E+03   -0.33515E-03   -0.45608E-03 10584   0.104E-01 0.357E-02
CGA:   6    -0.340844473861E+03   -0.48194E-03   -0.49383E-03 10584   0.953E-02 0.694E-03
CGA:   7    -0.340844954798E+03   -0.48094E-03   -0.46104E-03 10584   0.119E-01-0.187E-02
CGA:   8    -0.340845169651E+03   -0.21485E-03   -0.24996E-03 10584   0.780E-02 0.119E-02
CGA:   9    -0.340845222000E+03   -0.52349E-04   -0.12696E-03 10584   0.201E-02 0.200E-02
CGA:  10    -0.340845221473E+03    0.52786E-06   -0.32774E-04 10584   0.855E-03 0.866E-03
CGA:  11    -0.340845231782E+03   -0.10310E-04   -0.23858E-04 10584   0.843E-03 0.443E-03
CGA:  12    -0.340845350362E+03   -0.11858E-03    0.46237E-04 10584   0.657E-03 0.156E-03
CGA:  13    -0.340845388413E+03   -0.38051E-04   -0.38013E-04 10584   0.175E-03 0.396E-03
CGA:  14    -0.340845389064E+03   -0.65100E-06   -0.39580E-05 10584   0.109E-03 0.127E-03
CGA:  15    -0.340845401307E+03   -0.12242E-04    0.14320E-04 10584   0.784E-04 0.894E-04
CGA:  16    -0.340845432874E+03   -0.31567E-04   -0.65321E-05 10584   0.378E-04 0.195E-04
CGA:  17    -0.340845451833E+03   -0.18959E-04    0.15424E-05 10584   0.781E-04-0.413E-05
CGA:  18    -0.340845451249E+03    0.58416E-06   -0.21728E-05 10584   0.694E-04 0.499E-04
 123 F= -.34084545E+03 E0= -.34083912E+03  d E =-.972898E-03  mag=    14.0000
       N       E                     dE             d eps       ncg     rms          ort
SDA:   1    -0.340730260435E+03    0.11519E+00    0.00000E+00 10584   0.378E+00 0.000E+00
CGA:   2    -0.340778164636E+03   -0.47904E-01   -0.47730E-01 10584   0.746E+00 0.188E-02
CGA:   3    -0.340824903797E+03   -0.46739E-01   -0.46379E-01 10584   0.151E+00-0.302E-02
CGA:   4    -0.340835828296E+03   -0.10924E-01   -0.10942E-01 10584   0.102E+00 0.478E-02
CGA:   5    -0.340845815362E+03   -0.99871E-02   -0.10111E-01 10584   0.113E+00-0.871E-02
CGA:   6    -0.340848753791E+03   -0.29384E-02   -0.32841E-02 10584   0.129E-01 0.107E-01
CGA:   7    -0.340849334845E+03   -0.58105E-03   -0.68812E-03 10584   0.141E-01 0.353E-02
CGA:   8    -0.340850783750E+03   -0.14489E-02   -0.14586E-02 10584   0.357E-02-0.259E-02
CGA:   9    -0.340850937863E+03   -0.15411E-03   -0.17369E-03 10584   0.225E-02 0.108E-02
CGA:  10    -0.340851285150E+03   -0.34729E-03   -0.51450E-03 10584   0.438E-02-0.170E-02
CGA:  11    -0.340851330493E+03   -0.45343E-04   -0.10905E-03 10584   0.899E-03 0.116E-02
CGA:  12    -0.340851384900E+03   -0.54407E-04   -0.61323E-04 10584   0.903E-03 0.277E-03
CGA:  13    -0.340851410812E+03   -0.25912E-04   -0.18925E-03 10584   0.525E-02-0.198E-02
CGA:  14    -0.340851454841E+03   -0.44029E-04   -0.11997E-03 10584   0.867E-03 0.135E-02
CGA:  15    -0.340851484532E+03   -0.29692E-04   -0.42776E-04 10584   0.680E-03 0.331E-03
CGA:  16    -0.340851314413E+03    0.17012E-03   -0.22008E-03 10584   0.886E-02-0.248E-02
CGA:  17    -0.340851418661E+03   -0.10425E-03   -0.21955E-03 10584   0.145E-02 0.197E-02
CGA:  18    -0.340851491914E+03   -0.73254E-04   -0.82004E-04 10584   0.912E-03 0.252E-03
CGA:  19    -0.340848818168E+03    0.26737E-02   -0.14558E-02 10584   0.824E-01-0.737E-02
CGA:  20    -0.340850360436E+03   -0.15423E-02   -0.18864E-02 10584   0.805E-02 0.980E-02
CGA:  21    -0.340850873001E+03   -0.51256E-03   -0.57610E-03 10584   0.882E-02 0.897E-03
CGA:  22    -0.340851597347E+03   -0.72435E-03   -0.59065E-03 10584   0.570E-02-0.181E-02
CGA:  23    -0.340851681437E+03   -0.84090E-04   -0.13295E-03 10584   0.116E-02 0.517E-03
CGA:  24    -0.340851667375E+03    0.14062E-04   -0.21480E-04 10584   0.267E-03 0.331E-03
CGA:  25    -0.340851662520E+03    0.48548E-05   -0.65828E-05 10584   0.138E-03 0.113E-03
 124 F= -.34085166E+03 E0= -.34084532E+03  d E =-.621127E-02  mag=    14.0000
       N       E                     dE             d eps       ncg     rms          ort
SDA:   1    -0.340824244926E+03    0.27422E-01    0.00000E+00 10584   0.263E+00 0.000E+00
CGA:   2    -0.340833530145E+03   -0.92852E-02   -0.94862E-02 10584   0.717E-01-0.652E-02
CGA:   3    -0.340838745902E+03   -0.52158E-02   -0.53502E-02 10584   0.716E-01 0.516E-02
CGA:   4    -0.340845954809E+03   -0.72089E-02   -0.71524E-02 10584   0.494E-01-0.436E-02
CGA:   5    -0.340847207009E+03   -0.12522E-02   -0.14958E-02 10584   0.100E-01 0.510E-02
CGA:   6    -0.340848270726E+03   -0.10637E-02   -0.10731E-02 10584   0.149E-01 0.157E-02
CGA:   7    -0.340849417704E+03   -0.11470E-02   -0.97224E-03 10584   0.870E-02-0.399E-02
CGA:   8    -0.340849615743E+03   -0.19804E-03   -0.24636E-03 10584   0.195E-02 0.836E-03
CGA:   9    -0.340849632596E+03   -0.16853E-04   -0.62437E-04 10584   0.117E-02 0.680E-03
CGA:  10    -0.340849756689E+03   -0.12409E-03   -0.12756E-03 10584   0.158E-02 0.270E-03
CGA:  11    -0.340849867453E+03   -0.11076E-03   -0.91452E-04 10584   0.483E-03-0.420E-03
CGA:  12    -0.340849858777E+03    0.86759E-05   -0.68828E-05 10584   0.316E-03 0.217E-03
 125 F= -.34084986E+03 E0= -.34084346E+03  d E =0.180374E-02  mag=    14.0000
       N       E                     dE             d eps       ncg     rms          ort
SDA:   1    -0.340826126622E+03    0.23741E-01    0.00000E+00 10584   0.244E+00 0.000E+00
CGA:   2    -0.340831826910E+03   -0.57003E-02   -0.61910E-02 10584   0.476E-01 0.191E-01
CGA:   3    -0.340840619327E+03   -0.87924E-02   -0.84013E-02 10584   0.833E-01 0.472E-02
CGA:   4    -0.340844723128E+03   -0.41038E-02   -0.39089E-02 10584   0.321E-01-0.693E-02
CGA:   5    -0.340846036340E+03   -0.13132E-02   -0.13952E-02 10584   0.115E-01 0.271E-02
CGA:   6    -0.340847522465E+03   -0.14861E-02   -0.15741E-02 10584   0.208E-01-0.196E-02
CGA:   7    -0.340848260788E+03   -0.73832E-03   -0.61602E-03 10584   0.365E-02-0.286E-02
CGA:   8    -0.340848350078E+03   -0.89290E-04   -0.10869E-03 10584   0.220E-02 0.432E-03
CGA:   9    -0.340848485256E+03   -0.13518E-03   -0.14384E-03 10584   0.169E-02 0.428E-03
CGA:  10    -0.340848643821E+03   -0.15856E-03   -0.17169E-03 10584   0.401E-02-0.183E-02
CGA:  11    -0.340848663546E+03   -0.19725E-04   -0.80180E-04 10584   0.495E-03 0.108E-02
CGA:  12    -0.340848660237E+03    0.33087E-05   -0.12822E-04 10584   0.287E-03 0.295E-03
CGA:  13    -0.340848714348E+03   -0.54111E-04    0.34832E-04 10584   0.215E-03 0.137E-03
CGA:  14    -0.340848712206E+03    0.21425E-05   -0.82627E-05 10584   0.942E-04 0.223E-03
 126 F= -.34084871E+03 E0= -.34084234E+03  d E =0.114657E-02  mag=    14.0000
       N       E                     dE             d eps       ncg     rms          ort
SDA:   1    -0.340816609616E+03    0.32105E-01    0.00000E+00 10584   0.126E+00 0.000E+00
CGA:   2    -0.340821677553E+03   -0.50679E-02   -0.53991E-02 10584   0.105E+00 0.139E-01
CGA:   3    -0.340841881884E+03   -0.20204E-01   -0.21017E-01 10584   0.366E-01-0.708E-02
CGA:   4    -0.340844752989E+03   -0.28711E-02   -0.28925E-02 10584   0.254E-01-0.183E-02
CGA:   5    -0.340847135387E+03   -0.23824E-02   -0.25438E-02 10584   0.195E-01-0.506E-02
CGA:   6    -0.340847607368E+03   -0.47198E-03   -0.49082E-03 10584   0.392E-02 0.612E-03
CGA:   7    -0.340847922474E+03   -0.31511E-03   -0.31806E-03 10584   0.685E-02-0.483E-03
CGA:   8    -0.340848223823E+03   -0.30135E-03   -0.28084E-03 10584   0.207E-02-0.793E-03
CGA:   9    -0.340848249750E+03   -0.25926E-04   -0.44353E-04 10584   0.100E-02 0.400E-03
CGA:  10    -0.340848275758E+03   -0.26008E-04   -0.42537E-04 10584   0.102E-02 0.494E-03
CGA:  11    -0.340848367273E+03   -0.91515E-04   -0.91828E-04 10584   0.647E-03 0.450E-04
CGA:  12    -0.340848322058E+03    0.45215E-04   -0.10733E-03 10584   0.422E-02-0.167E-02
CGA:  13    -0.340848345968E+03   -0.23910E-04   -0.91749E-04 10584   0.839E-03 0.137E-02
CGA:  14    -0.340848361369E+03   -0.15402E-04   -0.32353E-04 10584   0.526E-03 0.424E-03
CGA:  15    -0.340848480785E+03   -0.11942E-03    0.25678E-04 10584   0.745E-03-0.554E-04
CGA:  16    -0.340848504631E+03   -0.23846E-04   -0.29768E-04 10584   0.193E-03 0.263E-03
CGA:  17    -0.340848497905E+03    0.67257E-05   -0.26883E-05 10584   0.761E-04 0.169E-03
 127 F= -.34084850E+03 E0= -.34084221E+03  d E =0.214301E-03  mag=    14.0000
       N       E                     dE             d eps       ncg     rms          ort
SDA:   1    -0.340844476932E+03    0.40277E-02    0.00000E+00 10584   0.583E-01 0.000E+00
CGA:   2    -0.340846613802E+03   -0.21369E-02   -0.19105E-02 10584   0.149E-01-0.106E-01
CGA:   3    -0.340847697131E+03   -0.10833E-02   -0.99006E-03 10584   0.754E-02 0.420E-02
CGA:   4    -0.340848438971E+03   -0.74184E-03   -0.11870E-02 10584   0.401E-01-0.713E-02
CGA:   5    -0.340849090024E+03   -0.65105E-03   -0.82543E-03 10584   0.171E-02 0.551E-02
CGA:   6    -0.340849118798E+03   -0.28774E-04   -0.52256E-04 10584   0.110E-02 0.688E-03
CGA:   7    -0.340849276036E+03   -0.15724E-03   -0.14324E-03 10584   0.271E-02 0.423E-03
CGA:   8    -0.340849450053E+03   -0.17402E-03   -0.17644E-03 10584   0.612E-03 0.170E-03
CGA:   9    -0.340849444287E+03    0.57666E-05   -0.10800E-04 10584   0.301E-03 0.378E-03
 128 F= -.34084944E+03 E0= -.34084315E+03  d E =-.946381E-03  mag=    14.0000
       N       E                     dE             d eps       ncg     rms          ort
SDA:   1    -0.340844994914E+03    0.44551E-02    0.00000E+00 10584   0.384E-01 0.000E+00
CGA:   2    -0.340845846505E+03   -0.85159E-03   -0.10585E-02 10584   0.128E-01 0.738E-02
CGA:   3    -0.340848032715E+03   -0.21862E-02   -0.20043E-02 10584   0.229E-01 0.241E-02
CGA:   4    -0.340849474412E+03   -0.14417E-02   -0.13653E-02 10584   0.140E-01-0.874E-02
CGA:   5    -0.340849714881E+03   -0.24047E-03   -0.28765E-03 10584   0.550E-02 0.185E-02
CGA:   6    -0.340849791465E+03   -0.76584E-04   -0.14864E-03 10584   0.320E-02 0.214E-02
CGA:   7    -0.340850057926E+03   -0.26646E-03   -0.26284E-03 10584   0.418E-02 0.109E-02
CGA:   8    -0.340850380943E+03   -0.32302E-03   -0.37660E-03 10584   0.425E-02-0.478E-02
CGA:   9    -0.340850387728E+03   -0.67844E-05   -0.74044E-04 10584   0.100E-02 0.172E-02
CGA:  10    -0.340850380929E+03    0.67988E-05   -0.23032E-04 10584   0.625E-03 0.779E-03
CGA:  11    -0.340850461086E+03   -0.80158E-04    0.75611E-04 10584   0.361E-03 0.356E-03
CGA:  12    -0.340850456963E+03    0.41237E-05   -0.60793E-05 10584   0.239E-03 0.285E-03
 129 F= -.34085046E+03 E0= -.34084418E+03  d E =-.101268E-02  mag=    14.0000
       N       E                     dE             d eps       ncg     rms          ort
SDA:   1    -0.340841850833E+03    0.86103E-02    0.00000E+00 10584   0.336E-01 0.000E+00
CGA:   2    -0.340843011847E+03   -0.11610E-02   -0.12720E-02 10584   0.231E-01 0.891E-02
CGA:   3    -0.340848361103E+03   -0.53493E-02   -0.52187E-02 10584   0.884E-02 0.101E-02
CGA:   4    -0.340848526243E+03   -0.16514E-03   -0.11826E-02 10584   0.753E-01-0.142E-01
CGA:   5    -0.340849715992E+03   -0.11897E-02   -0.15302E-02 10584   0.281E-02 0.978E-02
CGA:   6    -0.340849746837E+03   -0.30845E-04   -0.75212E-04 10584   0.153E-02 0.131E-02
CGA:   7    -0.340849932513E+03   -0.18568E-03   -0.17813E-03 10584   0.296E-02 0.324E-03
CGA:   8    -0.340850094048E+03   -0.16154E-03   -0.30322E-03 10584   0.379E-02-0.518E-02
CGA:   9    -0.340850100967E+03   -0.69186E-05   -0.72751E-04 10584   0.118E-02 0.168E-02
CGA:  10    -0.340850103956E+03   -0.29899E-05   -0.37059E-04 10584   0.973E-03 0.977E-03
CGA:  11    -0.340850242187E+03   -0.13823E-03    0.90684E-04 10584   0.827E-03 0.308E-03
CGA:  12    -0.340850264576E+03   -0.22389E-04   -0.36991E-04 10584   0.262E-03 0.698E-03
CGA:  13    -0.340850259278E+03    0.52979E-05   -0.34897E-05 10584   0.187E-03 0.217E-03
 130 F= -.34085026E+03 E0= -.34084399E+03  d E =0.197684E-03  mag=    14.0000
       N       E                     dE             d eps       ncg     rms          ort
SDA:   1    -0.340846076646E+03    0.41879E-02    0.00000E+00 10584   0.138E-01 0.000E+00
CGA:   2    -0.340846670305E+03   -0.59366E-03   -0.18047E-02 10584   0.948E-01-0.150E-01
CGA:   3    -0.340848264199E+03   -0.15939E-02   -0.19545E-02 10584   0.437E-02 0.125E-01
CGA:   4    -0.340848343811E+03   -0.79612E-04   -0.13348E-03 10584   0.315E-02 0.211E-02
CGA:   5    -0.340848770044E+03   -0.42623E-03   -0.37743E-03 10584   0.656E-02 0.166E-02
CGA:   6    -0.340849109964E+03   -0.33992E-03   -0.33009E-03 10584   0.632E-02-0.404E-02
CGA:   7    -0.340849169539E+03   -0.59576E-04   -0.12423E-03 10584   0.115E-02 0.201E-02
CGA:   8    -0.340849179652E+03   -0.10113E-04   -0.32585E-04 10584   0.931E-03 0.765E-03
CGA:   9    -0.340849293114E+03   -0.11346E-03    0.10047E-03 10584   0.791E-03 0.628E-03
CGA:  10    -0.340849301627E+03   -0.85135E-05   -0.21813E-04 10584   0.602E-03 0.605E-03
CGA:  11    -0.340849363467E+03   -0.61840E-04    0.24787E-03 10584   0.491E-03 0.528E-03
CGA:  12    -0.340849394753E+03   -0.31286E-04   -0.27865E-04 10584   0.394E-03 0.413E-03
CGA:  13    -0.340849447347E+03   -0.52594E-04    0.26525E-04 10584   0.332E-03 0.314E-03
CGA:  14    -0.340849447988E+03   -0.64094E-06   -0.78607E-05 10584   0.276E-03 0.286E-03
CGA:  15    -0.340849557789E+03   -0.10980E-03   -0.27438E-04 10584   0.736E-04 0.920E-04
CGA:  16    -0.340849553066E+03    0.47231E-05   -0.11476E-05 10584   0.443E-04 0.780E-04
 131 F= -.34084955E+03 E0= -.34084328E+03  d E =0.706212E-03  mag=    14.0000
       N       E                     dE             d eps       ncg     rms          ort
SDA:   1    -0.340846509019E+03    0.30488E-02    0.00000E+00 10584   0.752E-02 0.000E+00
CGA:   2    -0.340847209297E+03   -0.70028E-03   -0.95600E-03 10584   0.412E-01-0.542E-02
CGA:   3    -0.340847784223E+03   -0.57493E-03   -0.83755E-03 10584   0.223E-02 0.544E-02
CGA:   4    -0.340847827409E+03   -0.43186E-04   -0.88078E-04 10584   0.228E-02 0.103E-02
CGA:   5    -0.340848392804E+03   -0.56540E-03   -0.60896E-03 10584   0.472E-02-0.410E-03
CGA:   6    -0.340848565627E+03   -0.17282E-03   -0.11582E-03 10584   0.119E-02-0.114E-02
CGA:   7    -0.340848584085E+03   -0.18458E-04   -0.22758E-04 10584   0.553E-03 0.832E-04
CGA:   8    -0.340848586980E+03   -0.28949E-05   -0.13843E-04 10584   0.385E-03 0.206E-03
CGA:   9    -0.340848612375E+03   -0.25395E-04   -0.27021E-04 10584   0.629E-03 0.714E-04
CGA:  10    -0.340848366055E+03    0.24632E-03   -0.15565E-03 10584   0.420E-02-0.296E-02
CGA:  11    -0.340848414357E+03   -0.48302E-04   -0.12308E-03 10584   0.168E-02 0.151E-02
CGA:  12    -0.340848585208E+03   -0.17085E-03   -0.17210E-03 10584   0.150E-02 0.790E-03
CGA:  13    -0.340848752871E+03   -0.16766E-03   -0.16174E-03 10584   0.229E-02-0.150E-02
CGA:  14    -0.340848737951E+03    0.14920E-04   -0.36567E-04 10584   0.373E-03 0.857E-03
CGA:  15    -0.340848726263E+03    0.11689E-04   -0.54761E-05 10584   0.144E-03 0.273E-03
CGA:  16    -0.340848724423E+03    0.18397E-05   -0.32564E-05 10584   0.882E-04 0.106E-03
CGA:  17    -0.340848744364E+03   -0.19941E-04   -0.19117E-04 10584   0.297E-04 0.554E-05
CGA:  18    -0.340848749392E+03   -0.50278E-05    0.23145E-04 10584   0.735E-04-0.278E-04
 132 F= -.34084875E+03 E0= -.34084249E+03  d E =0.803674E-03  mag=    14.0000
       N       E                     dE             d eps       ncg     rms          ort
SDA:   1    -0.340846382787E+03    0.23616E-02    0.00000E+00 10584   0.199E-01 0.000E+00
CGA:   2    -0.340847020183E+03   -0.63740E-03   -0.64069E-03 10584   0.515E-02 0.181E-03
CGA:   3    -0.340847687111E+03   -0.66693E-03   -0.16154E-03 10584   0.160E-01-0.428E-02
CGA:   4    -0.340847952630E+03   -0.26552E-03   -0.46579E-03 10584   0.466E-02 0.233E-02
CGA:   5    -0.340848576196E+03   -0.62357E-03   -0.61937E-03 10584   0.294E-02-0.532E-03
CGA:   6    -0.340848794187E+03   -0.21799E-03   -0.14579E-03 10584   0.177E-02-0.110E-02
CGA:   7    -0.340848780005E+03    0.14182E-04   -0.23101E-04 10584   0.786E-03 0.376E-03
CGA:   8    -0.340848759430E+03    0.20575E-04   -0.16673E-04 10584   0.408E-03 0.382E-03
CGA:   9    -0.340848757014E+03    0.24163E-05   -0.17280E-04 10584   0.380E-03 0.241E-03
CGA:  10    -0.340848873186E+03   -0.11617E-03    0.46020E-04 10584   0.308E-02-0.759E-03
CGA:  11    -0.340848845643E+03    0.27542E-04   -0.50527E-04 10584   0.271E-03 0.879E-03
CGA:  12    -0.340848831877E+03    0.13766E-04   -0.31850E-05 10584   0.845E-04 0.183E-03
CGA:  13    -0.340848826971E+03    0.49057E-05   -0.72574E-06 10584   0.494E-04 0.636E-04
 133 F= -.34084883E+03 E0= -.34084258E+03  d E =-.775794E-04  mag=    14.0000
