       N       E                     dE             d eps       ncg     rms          ort
DAV:   1     0.264714775644E+04    0.26471E+04   -0.14506E+05  6048   0.160E+03
DAV:   2    -0.155053043578E+03   -0.28022E+04   -0.26246E+04  6048   0.428E+02
DAV:   3    -0.457517118062E+03   -0.30246E+03   -0.29841E+03  6048   0.157E+02
DAV:   4    -0.467411716604E+03   -0.98946E+01   -0.97124E+01  6048   0.274E+01
DAV:   5    -0.468074492859E+03   -0.66278E+00   -0.66019E+00  6048   0.524E+00
SDA:   6    -0.307311597456E+03    0.16076E+03   -0.66019E+00  6048   0.378E+03 0.000E+00
CGA:   7    -0.356144950780E+03   -0.48833E+02   -0.52078E+02  6048   0.510E+02 0.785E+01
CGA:   8    -0.364769622719E+03   -0.86247E+01   -0.86152E+01  6048   0.131E+02 0.828E-01
CGA:   9    -0.367536259232E+03   -0.27666E+01   -0.27660E+01  6048   0.564E+01 0.337E-01
CGA:  10    -0.368636843406E+03   -0.11006E+01   -0.11006E+01  6048   0.222E+01-0.122E-01
CGA:  11    -0.369142815667E+03   -0.50597E+00   -0.50721E+00  6048   0.817E+00-0.425E-01
CGA:  12    -0.369324041529E+03   -0.18123E+00   -0.18188E+00  6048   0.291E+00-0.230E-01
CGA:  13    -0.369393295533E+03   -0.69254E-01   -0.69035E-01  6048   0.869E-01 0.461E-02
CGA:  14    -0.369414939166E+03   -0.21644E-01   -0.21400E-01  6048   0.276E-01 0.590E-02
CGA:  15    -0.369424475989E+03   -0.95368E-02   -0.98687E-02  6048   0.134E-01-0.254E-02
CGA:  16    -0.369428181725E+03   -0.37057E-02   -0.38041E-02  6048   0.570E-02-0.969E-03
CGA:  17    -0.369429893388E+03   -0.17117E-02   -0.17773E-02  6048   0.233E-02-0.547E-03
CGA:  18    -0.369430636861E+03   -0.74347E-03   -0.80896E-03  6048   0.111E-02-0.404E-03
CGA:  19    -0.369430846669E+03   -0.20981E-03   -0.20994E-03  6048   0.410E-03 0.264E-03
CGA:  20    -0.369430966680E+03   -0.12001E-03   -0.11946E-03  6048   0.155E-03 0.901E-04
CGA:  21    -0.369430454346E+03    0.51233E-03   -0.28037E-03  6048   0.224E-02-0.634E-03
CGA:  22    -0.369430774581E+03   -0.32024E-03   -0.45675E-03  6048   0.353E-03 0.635E-03
CGA:  23    -0.369430977208E+03   -0.20263E-03   -0.23760E-03  6048   0.345E-03-0.302E-03
CGA:  24    -0.369431015215E+03   -0.38006E-04   -0.65403E-04  6048   0.529E-04 0.122E-03
CGA:  25    -0.369431045101E+03   -0.29886E-04   -0.32417E-04  6048   0.464E-04-0.507E-04
CGA:  26    -0.369431062931E+03   -0.17831E-04   -0.17541E-04  6048   0.678E-05-0.107E-04
CGA:  27    -0.369431061607E+03    0.13241E-05   -0.28110E-06  6048   0.512E-05 0.459E-05
   1 F= -.36943106E+03 E0= -.36943106E+03  d E =-.369431E+03  mag=    20.0000
       N       E                     dE             d eps       ncg     rms          ort
SDA:   1    -0.369432617566E+03   -0.15546E-02    0.00000E+00  6048   0.413E-03 0.000E+00
CGA:   2    -0.369432700752E+03   -0.83186E-04   -0.89577E-04  6048   0.159E-03 0.415E-04
CGA:   3    -0.369432733656E+03   -0.32904E-04   -0.33160E-04  6048   0.722E-04 0.141E-05
CGA:   4    -0.369432752853E+03   -0.19197E-04   -0.15864E-04  6048   0.361E-04-0.245E-04
CGA:   5    -0.369432755843E+03   -0.29897E-05   -0.30047E-05  6048   0.898E-05 0.623E-07
   2 F= -.36943276E+03 E0= -.36943276E+03  d E =-.169424E-02  mag=    20.0000
       N       E                     dE             d eps       ncg     rms          ort
SDA:   1    -0.369124019966E+03    0.30873E+00    0.00000E+00  6048   0.101E+01 0.000E+00
CGA:   2    -0.369374555815E+03   -0.25054E+00   -0.25075E+00  6048   0.421E+00 0.268E-02
CGA:   3    -0.369454705143E+03   -0.80149E-01   -0.80092E-01  6048   0.148E+00-0.730E-03
CGA:   4    -0.369480423582E+03   -0.25718E-01   -0.25579E-01  6048   0.321E-01-0.106E-02
CGA:   5    -0.369486203188E+03   -0.57796E-02   -0.57813E-02  6048   0.975E-02 0.735E-05
CGA:   6    -0.369488128304E+03   -0.19251E-02   -0.19578E-02  6048   0.339E-02 0.330E-03
CGA:   7    -0.369488988143E+03   -0.85984E-03   -0.86682E-03  6048   0.144E-02 0.144E-03
CGA:   8    -0.369489430248E+03   -0.44211E-03   -0.44217E-03  6048   0.753E-03-0.746E-04
CGA:   9    -0.369489647685E+03   -0.21744E-03   -0.21792E-03  6048   0.317E-03-0.389E-04
CGA:  10    -0.369489728234E+03   -0.80549E-04   -0.81028E-04  6048   0.113E-03 0.198E-04
CGA:  11    -0.369489758993E+03   -0.30760E-04   -0.31359E-04  6048   0.421E-04 0.195E-04
CGA:  12    -0.369489771341E+03   -0.12348E-04   -0.12788E-04  6048   0.186E-04 0.138E-04
CGA:  13    -0.369489780850E+03   -0.95092E-05   -0.94798E-05  6048   0.123E-04 0.306E-06
CGA:  14    -0.369489712990E+03    0.67860E-04   -0.36580E-04  6048   0.249E-03-0.582E-04
CGA:  15    -0.369489757892E+03   -0.44902E-04   -0.54436E-04  6048   0.357E-04 0.300E-04
CGA:  16    -0.369489774871E+03   -0.16979E-04   -0.17301E-04  6048   0.176E-04 0.367E-05
CGA:  17    -0.369489781439E+03   -0.65673E-05   -0.71358E-05  6048   0.625E-05 0.385E-05
   3 F= -.36948978E+03 E0= -.36948978E+03  d E =-.570256E-01  mag=    20.0000
       N       E                     dE             d eps       ncg     rms          ort
SDA:   1    -0.368825954815E+03    0.66382E+00    0.00000E+00  6048   0.213E+01 0.000E+00
CGA:   2    -0.369320692746E+03   -0.49474E+00   -0.49577E+00  6048   0.827E+00 0.246E-02
CGA:   3    -0.369475666868E+03   -0.15497E+00   -0.15487E+00  6048   0.288E+00-0.392E-03
CGA:   4    -0.369526568599E+03   -0.50902E-01   -0.50658E-01  6048   0.629E-01-0.866E-03
CGA:   5    -0.369537515128E+03   -0.10947E-01   -0.10932E-01  6048   0.177E-01-0.666E-04
CGA:   6    -0.369541092352E+03   -0.35772E-02   -0.36291E-02  6048   0.651E-02 0.208E-03
CGA:   7    -0.369542760472E+03   -0.16681E-02   -0.16864E-02  6048   0.310E-02 0.959E-04
CGA:   8    -0.369543710983E+03   -0.95051E-03   -0.94652E-03  6048   0.172E-02-0.318E-04
CGA:   9    -0.369544240030E+03   -0.52905E-03   -0.52887E-03  6048   0.758E-03-0.256E-05
CGA:  10    -0.369544456741E+03   -0.21671E-03   -0.21969E-03  6048   0.283E-03 0.229E-04
CGA:  11    -0.369544539122E+03   -0.82381E-04   -0.84774E-04  6048   0.107E-03 0.195E-04
CGA:  12    -0.369544573315E+03   -0.34193E-04   -0.35550E-04  6048   0.449E-04 0.140E-04
CGA:  13    -0.369544595912E+03   -0.22597E-04   -0.23127E-04  6048   0.303E-04-0.103E-04
CGA:  14    -0.369544605589E+03   -0.96773E-05   -0.97985E-05  6048   0.146E-04-0.924E-05
   4 F= -.36954461E+03 E0= -.36954461E+03  d E =-.548242E-01  mag=    20.0000
       N       E                     dE             d eps       ncg     rms          ort
SDA:   1    -0.368787091526E+03    0.75750E+00    0.00000E+00  6048   0.240E+01 0.000E+00
CGA:   2    -0.369340203397E+03   -0.55311E+00   -0.55377E+00  6048   0.874E+00 0.220E-02
CGA:   3    -0.369507343170E+03   -0.16714E+00   -0.16715E+00  6048   0.317E+00-0.364E-03
CGA:   4    -0.369562673845E+03   -0.55331E-01   -0.55217E-01  6048   0.681E-01-0.672E-03
CGA:   5    -0.369574881749E+03   -0.12208E-01   -0.12165E-01  6048   0.198E-01-0.250E-03
CGA:   6    -0.369579013182E+03   -0.41314E-02   -0.41359E-02  6048   0.778E-02 0.277E-04
CGA:   7    -0.369581052021E+03   -0.20388E-02   -0.20451E-02  6048   0.393E-02 0.686E-04
CGA:   8    -0.369582234680E+03   -0.11827E-02   -0.11846E-02  6048   0.217E-02 0.387E-04
CGA:   9    -0.369582907742E+03   -0.67306E-03   -0.67411E-03  6048   0.937E-03 0.288E-04
CGA:  10    -0.369583194078E+03   -0.28634E-03   -0.28647E-03  6048   0.363E-03 0.330E-05
CGA:  11    -0.369583308516E+03   -0.11444E-03   -0.11425E-03  6048   0.148E-03-0.718E-05
CGA:  12    -0.369583356377E+03   -0.47861E-04   -0.47889E-04  6048   0.609E-04 0.384E-05
CGA:  13    -0.369583378001E+03   -0.21624E-04   -0.21616E-04  6048   0.224E-04 0.101E-05
CGA:  14    -0.369583386525E+03   -0.85235E-05   -0.86121E-05  6048   0.812E-05-0.226E-05
   5 F= -.36958339E+03 E0= -.36958339E+03  d E =-.387809E-01  mag=    20.0000
       N       E                     dE             d eps       ncg     rms          ort
SDA:   1    -0.367969597763E+03    0.16138E+01    0.00000E+00  6048   0.462E+01 0.000E+00
CGA:   2    -0.369119481733E+03   -0.11499E+01   -0.11504E+01  6048   0.178E+01 0.335E-02
CGA:   3    -0.369460598028E+03   -0.34112E+00   -0.34103E+00  6048   0.617E+00-0.116E-02
CGA:   4    -0.369564190100E+03   -0.10359E+00   -0.10348E+00  6048   0.126E+00-0.106E-02
CGA:   5    -0.369587121511E+03   -0.22931E-01   -0.22901E-01  6048   0.377E-01-0.294E-03
CGA:   6    -0.369594981480E+03   -0.78600E-02   -0.78685E-02  6048   0.146E-01 0.755E-04
CGA:   7    -0.369598775241E+03   -0.37938E-02   -0.37968E-02  6048   0.710E-02 0.635E-04
CGA:   8    -0.369600901409E+03   -0.21262E-02   -0.21262E-02  6048   0.391E-02 0.758E-05
CGA:   9    -0.369602097940E+03   -0.11965E-02   -0.11962E-02  6048   0.167E-02 0.589E-04
CGA:  10    -0.369602611983E+03   -0.51404E-03   -0.51402E-03  6048   0.657E-03 0.112E-04
CGA:  11    -0.369602827207E+03   -0.21522E-03   -0.21607E-03  6048   0.293E-03-0.328E-04
CGA:  12    -0.369602919268E+03   -0.92061E-04   -0.91807E-04  6048   0.122E-03 0.910E-05
CGA:  13    -0.369602963782E+03   -0.44515E-04   -0.44572E-04  6048   0.479E-04-0.116E-05
CGA:  14    -0.369602981547E+03   -0.17764E-04   -0.18274E-04  6048   0.183E-04-0.647E-05
CGA:  15    -0.369602984048E+03   -0.25016E-05   -0.31483E-05  6048   0.599E-05 0.584E-05
   6 F= -.36960298E+03 E0= -.36960298E+03  d E =-.195975E-01  mag=    20.0000
       N       E                     dE             d eps       ncg     rms          ort
SDA:   1    -0.368933570828E+03    0.66941E+00    0.00000E+00  6048   0.176E+01 0.000E+00
CGA:   2    -0.369442071257E+03   -0.50850E+00   -0.50852E+00  6048   0.712E+00 0.183E-02
CGA:   3    -0.369574283860E+03   -0.13221E+00   -0.13217E+00  6048   0.214E+00-0.741E-03
CGA:   4    -0.369608674934E+03   -0.34391E-01   -0.34335E-01  6048   0.430E-01-0.507E-03
CGA:   5    -0.369616765742E+03   -0.80908E-02   -0.80755E-02  6048   0.133E-01-0.172E-03
CGA:   6    -0.369619458304E+03   -0.26926E-02   -0.26975E-02  6048   0.474E-02 0.594E-04
CGA:   7    -0.369620631540E+03   -0.11732E-02   -0.11754E-02  6048   0.207E-02 0.706E-04
CGA:   8    -0.369621263352E+03   -0.63181E-03   -0.63262E-03  6048   0.115E-02-0.330E-04
CGA:   9    -0.369621604248E+03   -0.34090E-03   -0.34069E-03  6048   0.485E-03 0.785E-05
CGA:  10    -0.369621743270E+03   -0.13902E-03   -0.13883E-03  6048   0.176E-03 0.329E-04
CGA:  11    -0.369621810548E+03   -0.67278E-04   -0.70314E-04  6048   0.109E-03-0.320E-04
CGA:  12    -0.369621841340E+03   -0.30792E-04   -0.31304E-04  6048   0.531E-04-0.764E-05
CGA:  13    -0.369621855434E+03   -0.14093E-04   -0.14100E-04  6048   0.197E-04 0.615E-05
CGA:  14    -0.369621863797E+03   -0.83626E-05   -0.10075E-04  6048   0.158E-04-0.994E-05
   7 F= -.36962186E+03 E0= -.36962186E+03  d E =-.188797E-01  mag=    20.0000
       N       E                     dE             d eps       ncg     rms          ort
SDA:   1    -0.368994278230E+03    0.62758E+00    0.00000E+00  6048   0.156E+01 0.000E+00
CGA:   2    -0.369484393458E+03   -0.49012E+00   -0.49003E+00  6048   0.604E+00 0.318E-02
CGA:   3    -0.369592672217E+03   -0.10828E+00   -0.10824E+00  6048   0.168E+00-0.712E-03
CGA:   4    -0.369619461607E+03   -0.26789E-01   -0.26728E-01  6048   0.349E-01-0.564E-03
CGA:   5    -0.369626155115E+03   -0.66935E-02   -0.66760E-02  6048   0.105E-01-0.212E-03
CGA:   6    -0.369628179337E+03   -0.20242E-02   -0.20258E-02  6048   0.330E-02 0.154E-04
CGA:   7    -0.369628956507E+03   -0.77717E-03   -0.78014E-03  6048   0.130E-02 0.831E-04
CGA:   8    -0.369629344790E+03   -0.38828E-03   -0.38818E-03  6048   0.685E-03 0.467E-05
CGA:   9    -0.369629557196E+03   -0.21241E-03   -0.21250E-03  6048   0.300E-03-0.250E-05
CGA:  10    -0.369629641888E+03   -0.84692E-04   -0.84472E-04  6048   0.105E-03 0.207E-04
CGA:  11    -0.369629682572E+03   -0.40683E-04   -0.43982E-04  6048   0.727E-04-0.280E-04
CGA:  12    -0.369629701393E+03   -0.18821E-04   -0.19882E-04  6048   0.406E-04-0.113E-04
CGA:  13    -0.369629709441E+03   -0.80479E-05   -0.83621E-05  6048   0.167E-04 0.796E-05
   8 F= -.36962971E+03 E0= -.36962971E+03  d E =-.784564E-02  mag=    20.0000
       N       E                     dE             d eps       ncg     rms          ort
SDA:   1    -0.368156795856E+03    0.14729E+01    0.00000E+00  6048   0.357E+01 0.000E+00
CGA:   2    -0.369323930860E+03   -0.11671E+01   -0.11669E+01  6048   0.137E+01 0.499E-02
CGA:   3    -0.369562283538E+03   -0.23835E+00   -0.23830E+00  6048   0.359E+00-0.139E-02
CGA:   4    -0.369619351257E+03   -0.57068E-01   -0.56967E-01  6048   0.731E-01-0.101E-02
CGA:   5    -0.369633316318E+03   -0.13965E-01   -0.13948E-01  6048   0.215E-01-0.236E-03
CGA:   6    -0.369637431333E+03   -0.41150E-02   -0.41215E-02  6048   0.631E-02 0.775E-04
CGA:   7    -0.369638905211E+03   -0.14739E-02   -0.14783E-02  6048   0.247E-02 0.148E-03
CGA:   8    -0.369639640652E+03   -0.73544E-03   -0.73530E-03  6048   0.130E-02 0.414E-05
CGA:   9    -0.369640052052E+03   -0.41140E-03   -0.41234E-03  6048   0.595E-03-0.181E-04
CGA:  10    -0.369640221061E+03   -0.16901E-03   -0.16835E-03  6048   0.205E-03 0.310E-04
CGA:  11    -0.369640293198E+03   -0.72136E-04   -0.73815E-04  6048   0.103E-03-0.224E-04
CGA:  12    -0.369640327789E+03   -0.34591E-04   -0.36140E-04  6048   0.603E-04-0.125E-04
CGA:  13    -0.369640345728E+03   -0.17939E-04   -0.17672E-04  6048   0.257E-04 0.466E-05
CGA:  14    -0.369640356088E+03   -0.10360E-04   -0.10542E-04  6048   0.117E-04-0.181E-05
CGA:  15    -0.369640358972E+03   -0.28835E-05   -0.29114E-05  6048   0.346E-05 0.176E-05
   9 F= -.36964036E+03 E0= -.36964036E+03  d E =-.106495E-01  mag=    20.0000
       N       E                     dE             d eps       ncg     rms          ort
SDA:   1    -0.366162157047E+03    0.34782E+01    0.00000E+00  6048   0.834E+01 0.000E+00
CGA:   2    -0.368928432442E+03   -0.27663E+01   -0.27660E+01  6048   0.299E+01 0.428E-02
CGA:   3    -0.369470338262E+03   -0.54191E+00   -0.54201E+00  6048   0.777E+00-0.967E-03
CGA:   4    -0.369591361833E+03   -0.12102E+00   -0.12098E+00  6048   0.164E+00-0.665E-03
CGA:   5    -0.369623328867E+03   -0.31967E-01   -0.31960E-01  6048   0.487E-01-0.138E-03
CGA:   6    -0.369632689155E+03   -0.93603E-02   -0.93661E-02  6048   0.149E-01 0.461E-04
CGA:   7    -0.369636219685E+03   -0.35305E-02   -0.35361E-02  6048   0.589E-02 0.154E-03
CGA:   8    -0.369637928376E+03   -0.17087E-02   -0.17081E-02  6048   0.297E-02 0.332E-04
CGA:   9    -0.369638834495E+03   -0.90612E-03   -0.90587E-03  6048   0.124E-02 0.677E-05
CGA:  10    -0.369639202185E+03   -0.36769E-03   -0.36696E-03  6048   0.435E-03 0.317E-04
CGA:  11    -0.369639346812E+03   -0.14463E-03   -0.14647E-03  6048   0.201E-03-0.337E-04
CGA:  12    -0.369639417876E+03   -0.71064E-04   -0.73442E-04  6048   0.119E-03-0.201E-04
CGA:  13    -0.369639460052E+03   -0.42177E-04   -0.42222E-04  6048   0.600E-04-0.500E-06
CGA:  14    -0.369639482961E+03   -0.22908E-04   -0.23112E-04  6048   0.242E-04-0.209E-05
CGA:  15    -0.369639490494E+03   -0.75336E-05   -0.75006E-05  6048   0.679E-05 0.114E-05
  10 F= -.36963949E+03 E0= -.36963949E+03  d E =0.868477E-03  mag=    20.0000
       N       E                     dE             d eps       ncg     rms          ort
SDA:   1    -0.369366832775E+03    0.27265E+00    0.00000E+00  6048   0.688E+00 0.000E+00
CGA:   2    -0.369588025461E+03   -0.22119E+00   -0.22118E+00  6048   0.279E+00 0.540E-03
CGA:   3    -0.369636025535E+03   -0.48000E-01   -0.48059E-01  6048   0.777E-01 0.257E-03
CGA:   4    -0.369648753961E+03   -0.12728E-01   -0.12740E-01  6048   0.169E-01 0.631E-04
CGA:   5    -0.369652003029E+03   -0.32491E-02   -0.32427E-02  6048   0.524E-02-0.683E-04
CGA:   6    -0.369653060673E+03   -0.10576E-02   -0.10504E-02  6048   0.176E-02-0.849E-04
CGA:   7    -0.369653475217E+03   -0.41454E-03   -0.41494E-03  6048   0.687E-03 0.857E-05
CGA:   8    -0.369653643380E+03   -0.16816E-03   -0.17011E-03  6048   0.265E-03 0.553E-04
CGA:   9    -0.369653724396E+03   -0.81016E-04   -0.80963E-04  6048   0.975E-04 0.167E-04
CGA:  10    -0.369653759927E+03   -0.35531E-04   -0.37321E-04  6048   0.546E-04-0.223E-04
CGA:  11    -0.369653769551E+03   -0.96234E-05   -0.97203E-05  6048   0.173E-04 0.182E-05
  11 F= -.36965377E+03 E0= -.36965377E+03  d E =-.142791E-01  mag=    20.0000
       N       E                     dE             d eps       ncg     rms          ort
SDA:   1    -0.369618714983E+03    0.35045E-01    0.00000E+00  6048   0.986E-01 0.000E+00
CGA:   2    -0.369647114469E+03   -0.28399E-01   -0.28405E-01  6048   0.452E-01-0.555E-03
CGA:   3    -0.369654698396E+03   -0.75839E-02   -0.76154E-02  6048   0.127E-01 0.261E-03
CGA:   4    -0.369656816996E+03   -0.21186E-02   -0.21427E-02  6048   0.262E-02 0.227E-03
CGA:   5    -0.369657315699E+03   -0.49870E-03   -0.49869E-03  6048   0.777E-03-0.130E-05
CGA:   6    -0.369657493251E+03   -0.17755E-03   -0.17484E-03  6048   0.321E-03-0.717E-04
CGA:   7    -0.369657562105E+03   -0.68855E-04   -0.68571E-04  6048   0.130E-03-0.111E-04
CGA:   8    -0.369657587576E+03   -0.25471E-04   -0.26706E-04  6048   0.465E-04 0.258E-04
CGA:   9    -0.369657601298E+03   -0.13721E-04   -0.13824E-04  6048   0.207E-04 0.111E-04
CGA:  10    -0.369657609032E+03   -0.77345E-05   -0.14617E-04  6048   0.516E-04-0.221E-04
  12 F= -.36965761E+03 E0= -.36965761E+03  d E =-.383948E-02  mag=    20.0000
       N       E                     dE             d eps       ncg     rms          ort
SDA:   1    -0.369454599055E+03    0.20300E+00    0.00000E+00  6048   0.517E+00 0.000E+00
CGA:   2    -0.369611027525E+03   -0.15643E+00   -0.15642E+00  6048   0.235E+00 0.133E-04
CGA:   3    -0.369649243955E+03   -0.38216E-01   -0.38276E-01  6048   0.597E-01 0.409E-03
CGA:   4    -0.369659072060E+03   -0.98281E-02   -0.98515E-02  6048   0.123E-01 0.224E-03
CGA:   5    -0.369661316963E+03   -0.22449E-02   -0.22401E-02  6048   0.351E-02-0.675E-04
CGA:   6    -0.369662031459E+03   -0.71450E-03   -0.70712E-03  6048   0.108E-02-0.144E-03
CGA:   7    -0.369662260460E+03   -0.22900E-03   -0.22902E-03  6048   0.378E-03 0.362E-06
CGA:   8    -0.369662345562E+03   -0.85102E-04   -0.86370E-04  6048   0.138E-03 0.586E-04
CGA:   9    -0.369662389573E+03   -0.44011E-04   -0.43421E-04  6048   0.594E-04 0.263E-04
CGA:  10    -0.369662415371E+03   -0.25798E-04   -0.28571E-04  6048   0.508E-04-0.180E-04
CGA:  11    -0.369662422966E+03   -0.75947E-05   -0.75944E-05  6048   0.211E-04-0.263E-07
  13 F= -.36966242E+03 E0= -.36966242E+03  d E =-.481393E-02  mag=    20.0000
       N       E                     dE             d eps       ncg     rms          ort
SDA:   1    -0.367319975755E+03    0.23424E+01    0.00000E+00  6048   0.589E+01 0.000E+00
CGA:   2    -0.369043069497E+03   -0.17231E+01   -0.17229E+01  6048   0.297E+01 0.167E-02
CGA:   3    -0.369515575525E+03   -0.47251E+00   -0.47288E+00  6048   0.709E+00 0.182E-02
CGA:   4    -0.369632950377E+03   -0.11737E+00   -0.11742E+00  6048   0.152E+00 0.426E-03
CGA:   5    -0.369659786903E+03   -0.26837E-01   -0.26834E-01  6048   0.419E-01-0.983E-04
CGA:   6    -0.369668061702E+03   -0.82748E-02   -0.82621E-02  6048   0.123E-01-0.302E-03
CGA:   7    -0.369670769695E+03   -0.27080E-02   -0.27080E-02  6048   0.430E-02-0.212E-05
CGA:   8    -0.369671879536E+03   -0.11098E-02   -0.11060E-02  6048   0.177E-02 0.204E-03
CGA:   9    -0.369672429100E+03   -0.54956E-03   -0.54420E-03  6048   0.717E-03 0.982E-04
CGA:  10    -0.369672675922E+03   -0.24682E-03   -0.25335E-03  6048   0.327E-03-0.708E-04
CGA:  11    -0.369672756821E+03   -0.80899E-04   -0.80980E-04  6048   0.105E-03-0.303E-05
CGA:  12    -0.369672788228E+03   -0.31407E-04   -0.31246E-04  6048   0.427E-04 0.299E-05
CGA:  13    -0.369672806582E+03   -0.18354E-04   -0.22649E-04  6048   0.464E-04-0.162E-04
CGA:  14    -0.369672812193E+03   -0.56107E-05   -0.60599E-05  6048   0.280E-04 0.842E-05
  14 F= -.36967281E+03 E0= -.36967281E+03  d E =-.103892E-01  mag=    20.0000
       N       E                     dE             d eps       ncg     rms          ort
SDA:   1    -0.364171059823E+03    0.55017E+01    0.00000E+00  6048   0.126E+02 0.000E+00
CGA:   2    -0.367800883522E+03   -0.36298E+01   -0.36302E+01  6048   0.548E+01-0.129E-01
CGA:   3    -0.368768140248E+03   -0.96726E+00   -0.96775E+00  6048   0.179E+01 0.215E-02
CGA:   4    -0.369070013367E+03   -0.30187E+00   -0.30210E+00  6048   0.430E+00 0.148E-02
CGA:   5    -0.369153826177E+03   -0.83813E-01   -0.83870E-01  6048   0.144E+00 0.911E-03
CGA:   6    -0.369182876155E+03   -0.29050E-01   -0.29073E-01  6048   0.514E-01 0.483E-03
CGA:   7    -0.369195870520E+03   -0.12994E-01   -0.12995E-01  6048   0.217E-01-0.931E-04
CGA:   8    -0.369201325815E+03   -0.54553E-02   -0.54559E-02  6048   0.837E-02-0.106E-03
CGA:   9    -0.369203644978E+03   -0.23192E-02   -0.23134E-02  6048   0.276E-02 0.178E-03
CGA:  10    -0.369204408347E+03   -0.76337E-03   -0.76125E-03  6048   0.914E-03 0.948E-04
CGA:  11    -0.369204674725E+03   -0.26638E-03   -0.26602E-03  6048   0.301E-03 0.107E-04
CGA:  12    -0.369204774850E+03   -0.10013E-03   -0.10081E-03  6048   0.125E-03-0.866E-05
CGA:  13    -0.369204822152E+03   -0.47302E-04   -0.64996E-04  6048   0.138E-03-0.630E-04
CGA:  14    -0.369204840054E+03   -0.17902E-04   -0.22524E-04  6048   0.257E-04 0.440E-04
CGA:  15    -0.369204847266E+03   -0.72121E-05   -0.75394E-05  6048   0.127E-04 0.804E-05
CGA:  16    -0.369204850133E+03   -0.28663E-05   -0.13301E-04  6048   0.455E-04-0.196E-04
  15 F= -.36920485E+03 E0= -.36920485E+03  d E =0.467962E+00  mag=    20.0000
       N       E                     dE             d eps       ncg     rms          ort
SDA:   1    -0.368615038172E+03    0.58981E+00    0.00000E+00  6048   0.226E+01 0.000E+00
CGA:   2    -0.369334849823E+03   -0.71981E+00   -0.71980E+00  6048   0.701E+00 0.622E-04
CGA:   3    -0.369505868303E+03   -0.17102E+00   -0.17104E+00  6048   0.164E+00 0.194E-03
CGA:   4    -0.369537567093E+03   -0.31699E-01   -0.31689E-01  6048   0.588E-01-0.235E-03
CGA:   5    -0.369548499133E+03   -0.10932E-01   -0.10932E-01  6048   0.169E-01-0.977E-05
CGA:   6    -0.369552548099E+03   -0.40490E-02   -0.40528E-02  6048   0.789E-02 0.123E-03
CGA:   7    -0.369554358846E+03   -0.18107E-02   -0.18135E-02  6048   0.293E-02 0.638E-04
CGA:   8    -0.369555171908E+03   -0.81306E-03   -0.81318E-03  6048   0.117E-02-0.154E-04
CGA:   9    -0.369555480289E+03   -0.30838E-03   -0.30836E-03  6048   0.385E-03-0.708E-05
CGA:  10    -0.369555594856E+03   -0.11457E-03   -0.11572E-03  6048   0.132E-03-0.334E-04
CGA:  11    -0.369555631961E+03   -0.37105E-04   -0.37566E-04  6048   0.483E-04-0.109E-04
CGA:  12    -0.369555638622E+03   -0.66612E-05   -0.81952E-05  6048   0.178E-04 0.177E-04
  16 F= -.36955564E+03 E0= -.36955564E+03  d E =-.350788E+00  mag=    20.0000
       N       E                     dE             d eps       ncg     rms          ort
SDA:   1    -0.369237559717E+03    0.31807E+00    0.00000E+00  6048   0.102E+01 0.000E+00
CGA:   2    -0.369562831435E+03   -0.32527E+00   -0.32522E+00  6048   0.321E+00 0.643E-03
CGA:   3    -0.369640030973E+03   -0.77200E-01   -0.77216E-01  6048   0.793E-01 0.477E-03
CGA:   4    -0.369654616735E+03   -0.14586E-01   -0.14574E-01  6048   0.280E-01-0.202E-03
CGA:   5    -0.369659879759E+03   -0.52630E-02   -0.52558E-02  6048   0.813E-02-0.105E-03
CGA:   6    -0.369661718022E+03   -0.18383E-02   -0.18397E-02  6048   0.383E-02 0.434E-04
CGA:   7    -0.369662607958E+03   -0.88994E-03   -0.89143E-03  6048   0.134E-02 0.589E-04
CGA:   8    -0.369662993219E+03   -0.38526E-03   -0.38530E-03  6048   0.559E-03-0.189E-05
CGA:   9    -0.369663143767E+03   -0.15055E-03   -0.15073E-03  6048   0.193E-03-0.138E-04
CGA:  10    -0.369663200840E+03   -0.57073E-04   -0.58344E-04  6048   0.720E-04-0.243E-04
CGA:  11    -0.369663220300E+03   -0.19460E-04   -0.20107E-04  6048   0.291E-04-0.109E-04
CGA:  12    -0.369663224153E+03   -0.38525E-05   -0.45779E-05  6048   0.107E-04 0.937E-05
  17 F= -.36966322E+03 E0= -.36966322E+03  d E =-.107586E+00  mag=    20.0000
       N       E                     dE             d eps       ncg     rms          ort
SDA:   1    -0.369506663741E+03    0.15656E+00    0.00000E+00  6048   0.413E+00 0.000E+00
CGA:   2    -0.369638031423E+03   -0.13137E+00   -0.13134E+00  6048   0.137E+00 0.202E-03
CGA:   3    -0.369669209721E+03   -0.31178E-01   -0.31200E-01  6048   0.384E-01 0.659E-03
CGA:   4    -0.369675709744E+03   -0.65000E-02   -0.64932E-02  6048   0.118E-01-0.101E-03
CGA:   5    -0.369678110736E+03   -0.24010E-02   -0.23905E-02  6048   0.365E-02-0.217E-03
CGA:   6    -0.369678877829E+03   -0.76709E-03   -0.76547E-03  6048   0.164E-02-0.459E-04
CGA:   7    -0.369679253363E+03   -0.37553E-03   -0.37636E-03  6048   0.555E-03 0.538E-04
CGA:   8    -0.369679404544E+03   -0.15118E-03   -0.15075E-03  6048   0.225E-03 0.278E-04
CGA:   9    -0.369679473868E+03   -0.69324E-04   -0.70377E-04  6048   0.934E-04-0.210E-04
CGA:  10    -0.369679499616E+03   -0.25748E-04   -0.27046E-04  6048   0.383E-04-0.188E-04
CGA:  11    -0.369679508901E+03   -0.92851E-05   -0.10172E-04  6048   0.181E-04-0.112E-04
  18 F= -.36967951E+03 E0= -.36967951E+03  d E =-.162847E-01  mag=    20.0000
       N       E                     dE             d eps       ncg     rms          ort
SDA:   1    -0.369677294666E+03    0.22049E-02    0.00000E+00  6048   0.884E-02 0.000E+00
CGA:   2    -0.369679809965E+03   -0.25153E-02   -0.25163E-02  6048   0.392E-02-0.385E-04
CGA:   3    -0.369680460611E+03   -0.65065E-03   -0.66314E-03  6048   0.118E-02 0.139E-03
CGA:   4    -0.369680661105E+03   -0.20049E-03   -0.20558E-03  6048   0.254E-03 0.596E-04
CGA:   5    -0.369680727646E+03   -0.66541E-04   -0.66553E-04  6048   0.147E-03-0.657E-04
CGA:   6    -0.369680755826E+03   -0.28180E-04   -0.30380E-04  6048   0.120E-03-0.748E-04
CGA:   7    -0.369680766415E+03   -0.10588E-04   -0.13645E-04  6048   0.213E-04 0.222E-04
CGA:   8    -0.369680767090E+03   -0.67523E-06   -0.26330E-05  6048   0.980E-05 0.140E-04
  19 F= -.36968077E+03 E0= -.36968077E+03  d E =-.125819E-02  mag=    20.0000
       N       E                     dE             d eps       ncg     rms          ort
SDA:   1    -0.369670224447E+03    0.10542E-01    0.00000E+00  6048   0.322E-01 0.000E+00
CGA:   2    -0.369678845871E+03   -0.86214E-02   -0.86268E-02  6048   0.149E-01-0.166E-03
CGA:   3    -0.369681356130E+03   -0.25103E-02   -0.25265E-02  6048   0.451E-02 0.249E-03
CGA:   4    -0.369682126622E+03   -0.77049E-03   -0.77990E-03  6048   0.100E-02 0.155E-03
CGA:   5    -0.369682337962E+03   -0.21134E-03   -0.20968E-03  6048   0.366E-03-0.654E-04
CGA:   6    -0.369682424781E+03   -0.86819E-04   -0.92223E-04  6048   0.245E-03-0.124E-03
CGA:   7    -0.369682459084E+03   -0.34304E-04   -0.33899E-04  6048   0.901E-04-0.215E-04
CGA:   8    -0.369682467752E+03   -0.86671E-05   -0.11343E-04  6048   0.348E-04 0.300E-04
  20 F= -.36968247E+03 E0= -.36968247E+03  d E =-.170066E-02  mag=    20.0000
       N       E                     dE             d eps       ncg     rms          ort
SDA:   1    -0.369681784997E+03    0.67409E-03    0.00000E+00  6048   0.364E-02 0.000E+00
CGA:   2    -0.369682644803E+03   -0.85981E-03   -0.86175E-03  6048   0.190E-02-0.104E-03
CGA:   3    -0.369682947313E+03   -0.30251E-03   -0.30585E-03  6048   0.528E-03 0.622E-04
CGA:   4    -0.369683024388E+03   -0.77075E-04   -0.81430E-04  6048   0.105E-03 0.657E-04
CGA:   5    -0.369683045953E+03   -0.21565E-04   -0.21749E-04  6048   0.310E-04 0.652E-05
CGA:   6    -0.369683025604E+03    0.20349E-04   -0.25476E-04  6048   0.287E-03-0.815E-04
CGA:   7    -0.369683057073E+03   -0.31469E-04   -0.35361E-04  6048   0.326E-04 0.336E-04
CGA:   8    -0.369683060593E+03   -0.35197E-05   -0.49494E-05  6048   0.970E-05 0.147E-04
  21 F= -.36968306E+03 E0= -.36968306E+03  d E =-.592841E-03  mag=    20.0000
       N       E                     dE             d eps       ncg     rms          ort
SDA:   1    -0.369446415352E+03    0.23664E+00    0.00000E+00  6048   0.654E+00 0.000E+00
CGA:   2    -0.369612522209E+03   -0.16611E+00   -0.16613E+00  6048   0.327E+00-0.108E-02
CGA:   3    -0.369668596862E+03   -0.56075E-01   -0.56112E-01  6048   0.931E-01 0.494E-03
CGA:   4    -0.369683955262E+03   -0.15358E-01   -0.15402E-01  6048   0.189E-01 0.734E-03
CGA:   5    -0.369687233263E+03   -0.32780E-02   -0.32847E-02  6048   0.509E-02 0.138E-03
CGA:   6    -0.369688296469E+03   -0.10632E-02   -0.10621E-02  6048   0.172E-02-0.113E-03
CGA:   7    -0.369688689229E+03   -0.39276E-03   -0.39367E-03  6048   0.673E-03-0.514E-04
CGA:   8    -0.369688862841E+03   -0.17361E-03   -0.17338E-03  6048   0.304E-03 0.447E-05
CGA:   9    -0.369688955837E+03   -0.92996E-04   -0.92212E-04  6048   0.129E-03 0.944E-05
CGA:  10    -0.369688992687E+03   -0.36849E-04   -0.36035E-04  6048   0.475E-04 0.175E-04
CGA:  11    -0.369689010737E+03   -0.18051E-04   -0.18193E-04  6048   0.250E-04-0.132E-05
CGA:  12    -0.369688948272E+03    0.62465E-04   -0.34325E-04  6048   0.365E-03-0.782E-04
CGA:  13    -0.369689005741E+03   -0.57469E-04   -0.68050E-04  6048   0.383E-04 0.447E-04
CGA:  14    -0.369689020671E+03   -0.14930E-04   -0.14857E-04  6048   0.122E-04-0.112E-05
CGA:  15    -0.369689023563E+03   -0.28914E-05   -0.32568E-05  6048   0.383E-05 0.275E-05
  22 F= -.36968902E+03 E0= -.36968902E+03  d E =-.596297E-02  mag=    20.0000
       N       E                     dE             d eps       ncg     rms          ort
SDA:   1    -0.369670946815E+03    0.18074E-01    0.00000E+00  6048   0.437E-01 0.000E+00
CGA:   2    -0.369684864867E+03   -0.13918E-01   -0.13929E-01  6048   0.156E-01 0.981E-04
CGA:   3    -0.369688012596E+03   -0.31477E-02   -0.31606E-02  6048   0.518E-02 0.522E-04
CGA:   4    -0.369688857447E+03   -0.84485E-03   -0.84268E-03  6048   0.128E-02-0.110E-04
CGA:   5    -0.369689117028E+03   -0.25958E-03   -0.25828E-03  6048   0.434E-03-0.723E-05
CGA:   6    -0.369689205659E+03   -0.88631E-04   -0.87822E-04  6048   0.178E-03-0.474E-05
CGA:   7    -0.369689251703E+03   -0.46044E-04   -0.45474E-04  6048   0.716E-04-0.519E-05
CGA:   8    -0.369689266632E+03   -0.14929E-04   -0.15871E-04  6048   0.244E-04 0.693E-05
CGA:   9    -0.369689273314E+03   -0.66816E-05   -0.69490E-05  6048   0.817E-05 0.272E-05
  23 F= -.36968927E+03 E0= -.36968927E+03  d E =-.249751E-03  mag=    20.0000
       N       E                     dE             d eps       ncg     rms          ort
SDA:   1    -0.369680903380E+03    0.83633E-02    0.00000E+00  6048   0.243E-01 0.000E+00
CGA:   2    -0.369687772415E+03   -0.68690E-02   -0.68551E-02  6048   0.124E-01-0.205E-03
CGA:   3    -0.369689753667E+03   -0.19813E-02   -0.19929E-02  6048   0.316E-02 0.543E-04
CGA:   4    -0.369690253213E+03   -0.49955E-03   -0.51569E-03  6048   0.654E-03 0.898E-04
CGA:   5    -0.369690362452E+03   -0.10924E-03   -0.11430E-03  6048   0.176E-03 0.311E-04
CGA:   6    -0.369690400739E+03   -0.38287E-04   -0.38234E-04  6048   0.574E-04-0.511E-06
CGA:   7    -0.369690415709E+03   -0.14970E-04   -0.14574E-04  6048   0.254E-04-0.628E-05
CGA:   8    -0.369690421933E+03   -0.62234E-05   -0.61255E-05  6048   0.116E-04-0.224E-05
  24 F= -.36969042E+03 E0= -.36969042E+03  d E =-.114862E-02  mag=    20.0000
       N       E                     dE             d eps       ncg     rms          ort
SDA:   1    -0.369517316836E+03    0.17310E+00    0.00000E+00  6048   0.450E+00 0.000E+00
CGA:   2    -0.369643599499E+03   -0.12628E+00   -0.12627E+00  6048   0.236E+00-0.758E-03
CGA:   3    -0.369681472463E+03   -0.37873E-01   -0.37915E-01  6048   0.582E-01 0.145E-03
CGA:   4    -0.369691033344E+03   -0.95609E-02   -0.96133E-02  6048   0.121E-01 0.380E-03
CGA:   5    -0.369693107839E+03   -0.20745E-02   -0.20960E-02  6048   0.324E-02 0.175E-03
CGA:   6    -0.369693763351E+03   -0.65551E-03   -0.65671E-03  6048   0.996E-03 0.128E-04
CGA:   7    -0.369693997937E+03   -0.23459E-03   -0.23289E-03  6048   0.380E-03-0.349E-04
CGA:   8    -0.369694101145E+03   -0.10321E-03   -0.10325E-03  6048   0.187E-03-0.213E-04
CGA:   9    -0.369694148345E+03   -0.47200E-04   -0.47374E-04  6048   0.666E-04 0.161E-04
CGA:  10    -0.369694163077E+03   -0.14732E-04   -0.15922E-04  6048   0.224E-04 0.202E-04
CGA:  11    -0.369694169669E+03   -0.65916E-05   -0.68904E-05  6048   0.933E-05 0.754E-05
  25 F= -.36969417E+03 E0= -.36969417E+03  d E =-.374774E-02  mag=    20.0000
       N       E                     dE             d eps       ncg     rms          ort
SDA:   1    -0.367552013131E+03    0.21421E+01    0.00000E+00  6048   0.524E+01 0.000E+00
CGA:   2    -0.369206251309E+03   -0.16542E+01   -0.16542E+01  6048   0.205E+01-0.581E-03
CGA:   3    -0.369558132315E+03   -0.35188E+00   -0.35208E+00  6048   0.581E+00 0.736E-03
CGA:   4    -0.369650840105E+03   -0.92708E-01   -0.92862E-01  6048   0.117E+00 0.111E-02
CGA:   5    -0.369672726070E+03   -0.21886E-01   -0.21892E-01  6048   0.349E-01 0.168E-04
CGA:   6    -0.369679572292E+03   -0.68462E-02   -0.68213E-02  6048   0.109E-01-0.318E-03
CGA:   7    -0.369682085015E+03   -0.25127E-02   -0.25091E-02  6048   0.409E-02-0.909E-04
CGA:   8    -0.369683186728E+03   -0.11017E-02   -0.11017E-02  6048   0.189E-02-0.462E-05
CGA:   9    -0.369683748830E+03   -0.56210E-03   -0.56154E-03  6048   0.729E-03 0.214E-04
CGA:  10    -0.369683960165E+03   -0.21134E-03   -0.21087E-03  6048   0.253E-03 0.344E-04
CGA:  11    -0.369684048605E+03   -0.88440E-04   -0.91307E-04  6048   0.126E-03-0.401E-04
CGA:  12    -0.369684088432E+03   -0.39827E-04   -0.52848E-04  6048   0.123E-03-0.584E-04
CGA:  13    -0.369684102277E+03   -0.13844E-04   -0.14630E-04  6048   0.627E-04 0.120E-04
CGA:  14    -0.369684111849E+03   -0.95719E-05   -0.11789E-04  6048   0.255E-04 0.195E-04
  26 F= -.36968411E+03 E0= -.36968411E+03  d E =0.100578E-01  mag=    20.0000
       N       E                     dE             d eps       ncg     rms          ort
SDA:   1    -0.362968377967E+03    0.67157E+01    0.00000E+00  6048   0.159E+02 0.000E+00
CGA:   2    -0.368379062134E+03   -0.54107E+01   -0.54102E+01  6048   0.561E+01 0.307E-02
CGA:   3    -0.369352129521E+03   -0.97307E+00   -0.97342E+00  6048   0.153E+01-0.122E-02
CGA:   4    -0.369596236304E+03   -0.24411E+00   -0.24428E+00  6048   0.320E+00 0.147E-02
CGA:   5    -0.369657395012E+03   -0.61159E-01   -0.61186E-01  6048   0.962E-01 0.302E-03
CGA:   6    -0.369676434588E+03   -0.19040E-01   -0.19017E-01  6048   0.308E-01-0.385E-03
CGA:   7    -0.369683759834E+03   -0.73252E-02   -0.73201E-02  6048   0.122E-01-0.243E-03
CGA:   8    -0.369687154927E+03   -0.33951E-02   -0.33978E-02  6048   0.586E-02-0.137E-03
CGA:   9    -0.369688828208E+03   -0.16733E-02   -0.16714E-02  6048   0.215E-02 0.669E-04
CGA:  10    -0.369689454857E+03   -0.62665E-03   -0.62520E-03  6048   0.709E-03 0.546E-04
CGA:  11    -0.369689695230E+03   -0.24037E-03   -0.24956E-03  6048   0.347E-03-0.115E-03
CGA:  12    -0.369689796762E+03   -0.10153E-03   -0.10413E-03  6048   0.175E-03-0.287E-04
CGA:  13    -0.369689848946E+03   -0.52184E-04   -0.51108E-04  6048   0.763E-04 0.228E-04
CGA:  14    -0.369689876262E+03   -0.27316E-04   -0.26701E-04  6048   0.328E-04 0.172E-04
CGA:  15    -0.369689888144E+03   -0.11882E-04   -0.11728E-04  6048   0.124E-04 0.945E-05
CGA:  16    -0.369689894084E+03   -0.59397E-05   -0.58171E-05  6048   0.583E-05 0.140E-05
  27 F= -.36968989E+03 E0= -.36968989E+03  d E =-.578224E-02  mag=    20.0000
       N       E                     dE             d eps       ncg     rms          ort
SDA:   1    -0.368221030830E+03    0.14689E+01    0.00000E+00  6048   0.348E+01 0.000E+00
CGA:   2    -0.369261284297E+03   -0.10403E+01   -0.10403E+01  6048   0.140E+01-0.242E-02
CGA:   3    -0.369520388441E+03   -0.25910E+00   -0.25896E+00  6048   0.456E+00-0.224E-02
CGA:   4    -0.369595774977E+03   -0.75387E-01   -0.75440E-01  6048   0.107E+00 0.325E-03
CGA:   5    -0.369616437191E+03   -0.20662E-01   -0.20767E-01  6048   0.343E-01 0.130E-02
CGA:   6    -0.369623345343E+03   -0.69082E-02   -0.69580E-02  6048   0.124E-01 0.702E-03
CGA:   7    -0.369626623608E+03   -0.32783E-02   -0.32780E-02  6048   0.542E-02-0.370E-04
CGA:   8    -0.369628093776E+03   -0.14702E-02   -0.14720E-02  6048   0.243E-02-0.338E-03
CGA:   9    -0.369628691642E+03   -0.59787E-03   -0.59811E-03  6048   0.726E-03 0.562E-04
CGA:  10    -0.369628846838E+03   -0.15520E-03   -0.16283E-03  6048   0.214E-03 0.160E-03
CGA:  11    -0.369628908612E+03   -0.61774E-04   -0.62873E-04  6048   0.789E-04 0.465E-04
CGA:  12    -0.369628943772E+03   -0.35160E-04   -0.36983E-04  6048   0.557E-04-0.150E-04
CGA:  13    -0.369628952322E+03   -0.85500E-05   -0.93884E-05  6048   0.307E-04 0.137E-04
CGA:  14    -0.369628962973E+03   -0.10651E-04   -0.10675E-04  6048   0.198E-04-0.187E-05
CGA:  15    -0.369628979724E+03   -0.16751E-04    0.36069E-05  6048   0.121E-04 0.164E-05
CGA:  16    -0.369628987681E+03   -0.79570E-05    0.12619E-04  6048   0.589E-05-0.515E-06
  28 F= -.36962899E+03 E0= -.36962899E+03  d E =0.609064E-01  mag=    20.0000
       N       E                     dE             d eps       ncg     rms          ort
SDA:   1    -0.367427580447E+03    0.22014E+01    0.00000E+00  6048   0.551E+01 0.000E+00
CGA:   2    -0.369191623169E+03   -0.17640E+01   -0.17638E+01  6048   0.215E+01 0.192E-02
CGA:   3    -0.369569674598E+03   -0.37805E+00   -0.37833E+00  6048   0.614E+00 0.158E-02
CGA:   4    -0.369668458483E+03   -0.98784E-01   -0.98732E-01  6048   0.136E+00-0.935E-03
CGA:   5    -0.369694806426E+03   -0.26348E-01   -0.26281E-01  6048   0.423E-01-0.122E-02
CGA:   6    -0.369703099682E+03   -0.82933E-02   -0.82797E-02  6048   0.143E-01-0.280E-03
CGA:   7    -0.369706483800E+03   -0.33841E-02   -0.33859E-02  6048   0.551E-02 0.252E-03
CGA:   8    -0.369707940463E+03   -0.14567E-02   -0.14531E-02  6048   0.235E-02 0.255E-03
CGA:   9    -0.369708704535E+03   -0.76407E-03   -0.77260E-03  6048   0.996E-03-0.127E-03
CGA:  10    -0.369709013859E+03   -0.30932E-03   -0.33671E-03  6048   0.519E-03-0.255E-03
CGA:  11    -0.369709102071E+03   -0.88212E-04   -0.88743E-04  6048   0.162E-03 0.208E-04
CGA:  12    -0.369709134397E+03   -0.32326E-04   -0.34518E-04  6048   0.698E-04 0.447E-04
CGA:  13    -0.369709158246E+03   -0.23849E-04   -0.23650E-04  6048   0.405E-04 0.138E-04
CGA:  14    -0.369709175151E+03   -0.16905E-04   -0.16636E-04  6048   0.273E-04 0.291E-05
CGA:  15    -0.369709180596E+03   -0.54449E-05   -0.59752E-05  6048   0.137E-04 0.102E-04
  29 F= -.36970918E+03 E0= -.36970918E+03  d E =-.801929E-01  mag=    20.0000
       N       E                     dE             d eps       ncg     rms          ort
SDA:   1    -0.369695707554E+03    0.13468E-01    0.00000E+00  6048   0.396E-01 0.000E+00
CGA:   2    -0.369704671127E+03   -0.89636E-02   -0.89749E-02  6048   0.191E-01 0.435E-03
CGA:   3    -0.369708053840E+03   -0.33827E-02   -0.33815E-02  6048   0.583E-02-0.272E-04
CGA:   4    -0.369709116497E+03   -0.10627E-02   -0.10507E-02  6048   0.151E-02-0.183E-03
CGA:   5    -0.369709376881E+03   -0.26038E-03   -0.25446E-03  6048   0.412E-03-0.867E-04
CGA:   6    -0.369709454832E+03   -0.77951E-04   -0.77342E-04  6048   0.131E-03-0.151E-04
CGA:   7    -0.369709478892E+03   -0.24060E-04   -0.24731E-04  6048   0.378E-04 0.162E-04
CGA:   8    -0.369709487521E+03   -0.86288E-05   -0.88811E-05  6048   0.138E-04 0.936E-05
  30 F= -.36970949E+03 E0= -.36970949E+03  d E =-.306925E-03  mag=    20.0000
       N       E                     dE             d eps       ncg     rms          ort
SDA:   1    -0.369534638607E+03    0.17484E+00    0.00000E+00  6048   0.444E+00 0.000E+00
CGA:   2    -0.369657971579E+03   -0.12333E+00   -0.12329E+00  6048   0.252E+00 0.873E-03
CGA:   3    -0.369698415821E+03   -0.40444E-01   -0.40420E-01  6048   0.562E-01-0.446E-03
CGA:   4    -0.369707675666E+03   -0.92598E-02   -0.92394E-02  6048   0.120E-01-0.293E-03
CGA:   5    -0.369709800959E+03   -0.21253E-02   -0.21219E-02  6048   0.333E-02-0.645E-04
CGA:   6    -0.369710463873E+03   -0.66291E-03   -0.66168E-03  6048   0.983E-03-0.395E-04
CGA:   7    -0.369710677665E+03   -0.21379E-03   -0.21370E-03  6048   0.345E-03-0.949E-05
CGA:   8    -0.369710771779E+03   -0.94113E-04   -0.94795E-04  6048   0.163E-03-0.143E-04
CGA:   9    -0.369710817593E+03   -0.45814E-04   -0.45752E-04  6048   0.652E-04 0.964E-06
CGA:  10    -0.369710833775E+03   -0.16182E-04   -0.16061E-04  6048   0.202E-04 0.119E-04
CGA:  11    -0.369710842179E+03   -0.84042E-05   -0.94487E-05  6048   0.150E-04-0.652E-05
CGA:  12    -0.369710789122E+03    0.53056E-04   -0.28568E-04  6048   0.244E-03-0.521E-04
CGA:  13    -0.369710827825E+03   -0.38702E-04   -0.45932E-04  6048   0.341E-04 0.282E-04
CGA:  14    -0.369710838970E+03   -0.11145E-04   -0.11959E-04  6048   0.102E-04 0.696E-05
CGA:  15    -0.369710844063E+03   -0.50929E-05   -0.50705E-05  6048   0.582E-05-0.183E-05
  31 F= -.36971084E+03 E0= -.36971084E+03  d E =-.135654E-02  mag=    20.0000
       N       E                     dE             d eps       ncg     rms          ort
SDA:   1    -0.361888147020E+03    0.78227E+01    0.00000E+00  6048   0.194E+02 0.000E+00
CGA:   2    -0.367385189797E+03   -0.54970E+01   -0.55018E+01  6048   0.109E+02 0.670E-02
CGA:   3    -0.369114384966E+03   -0.17292E+01   -0.17317E+01  6048   0.242E+01 0.287E-01
CGA:   4    -0.369516294453E+03   -0.40191E+00   -0.40142E+00  6048   0.533E+00-0.178E-04
CGA:   5    -0.369610303064E+03   -0.94009E-01   -0.93981E-01  6048   0.152E+00-0.204E-03
CGA:   6    -0.369640476424E+03   -0.30173E-01   -0.30200E-01  6048   0.459E-01 0.997E-04
CGA:   7    -0.369650728676E+03   -0.10252E-01   -0.10262E-01  6048   0.165E-01 0.469E-04
CGA:   8    -0.369655192896E+03   -0.44642E-02   -0.44611E-02  6048   0.733E-02-0.431E-04
CGA:   9    -0.369657388901E+03   -0.21960E-02   -0.21940E-02  6048   0.299E-02-0.407E-04
CGA:  10    -0.369658257103E+03   -0.86820E-03   -0.86811E-03  6048   0.105E-02-0.276E-05
CGA:  11    -0.369658575020E+03   -0.31792E-03   -0.31629E-03  6048   0.379E-03-0.349E-04
CGA:  12    -0.369658707673E+03   -0.13265E-03   -0.13333E-03  6048   0.195E-03-0.366E-04
CGA:  13    -0.369658766269E+03   -0.58597E-04   -0.58849E-04  6048   0.872E-04 0.196E-04
CGA:  14    -0.369658795744E+03   -0.29475E-04   -0.30115E-04  6048   0.366E-04 0.200E-04
CGA:  15    -0.369658811684E+03   -0.15940E-04   -0.15907E-04  6048   0.162E-04 0.357E-05
CGA:  16    -0.369658817783E+03   -0.60990E-05   -0.61041E-05  6048   0.604E-05 0.207E-05
  32 F= -.36965882E+03 E0= -.36965882E+03  d E =0.520263E-01  mag=    20.0000
       N       E                     dE             d eps       ncg     rms          ort
SDA:   1    -0.368223346744E+03    0.14355E+01    0.00000E+00  6048   0.352E+01 0.000E+00
CGA:   2    -0.369351794762E+03   -0.11284E+01   -0.11282E+01  6048   0.151E+01-0.189E-02
CGA:   3    -0.369607745179E+03   -0.25595E+00   -0.25612E+00  6048   0.423E+00 0.685E-04
CGA:   4    -0.369677635355E+03   -0.69890E-01   -0.69926E-01  6048   0.951E-01-0.147E-03
CGA:   5    -0.369695441146E+03   -0.17806E-01   -0.17856E-01  6048   0.301E-01 0.257E-03
CGA:   6    -0.369701385419E+03   -0.59443E-02   -0.59892E-02  6048   0.103E-01 0.280E-03
CGA:   7    -0.369703932959E+03   -0.25475E-02   -0.25497E-02  6048   0.410E-02 0.180E-04
CGA:   8    -0.369705028654E+03   -0.10957E-02   -0.10920E-02  6048   0.175E-02-0.493E-04
CGA:   9    -0.369705515615E+03   -0.48696E-03   -0.48826E-03  6048   0.600E-03 0.229E-04
CGA:  10    -0.369705686212E+03   -0.17060E-03   -0.17078E-03  6048   0.205E-03 0.303E-05
CGA:  11    -0.369705738426E+03   -0.52214E-04   -0.53481E-04  6048   0.614E-04 0.170E-04
CGA:  12    -0.369705753531E+03   -0.15105E-04   -0.16504E-04  6048   0.234E-04 0.171E-04
CGA:  13    -0.369705766269E+03   -0.12738E-04   -0.13394E-04  6048   0.244E-04-0.540E-05
CGA:  14    -0.369705773001E+03   -0.67323E-05   -0.69179E-05  6048   0.174E-04-0.507E-05
  33 F= -.36970577E+03 E0= -.36970577E+03  d E =-.469552E-01  mag=    20.0000
       N       E                     dE             d eps       ncg     rms          ort
SDA:   1    -0.369109065287E+03    0.59670E+00    0.00000E+00  6048   0.150E+01 0.000E+00
CGA:   2    -0.369541788879E+03   -0.43272E+00   -0.43272E+00  6048   0.805E+00-0.746E-03
CGA:   3    -0.369668820639E+03   -0.12703E+00   -0.12724E+00  6048   0.192E+00 0.738E-03
CGA:   4    -0.369700833931E+03   -0.32013E-01   -0.32041E-01  6048   0.428E-01 0.144E-03
CGA:   5    -0.369708589124E+03   -0.77552E-02   -0.77365E-02  6048   0.125E-01-0.159E-03
CGA:   6    -0.369711095125E+03   -0.25060E-02   -0.25007E-02  6048   0.393E-02-0.549E-04
CGA:   7    -0.369711975615E+03   -0.88049E-03   -0.88454E-03  6048   0.146E-02 0.547E-04
CGA:   8    -0.369712343360E+03   -0.36774E-03   -0.37169E-03  6048   0.580E-03 0.916E-04
CGA:   9    -0.369712531830E+03   -0.18847E-03   -0.18845E-03  6048   0.250E-03 0.123E-05
CGA:  10    -0.369712618837E+03   -0.87007E-04   -0.91739E-04  6048   0.145E-03-0.645E-04
CGA:  11    -0.369712638859E+03   -0.20021E-04   -0.21727E-04  6048   0.482E-04 0.178E-04
CGA:  12    -0.369712644656E+03   -0.57970E-05   -0.84033E-05  6048   0.204E-04 0.190E-04
  34 F= -.36971264E+03 E0= -.36971264E+03  d E =-.687165E-02  mag=    20.0000
       N       E                     dE             d eps       ncg     rms          ort
SDA:   1    -0.369625925613E+03    0.86713E-01    0.00000E+00  6048   0.221E+00 0.000E+00
CGA:   2    -0.369686995023E+03   -0.61069E-01   -0.61072E-01  6048   0.120E+00 0.698E-03
CGA:   3    -0.369706948586E+03   -0.19954E-01   -0.19931E-01  6048   0.300E-01-0.274E-03
CGA:   4    -0.369712083844E+03   -0.51353E-02   -0.51298E-02  6048   0.696E-02-0.596E-04
CGA:   5    -0.369713363325E+03   -0.12795E-02   -0.12641E-02  6048   0.215E-02-0.179E-03
CGA:   6    -0.369713843032E+03   -0.47971E-03   -0.46958E-03  6048   0.847E-03-0.245E-03
CGA:   7    -0.369714011182E+03   -0.16815E-03   -0.16704E-03  6048   0.298E-03-0.276E-04
CGA:   8    -0.369714068415E+03   -0.57233E-04   -0.59808E-04  6048   0.910E-04 0.479E-04
CGA:   9    -0.369714094164E+03   -0.25750E-04   -0.25955E-04  6048   0.344E-04 0.164E-04
CGA:  10    -0.369714107177E+03   -0.13013E-04   -0.13760E-04  6048   0.231E-04-0.924E-05
CGA:  11    -0.369714098134E+03    0.90432E-05   -0.13189E-04  6048   0.953E-04-0.430E-04
CGA:  12    -0.369714118421E+03   -0.20287E-04   -0.19874E-04  6048   0.194E-04-0.526E-05
CGA:  13    -0.369714119292E+03   -0.87139E-06   -0.24913E-05  6048   0.779E-05 0.110E-04
  35 F= -.36971412E+03 E0= -.36971412E+03  d E =-.147464E-02  mag=    20.0000
       N       E                     dE             d eps       ncg     rms          ort
SDA:   1    -0.369699492230E+03    0.14626E-01    0.00000E+00  6048   0.386E-01 0.000E+00
CGA:   2    -0.369710539833E+03   -0.11048E-01   -0.11045E-01  6048   0.163E-01 0.122E-03
CGA:   3    -0.369713518588E+03   -0.29788E-02   -0.29357E-02  6048   0.549E-02-0.489E-03
CGA:   4    -0.369714440323E+03   -0.92174E-03   -0.90796E-03  6048   0.117E-02-0.149E-03
CGA:   5    -0.369714610395E+03   -0.17007E-03   -0.18080E-03  6048   0.304E-03 0.106E-03
CGA:   6    -0.369714655007E+03   -0.44612E-04   -0.52904E-04  6048   0.918E-04 0.875E-04
CGA:   7    -0.369714675927E+03   -0.20920E-04   -0.22746E-04  6048   0.417E-04 0.318E-04
CGA:   8    -0.369714694427E+03   -0.18500E-04   -0.23085E-04  6048   0.619E-04-0.279E-04
CGA:   9    -0.369714703322E+03   -0.88947E-05   -0.95334E-05  6048   0.101E-04 0.629E-05
  36 F= -.36971470E+03 E0= -.36971470E+03  d E =-.584030E-03  mag=    20.0000
       N       E                     dE             d eps       ncg     rms          ort
SDA:   1    -0.369688311960E+03    0.26382E-01    0.00000E+00  6048   0.715E-01 0.000E+00
CGA:   2    -0.369705339142E+03   -0.17027E-01   -0.17033E-01  6048   0.422E-01 0.414E-03
CGA:   3    -0.369712826070E+03   -0.74869E-02   -0.74408E-02  6048   0.103E-01-0.644E-03
CGA:   4    -0.369714549898E+03   -0.17238E-02   -0.16981E-02  6048   0.231E-02-0.333E-03
CGA:   5    -0.369714924255E+03   -0.37436E-03   -0.37353E-03  6048   0.610E-03-0.118E-04
CGA:   6    -0.369715034500E+03   -0.11024E-03   -0.11239E-03  6048   0.164E-03 0.402E-04
CGA:   7    -0.369715071634E+03   -0.37133E-04   -0.37340E-04  6048   0.542E-04 0.944E-05
CGA:   8    -0.369715083883E+03   -0.12249E-04   -0.31738E-04  6048   0.142E-03-0.611E-04
CGA:   9    -0.369715101841E+03   -0.17959E-04   -0.20002E-04  6048   0.156E-04 0.185E-04
CGA:  10    -0.369715103384E+03   -0.15425E-05   -0.24251E-05  6048   0.515E-05 0.824E-05
  37 F= -.36971510E+03 E0= -.36971510E+03  d E =-.400062E-03  mag=    20.0000
       N       E                     dE             d eps       ncg     rms          ort
SDA:   1    -0.368973665443E+03    0.74144E+00    0.00000E+00  6048   0.210E+01 0.000E+00
CGA:   2    -0.369425163918E+03   -0.45150E+00   -0.45165E+00  6048   0.119E+01 0.457E-02
CGA:   3    -0.369643738370E+03   -0.21857E+00   -0.21842E+00  6048   0.315E+00-0.353E-02
CGA:   4    -0.369695679635E+03   -0.51941E-01   -0.51766E-01  6048   0.695E-01-0.261E-02
CGA:   5    -0.369707491161E+03   -0.11812E-01   -0.11780E-01  6048   0.187E-01-0.540E-03
CGA:   6    -0.369711158049E+03   -0.36669E-02   -0.36664E-02  6048   0.558E-02-0.237E-04
CGA:   7    -0.369712369036E+03   -0.12110E-02   -0.12113E-02  6048   0.184E-02 0.282E-04
CGA:   8    -0.369712865550E+03   -0.49651E-03   -0.50066E-03  6048   0.801E-03-0.941E-04
CGA:   9    -0.369713093098E+03   -0.22755E-03   -0.23259E-03  6048   0.349E-03-0.659E-04
CGA:  10    -0.369713177439E+03   -0.84341E-04   -0.83788E-04  6048   0.115E-03 0.191E-04
CGA:  11    -0.369713211429E+03   -0.33989E-04   -0.33591E-04  6048   0.405E-04 0.907E-05
CGA:  12    -0.369713226455E+03   -0.15026E-04   -0.15314E-04  6048   0.223E-04-0.253E-05
CGA:  13    -0.369713229400E+03   -0.29452E-05   -0.36654E-05  6048   0.114E-04 0.108E-04
  38 F= -.36971323E+03 E0= -.36971323E+03  d E =0.187398E-02  mag=    20.0000
       N       E                     dE             d eps       ncg     rms          ort
SDA:   1    -0.368951543514E+03    0.76168E+00    0.00000E+00  6048   0.198E+01 0.000E+00
CGA:   2    -0.369448551302E+03   -0.49701E+00   -0.49693E+00  6048   0.117E+01 0.313E-02
CGA:   3    -0.369646219054E+03   -0.19767E+00   -0.19748E+00  6048   0.280E+00-0.352E-02
CGA:   4    -0.369692241713E+03   -0.46023E-01   -0.45903E-01  6048   0.629E-01-0.191E-02
CGA:   5    -0.369703064970E+03   -0.10823E-01   -0.10813E-01  6048   0.171E-01-0.208E-03
CGA:   6    -0.369706407605E+03   -0.33426E-02   -0.33449E-02  6048   0.509E-02 0.742E-04
CGA:   7    -0.369707550902E+03   -0.11433E-02   -0.11433E-02  6048   0.182E-02 0.250E-04
CGA:   8    -0.369708060766E+03   -0.50986E-03   -0.51641E-03  6048   0.867E-03-0.113E-03
CGA:   9    -0.369708305800E+03   -0.24503E-03   -0.24989E-03  6048   0.376E-03-0.605E-04
CGA:  10    -0.369708396613E+03   -0.90813E-04   -0.90032E-04  6048   0.119E-03 0.291E-04
CGA:  11    -0.369708431998E+03   -0.35385E-04   -0.34935E-04  6048   0.422E-04 0.110E-04
CGA:  12    -0.369708446036E+03   -0.14038E-04   -0.13701E-04  6048   0.196E-04 0.528E-05
CGA:  13    -0.369708450187E+03   -0.41513E-05   -0.44988E-05  6048   0.997E-05 0.106E-04
  39 F= -.36970845E+03 E0= -.36970845E+03  d E =0.477921E-02  mag=    20.0000
       N       E                     dE             d eps       ncg     rms          ort
SDA:   1    -0.369083268320E+03    0.62518E+00    0.00000E+00  6048   0.174E+01 0.000E+00
CGA:   2    -0.369497183761E+03   -0.41392E+00   -0.41391E+00  6048   0.940E+00 0.224E-03
CGA:   3    -0.369660067203E+03   -0.16288E+00   -0.16305E+00  6048   0.249E+00 0.212E-02
CGA:   4    -0.369702032189E+03   -0.41965E-01   -0.42034E-01  6048   0.555E-01 0.101E-02
CGA:   5    -0.369711518630E+03   -0.94864E-02   -0.95119E-02  6048   0.148E-01 0.404E-03
CGA:   6    -0.369714505895E+03   -0.29873E-02   -0.29913E-02  6048   0.471E-02 0.144E-03
CGA:   7    -0.369715619481E+03   -0.11136E-02   -0.11141E-02  6048   0.183E-02-0.668E-04
CGA:   8    -0.369716084752E+03   -0.46527E-03   -0.46330E-03  6048   0.772E-03 0.634E-04
CGA:   9    -0.369716307464E+03   -0.22271E-03   -0.21854E-03  6048   0.298E-03 0.918E-04
CGA:  10    -0.369716412516E+03   -0.10505E-03   -0.10466E-03  6048   0.144E-03 0.449E-05
CGA:  11    -0.369716458269E+03   -0.45752E-04   -0.45595E-04  6048   0.634E-04 0.190E-05
CGA:  12    -0.369716482514E+03   -0.24245E-04   -0.27572E-04  6048   0.480E-04-0.175E-04
CGA:  13    -0.369716469947E+03    0.12566E-04   -0.31588E-04  6048   0.156E-03-0.669E-04
CGA:  14    -0.369716491847E+03   -0.21900E-04   -0.26622E-04  6048   0.239E-04 0.429E-04
CGA:  15    -0.369716499057E+03   -0.72097E-05   -0.74105E-05  6048   0.921E-05 0.611E-05
CGA:  16    -0.369716505408E+03   -0.63506E-05    0.80217E-03  6048   0.431E-05 0.246E-05
  40 F= -.36971651E+03 E0= -.36971651E+03  d E =-.805522E-02  mag=    20.0000
       N       E                     dE             d eps       ncg     rms          ort
SDA:   1    -0.369217632051E+03    0.49887E+00    0.00000E+00  6048   0.124E+01 0.000E+00
CGA:   2    -0.369593773517E+03   -0.37614E+00   -0.37611E+00  6048   0.547E+00 0.369E-03
CGA:   3    -0.369683614564E+03   -0.89841E-01   -0.89984E-01  6048   0.151E+00 0.983E-03
CGA:   4    -0.369708171161E+03   -0.24557E-01   -0.24593E-01  6048   0.312E-01 0.338E-03
CGA:   5    -0.369713862816E+03   -0.56917E-02   -0.56741E-02  6048   0.924E-02-0.232E-03
CGA:   6    -0.369715758451E+03   -0.18956E-02   -0.18821E-02  6048   0.305E-02-0.267E-03
CGA:   7    -0.369716439304E+03   -0.68085E-03   -0.67975E-03  6048   0.115E-02-0.463E-04
CGA:   8    -0.369716719737E+03   -0.28043E-03   -0.28083E-03  6048   0.459E-03 0.864E-04
CGA:   9    -0.369716866799E+03   -0.14706E-03   -0.14601E-03  6048   0.193E-03 0.241E-04
CGA:  10    -0.369716935572E+03   -0.68773E-04   -0.71879E-04  6048   0.106E-03-0.317E-04
CGA:  11    -0.369716963917E+03   -0.28345E-04   -0.30561E-04  6048   0.534E-04-0.261E-04
CGA:  12    -0.369716739148E+03    0.22477E-03   -0.12103E-03  6048   0.118E-02-0.201E-03
CGA:  13    -0.369716944471E+03   -0.20532E-03   -0.22707E-03  6048   0.110E-03 0.749E-04
CGA:  14    -0.369716973418E+03   -0.28948E-04   -0.31879E-04  6048   0.252E-04 0.151E-04
CGA:  15    -0.369716980384E+03   -0.69651E-05   -0.85712E-05  6048   0.111E-04 0.102E-04
  41 F= -.36971698E+03 E0= -.36971698E+03  d E =-.474976E-03  mag=    20.0000
       N       E                     dE             d eps       ncg     rms          ort
SDA:   1    -0.369358445060E+03    0.35853E+00    0.00000E+00  6048   0.942E+00 0.000E+00
CGA:   2    -0.369601239469E+03   -0.24279E+00   -0.24303E+00  6048   0.526E+00 0.835E-03
CGA:   3    -0.369689223068E+03   -0.87984E-01   -0.87728E-01  6048   0.130E+00-0.119E-02
CGA:   4    -0.369711119800E+03   -0.21897E-01   -0.21736E-01  6048   0.295E-01-0.687E-03
CGA:   5    -0.369716196099E+03   -0.50763E-02   -0.50504E-02  6048   0.799E-02-0.122E-03
CGA:   6    -0.369717777682E+03   -0.15816E-02   -0.15823E-02  6048   0.248E-02 0.689E-06
CGA:   7    -0.369718336823E+03   -0.55914E-03   -0.56230E-03  6048   0.918E-03 0.187E-04
CGA:   8    -0.369718596988E+03   -0.26016E-03   -0.25759E-03  6048   0.432E-03-0.263E-04
CGA:   9    -0.369718729780E+03   -0.13279E-03   -0.13133E-03  6048   0.194E-03-0.245E-04
CGA:  10    -0.369718780781E+03   -0.51001E-04   -0.51352E-04  6048   0.690E-04 0.382E-05
CGA:  11    -0.369718801939E+03   -0.21157E-04   -0.21193E-04  6048   0.271E-04 0.519E-06
CGA:  12    -0.369718808996E+03   -0.70569E-05   -0.75455E-05  6048   0.115E-04 0.570E-05
  42 F= -.36971881E+03 E0= -.36971881E+03  d E =-.182861E-02  mag=    20.0000
       N       E                     dE             d eps       ncg     rms          ort
SDA:   1    -0.369079896894E+03    0.63891E+00    0.00000E+00  6048   0.159E+01 0.000E+00
CGA:   2    -0.369544782070E+03   -0.46489E+00   -0.46492E+00  6048   0.775E+00 0.281E-03
CGA:   3    -0.369669343600E+03   -0.12456E+00   -0.12429E+00  6048   0.200E+00-0.185E-02
CGA:   4    -0.369702645769E+03   -0.33302E-01   -0.33207E-01  6048   0.444E-01-0.614E-03
CGA:   5    -0.369710361610E+03   -0.77158E-02   -0.77619E-02  6048   0.123E-01 0.283E-03
CGA:   6    -0.369712714504E+03   -0.23529E-02   -0.23864E-02  6048   0.366E-02 0.253E-03
CGA:   7    -0.369713592251E+03   -0.87775E-03   -0.87838E-03  6048   0.144E-02 0.642E-05
CGA:   8    -0.369714019330E+03   -0.42708E-03   -0.42499E-03  6048   0.753E-03-0.113E-03
CGA:   9    -0.369714218051E+03   -0.19872E-03   -0.19873E-03  6048   0.288E-03 0.571E-07
CGA:  10    -0.369714286319E+03   -0.68268E-04   -0.70955E-04  6048   0.909E-04 0.417E-04
CGA:  11    -0.369714312353E+03   -0.26034E-04   -0.26834E-04  6048   0.341E-04 0.162E-04
CGA:  12    -0.369714322245E+03   -0.98926E-05   -0.10399E-04  6048   0.161E-04 0.109E-04
  43 F= -.36971432E+03 E0= -.36971432E+03  d E =0.448675E-02  mag=    20.0000
       N       E                     dE             d eps       ncg     rms          ort
SDA:   1    -0.369420961234E+03    0.29335E+00    0.00000E+00  6048   0.770E+00 0.000E+00
CGA:   2    -0.369637571954E+03   -0.21661E+00   -0.21661E+00  6048   0.368E+00-0.362E-03
CGA:   3    -0.369697902316E+03   -0.60330E-01   -0.60511E-01  6048   0.995E-01 0.111E-02
CGA:   4    -0.369714457714E+03   -0.16555E-01   -0.16623E-01  6048   0.210E-01 0.518E-03
CGA:   5    -0.369718179735E+03   -0.37220E-02   -0.37188E-02  6048   0.588E-02-0.371E-04
CGA:   6    -0.369719396945E+03   -0.12172E-02   -0.12074E-02  6048   0.192E-02-0.131E-03
CGA:   7    -0.369719833913E+03   -0.43697E-03   -0.43497E-03  6048   0.733E-03-0.434E-04
CGA:   8    -0.369720005803E+03   -0.17189E-03   -0.17385E-03  6048   0.285E-03 0.586E-04
CGA:   9    -0.369720091858E+03   -0.86055E-04   -0.85908E-04  6048   0.113E-03 0.338E-04
CGA:  10    -0.369720135633E+03   -0.43775E-04   -0.45328E-04  6048   0.689E-04-0.184E-04
CGA:  11    -0.369720152707E+03   -0.17074E-04   -0.17203E-04  6048   0.285E-04-0.665E-05
CGA:  12    -0.369720141176E+03    0.11531E-04   -0.23725E-04  6048   0.161E-03-0.551E-04
CGA:  13    -0.369720171308E+03   -0.30132E-04   -0.32005E-04  6048   0.137E-04 0.165E-04
CGA:  14    -0.369720172225E+03   -0.91715E-06   -0.22162E-05  6048   0.533E-05 0.818E-05
  44 F= -.36972017E+03 E0= -.36972017E+03  d E =-.584998E-02  mag=    20.0000
       N       E                     dE             d eps       ncg     rms          ort
SDA:   1    -0.369600557775E+03    0.11961E+00    0.00000E+00  6048   0.300E+00 0.000E+00
CGA:   2    -0.369692723087E+03   -0.92165E-01   -0.92162E-01  6048   0.117E+00 0.923E-04
CGA:   3    -0.369712861361E+03   -0.20138E-01   -0.20227E-01  6048   0.352E-01 0.684E-03
CGA:   4    -0.369718536103E+03   -0.56747E-02   -0.56970E-02  6048   0.723E-02 0.169E-03
CGA:   5    -0.369719948915E+03   -0.14128E-02   -0.13909E-02  6048   0.232E-02-0.250E-03
CGA:   6    -0.369720438300E+03   -0.48939E-03   -0.47537E-03  6048   0.856E-03-0.220E-03
CGA:   7    -0.369720609642E+03   -0.17134E-03   -0.17105E-03  6048   0.298E-03-0.590E-05
CGA:   8    -0.369720664740E+03   -0.55099E-04   -0.59755E-04  6048   0.100E-03 0.687E-04
CGA:   9    -0.369720694991E+03   -0.30251E-04   -0.30686E-04  6048   0.457E-04 0.237E-04
CGA:  10    -0.369720714537E+03   -0.19546E-04   -0.27676E-04  6048   0.777E-04-0.362E-04
CGA:  11    -0.369720725924E+03   -0.11387E-04   -0.12417E-04  6048   0.963E-05 0.877E-05
CGA:  12    -0.369720733544E+03   -0.76196E-05    0.46572E-05  6048   0.325E-05 0.127E-05
  45 F= -.36972073E+03 E0= -.36972073E+03  d E =-.561318E-03  mag=    20.0000
       N       E                     dE             d eps       ncg     rms          ort
SDA:   1    -0.369661218670E+03    0.59507E-01    0.00000E+00  6048   0.145E+00 0.000E+00
CGA:   2    -0.369707415657E+03   -0.46197E-01   -0.46199E-01  6048   0.681E-01-0.667E-04
CGA:   3    -0.369718029757E+03   -0.10614E-01   -0.10566E-01  6048   0.165E-01-0.446E-03
CGA:   4    -0.369720740773E+03   -0.27110E-02   -0.27082E-02  6048   0.374E-02-0.315E-04
CGA:   5    -0.369721384403E+03   -0.64363E-03   -0.65241E-03  6048   0.101E-02 0.994E-04
CGA:   6    -0.369721579694E+03   -0.19529E-03   -0.19743E-03  6048   0.292E-03 0.313E-04
CGA:   7    -0.369721655699E+03   -0.76005E-04   -0.75967E-04  6048   0.130E-03-0.203E-04
CGA:   8    -0.369721691208E+03   -0.35510E-04   -0.36571E-04  6048   0.705E-04-0.222E-04
CGA:   9    -0.369721704717E+03   -0.13508E-04   -0.13647E-04  6048   0.218E-04 0.594E-05
CGA:  10    -0.369721707944E+03   -0.32272E-05   -0.39853E-05  6048   0.749E-05 0.869E-05
  46 F= -.36972171E+03 E0= -.36972171E+03  d E =-.974400E-03  mag=    20.0000
       N       E                     dE             d eps       ncg     rms          ort
SDA:   1    -0.369365653532E+03    0.35605E+00    0.00000E+00  6048   0.849E+00 0.000E+00
CGA:   2    -0.369638404453E+03   -0.27275E+00   -0.27281E+00  6048   0.404E+00-0.927E-03
CGA:   3    -0.369699773372E+03   -0.61369E-01   -0.61332E-01  6048   0.946E-01-0.625E-03
CGA:   4    -0.369715389420E+03   -0.15616E-01   -0.15630E-01  6048   0.213E-01 0.151E-03
CGA:   5    -0.369719123094E+03   -0.37337E-02   -0.37587E-02  6048   0.592E-02 0.380E-03
CGA:   6    -0.369720268254E+03   -0.11452E-02   -0.11518E-02  6048   0.170E-02 0.140E-03
CGA:   7    -0.369720687979E+03   -0.41973E-03   -0.42018E-03  6048   0.695E-03-0.724E-04
CGA:   8    -0.369720873731E+03   -0.18575E-03   -0.18821E-03  6048   0.330E-03-0.526E-04
CGA:   9    -0.369720948281E+03   -0.74550E-04   -0.74327E-04  6048   0.103E-03 0.395E-04
CGA:  10    -0.369720971482E+03   -0.23201E-04   -0.24104E-04  6048   0.321E-04 0.312E-04
CGA:  11    -0.369720980490E+03   -0.90081E-05   -0.91838E-05  6048   0.107E-04 0.994E-05
  47 F= -.36972098E+03 E0= -.36972098E+03  d E =0.727454E-03  mag=    20.0000
       N       E                     dE             d eps       ncg     rms          ort
SDA:   1    -0.367813138858E+03    0.19078E+01    0.00000E+00  6048   0.453E+01 0.000E+00
CGA:   2    -0.369317392894E+03   -0.15043E+01   -0.15044E+01  6048   0.197E+01-0.286E-02
CGA:   3    -0.369616794491E+03   -0.29940E+00   -0.29961E+00  6048   0.470E+00 0.108E-02
CGA:   4    -0.369694108058E+03   -0.77314E-01   -0.77395E-01  6048   0.103E+00 0.102E-02
CGA:   5    -0.369712878539E+03   -0.18770E-01   -0.18787E-01  6048   0.297E-01 0.280E-03
CGA:   6    -0.369718575254E+03   -0.56967E-02   -0.56927E-02  6048   0.842E-02-0.103E-03
CGA:   7    -0.369720504012E+03   -0.19288E-02   -0.19286E-02  6048   0.316E-02-0.108E-03
CGA:   8    -0.369721331040E+03   -0.82703E-03   -0.82597E-03  6048   0.136E-02 0.312E-04
CGA:   9    -0.369721729868E+03   -0.39883E-03   -0.39641E-03  6048   0.508E-03 0.425E-04
CGA:  10    -0.369721882344E+03   -0.15248E-03   -0.15237E-03  6048   0.166E-03 0.188E-05
CGA:  11    -0.369721929641E+03   -0.47297E-04   -0.47663E-04  6048   0.494E-04-0.782E-05
CGA:  12    -0.369721903049E+03    0.26592E-04   -0.44401E-04  6048   0.302E-03-0.101E-03
CGA:  13    -0.369721950142E+03   -0.47093E-04   -0.52461E-04  6048   0.312E-04 0.525E-04
CGA:  14    -0.369721958892E+03   -0.87499E-05   -0.89264E-05  6048   0.781E-05 0.650E-05
  48 F= -.36972196E+03 E0= -.36972196E+03  d E =-.978402E-03  mag=    20.0000
       N       E                     dE             d eps       ncg     rms          ort
SDA:   1    -0.353076343179E+03    0.16646E+02    0.00000E+00  6048   0.369E+02 0.000E+00
CGA:   2    -0.364104801285E+03   -0.11028E+02   -0.11023E+02  6048   0.149E+02 0.119E+00
CGA:   3    -0.366868714267E+03   -0.27639E+01   -0.27676E+01  6048   0.532E+01 0.207E-01
CGA:   4    -0.367752603932E+03   -0.88389E+00   -0.88485E+00  6048   0.126E+01 0.475E-02
CGA:   5    -0.368003029561E+03   -0.25043E+00   -0.25031E+00  6048   0.439E+00-0.294E-02
CGA:   6    -0.368091911672E+03   -0.88882E-01   -0.88777E-01  6048   0.163E+00-0.223E-02
CGA:   7    -0.368132861578E+03   -0.40950E-01   -0.40949E-01  6048   0.686E-01-0.280E-03
CGA:   8    -0.368149536095E+03   -0.16675E-01   -0.16689E-01  6048   0.251E-01 0.115E-02
CGA:   9    -0.368156594527E+03   -0.70584E-02   -0.70476E-02  6048   0.838E-02 0.532E-03
CGA:  10    -0.368159081859E+03   -0.24873E-02   -0.25024E-02  6048   0.310E-02-0.423E-03
CGA:  11    -0.368159940795E+03   -0.85894E-03   -0.86936E-03  6048   0.107E-02-0.281E-03
CGA:  12    -0.368160237384E+03   -0.29659E-03   -0.29800E-03  6048   0.379E-03-0.319E-04
CGA:  13    -0.368160378472E+03   -0.14109E-03   -0.14885E-03  6048   0.223E-03-0.546E-04
CGA:  14    -0.368160408707E+03   -0.30235E-04   -0.36864E-04  6048   0.102E-03 0.864E-04
CGA:  15    -0.368160423516E+03   -0.14809E-04   -0.21744E-04  6048   0.421E-04 0.618E-04
CGA:  16    -0.368160348839E+03    0.74677E-04   -0.43615E-04  6048   0.593E-03-0.104E-03
CGA:  17    -0.368160416997E+03   -0.68158E-04   -0.10154E-03  6048   0.671E-04 0.110E-03
CGA:  18    -0.368160442661E+03   -0.25664E-04   -0.24377E-04  6048   0.163E-04-0.845E-05
CGA:  19    -0.368160470042E+03   -0.27381E-04    0.28644E-05  6048   0.137E-04-0.891E-05
CGA:  20    -0.368160466664E+03    0.33773E-05   -0.73970E-06  6048   0.748E-05 0.104E-04
  49 F= -.36816047E+03 E0= -.36816047E+03  d E =0.156149E+01  mag=    20.0000
       N       E                     dE             d eps       ncg     rms          ort
SDA:   1    -0.365977440930E+03    0.21830E+01    0.00000E+00  6048   0.793E+01 0.000E+00
CGA:   2    -0.368553012252E+03   -0.25756E+01   -0.25738E+01  6048   0.253E+01-0.847E-02
CGA:   3    -0.369137145223E+03   -0.58413E+00   -0.58447E+00  6048   0.665E+00-0.326E-02
CGA:   4    -0.369250693974E+03   -0.11355E+00   -0.11369E+00  6048   0.219E+00 0.657E-03
CGA:   5    -0.369293404745E+03   -0.42711E-01   -0.42905E-01  6048   0.635E-01 0.114E-02
CGA:   6    -0.369307363919E+03   -0.13959E-01   -0.14048E-01  6048   0.293E-01 0.557E-03
CGA:   7    -0.369314431473E+03   -0.70676E-02   -0.70724E-02  6048   0.110E-01 0.271E-04
CGA:   8    -0.369317449429E+03   -0.30180E-02   -0.29887E-02  6048   0.465E-02-0.320E-03
CGA:   9    -0.369318602582E+03   -0.11532E-02   -0.11610E-02  6048   0.142E-02 0.767E-04
CGA:  10    -0.369318960656E+03   -0.35807E-03   -0.36933E-03  6048   0.418E-03 0.115E-03
CGA:  11    -0.369319104426E+03   -0.14377E-03   -0.14266E-03  6048   0.183E-03-0.334E-04
CGA:  12    -0.369319143917E+03   -0.39491E-04   -0.42427E-04  6048   0.654E-04 0.306E-04
CGA:  13    -0.369319161133E+03   -0.17215E-04   -0.18998E-04  6048   0.317E-04 0.189E-04
CGA:  14    -0.369319192703E+03   -0.31571E-04    0.48540E-04  6048   0.207E-04 0.272E-05
CGA:  15    -0.369319211872E+03   -0.19169E-04    0.14461E-04  6048   0.116E-04 0.201E-05
CGA:  16    -0.369319211584E+03    0.28788E-06   -0.15105E-05  6048   0.674E-05 0.818E-05
  50 F= -.36931921E+03 E0= -.36931921E+03  d E =-.115874E+01  mag=    20.0000
       N       E                     dE             d eps       ncg     rms          ort
SDA:   1    -0.368655217858E+03    0.66399E+00    0.00000E+00  6048   0.231E+01 0.000E+00
CGA:   2    -0.369400941810E+03   -0.74572E+00   -0.74574E+00  6048   0.728E+00-0.249E-02
CGA:   3    -0.369572310936E+03   -0.17137E+00   -0.17130E+00  6048   0.190E+00-0.139E-02
CGA:   4    -0.369605429940E+03   -0.33119E-01   -0.33225E-01  6048   0.635E-01 0.722E-03
CGA:   5    -0.369617641459E+03   -0.12212E-01   -0.12297E-01  6048   0.179E-01 0.768E-03
CGA:   6    -0.369621726307E+03   -0.40848E-02   -0.41097E-02  6048   0.845E-02 0.340E-03
CGA:   7    -0.369623773371E+03   -0.20471E-02   -0.20480E-02  6048   0.320E-02 0.151E-04
CGA:   8    -0.369624697377E+03   -0.92401E-03   -0.92287E-03  6048   0.149E-02-0.252E-03
CGA:   9    -0.369625027156E+03   -0.32978E-03   -0.33205E-03  6048   0.421E-03 0.444E-04
CGA:  10    -0.369625118349E+03   -0.91193E-04   -0.96798E-04  6048   0.123E-03 0.840E-04
CGA:  11    -0.369625158832E+03   -0.40483E-04   -0.40553E-04  6048   0.519E-04 0.656E-05
CGA:  12    -0.369625173086E+03   -0.14254E-04   -0.14438E-04  6048   0.205E-04 0.840E-05
CGA:  13    -0.369625177273E+03   -0.41869E-05   -0.49072E-05  6048   0.988E-05 0.917E-05
CGA:  14    -0.369625186148E+03   -0.88752E-05    0.19257E-04  6048   0.603E-05 0.225E-05
  51 F= -.36962519E+03 E0= -.36962519E+03  d E =-.305975E+00  mag=    20.0000
       N       E                     dE             d eps       ncg     rms          ort
SDA:   1    -0.368921761593E+03    0.70342E+00    0.00000E+00  6048   0.190E+01 0.000E+00
CGA:   2    -0.369532769258E+03   -0.61101E+00   -0.61111E+00  6048   0.584E+00-0.257E-02
CGA:   3    -0.369671370329E+03   -0.13860E+00   -0.13855E+00  6048   0.160E+00-0.138E-02
CGA:   4    -0.369698741279E+03   -0.27371E-01   -0.27464E-01  6048   0.510E-01 0.819E-03
CGA:   5    -0.369708449354E+03   -0.97081E-02   -0.98001E-02  6048   0.143E-01 0.110E-02
CGA:   6    -0.369711701890E+03   -0.32525E-02   -0.32770E-02  6048   0.652E-02 0.531E-03
CGA:   7    -0.369713361991E+03   -0.16601E-02   -0.16593E-02  6048   0.258E-02-0.335E-04
CGA:   8    -0.369714131999E+03   -0.77001E-03   -0.78273E-03  6048   0.133E-02-0.339E-03
CGA:   9    -0.369714388505E+03   -0.25651E-03   -0.25929E-03  6048   0.357E-03 0.607E-04
CGA:  10    -0.369714452530E+03   -0.64024E-04   -0.71782E-04  6048   0.113E-03 0.104E-03
CGA:  11    -0.369714480207E+03   -0.27677E-04   -0.29774E-04  6048   0.426E-04 0.349E-04
CGA:  12    -0.369714496137E+03   -0.15930E-04   -0.15816E-04  6048   0.205E-04 0.481E-05
CGA:  13    -0.369714499536E+03   -0.33988E-05   -0.41429E-05  6048   0.106E-04 0.930E-05
CGA:  14    -0.369714499340E+03    0.19597E-06   -0.11191E-04  6048   0.542E-04-0.242E-04
CGA:  15    -0.369714059534E+03    0.43981E-03   -0.23720E-03  6048   0.250E-02-0.358E-03
CGA:  16    -0.369714444707E+03   -0.38517E-03   -0.48048E-03  6048   0.109E-03 0.296E-03
CGA:  17    -0.369714382244E+03    0.62463E-04   -0.12198E-03  6048   0.102E-02-0.366E-03
CGA:  18    -0.369714485012E+03   -0.10277E-03   -0.19382E-03  6048   0.992E-04 0.274E-03
CGA:  19    -0.369714513984E+03   -0.28972E-04   -0.29842E-04  6048   0.569E-05 0.321E-05
CGA:  20    -0.369714538269E+03   -0.24286E-04    0.45024E-06  6048   0.506E-05-0.453E-05
CGA:  21    -0.369714536230E+03    0.20390E-05   -0.11052E-06  6048   0.396E-05 0.457E-05
  52 F= -.36971454E+03 E0= -.36971454E+03  d E =-.893501E-01  mag=    20.0000
       N       E                     dE             d eps       ncg     rms          ort
SDA:   1    -0.369674941799E+03    0.39596E-01    0.00000E+00  6048   0.116E+00 0.000E+00
CGA:   2    -0.369710690720E+03   -0.35749E-01   -0.35689E-01  6048   0.348E-01-0.406E-03
CGA:   3    -0.369718375651E+03   -0.76849E-02   -0.76230E-02  6048   0.143E-01-0.305E-03
CGA:   4    -0.369720546703E+03   -0.21711E-02   -0.22061E-02  6048   0.296E-02 0.125E-03
CGA:   5    -0.369721011954E+03   -0.46525E-03   -0.53067E-03  6048   0.873E-03 0.276E-03
CGA:   6    -0.369721160788E+03   -0.14883E-03   -0.18096E-03  6048   0.313E-03 0.151E-03
CGA:   7    -0.369721263969E+03   -0.10318E-03   -0.10316E-03  6048   0.167E-03-0.219E-06
CGA:   8    -0.369721326301E+03   -0.62332E-04   -0.60890E-04  6048   0.136E-03-0.672E-04
CGA:   9    -0.369721338161E+03   -0.11860E-04   -0.13238E-04  6048   0.543E-04 0.619E-05
CGA:  10    -0.369721339172E+03   -0.10108E-05   -0.61974E-05  6048   0.229E-04 0.196E-04
  53 F= -.36972134E+03 E0= -.36972134E+03  d E =-.680294E-02  mag=    20.0000
       N       E                     dE             d eps       ncg     rms          ort
SDA:   1    -0.369655986467E+03    0.65352E-01    0.00000E+00  6048   0.181E+00 0.000E+00
CGA:   2    -0.369708267412E+03   -0.52281E-01   -0.52236E-01  6048   0.692E-01-0.769E-03
CGA:   3    -0.369720866159E+03   -0.12599E-01   -0.12562E-01  6048   0.261E-01-0.270E-03
CGA:   4    -0.369725346512E+03   -0.44804E-02   -0.45095E-02  6048   0.568E-02 0.171E-03
CGA:   5    -0.369726274005E+03   -0.92749E-03   -0.98127E-03  6048   0.167E-02 0.342E-03
CGA:   6    -0.369726580608E+03   -0.30660E-03   -0.33628E-03  6048   0.568E-03 0.227E-03
CGA:   7    -0.369726747334E+03   -0.16673E-03   -0.16813E-03  6048   0.271E-03 0.261E-04
CGA:   8    -0.369726846429E+03   -0.99095E-04   -0.10632E-03  6048   0.242E-03-0.114E-03
CGA:   9    -0.369726871773E+03   -0.25344E-04   -0.25344E-04  6048   0.100E-03-0.159E-07
CGA:  10    -0.369726877360E+03   -0.55863E-05   -0.11644E-04  6048   0.415E-04 0.315E-04
  54 F= -.36972688E+03 E0= -.36972688E+03  d E =-.553819E-02  mag=    20.0000
       N       E                     dE             d eps       ncg     rms          ort
SDA:   1    -0.369725831230E+03    0.10405E-02    0.00000E+00  6048   0.539E-02 0.000E+00
CGA:   2    -0.369726923032E+03   -0.10918E-02   -0.10811E-02  6048   0.256E-02-0.127E-03
CGA:   3    -0.369727373080E+03   -0.45005E-03   -0.45207E-03  6048   0.811E-03 0.180E-04
CGA:   4    -0.369727496628E+03   -0.12355E-03   -0.13251E-03  6048   0.174E-03 0.765E-04
CGA:   5    -0.369727524093E+03   -0.27465E-04   -0.29953E-04  6048   0.466E-04 0.214E-04
CGA:   6    -0.369727538461E+03   -0.14368E-04   -0.14485E-04  6048   0.302E-04-0.126E-04
CGA:   7    -0.369727544645E+03   -0.61843E-05   -0.64903E-05  6048   0.207E-04-0.115E-04
  55 F= -.36972754E+03 E0= -.36972754E+03  d E =-.667285E-03  mag=    20.0000
       N       E                     dE             d eps       ncg     rms          ort
SDA:   1    -0.369693270359E+03    0.34268E-01    0.00000E+00  6048   0.121E+00 0.000E+00
CGA:   2    -0.369715184250E+03   -0.21914E-01   -0.21894E-01  6048   0.547E-01-0.359E-03
CGA:   3    -0.369725576210E+03   -0.10392E-01   -0.10395E-01  6048   0.193E-01 0.489E-05
CGA:   4    -0.369728843814E+03   -0.32676E-02   -0.32940E-02  6048   0.460E-02 0.303E-03
CGA:   5    -0.369729584281E+03   -0.74047E-03   -0.75674E-03  6048   0.111E-02 0.179E-03
CGA:   6    -0.369729808741E+03   -0.22446E-03   -0.22650E-03  6048   0.355E-03 0.395E-04
CGA:   7    -0.369729900258E+03   -0.91517E-04   -0.91621E-04  6048   0.153E-03-0.241E-04
CGA:   8    -0.369729937328E+03   -0.37070E-04   -0.37157E-04  6048   0.659E-04-0.553E-05
CGA:   9    -0.369729953980E+03   -0.16653E-04   -0.16548E-04  6048   0.248E-04 0.716E-05
CGA:  10    -0.369729961267E+03   -0.72865E-05   -0.72220E-05  6048   0.103E-04 0.396E-05
  56 F= -.36972996E+03 E0= -.36972996E+03  d E =-.241662E-02  mag=    20.0000
       N       E                     dE             d eps       ncg     rms          ort
SDA:   1    -0.369721998634E+03    0.79553E-02    0.00000E+00  6048   0.302E-01 0.000E+00
CGA:   2    -0.369727502920E+03   -0.55043E-02   -0.54935E-02  6048   0.137E-01-0.198E-03
CGA:   3    -0.369730069073E+03   -0.25662E-02   -0.25692E-02  6048   0.477E-02 0.467E-04
CGA:   4    -0.369730858443E+03   -0.78937E-03   -0.80242E-03  6048   0.108E-02 0.177E-03
CGA:   5    -0.369731029904E+03   -0.17146E-03   -0.17761E-03  6048   0.251E-03 0.784E-04
CGA:   6    -0.369731085736E+03   -0.55831E-04   -0.55992E-04  6048   0.895E-04 0.620E-05
CGA:   7    -0.369731110386E+03   -0.24650E-04   -0.25260E-04  6048   0.488E-04-0.141E-04
CGA:   8    -0.369731119442E+03   -0.90563E-05   -0.91028E-05  6048   0.191E-04 0.358E-05
  57 F= -.36973112E+03 E0= -.36973112E+03  d E =-.115818E-02  mag=    20.0000
       N       E                     dE             d eps       ncg     rms          ort
SDA:   1    -0.369321114238E+03    0.41000E+00    0.00000E+00  6048   0.134E+01 0.000E+00
CGA:   2    -0.369566075222E+03   -0.24496E+00   -0.24506E+00  6048   0.622E+00 0.345E-03
CGA:   3    -0.369685646885E+03   -0.11957E+00   -0.11961E+00  6048   0.216E+00 0.681E-03
CGA:   4    -0.369722499691E+03   -0.36853E-01   -0.36916E-01  6048   0.497E-01 0.105E-02
CGA:   5    -0.369730666467E+03   -0.81668E-02   -0.82063E-02  6048   0.122E-01 0.636E-03
CGA:   6    -0.369733109925E+03   -0.24435E-02   -0.24479E-02  6048   0.393E-02 0.182E-03
CGA:   7    -0.369734030245E+03   -0.92032E-03   -0.92081E-03  6048   0.147E-02-0.511E-04
CGA:   8    -0.369734403479E+03   -0.37323E-03   -0.37289E-03  6048   0.622E-03 0.835E-05
CGA:   9    -0.369734584750E+03   -0.18127E-03   -0.17874E-03  6048   0.263E-03 0.398E-04
CGA:  10    -0.369734670155E+03   -0.85405E-04   -0.84407E-04  6048   0.121E-03 0.130E-04
CGA:  11    -0.369734707048E+03   -0.36893E-04   -0.35855E-04  6048   0.494E-04 0.199E-04
CGA:  12    -0.369734724404E+03   -0.17356E-04   -0.16801E-04  6048   0.216E-04 0.928E-05
CGA:  13    -0.369734713980E+03    0.10424E-04   -0.27078E-04  6048   0.138E-03-0.457E-04
CGA:  14    -0.369734734824E+03   -0.20844E-04   -0.24028E-04  6048   0.169E-04 0.311E-04
CGA:  15    -0.369734740057E+03   -0.52331E-05   -0.52730E-05  6048   0.439E-05 0.235E-05
  58 F= -.36973474E+03 E0= -.36973474E+03  d E =-.362061E-02  mag=    20.0000
       N       E                     dE             d eps       ncg     rms          ort
SDA:   1    -0.369684646675E+03    0.50088E-01    0.00000E+00  6048   0.133E+00 0.000E+00
CGA:   2    -0.369716878171E+03   -0.32231E-01   -0.32246E-01  6048   0.730E-01 0.480E-03
CGA:   3    -0.369729500229E+03   -0.12622E-01   -0.12626E-01  6048   0.217E-01 0.700E-05
CGA:   4    -0.369733289618E+03   -0.37894E-02   -0.37638E-02  6048   0.538E-02-0.292E-03
CGA:   5    -0.369734269726E+03   -0.98011E-03   -0.97106E-03  6048   0.167E-02-0.120E-03
CGA:   6    -0.369734588201E+03   -0.31848E-03   -0.31954E-03  6048   0.541E-03 0.172E-04
CGA:   7    -0.369734714042E+03   -0.12584E-03   -0.12642E-03  6048   0.212E-03 0.265E-04
CGA:   8    -0.369734770911E+03   -0.56869E-04   -0.56857E-04  6048   0.824E-04 0.335E-05
CGA:   9    -0.369734793188E+03   -0.22277E-04   -0.22182E-04  6048   0.284E-04 0.735E-05
CGA:  10    -0.369734801603E+03   -0.84155E-05   -0.83888E-05  6048   0.107E-04 0.145E-05
  59 F= -.36973480E+03 E0= -.36973480E+03  d E =-.615461E-04  mag=    20.0000
       N       E                     dE             d eps       ncg     rms          ort
SDA:   1    -0.369710926167E+03    0.23867E-01    0.00000E+00  6048   0.731E-01 0.000E+00
CGA:   2    -0.369725509056E+03   -0.14583E-01   -0.14615E-01  6048   0.353E-01 0.383E-03
CGA:   3    -0.369732098033E+03   -0.65890E-02   -0.65855E-02  6048   0.117E-01-0.617E-04
CGA:   4    -0.369734177847E+03   -0.20798E-02   -0.20603E-02  6048   0.282E-02-0.229E-03
CGA:   5    -0.369734682966E+03   -0.50512E-03   -0.49661E-03  6048   0.771E-03-0.108E-03
CGA:   6    -0.369734833740E+03   -0.15077E-03   -0.15041E-03  6048   0.250E-03-0.716E-05
CGA:   7    -0.369734885246E+03   -0.51507E-04   -0.52321E-04  6048   0.843E-04 0.196E-04
CGA:   8    -0.369734908445E+03   -0.23199E-04   -0.23180E-04  6048   0.362E-04 0.457E-05
CGA:   9    -0.369734921797E+03   -0.13353E-04   -0.14414E-04  6048   0.255E-04-0.842E-05
CGA:  10    -0.369734927104E+03   -0.53062E-05   -0.53324E-05  6048   0.108E-04-0.178E-05
  60 F= -.36973493E+03 E0= -.36973493E+03  d E =-.125500E-03  mag=    20.0000
       N       E                     dE             d eps       ncg     rms          ort
SDA:   1    -0.369731561583E+03    0.33602E-02    0.00000E+00  6048   0.922E-02 0.000E+00
CGA:   2    -0.369733682401E+03   -0.21208E-02   -0.21238E-02  6048   0.500E-02 0.890E-04
CGA:   3    -0.369734530664E+03   -0.84826E-03   -0.85643E-03  6048   0.135E-02 0.878E-04
CGA:   4    -0.369734765828E+03   -0.23516E-03   -0.23308E-03  6048   0.307E-03-0.246E-04
CGA:   5    -0.369734825664E+03   -0.59835E-04   -0.57420E-04  6048   0.101E-03-0.400E-04
CGA:   6    -0.369734843034E+03   -0.17370E-04   -0.17028E-04  6048   0.310E-04-0.642E-05
CGA:   7    -0.369734847202E+03   -0.41676E-05   -0.47216E-05  6048   0.841E-05 0.670E-05
  61 F= -.36973485E+03 E0= -.36973485E+03  d E =0.799017E-04  mag=    20.0000
       N       E                     dE             d eps       ncg     rms          ort
SDA:   1    -0.351818733573E+03    0.17916E+02    0.00000E+00  6048   0.504E+02 0.000E+00
CGA:   2    -0.363014592661E+03   -0.11196E+02   -0.11203E+02  6048   0.282E+02 0.258E+00
CGA:   3    -0.368001789674E+03   -0.49872E+01   -0.49952E+01  6048   0.745E+01 0.841E-01
CGA:   4    -0.369220892160E+03   -0.12191E+01   -0.12190E+01  6048   0.162E+01-0.128E-02
[...]
CGA:   9    -0.369723122865E+03   -0.36957E-03   -0.37136E-03  6048   0.546E-03-0.308E-04
CGA:  10    -0.369723289199E+03   -0.16633E-03   -0.16836E-03  6048   0.230E-03-0.381E-04
CGA:  11    -0.369723348540E+03   -0.59341E-04   -0.59273E-04  6048   0.788E-04 0.583E-05
CGA:  12    -0.369723378218E+03   -0.29678E-04   -0.30756E-04  6048   0.486E-04-0.953E-05
CGA:  13    -0.369723396413E+03   -0.18196E-04   -0.22821E-04  6048   0.466E-04-0.177E-04
CGA:  14    -0.369723403350E+03   -0.69364E-05   -0.71557E-05  6048   0.214E-04 0.498E-05
  68 F= -.36972340E+03 E0= -.36972340E+03  d E =0.100360E-01  mag=    20.0000
       N       E                     dE             d eps       ncg     rms          ort
SDA:   1    -0.369657178834E+03    0.66218E-01    0.00000E+00  6048   0.172E+00 0.000E+00
CGA:   2    -0.369709590332E+03   -0.52411E-01   -0.52421E-01  6048   0.722E-01-0.428E-03
CGA:   3    -0.369722528321E+03   -0.12938E-01   -0.12923E-01  6048   0.220E-01-0.191E-03
CGA:   4    -0.369726201175E+03   -0.36729E-02   -0.36785E-02  6048   0.513E-02 0.453E-04
CGA:   5    -0.369727162789E+03   -0.96161E-03   -0.97422E-03  6048   0.159E-02 0.152E-03
CGA:   6    -0.369727476392E+03   -0.31360E-03   -0.32023E-03  6048   0.563E-03 0.917E-04
CGA:   7    -0.369727630009E+03   -0.15362E-03   -0.15365E-03  6048   0.256E-03 0.552E-05
CGA:   8    -0.369727701149E+03   -0.71140E-04   -0.71398E-04  6048   0.118E-03-0.196E-04
CGA:   9    -0.369727728502E+03   -0.27353E-04   -0.27441E-04  6048   0.351E-04 0.713E-05
CGA:  10    -0.369727736258E+03   -0.77565E-05   -0.81148E-05  6048   0.111E-04 0.785E-05
  69 F= -.36972774E+03 E0= -.36972774E+03  d E =-.433291E-02  mag=    20.0000
       N       E                     dE             d eps       ncg     rms          ort
SDA:   1    -0.369635233791E+03    0.92495E-01    0.00000E+00  6048   0.233E+00 0.000E+00
CGA:   2    -0.369700682550E+03   -0.65449E-01   -0.65444E-01  6048   0.133E+00 0.123E-03
CGA:   3    -0.369721197185E+03   -0.20515E-01   -0.20565E-01  6048   0.295E-01 0.414E-03
CGA:   4    -0.369726069585E+03   -0.48724E-02   -0.48688E-02  6048   0.651E-02-0.487E-04
CGA:   5    -0.369727221402E+03   -0.11518E-02   -0.11441E-02  6048   0.184E-02-0.107E-03
CGA:   6    -0.369727568161E+03   -0.34676E-03   -0.34681E-03  6048   0.523E-03 0.381E-06
CGA:   7    -0.369727674313E+03   -0.10615E-03   -0.10731E-03  6048   0.160E-03 0.306E-04
CGA:   8    -0.369727714580E+03   -0.40267E-04   -0.40335E-04  6048   0.627E-04 0.227E-04
CGA:   9    -0.369727737043E+03   -0.22463E-04   -0.22306E-04  6048   0.322E-04 0.219E-05
CGA:  10    -0.369727746932E+03   -0.98892E-05   -0.17451E-04  6048   0.521E-04-0.270E-04
  70 F= -.36972775E+03 E0= -.36972775E+03  d E =-.106738E-04  mag=    20.0000
       N       E                     dE             d eps       ncg     rms          ort
SDA:   1    -0.369492508877E+03    0.23523E+00    0.00000E+00  6048   0.575E+00 0.000E+00
CGA:   2    -0.369664846943E+03   -0.17234E+00   -0.17236E+00  6048   0.318E+00-0.736E-03
CGA:   3    -0.369713432840E+03   -0.48586E-01   -0.48702E-01  6048   0.648E-01 0.920E-03
CGA:   4    -0.369724136186E+03   -0.10703E-01   -0.10733E-01  6048   0.145E-01 0.336E-03
CGA:   5    -0.369726747025E+03   -0.26108E-02   -0.26080E-02  6048   0.408E-02-0.469E-04
CGA:   6    -0.369727551540E+03   -0.80451E-03   -0.80112E-03  6048   0.118E-02-0.757E-04
CGA:   7    -0.369727799910E+03   -0.24837E-03   -0.24863E-03  6048   0.393E-03 0.951E-05
CGA:   8    -0.369727887935E+03   -0.88025E-04   -0.88932E-04  6048   0.139E-03 0.622E-04
CGA:   9    -0.369727933206E+03   -0.45271E-04   -0.44429E-04  6048   0.604E-04 0.222E-04
CGA:  10    -0.369727952336E+03   -0.19130E-04   -0.41623E-04  6048   0.135E-03-0.636E-04
CGA:  11    -0.369727968627E+03   -0.16291E-04   -0.19390E-04  6048   0.157E-04 0.271E-04
CGA:  12    -0.369727971602E+03   -0.29749E-05   -0.33810E-05  6048   0.483E-05 0.560E-05
CGA:  13    -0.369727938108E+03    0.33494E-04   -0.18040E-04  6048   0.158E-03-0.332E-04
CGA:  14    -0.369727965405E+03   -0.27297E-04   -0.33055E-04  6048   0.218E-04 0.235E-04
CGA:  15    -0.369727962344E+03    0.30609E-05   -0.23809E-04  6048   0.105E-03-0.529E-04
CGA:  16    -0.369727965003E+03   -0.26592E-05   -0.17166E-04  6048   0.251E-04 0.479E-04
  71 F= -.36972797E+03 E0= -.36972797E+03  d E =-.218071E-03  mag=    20.0000
       N       E                     dE             d eps       ncg     rms          ort
SDA:   1    -0.359721744447E+03    0.10006E+02    0.00000E+00  6048   0.275E+02 0.000E+00
CGA:   2    -0.366185462508E+03   -0.64637E+01   -0.64883E+01  6048   0.108E+02 0.156E-01
CGA:   3    -0.368227321412E+03   -0.20419E+01   -0.20435E+01  6048   0.400E+01 0.862E-02
CGA:   4    -0.368919218100E+03   -0.69190E+00   -0.69122E+00  6048   0.924E+00 0.333E-02
CGA:   5    -0.369088368219E+03   -0.16915E+00   -0.16949E+00  6048   0.281E+00 0.203E-02
CGA:   6    -0.369144520406E+03   -0.56152E-01   -0.56510E-01  6048   0.997E-01 0.183E-02
CGA:   7    -0.369169727088E+03   -0.25207E-01   -0.25255E-01  6048   0.443E-01 0.313E-03
CGA:   8    -0.369181813124E+03   -0.12086E-01   -0.12035E-01  6048   0.199E-01-0.499E-03
CGA:   9    -0.369187521806E+03   -0.57087E-02   -0.57118E-02  6048   0.772E-02 0.330E-04
CGA:  10    -0.369189690967E+03   -0.21692E-02   -0.21978E-02  6048   0.306E-02 0.339E-03
CGA:  11    -0.369190666155E+03   -0.97519E-03   -0.98371E-03  6048   0.141E-02 0.151E-03
CGA:  12    -0.369191208641E+03   -0.54249E-03   -0.54224E-03  6048   0.804E-03 0.505E-04
CGA:  13    -0.369191553008E+03   -0.34437E-03   -0.34744E-03  6048   0.469E-03-0.558E-04
CGA:  14    -0.369191726724E+03   -0.17372E-03   -0.17717E-03  6048   0.215E-03-0.823E-04
CGA:  15    -0.369191774591E+03   -0.47867E-04   -0.49267E-04  6048   0.636E-04 0.157E-04
CGA:  16    -0.369191792027E+03   -0.17436E-04   -0.18250E-04  6048   0.219E-04 0.864E-05
CGA:  17    -0.369191797243E+03   -0.52163E-05   -0.60506E-05  6048   0.873E-05 0.732E-05
  72 F= -.36919180E+03 E0= -.36919180E+03  d E =0.536168E+00  mag=    20.0000
       N       E                     dE             d eps       ncg     rms          ort
SDA:   1    -0.367354251886E+03    0.18375E+01    0.00000E+00  6048   0.550E+01 0.000E+00
CGA:   2    -0.369144199206E+03   -0.17899E+01   -0.17899E+01  6048   0.170E+01-0.194E-02
CGA:   3    -0.369541511169E+03   -0.39731E+00   -0.39769E+00  6048   0.456E+00 0.269E-02
CGA:   4    -0.369619342788E+03   -0.77832E-01   -0.77905E-01  6048   0.148E+00 0.515E-04
CGA:   5    -0.369648370234E+03   -0.29027E-01   -0.28928E-01  6048   0.434E-01-0.772E-03
CGA:   6    -0.369658254414E+03   -0.98842E-02   -0.98271E-02  6048   0.207E-01-0.618E-03
CGA:   7    -0.369662988945E+03   -0.47345E-02   -0.47369E-02  6048   0.760E-02 0.219E-04
CGA:   8    -0.369664947166E+03   -0.19582E-02   -0.19723E-02  6048   0.293E-02 0.260E-03
CGA:   9    -0.369665763692E+03   -0.81653E-03   -0.81542E-03  6048   0.101E-02-0.277E-04
CGA:  10    -0.369666066945E+03   -0.30325E-03   -0.30282E-03  6048   0.367E-03-0.944E-04
CGA:  11    -0.369666162063E+03   -0.95118E-04   -0.94676E-04  6048   0.129E-03-0.188E-04
CGA:  12    -0.369666208651E+03   -0.46588E-04   -0.50639E-04  6048   0.897E-04-0.386E-04
CGA:  13    -0.369666224521E+03   -0.15870E-04   -0.16530E-04  6048   0.391E-04 0.132E-04
CGA:  14    -0.369666232402E+03   -0.78810E-05   -0.91726E-05  6048   0.151E-04 0.122E-04
  73 F= -.36966623E+03 E0= -.36966623E+03  d E =-.474435E+00  mag=    20.0000
       N       E                     dE             d eps       ncg     rms          ort
SDA:   1    -0.369390775918E+03    0.27545E+00    0.00000E+00  6048   0.805E+00 0.000E+00
CGA:   2    -0.369646661502E+03   -0.25589E+00   -0.25587E+00  6048   0.252E+00 0.811E-03
CGA:   3    -0.369703429989E+03   -0.56768E-01   -0.56890E-01  6048   0.809E-01 0.151E-02
CGA:   4    -0.369716588159E+03   -0.13158E-01   -0.13144E-01  6048   0.221E-01-0.163E-03
CGA:   5    -0.369721244298E+03   -0.46561E-02   -0.45933E-02  6048   0.727E-02-0.755E-03
CGA:   6    -0.369722853648E+03   -0.16093E-02   -0.15839E-02  6048   0.340E-02-0.412E-03
CGA:   7    -0.369723564322E+03   -0.71067E-03   -0.71506E-03  6048   0.117E-02 0.705E-04
CGA:   8    -0.369723821454E+03   -0.25713E-03   -0.26726E-03  6048   0.405E-03 0.176E-03
CGA:   9    -0.369723954284E+03   -0.13283E-03   -0.13287E-03  6048   0.171E-03-0.674E-05
CGA:  10    -0.369724011438E+03   -0.57154E-04   -0.67614E-04  6048   0.145E-03-0.850E-04
CGA:  11    -0.369724028813E+03   -0.17376E-04   -0.15981E-04  6048   0.616E-04-0.212E-04
CGA:  12    -0.369724040466E+03   -0.11652E-04   -0.11388E-04  6048   0.326E-04-0.406E-05
CGA:  13    -0.369724049198E+03   -0.87323E-05   -0.87836E-05  6048   0.206E-04-0.527E-05
  74 F= -.36972405E+03 E0= -.36972405E+03  d E =-.578168E-01  mag=    20.0000
       N       E                     dE             d eps       ncg     rms          ort
SDA:   1    -0.369548260233E+03    0.17578E+00    0.00000E+00  6048   0.480E+00 0.000E+00
CGA:   2    -0.369690328032E+03   -0.14207E+00   -0.14204E+00  6048   0.168E+00 0.116E-02
CGA:   3    -0.369722591116E+03   -0.32263E-01   -0.32383E-01  6048   0.662E-01 0.137E-02
CGA:   4    -0.369733787340E+03   -0.11196E-01   -0.11206E-01  6048   0.145E-01 0.693E-04
CGA:   5    -0.369736719878E+03   -0.29325E-02   -0.28724E-02  6048   0.555E-02-0.908E-03
CGA:   6    -0.369737904882E+03   -0.11850E-02   -0.11576E-02  6048   0.245E-02-0.711E-03
CGA:   7    -0.369738370868E+03   -0.46599E-03   -0.46763E-03  6048   0.813E-03 0.401E-04
CGA:   8    -0.369738505088E+03   -0.13422E-03   -0.15144E-03  6048   0.259E-03 0.233E-03
CGA:   9    -0.369738566776E+03   -0.61688E-04   -0.66540E-04  6048   0.104E-03 0.897E-04
CGA:  10    -0.369738613039E+03   -0.46263E-04   -0.60470E-04  6048   0.136E-03-0.776E-04
CGA:  11    -0.369738636106E+03   -0.23066E-04   -0.24108E-04  6048   0.166E-04 0.125E-04
CGA:  12    -0.369738653839E+03   -0.17733E-04    0.25509E-05  6048   0.425E-05 0.258E-05
CGA:  13    -0.369738660200E+03   -0.63605E-05    0.41067E-06  6048   0.206E-05 0.186E-05
  75 F= -.36973866E+03 E0= -.36973866E+03  d E =-.146110E-01  mag=    20.0000
       N       E                     dE             d eps       ncg     rms          ort
SDA:   1    -0.369681196865E+03    0.57457E-01    0.00000E+00  6048   0.168E+00 0.000E+00
CGA:   2    -0.369725143251E+03   -0.43946E-01   -0.43934E-01  6048   0.739E-01 0.841E-03
CGA:   3    -0.369737691957E+03   -0.12549E-01   -0.12611E-01  6048   0.247E-01 0.735E-03
CGA:   4    -0.369742333128E+03   -0.46412E-02   -0.46463E-02  6048   0.618E-02 0.799E-04
CGA:   5    -0.369743517486E+03   -0.11844E-02   -0.11546E-02  6048   0.207E-02-0.532E-03
CGA:   6    -0.369743992604E+03   -0.47512E-03   -0.48394E-03  6048   0.123E-02-0.568E-03
CGA:   7    -0.369744169733E+03   -0.17713E-03   -0.17629E-03  6048   0.394E-03-0.197E-04
CGA:   8    -0.369744207055E+03   -0.37322E-04   -0.53174E-04  6048   0.147E-03 0.157E-03
CGA:   9    -0.369744218207E+03   -0.11152E-04   -0.22959E-04  6048   0.614E-04 0.970E-04
CGA:  10    -0.369744241489E+03   -0.23282E-04   -0.22925E-04  6048   0.309E-04 0.243E-05
CGA:  11    -0.369744246078E+03   -0.45889E-05   -0.54967E-05  6048   0.928E-05 0.143E-04
  76 F= -.36974425E+03 E0= -.36974425E+03  d E =-.558588E-02  mag=    20.0000
       N       E                     dE             d eps       ncg     rms          ort
SDA:   1    -0.369726762626E+03    0.17479E-01    0.00000E+00  6048   0.553E-01 0.000E+00
CGA:   2    -0.369738991250E+03   -0.12229E-01   -0.12237E-01  6048   0.285E-01 0.321E-03
CGA:   3    -0.369744017505E+03   -0.50263E-02   -0.50437E-02  6048   0.908E-02 0.244E-03
CGA:   4    -0.369745595405E+03   -0.15779E-02   -0.15784E-02  6048   0.225E-02 0.360E-05
CGA:   5    -0.369746026829E+03   -0.43142E-03   -0.42431E-03  6048   0.686E-03-0.151E-03
CGA:   6    -0.369746180729E+03   -0.15390E-03   -0.15522E-03  6048   0.347E-03-0.154E-03
CGA:   7    -0.369746235614E+03   -0.54885E-04   -0.54767E-04  6048   0.114E-03-0.401E-05
CGA:   8    -0.369746247960E+03   -0.12346E-04   -0.16277E-04  6048   0.406E-04 0.447E-04
CGA:   9    -0.369746251786E+03   -0.38259E-05   -0.67231E-05  6048   0.179E-04 0.264E-04
  77 F= -.36974625E+03 E0= -.36974625E+03  d E =-.200571E-02  mag=    20.0000
       N       E                     dE             d eps       ncg     rms          ort
SDA:   1    -0.369734802855E+03    0.11445E-01    0.00000E+00  6048   0.392E-01 0.000E+00
CGA:   2    -0.369741859124E+03   -0.70563E-02   -0.70676E-02  6048   0.181E-01 0.166E-03
CGA:   3    -0.369745357419E+03   -0.34983E-02   -0.35040E-02  6048   0.640E-02 0.130E-03
CGA:   4    -0.369746473807E+03   -0.11164E-02   -0.11171E-02  6048   0.162E-02 0.101E-04
CGA:   5    -0.369746745143E+03   -0.27134E-03   -0.26901E-03  6048   0.440E-03-0.378E-04
CGA:   6    -0.369746839478E+03   -0.94335E-04   -0.93987E-04  6048   0.176E-03-0.531E-04
CGA:   7    -0.369746874458E+03   -0.34981E-04   -0.34987E-04  6048   0.635E-04-0.789E-05
CGA:   8    -0.369746884660E+03   -0.10202E-04   -0.10989E-04  6048   0.207E-04 0.180E-04
CGA:   9    -0.369746888463E+03   -0.38026E-05   -0.44140E-05  6048   0.977E-05 0.108E-04
  78 F= -.36974689E+03 E0= -.36974689E+03  d E =-.636677E-03  mag=    20.0000
       N       E                     dE             d eps       ncg     rms          ort
SDA:   1    -0.369671267370E+03    0.75617E-01    0.00000E+00  6048   0.260E+00 0.000E+00
CGA:   2    -0.369715879691E+03   -0.44612E-01   -0.44670E-01  6048   0.111E+00 0.472E-03
CGA:   3    -0.369737690581E+03   -0.21811E-01   -0.21829E-01  6048   0.423E-01 0.276E-03
CGA:   4    -0.369745006251E+03   -0.73157E-02   -0.73186E-02  6048   0.107E-01 0.208E-04
CGA:   5    -0.369746707115E+03   -0.17009E-02   -0.17019E-02  6048   0.262E-02 0.891E-05
CGA:   6    -0.369747221062E+03   -0.51395E-03   -0.51354E-03  6048   0.831E-03-0.113E-04
CGA:   7    -0.369747411677E+03   -0.19061E-03   -0.19059E-03  6048   0.304E-03-0.526E-05
CGA:   8    -0.369747487547E+03   -0.75871E-04   -0.75599E-04  6048   0.124E-03 0.167E-04
CGA:   9    -0.369747525382E+03   -0.37835E-04   -0.37169E-04  6048   0.584E-04 0.137E-04
CGA:  10    -0.369747547276E+03   -0.21894E-04   -0.22079E-04  6048   0.357E-04-0.185E-05
CGA:  11    -0.369747559564E+03   -0.12287E-04   -0.13183E-04  6048   0.218E-04-0.652E-05
CGA:  12    -0.369747565003E+03   -0.54395E-05   -0.55308E-05  6048   0.865E-05-0.154E-05
  79 F= -.36974757E+03 E0= -.36974757E+03  d E =-.676540E-03  mag=    20.0000
       N       E                     dE             d eps       ncg     rms          ort
SDA:   1    -0.369662161243E+03    0.85398E-01    0.00000E+00  6048   0.275E+00 0.000E+00
CGA:   2    -0.369714451137E+03   -0.52290E-01   -0.52346E-01  6048   0.119E+00 0.611E-03
CGA:   3    -0.369736622149E+03   -0.22171E-01   -0.22194E-01  6048   0.426E-01 0.274E-03
CGA:   4    -0.369744104463E+03   -0.74823E-02   -0.74804E-02  6048   0.998E-02-0.407E-04
CGA:   5    -0.369745749539E+03   -0.16451E-02   -0.16440E-02  6048   0.251E-02-0.167E-04
CGA:   6    -0.369746245894E+03   -0.49635E-03   -0.49612E-03  6048   0.816E-03-0.630E-05
CGA:   7    -0.369746434616E+03   -0.18872E-03   -0.18876E-03  6048   0.320E-03 0.447E-05
CGA:   8    -0.369746517786E+03   -0.83170E-04   -0.82750E-04  6048   0.142E-03 0.221E-04
CGA:   9    -0.369746564159E+03   -0.46374E-04   -0.45474E-04  6048   0.708E-04 0.151E-04
CGA:  10    -0.369746592063E+03   -0.27904E-04   -0.28886E-04  6048   0.488E-04-0.784E-05
CGA:  11    -0.369746606279E+03   -0.14216E-04   -0.14802E-04  6048   0.249E-04-0.639E-05
CGA:  12    -0.369746612636E+03   -0.63568E-05   -0.63605E-05  6048   0.972E-05-0.114E-06
  80 F= -.36974661E+03 E0= -.36974661E+03  d E =0.952367E-03  mag=    20.0000
       N       E                     dE             d eps       ncg     rms          ort
SDA:   1    -0.369405367092E+03    0.34124E+00    0.00000E+00  6048   0.108E+01 0.000E+00
CGA:   2    -0.369622792147E+03   -0.21743E+00   -0.21761E+00  6048   0.446E+00 0.201E-02
CGA:   3    -0.369704714493E+03   -0.81922E-01   -0.81979E-01  6048   0.161E+00 0.461E-03
CGA:   4    -0.369732796364E+03   -0.28082E-01   -0.28065E-01  6048   0.362E-01-0.251E-03
CGA:   5    -0.369738816899E+03   -0.60205E-02   -0.60229E-02  6048   0.942E-02 0.184E-04
CGA:   6    -0.369740667041E+03   -0.18501E-02   -0.18547E-02  6048   0.303E-02 0.871E-04
CGA:   7    -0.369741397238E+03   -0.73020E-03   -0.73042E-03  6048   0.128E-02 0.337E-04
CGA:   8    -0.369741759661E+03   -0.36242E-03   -0.36142E-03  6048   0.655E-03 0.281E-04
CGA:   9    -0.369741974118E+03   -0.21446E-03   -0.21293E-03  6048   0.336E-03 0.207E-04
CGA:  10    -0.369742088134E+03   -0.11402E-03   -0.11495E-03  6048   0.176E-03-0.117E-04
CGA:  11    -0.369742141725E+03   -0.53591E-04   -0.53779E-04  6048   0.767E-04-0.312E-05
CGA:  12    -0.369742167502E+03   -0.25777E-04   -0.26044E-04  6048   0.357E-04-0.308E-05
CGA:  13    -0.369742180652E+03   -0.13151E-04   -0.18773E-04  6048   0.369E-04-0.197E-04
CGA:  14    -0.369742186901E+03   -0.62486E-05   -0.69453E-05  6048   0.462E-05 0.797E-05
  81 F= -.36974219E+03 E0= -.36974219E+03  d E =0.442574E-02  mag=    20.0000
       N       E                     dE             d eps       ncg     rms          ort
SDA:   1    -0.369727220981E+03    0.14960E-01    0.00000E+00  6048   0.499E-01 0.000E+00
CGA:   2    -0.369736448447E+03   -0.92275E-02   -0.92083E-02  6048   0.249E-01-0.203E-03
CGA:   3    -0.369741315711E+03   -0.48673E-02   -0.48706E-02  6048   0.867E-02 0.190E-04
CGA:   4    -0.369742756884E+03   -0.14412E-02   -0.14503E-02  6048   0.203E-02 0.692E-04
CGA:   5    -0.369743086312E+03   -0.32943E-03   -0.33689E-03  6048   0.517E-03 0.610E-04
CGA:   6    -0.369743175669E+03   -0.89358E-04   -0.95469E-04  6048   0.147E-03 0.610E-04
CGA:   7    -0.369743210298E+03   -0.34628E-04   -0.35732E-04  6048   0.553E-04 0.193E-04
CGA:   8    -0.369743230633E+03   -0.20335E-04   -0.21408E-04  6048   0.425E-04-0.152E-04
CGA:   9    -0.369743236747E+03   -0.61141E-05   -0.62845E-05  6048   0.187E-04 0.238E-05
  82 F= -.36974324E+03 E0= -.36974324E+03  d E =-.104985E-02  mag=    20.0000
       N       E                     dE             d eps       ncg     rms          ort
SDA:   1    -0.369736309071E+03    0.69216E-02    0.00000E+00  6048   0.262E-01 0.000E+00
CGA:   2    -0.369740821068E+03   -0.45120E-02   -0.45126E-02  6048   0.113E-01-0.181E-04
CGA:   3    -0.369743037306E+03   -0.22162E-02   -0.22196E-02  6048   0.424E-02 0.464E-04
CGA:   4    -0.369743778738E+03   -0.74143E-03   -0.74300E-03  6048   0.101E-02 0.169E-04
CGA:   5    -0.369743957571E+03   -0.17883E-03   -0.17648E-03  6048   0.277E-03-0.300E-04
CGA:   6    -0.369744014849E+03   -0.57278E-04   -0.56335E-04  6048   0.103E-03-0.240E-04
CGA:   7    -0.369744035897E+03   -0.21047E-04   -0.20964E-04  6048   0.373E-04-0.358E-05
CGA:   8    -0.369744042827E+03   -0.69307E-05   -0.72654E-05  6048   0.124E-04 0.761E-05
  83 F= -.36974404E+03 E0= -.36974404E+03  d E =-.806080E-03  mag=    20.0000
       N       E                     dE             d eps       ncg     rms          ort
SDA:   1    -0.369730079763E+03    0.13956E-01    0.00000E+00  6048   0.476E-01 0.000E+00
CGA:   2    -0.369737928783E+03   -0.78490E-02   -0.78526E-02  6048   0.212E-01 0.397E-05
CGA:   3    -0.369742313490E+03   -0.43847E-02   -0.43900E-02  6048   0.806E-02 0.153E-03
CGA:   4    -0.369743665634E+03   -0.13521E-02   -0.13546E-02  6048   0.181E-02 0.291E-04
CGA:   5    -0.369743984972E+03   -0.31934E-03   -0.31617E-03  6048   0.490E-03-0.536E-04
CGA:   6    -0.369744082273E+03   -0.97301E-04   -0.96405E-04  6048   0.164E-03-0.316E-04
CGA:   7    -0.369744114848E+03   -0.32575E-04   -0.32528E-04  6048   0.509E-04-0.279E-05
CGA:   8    -0.369744123262E+03   -0.84142E-05   -0.90346E-05  6048   0.148E-04 0.128E-04
  84 F= -.36974412E+03 E0= -.36974412E+03  d E =-.804347E-04  mag=    20.0000
