 vasp.6.3.0 20Jan22 (build Apr 15 2022 04:40:24) complex                         
 executed on              LinuxNV date 2022.06.09  12:00:29
 running    1 mpi-ranks, with    4 threads/rank
 distrk:  each k-point on    1 cores,    1 groups
 distr:  one band on NCORE=   1 cores,    1 groups


--------------------------------------------------------------------------------------------------------


 INCAR:
   ALGO = ALL
   EDIFF = 1E-5
   EDIFFG = -0.03
   ENCUT = 520
   IBRION = 2
   ICHARG = 2
   ISIF = 3
   ISYM = 0
   ISPIN = 2
   LREAL = Auto
   NELMIN = 6
   NELM = 150
   NSW = 199
   PREC = Accurate
   ISMEAR = 0
   SIGMA = 0.05
   MAGMOM = 4*0.6 4*2.0 6*0.6 24*0.6
   LWAVE = False
   LORBIT = 11
   LPLANE = True
   NCORE = 24
   NSIM = 4

 POTCAR:    PAW_PBE Ca_sv 06Sep2000               
 POTCAR:    PAW_PBE V_pv 07Sep2000                
 POTCAR:    PAW_PBE P 06Sep2000                   
 POTCAR:    PAW_PBE O 08Apr2002                   
 POTCAR:    PAW_PBE Ca_sv 06Sep2000               
   SHA256 =  a47365830e737f14e0e6c5cf1ed81b94e081eecf0a33df105380881bc9da05d5 Ca_sv/POTCAR          
   COPYR  = (c) Copyright 06Sep2000 Georg Kresse                                                    
   COPYR  = This file is part of the software VASP. Any use, copying, and all other rights are regul
   COPYR  = If you do not have a valid VASP license, you may not use, copy or distribute this file. 
   VRHFIN =Ca: 3s3p4s                                                                               
   LEXCH  = PE                                                                                      
   EATOM  =  1006.0909 eV,   73.9456 Ry                                                             
                                                                                                    
   TITEL  = PAW_PBE Ca_sv 06Sep2000                                                                 
   LULTRA =        F    use ultrasoft PP ?                                                          
   IUNSCR =        1    unscreen: 0-lin 1-nonlin 2-no                                               
   RPACOR =    2.000    partial core radius                                                         
   POMASS =   40.078; ZVAL   =   10.000    mass and valenz                                          
   RCORE  =    2.300    outmost cutoff radius                                                       
   RWIGS  =    2.500; RWIGS  =    1.323    wigner-seitz radius (au A)                               
   ENMAX  =  266.622; ENMIN  =  199.967 eV                                                          
   RCLOC  =    1.808    cutoff for local pot                                                        
   LCOR   =        T    correct aug charges                                                         
   LPAW   =        T    paw PP                                                                      
   EAUG   =  420.852                                                                                
   RMAX   =    2.359    core radius for proj-oper                                                   
   RAUG   =    1.300    factor for augmentation sphere                                              
   RDEP   =    2.392    radius for radial grids                                                     
   RDEPT  =    1.987    core radius for aug-charge                                                  
                                                                                                    
   Atomic configuration                                                                             
    7 entries                                                                                       
     n  l   j            E        occ.                                                              
     1  0  0.50     -3949.1705   2.0000                                                             
     2  0  0.50      -414.3434   2.0000                                                             
     2  1  1.50      -334.7047   6.0000                                                             
     3  0  0.50       -47.0896   2.0000                                                             
     4  0  0.50        -3.7663   2.0000                                                             
     3  1  1.50       -28.0061   6.0000                                                             
     3  2  1.50        -4.0817   0.0000                                                             
   Description                                                                                      
     l       E           TYP  RCUT    TYP  RCUT                                                     
     0    -47.0896403     23  2.300                                                                 
     0     -3.7663320     23  2.300                                                                 
     1    -28.0060855     23  2.300                                                                 
     1      6.8029130     23  2.300                                                                 
     2     -4.0817478     23  2.300                                                                 
     2      0.4464412     23  2.300                                                                 
  local pseudopotential read in
  partial core-charges read in
  partial kinetic energy density read in
  atomic valenz-charges read in
  non local Contribution for L=            0  read in
    real space projection operators read in
  non local Contribution for L=            0  read in
    real space projection operators read in
  non local Contribution for L=            1  read in
    real space projection operators read in
  non local Contribution for L=            1  read in
    real space projection operators read in
  non local Contribution for L=            2  read in
    real space projection operators read in
  non local Contribution for L=            2  read in
    real space projection operators read in
    PAW grid and wavefunctions read in
 
   number of l-projection  operators is LMAX  =            6
   number of lm-projection operators is LMMAX =           18
 
 POTCAR:    PAW_PBE V_pv 07Sep2000                
   SHA256 =  1175d3c8cb4ffd1d150a520fa74fae5c3ec72c0849b5615a94a5372dd2cf07f7 V_pv/POTCAR           
   COPYR  = (c) Copyright 07Sep2000 Georg Kresse                                                    
   COPYR  = This file is part of the software VASP. Any use, copying, and all other rights are regul
   COPYR  = If you do not have a valid VASP license, you may not use, copy or distribute this file. 
   VRHFIN =V: p6 d4 s1                                                                              
   LEXCH  = PE                                                                                      
   EATOM  =  1321.6206 eV,   97.1364 Ry                                                             
                                                                                                    
   TITEL  = PAW_PBE V_pv 07Sep2000                                                                  
   LULTRA =        F    use ultrasoft PP ?                                                          
   IUNSCR =        1    unscreen: 0-lin 1-nonlin 2-no                                               
   RPACOR =    1.700    partial core radius                                                         
   POMASS =   50.941; ZVAL   =   11.000    mass and valenz                                          
   RCORE  =    2.300    outmost cutoff radius                                                       
   RWIGS  =    2.300; RWIGS  =    1.217    wigner-seitz radius (au A)                               
   ENMAX  =  263.673; ENMIN  =  197.755 eV                                                          
   RCLOC  =    1.779    cutoff for local pot                                                        
   LCOR   =        T    correct aug charges                                                         
   LPAW   =        T    paw PP                                                                      
   EAUG   =  598.473                                                                                
   DEXC   =    0.000                                                                                
   RMAX   =    2.359    core radius for proj-oper                                                   
   RAUG   =    1.300    factor for augmentation sphere                                              
   RDEP   =    2.430    radius for radial grids                                                     
   RDEPT  =    1.700    core radius for aug-charge                                                  
                                                                                                    
   Atomic configuration                                                                             
    8 entries                                                                                       
     n  l   j            E        occ.                                                              
     1  0  0.50     -5360.7193   2.0000                                                             
     2  0  0.50      -598.4546   2.0000                                                             
     2  1  1.50      -499.0155   6.0000                                                             
     3  0  0.50       -66.5711   2.0000                                                             
     3  1  1.50       -40.5282   6.0000                                                             
     3  2  2.50        -2.4291   4.0000                                                             
     4  0  0.50        -3.8743   1.0000                                                             
     4  3  2.50        -1.3606   0.0000                                                             
   Description                                                                                      
     l       E           TYP  RCUT    TYP  RCUT                                                     
     1    -40.5282431     23  2.000                                                                 
     1      5.4423304     23  2.000                                                                 
     2     -2.4290905     23  2.300                                                                 
     2     -1.0472488     23  2.300                                                                 
     0     -3.8742754     23  2.300                                                                 
     0     27.2116520     23  2.300                                                                 
  local pseudopotential read in
  partial core-charges read in
  partial kinetic energy density read in
  atomic valenz-charges read in
  non local Contribution for L=            1  read in
    real space projection operators read in
  non local Contribution for L=            1  read in
    real space projection operators read in
  non local Contribution for L=            2  read in
    real space projection operators read in
  non local Contribution for L=            2  read in
    real space projection operators read in
  non local Contribution for L=            0  read in
    real space projection operators read in
  non local Contribution for L=            0  read in
    real space projection operators read in
    PAW grid and wavefunctions read in
 
   number of l-projection  operators is LMAX  =            6
   number of lm-projection operators is LMMAX =           18
 
 POTCAR:    PAW_PBE P 06Sep2000                   
   SHA256 =  df60c54a93efe35c9e85ae94c010c75e9f6960a95d5595d7cdba4096d109af88 P/POTCAR              
   COPYR  = (c) Copyright 06Sep2000 Georg Kresse                                                    
   COPYR  = This file is part of the software VASP. Any use, copying, and all other rights are regul
   COPYR  = If you do not have a valid VASP license, you may not use, copy or distribute this file. 
   VRHFIN =P : s2p3                                                                                 
   LEXCH  = PE                                                                                      
   EATOM  =   176.0430 eV,   12.9388 Ry                                                             
                                                                                                    
   TITEL  = PAW_PBE P 06Sep2000                                                                     
   LULTRA =        F    use ultrasoft PP ?                                                          
   IUNSCR =        1    unscreen: 0-lin 1-nonlin 2-no                                               
   RPACOR =    1.500    partial core radius                                                         
   POMASS =   30.974; ZVAL   =    5.000    mass and valenz                                          
   RCORE  =    1.900    outmost cutoff radius                                                       
   RWIGS  =    2.330; RWIGS  =    1.233    wigner-seitz radius (au A)                               
   ENMAX  =  255.040; ENMIN  =  191.280 eV                                                          
   ICORE  =        2    local potential                                                             
   LCOR   =        T    correct aug charges                                                         
   LPAW   =        T    paw PP                                                                      
   EAUG   =  342.924                                                                                
   DEXC   =    0.000                                                                                
   RMAX   =    1.935    core radius for proj-oper                                                   
   RAUG   =    1.300    factor for augmentation sphere                                              
   RDEP   =    1.931    radius for radial grids                                                     
   RDEPT  =    1.794    core radius for aug-charge                                                  
                                                                                                    
   Atomic configuration                                                                             
    6 entries                                                                                       
     n  l   j            E        occ.                                                              
     1  0  0.50     -2084.0982   2.0000                                                             
     2  0  0.50      -173.9859   2.0000                                                             
     2  1  1.50      -124.4865   6.0000                                                             
     3  0  0.50       -13.9692   2.0000                                                             
     3  1  0.50        -5.5067   3.0000                                                             
     3  2  1.50        -5.4423   0.0000                                                             
   Description                                                                                      
     l       E           TYP  RCUT    TYP  RCUT                                                     
     0    -13.9691527     23  1.900                                                                 
     0    -11.7794650     23  1.900                                                                 
     1     -5.5066937     23  1.900                                                                 
     1     -0.2556953     23  1.900                                                                 
     2     -5.4423304     23  1.900                                                                 
  local pseudopotential read in
  partial core-charges read in
  partial kinetic energy density read in
  atomic valenz-charges read in
  non local Contribution for L=            0  read in
    real space projection operators read in
  non local Contribution for L=            0  read in
    real space projection operators read in
  non local Contribution for L=            1  read in
    real space projection operators read in
  non local Contribution for L=            1  read in
    real space projection operators read in
    PAW grid and wavefunctions read in
 
   number of l-projection  operators is LMAX  =            4
   number of lm-projection operators is LMMAX =            8
 
 POTCAR:    PAW_PBE O 08Apr2002                   
   SHA256 =  818f92134a0a090dccd8ba1447fa70422a3b330e708bb4f08108d8ae51209ddf O/POTCAR              
   COPYR  = (c) Copyright 08Apr2002 Georg Kresse                                                    
   COPYR  = This file is part of the software VASP. Any use, copying, and all other rights are regul
   COPYR  = If you do not have a valid VASP license, you may not use, copy or distribute this file. 
   VRHFIN =O: s2p4                                                                                  
   LEXCH  = PE                                                                                      
   EATOM  =   432.3788 eV,   31.7789 Ry                                                             
                                                                                                    
   TITEL  = PAW_PBE O 08Apr2002                                                                     
   LULTRA =        F    use ultrasoft PP ?                                                          
   IUNSCR =        1    unscreen: 0-lin 1-nonlin 2-no                                               
   RPACOR =    1.200    partial core radius                                                         
   POMASS =   16.000; ZVAL   =    6.000    mass and valenz                                          
   RCORE  =    1.520    outmost cutoff radius                                                       
   RWIGS  =    1.550; RWIGS  =    0.820    wigner-seitz radius (au A)                               
   ENMAX  =  400.000; ENMIN  =  300.000 eV                                                          
   ICORE  =        2    local potential                                                             
   LCOR   =        T    correct aug charges                                                         
   LPAW   =        T    paw PP                                                                      
   EAUG   =  605.392                                                                                
   DEXC   =    0.000                                                                                
   RMAX   =    1.553    core radius for proj-oper                                                   
   RAUG   =    1.300    factor for augmentation sphere                                              
   RDEP   =    1.550    radius for radial grids                                                     
   RDEPT  =    1.329    core radius for aug-charge                                                  
                                                                                                    
   Atomic configuration                                                                             
    4 entries                                                                                       
     n  l   j            E        occ.                                                              
     1  0  0.50      -514.6923   2.0000                                                             
     2  0  0.50       -23.9615   2.0000                                                             
     2  1  0.50        -9.0305   4.0000                                                             
     3  2  1.50        -9.5241   0.0000                                                             
   Description                                                                                      
     l       E           TYP  RCUT    TYP  RCUT                                                     
     0    -23.9615318     23  1.200                                                                 
     0     -9.5240782     23  1.200                                                                 
     1     -9.0304911     23  1.520                                                                 
     1      8.1634956     23  1.520                                                                 
     2     -9.5240782      7  1.500                                                                 
  local pseudopotential read in
  partial core-charges read in
  partial kinetic energy density read in
  kinetic energy density of atom read in
  atomic valenz-charges read in
  non local Contribution for L=            0  read in
    real space projection operators read in
  non local Contribution for L=            0  read in
    real space projection operators read in
  non local Contribution for L=            1  read in
    real space projection operators read in
  non local Contribution for L=            1  read in
    real space projection operators read in
    PAW grid and wavefunctions read in
 
   number of l-projection  operators is LMAX  =            4
   number of lm-projection operators is LMMAX =            8
 
 Optimization of the real space projectors (new method)

 maximal supplied QI-value         = 16.25
 optimisation between [QCUT,QGAM] = [ 11.54, 23.24] = [ 37.28,151.24] Ry 
 Optimized for a Real-space Cutoff    1.58 Angstroem

   l    n(q)    QCUT    max X(q) W(low)/X(q) W(high)/X(q)  e(spline) 
   0     11    11.539    11.817    0.25E-04    0.22E-05    0.26E-07
   0     11    11.539     8.461    0.39E-04    0.49E-05    0.55E-07
   1     11    11.539     3.957    0.21E-05    0.44E-05    0.32E-07
   1     11    11.539     4.314    0.56E-04    0.44E-04    0.19E-06
   2     10    11.539    14.565    0.25E-03    0.21E-04    0.75E-06
   2     10    11.539    14.552    0.23E-03    0.22E-04    0.72E-06
 Optimization of the real space projectors (new method)

 maximal supplied QI-value         = 16.25
 optimisation between [QCUT,QGAM] = [ 11.54, 23.24] = [ 37.28,151.24] Ry 
 Optimized for a Real-space Cutoff    1.53 Angstroem

   l    n(q)    QCUT    max X(q) W(low)/X(q) W(high)/X(q)  e(spline) 
   1     10    11.539     3.206    0.43E-05    0.46E-05    0.52E-07
   1     10    11.539     4.597    0.39E-04    0.25E-04    0.17E-06
   2     10    11.539    89.000    0.10E-03    0.13E-03    0.24E-06
   2     10    11.539    82.410    0.10E-03    0.13E-03    0.23E-06
   0     11    11.539    36.565    0.42E-04    0.19E-04    0.30E-06
   0     11    11.539    13.729    0.20E-04    0.13E-04    0.22E-06
 Optimization of the real space projectors (new method)

 maximal supplied QI-value         = 19.84
 optimisation between [QCUT,QGAM] = [ 11.51, 23.22] = [ 37.09,150.92] Ry 
 Optimized for a Real-space Cutoff    1.21 Angstroem

   l    n(q)    QCUT    max X(q) W(low)/X(q) W(high)/X(q)  e(spline) 
   0      8    11.508   160.924    0.96E-04    0.17E-03    0.52E-07
   0      8    11.508   130.086    0.95E-04    0.17E-03    0.51E-07
   1      8    11.508    74.434    0.16E-03    0.74E-04    0.91E-07
   1      8    11.508    49.120    0.16E-03    0.71E-04    0.89E-07
 Optimization of the real space projectors (new method)

 maximal supplied QI-value         = 24.76
 optimisation between [QCUT,QGAM] = [ 11.64, 23.27] = [ 37.91,151.63] Ry 
 Optimized for a Real-space Cutoff    1.14 Angstroem

   l    n(q)    QCUT    max X(q) W(low)/X(q) W(high)/X(q)  e(spline) 
   0      8    11.635    20.381    0.10E-03    0.33E-03    0.24E-06
   0      8    11.635    15.268    0.11E-03    0.35E-03    0.26E-06
   1      7    11.635     5.964    0.24E-03    0.31E-03    0.30E-06
   1      7    11.635     5.382    0.22E-03    0.25E-03    0.26E-06
  PAW_PBE Ca_sv 06Sep2000               :
 energy of atom  1       EATOM=-1006.0909
 kinetic energy error for atom=    0.0022 (will be added to EATOM!!)
  PAW_PBE V_pv 07Sep2000                :
 energy of atom  2       EATOM=-1321.6206
 kinetic energy error for atom=    0.0054 (will be added to EATOM!!)
  PAW_PBE P 06Sep2000                   :
 energy of atom  3       EATOM= -176.0430
 kinetic energy error for atom=    0.0011 (will be added to EATOM!!)
  PAW_PBE O 08Apr2002                   :
 energy of atom  4       EATOM= -432.3788
 kinetic energy error for atom=    0.0208 (will be added to EATOM!!)
 
 
 POSCAR: Ca5 V4 P6 O24
  positions in direct lattice
  velocities in cartesian coordinates
 exchange correlation table for  LEXCH =        8
   RHO(1)=    0.500       N(1)  =     2000
   RHO(2)=  100.500       N(2)  =     4000
 


--------------------------------------------------------------------------------------------------------


 ion  position               nearest neighbor table
   1  0.539  0.470  0.497-  19 2.24  15 2.34  17 2.38  26 2.42  22 2.47   5 3.03
   2  0.956  0.999  0.026-  23 2.24  21 2.34  25 2.38  20 2.42  18 2.47   7 3.03
   3  0.388  0.747  0.094-  31 2.38  22 2.43  33 2.45  20 2.46  16 2.48  24 2.54  14 2.93  12 2.96

   4  0.108  0.402  0.749-  35 2.38  18 2.43  27 2.45  26 2.46  24 2.48  16 2.53  14 2.93  10 2.96

   5  0.648  0.642  0.634-  30 2.04  19 2.04  28 2.06  15 2.07  32 2.09  17 2.12   1 3.03
   6  0.150  0.145  0.152-  29 1.96  31 2.05  27 2.09  16 2.13  20 2.14  18 2.16
   7  0.848  0.862  0.854-  34 2.04  23 2.04  36 2.06  21 2.07  38 2.09  25 2.12   2 3.03
   8  0.346  0.345  0.350-  37 1.96  35 2.05  33 2.09  24 2.13  26 2.14  22 2.16
   9  0.248  0.552  0.944-  27 1.56  33 1.56  25 1.56  17 1.56
  10  0.034  0.752  0.450-  28 1.52  34 1.53  20 1.57  24 1.61   4 2.96
  11  0.963  0.243  0.556-  29 1.52  21 1.55  19 1.56  35 1.56
  12  0.462  0.046  0.744-  36 1.52  30 1.53  26 1.57  16 1.61   3 2.96
  13  0.533  0.940  0.253-  37 1.52  15 1.55  23 1.56  31 1.56
  14  0.748  0.457  0.039-  38 1.54  32 1.54  18 1.57  22 1.57   4 2.93   3 2.93
  15  0.564  0.754  0.411-  13 1.55   5 2.07   1 2.34
  16  0.268  0.070  0.909-  12 1.61   6 2.13   3 2.48   4 2.53
  17  0.414  0.565  0.761-   9 1.56   5 2.12   1 2.38
  18  0.918  0.278  0.061-  14 1.57   6 2.16   4 2.43   2 2.47
  19  0.779  0.408  0.560-  11 1.56   5 2.04   1 2.24
  20  0.073  0.909  0.262-  10 1.57   6 2.14   2 2.42   3 2.46
  21  0.932  0.086  0.742-  11 1.55   7 2.07   2 2.34
  22  0.577  0.435  0.218-  14 1.57   8 2.16   3 2.43   1 2.47
  23  0.717  0.935  0.088-  13 1.56   7 2.04   2 2.24
  24  0.228  0.587  0.426-  10 1.61   8 2.13   4 2.48   3 2.54
  25  0.082  0.736  0.931-   9 1.56   7 2.12   2 2.38
  26  0.423  0.234  0.587-  12 1.57   8 2.14   1 2.42   4 2.46
  27  0.198  0.393  0.973-   9 1.56   6 2.09   4 2.45
  28  0.883  0.707  0.468-  10 1.52   5 2.06
  29  0.022  0.185  0.392-  11 1.52   6 1.96
  30  0.496  0.869  0.721-  12 1.53   5 2.04
  31  0.389  0.951  0.195-  13 1.56   6 2.05   3 2.38
  32  0.729  0.480  0.865-  14 1.54   5 2.09
  33  0.298  0.522  0.103-   9 1.56   8 2.09   3 2.45
  34  1.000  0.775  0.627-  10 1.53   7 2.04
  35  0.106  0.301  0.545-  11 1.56   8 2.05   4 2.38
  36  0.614  0.028  0.788-  12 1.52   7 2.06
  37  0.474  0.104  0.310-  13 1.52   8 1.96
  38  0.767  0.631  0.016-  14 1.54   7 2.09
 

IMPORTANT INFORMATION: All symmetrisations will be switched off!
NOSYMM: (Re-)initialisation of all symmetry stuff for point group C_1.


----------------------------------------------------------------------------------------

                                     Primitive cell                                     

  volume of cell :     499.0888

  direct lattice vectors                    reciprocal lattice vectors
     2.590502570  7.398964305  4.440063421    -0.001110660  0.136651605 -0.001847536
    -0.023772331  0.119270843  8.836067753    -0.063005150 -0.046126728  0.113625633
     7.706881005  0.121080829  4.322600825     0.129933158 -0.046074783  0.000971495

  length of vectors
     9.009413939  8.836904661  8.837168850     0.136668607  0.137869897  0.137863901

  position of ions in fractional coordinates (direct lattice)
     0.539142568  0.469991737  0.497490966
     0.956482802  0.998566191  0.026075020
     0.388183336  0.746917241  0.094029142
     0.107647603  0.401723115  0.749218748
     0.648179825  0.641864718  0.633697445
     0.149971380  0.145456184  0.151508952
     0.847796768  0.862397340  0.853916205
     0.345928565  0.344522103  0.350488097
     0.247996798  0.552192507  0.943796715
     0.034412486  0.752075743  0.450097053
     0.962936131  0.242707535  0.556250198
     0.461677459  0.046004414  0.743694690
     0.532921998  0.939640596  0.253286202
     0.748013187  0.456746005  0.039129414
     0.563705048  0.754415410  0.410562544
     0.268317063  0.070328973  0.908656643
     0.413905629  0.564668026  0.760674750
     0.918466085  0.278118573  0.061362009
     0.779428656  0.407764275  0.560383351
     0.072963245  0.908988159  0.262287249
     0.931718861  0.085800316  0.741719774
     0.577287160  0.435147641  0.217610571
     0.716540909  0.935026211  0.088402995
     0.227840319  0.587173948  0.425914422
     0.082349151  0.735525679  0.931002126
     0.422980237  0.233689614  0.586738617
     0.197766074  0.392711497  0.973478695
     0.882683717  0.706964085  0.468147118
     0.021713362  0.185115925  0.392247819
     0.496234076  0.868792327  0.720663738
     0.389413399  0.951162830  0.195238000
     0.729305356  0.479529229  0.865070392
     0.298113258  0.522471494  0.103384618
     0.999828832  0.775451054  0.627109518
     0.106464673  0.300701857  0.544729374
     0.613515226  0.028185201  0.788441951
     0.474340206  0.103906853  0.310427430
     0.767110511  0.630875709  0.015603342

  ion indices of the primitive-cell ions
   primitive index   ion index
                 1           1
                 2           2
                 3           3
                 4           4
                 5           5
                 6           6
                 7           7
                 8           8
                 9           9
                10          10
                11          11
                12          12
                13          13
                14          14
                15          15
                16          16
                17          17
                18          18
                19          19
                20          20
                21          21
                22          22
                23          23
                24          24
                25          25
                26          26
                27          27
                28          28
                29          29
                30          30
                31          31
                32          32
                33          33
                34          34
                35          35
                36          36
                37          37
                38          38

----------------------------------------------------------------------------------------

 
 
 KPOINTS: Fully automatic kpoint scheme           

Automatic generation of k-mesh.
 Grid dimensions derived from RKLEN:
 generate k-points for:    4    4    4

 Generating k-lattice:

  Cartesian coordinates                     Fractional coordinates (reciprocal lattice)
    -0.000277665  0.034162901 -0.000461884     0.250000000  0.000000000 -0.000000000
    -0.015751288 -0.011531682  0.028406408     0.000000000  0.250000000 -0.000000000
     0.032483290 -0.011518696  0.000242874    -0.000000000 -0.000000000  0.250000000

  Length of vectors
     0.034167152  0.034467474  0.034465975

  Shift w.r.t. Gamma in fractional coordinates (k-lattice)
     0.000000000  0.000000000  0.000000000

 
 Subroutine IBZKPT returns following result:
 ===========================================
 
 Found     36 irreducible k-points:
 
 Following reciprocal coordinates:
            Coordinates               Weight
  0.000000  0.000000  0.000000      1.000000
  0.250000  0.000000  0.000000      2.000000
  0.500000  0.000000  0.000000      1.000000
  0.000000  0.250000  0.000000      2.000000
  0.250000  0.250000  0.000000      2.000000
  0.500000  0.250000  0.000000      2.000000
 -0.250000  0.250000  0.000000      2.000000
  0.000000  0.500000  0.000000      1.000000
  0.250000  0.500000  0.000000      2.000000
  0.500000  0.500000  0.000000      1.000000
  0.000000  0.000000  0.250000      2.000000
  0.250000  0.000000  0.250000      2.000000
  0.500000  0.000000  0.250000      2.000000
 -0.250000  0.000000  0.250000      2.000000
  0.000000  0.250000  0.250000      2.000000
  0.250000  0.250000  0.250000      2.000000
  0.500000  0.250000  0.250000      2.000000
 -0.250000  0.250000  0.250000      2.000000
  0.000000  0.500000  0.250000      2.000000
  0.250000  0.500000  0.250000      2.000000
  0.500000  0.500000  0.250000      2.000000
 -0.250000  0.500000  0.250000      2.000000
  0.000000 -0.250000  0.250000      2.000000
  0.250000 -0.250000  0.250000      2.000000
  0.500000 -0.250000  0.250000      2.000000
 -0.250000 -0.250000  0.250000      2.000000
  0.000000  0.000000  0.500000      1.000000
  0.250000  0.000000  0.500000      2.000000
  0.500000  0.000000  0.500000      1.000000
  0.000000  0.250000  0.500000      2.000000
  0.250000  0.250000  0.500000      2.000000
  0.500000  0.250000  0.500000      2.000000
 -0.250000  0.250000  0.500000      2.000000
  0.000000  0.500000  0.500000      1.000000
  0.250000  0.500000  0.500000      2.000000
  0.500000  0.500000  0.500000      1.000000
 
 Following cartesian coordinates:
            Coordinates               Weight
  0.000000  0.000000  0.000000      1.000000
 -0.000278  0.034163 -0.000462      2.000000
 -0.000555  0.068326 -0.000924      1.000000
 -0.015751 -0.011532  0.028406      2.000000
 -0.016029  0.022631  0.027945      2.000000
 -0.016307  0.056794  0.027483      2.000000
 -0.015474 -0.045695  0.028868      2.000000
 -0.031503 -0.023063  0.056813      1.000000
 -0.031780  0.011100  0.056351      2.000000
 -0.032058  0.045262  0.055889      1.000000
  0.032483 -0.011519  0.000243      2.000000
  0.032206  0.022644 -0.000219      2.000000
  0.031928  0.056807 -0.000681      2.000000
  0.032761 -0.045682  0.000705      2.000000
  0.016732 -0.023050  0.028649      2.000000
  0.016454  0.011113  0.028187      2.000000
  0.016177  0.045275  0.027726      2.000000
  0.017010 -0.057213  0.029111      2.000000
  0.000981 -0.034582  0.057056      2.000000
  0.000703 -0.000419  0.056594      2.000000
  0.000425  0.033744  0.056132      2.000000
  0.001258 -0.068745  0.057518      2.000000
  0.048235  0.000013 -0.028164      2.000000
  0.047957  0.034176 -0.028625      2.000000
  0.047679  0.068339 -0.029087      2.000000
  0.048512 -0.034150 -0.027702      2.000000
  0.064967 -0.023037  0.000486      1.000000
  0.064689  0.011126  0.000024      2.000000
  0.064411  0.045288 -0.000438      1.000000
  0.049215 -0.034569  0.028892      2.000000
  0.048938 -0.000406  0.028430      2.000000
  0.048660  0.033757  0.027968      2.000000
  0.049493 -0.068732  0.029354      2.000000
  0.033464 -0.046101  0.057299      1.000000
  0.033186 -0.011938  0.056837      2.000000
  0.032909  0.022225  0.056375      1.000000
 


--------------------------------------------------------------------------------------------------------




 Dimension of arrays:
   k-points           NKPTS =     36   k-points in BZ     NKDIM =     36   number of bands    NBANDS=    168
   number of dos      NEDOS =    301   number of ions     NIONS =     38
   non local maximal  LDIM  =      6   non local SUM 2l+1 LMDIM =     18
   total plane-waves  NPLWV = 343000
   max r-space proj   IRMAX =  11401   max aug-charges    IRDMAX=  32986
   dimension x,y,z NGX =    70 NGY =   70 NGZ =   70
   dimension x,y,z NGXF=   140 NGYF=  140 NGZF=  140
   support grid    NGXF=   140 NGYF=  140 NGZF=  140
   ions per type =               4   4   6  24
   NGX,Y,Z   is equivalent  to a cutoff of  12.92, 13.17, 13.17 a.u.
   NGXF,Y,Z  is equivalent  to a cutoff of  25.83, 26.34, 26.34 a.u.

 SYSTEM =  unknown system                          
 POSCAR =  Ca5 V4 P6 O24                           

 Startparameter for this run:
   NWRITE =      2    write-flag & timer
   PREC   = accura    normal or accurate (medium, high low for compatibility)
   ISTART =      0    job   : 0-new  1-cont  2-samecut
   ICHARG =      2    charge: 1-file 2-atom 10-const
   ISPIN  =      2    spin polarized calculation?
   LNONCOLLINEAR =      F non collinear calculations
   LSORBIT =      F    spin-orbit coupling
   INIWAV =      1    electr: 0-lowe 1-rand  2-diag
   LASPH  =      F    aspherical Exc in radial PAW
 Electronic Relaxation 1
   ENCUT  =  520.0 eV  38.22 Ry    6.18 a.u.  16.75 16.43 16.43*2*pi/ulx,y,z
   ENINI  =  520.0     initial cutoff
   ENAUG  =  605.4 eV  augmentation charge cutoff
   NELM   =    150;   NELMIN=  6; NELMDL= -5     # of ELM steps 
   EDIFF  = 0.1E-04   stopping-criterion for ELM
   LREAL  =      T    real-space projection
   NLSPLINE    = F    spline interpolate recip. space projectors
   LCOMPAT=      F    compatible to vasp.4.4
   GGA_COMPAT  = T    GGA compatible to vasp.4.4-vasp.4.6
   LMAXPAW     = -100 max onsite density
   LMAXMIX     =    2 max onsite mixed and CHGCAR
   VOSKOWN=      0    Vosko Wilk Nusair interpolation
   ROPT   =   -0.00025  -0.00025  -0.00025  -0.00025
 Ionic relaxation
   EDIFFG = -.3E-01   stopping-criterion for IOM
   NSW    =    199    number of steps for IOM
   NBLOCK =      1;   KBLOCK =    199    inner block; outer block 
   IBRION =      2    ionic relax: 0-MD 1-quasi-New 2-CG
   NFREE  =      1    steps in history (QN), initial steepest desc. (CG)
   ISIF   =      3    stress and relaxation
   IWAVPR =     11    prediction:  0-non 1-charg 2-wave 3-comb
   ISYM   =      0    0-nonsym 1-usesym 2-fastsym
   LCORR  =      T    Harris-Foulkes like correction to forces

   POTIM  = 0.5000    time-step for ionic-motion
   TEIN   =    0.0    initial temperature
   TEBEG  =    0.0;   TEEND  =   0.0 temperature during run
   SMASS  =  -3.00    Nose mass-parameter (am)
   estimated Nose-frequenzy (Omega)   =  0.10E-29 period in steps = 0.13E+47 mass=  -0.185E-26a.u.
   SCALEE = 1.0000    scale energy and forces
   NPACO  =    256;   APACO  = 10.0  distance and # of slots for P.C.
   PSTRESS=    0.0 pullay stress

  Mass of Ions in am
   POMASS =  40.08 50.94 30.97 16.00
  Ionic Valenz
   ZVAL   =  10.00 11.00  5.00  6.00
  Atomic Wigner-Seitz radii
   RWIGS  =  -1.00 -1.00 -1.00 -1.00
  virtual crystal weights 
   VCA    =   1.00  1.00  1.00  1.00
   NELECT =     258.0000    total number of electrons
   NUPDOWN=      -1.0000    fix difference up-down

 DOS related values:
   EMIN   =  10.00;   EMAX   =-10.00  energy-range for DOS
   EFERMI =   0.00
   ISMEAR =     0;   SIGMA  =   0.05  broadening in eV -4-tet -1-fermi 0-gaus

 Electronic relaxation 2 (details)
   IALGO  =     58    algorithm
   LDIAG  =      T    sub-space diagonalisation (order eigenvalues)
   LSUBROT=      F    optimize rotation matrix (better conditioning)
   TURBO    =      0    0=normal 1=particle mesh
   IRESTART =      0    0=no restart 2=restart with 2 vectors
   NREBOOT  =      0    no. of reboots
   NMIN     =      0    reboot dimension
   EREF     =   0.00    reference energy to select bands
   IMIX   =      4    mixing-type and parameters
     AMIX     =   0.40;   BMIX     =  1.00
     AMIX_MAG =   1.60;   BMIX_MAG =  1.00
     AMIN     =   0.10
     WC   =   100.;   INIMIX=   1;  MIXPRE=   1;  MAXMIX= -45

 Intra band minimization:
   WEIMIN = 0.0010     energy-eigenvalue tresh-hold
   EBREAK =  0.15E-07  absolut break condition
   DEPER  =   0.30     relativ break condition  

   TIME   =   0.40     timestep for ELM

  volume/ion in A,a.u.               =      13.13        88.63
  Fermi-wavevector in a.u.,A,eV,Ry     =   1.313879  2.482872 23.487449  1.726279
  Thomas-Fermi vector in A             =   2.444171
 
 Write flags
   LWAVE        =      F    write WAVECAR
   LDOWNSAMPLE  =      F    k-point downsampling of WAVECAR
   LCHARG       =      T    write CHGCAR
   LVTOT        =      F    write LOCPOT, total local potential
   LVHAR        =      F    write LOCPOT, Hartree potential only
   LELF         =      F    write electronic localiz. function (ELF)
   LORBIT       =     11    0 simple, 1 ext, 2 COOP (PROOUT), +10 PAW based schemes


 Dipole corrections
   LMONO  =      F    monopole corrections only (constant potential shift)
   LDIPOL =      F    correct potential (dipole corrections)
   IDIPOL =      0    1-x, 2-y, 3-z, 4-all directions 
   EPSILON=  1.0000000 bulk dielectric constant

 Exchange correlation treatment:
   GGA     =    --    GGA type
   LEXCH   =     8    internal setting for exchange type
   LIBXC   =     F    Libxc                    
   VOSKOWN =     0    Vosko Wilk Nusair interpolation
   LHFCALC =     F    Hartree Fock is set to
   LHFONE  =     F    Hartree Fock one center treatment
   AEXX    =    0.0000 exact exchange contribution

 Linear response parameters
   LEPSILON=     F    determine dielectric tensor
   LRPA    =     F    only Hartree local field effects (RPA)
   LNABLA  =     F    use nabla operator in PAW spheres
   LVEL    =     F    velocity operator in full k-point grid
   CSHIFT  =0.1000    complex shift for real part using Kramers Kronig
   OMEGAMAX=  -1.0    maximum frequency
   DEG_THRESHOLD= 0.2000000E-02 threshold for treating states as degnerate
   RTIME   =   -0.100 relaxation time in fs
  (WPLASMAI=    0.000 imaginary part of plasma frequency in eV, 0.658/RTIME)
   DFIELD  = 0.0000000 0.0000000 0.0000000 field for delta impulse in time
 
  Optional k-point grid parameters
   LKPOINTS_OPT  =     F    use optional k-point grid
   KPOINTS_OPT_MODE=     1    mode for optional k-point grid
 
 Orbital magnetization related:
   ORBITALMAG=     F  switch on orbital magnetization
   LCHIMAG   =     F  perturbation theory with respect to B field
   DQ        =  0.001000  dq finite difference perturbation B field
   LLRAUG    =     F  two centre corrections for induced B field



--------------------------------------------------------------------------------------------------------


 conjugate gradient relaxation of ions
 charge density and potential will be updated during run
 spin polarized calculation
 Conjugate gradient for all bands (Freysoldt, et al. PRB 79, 241103 (2009))
 preconditioned conjugated gradient                                        
 perform sub-space diagonalisation
    before iterative eigenvector-optimisation
 modified Broyden-mixing scheme, WC =      100.0
 initial mixing is a Kerker type mixing with AMIX =  0.4000 and BMIX =      1.0000
 Hartree-type preconditioning will be used
 using additional bands            39
 real space projection scheme for non local part
 use partial core corrections
 no Harris-corrections to forces 
 use gradient corrections 
 use of overlap-Matrix (Vanderbilt PP)
 Gauss-broadening in eV      SIGMA  =   0.05


--------------------------------------------------------------------------------------------------------


  energy-cutoff  :      520.00
  volume of cell :      499.09
      direct lattice vectors                 reciprocal lattice vectors
     2.590502570  7.398964305  4.440063421    -0.001110660  0.136651605 -0.001847536
    -0.023772331  0.119270843  8.836067753    -0.063005150 -0.046126728  0.113625633
     7.706881005  0.121080829  4.322600825     0.129933158 -0.046074783  0.000971495

  length of vectors
     9.009413939  8.836904661  8.837168850     0.136668607  0.137869897  0.137863901


 
 k-points in units of 2pi/SCALE and weight: Fully automatic kpoint scheme           
   0.00000000  0.00000000  0.00000000       0.016
  -0.00027767  0.03416290 -0.00046188       0.031
  -0.00055533  0.06832580 -0.00092377       0.016
  -0.01575129 -0.01153168  0.02840641       0.031
  -0.01602895  0.02263122  0.02794452       0.031
  -0.01630662  0.05679412  0.02748264       0.031
  -0.01547362 -0.04569458  0.02886829       0.031
  -0.03150258 -0.02306336  0.05681282       0.016
  -0.03178024  0.01109954  0.05635093       0.031
  -0.03205791  0.04526244  0.05588905       0.016
   0.03248329 -0.01151870  0.00024287       0.031
   0.03220562  0.02264421 -0.00021901       0.031
   0.03192796  0.05680711 -0.00068089       0.031
   0.03276095 -0.04568160  0.00070476       0.031
   0.01673200 -0.02305038  0.02864928       0.031
   0.01645434  0.01111252  0.02818740       0.031
   0.01617667  0.04527542  0.02772551       0.031
   0.01700967 -0.05721328  0.02911117       0.031
   0.00098071 -0.03458206  0.05705569       0.031
   0.00070305 -0.00041916  0.05659381       0.031
   0.00042538  0.03374374  0.05613192       0.031
   0.00125838 -0.06874496  0.05751757       0.031
   0.04823458  0.00001299 -0.02816353       0.031
   0.04795691  0.03417589 -0.02862542       0.031
   0.04767925  0.06833879 -0.02908730       0.031
   0.04851224 -0.03414992 -0.02770165       0.031
   0.06496658 -0.02303739  0.00048575       0.016
   0.06468891  0.01112551  0.00002386       0.031
   0.06441125  0.04528841 -0.00043802       0.016
   0.04921529 -0.03456907  0.02889216       0.031
   0.04893763 -0.00040617  0.02843027       0.031
   0.04865996  0.03375673  0.02796839       0.031
   0.04949296 -0.06873197  0.02935404       0.031
   0.03346400 -0.04610076  0.05729856       0.016
   0.03318634 -0.01193785  0.05683668       0.031
   0.03290867  0.02222505  0.05637480       0.016
 
 k-points in reciprocal lattice and weights: Fully automatic kpoint scheme           
   0.00000000  0.00000000  0.00000000       0.016
   0.25000000  0.00000000  0.00000000       0.031
   0.50000000  0.00000000  0.00000000       0.016
   0.00000000  0.25000000  0.00000000       0.031
   0.25000000  0.25000000  0.00000000       0.031
   0.50000000  0.25000000  0.00000000       0.031
  -0.25000000  0.25000000  0.00000000       0.031
   0.00000000  0.50000000  0.00000000       0.016
   0.25000000  0.50000000  0.00000000       0.031
   0.50000000  0.50000000  0.00000000       0.016
   0.00000000  0.00000000  0.25000000       0.031
   0.25000000  0.00000000  0.25000000       0.031
   0.50000000  0.00000000  0.25000000       0.031
  -0.25000000  0.00000000  0.25000000       0.031
   0.00000000  0.25000000  0.25000000       0.031
   0.25000000  0.25000000  0.25000000       0.031
   0.50000000  0.25000000  0.25000000       0.031
  -0.25000000  0.25000000  0.25000000       0.031
   0.00000000  0.50000000  0.25000000       0.031
   0.25000000  0.50000000  0.25000000       0.031
   0.50000000  0.50000000  0.25000000       0.031
  -0.25000000  0.50000000  0.25000000       0.031
   0.00000000 -0.25000000  0.25000000       0.031
   0.25000000 -0.25000000  0.25000000       0.031
   0.50000000 -0.25000000  0.25000000       0.031
  -0.25000000 -0.25000000  0.25000000       0.031
   0.00000000  0.00000000  0.50000000       0.016
   0.25000000  0.00000000  0.50000000       0.031
   0.50000000  0.00000000  0.50000000       0.016
   0.00000000  0.25000000  0.50000000       0.031
   0.25000000  0.25000000  0.50000000       0.031
   0.50000000  0.25000000  0.50000000       0.031
  -0.25000000  0.25000000  0.50000000       0.031
   0.00000000  0.50000000  0.50000000       0.016
   0.25000000  0.50000000  0.50000000       0.031
   0.50000000  0.50000000  0.50000000       0.016
 
 position of ions in fractional coordinates (direct lattice) 
   0.53914257  0.46999174  0.49749097
   0.95648280  0.99856619  0.02607502
   0.38818334  0.74691724  0.09402914
   0.10764760  0.40172311  0.74921875
   0.64817982  0.64186472  0.63369744
   0.14997138  0.14545618  0.15150895
   0.84779677  0.86239734  0.85391620
   0.34592857  0.34452210  0.35048810
   0.24799680  0.55219251  0.94379672
   0.03441249  0.75207574  0.45009705
   0.96293613  0.24270753  0.55625020
   0.46167746  0.04600441  0.74369469
   0.53292200  0.93964060  0.25328620
   0.74801319  0.45674601  0.03912941
   0.56370505  0.75441541  0.41056254
   0.26831706  0.07032897  0.90865664
   0.41390563  0.56466803  0.76067475
   0.91846608  0.27811857  0.06136201
   0.77942866  0.40776428  0.56038335
   0.07296325  0.90898816  0.26228725
   0.93171886  0.08580032  0.74171977
   0.57728716  0.43514764  0.21761057
   0.71654091  0.93502621  0.08840299
   0.22784032  0.58717395  0.42591442
   0.08234915  0.73552568  0.93100213
   0.42298024  0.23368961  0.58673862
   0.19776607  0.39271150  0.97347870
   0.88268372  0.70696408  0.46814712
   0.02171336  0.18511592  0.39224782
   0.49623408  0.86879233  0.72066374
   0.38941340  0.95116283  0.19523800
   0.72930536  0.47952923  0.86507039
   0.29811326  0.52247149  0.10338462
   0.99982883  0.77545105  0.62710952
   0.10646467  0.30070186  0.54472937
   0.61351523  0.02818520  0.78844195
   0.47434021  0.10390685  0.31042743
   0.76711051  0.63087571  0.01560334
 
 position of ions in cartesian coordinates  (Angst):
   5.21958108  4.10538954  8.69716088
   2.65498999  7.19923913 13.18295473
   1.71250538  2.97262523  8.72982043
   6.04345124  0.93511066  7.26618842
   6.54768368  4.94914375 11.28874077
   1.55270487  1.14532640  2.60605586
   8.75674909  6.47906976 15.07561164
   3.58910880  2.64304194  6.09518555
   7.90303842  2.01505561 10.05998838
   3.54011147  0.39881559  8.74377573
   6.77567288  7.22102923  8.82452528
   6.92644949  3.51146919  5.67107060
   3.31024498  4.08581067 11.76379058
   2.22843790  5.59373718  7.52620548
   4.60650184  4.31052454 10.94364983
   7.69631278  2.10367747  5.74053630
   6.92122990  3.22192453 10.11530547
   2.84558693  6.83629898  6.80076569
   6.32822623  5.88345087  9.48605896
   2.18881932  0.68002619  9.48960548
   8.12792647  6.99379612  8.10118675
   3.16221817  4.34957598  7.34882927
   2.51528468  5.42388588 11.82557289
   3.85873421  1.80738519  8.04099228
   7.37096313  0.80975171 10.88914075
   5.61210074  3.22853083  6.47919317
   8.00546232  1.62797276  8.55607911
   5.87774238  6.67194916 12.18956735
   3.07485515  0.23022901  3.42763631
   6.81891211  3.86249837 12.99516030
   2.49084109  3.01834141 10.97749534
   8.54486244  5.55804159 11.21466878
   1.55661574  2.28056287  6.38712573
   7.40468331  7.56611748 14.00198560
   4.46681309  0.88954957  5.48437952
   7.66507104  4.63820414  6.38121269
   3.61873668  3.55960612  4.36608246
   2.09245747  5.75295763  9.04792685
 


--------------------------------------------------------------------------------------------------------


 k-point   1 :   0.0000 0.0000 0.0000  plane waves:   13467
 k-point   2 :   0.2500 0.0000 0.0000  plane waves:   13452
 k-point   3 :   0.5000 0.0000 0.0000  plane waves:   13430
 k-point   4 :   0.0000 0.2500 0.0000  plane waves:   13462
 k-point   5 :   0.2500 0.2500 0.0000  plane waves:   13437
 k-point   6 :   0.5000 0.2500 0.0000  plane waves:   13443
 k-point   7 :  -0.2500 0.2500 0.0000  plane waves:   13445
 k-point   8 :   0.0000 0.5000 0.0000  plane waves:   13428
 k-point   9 :   0.2500 0.5000 0.0000  plane waves:   13419
 k-point  10 :   0.5000 0.5000 0.0000  plane waves:   13436
 k-point  11 :   0.0000 0.0000 0.2500  plane waves:   13461
 k-point  12 :   0.2500 0.0000 0.2500  plane waves:   13437
 k-point  13 :   0.5000 0.0000 0.2500  plane waves:   13442
 k-point  14 :  -0.2500 0.0000 0.2500  plane waves:   13447
 k-point  15 :   0.0000 0.2500 0.2500  plane waves:   13448
 k-point  16 :   0.2500 0.2500 0.2500  plane waves:   13470
 k-point  17 :   0.5000 0.2500 0.2500  plane waves:   13441
 k-point  18 :  -0.2500 0.2500 0.2500  plane waves:   13438
 k-point  19 :   0.0000 0.5000 0.2500  plane waves:   13430
 k-point  20 :   0.2500 0.5000 0.2500  plane waves:   13437
 k-point  21 :   0.5000 0.5000 0.2500  plane waves:   13443
 k-point  22 :  -0.2500 0.5000 0.2500  plane waves:   13409
 k-point  23 :   0.0000-0.2500 0.2500  plane waves:   13434
 k-point  24 :   0.2500-0.2500 0.2500  plane waves:   13436
 k-point  25 :   0.5000-0.2500 0.2500  plane waves:   13446
 k-point  26 :  -0.2500-0.2500 0.2500  plane waves:   13436
 k-point  27 :   0.0000 0.0000 0.5000  plane waves:   13428
 k-point  28 :   0.2500 0.0000 0.5000  plane waves:   13421
 k-point  29 :   0.5000 0.0000 0.5000  plane waves:   13436
 k-point  30 :   0.0000 0.2500 0.5000  plane waves:   13431
 k-point  31 :   0.2500 0.2500 0.5000  plane waves:   13437
 k-point  32 :   0.5000 0.2500 0.5000  plane waves:   13444
 k-point  33 :  -0.2500 0.2500 0.5000  plane waves:   13409
 k-point  34 :   0.0000 0.5000 0.5000  plane waves:   13428
 k-point  35 :   0.2500 0.5000 0.5000  plane waves:   13424
 k-point  36 :   0.5000 0.5000 0.5000  plane waves:   13430

 maximum and minimum number of plane-waves per node :     13470    13409

 maximum number of plane-waves:     13470
 maximum index in each direction: 
   IXMAX=   17   IYMAX=   16   IZMAX=   16
   IXMIN=  -17   IYMIN=  -16   IZMIN=  -16


 serial   3D FFT for wavefunctions
 parallel 3D FFT for charge:
    minimum data exchange during FFTs selected (reduces bandwidth)


 total amount of memory used by VASP MPI-rank0  8493604. kBytes
=======================================================================

   base      :      30000. kBytes
   nonlr-proj:      29826. kBytes
   fftplans  :      94700. kBytes
   grid      :     294156. kBytes
   one-center:       1181. kBytes
   wavefun   :    8043741. kBytes
 
     INWAV:  cpu time      0.0000: real time      0.0000
 Broyden mixing: mesh for mixing (old mesh)
   NGX = 33   NGY = 33   NGZ = 33
  (NGX  =140   NGY  =140   NGZ  =140)
  gives a total of  35937 points

 initial charge density was supplied:
 charge density of overlapping atoms calculated
 number of electron     258.0000000 magnetization      28.4000000
 keeping initial charge density in first step


--------------------------------------------------------------------------------------------------------


 Maximum index for non-local projection operator         11014
 Maximum index for augmentation-charges         31834 (set IRDMAX)


--------------------------------------------------------------------------------------------------------


 First call to EWALD:  gamma=   0.223
 Maximum number of real-space cells 3x 3x 3
 Maximum number of reciprocal cells 3x 3x 3

    FEWALD:  cpu time      0.0218: real time      0.0059


--------------------------------------- Iteration      1(   1)  ---------------------------------------


    POTLOK:  cpu time      0.0891: real time      0.1182
    SETDIJ:  cpu time      0.3864: real time      0.1027
    TRIAL :  cpu time     20.9615: real time     20.8680
    CORREC:  cpu time      0.0079: real time      0.0079
    --------------------------------------------
      LOOP:  cpu time     23.6654: real time     23.3545

 eigenvalue-minimisations  : 24208
 total energy-change (2. order) : 0.2802310E+04  (-0.1446290E+05)
 number of electron     258.0000000 magnetization      28.4000000
 augmentation part      258.0000000 magnetization      28.4000000

 Free energy of the ion-electron system (eV)
  ---------------------------------------------------
  alpha Z        PSCENC =       870.90950386
  Ewald energy   TEWEN  =    -13516.42125746
  -Hartree energ DENC   =     -6589.61719928
  -exchange      EXHF   =         0.00000000
  -V(xc)+E(xc)   XCENC  =       978.49403241
  PAW double counting   =     16489.96272383   -16347.78525596
  entropy T*S    EENTRO =        -0.01075139
  eigenvalues    EBANDS =       173.11886898
  atomic energy  EATOM  =     20743.65894745
  ---------------------------------------------------
  free energy    TOTEN  =      2802.30961244 eV

  energy without entropy =     2802.32036383  energy(sigma->0) =     2802.31498814


--------------------------------------------------------------------------------------------------------




--------------------------------------- Iteration      1(   2)  ---------------------------------------


    TRIAL :  cpu time     22.4153: real time     22.1925
    CORREC:  cpu time      0.0089: real time      0.0089
    --------------------------------------------
      LOOP:  cpu time     22.4244: real time     22.2021

 eigenvalue-minimisations  : 27008
 total energy-change (2. order) :-0.2830580E+04  (-0.2744470E+04)
 number of electron     258.0000000 magnetization      28.4000000
 augmentation part      258.0000000 magnetization      28.4000000

 Free energy of the ion-electron system (eV)
  ---------------------------------------------------
  alpha Z        PSCENC =       870.90950386
  Ewald energy   TEWEN  =    -13516.42125746
  -Hartree energ DENC   =     -6589.61719928
  -exchange      EXHF   =         0.00000000
  -V(xc)+E(xc)   XCENC  =       978.49403241
  PAW double counting   =     16489.96272383   -16347.78525596
  entropy T*S    EENTRO =        -0.01379656
  eigenvalues    EBANDS =     -2657.45832730
  atomic energy  EATOM  =     20743.65894745
  ---------------------------------------------------
  free energy    TOTEN  =       -28.27062901 eV

  energy without entropy =      -28.25683245  energy(sigma->0) =      -28.26373073


--------------------------------------------------------------------------------------------------------




--------------------------------------- Iteration      1(   3)  ---------------------------------------


    TRIAL :  cpu time     23.2617: real time     22.9328
    CORREC:  cpu time      0.0099: real time      0.0099
    --------------------------------------------
      LOOP:  cpu time     23.2718: real time     22.9434

 eigenvalue-minimisations  : 28072
 total energy-change (2. order) :-0.2820750E+03  (-0.2762042E+03)
 number of electron     258.0000000 magnetization      28.4000000
 augmentation part      258.0000000 magnetization      28.4000000

 Free energy of the ion-electron system (eV)
  ---------------------------------------------------
  alpha Z        PSCENC =       870.90950386
  Ewald energy   TEWEN  =    -13516.42125746
  -Hartree energ DENC   =     -6589.61719928
  -exchange      EXHF   =         0.00000000
  -V(xc)+E(xc)   XCENC  =       978.49403241
  PAW double counting   =     16489.96272383   -16347.78525596
  entropy T*S    EENTRO =        -0.03025408
  eigenvalues    EBANDS =     -2939.51688490
  atomic energy  EATOM  =     20743.65894745
  ---------------------------------------------------
  free energy    TOTEN  =      -310.34564413 eV

  energy without entropy =     -310.31539005  energy(sigma->0) =     -310.33051709


--------------------------------------------------------------------------------------------------------




--------------------------------------- Iteration      1(   4)  ---------------------------------------


    TRIAL :  cpu time     29.0814: real time     28.7837
    CORREC:  cpu time      0.0091: real time      0.0092
    --------------------------------------------
      LOOP:  cpu time     29.0907: real time     28.7930

 eigenvalue-minimisations  : 36888
 total energy-change (2. order) :-0.1480185E+02  (-0.1433257E+02)
 number of electron     258.0000000 magnetization      28.4000000
 augmentation part      258.0000000 magnetization      28.4000000

 Free energy of the ion-electron system (eV)
  ---------------------------------------------------
  alpha Z        PSCENC =       870.90950386
  Ewald energy   TEWEN  =    -13516.42125746
  -Hartree energ DENC   =     -6589.61719928
  -exchange      EXHF   =         0.00000000
  -V(xc)+E(xc)   XCENC  =       978.49403241
  PAW double counting   =     16489.96272383   -16347.78525596
  entropy T*S    EENTRO =        -0.03775375
  eigenvalues    EBANDS =     -2954.31123451
  atomic energy  EATOM  =     20743.65894745
  ---------------------------------------------------
  free energy    TOTEN  =      -325.14749341 eV

  energy without entropy =     -325.10973965  energy(sigma->0) =     -325.12861653


--------------------------------------------------------------------------------------------------------




--------------------------------------- Iteration      1(   5)  ---------------------------------------


    TRIAL :  cpu time     34.4231: real time     34.0527
    CORREC:  cpu time      0.0100: real time      0.0101
    CHARGE:  cpu time      2.0712: real time      2.0134
    --------------------------------------------
      LOOP:  cpu time     36.5046: real time     36.0767

 eigenvalue-minimisations  : 45216
 total energy-change (2. order) :-0.1119843E+01  (-0.1102357E+01)
 number of electron     257.9999998 magnetization       8.2801129
 augmentation part       43.2773666 magnetization       3.2317363

 Free energy of the ion-electron system (eV)
  ---------------------------------------------------
  alpha Z        PSCENC =       870.90950386
  Ewald energy   TEWEN  =    -13516.42125746
  -Hartree energ DENC   =     -6589.61719928
  -exchange      EXHF   =         0.00000000
  -V(xc)+E(xc)   XCENC  =       978.49403241
  PAW double counting   =     16489.96272383   -16347.78525596
  entropy T*S    EENTRO =        -0.03501733
  eigenvalues    EBANDS =     -2955.43381349
  atomic energy  EATOM  =     20743.65894745
  ---------------------------------------------------
  free energy    TOTEN  =      -326.26733596 eV

  energy without entropy =     -326.23231863  energy(sigma->0) =     -326.24982730


--------------------------------------------------------------------------------------------------------




--------------------------------------- Iteration      1(   6)  ---------------------------------------


    POTLOK:  cpu time      0.0934: real time      0.0931
    SETDIJ:  cpu time      0.3702: real time      0.0988
    TRIAL :  cpu time     31.8758: real time     31.2253
    CORREC:  cpu time      6.6224: real time      6.2847
    CHARGE:  cpu time      1.9546: real time      1.8927
    --------------------------------------------
      LOOP:  cpu time     40.9167: real time     39.5948

 eigenvalue-minimisations  :     0
 total energy-change (2. order) : 0.1670491E+03  (-0.1525360E+03)
 number of electron     257.9999999 magnetization      10.0000000
 augmentation part       45.2321590 magnetization       5.6968218

 Free energy of the ion-electron system (eV)
  ---------------------------------------------------
  alpha Z        PSCENC =       870.90950386
  Ewald energy   TEWEN  =    -13516.42125746
  -Hartree energ DENC   =     -7229.52526467
  -exchange      EXHF   =         0.00000000
  -V(xc)+E(xc)   XCENC  =      1036.88616705
  PAW double counting   =     38931.16412502   -38880.63933828
  entropy T*S    EENTRO =        -0.02927005
  eigenvalues    EBANDS =     -2115.21607805
  atomic energy  EATOM  =     20743.65894745
  ---------------------------------------------------
  free energy    TOTEN  =      -159.21821241 eV

  energy without entropy =     -159.18894236  energy(sigma->0) =     -159.20357738


--------------------------------------------------------------------------------------------------------




--------------------------------------- Iteration      1(   7)  ---------------------------------------


    POTLOK:  cpu time      0.0768: real time      0.0761
    SETDIJ:  cpu time      0.3383: real time      0.0906
    TRIAL :  cpu time     30.6961: real time     30.0297
    CORREC:  cpu time      6.8007: real time      6.4954
    CHARGE:  cpu time      1.9358: real time      1.8780
    --------------------------------------------
      LOOP:  cpu time     39.8480: real time     38.5709

 eigenvalue-minimisations  :     0
 total energy-change (2. order) :-0.9459461E+02  (-0.3888049E+01)
 number of electron     257.9999999 magnetization      10.0000000
 augmentation part       44.9698924 magnetization       5.6700171

 Free energy of the ion-electron system (eV)
  ---------------------------------------------------
  alpha Z        PSCENC =       870.90950386
  Ewald energy   TEWEN  =    -13516.42125746
  -Hartree energ DENC   =     -7148.40362233
  -exchange      EXHF   =         0.00000000
  -V(xc)+E(xc)   XCENC  =      1020.18747068
  PAW double counting   =     39917.97269609   -39856.85730639
  entropy T*S    EENTRO =        -0.03920372
  eigenvalues    EBANDS =     -2284.82998281
  atomic energy  EATOM  =     20743.65894745
  ---------------------------------------------------
  free energy    TOTEN  =      -253.81282097 eV

  energy without entropy =     -253.77361724  energy(sigma->0) =     -253.79321910


--------------------------------------------------------------------------------------------------------




--------------------------------------- Iteration      1(   8)  ---------------------------------------


    POTLOK:  cpu time      0.0763: real time      0.0763
    SETDIJ:  cpu time      0.3191: real time      0.0858
    TRIAL :  cpu time     30.6427: real time     29.9749
    CORREC:  cpu time      6.8684: real time      6.5598
    CHARGE:  cpu time      1.9410: real time      1.8809
    --------------------------------------------
      LOOP:  cpu time     39.8477: real time     38.5778

 eigenvalue-minimisations  :     0
 total energy-change (2. order) :-0.9484347E+01  (-0.1691474E+02)
 number of electron     257.9999999 magnetization      10.0000000
 augmentation part       44.5401291 magnetization       5.5805169

 Free energy of the ion-electron system (eV)
  ---------------------------------------------------
  alpha Z        PSCENC =       870.90950386
  Ewald energy   TEWEN  =    -13516.42125746
  -Hartree energ DENC   =     -7099.99081142
  -exchange      EXHF   =         0.00000000
  -V(xc)+E(xc)   XCENC  =      1017.24582715
  PAW double counting   =     39732.73441642   -39670.15618393
  entropy T*S    EENTRO =        -0.02235907
  eigenvalues    EBANDS =     -2341.23840668
  atomic energy  EATOM  =     20743.65894745
  ---------------------------------------------------
  free energy    TOTEN  =      -263.29716833 eV

  energy without entropy =     -263.27480926  energy(sigma->0) =     -263.28598879


--------------------------------------------------------------------------------------------------------




--------------------------------------- Iteration      1(   9)  ---------------------------------------


    POTLOK:  cpu time      0.0762: real time      0.0755
    SETDIJ:  cpu time      0.3222: real time      0.0866
    TRIAL :  cpu time     30.6652: real time     30.0027
    CORREC:  cpu time      6.6129: real time      6.2567
    CHARGE:  cpu time      1.9375: real time      1.8781
    --------------------------------------------
      LOOP:  cpu time     39.6143: real time     38.3001

 eigenvalue-minimisations  :     0
 total energy-change (2. order) :-0.6507002E+01  (-0.3053687E+01)
 number of electron     257.9999999 magnetization      10.0000000
 augmentation part       44.1584657 magnetization       5.5151464

 Free energy of the ion-electron system (eV)
  ---------------------------------------------------
  alpha Z        PSCENC =       870.90950386
  Ewald energy   TEWEN  =    -13516.42125746
  -Hartree energ DENC   =     -7051.23590887
  -exchange      EXHF   =         0.00000000
  -V(xc)+E(xc)   XCENC  =      1014.11572725
  PAW double counting   =     39387.39919406   -39322.42501081
  entropy T*S    EENTRO =        -0.05142574
  eigenvalues    EBANDS =     -2395.78300640
  atomic energy  EATOM  =     20743.65894745
  ---------------------------------------------------
  free energy    TOTEN  =      -269.80417000 eV

  energy without entropy =     -269.75274426  energy(sigma->0) =     -269.77845713


--------------------------------------------------------------------------------------------------------




--------------------------------------- Iteration      1(  10)  ---------------------------------------


    POTLOK:  cpu time      0.0768: real time      0.0762
    SETDIJ:  cpu time      0.3724: real time      0.0998
    TRIAL :  cpu time     30.7778: real time     30.1074
    CORREC:  cpu time      6.9501: real time      6.6313
    CHARGE:  cpu time      1.9724: real time      1.9131
    --------------------------------------------
      LOOP:  cpu time     40.1497: real time     38.8279

 eigenvalue-minimisations  :     0
 total energy-change (2. order) :-0.8342451E+01  (-0.6370067E+01)
 number of electron     257.9999999 magnetization      10.0000000
 augmentation part       43.7598160 magnetization       5.4622869

 Free energy of the ion-electron system (eV)
  ---------------------------------------------------
  alpha Z        PSCENC =       870.90950386
  Ewald energy   TEWEN  =    -13516.42125746
  -Hartree energ DENC   =     -6993.59523490
  -exchange      EXHF   =         0.00000000
  -V(xc)+E(xc)   XCENC  =      1011.02374211
  PAW double counting   =     38996.24331199   -38929.20511274
  entropy T*S    EENTRO =        -0.02306012
  eigenvalues    EBANDS =     -2460.70909512
  atomic energy  EATOM  =     20743.65894745
  ---------------------------------------------------
  free energy    TOTEN  =      -278.14662055 eV

  energy without entropy =     -278.12356043  energy(sigma->0) =     -278.13509049


--------------------------------------------------------------------------------------------------------




--------------------------------------- Iteration      1(  11)  ---------------------------------------


    POTLOK:  cpu time      0.0807: real time      0.0800
    SETDIJ:  cpu time      0.3384: real time      0.0906
    TRIAL :  cpu time     30.7166: real time     30.0312
    CORREC:  cpu time      6.8923: real time      6.5544
    CHARGE:  cpu time      1.9539: real time      1.8905
    --------------------------------------------
      LOOP:  cpu time     39.9821: real time     38.6473

 eigenvalue-minimisations  :     0
 total energy-change (2. order) : 0.1274334E+01  (-0.3673365E+01)
 number of electron     257.9999999 magnetization      10.0000000
 augmentation part       43.4026042 magnetization       5.4499930

 Free energy of the ion-electron system (eV)
  ---------------------------------------------------
  alpha Z        PSCENC =       870.90950386
  Ewald energy   TEWEN  =    -13516.42125746
  -Hartree energ DENC   =     -6957.70658308
  -exchange      EXHF   =         0.00000000
  -V(xc)+E(xc)   XCENC  =      1008.30621177
  PAW double counting   =     38417.25658382   -38347.03007359
  entropy T*S    EENTRO =        -0.03363093
  eigenvalues    EBANDS =     -2495.82255953
  atomic energy  EATOM  =     20743.65894745
  ---------------------------------------------------
  free energy    TOTEN  =      -276.87228688 eV

  energy without entropy =     -276.83865595  energy(sigma->0) =     -276.85547142


--------------------------------------------------------------------------------------------------------




--------------------------------------- Iteration      1(  12)  ---------------------------------------


    POTLOK:  cpu time      0.0771: real time      0.0770
    SETDIJ:  cpu time      0.3614: real time      0.0967
    TRIAL :  cpu time     30.6848: real time     30.0090
    CORREC:  cpu time      6.5504: real time      6.2362
    CHARGE:  cpu time      1.9452: real time      1.8805
    --------------------------------------------
      LOOP:  cpu time     39.6193: real time     38.2995

 eigenvalue-minimisations  :     0
 total energy-change (2. order) : 0.3592528E+01  (-0.3245134E+01)
 number of electron     258.0000000 magnetization      10.0000001
 augmentation part       43.0551210 magnetization       5.4138813

 Free energy of the ion-electron system (eV)
  ---------------------------------------------------
  alpha Z        PSCENC =       870.90950386
  Ewald energy   TEWEN  =    -13516.42125746
  -Hartree energ DENC   =     -6918.43299335
  -exchange      EXHF   =         0.00000000
  -V(xc)+E(xc)   XCENC  =      1005.77509921
  PAW double counting   =     37717.05009504   -37643.41661451
  entropy T*S    EENTRO =        -0.02617172
  eigenvalues    EBANDS =     -2532.36890831
  atomic energy  EATOM  =     20743.65894745
  ---------------------------------------------------
  free energy    TOTEN  =      -273.27975900 eV

  energy without entropy =     -273.25358728  energy(sigma->0) =     -273.26667314


--------------------------------------------------------------------------------------------------------




--------------------------------------- Iteration      1(  13)  ---------------------------------------


    POTLOK:  cpu time      0.0768: real time      0.0761
    SETDIJ:  cpu time      0.3693: real time      0.0987
    TRIAL :  cpu time     30.6906: real time     30.0144
    CORREC:  cpu time      6.7179: real time      6.3935
    CHARGE:  cpu time      1.9218: real time      1.8645
    --------------------------------------------
      LOOP:  cpu time     39.7768: real time     38.4478

 eigenvalue-minimisations  :     0
 total energy-change (2. order) : 0.7592868E+00  (-0.1698943E+01)
 number of electron     257.9999999 magnetization      10.0000001
 augmentation part       42.6747252 magnetization       5.3487839

 Free energy of the ion-electron system (eV)
  ---------------------------------------------------
  alpha Z        PSCENC =       870.90950386
  Ewald energy   TEWEN  =    -13516.42125746
  -Hartree energ DENC   =     -6886.84113199
  -exchange      EXHF   =         0.00000000
  -V(xc)+E(xc)   XCENC  =      1003.46502694
  PAW double counting   =     37034.59879838   -36957.93892460
  entropy T*S    EENTRO =        -0.02614560
  eigenvalues    EBANDS =     -2563.92526306
  atomic energy  EATOM  =     20743.65894745
  ---------------------------------------------------
  free energy    TOTEN  =      -272.52047220 eV

  energy without entropy =     -272.49432659  energy(sigma->0) =     -272.50739940


--------------------------------------------------------------------------------------------------------




--------------------------------------- Iteration      1(  14)  ---------------------------------------


    POTLOK:  cpu time      0.0754: real time      0.0754
    SETDIJ:  cpu time      0.3503: real time      0.0937
    TRIAL :  cpu time     30.2036: real time     29.5513
    CORREC:  cpu time      6.7896: real time      6.4440
    CHARGE:  cpu time      1.9407: real time      1.8789
    --------------------------------------------
      LOOP:  cpu time     39.3599: real time     38.0434

 eigenvalue-minimisations  :     0
 total energy-change (2. order) :-0.1119004E+02  (-0.6413187E+01)
 number of electron     257.9999999 magnetization      10.0000000
 augmentation part       42.2588495 magnetization       5.3079458

 Free energy of the ion-electron system (eV)
  ---------------------------------------------------
  alpha Z        PSCENC =       870.90950386
  Ewald energy   TEWEN  =    -13516.42125746
  -Hartree energ DENC   =     -6843.92667545
  -exchange      EXHF   =         0.00000000
  -V(xc)+E(xc)   XCENC  =      1000.61377634
  PAW double counting   =     36294.58956154   -36215.51633588
  entropy T*S    EENTRO =        -0.00572996
  eigenvalues    EBANDS =     -2617.59188871
  atomic energy  EATOM  =     20743.65894745
  ---------------------------------------------------
  free energy    TOTEN  =      -283.71051391 eV

  energy without entropy =     -283.70478395  energy(sigma->0) =     -283.70764893


--------------------------------------------------------------------------------------------------------




--------------------------------------- Iteration      1(  15)  ---------------------------------------


    POTLOK:  cpu time      0.0767: real time      0.0760
    SETDIJ:  cpu time      0.3688: real time      0.0987
    TRIAL :  cpu time     30.9100: real time     30.2258
    CORREC:  cpu time      6.4780: real time      6.1702
    CHARGE:  cpu time      1.9552: real time      1.8912
    --------------------------------------------
      LOOP:  cpu time     39.7890: real time     38.4630

 eigenvalue-minimisations  :     0
 total energy-change (2. order) : 0.2825578E+01  (-0.6995744E+01)
 number of electron     257.9999999 magnetization      10.0000000
 augmentation part       42.4674320 magnetization       5.3688370

 Free energy of the ion-electron system (eV)
  ---------------------------------------------------
  alpha Z        PSCENC =       870.90950386
  Ewald energy   TEWEN  =    -13516.42125746
  -Hartree energ DENC   =     -6823.08978374
  -exchange      EXHF   =         0.00000000
  -V(xc)+E(xc)   XCENC  =       998.37449900
  PAW double counting   =     35121.91624537   -35038.37721288
  entropy T*S    EENTRO =        -0.02739758
  eigenvalues    EBANDS =     -2637.85014787
  atomic energy  EATOM  =     20743.65894745
  ---------------------------------------------------
  free energy    TOTEN  =      -280.88493623 eV

  energy without entropy =     -280.85753864  energy(sigma->0) =     -280.87123743


--------------------------------------------------------------------------------------------------------




--------------------------------------- Iteration      1(  16)  ---------------------------------------


    POTLOK:  cpu time      0.0764: real time      0.0759
    SETDIJ:  cpu time      0.3454: real time      0.0926
    TRIAL :  cpu time     30.6320: real time     29.9670
    CORREC:  cpu time      6.7648: real time      6.4529
    CHARGE:  cpu time      1.9452: real time      1.8805
    --------------------------------------------
      LOOP:  cpu time     39.7641: real time     38.4691

 eigenvalue-minimisations  :     0
 total energy-change (2. order) :-0.1445124E+01  (-0.4007771E+01)
 number of electron     258.0000000 magnetization      10.0000001
 augmentation part       42.7794127 magnetization       5.4505906

 Free energy of the ion-electron system (eV)
  ---------------------------------------------------
  alpha Z        PSCENC =       870.90950386
  Ewald energy   TEWEN  =    -13516.42125746
  -Hartree energ DENC   =     -6850.18620894
  -exchange      EXHF   =         0.00000000
  -V(xc)+E(xc)   XCENC  =      1000.00229450
  PAW double counting   =     34930.85984665   -34847.71786999
  entropy T*S    EENTRO =        -0.01356931
  eigenvalues    EBANDS =     -2613.40791866
  atomic energy  EATOM  =     20743.65894745
  ---------------------------------------------------
  free energy    TOTEN  =      -282.33006017 eV

  energy without entropy =     -282.31649086  energy(sigma->0) =     -282.32327551


--------------------------------------------------------------------------------------------------------




--------------------------------------- Iteration      1(  17)  ---------------------------------------


    POTLOK:  cpu time      0.0769: real time      0.0761
    SETDIJ:  cpu time      0.3356: real time      0.0900
    TRIAL :  cpu time     30.3250: real time     29.6547
    CORREC:  cpu time      6.7489: real time      6.4203
    CHARGE:  cpu time      1.9451: real time      1.8862
    --------------------------------------------
      LOOP:  cpu time     39.4317: real time     38.1280

 eigenvalue-minimisations  :     0
 total energy-change (2. order) : 0.1114983E+02  (-0.7044032E+01)
 number of electron     257.9999999 magnetization      10.0000000
 augmentation part       42.7408266 magnetization       5.4006686

 Free energy of the ion-electron system (eV)
  ---------------------------------------------------
  alpha Z        PSCENC =       870.90950386
  Ewald energy   TEWEN  =    -13516.42125746
  -Hartree energ DENC   =     -6910.08661277
  -exchange      EXHF   =         0.00000000
  -V(xc)+E(xc)   XCENC  =      1003.03699991
  PAW double counting   =     34640.95622189   -34557.74465920
  entropy T*S    EENTRO =        -0.03043374
[...]
 -0.000  -0.001  -0.000  -0.000  -0.000   0.000   0.000   0.000   0.001   0.001   0.002   0.002   0.001  -0.000  -0.000  -0.001
  0.000   0.000  -0.000  -0.000  -0.000  -0.000  -0.000   0.000  -0.000  -0.000  -0.001  -0.001  -0.000   0.000   0.000   0.000
  0.000   0.001  -0.000   0.000  -0.000   0.000  -0.000  -0.000  -0.000  -0.001  -0.001  -0.002  -0.000   0.000   0.000   0.001
  0.000   0.001   0.000   0.000   0.000  -0.000  -0.000  -0.000  -0.001  -0.001  -0.002  -0.003  -0.001   0.000   0.001   0.001
  0.000   0.001  -0.000   0.000  -0.000  -0.000  -0.000  -0.000  -0.001  -0.002  -0.003  -0.003  -0.000   0.000   0.001   0.001
  0.000   0.000   0.000   0.000   0.000  -0.000  -0.000   0.000  -0.000  -0.000  -0.001  -0.000  -0.000   0.000   0.000   0.000


------------------------ aborting loop because EDIFF is reached ----------------------------------------





 total charge

# of ion       s       p       d       tot
------------------------------------------
    1        2.024   5.863   0.229   8.115
    2        2.024   5.863   0.229   8.115
    3        2.023   5.863   0.239   8.124
    4        2.023   5.863   0.239   8.124
    5        0.191   6.182   2.922   9.295
    6        0.187   6.174   2.976   9.336
    7        0.191   6.182   2.922   9.295
    8        0.187   6.174   2.976   9.337
    9        0.907   1.480   0.000   2.387
   10        0.910   1.495   0.000   2.405
   11        0.906   1.499   0.000   2.406
   12        0.910   1.495   0.000   2.405
   13        0.906   1.499   0.000   2.406
   14        0.913   1.514   0.000   2.427
   15        1.559   3.610   0.000   5.169
   16        1.558   3.580   0.000   5.139
   17        1.558   3.593   0.000   5.151
   18        1.561   3.597   0.000   5.158
   19        1.560   3.622   0.000   5.181
   20        1.560   3.599   0.000   5.159
   21        1.559   3.610   0.000   5.169
   22        1.561   3.597   0.000   5.158
   23        1.560   3.622   0.000   5.181
   24        1.558   3.580   0.000   5.138
   25        1.558   3.593   0.000   5.151
   26        1.560   3.600   0.000   5.160
   27        1.556   3.596   0.000   5.153
   28        1.565   3.587   0.000   5.152
   29        1.559   3.618   0.000   5.177
   30        1.562   3.595   0.000   5.157
   31        1.558   3.605   0.000   5.163
   32        1.564   3.582   0.000   5.146
   33        1.556   3.596   0.000   5.153
   34        1.562   3.595   0.000   5.157
   35        1.558   3.605   0.000   5.163
   36        1.565   3.587   0.000   5.152
   37        1.559   3.617   0.000   5.177
   38        1.564   3.583   0.000   5.147
--------------------------------------------------
tot         51.743 143.512  12.731 207.986



 magnetization (x)

# of ion       s       p       d       tot
------------------------------------------
    1        0.001   0.000   0.011   0.011
    2        0.001   0.000   0.011   0.011
    3        0.000   0.000   0.009   0.010
    4        0.000   0.000   0.009   0.010
    5        0.012   0.013   2.162   2.186
    6        0.013   0.013   2.250   2.276
    7        0.012   0.013   2.161   2.185
    8        0.013   0.013   2.250   2.276
    9        0.006   0.009   0.000   0.015
   10        0.005   0.009   0.000   0.014
   11        0.005   0.011   0.000   0.017
   12        0.005   0.009   0.000   0.014
   13        0.005   0.011   0.000   0.017
   14        0.004   0.008   0.000   0.013
   15       -0.001  -0.005   0.000  -0.006
   16       -0.000  -0.004   0.000  -0.004
   17       -0.001  -0.006   0.000  -0.007
   18        0.000  -0.004   0.000  -0.004
   19       -0.001  -0.007   0.000  -0.008
   20        0.000  -0.002   0.000  -0.002
   21       -0.001  -0.005   0.000  -0.006
   22        0.000  -0.004   0.000  -0.004
   23       -0.001  -0.007   0.000  -0.008
   24       -0.000  -0.004   0.000  -0.005
   25       -0.001  -0.006   0.000  -0.007
   26        0.000  -0.002   0.000  -0.002
   27       -0.000   0.002   0.000   0.002
   28       -0.001  -0.002   0.000  -0.003
   29       -0.002   0.003   0.000   0.001
   30       -0.001   0.001   0.000  -0.001
   31       -0.000  -0.004   0.000  -0.004
   32       -0.001   0.002   0.000   0.001
   33       -0.000   0.002   0.000   0.002
   34       -0.001   0.001   0.000  -0.001
   35       -0.000  -0.004   0.000  -0.004
   36       -0.001  -0.002   0.000  -0.003
   37       -0.002   0.003   0.000   0.001
   38       -0.001   0.002   0.000   0.001
--------------------------------------------------
tot          0.068   0.056   8.862   8.987
 
    FORLOC:  cpu time      0.0202: real time      0.0201
    FORNL :  cpu time      9.9114: real time      9.0852
    STRESS:  cpu time     30.0443: real time     27.3795
    FORCOR:  cpu time      0.0772: real time      0.0731
    OFIELD:  cpu time      0.0232: real time      0.0232

  FORCE on cell =-STRESS in cart. coord.  units (eV):
  Direction    XX          YY          ZZ          XY          YZ          ZX
  --------------------------------------------------------------------------------------
  Alpha Z   870.90950   870.90950   870.90950
  Ewald   -4429.86337 -4922.85147 -4163.77052    15.17018    25.26632   234.64441
  Hartree  2355.20493  2054.33992  2504.01154     6.64259    10.81283   131.01788
  E(xc)   -1259.95693 -1260.51420 -1259.63899    -0.06794    -0.11861     0.28091
  Local   -1745.16676  -960.07033 -2158.44388   -23.84286   -39.52712  -364.27383
  n-local  -745.10182  -748.57576  -745.58491    -1.34588    -2.29849    -0.41236
  augment   354.29067   354.83669   356.42163     1.40605     2.41386     1.88883
  Kinetic  4599.71953  4611.93845  4596.16992     2.07612     3.51446    -3.10002
  Fock        0.00000     0.00000     0.00000     0.00000     0.00000     0.00000
  -------------------------------------------------------------------------------------
  Total       0.03575     0.01280     0.07429     0.03826     0.06326     0.04582
  in kB       0.11476     0.04110     0.23850     0.12284     0.20309     0.14709
  external pressure =        0.13 kB  Pullay stress =        0.00 kB


 VOLUME and BASIS-vectors are now :
 -----------------------------------------------------------------------------
  energy-cutoff  :      520.00
  volume of cell :      499.09
      direct lattice vectors                 reciprocal lattice vectors
     2.590502570  7.398964305  4.440063421    -0.001110660  0.136651605 -0.001847536
    -0.023772331  0.119270843  8.836067753    -0.063005150 -0.046126728  0.113625633
     7.706881005  0.121080829  4.322600825     0.129933158 -0.046074783  0.000971495

  length of vectors
     9.009413939  8.836904661  8.837168850     0.136668607  0.137869897  0.137863901


 FORCES acting on ions:
    Electron-Ion                     Ewald-Force                    Non-Local-Force
 -----------------------------------------------------------------------------------------------
   -.582E+01 -.611E+02 0.568E+02   0.727E+01 0.625E+02 -.546E+02   -.145E+01 -.136E+01 -.221E+01
   -.529E+02 0.609E+02 -.229E+02   0.517E+02 -.622E+02 0.206E+02   0.121E+01 0.136E+01 0.236E+01
   0.421E+02 -.324E+02 0.298E+02   -.407E+02 0.312E+02 -.293E+02   -.140E+01 0.117E+01 -.466E+00
   -.543E+01 0.323E+02 -.510E+02   0.569E+01 -.311E+02 0.496E+02   -.272E+00 -.117E+01 0.145E+01
   0.330E+02 0.213E+02 -.555E+02   -.335E+02 -.208E+02 0.559E+02   0.431E+00 -.478E+00 -.352E+00
   -.107E+03 0.556E+02 -.141E+03   0.109E+03 -.552E+02 0.143E+03   -.238E+01 -.406E+00 -.197E+01
   0.637E+02 -.212E+02 -.168E+01   -.643E+02 0.208E+02 0.185E+01   0.537E+00 0.482E+00 -.190E+00
   0.706E+02 -.557E+02 0.163E+03   -.712E+02 0.553E+02 -.166E+03   0.546E+00 0.412E+00 0.304E+01
   -.877E+01 0.173E+00 0.514E+01   0.862E+01 -.174E+00 -.505E+01   0.172E+00 0.481E-02 -.969E-01
   0.290E+02 0.520E+02 -.535E+02   -.270E+02 -.561E+02 0.522E+02   -.212E+01 0.430E+01 0.135E+01
   0.180E+02 -.207E+01 0.364E+02   -.190E+02 0.264E+01 -.376E+02   0.110E+01 -.590E+00 0.123E+01
   0.608E+02 -.519E+02 0.133E+01   -.587E+02 0.560E+02 -.243E+01   -.221E+01 -.431E+01 0.115E+01
   -.230E+02 0.194E+01 -.335E+02   0.235E+02 -.251E+01 0.350E+02   -.526E+00 0.572E+00 -.155E+01
   -.595E+02 0.232E+00 0.345E+02   0.559E+02 -.222E+00 -.324E+02   0.383E+01 -.135E-01 -.222E+01
   0.235E+02 0.201E+02 0.164E+02   -.153E+01 -.176E+02 -.336E+02   -.220E+02 -.255E+01 0.171E+02
   0.566E+02 0.373E+02 0.654E+02   -.472E+02 -.611E+02 -.673E+02   -.941E+01 0.239E+02 0.191E+01
   0.290E+02 0.231E+02 0.402E+02   -.484E+02 -.247E+01 -.410E+02   0.194E+02 -.206E+02 0.774E+00
   -.880E+02 0.775E+02 0.603E+02   0.102E+03 -.571E+02 -.756E+02   -.136E+02 -.205E+02 0.153E+02
   0.503E+02 0.154E+01 0.865E+02   -.595E+02 -.241E+02 -.774E+02   0.921E+01 0.226E+02 -.914E+01
   0.765E+01 0.126E+03 0.318E+01   -.323E+02 -.124E+03 0.991E+01   0.246E+02 -.170E+01 -.131E+02
   -.318E+01 -.196E+02 -.289E+02   0.289E+02 0.170E+02 0.183E+02   -.257E+02 0.266E+01 0.106E+02
   -.956E+02 -.774E+02 0.464E+02   0.116E+03 0.569E+02 -.506E+02   -.200E+02 0.205E+02 0.424E+01
   -.514E+02 -.191E+01 -.852E+02   0.390E+02 0.245E+02 0.887E+02   0.124E+02 -.226E+02 -.342E+01
   -.291E+02 -.374E+02 -.817E+02   0.354E+02 0.613E+02 0.745E+02   -.631E+01 -.239E+02 0.721E+01
   -.202E+02 -.231E+02 -.454E+02   0.113E+02 0.245E+01 0.626E+02   0.891E+01 0.206E+02 -.173E+02
   0.984E+00 -.126E+03 -.769E+01   -.245E+02 0.124E+03 0.227E+02   0.235E+02 0.174E+01 -.150E+02
   -.170E+02 -.244E+02 -.348E+02   0.171E+02 0.176E+02 0.781E+01   -.183E+00 0.681E+01 0.270E+02
   0.138E+03 0.441E+02 0.119E+02   -.150E+03 -.660E+02 -.352E+02   0.118E+02 0.219E+02 0.232E+02
   -.101E+02 0.589E+02 0.288E+02   -.957E+01 -.543E+02 -.502E+02   0.197E+02 -.465E+01 0.214E+02
   0.859E+02 0.411E+02 0.421E+02   -.895E+02 -.412E+02 -.733E+02   0.363E+01 0.803E-01 0.313E+02
   -.618E+02 -.184E+02 -.120E+02   0.486E+02 0.103E+01 -.471E+01   0.132E+02 0.173E+02 0.167E+02
   0.687E+01 0.194E+02 0.124E+03   -.339E+02 -.219E+02 -.143E+03   0.270E+02 0.252E+01 0.188E+02
   0.221E+02 0.248E+02 0.318E+02   0.146E+01 -.180E+02 -.187E+02   -.236E+02 -.680E+01 -.131E+02
   0.573E+01 -.413E+02 -.954E+02   0.197E+02 0.414E+02 0.114E+03   -.254E+02 -.107E+00 -.186E+02
   -.199E+02 0.179E+02 0.598E+02   0.280E+02 -.567E+00 -.401E+02   -.803E+01 -.173E+02 -.197E+02
   0.577E+02 -.440E+02 -.126E+03   -.433E+02 0.659E+02 0.148E+03   -.144E+02 -.220E+02 -.217E+02
   -.297E+02 -.592E+02 -.546E+01   0.386E+02 0.546E+02 0.332E+02   -.888E+01 0.461E+01 -.277E+02
   -.104E+03 -.191E+02 -.669E+02   0.107E+03 0.216E+02 0.996E+02   -.295E+01 -.257E+01 -.327E+02
 -----------------------------------------------------------------------------------------------
   0.965E+01 0.972E-01 -.573E+01   0.142E-12 0.249E-13 -.171E-12   -.964E+01 -.949E-01 0.571E+01
 
 
 POSITION                                       TOTAL-FORCE (eV/Angst)
 -----------------------------------------------------------------------------------
      5.21958      4.10539      8.69716        -0.004065     -0.008316     -0.003413
      2.65499      7.19924     13.18295         0.002247      0.006495      0.004394
      1.71251      2.97263      8.72982         0.004794     -0.000614      0.003680
      6.04345      0.93511      7.26619        -0.007217     -0.001358     -0.006289
      6.54768      4.94914     11.28874         0.001420      0.004098      0.010392
      1.55270      1.14533      2.60606        -0.012940      0.012687     -0.005298
      8.75675      6.47907     15.07561        -0.005878     -0.000534     -0.004111
      3.58911      2.64304      6.09519        -0.002752     -0.011729      0.012275
      7.90304      2.01506     10.05999         0.006884      0.004301      0.000970
      3.54011      0.39882      8.74378         0.002788      0.013414     -0.009702
      6.77567      7.22103      8.82453         0.017701     -0.000806      0.006396
      6.92645      3.51147      5.67107         0.009237     -0.017435     -0.010414
      3.31024      4.08581     11.76379         0.016617     -0.012546     -0.008791
      2.22844      5.59374      7.52621         0.005545     -0.002604     -0.005434
      4.60650      4.31052     10.94365        -0.008452      0.008576      0.012157
      7.69631      2.10368      5.74054        -0.019977     -0.015627      0.003207
      6.92123      3.22192     10.11531         0.011307     -0.007306      0.003108
      2.84559      6.83630      6.80077         0.010008     -0.002031      0.003156
      6.32823      5.88345      9.48606        -0.006476     -0.009158     -0.023099
      2.18882      0.68003      9.48961         0.005523      0.004260     -0.000492
      8.12793      6.99380      8.10119        -0.004373     -0.006510     -0.009171
      3.16222      4.34958      7.34883         0.002912      0.004661     -0.014864
      2.51528      5.42389     11.82557         0.010204      0.018662      0.017411
      3.85873      1.80739      8.04099        -0.014829      0.010945      0.009349
      7.37096      0.80975     10.88914        -0.000725     -0.000591     -0.011439
      5.61210      3.22853      6.47919        -0.002901     -0.004855     -0.006664
      8.00546      1.62797      8.55608        -0.011559     -0.003587      0.007674
      5.87774      6.67195     12.18957        -0.004678      0.017404     -0.001146
      3.07486      0.23023      3.42764         0.015973     -0.013491      0.010539
      6.81891      3.86250     12.99516        -0.009405     -0.000001     -0.005172
      2.49084      3.01834     10.97750        -0.014313     -0.007797     -0.004112
      8.54486      5.55804     11.21467         0.000064      0.019701     -0.007417
      1.55662      2.28056      6.38713        -0.008493     -0.002242      0.009588
      7.40468      7.56612     14.00199         0.005341     -0.001431      0.013777
      4.46681      0.88955      5.48438        -0.001359      0.019091      0.018866
      7.66507      4.63820      6.38121         0.005764     -0.010224      0.008483
      3.61874      3.55961      4.36608        -0.002353      0.012333     -0.019267
      2.09246      5.75296      9.04793         0.008416     -0.015836      0.000872
 -----------------------------------------------------------------------------------
    total drift:                                0.006076      0.002241     -0.015294


--------------------------------------------------------------------------------------------------------



  FREE ENERGIE OF THE ION-ELECTRON SYSTEM (eV)
  ---------------------------------------------------
  free  energy   TOTEN  =      -288.09032222 eV

  energy  without entropy=     -288.06137729  energy(sigma->0) =     -288.07584976
 


--------------------------------------------------------------------------------------------------------


    POTLOK:  cpu time      0.4687: real time      0.2263


--------------------------------------------------------------------------------------------------------




--------------------------------------------------------------------------------------------------------


  
 reached required accuracy - stopping structural energy minimisation
     LOOP+:  cpu time   3542.7318: real time   3426.1635
    4ORBIT:  cpu time      0.0020: real time      0.0020



 total charge

# of ion       s       p       d       tot
------------------------------------------
    1        2.024   5.863   0.229   8.115
    2        2.024   5.863   0.229   8.115
    3        2.023   5.863   0.239   8.124
    4        2.023   5.863   0.239   8.124
    5        0.191   6.182   2.922   9.295
    6        0.187   6.174   2.976   9.336
    7        0.191   6.182   2.922   9.295
    8        0.187   6.174   2.976   9.337
    9        0.907   1.480   0.000   2.387
   10        0.910   1.495   0.000   2.405
   11        0.906   1.499   0.000   2.406
   12        0.910   1.495   0.000   2.405
   13        0.906   1.499   0.000   2.406
   14        0.913   1.514   0.000   2.427
   15        1.559   3.610   0.000   5.169
   16        1.558   3.580   0.000   5.139
   17        1.558   3.593   0.000   5.151
   18        1.561   3.597   0.000   5.158
   19        1.560   3.622   0.000   5.181
   20        1.560   3.599   0.000   5.159
   21        1.559   3.610   0.000   5.169
   22        1.561   3.597   0.000   5.158
   23        1.560   3.622   0.000   5.181
   24        1.558   3.580   0.000   5.138
   25        1.558   3.593   0.000   5.151
   26        1.560   3.600   0.000   5.160
   27        1.556   3.596   0.000   5.153
   28        1.565   3.587   0.000   5.152
   29        1.559   3.618   0.000   5.177
   30        1.562   3.595   0.000   5.157
   31        1.558   3.605   0.000   5.163
   32        1.564   3.582   0.000   5.146
   33        1.556   3.596   0.000   5.153
   34        1.562   3.595   0.000   5.157
   35        1.558   3.605   0.000   5.163
   36        1.565   3.587   0.000   5.152
   37        1.559   3.617   0.000   5.177
   38        1.564   3.583   0.000   5.147
--------------------------------------------------
tot         51.743 143.512  12.731 207.986



 magnetization (x)

# of ion       s       p       d       tot
------------------------------------------
    1        0.001   0.000   0.011   0.011
    2        0.001   0.000   0.011   0.011
    3        0.000   0.000   0.009   0.010
    4        0.000   0.000   0.009   0.010
    5        0.012   0.013   2.162   2.186
    6        0.013   0.013   2.250   2.276
    7        0.012   0.013   2.161   2.185
    8        0.013   0.013   2.250   2.276
    9        0.006   0.009   0.000   0.015
   10        0.005   0.009   0.000   0.014
   11        0.005   0.011   0.000   0.017
   12        0.005   0.009   0.000   0.014
   13        0.005   0.011   0.000   0.017
   14        0.004   0.008   0.000   0.013
   15       -0.001  -0.005   0.000  -0.006
   16       -0.000  -0.004   0.000  -0.004
   17       -0.001  -0.006   0.000  -0.007
   18        0.000  -0.004   0.000  -0.004
   19       -0.001  -0.007   0.000  -0.008
   20        0.000  -0.002   0.000  -0.002
   21       -0.001  -0.005   0.000  -0.006
   22        0.000  -0.004   0.000  -0.004
   23       -0.001  -0.007   0.000  -0.008
   24       -0.000  -0.004   0.000  -0.005
   25       -0.001  -0.006   0.000  -0.007
   26        0.000  -0.002   0.000  -0.002
   27       -0.000   0.002   0.000   0.002
   28       -0.001  -0.002   0.000  -0.003
   29       -0.002   0.003   0.000   0.001
   30       -0.001   0.001   0.000  -0.001
   31       -0.000  -0.004   0.000  -0.004
   32       -0.001   0.002   0.000   0.001
   33       -0.000   0.002   0.000   0.002
   34       -0.001   0.001   0.000  -0.001
   35       -0.000  -0.004   0.000  -0.004
   36       -0.001  -0.002   0.000  -0.003
   37       -0.002   0.003   0.000   0.001
   38       -0.001   0.002   0.000   0.001
--------------------------------------------------
tot          0.068   0.056   8.862   8.987
 

 total amount of memory used by VASP MPI-rank0  8493604. kBytes
=======================================================================

   base      :      30000. kBytes
   nonlr-proj:      29826. kBytes
   fftplans  :      94700. kBytes
   grid      :     294156. kBytes
   one-center:       1181. kBytes
   wavefun   :    8043741. kBytes
 
  
  
 General timing and accounting informations for this job:
 ========================================================
  
                  Total CPU time used (sec):     3579.758
                            User time (sec):     2626.671
                          System time (sec):      953.087
                         Elapsed time (sec):     3459.904
  
                   Maximum memory used (kb):    10844552.
                   Average memory used (kb):          N/A
  
                          Minor page faults:    119997539
                          Major page faults:         2736
                 Voluntary context switches:      7300559
