 vasp.6.1.2 22Jul20 (build Mar 19 2021 09:51:12) complex                        
  
 executed on             LinuxIFC date 2021.07.25  15:54:13
 running on   12 total cores
 distrk:  each k-point on   12 cores,    1 groups
 distr:  one band on NCORE=   4 cores,    3 groups


--------------------------------------------------------------------------------------------------------


 INCAR:
 POTCAR:    PAW_PBE Ca_sv 06Sep2000               
 POTCAR:    PAW_PBE Ni_pv 06Sep2000               
 POTCAR:    PAW_PBE O 08Apr2002                   
 POTCAR:    PAW_PBE Ca_sv 06Sep2000               
   VRHFIN =Ca: 3s3p4s                                                                               
   LEXCH  = PE                                                                                      
   EATOM  =  1006.0909 eV,   73.9456 Ry                                                             
                                                                                                    
   TITEL  = PAW_PBE Ca_sv 06Sep2000                                                                 
   LULTRA =        F    use ultrasoft PP ?                                                          
   IUNSCR =        1    unscreen: 0-lin 1-nonlin 2-no                                               
   RPACOR =    2.000    partial core radius                                                         
   POMASS =   40.078; ZVAL   =   10.000    mass and valenz                                          
   RCORE  =    2.300    outmost cutoff radius                                                       
   RWIGS  =    2.500; RWIGS  =    1.323    wigner-seitz radius (au A)                               
   ENMAX  =  266.622; ENMIN  =  199.967 eV                                                          
   RCLOC  =    1.808    cutoff for local pot                                                        
   LCOR   =        T    correct aug charges                                                         
   LPAW   =        T    paw PP                                                                      
   EAUG   =  420.852                                                                                
   RMAX   =    2.359    core radius for proj-oper                                                   
   RAUG   =    1.300    factor for augmentation sphere                                              
   RDEP   =    2.392    radius for radial grids                                                     
   RDEPT  =    1.987    core radius for aug-charge                                                  
                                                                                                    
   Atomic configuration                                                                             
    7 entries                                                                                       
     n  l   j            E        occ.                                                              
     1  0  0.50     -3949.1705   2.0000                                                             
     2  0  0.50      -414.3434   2.0000                                                             
     2  1  1.50      -334.7047   6.0000                                                             
     3  0  0.50       -47.0896   2.0000                                                             
     4  0  0.50        -3.7663   2.0000                                                             
     3  1  1.50       -28.0061   6.0000                                                             
     3  2  1.50        -4.0817   0.0000                                                             
   Description                                                                                      
     l       E           TYP  RCUT    TYP  RCUT                                                     
     0    -47.0896403     23  2.300                                                                 
     0     -3.7663320     23  2.300                                                                 
     1    -28.0060855     23  2.300                                                                 
     1      6.8029130     23  2.300                                                                 
     2     -4.0817478     23  2.300                                                                 
     2      0.4464412     23  2.300                                                                 
  local pseudopotential read in
  partial core-charges read in
  partial kinetic energy density read in
  atomic valenz-charges read in
  non local Contribution for L=           0  read in
    real space projection operators read in
  non local Contribution for L=           0  read in
    real space projection operators read in
  non local Contribution for L=           1  read in
    real space projection operators read in
  non local Contribution for L=           1  read in
    real space projection operators read in
  non local Contribution for L=           2  read in
    real space projection operators read in
  non local Contribution for L=           2  read in
    real space projection operators read in
    PAW grid and wavefunctions read in
 
   number of l-projection  operators is LMAX  =           6
   number of lm-projection operators is LMMAX =          18
 
 POTCAR:    PAW_PBE Ni_pv 06Sep2000               
   VRHFIN =Ni:                                                                                      
   LEXCH  = PE                                                                                      
   EATOM  =  3501.1230 eV,  257.3253 Ry                                                             
                                                                                                    
   TITEL  = PAW_PBE Ni_pv 06Sep2000                                                                 
   LULTRA =        F    use ultrasoft PP ?                                                          
   IUNSCR =        1    unscreen: 0-lin 1-nonlin 2-no                                               
   RPACOR =    1.500    partial core radius                                                         
   POMASS =   58.690; ZVAL   =   16.000    mass and valenz                                          
   RCORE  =    2.000    outmost cutoff radius                                                       
   RWIGS  =    2.000; RWIGS  =    1.058    wigner-seitz radius (au A)                               
   ENMAX  =  367.986; ENMIN  =  275.989 eV                                                          
   RCLOC  =    1.301    cutoff for local pot                                                        
   LCOR   =        T    correct aug charges                                                         
   LPAW   =        T    paw PP                                                                      
   EAUG   =  703.443                                                                                
   DEXC   =    0.000                                                                                
   RMAX   =    2.041    core radius for proj-oper                                                   
   RAUG   =    1.300    factor for augmentation sphere                                              
   RDEP   =    2.103    radius for radial grids                                                     
   RDEPT  =    1.618    core radius for aug-charge                                                  
                                                                                                    
   Atomic configuration                                                                             
    8 entries                                                                                       
     n  l   j            E        occ.                                                              
     1  0  0.50     -8206.4253   2.0000                                                             
     2  0  0.50      -976.1748   2.0000                                                             
     2  1  1.50      -839.0571   6.0000                                                             
     3  0  0.50      -105.9991   2.0000                                                             
     3  1  1.50       -66.4603   6.0000                                                             
     3  2  2.50        -4.6458   9.0000                                                             
     4  0  0.50        -4.4926   1.0000                                                             
     4  3  2.50        -1.3606   0.0000                                                             
   Description                                                                                      
     l       E           TYP  RCUT    TYP  RCUT                                                     
     1    -66.4602962     23  1.700                                                                 
     1     -1.3605826     23  1.700                                                                 
     2     -4.6457867     23  2.000                                                                 
     2     -6.0063693     23  2.000                                                                 
     0     -4.4925576     23  1.900                                                                 
     0     16.3626226     23  1.900                                                                 
  local pseudopotential read in
  partial core-charges read in
  partial kinetic energy density read in
  atomic valenz-charges read in
  non local Contribution for L=           1  read in
    real space projection operators read in
  non local Contribution for L=           1  read in
    real space projection operators read in
  non local Contribution for L=           2  read in
    real space projection operators read in
  non local Contribution for L=           2  read in
    real space projection operators read in
  non local Contribution for L=           0  read in
    real space projection operators read in
  non local Contribution for L=           0  read in
    real space projection operators read in
    PAW grid and wavefunctions read in
 
   number of l-projection  operators is LMAX  =           6
   number of lm-projection operators is LMMAX =          18
 
 POTCAR:    PAW_PBE O 08Apr2002                   
   VRHFIN =O: s2p4                                                                                  
   LEXCH  = PE                                                                                      
   EATOM  =   432.3788 eV,   31.7789 Ry                                                             
                                                                                                    
   TITEL  = PAW_PBE O 08Apr2002                                                                     
   LULTRA =        F    use ultrasoft PP ?                                                          
   IUNSCR =        1    unscreen: 0-lin 1-nonlin 2-no                                               
   RPACOR =    1.200    partial core radius                                                         
   POMASS =   16.000; ZVAL   =    6.000    mass and valenz                                          
   RCORE  =    1.520    outmost cutoff radius                                                       
   RWIGS  =    1.550; RWIGS  =    0.820    wigner-seitz radius (au A)                               
   ENMAX  =  400.000; ENMIN  =  300.000 eV                                                          
   ICORE  =        2    local potential                                                             
   LCOR   =        T    correct aug charges                                                         
   LPAW   =        T    paw PP                                                                      
   EAUG   =  605.392                                                                                
   DEXC   =    0.000                                                                                
   RMAX   =    1.553    core radius for proj-oper                                                   
   RAUG   =    1.300    factor for augmentation sphere                                              
   RDEP   =    1.550    radius for radial grids                                                     
   RDEPT  =    1.329    core radius for aug-charge                                                  
                                                                                                    
   Atomic configuration                                                                             
    4 entries                                                                                       
     n  l   j            E        occ.                                                              
     1  0  0.50      -514.6923   2.0000                                                             
     2  0  0.50       -23.9615   2.0000                                                             
     2  1  0.50        -9.0305   4.0000                                                             
     3  2  1.50        -9.5241   0.0000                                                             
   Description                                                                                      
     l       E           TYP  RCUT    TYP  RCUT                                                     
     0    -23.9615318     23  1.200                                                                 
     0     -9.5240782     23  1.200                                                                 
     1     -9.0304911     23  1.520                                                                 
     1      8.1634956     23  1.520                                                                 
     2     -9.5240782      7  1.500                                                                 
  local pseudopotential read in
  partial core-charges read in
  partial kinetic energy density read in
  kinetic energy density of atom read in
  atomic valenz-charges read in
  non local Contribution for L=           0  read in
    real space projection operators read in
  non local Contribution for L=           0  read in
    real space projection operators read in
  non local Contribution for L=           1  read in
    real space projection operators read in
  non local Contribution for L=           1  read in
    real space projection operators read in
    PAW grid and wavefunctions read in
 
   number of l-projection  operators is LMAX  =           4
   number of lm-projection operators is LMMAX =           8
 
 Optimization of the real space projectors (new method)

 maximal supplied QI-value         = 16.25
 optimisation between [QCUT,QGAM] = [ 11.54, 23.24] = [ 37.28,151.24] Ry 
 Optimized for a Real-space Cutoff    1.58 Angstroem

   l    n(q)    QCUT    max X(q) W(low)/X(q) W(high)/X(q)  e(spline) 
   0     11    11.539    11.817    0.25E-04    0.22E-05    0.26E-07
   0     11    11.539     8.461    0.39E-04    0.49E-05    0.55E-07
   1     11    11.539     3.957    0.21E-05    0.44E-05    0.32E-07
   1     11    11.539     4.314    0.56E-04    0.44E-04    0.19E-06
   2     10    11.539    14.565    0.25E-03    0.21E-04    0.75E-06
   2     10    11.539    14.552    0.23E-03    0.22E-04    0.72E-06
 Optimization of the real space projectors (new method)

 maximal supplied QI-value         = 18.90
 optimisation between [QCUT,QGAM] = [ 11.53, 23.24] = [ 37.21,151.29] Ry 
 Optimized for a Real-space Cutoff    1.36 Angstroem

   l    n(q)    QCUT    max X(q) W(low)/X(q) W(high)/X(q)  e(spline) 
   1      9    11.527     2.836    0.16E-04    0.30E-04    0.95E-07
   1      9    11.527     4.023    0.73E-04    0.81E-04    0.21E-06
   2      9    11.527    73.368    0.15E-03    0.29E-03    0.28E-06
   2      9    11.527    69.010    0.15E-03    0.29E-03    0.29E-06
   0      9    11.527    54.797    0.43E-04    0.28E-04    0.85E-07
   0      9    11.527    24.266    0.33E-04    0.24E-04    0.75E-07
 Optimization of the real space projectors (new method)

 maximal supplied QI-value         = 24.76
 optimisation between [QCUT,QGAM] = [ 11.64, 23.27] = [ 37.91,151.63] Ry 
 Optimized for a Real-space Cutoff    1.14 Angstroem

   l    n(q)    QCUT    max X(q) W(low)/X(q) W(high)/X(q)  e(spline) 
   0      8    11.635    20.381    0.10E-03    0.33E-03    0.24E-06
   0      8    11.635    15.268    0.11E-03    0.35E-03    0.26E-06
   1      7    11.635     5.964    0.24E-03    0.31E-03    0.30E-06
   1      7    11.635     5.382    0.22E-03    0.25E-03    0.26E-06
  PAW_PBE Ca_sv 06Sep2000               :
 energy of atom  1       EATOM=-1006.0909
 kinetic energy error for atom=    0.0022 (will be added to EATOM!!)
  PAW_PBE Ni_pv 06Sep2000               :
 energy of atom  2       EATOM=-3501.1230
 kinetic energy error for atom=    0.0575 (will be added to EATOM!!)
  PAW_PBE O 08Apr2002                   :
 energy of atom  3       EATOM= -432.3788
 kinetic energy error for atom=    0.0208 (will be added to EATOM!!)
 
 
 POSCAR: Ca1 Ni4 O8
  positions in direct lattice
  velocities in cartesian coordinates

 METAGGA = SCAN     LMAXTAU =  6    LMIXTAU =  F

 exchange correlation table for  LEXCH =        8
   RHO(1)=    0.500       N(1)  =     2000
   RHO(2)=  100.500       N(2)  =     4000
 


--------------------------------------------------------------------------------------------------------


 ion  position               nearest neighbor table
   1  0.500  0.500  0.500-   8 2.35  11 2.35  10 2.35  13 2.35  12 2.35   9 2.35
   2  0.000  1.000  0.000-  12 1.99  10 1.99   9 1.99  13 1.99  11 2.00   8 2.00
   3  1.000  0.500  0.000-   8 1.86  11 1.86  13 1.86  10 1.86   6 1.88   7 1.88
   4  0.500  0.000  1.000-  11 1.86   8 1.86   9 1.86  12 1.86   7 1.89   6 1.89
   5  0.500  0.500  0.000-  10 1.86  12 1.86  13 1.86   9 1.86   6 1.89   7 1.89
   6  0.724  0.724  0.829-   3 1.88   4 1.89   5 1.89
   7  0.276  0.276  0.171-   3 1.88   4 1.89   5 1.89
   8  0.237  0.237  0.822-   3 1.86   4 1.86   2 2.00   1 2.35
   9  0.705  0.237  0.822-   4 1.86   5 1.86   2 1.99   1 2.35
  10  0.237  0.705  0.822-   3 1.86   5 1.86   2 1.99   1 2.35
  11  0.763  0.763  0.178-   4 1.86   3 1.86   2 2.00   1 2.35
  12  0.295  0.763  0.178-   4 1.86   5 1.86   2 1.99   1 2.35
  13  0.763  0.295  0.178-   3 1.86   5 1.86   2 1.99   1 2.35
 

IMPORTANT INFORMATION: All symmetrisations will be switched off!
NOSYMM: (Re-)initialisation of all symmetry stuff for point group C_1.


----------------------------------------------------------------------------------------

                                     Primitive cell                                     

  volume of cell :     152.9726

  direct lattice vectors                    reciprocal lattice vectors
    -2.824135115 -4.880443219 -0.007435899     0.000122770 -0.205062017  0.060088346
    -5.638673907 -0.005541768 -0.007391537    -0.177526300  0.102636470  0.060085829
    -2.828246166 -1.632927474 -5.566872738     0.000235550  0.000137632 -0.179794111

  length of vectors
     5.638663003  5.638681475  6.454107266     0.213684476  0.213682332  0.179794318

  position of ions in fractional coordinates (direct lattice)
     0.499995662  0.500003786  0.500000274
     0.000003684  0.999996197  0.000000321
     0.999989955  0.499968334  0.000004864
     0.500030994  0.000009872  0.999995828
     0.499992029  0.500007743  0.000000379
     0.723883031  0.723849441  0.828777919
     0.276109171  0.276155929  0.171224726
     0.236920085  0.236923323  0.821808267
     0.704852404  0.236869311  0.821707021
     0.236898664  0.704824008  0.821729729
     0.763057885  0.763100763  0.178189010
     0.295150387  0.763116949  0.178287551
     0.763116048  0.295174343  0.178274110

  ion indices of the primitive-cell ions
   primitive index   ion index
                 1           1
                 2           2
                 3           3
                 4           4
                 5           5
                 6           6
                 7           7
                 8           8
                 9           9
                10          10
                11          11
                12          12
                13          13

----------------------------------------------------------------------------------------

 
 
 KPOINTS: K-points file                           

Automatic generation of k-mesh.
Space group operators:
 irot       det(A)        alpha          n_x          n_y          n_z        tau_x        tau_y        tau_z
    1     1.000000     0.000000     1.000000     0.000000     0.000000     0.000000     0.000000     0.000000
 
 Subroutine IBZKPT returns following result:
 ===========================================
 
 Found    128 irreducible k-points:
 
 Following reciprocal coordinates:
            Coordinates               Weight
  0.000000  0.000000  0.000000      1.000000
  0.142857  0.000000 -0.000000      2.000000
  0.285714  0.000000 -0.000000      2.000000
  0.428571  0.000000  0.000000      2.000000
 -0.000000  0.166667 -0.000000      2.000000
  0.142857  0.166667 -0.000000      2.000000
  0.285714  0.166667  0.000000      2.000000
  0.428571  0.166667  0.000000      2.000000
 -0.428571  0.166667  0.000000      2.000000
 -0.285714  0.166667  0.000000      2.000000
 -0.142857  0.166667 -0.000000      2.000000
 -0.000000  0.333333 -0.000000      2.000000
  0.142857  0.333333  0.000000      2.000000
  0.285714  0.333333  0.000000      2.000000
  0.428571  0.333333 -0.000000      2.000000
 -0.428571  0.333333 -0.000000      2.000000
 -0.285714  0.333333 -0.000000      2.000000
 -0.142857  0.333333  0.000000      2.000000
  0.000000  0.500000  0.000000      1.000000
  0.142857  0.500000  0.000000      2.000000
  0.285714  0.500000 -0.000000      2.000000
  0.428571  0.500000 -0.000000      2.000000
 -0.000000  0.000000  0.166667      2.000000
  0.142857  0.000000  0.166667      2.000000
  0.285714  0.000000  0.166667      2.000000
  0.428571  0.000000  0.166667      2.000000
 -0.428571 -0.000000  0.166667      2.000000
 -0.285714 -0.000000  0.166667      2.000000
 -0.142857 -0.000000  0.166667      2.000000
  0.000000  0.166667  0.166667      2.000000
  0.142857  0.166667  0.166667      2.000000
  0.285714  0.166667  0.166667      2.000000
  0.428571  0.166667  0.166667      2.000000
 -0.428571  0.166667  0.166667      2.000000
 -0.285714  0.166667  0.166667      2.000000
 -0.142857  0.166667  0.166667      2.000000
  0.000000  0.333333  0.166667      2.000000
  0.142857  0.333333  0.166667      2.000000
  0.285714  0.333333  0.166667      2.000000
  0.428571  0.333333  0.166667      2.000000
 -0.428571  0.333333  0.166667      2.000000
 -0.285714  0.333333  0.166667      2.000000
 -0.142857  0.333333  0.166667      2.000000
 -0.000000  0.500000  0.166667      2.000000
  0.142857  0.500000  0.166667      2.000000
  0.285714  0.500000  0.166667      2.000000
  0.428571  0.500000  0.166667      2.000000
 -0.428571  0.500000  0.166667      2.000000
 -0.285714  0.500000  0.166667      2.000000
 -0.142857  0.500000  0.166667      2.000000
 -0.000000 -0.333333  0.166667      2.000000
  0.142857 -0.333333  0.166667      2.000000
  0.285714 -0.333333  0.166667      2.000000
  0.428571 -0.333333  0.166667      2.000000
 -0.428571 -0.333333  0.166667      2.000000
 -0.285714 -0.333333  0.166667      2.000000
 -0.142857 -0.333333  0.166667      2.000000
  0.000000 -0.166667  0.166667      2.000000
  0.142857 -0.166667  0.166667      2.000000
  0.285714 -0.166667  0.166667      2.000000
  0.428571 -0.166667  0.166667      2.000000
 -0.428571 -0.166667  0.166667      2.000000
 -0.285714 -0.166667  0.166667      2.000000
 -0.142857 -0.166667  0.166667      2.000000
 -0.000000  0.000000  0.333333      2.000000
  0.142857 -0.000000  0.333333      2.000000
  0.285714  0.000000  0.333333      2.000000
  0.428571  0.000000  0.333333      2.000000
 -0.428571 -0.000000  0.333333      2.000000
 -0.285714 -0.000000  0.333333      2.000000
 -0.142857 -0.000000  0.333333      2.000000
  0.000000  0.166667  0.333333      2.000000
  0.142857  0.166667  0.333333      2.000000
  0.285714  0.166667  0.333333      2.000000
  0.428571  0.166667  0.333333      2.000000
 -0.428571  0.166667  0.333333      2.000000
 -0.285714  0.166667  0.333333      2.000000
 -0.142857  0.166667  0.333333      2.000000
 -0.000000  0.333333  0.333333      2.000000
  0.142857  0.333333  0.333333      2.000000
  0.285714  0.333333  0.333333      2.000000
  0.428571  0.333333  0.333333      2.000000
 -0.428571  0.333333  0.333333      2.000000
 -0.285714  0.333333  0.333333      2.000000
 -0.142857  0.333333  0.333333      2.000000
  0.000000  0.500000  0.333333      2.000000
  0.142857  0.500000  0.333333      2.000000
  0.285714  0.500000  0.333333      2.000000
  0.428571  0.500000  0.333333      2.000000
 -0.428571  0.500000  0.333333      2.000000
 -0.285714  0.500000  0.333333      2.000000
 -0.142857  0.500000  0.333333      2.000000
  0.000000 -0.333333  0.333333      2.000000
  0.142857 -0.333333  0.333333      2.000000
  0.285714 -0.333333  0.333333      2.000000
  0.428571 -0.333333  0.333333      2.000000
 -0.428571 -0.333333  0.333333      2.000000
 -0.285714 -0.333333  0.333333      2.000000
 -0.142857 -0.333333  0.333333      2.000000
  0.000000 -0.166667  0.333333      2.000000
  0.142857 -0.166667  0.333333      2.000000
  0.285714 -0.166667  0.333333      2.000000
  0.428571 -0.166667  0.333333      2.000000
 -0.428571 -0.166667  0.333333      2.000000
 -0.285714 -0.166667  0.333333      2.000000
 -0.142857 -0.166667  0.333333      2.000000
 -0.000000  0.000000  0.500000      1.000000
  0.142857  0.000000  0.500000      2.000000
  0.285714  0.000000  0.500000      2.000000
  0.428571  0.000000  0.500000      2.000000
  0.000000  0.166667  0.500000      2.000000
  0.142857  0.166667  0.500000      2.000000
  0.285714  0.166667  0.500000      2.000000
  0.428571  0.166667  0.500000      2.000000
 -0.428571  0.166667  0.500000      2.000000
 -0.285714  0.166667  0.500000      2.000000
 -0.142857  0.166667  0.500000      2.000000
 -0.000000  0.333333  0.500000      2.000000
  0.142857  0.333333  0.500000      2.000000
  0.285714  0.333333  0.500000      2.000000
  0.428571  0.333333  0.500000      2.000000
 -0.428571  0.333333  0.500000      2.000000
 -0.285714  0.333333  0.500000      2.000000
 -0.142857  0.333333  0.500000      2.000000
 -0.000000  0.500000  0.500000      1.000000
  0.142857  0.500000  0.500000      2.000000
  0.285714  0.500000  0.500000      2.000000
  0.428571  0.500000  0.500000      2.000000
 
 Following cartesian coordinates:
            Coordinates               Weight
  0.000000  0.000000  0.000000      1.000000
  0.000018 -0.029295  0.008584      2.000000
  0.000035 -0.058589  0.017168      2.000000
  0.000053 -0.087884  0.025752      2.000000
 -0.029588  0.017106  0.010014      2.000000
 -0.029570 -0.012188  0.018598      2.000000
 -0.029553 -0.041483  0.027182      2.000000
 -0.029535 -0.070778  0.035766      2.000000
 -0.029640  0.104990 -0.015738      2.000000
 -0.029623  0.075695 -0.007154      2.000000
 -0.029605  0.046401  0.001430      2.000000
 -0.059175  0.034212  0.020029      2.000000
 -0.059158  0.004918  0.028613      2.000000
 -0.059140 -0.024377  0.037197      2.000000
 -0.059123 -0.053672  0.045781      2.000000
 -0.059228  0.122096 -0.005724      2.000000
 -0.059211  0.092801  0.002861      2.000000
 -0.059193  0.063507  0.011445      2.000000
 -0.088763  0.051318  0.030043      1.000000
 -0.088746  0.022024  0.038627      2.000000
 -0.088728 -0.007271  0.047211      2.000000
 -0.088711 -0.036565  0.055795      2.000000
  0.000039  0.000023 -0.029966      2.000000
  0.000057 -0.029272 -0.021382      2.000000
  0.000074 -0.058566 -0.012798      2.000000
  0.000092 -0.087861 -0.004214      2.000000
 -0.000013  0.087907 -0.055718      2.000000
  0.000004  0.058612 -0.047134      2.000000
  0.000022  0.029318 -0.038550      2.000000
 -0.029548  0.017129 -0.019951      2.000000
 -0.029531 -0.012166 -0.011367      2.000000
 -0.029513 -0.041460 -0.002783      2.000000
 -0.029496 -0.070755  0.005801      2.000000
 -0.029601  0.105013 -0.045704      2.000000
 -0.029584  0.075718 -0.037119      2.000000
 -0.029566  0.046424 -0.028535      2.000000
 -0.059136  0.034235 -0.009937      2.000000
 -0.059119  0.004941 -0.001353      2.000000
 -0.059101 -0.024354  0.007231      2.000000
 -0.059084 -0.053649  0.015815      2.000000
 -0.059189  0.122119 -0.035689      2.000000
 -0.059171  0.092824 -0.027105      2.000000
 -0.059154  0.063530 -0.018521      2.000000
 -0.088724  0.051341  0.000077      2.000000
 -0.088706  0.022047  0.008661      2.000000
 -0.088689 -0.007248  0.017245      2.000000
 -0.088671 -0.036543  0.025829      2.000000
 -0.088777  0.139225 -0.025675      2.000000
 -0.088759  0.109930 -0.017091      2.000000
 -0.088741  0.080636 -0.008507      2.000000
  0.059215 -0.034189 -0.049994      2.000000
  0.059232 -0.063484 -0.041410      2.000000
  0.059250 -0.092778 -0.032826      2.000000
  0.059267 -0.122073 -0.024242      2.000000
  0.059162  0.053695 -0.075746      2.000000
  0.059180  0.024400 -0.067162      2.000000
  0.059197 -0.004895 -0.058578      2.000000
  0.029627 -0.017083 -0.039980      2.000000
  0.029645 -0.046378 -0.031396      2.000000
  0.029662 -0.075672 -0.022812      2.000000
  0.029680 -0.104967 -0.014228      2.000000
  0.029574  0.070801 -0.065732      2.000000
  0.029592  0.041506 -0.057148      2.000000
  0.029609  0.012211 -0.048564      2.000000
  0.000079  0.000046 -0.059931      2.000000
  0.000096 -0.029249 -0.051347      2.000000
  0.000114 -0.058543 -0.042763      2.000000
  0.000131 -0.087838 -0.034179      2.000000
  0.000026  0.087930 -0.085684      2.000000
  0.000043  0.058635 -0.077099      2.000000
  0.000061  0.029340 -0.068515      2.000000
 -0.029509  0.017152 -0.049917      2.000000
 -0.029492 -0.012143 -0.041333      2.000000
 -0.029474 -0.041437 -0.032749      2.000000
 -0.029457 -0.070732 -0.024165      2.000000
 -0.029562  0.105036 -0.075669      2.000000
 -0.029544  0.075741 -0.067085      2.000000
 -0.029527  0.046447 -0.058501      2.000000
 -0.059097  0.034258 -0.039903      2.000000
 -0.059079  0.004963 -0.031319      2.000000
 -0.059062 -0.024331 -0.022735      2.000000
 -0.059044 -0.053626 -0.014151      2.000000
 -0.059150  0.122142 -0.065655      2.000000
 -0.059132  0.092847 -0.057071      2.000000
 -0.059114  0.063553 -0.048487      2.000000
 -0.088685  0.051364 -0.029888      2.000000
 -0.088667  0.022070 -0.021304      2.000000
 -0.088650 -0.007225 -0.012720      2.000000
 -0.088632 -0.036520 -0.004136      2.000000
 -0.088737  0.139248 -0.055641      2.000000
 -0.088720  0.109953 -0.047057      2.000000
 -0.088702  0.080659 -0.038473      2.000000
  0.059254 -0.034166 -0.079960      2.000000
  0.059271 -0.063461 -0.071376      2.000000
  0.059289 -0.092755 -0.062792      2.000000
  0.059307 -0.122050 -0.054208      2.000000
  0.059201  0.053717 -0.105712      2.000000
  0.059219  0.024423 -0.097128      2.000000
  0.059236 -0.004872 -0.088544      2.000000
  0.029666 -0.017060 -0.069946      2.000000
  0.029684 -0.046355 -0.061362      2.000000
  0.029701 -0.075649 -0.052778      2.000000
  0.029719 -0.104944 -0.044194      2.000000
  0.029614  0.070824 -0.095698      2.000000
  0.029631  0.041529 -0.087114      2.000000
  0.029649  0.012234 -0.078530      2.000000
  0.000118  0.000069 -0.089897      1.000000
  0.000135 -0.029226 -0.081313      2.000000
  0.000153 -0.058520 -0.072729      2.000000
  0.000170 -0.087815 -0.064145      2.000000
 -0.029470  0.017175 -0.079883      2.000000
 -0.029452 -0.012120 -0.071299      2.000000
 -0.029435 -0.041414 -0.062715      2.000000
 -0.029417 -0.070709 -0.054131      2.000000
 -0.029523  0.105059 -0.105635      2.000000
 -0.029505  0.075764 -0.097051      2.000000
 -0.029487  0.046469 -0.088467      2.000000
 -0.059058  0.034281 -0.069868      2.000000
 -0.059040  0.004986 -0.061284      2.000000
 -0.059023 -0.024308 -0.052700      2.000000
 -0.059005 -0.053603 -0.044116      2.000000
 -0.059110  0.122165 -0.095621      2.000000
 -0.059093  0.092870 -0.087037      2.000000
 -0.059075  0.063576 -0.078452      2.000000
 -0.088645  0.051387 -0.059854      1.000000
 -0.088628  0.022092 -0.051270      2.000000
 -0.088610 -0.007202 -0.042686      2.000000
 -0.088593 -0.036497 -0.034102      2.000000
 


--------------------------------------------------------------------------------------------------------




 Dimension of arrays:
   k-points           NKPTS =    128   k-points in BZ     NKDIM =    128   number of bands    NBANDS=     75
   number of dos      NEDOS =    301   number of ions     NIONS =     13
   non local maximal  LDIM  =      6   non local SUM 2l+1 LMDIM =     18
   total plane-waves  NPLWV =  84672
   max r-space proj   IRMAX =   9192   max aug-charges    IRDMAX=  26605
   dimension x,y,z NGX =    42 NGY =   42 NGZ =   48
   dimension x,y,z NGXF=    84 NGYF=   84 NGZF=   96
   support grid    NGXF=    84 NGYF=   84 NGZF=   96
   ions per type =               1   4   8
   NGX,Y,Z   is equivalent  to a cutoff of  12.38, 12.38, 12.36 a.u.
   NGXF,Y,Z  is equivalent  to a cutoff of  24.77, 24.77, 24.73 a.u.

 SYSTEM =  unknown system                          
 POSCAR =  Ca1 Ni4 O8                              

 Startparameter for this run:
   NWRITE =      2    write-flag & timer
   PREC   = accura    normal or accurate (medium, high low for compatibility)
   ISTART =      0    job   : 0-new  1-cont  2-samecut
   ICHARG =      1    charge: 1-file 2-atom 10-const
   ISPIN  =      2    spin polarized calculation?
   LNONCOLLINEAR =      F non collinear calculations
   LSORBIT =      F    spin-orbit coupling
   INIWAV =      1    electr: 0-lowe 1-rand  2-diag
   LASPH  =      T    aspherical Exc in radial PAW
   METAGGA=      F    non-selfconsistent MetaGGA calc.

 Electronic Relaxation 1
   ENCUT  =  520.0 eV  38.22 Ry    6.18 a.u.  10.48 10.48 12.00*2*pi/ulx,y,z
   ENINI  =  520.0     initial cutoff
   ENAUG  =  703.4 eV  augmentation charge cutoff
   NELM   =    100;   NELMIN=  6; NELMDL= -5     # of ELM steps 
   EDIFF  = 0.1E-04   stopping-criterion for ELM
   LREAL  =      T    real-space projection
   NLSPLINE    = F    spline interpolate recip. space projectors
   LCOMPAT=      F    compatible to vasp.4.4
   GGA_COMPAT  = T    GGA compatible to vasp.4.4-vasp.4.6
   LMAXPAW     = -100 max onsite density
   LMAXMIX     =    4 max onsite mixed and CHGCAR
   VOSKOWN=      0    Vosko Wilk Nusair interpolation
   ROPT   =   -0.00025  -0.00025  -0.00025
 Ionic relaxation
   EDIFFG = -.3E-01   stopping-criterion for IOM
   NSW    =     99    number of steps for IOM
   NBLOCK =      1;   KBLOCK =     99    inner block; outer block 
   IBRION =      2    ionic relax: 0-MD 1-quasi-New 2-CG
   NFREE  =      1    steps in history (QN), initial steepest desc. (CG)
   ISIF   =      3    stress and relaxation
   IWAVPR =     11    prediction:  0-non 1-charg 2-wave 3-comb
   ISYM   =      0    0-nonsym 1-usesym 2-fastsym
   LCORR  =      T    Harris-Foulkes like correction to forces

   POTIM  = 0.5000    time-step for ionic-motion
   TEIN   =    0.0    initial temperature
   TEBEG  =    0.0;   TEEND  =   0.0 temperature during run
   SMASS  =  -3.00    Nose mass-parameter (am)
   estimated Nose-frequenzy (Omega)   =  0.10E-29 period in steps = 0.13E+47 mass=  -0.727E-27a.u.
   SCALEE = 1.0000    scale energy and forces
   NPACO  =    256;   APACO  = 16.0  distance and # of slots for P.C.
   PSTRESS=    0.0 pullay stress

  Mass of Ions in am
   POMASS =  40.08 58.69 16.00
  Ionic Valenz
   ZVAL   =  10.00 16.00  6.00
  Atomic Wigner-Seitz radii
   RWIGS  =  -1.00 -1.00 -1.00
  virtual crystal weights 
   VCA    =   1.00  1.00  1.00
   NELECT =     122.0000    total number of electrons
   NUPDOWN=      -1.0000    fix difference up-down

 DOS related values:
   EMIN   =  10.00;   EMAX   =-10.00  energy-range for DOS
   EFERMI =   0.00
   ISMEAR =     0;   SIGMA  =   0.05  broadening in eV -4-tet -1-fermi 0-gaus

 Electronic relaxation 2 (details)
   IALGO  =     38    algorithm
   LDIAG  =      T    sub-space diagonalisation (order eigenvalues)
   LSUBROT=      F    optimize rotation matrix (better conditioning)
   TURBO    =      0    0=normal 1=particle mesh
   IRESTART =      0    0=no restart 2=restart with 2 vectors
   NREBOOT  =      0    no. of reboots
   NMIN     =      0    reboot dimension
   EREF     =   0.00    reference energy to select bands
   IMIX   =      4    mixing-type and parameters
     AMIX     =   0.40;   BMIX     =  1.00
     AMIX_MAG =   1.60;   BMIX_MAG =  1.00
     AMIN     =   0.10
     WC   =   100.;   INIMIX=   1;  MIXPRE=   1;  MAXMIX= -45

 Intra band minimization:
   WEIMIN = 0.0010     energy-eigenvalue tresh-hold
   EBREAK =  0.33E-07  absolut break condition
   DEPER  =   0.30     relativ break condition  

   TIME   =   0.40     timestep for ELM

  volume/ion in A,a.u.               =      11.77        79.41
  Fermi-wavevector in a.u.,A,eV,Ry     =   1.518181  2.868946 31.359706  2.304873
  Thomas-Fermi vector in A             =   2.627336
 
 Write flags
   LWAVE        =      F    write WAVECAR
   LDOWNSAMPLE  =      F    k-point downsampling of WAVECAR
   LCHARG       =      T    write CHGCAR
   LVTOT        =      F    write LOCPOT, total local potential
   LVHAR        =      F    write LOCPOT, Hartree potential only
   LELF         =      F    write electronic localiz. function (ELF)
   LORBIT       =     11    0 simple, 1 ext, 2 COOP (PROOUT), +10 PAW based schemes


 Dipole corrections
   LMONO  =      F    monopole corrections only (constant potential shift)
   LDIPOL =      F    correct potential (dipole corrections)
   IDIPOL =      0    1-x, 2-y, 3-z, 4-all directions 
   EPSILON=  1.0000000 bulk dielectric constant

 LDA+U is selected, type is set to LDAUTYPE =  2
   angular momentum for each species LDAUL =    -1    2   -1
   U (eV)           for each species LDAUU =   0.0  2.5  0.0
   J (eV)           for each species LDAUJ =   0.0  0.0  0.0
 Exchange correlation treatment:
   GGA     =    --    GGA type
   LEXCH   =     8    internal setting for exchange type
   VOSKOWN=      0    Vosko Wilk Nusair interpolation
   LHFCALC =     F    Hartree Fock is set to
   LHFONE  =     F    Hartree Fock one center treatment
   AEXX    =    0.0000 exact exchange contribution

 Linear response parameters
   LEPSILON=     F    determine dielectric tensor
   LRPA    =     F    only Hartree local field effects (RPA)
   LNABLA  =     F    use nabla operator in PAW spheres
   LVEL    =     F    velocity operator in full k-point grid
   LINTERFAST=   F  fast interpolation
   KINTER  =     0    interpolate to denser k-point grid
   CSHIFT  =0.1000    complex shift for real part using Kramers Kronig
   OMEGAMAX=  -1.0    maximum frequency
   DEG_THRESHOLD= 0.2000000E-02 threshold for treating states as degnerate
   RTIME   =   -0.100 relaxation time in fs
  (WPLASMAI=    0.000 imaginary part of plasma frequency in eV, 0.658/RTIME)
   DFIELD  = 0.0000000 0.0000000 0.0000000 field for delta impulse in time
 
 Orbital magnetization related:
   ORBITALMAG=     F  switch on orbital magnetization
   LCHIMAG   =     F  perturbation theory with respect to B field
   DQ        =  0.001000  dq finite difference perturbation B field
   LLRAUG    =     F  two centre corrections for induced B field



--------------------------------------------------------------------------------------------------------


 conjugate gradient relaxation of ions
 charge density and potential will be updated during run
 spin polarized calculation
 Variant of blocked Davidson
 Davidson routine will perform the subspace rotation
 perform sub-space diagonalisation
    after iterative eigenvector-optimisation
 modified Broyden-mixing scheme, WC =      100.0
 initial mixing is a Kerker type mixing with AMIX =  0.4000 and BMIX =      1.0000
 Hartree-type preconditioning will be used
 using additional bands           14
 real space projection scheme for non local part
 use partial core corrections
 calculate Harris-corrections to forces 
   (improved forces if not selfconsistent)
 use gradient corrections 
 use of overlap-Matrix (Vanderbilt PP)
 Gauss-broadening in eV      SIGMA  =   0.05


--------------------------------------------------------------------------------------------------------


  energy-cutoff  :      520.00
  volume of cell :      152.97
      direct lattice vectors                 reciprocal lattice vectors
    -2.824135115 -4.880443219 -0.007435899     0.000122770 -0.205062017  0.060088346
    -5.638673907 -0.005541768 -0.007391537    -0.177526300  0.102636470  0.060085829
    -2.828246166 -1.632927474 -5.566872738     0.000235550  0.000137632 -0.179794111

  length of vectors
     5.638663003  5.638681475  6.454107266     0.213684476  0.213682332  0.179794318


 
 k-points in units of 2pi/SCALE and weight: K-points file                           
   0.00000000  0.00000000  0.00000000       0.004
   0.00001754 -0.02929457  0.00858405       0.008
   0.00003508 -0.05858915  0.01716810       0.008
   0.00005262 -0.08788372  0.02575215       0.008
  -0.02958772  0.01710608  0.01001430       0.008
  -0.02957018 -0.01218850  0.01859835       0.008
  -0.02955264 -0.04148307  0.02718240       0.008
  -0.02953510 -0.07077764  0.03576645       0.008
  -0.02964033  0.10498980 -0.01573784       0.008
  -0.02962279  0.07569523 -0.00715379       0.008
  -0.02960526  0.04640065  0.00143026       0.008
  -0.05917543  0.03421216  0.02002861       0.008
  -0.05915789  0.00491758  0.02861266       0.008
  -0.05914036 -0.02437699  0.03719671       0.008
  -0.05912282 -0.05367156  0.04578076       0.008
  -0.05922805  0.12209588 -0.00572354       0.008
  -0.05921051  0.09280130  0.00286051       0.008
  -0.05919297  0.06350673  0.01144456       0.008
  -0.08876315  0.05131824  0.03004291       0.004
  -0.08874561  0.02202366  0.03862696       0.008
  -0.08872807 -0.00727091  0.04721101       0.008
  -0.08871053 -0.03656549  0.05579506       0.008
   0.00003926  0.00002294 -0.02996569       0.008
   0.00005680 -0.02927164 -0.02138164       0.008
   0.00007434 -0.05856621 -0.01279759       0.008
   0.00009187 -0.08786078 -0.00421354       0.008
  -0.00001336  0.08790666 -0.05571783       0.008
   0.00000418  0.05861209 -0.04713378       0.008
   0.00002172  0.02931751 -0.03854973       0.008
  -0.02954846  0.01712902 -0.01995138       0.008
  -0.02953092 -0.01216556 -0.01136733       0.008
  -0.02951338 -0.04146013 -0.00278328       0.008
  -0.02949584 -0.07075470  0.00580077       0.008
  -0.02960107  0.10501274 -0.04570353       0.008
  -0.02958354  0.07571816 -0.03711948       0.008
  -0.02956600  0.04642359 -0.02853543       0.008
  -0.05913617  0.03423510 -0.00993708       0.008
  -0.05911864  0.00494052 -0.00135303       0.008
  -0.05910110 -0.02435405  0.00723102       0.008
  -0.05908356 -0.05364863  0.01581507       0.008
  -0.05918879  0.12211882 -0.03568922       0.008
  -0.05917125  0.09282424 -0.02710517       0.008
  -0.05915371  0.06352967 -0.01852112       0.008
  -0.08872389  0.05134117  0.00007723       0.008
  -0.08870635  0.02204660  0.00866128       0.008
  -0.08868881 -0.00724797  0.01724533       0.008
  -0.08867128 -0.03654255  0.02582938       0.008
  -0.08877651  0.13922490 -0.02567492       0.008
  -0.08875897  0.10993032 -0.01709087       0.008
  -0.08874143  0.08063575 -0.00850682       0.008
   0.05921469 -0.03418922 -0.04999429       0.008
   0.05923223 -0.06348379 -0.04141025       0.008
   0.05924977 -0.09277837 -0.03282620       0.008
   0.05926731 -0.12207294 -0.02424215       0.008
   0.05916208  0.05369450 -0.07574644       0.008
   0.05917961  0.02439993 -0.06716239       0.008
   0.05919715 -0.00489464 -0.05857834       0.008
   0.02962698 -0.01708314 -0.03997999       0.008
   0.02964451 -0.04637771 -0.03139594       0.008
   0.02966205 -0.07567229 -0.02281189       0.008
   0.02967959 -0.10496686 -0.01422784       0.008
   0.02957436  0.07080058 -0.06573214       0.008
   0.02959190  0.04150601 -0.05714809       0.008
   0.02960944  0.01221143 -0.04856404       0.008
   0.00007852  0.00004588 -0.05993137       0.008
   0.00009606 -0.02924870 -0.05134732       0.008
   0.00011359 -0.05854327 -0.04276327       0.008
   0.00013113 -0.08783784 -0.03417922       0.008
   0.00002590  0.08792960 -0.08568352       0.008
   0.00004344  0.05863503 -0.07709947       0.008
   0.00006098  0.02934045 -0.06851542       0.008
  -0.02950920  0.01715196 -0.04991707       0.008
  -0.02949166 -0.01214262 -0.04133302       0.008
  -0.02947412 -0.04143719 -0.03274897       0.008
  -0.02945658 -0.07073177 -0.02416492       0.008
  -0.02956182  0.10503568 -0.07566921       0.008
  -0.02954428  0.07574110 -0.06708516       0.008
  -0.02952674  0.04644653 -0.05850112       0.008
  -0.05909692  0.03425803 -0.03990276       0.008
  -0.05907938  0.00496346 -0.03131871       0.008
  -0.05906184 -0.02433111 -0.02273466       0.008
  -0.05904430 -0.05362569 -0.01415061       0.008
  -0.05914953  0.12214176 -0.06565491       0.008
  -0.05913199  0.09284718 -0.05707086       0.008
  -0.05911446  0.06355261 -0.04848681       0.008
  -0.08868463  0.05136411 -0.02988846       0.008
  -0.08866709  0.02206954 -0.02130441       0.008
  -0.08864956 -0.00722504 -0.01272036       0.008
  -0.08863202 -0.03651961 -0.00413631       0.008
  -0.08873725  0.13924783 -0.05564060       0.008
  -0.08871971  0.10995326 -0.04705655       0.008
  -0.08870217  0.08065869 -0.03847251       0.008
   0.05925395 -0.03416628 -0.07995998       0.008
   0.05927149 -0.06346085 -0.07137593       0.008
   0.05928903 -0.09275543 -0.06279188       0.008
   0.05930657 -0.12205000 -0.05420783       0.008
   0.05920133  0.05371744 -0.10571213       0.008
   0.05921887  0.02442287 -0.09712808       0.008
   0.05923641 -0.00487171 -0.08854403       0.008
   0.02966623 -0.01706020 -0.06994568       0.008
   0.02968377 -0.04635477 -0.06136163       0.008
   0.02970131 -0.07564935 -0.05277758       0.008
   0.02971885 -0.10494392 -0.04419353       0.008
   0.02961362  0.07082352 -0.09569782       0.008
   0.02963116  0.04152895 -0.08711377       0.008
   0.02964869  0.01223437 -0.07852972       0.008
   0.00011778  0.00006882 -0.08989706       0.004
   0.00013531 -0.02922576 -0.08131301       0.008
   0.00015285 -0.05852033 -0.07272896       0.008
   0.00017039 -0.08781491 -0.06414491       0.008
  -0.02946994  0.01717489 -0.07988275       0.008
  -0.02945240 -0.01211968 -0.07129870       0.008
  -0.02943486 -0.04141425 -0.06271465       0.008
  -0.02941733 -0.07070883 -0.05413060       0.008
  -0.02952256  0.10505862 -0.10563490       0.008
  -0.02950502  0.07576404 -0.09705085       0.008
  -0.02948748  0.04646947 -0.08846680       0.008
  -0.05905766  0.03428097 -0.06986845       0.008
  -0.05904012  0.00498640 -0.06128440       0.008
  -0.05902258 -0.02430818 -0.05270035       0.008
  -0.05900504 -0.05360275 -0.04411630       0.008
  -0.05911027  0.12216469 -0.09562059       0.008
  -0.05909274  0.09287012 -0.08703654       0.008
  -0.05907520  0.06357555 -0.07845250       0.008
  -0.08864537  0.05138705 -0.05985414       0.004
  -0.08862784  0.02209248 -0.05127009       0.008
  -0.08861030 -0.00720210 -0.04268604       0.008
  -0.08859276 -0.03649667 -0.03410199       0.008
 
 k-points in reciprocal lattice and weights: K-points file                           
   0.00000000  0.00000000  0.00000000       0.004
   0.14285714  0.00000000 -0.00000000       0.008
   0.28571429  0.00000000 -0.00000000       0.008
   0.42857143  0.00000000  0.00000000       0.008
  -0.00000000  0.16666667 -0.00000000       0.008
   0.14285714  0.16666667 -0.00000000       0.008
   0.28571429  0.16666667  0.00000000       0.008
   0.42857143  0.16666667  0.00000000       0.008
  -0.42857143  0.16666667  0.00000000       0.008
  -0.28571429  0.16666667  0.00000000       0.008
  -0.14285714  0.16666667 -0.00000000       0.008
  -0.00000000  0.33333333 -0.00000000       0.008
   0.14285714  0.33333333  0.00000000       0.008
   0.28571429  0.33333333  0.00000000       0.008
   0.42857143  0.33333333 -0.00000000       0.008
  -0.42857143  0.33333333 -0.00000000       0.008
  -0.28571429  0.33333333 -0.00000000       0.008
  -0.14285714  0.33333333  0.00000000       0.008
   0.00000000  0.50000000  0.00000000       0.004
   0.14285714  0.50000000  0.00000000       0.008
   0.28571429  0.50000000 -0.00000000       0.008
   0.42857143  0.50000000 -0.00000000       0.008
  -0.00000000  0.00000000  0.16666667       0.008
   0.14285714  0.00000000  0.16666667       0.008
   0.28571429  0.00000000  0.16666667       0.008
   0.42857143  0.00000000  0.16666667       0.008
  -0.42857143 -0.00000000  0.16666667       0.008
  -0.28571429 -0.00000000  0.16666667       0.008
  -0.14285714 -0.00000000  0.16666667       0.008
   0.00000000  0.16666667  0.16666667       0.008
   0.14285714  0.16666667  0.16666667       0.008
   0.28571429  0.16666667  0.16666667       0.008
   0.42857143  0.16666667  0.16666667       0.008
  -0.42857143  0.16666667  0.16666667       0.008
  -0.28571429  0.16666667  0.16666667       0.008
  -0.14285714  0.16666667  0.16666667       0.008
   0.00000000  0.33333333  0.16666667       0.008
   0.14285714  0.33333333  0.16666667       0.008
   0.28571429  0.33333333  0.16666667       0.008
   0.42857143  0.33333333  0.16666667       0.008
  -0.42857143  0.33333333  0.16666667       0.008
  -0.28571429  0.33333333  0.16666667       0.008
  -0.14285714  0.33333333  0.16666667       0.008
  -0.00000000  0.50000000  0.16666667       0.008
   0.14285714  0.50000000  0.16666667       0.008
   0.28571429  0.50000000  0.16666667       0.008
   0.42857143  0.50000000  0.16666667       0.008
  -0.42857143  0.50000000  0.16666667       0.008
  -0.28571429  0.50000000  0.16666667       0.008
  -0.14285714  0.50000000  0.16666667       0.008
  -0.00000000 -0.33333333  0.16666667       0.008
   0.14285714 -0.33333333  0.16666667       0.008
   0.28571429 -0.33333333  0.16666667       0.008
   0.42857143 -0.33333333  0.16666667       0.008
  -0.42857143 -0.33333333  0.16666667       0.008
  -0.28571429 -0.33333333  0.16666667       0.008
  -0.14285714 -0.33333333  0.16666667       0.008
   0.00000000 -0.16666667  0.16666667       0.008
   0.14285714 -0.16666667  0.16666667       0.008
   0.28571429 -0.16666667  0.16666667       0.008
   0.42857143 -0.16666667  0.16666667       0.008
  -0.42857143 -0.16666667  0.16666667       0.008
  -0.28571429 -0.16666667  0.16666667       0.008
  -0.14285714 -0.16666667  0.16666667       0.008
  -0.00000000  0.00000000  0.33333333       0.008
   0.14285714 -0.00000000  0.33333333       0.008
   0.28571429  0.00000000  0.33333333       0.008
   0.42857143  0.00000000  0.33333333       0.008
  -0.42857143 -0.00000000  0.33333333       0.008
  -0.28571429 -0.00000000  0.33333333       0.008
  -0.14285714 -0.00000000  0.33333333       0.008
   0.00000000  0.16666667  0.33333333       0.008
   0.14285714  0.16666667  0.33333333       0.008
   0.28571429  0.16666667  0.33333333       0.008
   0.42857143  0.16666667  0.33333333       0.008
  -0.42857143  0.16666667  0.33333333       0.008
  -0.28571429  0.16666667  0.33333333       0.008
  -0.14285714  0.16666667  0.33333333       0.008
  -0.00000000  0.33333333  0.33333333       0.008
   0.14285714  0.33333333  0.33333333       0.008
   0.28571429  0.33333333  0.33333333       0.008
   0.42857143  0.33333333  0.33333333       0.008
  -0.42857143  0.33333333  0.33333333       0.008
  -0.28571429  0.33333333  0.33333333       0.008
  -0.14285714  0.33333333  0.33333333       0.008
   0.00000000  0.50000000  0.33333333       0.008
   0.14285714  0.50000000  0.33333333       0.008
   0.28571429  0.50000000  0.33333333       0.008
   0.42857143  0.50000000  0.33333333       0.008
  -0.42857143  0.50000000  0.33333333       0.008
  -0.28571429  0.50000000  0.33333333       0.008
  -0.14285714  0.50000000  0.33333333       0.008
   0.00000000 -0.33333333  0.33333333       0.008
   0.14285714 -0.33333333  0.33333333       0.008
   0.28571429 -0.33333333  0.33333333       0.008
   0.42857143 -0.33333333  0.33333333       0.008
  -0.42857143 -0.33333333  0.33333333       0.008
  -0.28571429 -0.33333333  0.33333333       0.008
  -0.14285714 -0.33333333  0.33333333       0.008
   0.00000000 -0.16666667  0.33333333       0.008
   0.14285714 -0.16666667  0.33333333       0.008
   0.28571429 -0.16666667  0.33333333       0.008
   0.42857143 -0.16666667  0.33333333       0.008
  -0.42857143 -0.16666667  0.33333333       0.008
  -0.28571429 -0.16666667  0.33333333       0.008
  -0.14285714 -0.16666667  0.33333333       0.008
  -0.00000000  0.00000000  0.50000000       0.004
   0.14285714  0.00000000  0.50000000       0.008
   0.28571429  0.00000000  0.50000000       0.008
   0.42857143  0.00000000  0.50000000       0.008
   0.00000000  0.16666667  0.50000000       0.008
   0.14285714  0.16666667  0.50000000       0.008
   0.28571429  0.16666667  0.50000000       0.008
   0.42857143  0.16666667  0.50000000       0.008
  -0.42857143  0.16666667  0.50000000       0.008
  -0.28571429  0.16666667  0.50000000       0.008
  -0.14285714  0.16666667  0.50000000       0.008
  -0.00000000  0.33333333  0.50000000       0.008
   0.14285714  0.33333333  0.50000000       0.008
   0.28571429  0.33333333  0.50000000       0.008
   0.42857143  0.33333333  0.50000000       0.008
  -0.42857143  0.33333333  0.50000000       0.008
  -0.28571429  0.33333333  0.50000000       0.008
  -0.14285714  0.33333333  0.50000000       0.008
  -0.00000000  0.50000000  0.50000000       0.004
   0.14285714  0.50000000  0.50000000       0.008
   0.28571429  0.50000000  0.50000000       0.008
   0.42857143  0.50000000  0.50000000       0.008
 
 position of ions in fractional coordinates (direct lattice) 
   0.49999566  0.50000379  0.50000027
   0.00000368  0.99999620  0.00000032
   0.99998996  0.49996833  0.00000486
   0.50003099  0.00000987  0.99999583
   0.49999203  0.50000774  0.00000038
   0.72388303  0.72384944  0.82877792
   0.27610917  0.27615593  0.17122473
   0.23692009  0.23692332  0.82180827
   0.70485240  0.23686931  0.82170702
   0.23689866  0.70482401  0.82172973
   0.76305788  0.76310076  0.17818901
   0.29515039  0.76311695  0.17828755
   0.76311605  0.29517434  0.17827411
 
 position of ions in cartesian coordinates  (Angst):
  -5.64553746 -3.25943553 -2.79085161
  -5.63866378 -0.00556025 -0.00739332
  -5.64327891 -4.88317285 -0.01115844
  -4.24044512 -4.07329359 -5.57056777
  -4.23142673 -2.44295426 -0.00741582
  -8.46988242 -4.89021567 -4.62443428
  -2.82118851 -1.62866308 -0.95728060
  -4.32930377 -2.49954130 -4.57841498
  -5.65021696 -4.78309278 -4.58133046
  -6.96736053 -2.50190150 -4.58143611
  -6.96181731 -4.01925934 -1.00327005
  -5.64075328 -1.73582436 -1.00033942
  -4.32373776 -4.01708902 -1.00028553
 


--------------------------------------------------------------------------------------------------------


 k-point   1 :   0.0000 0.0000 0.0000  plane waves:    4101
 k-point   2 :   0.1429 0.0000-0.0000  plane waves:    4101
 k-point   3 :   0.2857 0.0000-0.0000  plane waves:    4115
 k-point   4 :   0.4286 0.0000 0.0000  plane waves:    4104
 k-point   5 :  -0.0000 0.1667-0.0000  plane waves:    4105
 k-point   6 :   0.1429 0.1667-0.0000  plane waves:    4113
 k-point   7 :   0.2857 0.1667 0.0000  plane waves:    4116
 k-point   8 :   0.4286 0.1667 0.0000  plane waves:    4116
 k-point   9 :  -0.4286 0.1667 0.0000  plane waves:    4112
 k-point  10 :  -0.2857 0.1667 0.0000  plane waves:    4123
 k-point  11 :  -0.1429 0.1667-0.0000  plane waves:    4123
 k-point  12 :  -0.0000 0.3333-0.0000  plane waves:    4114
 k-point  13 :   0.1429 0.3333 0.0000  plane waves:    4120
 k-point  14 :   0.2857 0.3333 0.0000  plane waves:    4121
 k-point  15 :   0.4286 0.3333-0.0000  plane waves:    4106
 k-point  16 :  -0.4286 0.3333-0.0000  plane waves:    4111
 k-point  17 :  -0.2857 0.3333-0.0000  plane waves:    4104
 k-point  18 :  -0.1429 0.3333 0.0000  plane waves:    4113
 k-point  19 :   0.0000 0.5000 0.0000  plane waves:    4098
 k-point  20 :   0.1429 0.5000 0.0000  plane waves:    4106
 k-point  21 :   0.2857 0.5000-0.0000  plane waves:    4111
 k-point  22 :   0.4286 0.5000-0.0000  plane waves:    4109
 k-point  23 :  -0.0000 0.0000 0.1667  plane waves:    4107
 k-point  24 :   0.1429 0.0000 0.1667  plane waves:    4113
 k-point  25 :   0.2857 0.0000 0.1667  plane waves:    4126
 k-point  26 :   0.4286 0.0000 0.1667  plane waves:    4118
 k-point  27 :  -0.4286-0.0000 0.1667  plane waves:    4111
 k-point  28 :  -0.2857-0.0000 0.1667  plane waves:    4120
 k-point  29 :  -0.1429-0.0000 0.1667  plane waves:    4129
 k-point  30 :   0.0000 0.1667 0.1667  plane waves:    4116
 k-point  31 :   0.1429 0.1667 0.1667  plane waves:    4107
 k-point  32 :   0.2857 0.1667 0.1667  plane waves:    4121
 k-point  33 :   0.4286 0.1667 0.1667  plane waves:    4122
 k-point  34 :  -0.4286 0.1667 0.1667  plane waves:    4115
 k-point  35 :  -0.2857 0.1667 0.1667  plane waves:    4115
 k-point  36 :  -0.1429 0.1667 0.1667  plane waves:    4123
 k-point  37 :   0.0000 0.3333 0.1667  plane waves:    4126
 k-point  38 :   0.1429 0.3333 0.1667  plane waves:    4121
 k-point  39 :   0.2857 0.3333 0.1667  plane waves:    4130
 k-point  40 :   0.4286 0.3333 0.1667  plane waves:    4116
 k-point  41 :  -0.4286 0.3333 0.1667  plane waves:    4121
 k-point  42 :  -0.2857 0.3333 0.1667  plane waves:    4119
 k-point  43 :  -0.1429 0.3333 0.1667  plane waves:    4114
 k-point  44 :  -0.0000 0.5000 0.1667  plane waves:    4118
 k-point  45 :   0.1429 0.5000 0.1667  plane waves:    4111
 k-point  46 :   0.2857 0.5000 0.1667  plane waves:    4110
 k-point  47 :   0.4286 0.5000 0.1667  plane waves:    4117
 k-point  48 :  -0.4286 0.5000 0.1667  plane waves:    4114
 k-point  49 :  -0.2857 0.5000 0.1667  plane waves:    4117
 k-point  50 :  -0.1429 0.5000 0.1667  plane waves:    4112
 k-point  51 :  -0.0000-0.3333 0.1667  plane waves:    4118
 k-point  52 :   0.1429-0.3333 0.1667  plane waves:    4113
 k-point  53 :   0.2857-0.3333 0.1667  plane waves:    4119
 k-point  54 :   0.4286-0.3333 0.1667  plane waves:    4115
 k-point  55 :  -0.4286-0.3333 0.1667  plane waves:    4118
 k-point  56 :  -0.2857-0.3333 0.1667  plane waves:    4121
 k-point  57 :  -0.1429-0.3333 0.1667  plane waves:    4126
 k-point  58 :   0.0000-0.1667 0.1667  plane waves:    4128
 k-point  59 :   0.1429-0.1667 0.1667  plane waves:    4123
 k-point  60 :   0.2857-0.1667 0.1667  plane waves:    4111
 k-point  61 :   0.4286-0.1667 0.1667  plane waves:    4110
 k-point  62 :  -0.4286-0.1667 0.1667  plane waves:    4120
 k-point  63 :  -0.2857-0.1667 0.1667  plane waves:    4121
 k-point  64 :  -0.1429-0.1667 0.1667  plane waves:    4136
 k-point  65 :  -0.0000 0.0000 0.3333  plane waves:    4145
 k-point  66 :   0.1429-0.0000 0.3333  plane waves:    4126
 k-point  67 :   0.2857 0.0000 0.3333  plane waves:    4119
 k-point  68 :   0.4286 0.0000 0.3333  plane waves:    4108
 k-point  69 :  -0.4286-0.0000 0.3333  plane waves:    4111
 k-point  70 :  -0.2857-0.0000 0.3333  plane waves:    4130
 k-point  71 :  -0.1429-0.0000 0.3333  plane waves:    4147
 k-point  72 :   0.0000 0.1667 0.3333  plane waves:    4124
 k-point  73 :   0.1429 0.1667 0.3333  plane waves:    4123
 k-point  74 :   0.2857 0.1667 0.3333  plane waves:    4123
 k-point  75 :   0.4286 0.1667 0.3333  plane waves:    4109
 k-point  76 :  -0.4286 0.1667 0.3333  plane waves:    4107
 k-point  77 :  -0.2857 0.1667 0.3333  plane waves:    4122
 k-point  78 :  -0.1429 0.1667 0.3333  plane waves:    4126
 k-point  79 :  -0.0000 0.3333 0.3333  plane waves:    4120
 k-point  80 :   0.1429 0.3333 0.3333  plane waves:    4116
 k-point  81 :   0.2857 0.3333 0.3333  plane waves:    4118
 k-point  82 :   0.4286 0.3333 0.3333  plane waves:    4121
 k-point  83 :  -0.4286 0.3333 0.3333  plane waves:    4106
 k-point  84 :  -0.2857 0.3333 0.3333  plane waves:    4112
 k-point  85 :  -0.1429 0.3333 0.3333  plane waves:    4110
 k-point  86 :   0.0000 0.5000 0.3333  plane waves:    4111
 k-point  87 :   0.1429 0.5000 0.3333  plane waves:    4111
 k-point  88 :   0.2857 0.5000 0.3333  plane waves:    4118
 k-point  89 :   0.4286 0.5000 0.3333  plane waves:    4109
 k-point  90 :  -0.4286 0.5000 0.3333  plane waves:    4107
 k-point  91 :  -0.2857 0.5000 0.3333  plane waves:    4116
 k-point  92 :  -0.1429 0.5000 0.3333  plane waves:    4113
 k-point  93 :   0.0000-0.3333 0.3333  plane waves:    4128
 k-point  94 :   0.1429-0.3333 0.3333  plane waves:    4116
 k-point  95 :   0.2857-0.3333 0.3333  plane waves:    4111
 k-point  96 :   0.4286-0.3333 0.3333  plane waves:    4112
 k-point  97 :  -0.4286-0.3333 0.3333  plane waves:    4120
 k-point  98 :  -0.2857-0.3333 0.3333  plane waves:    4129
 k-point  99 :  -0.1429-0.3333 0.3333  plane waves:    4140
 k-point 100 :   0.0000-0.1667 0.3333  plane waves:    4149
 k-point 101 :   0.1429-0.1667 0.3333  plane waves:    4126
 k-point 102 :   0.2857-0.1667 0.3333  plane waves:    4113
 k-point 103 :   0.4286-0.1667 0.3333  plane waves:    4111
 k-point 104 :  -0.4286-0.1667 0.3333  plane waves:    4123
 k-point 105 :  -0.2857-0.1667 0.3333  plane waves:    4137
 k-point 106 :  -0.1429-0.1667 0.3333  plane waves:    4147
 k-point 107 :  -0.0000 0.0000 0.5000  plane waves:    4160
 k-point 108 :   0.1429 0.0000 0.5000  plane waves:    4154
 k-point 109 :   0.2857 0.0000 0.5000  plane waves:    4121
 k-point 110 :   0.4286 0.0000 0.5000  plane waves:    4113
 k-point 111 :   0.0000 0.1667 0.5000  plane waves:    4145
 k-point 112 :   0.1429 0.1667 0.5000  plane waves:    4153
 k-point 113 :   0.2857 0.1667 0.5000  plane waves:    4135
 k-point 114 :   0.4286 0.1667 0.5000  plane waves:    4116
 k-point 115 :  -0.4286 0.1667 0.5000  plane waves:    4111
 k-point 116 :  -0.2857 0.1667 0.5000  plane waves:    4119
 k-point 117 :  -0.1429 0.1667 0.5000  plane waves:    4143
 k-point 118 :  -0.0000 0.3333 0.5000  plane waves:    4125
 k-point 119 :   0.1429 0.3333 0.5000  plane waves:    4123
 k-point 120 :   0.2857 0.3333 0.5000  plane waves:    4120
 k-point 121 :   0.4286 0.3333 0.5000  plane waves:    4114
 k-point 122 :  -0.4286 0.3333 0.5000  plane waves:    4115
 k-point 123 :  -0.2857 0.3333 0.5000  plane waves:    4115
 k-point 124 :  -0.1429 0.3333 0.5000  plane waves:    4119
 k-point 125 :  -0.0000 0.5000 0.5000  plane waves:    4108
 k-point 126 :   0.1429 0.5000 0.5000  plane waves:    4102
 k-point 127 :   0.2857 0.5000 0.5000  plane waves:    4113
 k-point 128 :   0.4286 0.5000 0.5000  plane waves:    4100

 maximum and minimum number of plane-waves per node :      1064     1001

 maximum number of plane-waves:      4160
 maximum index in each direction: 
   IXMAX=   10   IYMAX=   10   IZMAX=   11
   IXMIN=  -10   IYMIN=  -10   IZMIN=  -12


 real space projection operators:
  total allocation   :       6126.95 KBytes
  max/ min on nodes  :       1581.95       1481.05


 parallel 3D FFT for wavefunctions:
    minimum data exchange during FFTs selected (reduces bandwidth)
 parallel 3D FFT for charge:
    minimum data exchange during FFTs selected (reduces bandwidth)


 total amount of memory used by VASP MPI-rank0   158913. kBytes
=======================================================================

   base      :      30000. kBytes
   nonlr-proj:       3973. kBytes
   fftplans  :       2586. kBytes
   grid      :       9181. kBytes
   one-center:        124. kBytes
   wavefun   :     113049. kBytes
 
     INWAV:  cpu time    0.0000: real time    0.0000
 Broyden mixing: mesh for mixing (old mesh)
   NGX = 21   NGY = 21   NGZ = 23
  (NGX  = 84   NGY  = 84   NGZ  = 96)
  gives a total of  10143 points

 initial charge density was supplied:
 number of electron     122.0000011 magnetization       2.0000006
 keeping initial charge density in first step


--------------------------------------------------------------------------------------------------------


 Maximum index for non-local projection operator         2228
 Maximum index for augmentation-charges         2107 (set IRDMAX)


--------------------------------------------------------------------------------------------------------


 First call to EWALD:  gamma=   0.331
 Maximum number of real-space cells 3x 3x 3
 Maximum number of reciprocal cells 3x 3x 3

    FEWALD:  cpu time    0.0010: real time    0.0010


--------------------------------------- Iteration      1(   1)  ---------------------------------------


    POTLOK:  cpu time    0.1900: real time    0.1900
    SETDIJ:  cpu time    1.2623: real time    1.2626
atom =   2  type =  2  l = 2
 
 onsite density matrix
 
spin component  1
 
  0.9657  0.0000 -0.0000 -0.0219  0.0000
  0.0000  0.9702  0.0001 -0.0001 -0.0219
 -0.0000  0.0001  0.9450  0.0001 -0.0000
 -0.0219 -0.0001  0.0001  0.9702  0.0000
  0.0000 -0.0219 -0.0000  0.0000  0.9657
 
spin component  2
 
  0.6512  0.0003  0.0015  0.3773 -0.0008
  0.0003  0.4296 -0.0012  0.0009  0.3769
  0.0015 -0.0012  0.9235 -0.0020  0.0010
  0.3773  0.0009 -0.0020  0.4307  0.0003
 -0.0008  0.3769  0.0010  0.0003  0.6524
 
 occupancies and eigenvectors
 
  o =  0.1479  v =  0.0000  0.0000  0.0000  0.0000  0.0000 -0.5269  0.3832  0.0038  0.7020 -0.2876      0.0000  0.0000  0.0000  0.0000  0.0000  0.0000  0.0000  0.0000  0.0000  0.0000
  o =  0.1480  v =  0.0000  0.0000  0.0000  0.0000  0.0000  0.2865  0.7035  0.0002 -0.3839 -0.5250      0.0000  0.0000  0.0000  0.0000  0.0000  0.0000  0.0000  0.0000  0.0000  0.0000
  o =  0.9235  v =  0.0000  0.0000  0.0000  0.0000  0.0000 -0.0021 -0.0031  1.0000 -0.0055 -0.0009      0.0000  0.0000  0.0000  0.0000  0.0000  0.0000  0.0000  0.0000  0.0000  0.0000
  o =  0.9340  v =  0.0000  0.0000  0.0000  0.0000  0.0000  0.3994 -0.5185  0.0002  0.2982 -0.6948      0.0000  0.0000  0.0000  0.0000  0.0000  0.0000  0.0000  0.0000  0.0000  0.0000
  o =  0.9341  v =  0.0000  0.0000  0.0000  0.0000  0.0000  0.6933  0.2992  0.0056  0.5204  0.3987      0.0000  0.0000  0.0000  0.0000  0.0000  0.0000  0.0000  0.0000  0.0000  0.0000
  o =  0.9449  v =  0.0283  0.0176 -0.9989  0.0287  0.0178  0.0000  0.0000  0.0000  0.0000  0.0000      0.0000  0.0000  0.0000  0.0000  0.0000  0.0000  0.0000  0.0000  0.0000  0.0000
  o =  0.9459  v = -0.3454  0.5925  0.0034 -0.3109  0.6580  0.0000  0.0000  0.0000  0.0000  0.0000      0.0000  0.0000  0.0000  0.0000  0.0000  0.0000  0.0000  0.0000  0.0000  0.0000
  o =  0.9460  v =  0.6563  0.3112  0.0472  0.5931  0.3442  0.0000  0.0000  0.0000  0.0000  0.0000      0.0000  0.0000  0.0000  0.0000  0.0000  0.0000  0.0000  0.0000  0.0000  0.0000
  o =  0.9899  v = -0.5882  0.3563  0.0026  0.6506 -0.3222  0.0000  0.0000  0.0000  0.0000  0.0000      0.0000  0.0000  0.0000  0.0000  0.0000  0.0000  0.0000  0.0000  0.0000  0.0000
  o =  0.9900  v =  0.3214  0.6518 -0.0001 -0.3570 -0.5869  0.0000  0.0000  0.0000  0.0000  0.0000      0.0000  0.0000  0.0000  0.0000  0.0000  0.0000  0.0000  0.0000  0.0000  0.0000
atom =   3  type =  2  l = 2
 
 onsite density matrix
 
spin component  1
 
  0.7799 -0.0004  0.0003  0.2213  0.0003
 -0.0004  0.6376  0.0023 -0.0001  0.2283
  0.0003  0.0023  0.9581 -0.0003 -0.0055
  0.2213 -0.0001 -0.0003  0.6797  0.0001
  0.0003  0.2283 -0.0055  0.0001  0.8010
 
spin component  2
 
  0.7826 -0.0001  0.0004  0.2139  0.0001
 -0.0001  0.6676 -0.0010  0.0001  0.2057
  0.0004 -0.0010  0.9576 -0.0005 -0.0031
  0.2139  0.0001 -0.0005  0.6932 -0.0001
  0.0001  0.2057 -0.0031 -0.0001  0.8184
 
 occupancies and eigenvectors
 
  o =  0.4768  v = -0.0054 -0.8175  0.0105  0.0053  0.5757  0.0000  0.0000  0.0000  0.0000  0.0000      0.0000  0.0000  0.0000  0.0000  0.0000  0.0000  0.0000  0.0000  0.0000  0.0000
  o =  0.5029  v =  0.6241 -0.0062 -0.0009 -0.7813  0.0043  0.0000  0.0000  0.0000  0.0000  0.0000      0.0000  0.0000  0.0000  0.0000  0.0000  0.0000  0.0000  0.0000  0.0000  0.0000
  o =  0.5194  v =  0.0000  0.0000  0.0000  0.0000  0.0000  0.6300  0.0391 -0.0016 -0.7751 -0.0273      0.0000  0.0000  0.0000  0.0000  0.0000  0.0000  0.0000  0.0000  0.0000  0.0000
  o =  0.5240  v =  0.0000  0.0000  0.0000  0.0000  0.0000 -0.0300  0.8189 -0.0023  0.0370 -0.5720      0.0000  0.0000  0.0000  0.0000  0.0000  0.0000  0.0000  0.0000  0.0000  0.0000
  o =  0.9560  v =  0.0000  0.0000  0.0000  0.0000  0.0000  0.0781 -0.2616 -0.8853  0.0651 -0.3709      0.0000  0.0000  0.0000  0.0000  0.0000  0.0000  0.0000  0.0000  0.0000  0.0000
  o =  0.9563  v =  0.0795 -0.2966 -0.8586  0.0646 -0.4053  0.0000  0.0000  0.0000  0.0000  0.0000      0.0000  0.0000  0.0000  0.0000  0.0000  0.0000  0.0000  0.0000  0.0000  0.0000
  o =  0.9564  v =  0.0000  0.0000  0.0000  0.0000  0.0000  0.7721  0.0260  0.0911  0.6274  0.0370      0.0000  0.0000  0.0000  0.0000  0.0000  0.0000  0.0000  0.0000  0.0000  0.0000
  o =  0.9567  v =  0.7773  0.0292  0.0890  0.6208  0.0414  0.0000  0.0000  0.0000  0.0000  0.0000      0.0000  0.0000  0.0000  0.0000  0.0000  0.0000  0.0000  0.0000  0.0000  0.0000
  o =  0.9637  v =  0.0006  0.4927 -0.5047  0.0011  0.7089  0.0000  0.0000  0.0000  0.0000  0.0000      0.0000  0.0000  0.0000  0.0000  0.0000  0.0000  0.0000  0.0000  0.0000  0.0000
  o =  0.9637  v =  0.0000  0.0000  0.0000  0.0000  0.0000  0.0006  0.5087 -0.4561  0.0014  0.7302      0.0000  0.0000  0.0000  0.0000  0.0000  0.0000  0.0000  0.0000  0.0000  0.0000
atom =   4  type =  2  l = 2
 
 onsite density matrix
 
spin component  1
 
  0.7960 -0.0029 -0.0046  0.2265 -0.0090
 -0.0029  0.6692 -0.0014  0.0182  0.2232
 -0.0046 -0.0014  0.9581  0.0018  0.0030
  0.2265  0.0182  0.0018  0.6480 -0.0033
 -0.0090  0.2232  0.0030 -0.0033  0.7850
 
spin component  2
 
  0.8095  0.0035 -0.0025  0.2077 -0.0155
  0.0035  0.6867  0.0001  0.0112  0.2119
 -0.0025  0.0001  0.9576 -0.0011  0.0020
  0.2077  0.0112 -0.0011  0.6741  0.0035
 -0.0155  0.2119  0.0020  0.0035  0.7915
 
 occupancies and eigenvectors
 
  o =  0.4767  v =  0.4961  0.4129  0.0106 -0.7056 -0.2922  0.0000  0.0000  0.0000  0.0000  0.0000      0.0000  0.0000  0.0000  0.0000  0.0000  0.0000  0.0000  0.0000  0.0000  0.0000
  o =  0.5029  v = -0.3155  0.6739  0.0009  0.3955 -0.5385  0.0000  0.0000  0.0000  0.0000  0.0000      0.0000  0.0000  0.0000  0.0000  0.0000  0.0000  0.0000  0.0000  0.0000  0.0000
  o =  0.5194  v =  0.0000  0.0000  0.0000  0.0000  0.0000 -0.2925  0.6900  0.0016  0.3553 -0.5586      0.0000  0.0000  0.0000  0.0000  0.0000  0.0000  0.0000  0.0000  0.0000  0.0000
  o =  0.5239  v =  0.0000  0.0000  0.0000  0.0000  0.0000  0.5097  0.3789  0.0023 -0.7269 -0.2612      0.0000  0.0000  0.0000  0.0000  0.0000  0.0000  0.0000  0.0000  0.0000  0.0000
  o =  0.9560  v =  0.0000  0.0000  0.0000  0.0000  0.0000 -0.2815  0.1881 -0.8850 -0.1936  0.2541      0.0000  0.0000  0.0000  0.0000  0.0000  0.0000  0.0000  0.0000  0.0000  0.0000
  o =  0.9563  v = -0.3106  0.2051 -0.8584 -0.2241  0.2726  0.0000  0.0000  0.0000  0.0000  0.0000      0.0000  0.0000  0.0000  0.0000  0.0000  0.0000  0.0000  0.0000  0.0000  0.0000
  o =  0.9564  v =  0.0000  0.0000  0.0000  0.0000  0.0000 -0.4186 -0.5299 -0.0924 -0.3365 -0.6497      0.0000  0.0000  0.0000  0.0000  0.0000  0.0000  0.0000  0.0000  0.0000  0.0000
  o =  0.9567  v =  0.4251  0.5226  0.0903  0.3361  0.6520  0.0000  0.0000  0.0000  0.0000  0.0000      0.0000  0.0000  0.0000  0.0000  0.0000  0.0000  0.0000  0.0000  0.0000  0.0000
  o =  0.9637  v = -0.6141  0.2454  0.5048 -0.4272  0.3540  0.0000  0.0000  0.0000  0.0000  0.0000      0.0000  0.0000  0.0000  0.0000  0.0000  0.0000  0.0000  0.0000  0.0000  0.0000
  o =  0.9637  v =  0.0000  0.0000  0.0000  0.0000  0.0000 -0.6326  0.2532  0.4562 -0.4412  0.3646      0.0000  0.0000  0.0000  0.0000  0.0000  0.0000  0.0000  0.0000  0.0000  0.0000
atom =   5  type =  2  l = 2
 
 onsite density matrix
 
spin component  1
 
  0.7957  0.0030  0.0052  0.2266  0.0093
  0.0030  0.6691 -0.0015 -0.0183  0.2232
  0.0052 -0.0015  0.9581 -0.0026  0.0030
  0.2266 -0.0183 -0.0026  0.6479  0.0029
  0.0093  0.2232  0.0030  0.0029  0.7850
 
spin component  2
 
  0.8095 -0.0035  0.0034  0.2077  0.0156
 -0.0035  0.6870 -0.0000 -0.0114  0.2118
  0.0034 -0.0000  0.9576 -0.0001  0.0019
  0.2077 -0.0114 -0.0001  0.6739 -0.0035
  0.0156  0.2118  0.0019 -0.0035  0.7915
 
 occupancies and eigenvectors
 
  o =  0.4766  v = -0.4987  0.4084  0.0122  0.7084 -0.2874  0.0000  0.0000  0.0000  0.0000  0.0000      0.0000  0.0000  0.0000  0.0000  0.0000  0.0000  0.0000  0.0000  0.0000  0.0000
  o =  0.5026  v =  0.3119  0.6767  0.0000 -0.3900 -0.5410  0.0000  0.0000  0.0000  0.0000  0.0000      0.0000  0.0000  0.0000  0.0000  0.0000  0.0000  0.0000  0.0000  0.0000  0.0000
  o =  0.5196  v =  0.0000  0.0000  0.0000  0.0000  0.0000  0.3168  0.6708 -0.0000 -0.3897 -0.5457      0.0000  0.0000  0.0000  0.0000  0.0000  0.0000  0.0000  0.0000  0.0000  0.0000
  o =  0.5238  v =  0.0000  0.0000  0.0000  0.0000  0.0000 -0.4948  0.4118  0.0052  0.7091 -0.2876      0.0000  0.0000  0.0000  0.0000  0.0000  0.0000  0.0000  0.0000  0.0000  0.0000
  o =  0.9560  v =  0.0000  0.0000  0.0000  0.0000  0.0000  0.3232  0.1349 -0.8881  0.2303  0.1889      0.0000  0.0000  0.0000  0.0000  0.0000  0.0000  0.0000  0.0000  0.0000  0.0000
  o =  0.9563  v =  0.3540  0.1521 -0.8609  0.2602  0.2067  0.0000  0.0000  0.0000  0.0000  0.0000      0.0000  0.0000  0.0000  0.0000  0.0000  0.0000  0.0000  0.0000  0.0000  0.0000
  o =  0.9564  v =  0.0000  0.0000  0.0000  0.0000  0.0000 -0.3888  0.5461  0.0023 -0.3162  0.6713      0.0000  0.0000  0.0000  0.0000  0.0000  0.0000  0.0000  0.0000  0.0000  0.0000
  o =  0.9567  v = -0.3915  0.5403  0.0022 -0.3130  0.6759  0.0000  0.0000  0.0000  0.0000  0.0000      0.0000  0.0000  0.0000  0.0000  0.0000  0.0000  0.0000  0.0000  0.0000  0.0000
  o =  0.9636  v =  0.6128  0.2453  0.5087  0.4247  0.3539  0.0000  0.0000  0.0000  0.0000  0.0000      0.0000  0.0000  0.0000  0.0000  0.0000  0.0000  0.0000  0.0000  0.0000  0.0000
  o =  0.9637  v =  0.0000  0.0000  0.0000  0.0000  0.0000 -0.6318 -0.2532 -0.4597 -0.4384 -0.3649      0.0000  0.0000  0.0000  0.0000  0.0000  0.0000  0.0000  0.0000  0.0000  0.0000
     EDDAV:  cpu time  134.8435: real time  134.8539
       DOS:  cpu time    0.0123: real time    0.0123
    --------------------------------------------
      LOOP:  cpu time  136.3081: real time  136.3188

 eigenvalue-minimisations  : 46482
 total energy-change (2. order) : 0.1532102E+04  (-0.7728985E+04)
 number of electron     122.0000011 magnetization       2.0000006
 augmentation part      122.0000011 magnetization       2.0000006

 Free energy of the ion-electron system (eV)
  ---------------------------------------------------
  alpha Z        PSCENC =       584.95731138
  Ewald energy   TEWEN  =     -8178.83660213
  -Hartree energ DENC   =     -9035.74243686
  -exchange      EXHF   =         0.00000000
  -V(xc)+E(xc)   XCENC  =       734.21861911
  PAW double counting   =     17979.35957333   -18587.38854589
  entropy T*S    EENTRO =        -0.00318330
  eigenvalues    EBANDS =      -433.67745917
  atomic energy  EATOM  =     18469.21461639
  Solvation  Ediel_sol  =         0.00000000
  ---------------------------------------------------
  free energy    TOTEN  =      1532.10189287 eV

  energy without entropy =     1532.10507616  energy(sigma->0) =     1532.10348451


--------------------------------------------------------------------------------------------------------




--------------------------------------- Iteration      1(   2)  ---------------------------------------


     EDDAV:  cpu time  124.5905: real time  124.6005
       DOS:  cpu time    0.0130: real time    0.0130
    --------------------------------------------
      LOOP:  cpu time  124.6035: real time  124.6135

 eigenvalue-minimisations  : 41253
 total energy-change (2. order) :-0.1542566E+04  (-0.1472398E+04)
 number of electron     122.0000011 magnetization       2.0000006
 augmentation part      122.0000011 magnetization       2.0000006

 Free energy of the ion-electron system (eV)
  ---------------------------------------------------
  alpha Z        PSCENC =       584.95731138
  Ewald energy   TEWEN  =     -8178.83660213
  -Hartree energ DENC   =     -9035.74243686
  -exchange      EXHF   =         0.00000000
  -V(xc)+E(xc)   XCENC  =       734.21861911
  PAW double counting   =     17979.35957333   -18587.38854589
  entropy T*S    EENTRO =        -0.00638244
  eigenvalues    EBANDS =     -1976.24054932
  atomic energy  EATOM  =     18469.21461639
  Solvation  Ediel_sol  =         0.00000000
  ---------------------------------------------------
  free energy    TOTEN  =       -10.46439643 eV

  energy without entropy =      -10.45801399  energy(sigma->0) =      -10.46120521


--------------------------------------------------------------------------------------------------------




--------------------------------------- Iteration      1(   3)  ---------------------------------------


     EDDAV:  cpu time  130.4005: real time  130.4092
       DOS:  cpu time    0.0091: real time    0.0091
    --------------------------------------------
      LOOP:  cpu time  130.4097: real time  130.4184

 eigenvalue-minimisations  : 42324
 total energy-change (2. order) :-0.1528588E+03  (-0.1451135E+03)
 number of electron     122.0000011 magnetization       2.0000006
 augmentation part      122.0000011 magnetization       2.0000006

 Free energy of the ion-electron system (eV)
  ---------------------------------------------------
  alpha Z        PSCENC =       584.95731138
  Ewald energy   TEWEN  =     -8178.83660213
  -Hartree energ DENC   =     -9035.74243686
  -exchange      EXHF   =         0.00000000
  -V(xc)+E(xc)   XCENC  =       734.21861911
  PAW double counting   =     17979.35957333   -18587.38854589
  entropy T*S    EENTRO =        -0.00000019
  eigenvalues    EBANDS =     -2129.10569702
  atomic energy  EATOM  =     18469.21461639
  Solvation  Ediel_sol  =         0.00000000
  ---------------------------------------------------
  free energy    TOTEN  =      -163.32316188 eV

  energy without entropy =     -163.32316169  energy(sigma->0) =     -163.32316179


--------------------------------------------------------------------------------------------------------




--------------------------------------- Iteration      1(   4)  ---------------------------------------


     EDDAV:  cpu time  148.0869: real time  148.0977
       DOS:  cpu time    0.0070: real time    0.0070
    --------------------------------------------
      LOOP:  cpu time  148.0939: real time  148.1046

 eigenvalue-minimisations  : 50832
 total energy-change (2. order) :-0.7146972E+01  (-0.7091652E+01)
 number of electron     122.0000011 magnetization       2.0000006
 augmentation part      122.0000011 magnetization       2.0000006

 Free energy of the ion-electron system (eV)
  ---------------------------------------------------
  alpha Z        PSCENC =       584.95731138
  Ewald energy   TEWEN  =     -8178.83660213
  -Hartree energ DENC   =     -9035.74243686
  -exchange      EXHF   =         0.00000000
  -V(xc)+E(xc)   XCENC  =       734.21861911
  PAW double counting   =     17979.35957333   -18587.38854589
  entropy T*S    EENTRO =        -0.00000000
  eigenvalues    EBANDS =     -2136.25266917
  atomic energy  EATOM  =     18469.21461639
  Solvation  Ediel_sol  =         0.00000000
[...]
     37      -2.6340      1.00000
     38      -2.5337      1.00000
     39      -2.3848      1.00000
     40      -1.9605      1.00000
     41      -1.6647      1.00000
     42      -1.5761      1.00000
     43      -1.3555      1.00000
     44      -1.1723      1.00000
     45      -0.7973      1.00000
     46      -0.6634      1.00000
     47      -0.5982      1.00000
     48      -0.3955      1.00000
     49      -0.3264      1.00000
     50      -0.2107      1.00000
     51       0.0335      1.00000
     52       0.1877      1.00000
     53       0.3860      1.00000
     54       0.5094      1.00000
     55       0.6374      1.00000
     56       0.8018      1.00000
     57       0.8659      1.00000
     58       1.3052      1.00000
     59       1.6701      1.00000
     60       1.6984      1.00000
     61       3.2005      0.00000
     62       3.3357      0.00000
     63       3.6486      0.00000
     64       3.6633      0.00000
     65       4.0117      0.00000
     66       4.1732      0.00000
     67       7.1952      0.00000
     68       7.4798      0.00000
     69       8.8642      0.00000
     70       9.4234      0.00000
     71       9.4783      0.00000
     72      10.0273      0.00000
     73      11.2197      0.00000
     74      11.4632      0.00000
     75      11.6700      0.00000


--------------------------------------------------------------------------------------------------------


 soft charge-density along one line, spin component           1
         0         1         2         3         4         5         6         7         8         9
 total charge-density along one line
 
 soft charge-density along one line, spin component           2
         0         1         2         3         4         5         6         7         8         9
 total charge-density along one line
 
 pseudopotential strength for first ion, spin component:           1
-18.278  -5.492   0.000  -0.000  -0.000  -0.000   0.000   0.000
 -5.492  -1.308   0.000  -0.000  -0.000  -0.000   0.000   0.000
  0.000   0.000 -19.818  -0.000   0.000   6.763  -0.000  -0.000
 -0.000  -0.000  -0.000 -19.742  -0.000  -0.000   6.711  -0.000
 -0.000  -0.000   0.000  -0.000 -19.818  -0.000  -0.000   6.763
 -0.000  -0.000   6.763  -0.000  -0.000   8.643   0.000   0.001
  0.000   0.000  -0.000   6.711  -0.000   0.000   8.539   0.001
  0.000   0.000  -0.000  -0.000   6.763   0.001   0.001   8.644
  0.000   0.000  -0.000   0.000   0.000   0.000  -0.000  -0.000
 -0.000   0.000   0.000   0.000   0.000   0.000  -0.000  -0.000
  0.045  -0.013   0.000  -0.000   0.000  -0.000   0.000  -0.000
 -0.000   0.000   0.000  -0.000  -0.000  -0.000   0.000   0.000
  0.000   0.000  -0.000  -0.000  -0.000   0.000   0.000  -0.000
  0.000   0.000  -0.000   0.000   0.000   0.000  -0.000  -0.000
 -0.000   0.000   0.000   0.000   0.000   0.000  -0.000  -0.000
  0.052  -0.006   0.000  -0.000   0.000   0.000   0.000  -0.000
 -0.000   0.000   0.000  -0.000  -0.000  -0.000   0.000   0.000
  0.000   0.000  -0.000  -0.000  -0.000   0.000   0.000   0.000
 pseudopotential strength for first ion, spin component:           2
-18.275  -5.485   0.000  -0.000  -0.000  -0.000   0.000   0.000
 -5.485  -1.315   0.000  -0.000  -0.000   0.000   0.000  -0.000
  0.000   0.000 -19.802   0.000  -0.000   6.753  -0.000  -0.000
 -0.000  -0.000   0.000 -19.741   0.000  -0.000   6.710  -0.000
 -0.000  -0.000  -0.000   0.000 -19.802  -0.000  -0.000   6.753
 -0.000   0.000   6.753  -0.000  -0.000   8.639   0.000   0.001
  0.000   0.000  -0.000   6.710  -0.000   0.000   8.569   0.000
  0.000  -0.000  -0.000  -0.000   6.753   0.001   0.000   8.640
 -0.000   0.000  -0.000   0.000   0.000   0.000  -0.000  -0.000
  0.000   0.000   0.000   0.000   0.000   0.000  -0.000  -0.000
  0.036  -0.007   0.000  -0.000   0.000  -0.000   0.000  -0.000
  0.000   0.000   0.000  -0.000  -0.000  -0.000   0.000   0.000
 -0.000   0.000  -0.000  -0.000   0.000   0.000   0.000  -0.000
 -0.000   0.000  -0.000   0.000   0.000   0.000  -0.000  -0.000
  0.000   0.000   0.000   0.000   0.000  -0.000  -0.000  -0.000
  0.041  -0.002   0.000  -0.000   0.000   0.000   0.000  -0.000
  0.000   0.000   0.000  -0.000  -0.000  -0.000   0.000   0.000
 -0.000   0.000  -0.000  -0.000   0.000   0.000   0.000   0.000
 total augmentation occupancy for first ion, spin component:           1
  2.003   0.006  -0.000   0.000   0.000  -0.000   0.000   0.000  -0.000   0.000  -0.008   0.000  -0.000  -0.000  -0.000  -0.001
  0.006   0.465  -0.000   0.000   0.000   0.000  -0.000  -0.000   0.002  -0.001   0.215  -0.002   0.001  -0.001   0.001  -0.130
 -0.000  -0.000   2.007  -0.000   0.000   0.004   0.000  -0.000  -0.000   0.000   0.000   0.000   0.000   0.000  -0.000  -0.000
  0.000   0.000  -0.000   2.008  -0.000   0.000  -0.010   0.000   0.000  -0.000   0.000   0.000   0.000  -0.000   0.000   0.000
  0.000   0.000   0.000  -0.000   2.007  -0.000   0.000   0.004  -0.000   0.000  -0.000   0.000   0.000   0.000  -0.000  -0.000
 -0.000   0.000   0.004   0.000  -0.000   0.022  -0.000   0.000   0.000   0.000   0.000  -0.000   0.000  -0.000   0.000  -0.000
  0.000  -0.000   0.000  -0.010   0.000  -0.000   0.046  -0.000  -0.000   0.000  -0.000  -0.000  -0.000   0.000  -0.000   0.000
  0.000  -0.000  -0.000   0.000   0.004   0.000  -0.000   0.022   0.000   0.000  -0.000  -0.000  -0.000  -0.000   0.000   0.000
 -0.000   0.002  -0.000   0.000  -0.000   0.000  -0.000   0.000   0.144  -0.001   0.001  -0.167  -0.000  -0.081   0.001  -0.000
  0.000  -0.001   0.000  -0.000   0.000   0.000   0.000   0.000  -0.001   0.486  -0.001   0.003  -0.166   0.001  -0.284   0.001
 -0.008   0.215   0.000   0.000  -0.000   0.000  -0.000  -0.000   0.001  -0.001   0.227  -0.002   0.000  -0.000   0.001  -0.137
  0.000  -0.002   0.000   0.000   0.000  -0.000  -0.000  -0.000  -0.167   0.003  -0.002   0.490  -0.001   0.095  -0.002   0.001
 -0.000   0.001   0.000   0.000   0.000   0.000  -0.000  -0.000  -0.000  -0.166   0.000  -0.001   0.144   0.000   0.095  -0.000
 -0.000  -0.001   0.000  -0.000   0.000  -0.000   0.000  -0.000  -0.081   0.001  -0.000   0.095   0.000   0.046  -0.000   0.000
 -0.000   0.001  -0.000   0.000  -0.000   0.000  -0.000   0.000   0.001  -0.284   0.001  -0.002   0.095  -0.000   0.168  -0.000
 -0.001  -0.130  -0.000   0.000  -0.000  -0.000   0.000   0.000  -0.000   0.001  -0.137   0.001  -0.000   0.000  -0.000   0.084
 -0.000   0.001  -0.000  -0.000   0.000   0.000  -0.000   0.000   0.095  -0.002   0.001  -0.286   0.001  -0.055   0.001  -0.001
 -0.000  -0.001  -0.000   0.000  -0.000  -0.000   0.000   0.000   0.000   0.094  -0.000   0.001  -0.081  -0.000  -0.055   0.000
 total augmentation occupancy for first ion, spin component:           2
 -0.000  -0.000   0.000  -0.000   0.000   0.000  -0.000   0.000  -0.000  -0.000   0.001  -0.000  -0.000   0.000   0.000  -0.001
 -0.000   0.011  -0.000  -0.000   0.000   0.000  -0.000  -0.000   0.000   0.000   0.010   0.000   0.000  -0.000  -0.000  -0.004
  0.000  -0.000   0.000  -0.000  -0.000  -0.000  -0.000  -0.000   0.000  -0.000  -0.000  -0.000   0.000  -0.000   0.000  -0.000
 -0.000  -0.000  -0.000   0.000  -0.000  -0.000  -0.000  -0.000   0.000   0.000  -0.000   0.000  -0.000  -0.000  -0.000   0.000
  0.000   0.000  -0.000  -0.000   0.000  -0.000  -0.000  -0.000   0.000  -0.000   0.000   0.000   0.000  -0.000   0.000   0.000
  0.000   0.000  -0.000  -0.000  -0.000   0.001  -0.000   0.000  -0.000   0.000   0.000   0.000  -0.000   0.000  -0.000  -0.000
 -0.000  -0.000  -0.000  -0.000  -0.000  -0.000   0.001  -0.000   0.000   0.000  -0.000  -0.000  -0.000  -0.000  -0.000  -0.000
  0.000  -0.000  -0.000  -0.000  -0.000   0.000  -0.000   0.001   0.000   0.000  -0.000  -0.000   0.000  -0.000  -0.000   0.000
 -0.000   0.000   0.000   0.000   0.000  -0.000   0.000   0.000   0.000   0.000   0.000  -0.003  -0.000  -0.000  -0.000   0.000
 -0.000   0.000  -0.000   0.000  -0.000   0.000   0.000   0.000   0.000   0.013  -0.000   0.000  -0.003   0.000  -0.005  -0.000
  0.001   0.010  -0.000  -0.000   0.000   0.000  -0.000  -0.000   0.000  -0.000   0.008  -0.000   0.000  -0.000  -0.000  -0.003
 -0.000   0.000  -0.000   0.000   0.000   0.000  -0.000  -0.000  -0.003   0.000  -0.000   0.013   0.000   0.001  -0.000  -0.000
 -0.000   0.000   0.000  -0.000   0.000  -0.000  -0.000   0.000  -0.000  -0.003   0.000   0.000   0.000  -0.000   0.001   0.000
  0.000  -0.000  -0.000  -0.000  -0.000   0.000  -0.000  -0.000  -0.000   0.000  -0.000   0.001  -0.000   0.000  -0.000  -0.000
  0.000  -0.000   0.000  -0.000   0.000  -0.000  -0.000  -0.000  -0.000  -0.005  -0.000  -0.000   0.001  -0.000   0.002   0.000
 -0.001  -0.004  -0.000   0.000   0.000  -0.000  -0.000   0.000   0.000  -0.000  -0.003  -0.000   0.000  -0.000   0.000   0.001
  0.000  -0.000  -0.000   0.000   0.000  -0.000   0.000   0.000   0.001  -0.000  -0.000  -0.005  -0.000  -0.000   0.000   0.000
  0.000  -0.000   0.000   0.000   0.000   0.000   0.000  -0.000  -0.000   0.001  -0.000   0.000  -0.000   0.000  -0.000  -0.000


------------------------ aborting loop because EDIFF is reached ----------------------------------------


 


 total charge     
 
# of ion       s       p       d       tot
------------------------------------------
    1        2.026   5.875   0.229   8.131
    2        0.252   6.227   7.880  14.358
    3        0.356   6.378   7.749  14.483
    4        0.356   6.378   7.749  14.483
    5        0.355   6.377   7.748  14.481
    6        1.593   3.382   0.000   4.975
    7        1.593   3.382   0.000   4.975
    8        1.584   3.458   0.000   5.042
    9        1.584   3.457   0.000   5.040
   10        1.584   3.457   0.000   5.040
   11        1.584   3.458   0.000   5.042
   12        1.584   3.457   0.000   5.040
   13        1.584   3.457   0.000   5.041
--------------------------------------------------
tot         16.033  58.742  31.355 106.130
 


 magnetization (x)
 
# of ion       s       p       d       tot
------------------------------------------
    1        0.001   0.003   0.011   0.014
    2       -0.000  -0.000   1.730   1.729
    3       -0.003  -0.002  -0.064  -0.068
    4       -0.003  -0.002  -0.064  -0.068
    5       -0.003  -0.002  -0.064  -0.069
    6       -0.000   0.024   0.000   0.024
    7       -0.000   0.024   0.000   0.024
    8        0.005   0.054   0.000   0.059
    9        0.005   0.055   0.000   0.060
   10        0.005   0.055   0.000   0.060
   11        0.005   0.054   0.000   0.059
   12        0.005   0.055   0.000   0.060
   13        0.005   0.055   0.000   0.060
--------------------------------------------------
tot          0.022   0.373   1.549   1.944
 
    CHARGE:  cpu time    1.6238: real time    1.6238
    FORLOC:  cpu time    0.0057: real time    0.0057
    FORNL :  cpu time   17.0835: real time   17.0847
    STRESS:  cpu time  270.0227: real time  270.0315
    FORCOR:  cpu time    0.1733: real time    0.1733
    FORHAR:  cpu time    0.0156: real time    0.0156
    MIXING:  cpu time    0.0052: real time    0.0052
    OFIELD:  cpu time    0.0001: real time    0.0001

  FORCE on cell =-STRESS in cart. coord.  units (eV):
  Direction    XX          YY          ZZ          XY          YZ          ZX
  --------------------------------------------------------------------------------------
  Alpha Z   584.95731   584.95731   584.95731
  Ewald     503.12249   501.95120 -9183.92703     1.45145     8.78212    14.78551
  Hartree  5775.46948  5775.21089 -2514.83773     0.46509     7.11877    12.06873
  E(xc)    -824.52623  -824.53260  -823.57259     0.00579     0.00597     0.00967
  Local   -8387.70342 -8386.44530  9545.17065    -1.75567   -15.79915   -26.68188
  n-local  -542.81354  -542.81148  -550.66522     0.00267     0.01574     0.01997
  augment   840.48156   840.37205   852.15227     0.09151     0.07800     0.14010
  Kinetic  2050.99622  2051.29695  2090.71618    -0.26751    -0.15705    -0.27796
  Fock        0.00000     0.00000     0.00000     0.00000     0.00000     0.00000
  -------------------------------------------------------------------------------------
  Total      -0.01613    -0.00096    -0.00616    -0.00669     0.04440     0.06413
  in kB      -0.16890    -0.01002    -0.06452    -0.07003     0.46505     0.67172
  external pressure =       -0.08 kB  Pullay stress =        0.00 kB


 VOLUME and BASIS-vectors are now :
 -----------------------------------------------------------------------------
  energy-cutoff  :      520.00
  volume of cell :      152.97
      direct lattice vectors                 reciprocal lattice vectors
    -2.824135115 -4.880443219 -0.007435899     0.000122770 -0.205062017  0.060088346
    -5.638673907 -0.005541768 -0.007391537    -0.177526300  0.102636470  0.060085829
    -2.828246166 -1.632927474 -5.566872738     0.000235550  0.000137632 -0.179794111

  length of vectors
     5.638663003  5.638681475  6.454107266     0.213684476  0.213682332  0.179794318


 FORCES acting on ions
    electron-ion (+dipol)            ewald-force                    non-local-force                 convergence-correction
 -----------------------------------------------------------------------------------------------
   0.946E-02 -.142E-01 -.166E-02   -.981E-02 0.148E-01 0.155E-02   0.250E-03 -.533E-03 0.123E-03   0.200E-05 0.740E-06 0.242E-05
   -.354E-01 0.617E-01 0.874E-03   0.373E-01 -.649E-01 -.741E-03   -.194E-02 0.320E-02 -.227E-04   0.458E-06 0.455E-06 -.746E-05
   0.229E+00 0.617E-01 0.164E-01   -.193E+00 -.632E-01 -.147E-01   -.333E-01 0.200E-02 -.209E-02   -.103E-04 0.301E-04 0.867E-05
   -.156E+00 -.172E+00 -.180E-01   0.139E+00 0.141E+00 0.165E-01   0.150E-01 0.299E-01 0.212E-02   0.307E-04 -.799E-05 0.159E-04
   -.252E-01 0.293E-01 0.147E-02   0.348E-02 0.854E-02 -.138E-02   0.213E-01 -.371E-01 0.255E-04   -.204E-04 -.209E-04 0.444E-05
   0.606E-01 -.354E-01 -.684E+03   -.518E-01 0.438E-01 0.709E+03   -.149E-01 -.107E-01 -.253E+02   0.143E-03 0.320E-03 0.809E-03
   -.346E-01 -.641E-02 0.684E+03   0.244E-01 0.167E-03 -.709E+03   0.167E-01 0.783E-02 0.253E+02   -.144E-03 -.321E-03 -.808E-03
   -.104E+03 -.601E+02 -.602E+03   0.111E+03 0.642E+02 0.620E+03   -.714E+01 -.412E+01 -.178E+02   0.212E-03 -.132E-03 0.104E-02
   0.124E+01 0.121E+03 -.603E+03   -.128E+01 -.129E+03 0.620E+03   0.263E-01 0.817E+01 -.179E+02   -.162E-03 0.308E-04 0.759E-03
   0.105E+03 -.594E+02 -.602E+03   -.112E+03 0.635E+02 0.620E+03   0.708E+01 -.407E+01 -.179E+02   -.254E-03 -.292E-03 0.890E-03
   0.104E+03 0.603E+02 0.602E+03   -.111E+03 -.644E+02 -.620E+03   0.713E+01 0.413E+01 0.178E+02   -.209E-03 0.133E-03 -.104E-02
   -.111E+01 -.121E+03 0.602E+03   0.112E+01 0.129E+03 -.620E+03   -.157E-01 -.817E+01 0.179E+02   0.162E-03 -.346E-04 -.756E-03
   -.105E+03 0.593E+02 0.603E+03   0.112E+03 -.633E+02 -.620E+03   -.709E+01 0.406E+01 0.179E+02   0.252E-03 0.295E-03 -.888E-03
 -----------------------------------------------------------------------------------------------
   0.998E-03 -.122E-02 -.892E-04   0.284E-13 0.000E+00 -.341E-12   0.119E-02 -.221E-02 -.402E-03   0.119E-05 0.145E-05 0.337E-04
 
 
 POSITION                                       TOTAL-FORCE (eV/Angst)
 -----------------------------------------------------------------------------------
     -5.64554     -3.25944     -2.79085        -0.000267      0.000376      0.000053
     -5.63866     -0.00556     -0.00739        -0.000150      0.000241      0.000140
     -5.64328     -4.88317     -0.01116         0.001500      0.000739     -0.000252
     -4.24045     -4.07329     -5.57057        -0.001471     -0.000893      0.000566
     -4.23143     -2.44295     -0.00742        -0.000462      0.000923      0.000146
     -8.46988     -4.89022     -4.62443        -0.006097     -0.001713     -0.004313
     -2.82119     -1.62866     -0.95728         0.006186      0.001531      0.004361
     -4.32930     -2.49954     -4.57841        -0.014540     -0.008307     -0.006967
     -5.65022     -4.78309     -4.58133        -0.004816      0.004689     -0.004203
     -6.96736     -2.50190     -4.58144         0.002358     -0.004613     -0.003736
     -6.96182     -4.01926     -1.00327         0.015069      0.007362      0.006716
     -5.64075     -1.73582     -1.00034         0.003442     -0.005499      0.005094
     -4.32374     -4.01709     -1.00029        -0.000752      0.005162      0.002396
 -----------------------------------------------------------------------------------
    total drift:                                0.002188     -0.003429     -0.000458


--------------------------------------------------------------------------------------------------------



  FREE ENERGIE OF THE ION-ELECTRON SYSTEM (eV)
  ---------------------------------------------------
  free  energy   TOTEN  =      -137.72599787 eV

  energy  without entropy=     -137.72599787  energy(sigma->0) =     -137.72599787
 


--------------------------------------------------------------------------------------------------------


    POTLOK:  cpu time    1.7320: real time    1.7320


--------------------------------------------------------------------------------------------------------




--------------------------------------------------------------------------------------------------------


  
 reached required accuracy - stopping structural energy minimisation
     LOOP+:  cpu time 3216.0457: real time 3216.2730
    4ORBIT:  cpu time    0.0000: real time    0.0000
 


 total charge     
 
# of ion       s       p       d       tot
------------------------------------------
    1        2.026   5.875   0.229   8.131
    2        0.252   6.227   7.880  14.358
    3        0.356   6.378   7.749  14.483
    4        0.356   6.378   7.749  14.483
    5        0.355   6.377   7.748  14.481
    6        1.593   3.382   0.000   4.975
    7        1.593   3.382   0.000   4.975
    8        1.584   3.458   0.000   5.042
    9        1.584   3.457   0.000   5.040
   10        1.584   3.457   0.000   5.040
   11        1.584   3.458   0.000   5.042
   12        1.584   3.457   0.000   5.040
   13        1.584   3.457   0.000   5.041
--------------------------------------------------
tot         16.033  58.742  31.355 106.130
 


 magnetization (x)
 
# of ion       s       p       d       tot
------------------------------------------
    1        0.001   0.003   0.011   0.014
    2       -0.000  -0.000   1.730   1.729
    3       -0.003  -0.002  -0.064  -0.068
    4       -0.003  -0.002  -0.064  -0.068
    5       -0.003  -0.002  -0.064  -0.069
    6       -0.000   0.024   0.000   0.024
    7       -0.000   0.024   0.000   0.024
    8        0.005   0.054   0.000   0.059
    9        0.005   0.055   0.000   0.060
   10        0.005   0.055   0.000   0.060
   11        0.005   0.054   0.000   0.059
   12        0.005   0.055   0.000   0.060
   13        0.005   0.055   0.000   0.060
--------------------------------------------------
tot          0.022   0.373   1.549   1.944
 

 total amount of memory used by VASP MPI-rank0   158913. kBytes
=======================================================================

   base      :      30000. kBytes
   nonlr-proj:       3973. kBytes
   fftplans  :       2586. kBytes
   grid      :       9181. kBytes
   one-center:        124. kBytes
   wavefun   :     113049. kBytes
 
  
  
 General timing and accounting informations for this job:
 ========================================================
  
                  Total CPU time used (sec):     3232.059
                            User time (sec):     3230.099
                          System time (sec):        1.960
                         Elapsed time (sec):     3232.530
  
                   Maximum memory used (kb):      330828.
                   Average memory used (kb):           0.
  
                          Minor page faults:        47492
                          Major page faults:            0
                 Voluntary context switches:           68
