       N       E                     dE             d eps       ncg     rms          ort
DAV:   1     0.253062725227E+04    0.25306E+04   -0.14409E+05  8262   0.160E+03
DAV:   2    -0.186630796331E+03   -0.27173E+04   -0.25867E+04  8262   0.425E+02
DAV:   3    -0.454932182101E+03   -0.26830E+03   -0.26432E+03  8262   0.149E+02
DAV:   4    -0.465035790014E+03   -0.10104E+02   -0.99213E+01  8262   0.256E+01
DAV:   5    -0.465520440896E+03   -0.48465E+00   -0.48253E+00  8262   0.467E+00
SDA:   6    -0.289958691267E+03    0.17556E+03   -0.48253E+00  8262   0.528E+03 0.000E+00
CGA:   7    -0.349310363830E+03   -0.59352E+02   -0.67547E+02  8262   0.623E+02 0.734E+01
CGA:   8    -0.360612119904E+03   -0.11302E+02   -0.11293E+02  8262   0.145E+02-0.651E-01
CGA:   9    -0.363935985831E+03   -0.33239E+01   -0.33208E+01  8262   0.503E+01 0.576E-01
CGA:  10    -0.365082975321E+03   -0.11470E+01   -0.11464E+01  8262   0.199E+01-0.485E-02
CGA:  11    -0.365572579722E+03   -0.48960E+00   -0.49082E+00  8262   0.646E+00-0.280E-01
CGA:  12    -0.365740780303E+03   -0.16820E+00   -0.16856E+00  8262   0.233E+00-0.603E-02
CGA:  13    -0.365802199313E+03   -0.61419E-01   -0.60981E-01  8262   0.698E-01 0.730E-02
CGA:  14    -0.365824923611E+03   -0.22724E-01   -0.22463E-01  8262   0.287E-01 0.252E-02
CGA:  15    -0.365835136974E+03   -0.10213E-01   -0.10256E-01  8262   0.122E-01-0.312E-03
CGA:  16    -0.365839271215E+03   -0.41342E-02   -0.40781E-02  8262   0.467E-02 0.473E-03
CGA:  17    -0.365840984988E+03   -0.17138E-02   -0.17131E-02  8262   0.194E-02 0.316E-05
CGA:  18    -0.365841508263E+03   -0.52327E-03   -0.50607E-03  8262   0.747E-03 0.583E-03
CGA:  19    -0.365841860828E+03   -0.35256E-03   -0.34609E-03  8262   0.468E-03 0.503E-04
CGA:  20    -0.365841971147E+03   -0.11032E-03   -0.11326E-03  8262   0.271E-03 0.241E-03
CGA:  21    -0.365841994745E+03   -0.23597E-04   -0.39929E-04  8262   0.142E-03 0.179E-03
CGA:  22    -0.365842025024E+03   -0.30280E-04   -0.31474E-04  8262   0.939E-04 0.104E-03
CGA:  23    -0.365842026423E+03   -0.13984E-05   -0.11279E-04  8262   0.883E-04 0.872E-04
CGA:  24    -0.365842029694E+03   -0.32710E-05   -0.11396E-04  8262   0.835E-04 0.822E-04
   1 F= -.36584203E+03 E0= -.36584203E+03  d E =-.365842E+03  mag=    16.0000
       N       E                     dE             d eps       ncg     rms          ort
SDA:   1    -0.365856615915E+03   -0.14589E-01    0.00000E+00  8262   0.213E-02 0.000E+00
CGA:   2    -0.365857036986E+03   -0.42107E-03   -0.42583E-03  8262   0.515E-03 0.283E-03
CGA:   3    -0.365857202813E+03   -0.16583E-03   -0.16388E-03  8262   0.211E-03 0.300E-04
CGA:   4    -0.365857251314E+03   -0.48501E-04   -0.48506E-04  8262   0.967E-04 0.265E-05
CGA:   5    -0.365857259550E+03   -0.82361E-05   -0.12968E-04  8262   0.518E-04 0.546E-04
   2 F= -.36585726E+03 E0= -.36585726E+03  d E =-.152299E-01  mag=    16.0000
       N       E                     dE             d eps       ncg     rms          ort
SDA:   1    -0.365437306642E+03    0.41994E+00    0.00000E+00  8262   0.286E+01 0.000E+00
CGA:   2    -0.366088226485E+03   -0.65092E+00   -0.65068E+00  8262   0.768E+00 0.121E-01
CGA:   3    -0.366284330269E+03   -0.19610E+00   -0.19627E+00  8262   0.248E+00-0.375E-02
CGA:   4    -0.366329447777E+03   -0.45118E-01   -0.45071E-01  8262   0.630E-01-0.161E-02
CGA:   5    -0.366343184428E+03   -0.13737E-01   -0.13741E-01  8262   0.172E-01-0.452E-03
CGA:   6    -0.366347794414E+03   -0.46100E-02   -0.46046E-02  8262   0.814E-02 0.924E-04
CGA:   7    -0.366350132008E+03   -0.23376E-02   -0.23230E-02  8262   0.353E-02 0.207E-03
CGA:   8    -0.366351231566E+03   -0.10996E-02   -0.10800E-02  8262   0.131E-02 0.241E-03
CGA:   9    -0.366351638683E+03   -0.40712E-03   -0.39674E-03  8262   0.462E-03 0.167E-03
CGA:  10    -0.366351782299E+03   -0.14362E-03   -0.13779E-03  8262   0.181E-03 0.144E-03
CGA:  11    -0.366351824277E+03   -0.41977E-04   -0.46184E-04  8262   0.944E-04 0.128E-03
CGA:  12    -0.366351832280E+03   -0.80038E-05   -0.13616E-04  8262   0.619E-04 0.695E-04
   3 F= -.36635183E+03 E0= -.36635183E+03  d E =-.494573E+00  mag=    16.0000
       N       E                     dE             d eps       ncg     rms          ort
SDA:   1    -0.363370382701E+03    0.29814E+01    0.00000E+00  8262   0.120E+02 0.000E+00
CGA:   2    -0.365988548843E+03   -0.26182E+01   -0.26181E+01  8262   0.301E+01 0.131E-01
CGA:   3    -0.366749110520E+03   -0.76056E+00   -0.76093E+00  8262   0.103E+01-0.113E-01
CGA:   4    -0.366937923757E+03   -0.18881E+00   -0.18870E+00  8262   0.258E+00-0.343E-02
CGA:   5    -0.366995142677E+03   -0.57219E-01   -0.57226E-01  8262   0.732E-01-0.116E-02
CGA:   6    -0.367015033402E+03   -0.19891E-01   -0.19887E-01  8262   0.360E-01 0.511E-04
CGA:   7    -0.367025688231E+03   -0.10655E-01   -0.10627E-01  8262   0.164E-01 0.361E-03
CGA:   8    -0.367030858327E+03   -0.51701E-02   -0.51423E-02  8262   0.637E-02 0.318E-03
CGA:   9    -0.367032852711E+03   -0.19944E-02   -0.19806E-02  8262   0.232E-02 0.175E-03
CGA:  10    -0.367033659221E+03   -0.80651E-03   -0.79447E-03  8262   0.961E-03 0.117E-03
CGA:  11    -0.367034007002E+03   -0.34778E-03   -0.33074E-03  8262   0.392E-03 0.186E-03
CGA:  12    -0.367034155536E+03   -0.14853E-03   -0.14088E-03  8262   0.148E-03 0.126E-03
CGA:  13    -0.367034207399E+03   -0.51863E-04   -0.50733E-04  8262   0.560E-04 0.746E-04
CGA:  14    -0.367034211396E+03   -0.39973E-05   -0.79814E-05  8262   0.324E-04 0.391E-04
   4 F= -.36703421E+03 E0= -.36703421E+03  d E =-.682379E+00  mag=    16.0000
       N       E                     dE             d eps       ncg     rms          ort
SDA:   1    -0.363992410529E+03    0.30418E+01    0.00000E+00  8262   0.120E+02 0.000E+00
CGA:   2    -0.366447315638E+03   -0.24549E+01   -0.24562E+01  8262   0.281E+01 0.266E-01
CGA:   3    -0.367140620819E+03   -0.69331E+00   -0.69346E+00  8262   0.104E+01-0.106E-01
CGA:   4    -0.367329960570E+03   -0.18934E+00   -0.18914E+00  8262   0.240E+00-0.429E-02
CGA:   5    -0.367383004958E+03   -0.53044E-01   -0.53044E-01  8262   0.679E-01-0.458E-04
CGA:   6    -0.367400709790E+03   -0.17705E-01   -0.17677E-01  8262   0.319E-01 0.915E-03
CGA:   7    -0.367410906629E+03   -0.10197E-01   -0.10192E-01  8262   0.167E-01 0.580E-04
CGA:   8    -0.367416533215E+03   -0.56266E-02   -0.56756E-02  8262   0.771E-02-0.469E-03
CGA:   9    -0.367418850652E+03   -0.23174E-02   -0.23186E-02  8262   0.277E-02-0.165E-04
CGA:  10    -0.367419746025E+03   -0.89537E-03   -0.88671E-03  8262   0.102E-02 0.113E-03
CGA:  11    -0.367420106713E+03   -0.36069E-03   -0.34960E-03  8262   0.396E-03 0.137E-03
CGA:  12    -0.367420279510E+03   -0.17280E-03   -0.17014E-03  8262   0.170E-03 0.211E-04
CGA:  13    -0.367420347188E+03   -0.67679E-04   -0.67897E-04  8262   0.589E-04-0.186E-05
CGA:  14    -0.367420361052E+03   -0.13864E-04   -0.14247E-04  8262   0.179E-04 0.189E-04
CGA:  15    -0.367420368213E+03   -0.71608E-05   -0.70734E-05  8262   0.739E-05 0.243E-05
   5 F= -.36742037E+03 E0= -.36742037E+03  d E =-.386157E+00  mag=    16.0000
       N       E                     dE             d eps       ncg     rms          ort
SDA:   1    -0.362599191537E+03    0.48212E+01    0.00000E+00  8262   0.172E+02 0.000E+00
CGA:   2    -0.366216627968E+03   -0.36174E+01   -0.36212E+01  8262   0.439E+01 0.192E-01
CGA:   3    -0.367270812786E+03   -0.10542E+01   -0.10539E+01  8262   0.156E+01-0.829E-02
CGA:   4    -0.367548395725E+03   -0.27758E+00   -0.27747E+00  8262   0.332E+00-0.207E-02
CGA:   5    -0.367621638437E+03   -0.73243E-01   -0.73247E-01  8262   0.934E-01 0.214E-05
CGA:   6    -0.367645573622E+03   -0.23935E-01   -0.23936E-01  8262   0.427E-01 0.694E-03
CGA:   7    -0.367659209766E+03   -0.13636E-01   -0.13635E-01  8262   0.231E-01 0.124E-04
CGA:   8    -0.367667123160E+03   -0.79134E-02   -0.79572E-02  8262   0.110E-01-0.521E-03
CGA:   9    -0.367670445532E+03   -0.33224E-02   -0.33227E-02  8262   0.384E-02-0.953E-05
CGA:  10    -0.367671666452E+03   -0.12209E-02   -0.12149E-02  8262   0.133E-02 0.121E-03
CGA:  11    -0.367672142906E+03   -0.47645E-03   -0.46918E-03  8262   0.533E-03 0.102E-03
CGA:  12    -0.367672376512E+03   -0.23361E-03   -0.23836E-03  8262   0.254E-03-0.335E-04
CGA:  13    -0.367672470162E+03   -0.93651E-04   -0.99506E-04  8262   0.976E-04-0.428E-04
CGA:  14    -0.367672502050E+03   -0.31887E-04   -0.37051E-04  8262   0.432E-04-0.308E-04
CGA:  15    -0.367672526498E+03   -0.24449E-04    0.10889E-04  8262   0.150E-04 0.488E-05
CGA:  16    -0.367672538403E+03   -0.11905E-04    0.12159E-04  8262   0.635E-05 0.218E-05
CGA:  17    -0.367672550547E+03   -0.12144E-04    0.58778E-06  8262   0.313E-05 0.231E-05
CGA:  18    -0.367672562898E+03   -0.12350E-04    0.16177E-06  8262   0.153E-05 0.123E-05
CGA:  19    -0.367672572596E+03   -0.96980E-05    0.46692E-07  8262   0.874E-06 0.792E-06
   6 F= -.36767257E+03 E0= -.36767257E+03  d E =-.252204E+00  mag=    16.0000
       N       E                     dE             d eps       ncg     rms          ort
SDA:   1    -0.360547415488E+03    0.71251E+01    0.00000E+00  8262   0.236E+02 0.000E+00
CGA:   2    -0.365657231545E+03   -0.51098E+01   -0.51194E+01  8262   0.692E+01 0.107E-01
CGA:   3    -0.367232605508E+03   -0.15754E+01   -0.15752E+01  8262   0.232E+01-0.192E-02
CGA:   4    -0.367638529538E+03   -0.40592E+00   -0.40639E+00  8262   0.455E+00 0.269E-02
CGA:   5    -0.367737646854E+03   -0.99117E-01   -0.99115E-01  8262   0.128E+00-0.362E-03
CGA:   6    -0.367769391794E+03   -0.31745E-01   -0.31726E-01  8262   0.552E-01-0.597E-03
CGA:   7    -0.367786726175E+03   -0.17334E-01   -0.17339E-01  8262   0.303E-01-0.111E-03
CGA:   8    -0.367797202192E+03   -0.10476E-01   -0.10490E-01  8262   0.151E-01-0.208E-03
CGA:   9    -0.367802011433E+03   -0.48092E-02   -0.48160E-02  8262   0.557E-02-0.178E-03
CGA:  10    -0.367803782521E+03   -0.17711E-02   -0.17709E-02  8262   0.190E-02 0.747E-05
CGA:  11    -0.367804443896E+03   -0.66138E-03   -0.65866E-03  8262   0.752E-03 0.464E-04
CGA:  12    -0.367804737204E+03   -0.29331E-03   -0.29244E-03  8262   0.306E-03 0.958E-05
CGA:  13    -0.367804848583E+03   -0.11138E-03   -0.11044E-03  8262   0.946E-04 0.152E-04
CGA:  14    -0.367804885935E+03   -0.37352E-04   -0.37650E-04  8262   0.306E-04-0.376E-05
CGA:  15    -0.367804859322E+03    0.26613E-04   -0.36894E-04  8262   0.207E-03-0.670E-04
CGA:  16    -0.367804910233E+03   -0.50911E-04   -0.52537E-04  8262   0.170E-04 0.169E-04
CGA:  17    -0.367804923171E+03   -0.12938E-04    0.13980E-03  8262   0.528E-05 0.218E-05
CGA:  18    -0.367804923945E+03   -0.77415E-06   -0.11572E-05  8262   0.190E-05 0.255E-05
   7 F= -.36780492E+03 E0= -.36780492E+03  d E =-.132351E+00  mag=    16.0000
       N       E                     dE             d eps       ncg     rms          ort
SDA:   1    -0.356141887097E+03    0.11663E+02    0.00000E+00  8262   0.349E+02 0.000E+00
CGA:   2    -0.364362710800E+03   -0.82208E+01   -0.82401E+01  8262   0.121E+02 0.935E-02
CGA:   3    -0.366984334773E+03   -0.26216E+01   -0.26221E+01  8262   0.359E+01 0.644E-02
CGA:   4    -0.367599067023E+03   -0.61473E+00   -0.61581E+00  8262   0.667E+00 0.426E-02
CGA:   5    -0.367742035886E+03   -0.14297E+00   -0.14301E+00  8262   0.182E+00-0.231E-03
CGA:   6    -0.367785523451E+03   -0.43488E-01   -0.43439E-01  8262   0.710E-01-0.719E-03
CGA:   7    -0.367806892030E+03   -0.21369E-01   -0.21368E-01  8262   0.358E-01-0.169E-03
CGA:   8    -0.367819178919E+03   -0.12287E-01   -0.12291E-01  8262   0.182E-01-0.141E-03
CGA:   9    -0.367825137957E+03   -0.59590E-02   -0.59633E-02  8262   0.711E-02-0.243E-03
CGA:  10    -0.367827460384E+03   -0.23224E-02   -0.23243E-02  8262   0.260E-02-0.953E-04
CGA:  11    -0.367828364169E+03   -0.90379E-03   -0.90148E-03  8262   0.108E-02 0.591E-04
CGA:  12    -0.367828785194E+03   -0.42102E-03   -0.41788E-03  8262   0.459E-03 0.491E-04
CGA:  13    -0.367828949044E+03   -0.16385E-03   -0.16254E-03  8262   0.144E-03 0.625E-04
CGA:  14    -0.367829001197E+03   -0.52153E-04   -0.52133E-04  8262   0.429E-04 0.251E-04
CGA:  15    -0.367829022679E+03   -0.21482E-04   -0.22070E-04  8262   0.219E-04-0.499E-05
CGA:  16    -0.367829025841E+03   -0.31617E-05   -0.41947E-05  8262   0.104E-04 0.953E-05
   8 F= -.36782903E+03 E0= -.36782903E+03  d E =-.241019E-01  mag=    16.0000
       N       E                     dE             d eps       ncg     rms          ort
SDA:   1    -0.365341667601E+03    0.24874E+01    0.00000E+00  8262   0.675E+01 0.000E+00
CGA:   2    -0.367116523828E+03   -0.17749E+01   -0.17746E+01  8262   0.301E+01-0.475E-02
CGA:   3    -0.367679063725E+03   -0.56254E+00   -0.56251E+00  8262   0.729E+00-0.568E-03
CGA:   4    -0.367815366706E+03   -0.13630E+00   -0.13631E+00  8262   0.148E+00-0.214E-03
CGA:   5    -0.367845182151E+03   -0.29815E-01   -0.29837E-01  8262   0.404E-01 0.211E-03
CGA:   6    -0.367854369997E+03   -0.91878E-02   -0.92041E-02  8262   0.133E-01 0.238E-03
CGA:   7    -0.367858131313E+03   -0.37613E-02   -0.37612E-02  8262   0.561E-02-0.182E-04
CGA:   8    -0.367859924950E+03   -0.17936E-02   -0.17967E-02  8262   0.260E-02-0.102E-03
CGA:   9    -0.367860735023E+03   -0.81007E-03   -0.81111E-03  8262   0.940E-03-0.402E-04
CGA:  10    -0.367861028531E+03   -0.29351E-03   -0.29327E-03  8262   0.332E-03 0.976E-05
CGA:  11    -0.367861147503E+03   -0.11897E-03   -0.11869E-03  8262   0.155E-03 0.450E-05
CGA:  12    -0.367861215112E+03   -0.67608E-04   -0.10812E-03  8262   0.255E-03-0.104E-03
CGA:  13    -0.367861260993E+03   -0.45881E-04   -0.51143E-04  8262   0.314E-04 0.452E-04
CGA:  14    -0.367861286996E+03   -0.26003E-04    0.44274E-04  8262   0.118E-04 0.333E-05
CGA:  15    -0.367861289909E+03   -0.29124E-05   -0.32137E-05  8262   0.505E-05 0.460E-05
   9 F= -.36786129E+03 E0= -.36786129E+03  d E =-.322641E-01  mag=    16.0000
       N       E                     dE             d eps       ncg     rms          ort
SDA:   1    -0.366863263662E+03    0.99802E+00    0.00000E+00  8262   0.299E+01 0.000E+00
CGA:   2    -0.367593088083E+03   -0.72982E+00   -0.72988E+00  8262   0.118E+01-0.642E-03
CGA:   3    -0.367830663507E+03   -0.23758E+00   -0.23767E+00  8262   0.325E+00 0.646E-03
CGA:   4    -0.367889093130E+03   -0.58430E-01   -0.58461E-01  8262   0.625E-01 0.156E-03
CGA:   5    -0.367902180689E+03   -0.13088E-01   -0.13072E-01  8262   0.178E-01-0.190E-03
CGA:   6    -0.367906273721E+03   -0.40930E-02   -0.40901E-02  8262   0.650E-02-0.508E-04
CGA:   7    -0.367908181600E+03   -0.19079E-02   -0.19069E-02  8262   0.311E-02 0.122E-03
CGA:   8    -0.367909218382E+03   -0.10368E-02   -0.10323E-02  8262   0.154E-02 0.112E-03
CGA:   9    -0.367909746317E+03   -0.52793E-03   -0.52633E-03  8262   0.623E-03 0.378E-04
CGA:  10    -0.367909950659E+03   -0.20434E-03   -0.20368E-03  8262   0.229E-03 0.237E-04
CGA:  11    -0.367910033216E+03   -0.82557E-04   -0.82108E-04  8262   0.994E-04 0.858E-05
CGA:  12    -0.367910062938E+03   -0.29722E-04   -0.29872E-04  8262   0.368E-04 0.282E-04
CGA:  13    -0.367910071674E+03   -0.87360E-05   -0.10324E-04  8262   0.149E-04 0.209E-04
  10 F= -.36791007E+03 E0= -.36791007E+03  d E =-.487818E-01  mag=    16.0000
       N       E                     dE             d eps       ncg     rms          ort
SDA:   1    -0.366269544786E+03    0.16405E+01    0.00000E+00  8262   0.429E+01 0.000E+00
CGA:   2    -0.367518811800E+03   -0.12493E+01   -0.12493E+01  8262   0.171E+01-0.308E-02
CGA:   3    -0.367840822099E+03   -0.32201E+00   -0.32222E+00  8262   0.417E+00 0.185E-02
CGA:   4    -0.367914478445E+03   -0.73656E-01   -0.73748E-01  8262   0.824E-01 0.736E-03
CGA:   5    -0.367931863341E+03   -0.17385E-01   -0.17338E-01  8262   0.218E-01-0.723E-03
CGA:   6    -0.367936685933E+03   -0.48226E-02   -0.48062E-02  8262   0.723E-02-0.328E-03
CGA:   7    -0.367938601596E+03   -0.19157E-02   -0.19161E-02  8262   0.283E-02 0.196E-03
CGA:   8    -0.367939516772E+03   -0.91518E-03   -0.90870E-03  8262   0.133E-02 0.157E-03
CGA:   9    -0.367939994488E+03   -0.47772E-03   -0.47939E-03  8262   0.569E-03-0.249E-04
CGA:  10    -0.367940174178E+03   -0.17969E-03   -0.17955E-03  8262   0.205E-03 0.282E-05
CGA:  11    -0.367940244745E+03   -0.70567E-04   -0.70370E-04  8262   0.909E-04 0.313E-05
CGA:  12    -0.367940265915E+03   -0.21171E-04   -0.22579E-04  8262   0.389E-04 0.377E-04
CGA:  13    -0.367940275428E+03   -0.95123E-05   -0.11380E-04  8262   0.190E-04 0.255E-04
  11 F= -.36794028E+03 E0= -.36794028E+03  d E =-.302038E-01  mag=    16.0000
       N       E                     dE             d eps       ncg     rms          ort
SDA:   1    -0.354522358252E+03    0.13418E+02    0.00000E+00  8262   0.345E+02 0.000E+00
CGA:   2    -0.364565971049E+03   -0.10044E+02   -0.10043E+02  8262   0.139E+02 0.116E-01
CGA:   3    -0.367179602329E+03   -0.26136E+01   -0.26151E+01  8262   0.328E+01 0.617E-02
CGA:   4    -0.367753239300E+03   -0.57364E+00   -0.57392E+00  8262   0.653E+00 0.177E-02
CGA:   5    -0.367890797832E+03   -0.13756E+00   -0.13747E+00  8262   0.171E+00-0.167E-02
CGA:   6    -0.367928064626E+03   -0.37267E-01   -0.37235E-01  8262   0.548E-01-0.776E-03
CGA:   7    -0.367943184706E+03   -0.15120E-01   -0.15116E-01  8262   0.224E-01 0.297E-03
CGA:   8    -0.367950432540E+03   -0.72478E-02   -0.72362E-02  8262   0.107E-01 0.194E-03
CGA:   9    -0.367953982371E+03   -0.35498E-02   -0.35615E-02  8262   0.413E-02-0.188E-03
CGA:  10    -0.367955331311E+03   -0.13489E-02   -0.13629E-02  8262   0.153E-02-0.213E-03
CGA:  11    -0.367955822193E+03   -0.49088E-03   -0.48924E-03  8262   0.635E-03 0.244E-04
CGA:  12    -0.367956077961E+03   -0.25577E-03   -0.25183E-03  8262   0.337E-03 0.338E-04
CGA:  13    -0.367956201903E+03   -0.12394E-03   -0.11963E-03  8262   0.135E-03 0.771E-04
CGA:  14    -0.367956259420E+03   -0.57517E-04   -0.56128E-04  8262   0.518E-04 0.255E-04
CGA:  15    -0.367956282141E+03   -0.22720E-04   -0.46162E-04  8262   0.101E-03-0.509E-04
CGA:  16    -0.367956292998E+03   -0.10858E-04   -0.16446E-04  8262   0.187E-04 0.381E-04
CGA:  17    -0.367956297660E+03   -0.46620E-05   -0.51867E-05  8262   0.462E-05 0.515E-05
  12 F= -.36795630E+03 E0= -.36795630E+03  d E =-.160222E-01  mag=    16.0000
       N       E                     dE             d eps       ncg     rms          ort
SDA:   1    -0.363409598299E+03    0.45467E+01    0.00000E+00  8262   0.118E+02 0.000E+00
CGA:   2    -0.366800158408E+03   -0.33906E+01   -0.33903E+01  8262   0.448E+01-0.128E-01
CGA:   3    -0.367681144849E+03   -0.88099E+00   -0.88072E+00  8262   0.120E+01-0.329E-02
CGA:   4    -0.367896113217E+03   -0.21497E+00   -0.21517E+00  8262   0.251E+00 0.570E-03
CGA:   5    -0.367948943867E+03   -0.52831E-01   -0.52898E-01  8262   0.692E-01 0.939E-03
CGA:   6    -0.367964650666E+03   -0.15707E-01   -0.15718E-01  8262   0.239E-01 0.191E-03
CGA:   7    -0.367971462665E+03   -0.68120E-02   -0.68140E-02  8262   0.992E-02-0.459E-03
CGA:   8    -0.367974526601E+03   -0.30639E-02   -0.30754E-02  8262   0.428E-02-0.318E-03
CGA:   9    -0.367975725705E+03   -0.11991E-02   -0.11987E-02  8262   0.129E-02 0.572E-04
CGA:  10    -0.367976129708E+03   -0.40400E-03   -0.40342E-03  8262   0.444E-03 0.224E-04
CGA:  11    -0.367976280941E+03   -0.15123E-03   -0.14972E-03  8262   0.199E-03 0.312E-04
CGA:  12    -0.367976326991E+03   -0.46050E-04   -0.18829E-03  8262   0.666E-03-0.238E-03
CGA:  13    -0.367976423533E+03   -0.96543E-04   -0.11890E-03  8262   0.849E-04 0.163E-03
CGA:  14    -0.367976450328E+03   -0.26795E-04   -0.64971E-04  8262   0.216E-03-0.125E-03
CGA:  15    -0.367976462772E+03   -0.12444E-04   -0.29595E-04  8262   0.453E-04 0.915E-04
CGA:  16    -0.367976472237E+03   -0.94652E-05   -0.10995E-04  8262   0.665E-05 0.106E-04
  13 F= -.36797647E+03 E0= -.36797647E+03  d E =-.201746E-01  mag=    16.0000
       N       E                     dE             d eps       ncg     rms          ort
SDA:   1    -0.365712067333E+03    0.22644E+01    0.00000E+00  8262   0.591E+01 0.000E+00
CGA:   2    -0.367389786002E+03   -0.16777E+01   -0.16780E+01  8262   0.265E+01 0.679E-02
CGA:   3    -0.367872899665E+03   -0.48311E+00   -0.48312E+00  8262   0.602E+00-0.107E-02
CGA:   4    -0.367982406897E+03   -0.10951E+00   -0.10936E+00  8262   0.123E+00-0.134E-02
CGA:   5    -0.368007544493E+03   -0.25138E-01   -0.25139E-01  8262   0.333E-01-0.806E-06
CGA:   6    -0.368014832613E+03   -0.72881E-02   -0.73036E-02  8262   0.105E-01 0.209E-03
CGA:   7    -0.368017763842E+03   -0.29312E-02   -0.29319E-02  8262   0.430E-02 0.711E-04
CGA:   8    -0.368019114440E+03   -0.13506E-02   -0.13493E-02  8262   0.194E-02 0.498E-04
CGA:   9    -0.368019739530E+03   -0.62509E-03   -0.62500E-03  8262   0.701E-03 0.242E-05
CGA:  10    -0.368019954084E+03   -0.21455E-03   -0.21420E-03  8262   0.232E-03 0.213E-04
CGA:  11    -0.368020031614E+03   -0.77530E-04   -0.76932E-04  8262   0.969E-04 0.184E-04
CGA:  12    -0.368020067190E+03   -0.35577E-04   -0.34656E-04  8262   0.475E-04 0.228E-04
CGA:  13    -0.368020088412E+03   -0.21222E-04   -0.20477E-04  8262   0.238E-04 0.133E-04
CGA:  14    -0.368020096603E+03   -0.81910E-05   -0.84112E-05  8262   0.951E-05 0.111E-04
  14 F= -.36802010E+03 E0= -.36802010E+03  d E =-.436244E-01  mag=    16.0000
       N       E                     dE             d eps       ncg     rms          ort
SDA:   1    -0.367361829142E+03    0.65826E+00    0.00000E+00  8262   0.181E+01 0.000E+00
CGA:   2    -0.367830548120E+03   -0.46872E+00   -0.46884E+00  8262   0.763E+00 0.236E-02
CGA:   3    -0.367973309742E+03   -0.14276E+00   -0.14279E+00  8262   0.206E+00 0.537E-04
CGA:   4    -0.368013121957E+03   -0.39812E-01   -0.39822E-01  8262   0.452E-01 0.141E-03
CGA:   5    -0.368022240262E+03   -0.91183E-02   -0.90907E-02  8262   0.129E-01-0.365E-03
CGA:   6    -0.368025261402E+03   -0.30211E-02   -0.30072E-02  8262   0.455E-02-0.349E-03
CGA:   7    -0.368026450933E+03   -0.11895E-02   -0.11897E-02  8262   0.172E-02 0.404E-04
CGA:   8    -0.368026928432E+03   -0.47750E-03   -0.47733E-03  8262   0.607E-03 0.145E-03
CGA:   9    -0.368027144697E+03   -0.21626E-03   -0.21856E-03  8262   0.240E-03-0.389E-04
CGA:  10    -0.368027219008E+03   -0.74311E-04   -0.76222E-04  8262   0.964E-04-0.301E-04
CGA:  11    -0.368027243976E+03   -0.24968E-04   -0.50081E-04  8262   0.157E-03-0.799E-04
CGA:  12    -0.368027263995E+03   -0.20019E-04   -0.25436E-04  8262   0.221E-04 0.407E-04
CGA:  13    -0.368027270999E+03   -0.70049E-05   -0.71140E-05  8262   0.964E-05 0.333E-05
  15 F= -.36802727E+03 E0= -.36802727E+03  d E =-.717440E-02  mag=    16.0000
       N       E                     dE             d eps       ncg     rms          ort
SDA:   1    -0.367408663908E+03    0.61860E+00    0.00000E+00  8262   0.171E+01 0.000E+00
CGA:   2    -0.367864816125E+03   -0.45615E+00   -0.45617E+00  8262   0.695E+00 0.293E-03
CGA:   3    -0.368001788676E+03   -0.13697E+00   -0.13692E+00  8262   0.175E+00-0.607E-03
CGA:   4    -0.368031976882E+03   -0.30188E-01   -0.30229E-01  8262   0.331E-01 0.312E-03
CGA:   5    -0.368038778534E+03   -0.68017E-02   -0.68004E-02  8262   0.864E-02-0.204E-04
CGA:   6    -0.368040672540E+03   -0.18940E-02   -0.18905E-02  8262   0.271E-02-0.692E-04
CGA:   7    -0.368041409086E+03   -0.73655E-03   -0.73648E-03  8262   0.112E-02 0.155E-04
CGA:   8    -0.368041758818E+03   -0.34973E-03   -0.34743E-03  8262   0.514E-03 0.599E-04
CGA:   9    -0.368041933363E+03   -0.17455E-03   -0.17278E-03  8262   0.206E-03 0.369E-04
CGA:  10    -0.368042001218E+03   -0.67855E-04   -0.67137E-04  8262   0.752E-04 0.240E-04
CGA:  11    -0.368042027693E+03   -0.26475E-04   -0.26009E-04  8262   0.328E-04 0.135E-04
CGA:  12    -0.368042039285E+03   -0.11592E-04   -0.11385E-04  8262   0.157E-04 0.122E-04
CGA:  13    -0.368042043637E+03   -0.43520E-05   -0.48849E-05  8262   0.772E-05 0.104E-04
  16 F= -.36804204E+03 E0= -.36804204E+03  d E =-.147726E-01  mag=    16.0000
       N       E                     dE             d eps       ncg     rms          ort
SDA:   1    -0.305472624808E+03    0.62569E+02    0.00000E+00  8262   0.157E+03 0.000E+00
CGA:   2    -0.351585473398E+03   -0.46113E+02   -0.46142E+02  8262   0.527E+02-0.107E+01
CGA:   3    -0.362024952917E+03   -0.10439E+02   -0.10486E+02  8262   0.152E+02 0.774E-01
CGA:   4    -0.364922262186E+03   -0.28973E+01   -0.29021E+01  8262   0.359E+01-0.952E-03
CGA:   5    -0.365678857146E+03   -0.75659E+00   -0.75648E+00  8262   0.106E+01 0.206E-02
CGA:   6    -0.365926592794E+03   -0.24774E+00   -0.24792E+00  8262   0.380E+00 0.446E-02
CGA:   7    -0.366030931820E+03   -0.10434E+00   -0.10434E+00  8262   0.147E+00-0.141E-02
CGA:   8    -0.366075479882E+03   -0.44548E-01   -0.44556E-01  8262   0.566E-01-0.260E-03
CGA:   9    -0.366091782876E+03   -0.16303E-01   -0.16264E-01  8262   0.179E-01 0.164E-02
CGA:  10    -0.366097866076E+03   -0.60832E-02   -0.60750E-02  8262   0.723E-02 0.123E-03
CGA:  11    -0.366100097955E+03   -0.22319E-02   -0.21894E-02  8262   0.302E-02 0.130E-02
CGA:  12    -0.366101611235E+03   -0.15133E-02   -0.15867E-02  8262   0.238E-02-0.421E-03
CGA:  13    -0.366101959988E+03   -0.34875E-03   -0.41286E-03  8262   0.115E-02 0.835E-03
CGA:  14    -0.366102209985E+03   -0.25000E-03   -0.29208E-03  8262   0.446E-03 0.485E-03
CGA:  15    -0.366102440435E+03   -0.23045E-03   -0.26155E-03  8262   0.517E-03-0.220E-03
CGA:  16    -0.366102437752E+03    0.26834E-05   -0.21883E-04  8262   0.453E-03 0.126E-03
CGA:  17    -0.366102441200E+03   -0.34481E-05   -0.52489E-04  8262   0.225E-03 0.280E-03
CGA:  18    -0.366102525144E+03   -0.83944E-04   -0.83670E-04  8262   0.311E-04 0.241E-05
CGA:  19    -0.366102564190E+03   -0.39046E-04    0.30967E-05  8262   0.153E-04 0.168E-04
CGA:  20    -0.366102562946E+03    0.12448E-05   -0.12561E-05  8262   0.130E-04 0.137E-04
  17 F= -.36610256E+03 E0= -.36610256E+03  d E =0.193948E+01  mag=    16.0000
       N       E                     dE             d eps       ncg     rms          ort
SDA:   1    -0.352121052159E+03    0.13982E+02    0.00000E+00  8262   0.406E+02 0.000E+00
CGA:   2    -0.363207391947E+03   -0.11086E+02   -0.11084E+02  8262   0.157E+02 0.582E-01
CGA:   3    -0.366351594592E+03   -0.31442E+01   -0.31456E+01  8262   0.460E+01 0.146E-01
CGA:   4    -0.367226155717E+03   -0.87456E+00   -0.87549E+00  8262   0.104E+01 0.107E-01
CGA:   5    -0.367443437366E+03   -0.21728E+00   -0.21733E+00  8262   0.318E+00 0.209E-03
CGA:   6    -0.367522386163E+03   -0.78949E-01   -0.78951E-01  8262   0.133E+00-0.230E-02
CGA:   7    -0.367558704123E+03   -0.36318E-01   -0.36332E-01  8262   0.515E-01-0.564E-03
CGA:   8    -0.367573880230E+03   -0.15176E-01   -0.15144E-01  8262   0.193E-01 0.673E-03
CGA:   9    -0.367579800548E+03   -0.59203E-02   -0.59611E-02  8262   0.651E-02-0.772E-03
CGA:  10    -0.367581774247E+03   -0.19737E-02   -0.19919E-02  8262   0.222E-02-0.282E-03
CGA:  11    -0.367582512005E+03   -0.73776E-03   -0.75007E-03  8262   0.999E-03-0.129E-03
CGA:  12    -0.367582888180E+03   -0.37617E-03   -0.38393E-03  8262   0.559E-03-0.540E-04
CGA:  13    -0.367583091718E+03   -0.20354E-03   -0.20965E-03  8262   0.316E-03-0.488E-04
CGA:  14    -0.367583191522E+03   -0.99804E-04   -0.10472E-03  8262   0.184E-03-0.566E-04
CGA:  15    -0.367583237724E+03   -0.46201E-04   -0.46678E-04  8262   0.710E-04-0.168E-04
CGA:  16    -0.367583254377E+03   -0.16654E-04   -0.45925E-04  8262   0.122E-03-0.681E-04
CGA:  17    -0.367583278631E+03   -0.24253E-04   -0.26331E-04  8262   0.148E-04 0.237E-04
CGA:  18    -0.367583284144E+03   -0.55139E-05   -0.55044E-05  8262   0.555E-05 0.757E-06
  18 F= -.36758328E+03 E0= -.36758328E+03  d E =-.148072E+01  mag=    16.0000
       N       E                     dE             d eps       ncg     rms          ort
SDA:   1    -0.367175776023E+03    0.40750E+00    0.00000E+00  8262   0.155E+01 0.000E+00
CGA:   2    -0.367638650768E+03   -0.46287E+00   -0.46287E+00  8262   0.511E+00-0.504E-03
CGA:   3    -0.367746698839E+03   -0.10805E+00   -0.10816E+00  8262   0.170E+00 0.123E-02
CGA:   4    -0.367777692835E+03   -0.30994E-01   -0.31049E-01  8262   0.345E-01 0.442E-03
CGA:   5    -0.367785200039E+03   -0.75072E-02   -0.74702E-02  8262   0.116E-01-0.548E-03
CGA:   6    -0.367788020763E+03   -0.28207E-02   -0.28142E-02  8262   0.458E-02-0.187E-03
CGA:   7    -0.367789132308E+03   -0.11115E-02   -0.11211E-02  8262   0.158E-02 0.310E-03
CGA:   8    -0.367789583914E+03   -0.45161E-03   -0.45384E-03  8262   0.540E-03 0.225E-03
CGA:   9    -0.367789775546E+03   -0.19163E-03   -0.19207E-03  8262   0.216E-03-0.132E-04
CGA:  10    -0.367789837375E+03   -0.61829E-04   -0.61836E-04  8262   0.709E-04-0.574E-06
CGA:  11    -0.367789853186E+03   -0.15811E-04   -0.16626E-04  8262   0.236E-04 0.181E-04
CGA:  12    -0.367789855846E+03   -0.26605E-05   -0.46525E-05  8262   0.122E-04 0.165E-04
  19 F= -.36778986E+03 E0= -.36778986E+03  d E =-.206572E+00  mag=    16.0000
       N       E                     dE             d eps       ncg     rms          ort
SDA:   1    -0.363282784653E+03    0.45071E+01    0.00000E+00  8262   0.122E+02 0.000E+00
CGA:   2    -0.366869572673E+03   -0.35868E+01   -0.35842E+01  8262   0.403E+01 0.553E-01
CGA:   3    -0.367727016781E+03   -0.85744E+00   -0.85800E+00  8262   0.142E+01 0.731E-02
CGA:   4    -0.367988988983E+03   -0.26197E+00   -0.26238E+00  8262   0.285E+00 0.444E-02
CGA:   5    -0.368050001158E+03   -0.61012E-01   -0.60981E-01  8262   0.973E-01-0.966E-03
CGA:   6    -0.368074088991E+03   -0.24088E-01   -0.24084E-01  8262   0.391E-01-0.529E-03
CGA:   7    -0.368084476020E+03   -0.10387E-01   -0.10377E-01  8262   0.146E-01 0.106E-02
CGA:   8    -0.368088782806E+03   -0.43068E-02   -0.42875E-02  8262   0.504E-02 0.672E-03
CGA:   9    -0.368090364909E+03   -0.15821E-02   -0.15913E-02  8262   0.160E-02-0.218E-03
CGA:  10    -0.368090839440E+03   -0.47453E-03   -0.48021E-03  8262   0.510E-03-0.108E-03
CGA:  11    -0.368090988446E+03   -0.14901E-03   -0.14880E-03  8262   0.185E-03 0.419E-05
CGA:  12    -0.368091029504E+03   -0.41059E-04   -0.43472E-04  8262   0.746E-04 0.728E-04
CGA:  13    -0.368091051431E+03   -0.21927E-04   -0.23517E-04  8262   0.367E-04 0.407E-04
CGA:  14    -0.368091067012E+03   -0.15581E-04   -0.14460E-04  8262   0.226E-04 0.852E-05
CGA:  15    -0.368091070232E+03   -0.32205E-05   -0.50332E-05  8262   0.134E-04 0.204E-04
  20 F= -.36809107E+03 E0= -.36809107E+03  d E =-.301214E+00  mag=    16.0000
       N       E                     dE             d eps       ncg     rms          ort
SDA:   1    -0.367927441444E+03    0.16363E+00    0.00000E+00  8262   0.450E+00 0.000E+00
CGA:   2    -0.368063596798E+03   -0.13616E+00   -0.13613E+00  8262   0.129E+00 0.109E-02
CGA:   3    -0.368093798503E+03   -0.30202E-01   -0.30221E-01  8262   0.449E-01 0.377E-03
CGA:   4    -0.368101615629E+03   -0.78171E-02   -0.78166E-02  8262   0.953E-02-0.224E-04
CGA:   5    -0.368103787653E+03   -0.21720E-02   -0.21471E-02  8262   0.339E-02-0.481E-03
CGA:   6    -0.368104555070E+03   -0.76742E-03   -0.76140E-03  8262   0.134E-02-0.156E-03
CGA:   7    -0.368104854228E+03   -0.29916E-03   -0.30406E-03  8262   0.414E-03 0.139E-03
CGA:   8    -0.368104972894E+03   -0.11867E-03   -0.11941E-03  8262   0.153E-03 0.751E-04
CGA:   9    -0.368105035796E+03   -0.62902E-04   -0.68427E-04  8262   0.109E-03-0.511E-04
CGA:  10    -0.368105057514E+03   -0.21718E-04   -0.23269E-04  8262   0.525E-04-0.338E-04
CGA:  11    -0.368105068072E+03   -0.10558E-04   -0.16743E-04  8262   0.531E-04-0.335E-04
CGA:  12    -0.368105077832E+03   -0.97601E-05   -0.10789E-04  8262   0.954E-05 0.122E-04
  21 F= -.36810508E+03 E0= -.36810508E+03  d E =-.140076E-01  mag=    16.0000
       N       E                     dE             d eps       ncg     rms          ort
SDA:   1    -0.367978618779E+03    0.12645E+00    0.00000E+00  8262   0.329E+00 0.000E+00
CGA:   2    -0.368070521463E+03   -0.91903E-01   -0.91907E-01  8262   0.120E+00 0.166E-02
CGA:   3    -0.368094871886E+03   -0.24350E-01   -0.24353E-01  8262   0.373E-01 0.108E-04
CGA:   4    -0.368101868574E+03   -0.69967E-02   -0.69743E-02  8262   0.778E-02-0.251E-03
CGA:   5    -0.368103560881E+03   -0.16923E-02   -0.16705E-02  8262   0.246E-02-0.388E-03
CGA:   6    -0.368104116861E+03   -0.55598E-03   -0.55184E-03  8262   0.929E-03-0.123E-03
CGA:   7    -0.368104322589E+03   -0.20573E-03   -0.20868E-03  8262   0.295E-03 0.932E-04
CGA:   8    -0.368104404087E+03   -0.81498E-04   -0.82285E-04  8262   0.111E-03 0.618E-04
CGA:   9    -0.368104451458E+03   -0.47371E-04   -0.49194E-04  8262   0.695E-04-0.183E-04
CGA:  10    -0.368104470331E+03   -0.18874E-04   -0.26133E-04  8262   0.633E-04-0.405E-04
CGA:  11    -0.368104488265E+03   -0.17934E-04   -0.18014E-04  8262   0.261E-04-0.169E-04
CGA:  12    -0.368104489568E+03   -0.13028E-05   -0.27231E-05  8262   0.101E-04 0.103E-04
  22 F= -.36810449E+03 E0= -.36810449E+03  d E =0.588264E-03  mag=    16.0000
       N       E                     dE             d eps       ncg     rms          ort
SDA:   1    -0.367990216732E+03    0.11427E+00    0.00000E+00  8262   0.318E+00 0.000E+00
CGA:   2    -0.368062758933E+03   -0.72542E-01   -0.72614E-01  8262   0.137E+00 0.188E-02
CGA:   3    -0.368090396588E+03   -0.27638E-01   -0.27636E-01  8262   0.378E-01-0.460E-04
CGA:   4    -0.368097378076E+03   -0.69815E-02   -0.69391E-02  8262   0.758E-02-0.553E-03
CGA:   5    -0.368098921686E+03   -0.15436E-02   -0.15260E-02  8262   0.221E-02-0.341E-03
CGA:   6    -0.368099391647E+03   -0.46996E-03   -0.46861E-03  8262   0.710E-03-0.429E-04
CGA:   7    -0.368099556677E+03   -0.16503E-03   -0.16621E-03  8262   0.249E-03 0.882E-04
CGA:   8    -0.368099633884E+03   -0.77206E-04   -0.76113E-04  8262   0.112E-03 0.523E-04
CGA:   9    -0.368099682055E+03   -0.48171E-04   -0.48009E-04  8262   0.686E-04 0.155E-05
CGA:  10    -0.368099707573E+03   -0.25518E-04   -0.27952E-04  8262   0.454E-04-0.169E-04
CGA:  11    -0.368099718530E+03   -0.10957E-04   -0.16277E-04  8262   0.376E-04-0.253E-04
CGA:  12    -0.368099721672E+03   -0.31417E-05   -0.53889E-05  8262   0.105E-04 0.170E-04
  23 F= -.36809972E+03 E0= -.36809972E+03  d E =0.476790E-02  mag=    16.0000
       N       E                     dE             d eps       ncg     rms          ort
SDA:   1    -0.367224166393E+03    0.87555E+00    0.00000E+00  8262   0.240E+01 0.000E+00
CGA:   2    -0.367819621965E+03   -0.59546E+00   -0.59554E+00  8262   0.101E+01 0.589E-02
CGA:   3    -0.368020947231E+03   -0.20133E+00   -0.20119E+00  8262   0.265E+00-0.224E-02
CGA:   4    -0.368067734528E+03   -0.46787E-01   -0.46633E-01  8262   0.504E-01-0.192E-02
CGA:   5    -0.368077819449E+03   -0.10085E-01   -0.10065E-01  8262   0.139E-01-0.380E-03
CGA:   6    -0.368080776743E+03   -0.29573E-02   -0.29656E-02  8262   0.430E-02 0.235E-03
CGA:   7    -0.368081973989E+03   -0.11972E-02   -0.11929E-02  8262   0.187E-02 0.182E-03
CGA:   8    -0.368082648259E+03   -0.67427E-03   -0.67489E-03  8262   0.107E-02-0.662E-05
CGA:   9    -0.368082993349E+03   -0.34509E-03   -0.34255E-03  8262   0.444E-03 0.381E-04
CGA:  10    -0.368083146756E+03   -0.15341E-03   -0.15377E-03  8262   0.182E-03-0.492E-05
CGA:  11    -0.368083211578E+03   -0.64822E-04   -0.66366E-04  8262   0.897E-04-0.146E-04
CGA:  12    -0.368083234171E+03   -0.22593E-04   -0.22476E-04  8262   0.332E-04 0.223E-04
CGA:  13    -0.368083246527E+03   -0.12356E-04   -0.12169E-04  8262   0.146E-04 0.708E-05
CGA:  14    -0.368083252722E+03   -0.61955E-05   -0.12418E-04  8262   0.261E-04-0.144E-04
  24 F= -.36808325E+03 E0= -.36808325E+03  d E =0.164689E-01  mag=    16.0000
       N       E                     dE             d eps       ncg     rms          ort
SDA:   1    -0.363233884333E+03    0.48494E+01    0.00000E+00  8262   0.123E+02 0.000E+00
CGA:   2    -0.366795013749E+03   -0.35611E+01   -0.35611E+01  8262   0.479E+01 0.156E-01
CGA:   3    -0.367730766114E+03   -0.93575E+00   -0.93547E+00  8262   0.115E+01-0.505E-02
CGA:   4    -0.367930077857E+03   -0.19931E+00   -0.19911E+00  8262   0.230E+00-0.219E-02
CGA:   5    -0.367977538635E+03   -0.47461E-01   -0.47414E-01  8262   0.618E-01-0.688E-03
CGA:   6    -0.367991043592E+03   -0.13505E-01   -0.13511E-01  8262   0.201E-01 0.836E-04
CGA:   7    -0.367996511911E+03   -0.54683E-02   -0.54684E-02  8262   0.845E-02 0.191E-03
CGA:   8    -0.367999348927E+03   -0.28370E-02   -0.28368E-02  8262   0.425E-02 0.234E-05
CGA:   9    -0.368000745098E+03   -0.13962E-02   -0.13984E-02  8262   0.171E-02-0.417E-04
CGA:  10    -0.368001336476E+03   -0.59138E-03   -0.60603E-03  8262   0.726E-03-0.184E-03
CGA:  11    -0.368001569555E+03   -0.23308E-03   -0.23836E-03  8262   0.344E-03-0.614E-04
CGA:  12    -0.368001686102E+03   -0.11655E-03   -0.11559E-03  8262   0.152E-03 0.116E-04
CGA:  13    -0.368001752787E+03   -0.66685E-04   -0.68412E-04  8262   0.772E-04-0.120E-04
CGA:  14    -0.368001781573E+03   -0.28786E-04   -0.41535E-04  8262   0.701E-04-0.445E-04
CGA:  15    -0.368001804489E+03   -0.22917E-04   -0.23412E-04  8262   0.226E-04-0.218E-04
CGA:  16    -0.368001810116E+03   -0.56262E-05   -0.61883E-05  8262   0.126E-04-0.664E-05
  25 F= -.36800181E+03 E0= -.36800181E+03  d E =0.814426E-01  mag=    16.0000
       N       E                     dE             d eps       ncg     rms          ort
SDA:   1    -0.367631621673E+03    0.37018E+00    0.00000E+00  8262   0.118E+01 0.000E+00
CGA:   2    -0.367927862332E+03   -0.29624E+00   -0.29603E+00  8262   0.458E+00-0.333E-02
CGA:   3    -0.368024003088E+03   -0.96141E-01   -0.96169E-01  8262   0.137E+00 0.205E-03
CGA:   4    -0.368048226180E+03   -0.24223E-01   -0.24300E-01  8262   0.288E-01 0.556E-03
CGA:   5    -0.368054324437E+03   -0.60983E-02   -0.61221E-02  8262   0.851E-02 0.263E-03
CGA:   6    -0.368056328744E+03   -0.20043E-02   -0.20065E-02  8262   0.331E-02 0.327E-04
CGA:   7    -0.368057300166E+03   -0.97142E-03   -0.97127E-03  8262   0.146E-02-0.765E-04
CGA:   8    -0.368057740388E+03   -0.44022E-03   -0.44015E-03  8262   0.622E-03 0.449E-05
CGA:   9    -0.368057924887E+03   -0.18450E-03   -0.18448E-03  8262   0.220E-03 0.234E-04
CGA:  10    -0.368057991913E+03   -0.67026E-04   -0.67057E-04  8262   0.802E-04 0.300E-04
CGA:  11    -0.368058015615E+03   -0.23703E-04   -0.24418E-04  8262   0.346E-04 0.267E-04
CGA:  12    -0.368058033653E+03   -0.18038E-04   -0.17612E-04  8262   0.234E-04 0.474E-05
CGA:  13    -0.368058041913E+03   -0.82596E-05   -0.81955E-05  8262   0.102E-04 0.642E-05
  26 F= -.36805804E+03 E0= -.36805804E+03  d E =-.562318E-01  mag=    16.0000
       N       E                     dE             d eps       ncg     rms          ort
SDA:   1    -0.367993459458E+03    0.64574E-01    0.00000E+00  8262   0.215E+00 0.000E+00
CGA:   2    -0.368041486302E+03   -0.48027E-01   -0.47964E-01  8262   0.955E-01-0.960E-03
CGA:   3    -0.368060617691E+03   -0.19131E-01   -0.19101E-01  8262   0.276E-01-0.364E-03
CGA:   4    -0.368065698002E+03   -0.50803E-02   -0.50987E-02  8262   0.575E-02 0.191E-03
CGA:   5    -0.368066761331E+03   -0.10633E-02   -0.10869E-02  8262   0.149E-02 0.258E-03
CGA:   6    -0.368067094802E+03   -0.33347E-03   -0.34020E-03  8262   0.488E-03 0.121E-03
CGA:   7    -0.368067260305E+03   -0.16550E-03   -0.16735E-03  8262   0.263E-03-0.408E-04
CGA:   8    -0.368067337889E+03   -0.77584E-04   -0.79479E-04  8262   0.135E-03-0.341E-04
CGA:   9    -0.368067366458E+03   -0.28569E-04   -0.28981E-04  8262   0.433E-04 0.136E-04
CGA:  10    -0.368067373677E+03   -0.72188E-05   -0.88293E-05  8262   0.174E-04 0.179E-04
  27 F= -.36806737E+03 E0= -.36806737E+03  d E =-.933176E-02  mag=    16.0000
       N       E                     dE             d eps       ncg     rms          ort
SDA:   1    -0.366942759063E+03    0.11246E+01    0.00000E+00  8262   0.287E+01 0.000E+00
CGA:   2    -0.367768638898E+03   -0.82588E+00   -0.82590E+00  8262   0.131E+01-0.114E-02
CGA:   3    -0.368000146973E+03   -0.23151E+00   -0.23142E+00  8262   0.295E+00-0.116E-02
CGA:   4    -0.368053638364E+03   -0.53491E-01   -0.53493E-01  8262   0.593E-01 0.700E-04
CGA:   5    -0.368065240812E+03   -0.11602E-01   -0.11633E-01  8262   0.157E-01 0.479E-03
CGA:   6    -0.368068697476E+03   -0.34567E-02   -0.34637E-02  8262   0.469E-02 0.191E-03
CGA:   7    -0.368070010548E+03   -0.13131E-02   -0.13159E-02  8262   0.195E-02-0.119E-03
CGA:   8    -0.368070593702E+03   -0.58315E-03   -0.58259E-03  8262   0.851E-03 0.105E-04
CGA:   9    -0.368070846093E+03   -0.25239E-03   -0.25050E-03  8262   0.277E-03 0.518E-04
CGA:  10    -0.368070937451E+03   -0.91358E-04   -0.90822E-04  8262   0.934E-04 0.104E-04
CGA:  11    -0.368070964248E+03   -0.26797E-04   -0.26555E-04  8262   0.328E-04 0.184E-04
CGA:  12    -0.368070846022E+03    0.11823E-03   -0.64796E-04  8262   0.637E-03-0.129E-03
CGA:  13    -0.368070969603E+03   -0.12358E-03   -0.14046E-03  8262   0.565E-04 0.656E-04
CGA:  14    -0.368070454177E+03    0.51543E-03   -0.14312E-03  8262   0.239E-02-0.360E-03
CGA:  15    -0.368070798739E+03   -0.34456E-03   -0.48619E-03  8262   0.370E-03 0.401E-03
CGA:  16    -0.368071030653E+03   -0.23191E-03   -0.22557E-03  8262   0.446E-03-0.375E-03
CGA:  17    -0.368071012560E+03    0.18094E-04   -0.57424E-04  8262   0.962E-04 0.185E-03
CGA:  18    -0.368071003353E+03    0.92066E-05   -0.15427E-04  8262   0.301E-04 0.610E-04
CGA:  19    -0.368071051482E+03   -0.48129E-04    0.12309E-04  8262   0.165E-04-0.140E-04
CGA:  20    -0.368071048159E+03    0.33226E-05   -0.23610E-06  8262   0.134E-04 0.757E-05
  28 F= -.36807105E+03 E0= -.36807105E+03  d E =-.367448E-02  mag=    16.0000
       N       E                     dE             d eps       ncg     rms          ort
SDA:   1    -0.330293313035E+03    0.37778E+02    0.00000E+00  8262   0.917E+02 0.000E+00
CGA:   2    -0.357372142476E+03   -0.27079E+02   -0.27453E+02  8262   0.298E+02 0.169E+00
CGA:   3    -0.363800753878E+03   -0.64286E+01   -0.64804E+01  8262   0.892E+01 0.111E+00
CGA:   4    -0.365396150639E+03   -0.15954E+01   -0.16034E+01  8262   0.209E+01 0.327E-01
CGA:   5    -0.365853551574E+03   -0.45740E+00   -0.45804E+00  8262   0.650E+00-0.138E-02
CGA:   6    -0.366014310610E+03   -0.16076E+00   -0.16076E+00  8262   0.279E+00-0.139E-02
CGA:   7    -0.366088791531E+03   -0.74481E-01   -0.74622E-01  8262   0.106E+00 0.898E-03
CGA:   8    -0.366120676195E+03   -0.31885E-01   -0.31955E-01  8262   0.403E-01 0.702E-03
CGA:   9    -0.366132903829E+03   -0.12228E-01   -0.12161E-01  8262   0.133E-01-0.783E-03
CGA:  10    -0.366137310304E+03   -0.44065E-02   -0.43581E-02  8262   0.520E-02-0.954E-03
CGA:  11    -0.366139066040E+03   -0.17557E-02   -0.17478E-02  8262   0.238E-02-0.383E-03
CGA:  12    -0.366140001238E+03   -0.93520E-03   -0.94360E-03  8262   0.134E-02-0.183E-03
CGA:  13    -0.366140532186E+03   -0.53095E-03   -0.53747E-03  8262   0.657E-03-0.127E-03
CGA:  14    -0.366140796003E+03   -0.26382E-03   -0.27941E-03  8262   0.379E-03-0.187E-03
CGA:  15    -0.366140897047E+03   -0.10104E-03   -0.99822E-04  8262   0.154E-03-0.543E-04
CGA:  16    -0.366140948139E+03   -0.51092E-04   -0.50974E-04  8262   0.689E-04-0.331E-04
CGA:  17    -0.366140972469E+03   -0.24329E-04   -0.26617E-04  8262   0.427E-04-0.225E-04
CGA:  18    -0.366140977003E+03   -0.45338E-05   -0.63005E-05  8262   0.190E-04 0.101E-04
  29 F= -.36614098E+03 E0= -.36614098E+03  d E =0.193007E+01  mag=    16.0000
       N       E                     dE             d eps       ncg     rms          ort
SDA:   1    -0.357998755966E+03    0.81422E+01    0.00000E+00  8262   0.246E+02 0.000E+00
CGA:   2    -0.365560684269E+03   -0.75619E+01   -0.75513E+01  8262   0.715E+01-0.683E-01
CGA:   3    -0.367280320424E+03   -0.17196E+01   -0.17252E+01  8262   0.178E+01-0.824E-02
CGA:   4    -0.367624168036E+03   -0.34385E+00   -0.34391E+00  8262   0.537E+00 0.711E-03
CGA:   5    -0.367735712954E+03   -0.11154E+00   -0.11200E+00  8262   0.143E+00 0.358E-02
CGA:   6    -0.367773157548E+03   -0.37445E-01   -0.37569E-01  8262   0.628E-01 0.133E-02
CGA:   7    -0.367789935043E+03   -0.16777E-01   -0.16723E-01  8262   0.246E-01-0.753E-03
CGA:   8    -0.367797222438E+03   -0.72874E-02   -0.72929E-02  8262   0.843E-02 0.129E-03
CGA:   9    -0.367799454547E+03   -0.22321E-02   -0.22652E-02  8262   0.238E-02 0.461E-03
CGA:  10    -0.367800170583E+03   -0.71604E-03   -0.72594E-03  8262   0.781E-03 0.212E-03
CGA:  11    -0.367800355854E+03   -0.18527E-03   -0.20847E-03  8262   0.299E-03 0.264E-03
CGA:  12    -0.367800464622E+03   -0.10877E-03   -0.11352E-03  8262   0.155E-03 0.106E-03
CGA:  13    -0.367800523827E+03   -0.59205E-04   -0.61595E-04  8262   0.823E-04 0.707E-04
CGA:  14    -0.367800527120E+03   -0.32924E-05   -0.17402E-04  8262   0.482E-04 0.784E-04
  30 F= -.36780053E+03 E0= -.36780053E+03  d E =-.165955E+01  mag=    16.0000
       N       E                     dE             d eps       ncg     rms          ort
SDA:   1    -0.366987055946E+03    0.81347E+00    0.00000E+00  8262   0.255E+01 0.000E+00
CGA:   2    -0.367787054970E+03   -0.80000E+00   -0.80004E+00  8262   0.723E+00-0.561E-02
CGA:   3    -0.367963964262E+03   -0.17691E+00   -0.17677E+00  8262   0.193E+00-0.288E-02
CGA:   4    -0.367999706476E+03   -0.35742E-01   -0.35799E-01  8262   0.534E-01 0.471E-03
CGA:   5    -0.368010546551E+03   -0.10840E-01   -0.10977E-01  8262   0.140E-01 0.145E-02
CGA:   6    -0.368014154888E+03   -0.36083E-02   -0.36345E-02  8262   0.592E-02 0.611E-03
CGA:   7    -0.368015909074E+03   -0.17542E-02   -0.17518E-02  8262   0.267E-02-0.265E-03
CGA:   8    -0.368016665271E+03   -0.75620E-03   -0.75612E-03  8262   0.900E-03 0.190E-04
CGA:   9    -0.368016877235E+03   -0.21196E-03   -0.21886E-03  8262   0.245E-03 0.135E-03
CGA:  10    -0.368016938120E+03   -0.60885E-04   -0.65353E-04  8262   0.853E-04 0.770E-04
CGA:  11    -0.368016950508E+03   -0.12387E-04   -0.19136E-04  8262   0.419E-04 0.579E-04
CGA:  12    -0.368016962833E+03   -0.12325E-04   -0.12156E-04  8262   0.206E-04 0.194E-04
CGA:  13    -0.368016971129E+03   -0.82966E-05   -0.83714E-05  8262   0.124E-04 0.187E-04
  31 F= -.36801697E+03 E0= -.36801697E+03  d E =-.216444E+00  mag=    16.0000
       N       E                     dE             d eps       ncg     rms          ort
SDA:   1    -0.367246962481E+03    0.77000E+00    0.00000E+00  8262   0.213E+01 0.000E+00
CGA:   2    -0.367911729407E+03   -0.66477E+00   -0.66503E+00  8262   0.603E+00-0.491E-02
CGA:   3    -0.368054037187E+03   -0.14231E+00   -0.14220E+00  8262   0.173E+00-0.323E-02
CGA:   4    -0.368084931357E+03   -0.30894E-01   -0.30943E-01  8262   0.430E-01 0.527E-03
CGA:   5    -0.368093697226E+03   -0.87659E-02   -0.88666E-02  8262   0.111E-01 0.162E-02
CGA:   6    -0.368096467624E+03   -0.27704E-02   -0.27839E-02  8262   0.449E-02 0.565E-03
CGA:   7    -0.368097854639E+03   -0.13870E-02   -0.13971E-02  8262   0.214E-02-0.307E-03
CGA:   8    -0.368098443832E+03   -0.58919E-03   -0.58938E-03  8262   0.736E-03-0.618E-05
CGA:   9    -0.368098618806E+03   -0.17497E-03   -0.17736E-03  8262   0.196E-03 0.942E-04
CGA:  10    -0.368098660736E+03   -0.41930E-04   -0.46217E-04  8262   0.679E-04 0.754E-04
CGA:  11    -0.368098671378E+03   -0.10642E-04   -0.15380E-04  8262   0.334E-04 0.477E-04
CGA:  12    -0.368098685465E+03   -0.14086E-04   -0.12765E-04  8262   0.176E-04 0.106E-04
CGA:  13    -0.368098689205E+03   -0.37401E-05   -0.47090E-05  8262   0.931E-05 0.160E-04
  32 F= -.36809869E+03 E0= -.36809869E+03  d E =-.817181E-01  mag=    16.0000
       N       E                     dE             d eps       ncg     rms          ort
SDA:   1    -0.367929570106E+03    0.16912E+00    0.00000E+00  8262   0.467E+00 0.000E+00
CGA:   2    -0.368070153544E+03   -0.14058E+00   -0.14058E+00  8262   0.161E+00 0.141E-03
CGA:   3    -0.368102293806E+03   -0.32140E-01   -0.32056E-01  8262   0.462E-01-0.147E-02
CGA:   4    -0.368110697307E+03   -0.84035E-02   -0.83985E-02  8262   0.995E-02-0.831E-04
CGA:   5    -0.368112583943E+03   -0.18866E-02   -0.19232E-02  8262   0.252E-02 0.641E-03
CGA:   6    -0.368113143839E+03   -0.55990E-03   -0.56998E-03  8262   0.843E-03 0.287E-03
CGA:   7    -0.368113450641E+03   -0.30680E-03   -0.31771E-03  8262   0.517E-03-0.118E-03
CGA:   8    -0.368113587122E+03   -0.13648E-03   -0.14047E-03  8262   0.238E-03-0.613E-04
CGA:   9    -0.368113637359E+03   -0.50237E-04   -0.50476E-04  8262   0.742E-04 0.174E-04
CGA:  10    -0.368113651751E+03   -0.14392E-04   -0.15747E-04  8262   0.286E-04 0.244E-04
CGA:  11    -0.368113656966E+03   -0.52143E-05   -0.65126E-05  8262   0.133E-04 0.164E-04
CGA:  12    -0.368113637119E+03    0.19846E-04   -0.11782E-04  8262   0.160E-03-0.299E-04
CGA:  13    -0.368113670161E+03   -0.33042E-04   -0.34262E-04  8262   0.874E-05 0.515E-05
CGA:  14    -0.368113669986E+03    0.17480E-06   -0.13152E-05  8262   0.331E-05 0.510E-05
  33 F= -.36811367E+03 E0= -.36811367E+03  d E =-.149808E-01  mag=    16.0000
       N       E                     dE             d eps       ncg     rms          ort
SDA:   1    -0.367853116143E+03    0.26055E+00    0.00000E+00  8262   0.702E+00 0.000E+00
CGA:   2    -0.368047748699E+03   -0.19463E+00   -0.19477E+00  8262   0.284E+00 0.116E-02
CGA:   3    -0.368102116397E+03   -0.54368E-01   -0.54169E-01  8262   0.724E-01-0.895E-03
CGA:   4    -0.368115457603E+03   -0.13341E-01   -0.13286E-01  8262   0.153E-01-0.260E-03
CGA:   5    -0.368118414125E+03   -0.29565E-02   -0.30165E-02  8262   0.393E-02 0.303E-03
CGA:   6    -0.368119258085E+03   -0.84396E-03   -0.87088E-03  8262   0.128E-02 0.161E-03
CGA:   7    -0.368119661464E+03   -0.40338E-03   -0.39943E-03  8262   0.616E-03-0.526E-04
CGA:   8    -0.368119862876E+03   -0.20141E-03   -0.19939E-03  8262   0.317E-03-0.592E-04
CGA:   9    -0.368119944975E+03   -0.82099E-04   -0.82307E-04  8262   0.101E-03 0.248E-05
CGA:  10    -0.368119967587E+03   -0.22611E-04   -0.25138E-04  8262   0.336E-04 0.212E-04
CGA:  11    -0.368119977177E+03   -0.95904E-05   -0.10597E-04  8262   0.155E-04 0.101E-04
CGA:  12    -0.368119986658E+03   -0.94813E-05   -0.12914E-04  8262   0.284E-04-0.120E-04
  34 F= -.36811999E+03 E0= -.36811999E+03  d E =-.631667E-02  mag=    16.0000
       N       E                     dE             d eps       ncg     rms          ort
SDA:   1    -0.367717765821E+03    0.40221E+00    0.00000E+00  8262   0.109E+01 0.000E+00
CGA:   2    -0.368001256696E+03   -0.28349E+00   -0.28378E+00  8262   0.442E+00 0.259E-02
CGA:   3    -0.368088419810E+03   -0.87163E-01   -0.86999E-01  8262   0.114E+00-0.111E-02
CGA:   4    -0.368108839019E+03   -0.20419E-01   -0.20337E-01  8262   0.231E-01-0.493E-03
CGA:   5    -0.368113398496E+03   -0.45595E-02   -0.45821E-02  8262   0.595E-02 0.156E-03
CGA:   6    -0.368114692453E+03   -0.12940E-02   -0.13059E-02  8262   0.194E-02 0.102E-03
CGA:   7    -0.368115270417E+03   -0.57796E-03   -0.57750E-03  8262   0.906E-03-0.134E-04
CGA:   8    -0.368115570265E+03   -0.29985E-03   -0.30000E-03  8262   0.472E-03-0.202E-04
CGA:   9    -0.368115721469E+03   -0.15120E-03   -0.15122E-03  8262   0.188E-03-0.823E-05
CGA:  10    -0.368115775470E+03   -0.54001E-04   -0.54497E-04  8262   0.644E-04 0.160E-04
CGA:  11    -0.368115799089E+03   -0.23619E-04   -0.23556E-04  8262   0.301E-04 0.509E-05
CGA:  12    -0.368115813982E+03   -0.14894E-04   -0.16001E-04  8262   0.239E-04-0.664E-05
CGA:  13    -0.368115818309E+03   -0.43263E-05   -0.46967E-05  8262   0.982E-05 0.452E-05
  35 F= -.36811582E+03 E0= -.36811582E+03  d E =0.416835E-02  mag=    16.0000
       N       E                     dE             d eps       ncg     rms          ort
SDA:   1    -0.367638494560E+03    0.47732E+00    0.00000E+00  8262   0.131E+01 0.000E+00
CGA:   2    -0.367970503863E+03   -0.33201E+00   -0.33235E+00  8262   0.473E+00 0.409E-02
CGA:   3    -0.368071568648E+03   -0.10106E+00   -0.10095E+00  8262   0.130E+00-0.114E-02
CGA:   4    -0.368094015729E+03   -0.22447E-01   -0.22370E-01  8262   0.260E-01-0.564E-03
CGA:   5    -0.368099364423E+03   -0.53487E-02   -0.53327E-02  8262   0.679E-02-0.159E-03
CGA:   6    -0.368100897568E+03   -0.15331E-02   -0.15286E-02  8262   0.249E-02-0.611E-04
CGA:   7    -0.368101595195E+03   -0.69763E-03   -0.69814E-03  8262   0.115E-02 0.303E-04
CGA:   8    -0.368101989261E+03   -0.39407E-03   -0.39256E-03  8262   0.608E-03 0.390E-04
CGA:   9    -0.368102213916E+03   -0.22466E-03   -0.22708E-03  8262   0.295E-03-0.407E-04
CGA:  10    -0.368102306776E+03   -0.92860E-04   -0.93562E-04  8262   0.115E-03-0.198E-04
CGA:  11    -0.368102348785E+03   -0.42009E-04   -0.46014E-04  8262   0.743E-04-0.321E-04
CGA:  12    -0.368102363003E+03   -0.14218E-04   -0.14576E-04  8262   0.274E-04 0.911E-05
CGA:  13    -0.368102370110E+03   -0.71068E-05   -0.74583E-05  8262   0.974E-05 0.519E-05
  36 F= -.36810237E+03 E0= -.36810237E+03  d E =0.134482E-01  mag=    16.0000
       N       E                     dE             d eps       ncg     rms          ort
SDA:   1    -0.367331808776E+03    0.77055E+00    0.00000E+00  8262   0.211E+01 0.000E+00
CGA:   2    -0.367862333084E+03   -0.53052E+00   -0.53092E+00  8262   0.794E+00 0.521E-02
CGA:   3    -0.368028084422E+03   -0.16575E+00   -0.16560E+00  8262   0.216E+00-0.160E-02
CGA:   4    -0.368065216283E+03   -0.37132E-01   -0.37016E-01  8262   0.414E-01-0.929E-03
CGA:   5    -0.368073657931E+03   -0.84416E-02   -0.84173E-02  8262   0.111E-01-0.260E-03
CGA:   6    -0.368076096704E+03   -0.24388E-02   -0.24387E-02  8262   0.379E-02-0.338E-05
CGA:   7    -0.368077147232E+03   -0.10505E-02   -0.10515E-02  8262   0.173E-02 0.690E-04
CGA:   8    -0.368077755065E+03   -0.60783E-03   -0.60587E-03  8262   0.959E-03 0.366E-04
CGA:   9    -0.368078091823E+03   -0.33676E-03   -0.33724E-03  8262   0.428E-03-0.982E-05
CGA:  10    -0.368078236895E+03   -0.14507E-03   -0.14629E-03  8262   0.172E-03-0.250E-04
CGA:  11    -0.368078297882E+03   -0.60987E-04   -0.63940E-04  8262   0.929E-04-0.308E-04
CGA:  12    -0.368078319977E+03   -0.22095E-04   -0.22242E-04  8262   0.323E-04 0.127E-04
CGA:  13    -0.368078330225E+03   -0.10248E-04   -0.10371E-04  8262   0.123E-04 0.613E-05
CGA:  14    -0.368078335505E+03   -0.52799E-05   -0.98047E-05  8262   0.216E-04-0.123E-04
  37 F= -.36807834E+03 E0= -.36807834E+03  d E =0.240346E-01  mag=    16.0000
       N       E                     dE             d eps       ncg     rms          ort
SDA:   1    -0.367987181189E+03    0.91149E-01    0.00000E+00  8262   0.262E+00 0.000E+00
CGA:   2    -0.368061922412E+03   -0.74741E-01   -0.74697E-01  8262   0.997E-01-0.151E-02
CGA:   3    -0.368081136226E+03   -0.19214E-01   -0.19249E-01  8262   0.256E-01 0.290E-03
CGA:   4    -0.368085721697E+03   -0.45855E-02   -0.46045E-02  8262   0.532E-02 0.144E-03
CGA:   5    -0.368086819539E+03   -0.10978E-02   -0.10965E-02  8262   0.139E-02-0.143E-04
CGA:   6    -0.368087121424E+03   -0.30189E-03   -0.30377E-03  8262   0.474E-03 0.243E-04
CGA:   7    -0.368087257439E+03   -0.13601E-03   -0.13607E-03  8262   0.202E-03 0.487E-05
CGA:   8    -0.368087326947E+03   -0.69508E-04   -0.70155E-04  8262   0.110E-03-0.126E-04
CGA:   9    -0.368087351166E+03   -0.24219E-04   -0.25185E-04  8262   0.332E-04 0.195E-04
CGA:  10    -0.368087360866E+03   -0.96995E-05   -0.99550E-05  8262   0.131E-04 0.680E-05
  38 F= -.36808736E+03 E0= -.36808736E+03  d E =-.902536E-02  mag=    16.0000
       N       E                     dE             d eps       ncg     rms          ort
SDA:   1    -0.368006628871E+03    0.80722E-01    0.00000E+00  8262   0.201E+00 0.000E+00
CGA:   2    -0.368069575362E+03   -0.62946E-01   -0.62954E-01  8262   0.822E-01-0.371E-03
CGA:   3    -0.368083945203E+03   -0.14370E-01   -0.14381E-01  8262   0.186E-01 0.838E-04
CGA:   4    -0.368087415926E+03   -0.34707E-02   -0.34711E-02  8262   0.391E-02 0.245E-05
CGA:   5    -0.368088215236E+03   -0.79931E-03   -0.79153E-03  8262   0.106E-02-0.996E-04
CGA:   6    -0.368088446739E+03   -0.23150E-03   -0.23018E-03  8262   0.334E-03-0.245E-04
CGA:   7    -0.368088532345E+03   -0.85606E-04   -0.85652E-04  8262   0.127E-03 0.375E-05
CGA:   8    -0.368088574545E+03   -0.42199E-04   -0.42766E-04  8262   0.644E-04-0.964E-05
CGA:   9    -0.368088592973E+03   -0.18428E-04   -0.18509E-04  8262   0.220E-04-0.236E-05
CGA:  10    -0.368088564445E+03    0.28527E-04   -0.24282E-04  8262   0.220E-03-0.610E-04
CGA:  11    -0.368088603892E+03   -0.39446E-04   -0.42219E-04  8262   0.194E-04 0.213E-04
CGA:  12    -0.368088612134E+03   -0.82418E-05   -0.10596E-04  8262   0.187E-04-0.130E-04
  39 F= -.36808861E+03 E0= -.36808861E+03  d E =-.125127E-02  mag=    16.0000
       N       E                     dE             d eps       ncg     rms          ort
SDA:   1    -0.367270494053E+03    0.81811E+00    0.00000E+00  8262   0.193E+01 0.000E+00
CGA:   2    -0.367921876133E+03   -0.65138E+00   -0.65135E+00  8262   0.659E+00 0.142E-02
CGA:   3    -0.368044048260E+03   -0.12217E+00   -0.12206E+00  8262   0.148E+00-0.105E-02
CGA:   4    -0.368069997434E+03   -0.25949E-01   -0.25918E-01  8262   0.307E-01-0.249E-03
CGA:   5    -0.368076364209E+03   -0.63668E-02   -0.63571E-02  8262   0.776E-02-0.102E-03
CGA:   6    -0.368078004132E+03   -0.16399E-02   -0.16422E-02  8262   0.229E-02 0.247E-04
CGA:   7    -0.368078612104E+03   -0.60797E-03   -0.60790E-03  8262   0.906E-03-0.261E-05
CGA:   8    -0.368078901339E+03   -0.28924E-03   -0.28915E-03  8262   0.424E-03 0.318E-05
CGA:   9    -0.368079030713E+03   -0.12937E-03   -0.12919E-03  8262   0.144E-03 0.197E-04
CGA:  10    -0.368079087883E+03   -0.57170E-04   -0.63415E-04  8262   0.884E-04-0.499E-04
CGA:  11    -0.368079102774E+03   -0.14891E-04   -0.14988E-04  8262   0.329E-04 0.233E-05
CGA:  12    -0.368079114559E+03   -0.11785E-04   -0.12952E-04  8262   0.273E-04-0.138E-04
CGA:  13    -0.368078983176E+03    0.13138E-03   -0.70877E-04  8262   0.508E-03-0.978E-04
CGA:  14    -0.368079108254E+03   -0.12508E-03   -0.13074E-03  8262   0.673E-04 0.191E-04
CGA:  15    -0.368079138775E+03   -0.30520E-04   -0.59263E-04  8262   0.179E-03-0.925E-04
CGA:  16    -0.368079138457E+03    0.31785E-06   -0.28267E-04  8262   0.372E-04 0.723E-04
  40 F= -.36807914E+03 E0= -.36807914E+03  d E =0.947368E-02  mag=    16.0000
       N       E                     dE             d eps       ncg     rms          ort
SDA:   1    -0.342895052451E+03    0.25184E+02    0.00000E+00  8262   0.601E+02 0.000E+00
CGA:   2    -0.359991350340E+03   -0.17096E+02   -0.17180E+02  8262   0.260E+02 0.169E+00
CGA:   3    -0.364810816054E+03   -0.48195E+01   -0.48401E+01  8262   0.621E+01 0.438E+00
CGA:   4    -0.366050219079E+03   -0.12394E+01   -0.12443E+01  8262   0.158E+01 0.134E-01
CGA:   5    -0.366375882469E+03   -0.32566E+00   -0.32630E+00  8262   0.480E+00 0.377E-02
CGA:   6    -0.366490523148E+03   -0.11464E+00   -0.11481E+00  8262   0.188E+00 0.557E-03
CGA:   7    -0.366541310302E+03   -0.50787E-01   -0.50700E-01  8262   0.709E-01-0.892E-03
CGA:   8    -0.366562606581E+03   -0.21296E-01   -0.21251E-01  8262   0.281E-01-0.379E-03
CGA:   9    -0.366570730929E+03   -0.81243E-02   -0.80982E-02  8262   0.913E-02-0.187E-03
CGA:  10    -0.366573572216E+03   -0.28413E-02   -0.28155E-02  8262   0.309E-02-0.227E-03
CGA:  11    -0.366574612887E+03   -0.10407E-02   -0.10316E-02  8262   0.127E-02-0.118E-03
CGA:  12    -0.366575203998E+03   -0.59111E-03   -0.66453E-03  8262   0.130E-02-0.575E-03
CGA:  13    -0.366575379849E+03   -0.17585E-03   -0.17874E-03  8262   0.672E-03 0.153E-04
CGA:  14    -0.366575572072E+03   -0.19222E-03   -0.18233E-03  8262   0.308E-03-0.684E-04
CGA:  15    -0.366575546247E+03    0.25824E-04   -0.24137E-03  8262   0.142E-02-0.573E-03
CGA:  16    -0.366575691329E+03   -0.14508E-03   -0.24253E-03  8262   0.251E-03 0.374E-03
CGA:  17    -0.366575797310E+03   -0.10598E-03   -0.10186E-03  8262   0.729E-04-0.428E-04
CGA:  18    -0.366575876955E+03   -0.79645E-04    0.20951E-04  8262   0.661E-04-0.299E-04
CGA:  19    -0.366575871126E+03    0.58290E-05   -0.31618E-05  8262   0.467E-04 0.271E-04
  41 F= -.36657587E+03 E0= -.36657587E+03  d E =0.150327E+01  mag=    16.0000
       N       E                     dE             d eps       ncg     rms          ort
SDA:   1    -0.365528617326E+03    0.10473E+01    0.00000E+00  8262   0.469E+01 0.000E+00
CGA:   2    -0.366878147866E+03   -0.13495E+01   -0.13487E+01  8262   0.170E+01-0.478E-02
CGA:   3    -0.367252465607E+03   -0.37432E+00   -0.37439E+00  8262   0.451E+00 0.166E-03
CGA:   4    -0.367334248303E+03   -0.81783E-01   -0.81892E-01  8262   0.115E+00-0.250E-03
CGA:   5    -0.367359493783E+03   -0.25245E-01   -0.25250E-01  8262   0.334E-01 0.355E-04
CGA:   6    -0.367367817224E+03   -0.83234E-02   -0.83499E-02  8262   0.146E-01 0.261E-03
CGA:   7    -0.367371703142E+03   -0.38859E-02   -0.38959E-02  8262   0.545E-02 0.124E-03
CGA:   8    -0.367373335595E+03   -0.16325E-02   -0.16407E-02  8262   0.213E-02 0.193E-03
CGA:   9    -0.367373910318E+03   -0.57472E-03   -0.59162E-03  8262   0.658E-03 0.239E-03
CGA:  10    -0.367374125414E+03   -0.21510E-03   -0.21791E-03  8262   0.256E-03 0.735E-04
CGA:  11    -0.367374171854E+03   -0.46439E-04   -0.60664E-04  8262   0.107E-03 0.118E-03
CGA:  12    -0.367374189322E+03   -0.17469E-04   -0.28732E-04  8262   0.610E-04 0.783E-04
CGA:  13    -0.367374209104E+03   -0.19781E-04   -0.19720E-04  8262   0.361E-04 0.245E-04
CGA:  14    -0.367374206381E+03    0.27223E-05   -0.59027E-05  8262   0.275E-04 0.422E-04
  42 F= -.36737421E+03 E0= -.36737421E+03  d E =-.798335E+00  mag=    16.0000
       N       E                     dE             d eps       ncg     rms          ort
SDA:   1    -0.367309260296E+03    0.64949E-01    0.00000E+00  8262   0.788E+00 0.000E+00
CGA:   2    -0.367546521939E+03   -0.23726E+00   -0.23726E+00  8262   0.288E+00-0.100E-02
CGA:   3    -0.367606993853E+03   -0.60472E-01   -0.60515E-01  8262   0.790E-01 0.395E-03
CGA:   4    -0.367621512426E+03   -0.14519E-01   -0.14533E-01  8262   0.197E-01 0.888E-04
CGA:   5    -0.367625801597E+03   -0.42892E-02   -0.42849E-02  8262   0.599E-02-0.606E-04
CGA:   6    -0.367627251602E+03   -0.14500E-02   -0.14549E-02  8262   0.257E-02 0.111E-03
CGA:   7    -0.367627912132E+03   -0.66053E-03   -0.66452E-03  8262   0.914E-03 0.127E-03
CGA:   8    -0.367628180021E+03   -0.26789E-03   -0.26837E-03  8262   0.344E-03 0.123E-03
CGA:   9    -0.367628263660E+03   -0.83639E-04   -0.89450E-04  8262   0.114E-03 0.107E-03
CGA:  10    -0.367628296337E+03   -0.32677E-04   -0.34806E-04  8262   0.471E-04 0.449E-04
CGA:  11    -0.367628304269E+03   -0.79324E-05   -0.11538E-04  8262   0.242E-04 0.351E-04
  43 F= -.36762830E+03 E0= -.36762830E+03  d E =-.254098E+00  mag=    16.0000
       N       E                     dE             d eps       ncg     rms          ort
SDA:   1    -0.362788095475E+03    0.48402E+01    0.00000E+00  8262   0.129E+02 0.000E+00
CGA:   2    -0.366662967780E+03   -0.38749E+01   -0.38702E+01  8262   0.489E+01 0.846E-01
CGA:   3    -0.367690303805E+03   -0.10273E+01   -0.10282E+01  8262   0.140E+01 0.534E-02
CGA:   4    -0.367950217844E+03   -0.25991E+00   -0.26003E+00  8262   0.345E+00 0.857E-03
CGA:   5    -0.368025483771E+03   -0.75266E-01   -0.75276E-01  8262   0.108E+00-0.812E-04
CGA:   6    -0.368051824962E+03   -0.26341E-01   -0.26351E-01  8262   0.462E-01 0.683E-03
CGA:   7    -0.368064050442E+03   -0.12225E-01   -0.12221E-01  8262   0.166E-01 0.817E-03
CGA:   8    -0.368069057702E+03   -0.50073E-02   -0.49859E-02  8262   0.619E-02 0.568E-03
CGA:   9    -0.368070826643E+03   -0.17689E-02   -0.17620E-02  8262   0.190E-02 0.435E-03
CGA:  10    -0.368071441073E+03   -0.61443E-03   -0.61239E-03  8262   0.635E-03 0.493E-04
CGA:  11    -0.368071601762E+03   -0.16069E-03   -0.16279E-03  8262   0.208E-03 0.170E-03
CGA:  12    -0.368071654743E+03   -0.52981E-04   -0.57753E-04  8262   0.998E-04 0.110E-03
CGA:  13    -0.368071677585E+03   -0.22842E-04   -0.23908E-04  8262   0.487E-04 0.531E-04
CGA:  14    -0.368071681323E+03   -0.37381E-05   -0.78292E-05  8262   0.377E-04 0.418E-04
  44 F= -.36807168E+03 E0= -.36807168E+03  d E =-.443377E+00  mag=    16.0000
       N       E                     dE             d eps       ncg     rms          ort
SDA:   1    -0.367973138173E+03    0.98539E-01    0.00000E+00  8262   0.293E+00 0.000E+00
CGA:   2    -0.368064774364E+03   -0.91636E-01   -0.91635E-01  8262   0.106E+00 0.205E-04
CGA:   3    -0.368087205753E+03   -0.22431E-01   -0.22449E-01  8262   0.289E-01 0.407E-03
CGA:   4    -0.368092532070E+03   -0.53263E-02   -0.53224E-02  8262   0.728E-02-0.657E-04
CGA:   5    -0.368094160807E+03   -0.16287E-02   -0.16248E-02  8262   0.231E-02-0.165E-03
CGA:   6    -0.368094720727E+03   -0.55992E-03   -0.56011E-03  8262   0.993E-03-0.978E-04
CGA:   7    -0.368094964148E+03   -0.24342E-03   -0.24360E-03  8262   0.340E-03-0.183E-04
CGA:   8    -0.368095069032E+03   -0.10488E-03   -0.10728E-03  8262   0.146E-03-0.320E-04
CGA:   9    -0.368095111936E+03   -0.42904E-04   -0.48072E-04  8262   0.761E-04-0.463E-04
CGA:  10    -0.368095127644E+03   -0.15708E-04   -0.16785E-04  8262   0.261E-04-0.162E-04
CGA:  11    -0.368095139757E+03   -0.12113E-04    0.19441E-04  8262   0.858E-05 0.225E-05
CGA:  12    -0.368095144658E+03   -0.49007E-05    0.94899E-04  8262   0.380E-05 0.196E-05
  45 F= -.36809514E+03 E0= -.36809514E+03  d E =-.234633E-01  mag=    16.0000
       N       E                     dE             d eps       ncg     rms          ort
SDA:   1    -0.367862950271E+03    0.23219E+00    0.00000E+00  8262   0.674E+00 0.000E+00
CGA:   2    -0.368036127337E+03   -0.17318E+00   -0.17317E+00  8262   0.337E+00-0.490E-03
CGA:   3    -0.368098247481E+03   -0.62120E-01   -0.62184E-01  8262   0.789E-01 0.595E-03
CGA:   4    -0.368113216923E+03   -0.14969E-01   -0.14988E-01  8262   0.182E-01 0.235E-03
CGA:   5    -0.368116821697E+03   -0.36048E-02   -0.35768E-02  8262   0.498E-02-0.378E-03
CGA:   6    -0.368117994827E+03   -0.11731E-02   -0.11657E-02  8262   0.186E-02-0.262E-03
CGA:   7    -0.368118420925E+03   -0.42610E-03   -0.42848E-03  8262   0.612E-03 0.107E-03
CGA:   8    -0.368118579852E+03   -0.15893E-03   -0.16075E-03  8262   0.205E-03 0.109E-03
CGA:   9    -0.368118662579E+03   -0.82727E-04   -0.84312E-04  8262   0.108E-03-0.188E-04
CGA:  10    -0.368118692112E+03   -0.29534E-04   -0.29873E-04  8262   0.434E-04-0.960E-05
CGA:  11    -0.368118454924E+03    0.23719E-03   -0.12773E-03  8262   0.112E-02-0.205E-03
CGA:  12    -0.368118654726E+03   -0.19980E-03   -0.22895E-03  8262   0.112E-03 0.101E-03
CGA:  13    -0.368118706823E+03   -0.52097E-04   -0.49246E-04  8262   0.592E-04-0.375E-04
CGA:  14    -0.368118701182E+03    0.56406E-05   -0.42903E-05  8262   0.377E-04 0.272E-04
  46 F= -.36811870E+03 E0= -.36811870E+03  d E =-.235565E-01  mag=    16.0000
       N       E                     dE             d eps       ncg     rms          ort
SDA:   1    -0.368010575014E+03    0.10813E+00    0.00000E+00  8262   0.320E+00 0.000E+00
CGA:   2    -0.368090520102E+03   -0.79945E-01   -0.79942E-01  8262   0.160E+00-0.153E-03
CGA:   3    -0.368120351554E+03   -0.29831E-01   -0.29879E-01  8262   0.373E-01 0.153E-03
CGA:   4    -0.368127391312E+03   -0.70398E-02   -0.70420E-02  8262   0.839E-02 0.230E-04
CGA:   5    -0.368129067640E+03   -0.16763E-02   -0.16423E-02  8262   0.221E-02-0.163E-03
CGA:   6    -0.368129585327E+03   -0.51769E-03   -0.50403E-03  8262   0.771E-03-0.841E-04
CGA:   7    -0.368129755505E+03   -0.17018E-03   -0.17803E-03  8262   0.251E-03 0.534E-04
CGA:   8    -0.368129815281E+03   -0.59776E-04   -0.66202E-04  8262   0.855E-04 0.485E-04
CGA:   9    -0.368129847375E+03   -0.32095E-04   -0.32308E-04  8262   0.386E-04 0.381E-05
CGA:  10    -0.368129859410E+03   -0.12035E-04   -0.12063E-04  8262   0.148E-04 0.392E-06
CGA:  11    -0.368129865616E+03   -0.62059E-05   -0.77750E-05  8262   0.169E-04-0.101E-04
  47 F= -.36812987E+03 E0= -.36812987E+03  d E =-.111644E-01  mag=    16.0000
       N       E                     dE             d eps       ncg     rms          ort
SDA:   1    -0.367968019212E+03    0.16184E+00    0.00000E+00  8262   0.450E+00 0.000E+00
CGA:   2    -0.368076917953E+03   -0.10890E+00   -0.10896E+00  8262   0.222E+00 0.346E-03
CGA:   3    -0.368119624942E+03   -0.42707E-01   -0.42721E-01  8262   0.535E-01 0.225E-04
CGA:   4    -0.368129544984E+03   -0.99200E-02   -0.98828E-02  8262   0.118E-01-0.211E-03
CGA:   5    -0.368131892686E+03   -0.23477E-02   -0.23163E-02  8262   0.316E-02-0.221E-03
CGA:   6    -0.368132602817E+03   -0.71013E-03   -0.70386E-03  8262   0.107E-02-0.599E-04
CGA:   7    -0.368132856415E+03   -0.25360E-03   -0.25925E-03  8262   0.370E-03 0.715E-04
CGA:   8    -0.368132960825E+03   -0.10441E-03   -0.10691E-03  8262   0.140E-03 0.478E-04
CGA:   9    -0.368133013164E+03   -0.52339E-04   -0.52332E-04  8262   0.640E-04 0.671E-06
CGA:  10    -0.368133031999E+03   -0.18835E-04   -0.18934E-04  8262   0.239E-04 0.373E-05
CGA:  11    -0.368133042413E+03   -0.10414E-04   -0.12266E-04  8262   0.232E-04-0.112E-04
CGA:  12    -0.368133042583E+03   -0.16961E-06   -0.14930E-05  8262   0.156E-04 0.640E-05
  48 F= -.36813304E+03 E0= -.36813304E+03  d E =-.317697E-02  mag=    16.0000
       N       E                     dE             d eps       ncg     rms          ort
SDA:   1    -0.367998396660E+03    0.13465E+00    0.00000E+00  8262   0.358E+00 0.000E+00
CGA:   2    -0.368085071594E+03   -0.86675E-01   -0.86753E-01  8262   0.160E+00 0.112E-02
CGA:   3    -0.368117151503E+03   -0.32080E-01   -0.32057E-01  8262   0.418E-01-0.244E-03
CGA:   4    -0.368124677928E+03   -0.75264E-02   -0.74682E-02  8262   0.857E-02-0.483E-03
CGA:   5    -0.368126398455E+03   -0.17205E-02   -0.17046E-02  8262   0.238E-02-0.175E-03
CGA:   6    -0.368126902448E+03   -0.50399E-03   -0.50579E-03  8262   0.763E-03 0.249E-04
CGA:   7    -0.368127095687E+03   -0.19324E-03   -0.19549E-03  8262   0.293E-03 0.728E-04
CGA:   8    -0.368127193743E+03   -0.98056E-04   -0.97488E-04  8262   0.141E-03 0.266E-04
CGA:   9    -0.368127244622E+03   -0.50878E-04   -0.50607E-04  8262   0.658E-04 0.590E-05
CGA:  10    -0.368127265082E+03   -0.20460E-04   -0.20384E-04  8262   0.258E-04 0.682E-05
CGA:  11    -0.368127276574E+03   -0.11492E-04   -0.12296E-04  8262   0.190E-04-0.556E-05
CGA:  12    -0.368127279152E+03   -0.25783E-05   -0.30822E-05  8262   0.896E-05 0.575E-05
  49 F= -.36812728E+03 E0= -.36812728E+03  d E =0.576343E-02  mag=    16.0000
       N       E                     dE             d eps       ncg     rms          ort
SDA:   1    -0.367915418803E+03    0.21186E+00    0.00000E+00  8262   0.564E+00 0.000E+00
CGA:   2    -0.368053753268E+03   -0.13833E+00   -0.13844E+00  8262   0.212E+00 0.271E-02
CGA:   3    -0.368100646513E+03   -0.46893E-01   -0.46845E-01  8262   0.566E-01-0.784E-03
CGA:   4    -0.368110269315E+03   -0.96228E-02   -0.95558E-02  8262   0.114E-01-0.628E-03
CGA:   5    -0.368112630068E+03   -0.23608E-02   -0.23517E-02  8262   0.315E-02-0.141E-03
CGA:   6    -0.368113321565E+03   -0.69150E-03   -0.69290E-03  8262   0.115E-02 0.292E-04
CGA:   7    -0.368113645154E+03   -0.32359E-03   -0.32305E-03  8262   0.537E-03 0.448E-04
CGA:   8    -0.368113844899E+03   -0.19975E-03   -0.20025E-03  8262   0.318E-03-0.554E-05
CGA:   9    -0.368113953399E+03   -0.10850E-03   -0.11000E-03  8262   0.148E-03-0.196E-04
CGA:  10    -0.368113996581E+03   -0.43182E-04   -0.43177E-04  8262   0.532E-04 0.115E-06
CGA:  11    -0.368114017464E+03   -0.20884E-04   -0.26532E-04  8262   0.524E-04-0.256E-04
CGA:  12    -0.368114024648E+03   -0.71831E-05   -0.71538E-05  8262   0.272E-04-0.115E-05
  50 F= -.36811402E+03 E0= -.36811402E+03  d E =0.132545E-01  mag=    16.0000
       N       E                     dE             d eps       ncg     rms          ort
SDA:   1    -0.367284511805E+03    0.82951E+00    0.00000E+00  8262   0.225E+01 0.000E+00
CGA:   2    -0.367854272419E+03   -0.56976E+00   -0.57001E+00  8262   0.803E+00 0.687E-02
CGA:   3    -0.368037631305E+03   -0.18336E+00   -0.18322E+00  8262   0.190E+00-0.263E-02
CGA:   4    -0.368069689372E+03   -0.32058E-01   -0.31945E-01  8262   0.404E-01-0.105E-02
CGA:   5    -0.368078005212E+03   -0.83158E-02   -0.83071E-02  8262   0.106E-01-0.131E-03
CGA:   6    -0.368080398578E+03   -0.23934E-02   -0.23976E-02  8262   0.400E-02 0.951E-04
CGA:   7    -0.368081529137E+03   -0.11306E-02   -0.11293E-02  8262   0.195E-02 0.118E-03
CGA:   8    -0.368082246481E+03   -0.71734E-03   -0.71136E-03  8262   0.110E-02 0.698E-04
CGA:   9    -0.368082630990E+03   -0.38451E-03   -0.38440E-03  8262   0.480E-03 0.131E-05
CGA:  10    -0.368082778760E+03   -0.14777E-03   -0.14719E-03  8262   0.165E-03 0.197E-04
CGA:  11    -0.368082838990E+03   -0.60230E-04   -0.60474E-04  8262   0.761E-04-0.336E-05
CGA:  12    -0.368082865622E+03   -0.26632E-04   -0.26169E-04  8262   0.306E-04 0.671E-05
CGA:  13    -0.368082877699E+03   -0.12078E-04   -0.11908E-04  8262   0.116E-04 0.236E-05
CGA:  14    -0.368082881497E+03   -0.37976E-05   -0.89576E-05  8262   0.210E-04-0.120E-04
  51 F= -.36808288E+03 E0= -.36808288E+03  d E =0.311432E-01  mag=    16.0000
       N       E                     dE             d eps       ncg     rms          ort
SDA:   1    -0.367970215022E+03    0.11266E+00    0.00000E+00  8262   0.277E+00 0.000E+00
CGA:   2    -0.368052565797E+03   -0.82351E-01   -0.82364E-01  8262   0.126E+00 0.151E-02
CGA:   3    -0.368075549987E+03   -0.22984E-01   -0.22906E-01  8262   0.279E-01-0.653E-03
CGA:   4    -0.368080635106E+03   -0.50851E-02   -0.50623E-02  8262   0.607E-02-0.199E-03
CGA:   5    -0.368081828702E+03   -0.11936E-02   -0.12024E-02  8262   0.163E-02 0.930E-04
CGA:   6    -0.368082191789E+03   -0.36309E-03   -0.36527E-03  8262   0.540E-03 0.317E-04
CGA:   7    -0.368082363343E+03   -0.17155E-03   -0.17395E-03  8262   0.282E-03-0.774E-04
CGA:   8    -0.368082439314E+03   -0.75971E-04   -0.77173E-04  8262   0.131E-03-0.370E-04
CGA:   9    -0.368082473586E+03   -0.34272E-04   -0.34439E-04  8262   0.426E-04-0.112E-04
CGA:  10    -0.368082487186E+03   -0.13600E-04   -0.14589E-04  8262   0.207E-04-0.116E-04
CGA:  11    -0.368082473363E+03    0.13824E-04   -0.15860E-04  8262   0.126E-03-0.391E-04
CGA:  12    -0.368082505201E+03   -0.31838E-04   -0.30627E-04  8262   0.190E-04-0.137E-04
CGA:  13    -0.368082507236E+03   -0.20353E-05   -0.30873E-05  8262   0.467E-05 0.728E-05
  52 F= -.36808251E+03 E0= -.36808251E+03  d E =0.374261E-03  mag=    16.0000
       N       E                     dE             d eps       ncg     rms          ort
SDA:   1    -0.367751442025E+03    0.33106E+00    0.00000E+00  8262   0.797E+00 0.000E+00
CGA:   2    -0.367992107261E+03   -0.24067E+00   -0.24071E+00  8262   0.361E+00 0.291E-02
CGA:   3    -0.368057145234E+03   -0.65038E-01   -0.64870E-01  8262   0.744E-01-0.129E-02
CGA:   4    -0.368070400869E+03   -0.13256E-01   -0.13199E-01  8262   0.154E-01-0.444E-03
CGA:   5    -0.368073483939E+03   -0.30831E-02   -0.30934E-02  8262   0.408E-02 0.102E-03
CGA:   6    -0.368074352492E+03   -0.86855E-03   -0.87356E-03  8262   0.122E-02 0.587E-04
CGA:   7    -0.368074709430E+03   -0.35694E-03   -0.35665E-03  8262   0.555E-03-0.664E-04
CGA:   8    -0.368074876178E+03   -0.16675E-03   -0.16758E-03  8262   0.263E-03-0.303E-04
CGA:   9    -0.368074953189E+03   -0.77011E-04   -0.77081E-04  8262   0.880E-04-0.423E-05
CGA:  10    -0.368074982348E+03   -0.29159E-04   -0.29688E-04  8262   0.343E-04-0.109E-04
CGA:  11    -0.368074994048E+03   -0.11700E-04   -0.13843E-04  8262   0.255E-04-0.131E-04
CGA:  12    -0.368075004816E+03   -0.10767E-04    0.19986E-04  8262   0.112E-04 0.601E-06
CGA:  13    -0.368075008649E+03   -0.38335E-05   -0.38647E-05  8262   0.567E-05-0.100E-05
  53 F= -.36807501E+03 E0= -.36807501E+03  d E =0.749859E-02  mag=    16.0000
       N       E                     dE             d eps       ncg     rms          ort
SDA:   1    -0.365126356810E+03    0.29486E+01    0.00000E+00  8262   0.710E+01 0.000E+00
CGA:   2    -0.367373662352E+03   -0.22473E+01   -0.22473E+01  8262   0.286E+01 0.878E-02
CGA:   3    -0.367902662902E+03   -0.52900E+00   -0.52854E+00  8262   0.570E+00-0.454E-02
CGA:   4    -0.368001322507E+03   -0.98660E-01   -0.98514E-01  8262   0.121E+00-0.121E-02
CGA:   5    -0.368026439609E+03   -0.25117E-01   -0.25133E-01  8262   0.311E-01 0.159E-03
CGA:   6    -0.368033015702E+03   -0.65761E-02   -0.65870E-02  8262   0.950E-02 0.120E-03
CGA:   7    -0.368035612929E+03   -0.25972E-02   -0.25957E-02  8262   0.395E-02-0.819E-04
CGA:   8    -0.368036893974E+03   -0.12810E-02   -0.12826E-02  8262   0.198E-02-0.404E-04
CGA:   9    -0.368037530440E+03   -0.63647E-03   -0.63746E-03  8262   0.739E-03-0.295E-04
CGA:  10    -0.368037771526E+03   -0.24109E-03   -0.24338E-03  8262   0.268E-03-0.564E-04
CGA:  11    -0.368037861571E+03   -0.90045E-04   -0.92702E-04  8262   0.128E-03-0.341E-04
CGA:  12    -0.368037910827E+03   -0.49256E-04   -0.61834E-04  8262   0.123E-03-0.497E-04
CGA:  13    -0.368037935896E+03   -0.25068E-04   -0.25139E-04  8262   0.535E-04-0.327E-05
CGA:  14    -0.368037955074E+03   -0.19178E-04   -0.21846E-04  8262   0.354E-04-0.253E-04
CGA:  15    -0.368037961250E+03   -0.61766E-05   -0.88097E-05  8262   0.256E-04-0.174E-04
  54 F= -.36803796E+03 E0= -.36803796E+03  d E =0.370474E-01  mag=    16.0000
       N       E                     dE             d eps       ncg     rms          ort
SDA:   1    -0.344340100819E+03    0.23698E+02    0.00000E+00  8262   0.526E+02 0.000E+00
CGA:   2    -0.360084508027E+03   -0.15744E+02   -0.15767E+02  8262   0.198E+02 0.188E+00
CGA:   3    -0.364202620555E+03   -0.41181E+01   -0.41288E+01  8262   0.545E+01 0.286E-01
CGA:   4    -0.365222028343E+03   -0.10194E+01   -0.10209E+01  8262   0.139E+01 0.377E-02
CGA:   5    -0.365527751763E+03   -0.30572E+00   -0.30586E+00  8262   0.438E+00 0.171E-02
CGA:   6    -0.365631360448E+03   -0.10361E+00   -0.10380E+00  8262   0.177E+00 0.219E-02
CGA:   7    -0.365678321772E+03   -0.46961E-01   -0.47033E-01  8262   0.633E-01 0.143E-02
CGA:   8    -0.365697156702E+03   -0.18835E-01   -0.18845E-01  8262   0.249E-01 0.692E-03
CGA:   9    -0.365704411269E+03   -0.72546E-02   -0.72698E-02  8262   0.813E-02 0.743E-03
CGA:  10    -0.365707065955E+03   -0.26547E-02   -0.26552E-02  8262   0.307E-02-0.646E-04
CGA:  11    -0.365707999952E+03   -0.93400E-03   -0.93455E-03  8262   0.111E-02 0.213E-03
CGA:  12    -0.365708428683E+03   -0.42873E-03   -0.42578E-03  8262   0.573E-03 0.582E-04
CGA:  13    -0.365708577581E+03   -0.14890E-03   -0.15816E-03  8262   0.244E-03 0.189E-03
CGA:  14    -0.365708661584E+03   -0.84003E-04   -0.87491E-04  8262   0.111E-03 0.889E-04
CGA:  15    -0.365708701685E+03   -0.40101E-04   -0.41813E-04  8262   0.559E-04 0.545E-04
CGA:  16    -0.365708712504E+03   -0.10819E-04   -0.15860E-04  8262   0.284E-04 0.439E-04
CGA:  17    -0.365708720980E+03   -0.84759E-05   -0.84848E-05  8262   0.138E-04 0.116E-04
  55 F= -.36570872E+03 E0= -.36570872E+03  d E =0.232924E+01  mag=    16.0000
       N       E                     dE             d eps       ncg     rms          ort
SDA:   1    -0.358952021338E+03    0.67567E+01    0.00000E+00  8262   0.229E+02 0.000E+00
CGA:   2    -0.365411193611E+03   -0.64592E+01   -0.64567E+01  8262   0.766E+01-0.128E+00
CGA:   3    -0.367207229844E+03   -0.17960E+01   -0.17964E+01  8262   0.173E+01 0.657E-03
CGA:   4    -0.367538840342E+03   -0.33161E+00   -0.33178E+00  8262   0.521E+00 0.690E-03
CGA:   5    -0.367648788640E+03   -0.10995E+00   -0.10995E+00  8262   0.143E+00 0.477E-03
CGA:   6    -0.367686663948E+03   -0.37875E-01   -0.37863E-01  8262   0.634E-01-0.686E-03
CGA:   7    -0.367703418246E+03   -0.16754E-01   -0.16734E-01  8262   0.255E-01-0.127E-02
CGA:   8    -0.367710981951E+03   -0.75637E-02   -0.75705E-02  8262   0.968E-02-0.318E-03
CGA:   9    -0.367713778107E+03   -0.27962E-02   -0.27968E-02  8262   0.319E-02-0.605E-04
CGA:  10    -0.367714794409E+03   -0.10163E-02   -0.10200E-02  8262   0.120E-02-0.945E-04
[...]
CGA:   9    -0.367919859343E+03   -0.62701E-03   -0.66084E-03  8262   0.854E-03-0.272E-03
CGA:  10    -0.367920097939E+03   -0.23860E-03   -0.25577E-03  8262   0.331E-03-0.171E-03
CGA:  11    -0.367920189540E+03   -0.91601E-04   -0.10901E-03  8262   0.190E-03-0.112E-03
CGA:  12    -0.367920226541E+03   -0.37001E-04   -0.78858E-04  8262   0.236E-03-0.115E-03
CGA:  13    -0.367920294560E+03   -0.68019E-04   -0.68251E-04  8262   0.551E-04-0.343E-04
CGA:  14    -0.367920304596E+03   -0.10036E-04   -0.10812E-04  8262   0.128E-04 0.147E-04
CGA:  15    -0.367920309464E+03   -0.48681E-05   -0.10029E-04  8262   0.355E-04-0.152E-04
 150 F= -.36792031E+03 E0= -.36792031E+03  d E =-.353465E-01  mag=    16.0000
       N       E                     dE             d eps       ncg     rms          ort
SDA:   1    -0.367494101621E+03    0.42620E+00    0.00000E+00  8262   0.114E+01 0.000E+00
CGA:   2    -0.367768322182E+03   -0.27422E+00   -0.27421E+00  8262   0.571E+00-0.393E-03
CGA:   3    -0.367874276119E+03   -0.10595E+00   -0.10606E+00  8262   0.139E+00 0.941E-03
CGA:   4    -0.367899276869E+03   -0.25001E-01   -0.25062E-01  8262   0.285E-01 0.550E-03
CGA:   5    -0.367905045828E+03   -0.57690E-02   -0.57521E-02  8262   0.827E-02-0.223E-03
CGA:   6    -0.367906982690E+03   -0.19369E-02   -0.19187E-02  8262   0.291E-02-0.442E-03
CGA:   7    -0.367907730670E+03   -0.74798E-03   -0.74782E-03  8262   0.117E-02-0.103E-03
CGA:   8    -0.367908061720E+03   -0.33105E-03   -0.33079E-03  8262   0.462E-03 0.122E-04
CGA:   9    -0.367908234337E+03   -0.17262E-03   -0.19009E-03  8262   0.290E-03-0.131E-03
CGA:  10    -0.367908304782E+03   -0.70445E-04   -0.88940E-04  8262   0.198E-03-0.126E-03
CGA:  11    -0.367908090445E+03    0.21434E-03   -0.13073E-03  8262   0.140E-02-0.395E-03
CGA:  12    -0.367908337715E+03   -0.24727E-03   -0.27006E-03  8262   0.155E-03 0.163E-03
CGA:  13    -0.367908408697E+03   -0.70982E-04   -0.75839E-04  8262   0.897E-04-0.429E-04
CGA:  14    -0.367908406516E+03    0.21804E-05   -0.76133E-05  8262   0.602E-04 0.460E-04
 151 F= -.36790841E+03 E0= -.36790841E+03  d E =0.119029E-01  mag=    16.0000
       N       E                     dE             d eps       ncg     rms          ort
SDA:   1    -0.367593196384E+03    0.31521E+00    0.00000E+00  8262   0.829E+00 0.000E+00
CGA:   2    -0.367811577155E+03   -0.21838E+00   -0.21849E+00  8262   0.427E+00 0.193E-02
CGA:   3    -0.367887789108E+03   -0.76212E-01   -0.76086E-01  8262   0.946E-01-0.973E-03
CGA:   4    -0.367904843311E+03   -0.17054E-01   -0.16927E-01  8262   0.194E-01-0.105E-02
CGA:   5    -0.367908657203E+03   -0.38139E-02   -0.38127E-02  8262   0.543E-02-0.152E-04
CGA:   6    -0.367909756494E+03   -0.10993E-02   -0.11238E-02  8262   0.152E-02 0.291E-03
CGA:   7    -0.367910162467E+03   -0.40597E-03   -0.40956E-03  8262   0.586E-03 0.113E-03
CGA:   8    -0.367910363142E+03   -0.20067E-03   -0.20035E-03  8262   0.294E-03 0.976E-05
CGA:   9    -0.367910432942E+03   -0.69800E-04   -0.72727E-04  8262   0.974E-04 0.672E-04
CGA:  10    -0.367910453687E+03   -0.20745E-04   -0.24222E-04  8262   0.353E-04 0.420E-04
CGA:  11    -0.367910459350E+03   -0.56631E-05   -0.84794E-05  8262   0.170E-04 0.249E-04
 152 F= -.36791046E+03 E0= -.36791046E+03  d E =-.205283E-02  mag=    16.0000
       N       E                     dE             d eps       ncg     rms          ort
SDA:   1    -0.367881270687E+03    0.29183E-01    0.00000E+00  8262   0.633E-01 0.000E+00
CGA:   2    -0.367902118477E+03   -0.20848E-01   -0.20806E-01  8262   0.237E-01 0.697E-03
CGA:   3    -0.367906526654E+03   -0.44082E-02   -0.43738E-02  8262   0.512E-02-0.389E-03
CGA:   4    -0.367907418599E+03   -0.89195E-03   -0.87711E-03  8262   0.111E-02-0.160E-03
CGA:   5    -0.367907634258E+03   -0.21566E-03   -0.21728E-03  8262   0.260E-03 0.262E-04
CGA:   6    -0.367907679557E+03   -0.45299E-04   -0.48449E-04  8262   0.672E-04 0.406E-04
CGA:   7    -0.367907697093E+03   -0.17536E-04   -0.17943E-04  8262   0.274E-04 0.161E-04
CGA:   8    -0.367907707868E+03   -0.10774E-04   -0.10579E-04  8262   0.176E-04 0.343E-05
CGA:   9    -0.367907709781E+03   -0.19132E-05   -0.30207E-05  8262   0.829E-05 0.105E-04
 153 F= -.36790771E+03 E0= -.36790771E+03  d E =0.274957E-02  mag=    16.0000
       N       E                     dE             d eps       ncg     rms          ort
SDA:   1    -0.360392256988E+03    0.75155E+01    0.00000E+00  8262   0.180E+02 0.000E+00
CGA:   2    -0.366260530422E+03   -0.58683E+01   -0.58670E+01  8262   0.715E+01 0.131E-01
CGA:   3    -0.367516638108E+03   -0.12561E+01   -0.12562E+01  8262   0.146E+01-0.569E-02
CGA:   4    -0.367768884058E+03   -0.25225E+00   -0.25200E+00  8262   0.307E+00-0.399E-02
CGA:   5    -0.367833648107E+03   -0.64764E-01   -0.64755E-01  8262   0.789E-01-0.303E-03
CGA:   6    -0.367850116178E+03   -0.16468E-01   -0.16488E-01  8262   0.230E-01 0.606E-03
CGA:   7    -0.367856391783E+03   -0.62756E-02   -0.62731E-02  8262   0.937E-02 0.771E-04
CGA:   8    -0.367859520682E+03   -0.31289E-02   -0.31481E-02  8262   0.484E-02-0.205E-03
CGA:   9    -0.367860989903E+03   -0.14692E-02   -0.14598E-02  8262   0.164E-02 0.150E-03
CGA:  10    -0.367861532120E+03   -0.54222E-03   -0.54752E-03  8262   0.560E-03-0.721E-04
CGA:  11    -0.367861678131E+03   -0.14601E-03   -0.14454E-03  8262   0.179E-03 0.866E-04
CGA:  12    -0.367861738722E+03   -0.60591E-04   -0.58928E-04  8262   0.856E-04 0.519E-04
CGA:  13    -0.367861762774E+03   -0.24052E-04   -0.25430E-04  8262   0.477E-04 0.551E-04
CGA:  14    -0.367861770520E+03   -0.77457E-05   -0.94108E-05  8262   0.254E-04 0.293E-04
 154 F= -.36786177E+03 E0= -.36786177E+03  d E =0.459393E-01  mag=    16.0000
       N       E                     dE             d eps       ncg     rms          ort
SDA:   1    -0.358750198375E+03    0.91116E+01    0.00000E+00  8262   0.209E+02 0.000E+00
CGA:   2    -0.364575841866E+03   -0.58256E+01   -0.58239E+01  8262   0.955E+01 0.445E-01
CGA:   3    -0.366386589940E+03   -0.18107E+01   -0.18114E+01  8262   0.263E+01 0.215E-02
CGA:   4    -0.366884732525E+03   -0.49814E+00   -0.49820E+00  8262   0.597E+00 0.653E-03
CGA:   5    -0.367008872074E+03   -0.12414E+00   -0.12412E+00  8262   0.187E+00-0.749E-03
CGA:   6    -0.367053061177E+03   -0.44189E-01   -0.44183E-01  8262   0.708E-01-0.713E-03
CGA:   7    -0.367072315564E+03   -0.19254E-01   -0.19236E-01  8262   0.265E-01 0.696E-03
CGA:   8    -0.367080015765E+03   -0.77002E-02   -0.76704E-02  8262   0.991E-02 0.764E-03
CGA:   9    -0.367083080348E+03   -0.30646E-02   -0.30613E-02  8262   0.337E-02 0.595E-04
CGA:  10    -0.367084131331E+03   -0.10510E-02   -0.10484E-02  8262   0.117E-02 0.420E-04
CGA:  11    -0.367084536100E+03   -0.40477E-03   -0.40933E-03  8262   0.514E-03-0.523E-04
CGA:  12    -0.367084653479E+03   -0.11738E-03   -0.12001E-03  8262   0.202E-03 0.171E-03
CGA:  13    -0.367084715215E+03   -0.61736E-04   -0.63764E-04  8262   0.986E-04 0.917E-04
CGA:  14    -0.367084746797E+03   -0.31583E-04   -0.33193E-04  8262   0.544E-04 0.615E-04
CGA:  15    -0.367084753950E+03   -0.71529E-05   -0.97289E-05  8262   0.271E-04 0.331E-04
CGA:  16    -0.367084780636E+03   -0.26685E-04   -0.22399E-04  8262   0.255E-04 0.716E-05
CGA:  17    -0.367084776581E+03    0.40542E-05   -0.19172E-05  8262   0.166E-04 0.269E-04
 155 F= -.36708478E+03 E0= -.36708478E+03  d E =0.776994E+00  mag=    16.0000
       N       E                     dE             d eps       ncg     rms          ort
SDA:   1    -0.365418554522E+03    0.16662E+01    0.00000E+00  8262   0.546E+01 0.000E+00
CGA:   2    -0.367196616605E+03   -0.17781E+01   -0.17796E+01  8262   0.167E+01-0.178E-01
CGA:   3    -0.367593718270E+03   -0.39710E+00   -0.39711E+00  8262   0.409E+00-0.996E-03
CGA:   4    -0.367670874371E+03   -0.77156E-01   -0.77176E-01  8262   0.119E+00 0.281E-03
CGA:   5    -0.367696167456E+03   -0.25293E-01   -0.25339E-01  8262   0.357E-01 0.103E-02
CGA:   6    -0.367705538576E+03   -0.93711E-02   -0.93690E-02  8262   0.158E-01 0.423E-03
CGA:   7    -0.367709769870E+03   -0.42313E-02   -0.42340E-02  8262   0.621E-02-0.315E-03
CGA:   8    -0.367711628681E+03   -0.18588E-02   -0.18619E-02  8262   0.224E-02-0.637E-04
CGA:   9    -0.367712251031E+03   -0.62235E-03   -0.62059E-03  8262   0.701E-03 0.832E-04
CGA:  10    -0.367712465165E+03   -0.21413E-03   -0.21302E-03  8262   0.236E-03 0.332E-04
CGA:  11    -0.367712527023E+03   -0.61858E-04   -0.62427E-04  8262   0.861E-04 0.653E-04
CGA:  12    -0.367712570288E+03   -0.43265E-04   -0.67191E-04  8262   0.166E-03-0.686E-04
CGA:  13    -0.367712594383E+03   -0.24095E-04   -0.28712E-04  8262   0.230E-04 0.438E-04
CGA:  14    -0.367712602657E+03   -0.82740E-05   -0.16586E-04  8262   0.537E-04-0.280E-04
 156 F= -.36771260E+03 E0= -.36771260E+03  d E =-.627826E+00  mag=    16.0000
       N       E                     dE             d eps       ncg     rms          ort
SDA:   1    -0.366667785077E+03    0.10448E+01    0.00000E+00  8262   0.280E+01 0.000E+00
CGA:   2    -0.367573576690E+03   -0.90579E+00   -0.90598E+00  8262   0.917E+00-0.369E-02
CGA:   3    -0.367776340068E+03   -0.20276E+00   -0.20271E+00  8262   0.261E+00-0.101E-02
CGA:   4    -0.367823221029E+03   -0.46881E-01   -0.46919E-01  8262   0.658E-01 0.362E-03
CGA:   5    -0.367837557539E+03   -0.14337E-01   -0.14377E-01  8262   0.205E-01 0.723E-03
CGA:   6    -0.367842698255E+03   -0.51407E-02   -0.51484E-02  8262   0.887E-02 0.310E-03
CGA:   7    -0.367845168842E+03   -0.24706E-02   -0.24712E-02  8262   0.348E-02-0.193E-03
CGA:   8    -0.367846230018E+03   -0.10612E-02   -0.10653E-02  8262   0.136E-02-0.101E-03
CGA:   9    -0.367846593385E+03   -0.36337E-03   -0.36328E-03  8262   0.420E-03 0.406E-04
CGA:  10    -0.367846727084E+03   -0.13370E-03   -0.13358E-03  8262   0.152E-03 0.327E-05
CGA:  11    -0.367846767024E+03   -0.39940E-04   -0.40336E-04  8262   0.554E-04 0.350E-04
CGA:  12    -0.367846506224E+03    0.26080E-03   -0.14157E-03  8262   0.135E-02-0.257E-03
CGA:  13    -0.367846745676E+03   -0.23945E-03   -0.28202E-03  8262   0.148E-03 0.145E-03
CGA:  14    -0.367846816718E+03   -0.71041E-04   -0.10759E-03  8262   0.524E-03-0.213E-03
CGA:  15    -0.367846817461E+03   -0.74338E-06   -0.61407E-04  8262   0.779E-04 0.160E-03
CGA:  16    -0.367846815912E+03    0.15490E-05   -0.12306E-04  8262   0.257E-04 0.390E-04
 157 F= -.36784682E+03 E0= -.36784682E+03  d E =-.134213E+00  mag=    16.0000
       N       E                     dE             d eps       ncg     rms          ort
SDA:   1    -0.367832632625E+03    0.14185E-01    0.00000E+00  8262   0.541E-01 0.000E+00
CGA:   2    -0.367847398180E+03   -0.14766E-01   -0.14745E-01  8262   0.249E-01-0.109E-03
CGA:   3    -0.367852017591E+03   -0.46194E-02   -0.46168E-02  8262   0.657E-02-0.106E-04
CGA:   4    -0.367853250514E+03   -0.12329E-02   -0.12498E-02  8262   0.146E-02 0.688E-04
CGA:   5    -0.367853528238E+03   -0.27772E-03   -0.29017E-03  8262   0.414E-03 0.547E-04
CGA:   6    -0.367853623060E+03   -0.94821E-04   -0.98364E-04  8262   0.148E-03 0.193E-04
CGA:   7    -0.367853677938E+03   -0.54879E-04   -0.53175E-04  8262   0.874E-04-0.281E-04
CGA:   8    -0.367853702545E+03   -0.24606E-04   -0.23220E-04  8262   0.421E-04-0.192E-04
CGA:   9    -0.367853711226E+03   -0.86814E-05   -0.85294E-05  8262   0.129E-04-0.112E-05
 158 F= -.36785371E+03 E0= -.36785371E+03  d E =-.689531E-02  mag=    16.0000
       N       E                     dE             d eps       ncg     rms          ort
SDA:   1    -0.367807289133E+03    0.46413E-01    0.00000E+00  8262   0.141E+00 0.000E+00
CGA:   2    -0.367843533559E+03   -0.36244E-01   -0.36207E-01  8262   0.669E-01-0.310E-03
CGA:   3    -0.367856008119E+03   -0.12475E-01   -0.12479E-01  8262   0.170E-01 0.210E-04
CGA:   4    -0.367859229053E+03   -0.32209E-02   -0.32507E-02  8262   0.382E-02 0.170E-03
CGA:   5    -0.367859960824E+03   -0.73177E-03   -0.74529E-03  8262   0.105E-02 0.813E-04
CGA:   6    -0.367860209550E+03   -0.24873E-03   -0.25031E-03  8262   0.379E-03 0.135E-04
CGA:   7    -0.367860334777E+03   -0.12523E-03   -0.12397E-03  8262   0.201E-03-0.581E-04
CGA:   8    -0.367860392168E+03   -0.57391E-04   -0.57067E-04  8262   0.999E-04-0.429E-04
CGA:   9    -0.367860414412E+03   -0.22244E-04   -0.21820E-04  8262   0.305E-04-0.653E-05
CGA:  10    -0.367860423870E+03   -0.94580E-05   -0.94241E-05  8262   0.132E-04-0.379E-05
 159 F= -.36786042E+03 E0= -.36786042E+03  d E =-.671264E-02  mag=    16.0000
       N       E                     dE             d eps       ncg     rms          ort
SDA:   1    -0.367854327563E+03    0.60868E-02    0.00000E+00  8262   0.232E-01 0.000E+00
CGA:   2    -0.367859620365E+03   -0.52928E-02   -0.52735E-02  8262   0.112E-01-0.168E-03
CGA:   3    -0.367861759685E+03   -0.21393E-02   -0.21450E-02  8262   0.280E-02 0.377E-04
CGA:   4    -0.367862259520E+03   -0.49984E-03   -0.51459E-03  8262   0.579E-03 0.100E-03
CGA:   5    -0.367862368989E+03   -0.10947E-03   -0.11398E-03  8262   0.139E-03 0.339E-04
CGA:   6    -0.367862405613E+03   -0.36623E-04   -0.36331E-04  8262   0.531E-04-0.423E-05
CGA:   7    -0.367862423855E+03   -0.18242E-04   -0.23771E-04  8262   0.750E-04-0.372E-04
CGA:   8    -0.367862435336E+03   -0.11481E-04   -0.12022E-04  8262   0.105E-04 0.336E-05
CGA:   9    -0.367862438962E+03   -0.36266E-05   -0.36785E-05  8262   0.475E-05-0.224E-05
 160 F= -.36786244E+03 E0= -.36786244E+03  d E =-.201509E-02  mag=    16.0000
       N       E                     dE             d eps       ncg     rms          ort
SDA:   1    -0.367795516384E+03    0.66919E-01    0.00000E+00  8262   0.216E+00 0.000E+00
CGA:   2    -0.367840421821E+03   -0.44905E-01   -0.44855E-01  8262   0.982E-01-0.491E-03
CGA:   3    -0.367860373914E+03   -0.19952E-01   -0.19964E-01  8262   0.266E-01 0.106E-03
CGA:   4    -0.367865259258E+03   -0.48853E-02   -0.49242E-02  8262   0.565E-02 0.337E-03
CGA:   5    -0.367866337559E+03   -0.10783E-02   -0.10887E-02  8262   0.143E-02 0.974E-04
CGA:   6    -0.367866679658E+03   -0.34210E-03   -0.34084E-03  8262   0.491E-03-0.216E-04
CGA:   7    -0.367866825781E+03   -0.14612E-03   -0.14717E-03  8262   0.242E-03-0.692E-04
CGA:   8    -0.367866889235E+03   -0.63455E-04   -0.64007E-04  8262   0.103E-03-0.297E-04
CGA:   9    -0.367866916258E+03   -0.27023E-04   -0.27083E-04  8262   0.344E-04-0.661E-05
CGA:  10    -0.367866928137E+03   -0.11880E-04   -0.15221E-04  8262   0.303E-04-0.184E-04
CGA:  11    -0.367866934620E+03   -0.64825E-05   -0.65816E-05  8262   0.449E-05 0.118E-05
 161 F= -.36786693E+03 E0= -.36786693E+03  d E =-.449566E-02  mag=    16.0000
       N       E                     dE             d eps       ncg     rms          ort
SDA:   1    -0.367863692662E+03    0.32355E-02    0.00000E+00  8262   0.150E-01 0.000E+00
CGA:   2    -0.367866333257E+03   -0.26406E-02   -0.26211E-02  8262   0.552E-02-0.163E-03
CGA:   3    -0.367867520598E+03   -0.11873E-02   -0.11902E-02  8262   0.183E-02 0.378E-04
CGA:   4    -0.367867840135E+03   -0.31954E-03   -0.33101E-03  8262   0.371E-03 0.109E-03
CGA:   5    -0.367867911155E+03   -0.71020E-04   -0.73563E-04  8262   0.939E-04 0.273E-04
CGA:   6    -0.367867936645E+03   -0.25489E-04   -0.25401E-04  8262   0.374E-04-0.359E-05
CGA:   7    -0.367867947727E+03   -0.11083E-04   -0.11336E-04  8262   0.197E-04-0.630E-05
CGA:   8    -0.367867951123E+03   -0.33961E-05   -0.35645E-05  8262   0.657E-05 0.284E-05
 162 F= -.36786795E+03 E0= -.36786795E+03  d E =-.101650E-02  mag=    16.0000
       N       E                     dE             d eps       ncg     rms          ort
SDA:   1    -0.367860892817E+03    0.70549E-02    0.00000E+00  8262   0.296E-01 0.000E+00
CGA:   2    -0.367865821842E+03   -0.49290E-02   -0.49152E-02  8262   0.101E-01-0.139E-03
CGA:   3    -0.367868032299E+03   -0.22105E-02   -0.22136E-02  8262   0.347E-02 0.666E-04
CGA:   4    -0.367868677262E+03   -0.64496E-03   -0.65368E-03  8262   0.743E-03 0.116E-03
CGA:   5    -0.367868824050E+03   -0.14679E-03   -0.14814E-03  8262   0.192E-03 0.206E-04
CGA:   6    -0.367868869261E+03   -0.45211E-04   -0.45317E-04  8262   0.636E-04 0.401E-05
CGA:   7    -0.367868885589E+03   -0.16328E-04   -0.16343E-04  8262   0.227E-04 0.448E-05
CGA:   8    -0.367868890594E+03   -0.50052E-05   -0.52783E-05  8262   0.792E-05 0.722E-05
 163 F= -.36786889E+03 E0= -.36786889E+03  d E =-.939471E-03  mag=    16.0000
       N       E                     dE             d eps       ncg     rms          ort
SDA:   1    -0.367863463322E+03    0.54223E-02    0.00000E+00  8262   0.167E-01 0.000E+00
CGA:   2    -0.367866578729E+03   -0.31154E-02   -0.31243E-02  8262   0.718E-02 0.135E-03
CGA:   3    -0.367868105748E+03   -0.15270E-02   -0.15296E-02  8262   0.208E-02 0.723E-04
CGA:   4    -0.367868501644E+03   -0.39590E-03   -0.39315E-03  8262   0.438E-03-0.465E-04
CGA:   5    -0.367868590989E+03   -0.89346E-04   -0.88147E-04  8262   0.130E-03-0.325E-04
CGA:   6    -0.367868609753E+03   -0.18764E-04   -0.20460E-04  8262   0.322E-04 0.239E-04
CGA:   7    -0.367868612088E+03   -0.23345E-05   -0.46397E-05  8262   0.143E-04 0.200E-04
 164 F= -.36786861E+03 E0= -.36786861E+03  d E =0.278506E-03  mag=    16.0000
       N       E                     dE             d eps       ncg     rms          ort
SDA:   1    -0.367810212426E+03    0.58397E-01    0.00000E+00  8262   0.165E+00 0.000E+00
CGA:   2    -0.367845338285E+03   -0.35126E-01   -0.35138E-01  8262   0.808E-01 0.902E-03
CGA:   3    -0.367861253868E+03   -0.15916E-01   -0.15920E-01  8262   0.202E-01 0.137E-03
CGA:   4    -0.367864953397E+03   -0.36995E-02   -0.36846E-02  8262   0.411E-02-0.360E-03
CGA:   5    -0.367865749074E+03   -0.79568E-03   -0.79183E-03  8262   0.111E-02-0.151E-03
CGA:   6    -0.367865956704E+03   -0.20763E-03   -0.20986E-03  8262   0.280E-03 0.895E-04
CGA:   7    -0.367866011952E+03   -0.55249E-04   -0.57707E-04  8262   0.911E-04 0.858E-04
CGA:   8    -0.367866034314E+03   -0.22361E-04   -0.23301E-04  8262   0.425E-04 0.427E-04
CGA:   9    -0.367866045607E+03   -0.11294E-04   -0.11969E-04  8262   0.215E-04 0.269E-04
CGA:  10    -0.367866049378E+03   -0.37705E-05   -0.40733E-05  8262   0.105E-04 0.117E-04
 165 F= -.36786605E+03 E0= -.36786605E+03  d E =0.256271E-02  mag=    16.0000
       N       E                     dE             d eps       ncg     rms          ort
SDA:   1    -0.367858755095E+03    0.72905E-02    0.00000E+00  8262   0.165E-01 0.000E+00
CGA:   2    -0.367862861334E+03   -0.41062E-02   -0.40834E-02  8262   0.736E-02 0.653E-03
CGA:   3    -0.367864369734E+03   -0.15084E-02   -0.15060E-02  8262   0.198E-02-0.131E-03
CGA:   4    -0.367864756982E+03   -0.38725E-03   -0.38398E-03  8262   0.499E-03-0.193E-03
CGA:   5    -0.367864842449E+03   -0.85467E-04   -0.85147E-04  8262   0.124E-03-0.134E-04
CGA:   6    -0.367864864418E+03   -0.21969E-04   -0.22476E-04  8262   0.342E-04 0.199E-04
CGA:   7    -0.367864874313E+03   -0.98946E-05   -0.97068E-05  8262   0.145E-04 0.552E-05
CGA:   8    -0.367864876117E+03   -0.18042E-05   -0.11064E-04  8262   0.527E-04-0.208E-04
 166 F= -.36786488E+03 E0= -.36786488E+03  d E =0.117326E-02  mag=    16.0000
       N       E                     dE             d eps       ncg     rms          ort
SDA:   1    -0.367862407593E+03    0.24667E-02    0.00000E+00  8262   0.615E-02 0.000E+00
CGA:   2    -0.367863477139E+03   -0.10695E-02   -0.10823E-02  8262   0.231E-02 0.233E-03
CGA:   3    -0.367864029013E+03   -0.55187E-03   -0.55187E-03  8262   0.788E-03 0.142E-05
CGA:   4    -0.367864197997E+03   -0.16898E-03   -0.16711E-03  8262   0.218E-03-0.116E-03
CGA:   5    -0.367864234942E+03   -0.36946E-04   -0.36204E-04  8262   0.616E-04-0.229E-04
CGA:   6    -0.367864247780E+03   -0.12838E-04   -0.12879E-04  8262   0.211E-04-0.499E-05
CGA:   7    -0.367864251527E+03   -0.37469E-05   -0.10141E-04  8262   0.447E-04-0.215E-04
 167 F= -.36786425E+03 E0= -.36786425E+03  d E =0.624590E-03  mag=    16.0000
