       N       E                     dE             d eps       ncg     rms          ort
DAV:   1     0.312102483294E+04    0.31210E+04   -0.14126E+05 10962   0.176E+03
DAV:   2     0.197592772244E+02   -0.31013E+04   -0.28312E+04 10962   0.462E+02
DAV:   3    -0.433386310466E+03   -0.45315E+03   -0.44178E+03 10962   0.198E+02
DAV:   4    -0.456784664625E+03   -0.23398E+02   -0.22413E+02 10962   0.427E+01
DAV:   5    -0.458217137431E+03   -0.14325E+01   -0.13993E+01 10962   0.748E+00
SDA:   6    -0.186820862708E+03    0.27140E+03   -0.13993E+01 10962   0.327E+04 0.000E+00
CGA:   7    -0.282754735181E+03   -0.95934E+02   -0.30489E+03 10962   0.156E+04-0.333E+03
CGA:   8    -0.157633560707E+03    0.12512E+03   -0.95488E+02 10962   0.147E+04-0.509E+03
CGA:   9    -0.326354183555E+03   -0.16872E+03   -0.31015E+02 10962   0.432E+03-0.122E+04
CGA:  10    -0.307943234001E+03    0.18411E+02   -0.17624E+02 10962   0.223E+04-0.391E+03
CGA:  11    -0.179683437043E+03    0.12826E+03   -0.15151E+03 10962   0.212E+04-0.923E+03
CGA:  12    -0.311201385280E+03   -0.13152E+03   -0.40892E+02 10962   0.144E+04-0.320E+04
CGA:  13    -0.191472327794E+03    0.11973E+03   -0.77697E+02 10962   0.204E+04-0.102E+04
CGA:  14    -0.300511760400E+03   -0.10904E+03   -0.76912E+02 10962   0.204E+03-0.325E+03
CGA:  15    -0.311702466222E+03   -0.11191E+02   -0.26233E+01 10962   0.637E+03 0.910E+03
CGA:  16    -0.326785108533E+03   -0.15083E+02   -0.21208E+02 10962   0.404E+03-0.199E+03
CGA:  17    -0.328498411616E+03   -0.17133E+01   -0.67345E+01 10962   0.273E+04 0.636E+03
CGA:  18    -0.305014229953E+03    0.23484E+02   -0.14413E+03 10962   0.255E+03-0.182E+03
CGA:  19    -0.334066337815E+03   -0.29052E+02   -0.35196E+01 10962   0.365E+03 0.961E+03
CGA:  20    -0.336081470000E+03   -0.20151E+01   -0.72239E+01 10962   0.156E+04-0.658E+03
CGA:  21    -0.324259702069E+03    0.11822E+02   -0.63145E+02 10962   0.912E+03-0.756E+03
CGA:  22    -0.314189472402E+03    0.10070E+02   -0.21559E+02 10962   0.374E+03-0.142E+03
CGA:  23    -0.348079083037E+03   -0.33890E+02   -0.47579E+01 10962   0.873E+03 0.109E+04
CGA:  24    -0.305945470166E+03    0.42134E+02   -0.32247E+02 10962   0.929E+03-0.307E+03
CGA:  25    -0.318939053186E+03   -0.12994E+02   -0.14180E+02 10962   0.238E+04-0.658E+03
CGA:  26    -0.310461304313E+03    0.84777E+01   -0.82788E+02 10962   0.188E+04-0.157E+04
CGA:  27    -0.306419776722E+03    0.40415E+01   -0.82266E+02 10962   0.214E+03-0.209E+03
CGA:  28    -0.310274798902E+03   -0.38550E+01   -0.15053E+01 10962   0.480E+03 0.483E+03
CGA:  29    -0.334851248335E+03   -0.24576E+02   -0.68417E+01 10962   0.353E+04-0.126E+04
CGA:  30    -0.307648388636E+03    0.27203E+02   -0.13972E+03 10962   0.229E+03-0.133E+03
CGA:  31    -0.324114039183E+03   -0.16466E+02   -0.16980E+01 10962   0.437E+03 0.464E+03
CGA:  32    -0.342789697325E+03   -0.18676E+02   -0.79603E+01 10962   0.258E+03-0.407E+03
CGA:  33    -0.343226473583E+03   -0.43678E+00   -0.44231E+01 10962   0.193E+04-0.149E+04
CGA:  34    -0.338605030181E+03    0.46214E+01   -0.65603E+02 10962   0.124E+03-0.927E+02
CGA:  35    -0.343474708626E+03   -0.48697E+01   -0.12028E+01 10962   0.245E+03 0.349E+03
CGA:  36    -0.349766357391E+03   -0.62916E+01   -0.33875E+01 10962   0.990E+03 0.495E+03
CGA:  37    -0.324661487971E+03    0.25105E+02   -0.23158E+02 10962   0.330E+04-0.116E+04
CGA:  38    -0.311422950933E+03    0.13239E+02   -0.96942E+02 10962   0.139E+04-0.684E+03
CGA:  39    -0.326207617669E+03   -0.14785E+02   -0.22975E+02 10962   0.227E+04-0.261E+04
CGA:  40    -0.318461680370E+03    0.77459E+01   -0.62336E+02 10962   0.131E+04-0.290E+03
CGA:  41    -0.336238052034E+03   -0.17776E+02   -0.30219E+02 10962   0.601E+03 0.296E+03
CGA:  42    -0.344643077799E+03   -0.84050E+01   -0.14771E+02 10962   0.197E+03-0.434E+03
CGA:  43    -0.349951539613E+03   -0.53085E+01   -0.15846E+01 10962   0.626E+03 0.814E+03
CGA:  44    -0.339707322681E+03    0.10244E+02   -0.92227E+01 10962   0.296E+04-0.170E+04
CGA:  45    -0.340417198800E+03   -0.70988E+00   -0.69600E+02 10962   0.384E+03-0.305E+03
CGA:  46    -0.345580831027E+03   -0.51636E+01   -0.38980E+01 10962   0.124E+03 0.140E+03
CGA:  47    -0.354012960474E+03   -0.84321E+01   -0.91777E+00 10962   0.272E+03 0.842E+03
CGA:  48    -0.355926642395E+03   -0.19137E+01   -0.23402E+01 10962   0.116E+02-0.414E+02
CGA:  49    -0.356062169342E+03   -0.13553E+00   -0.17906E+00 10962   0.843E+01-0.152E+01
CGA:  50    -0.356368057631E+03   -0.30589E+00   -0.30590E+00 10962   0.496E+01 0.108E+01
CGA:  51    -0.356587788939E+03   -0.21973E+00   -0.22479E+00 10962   0.553E+01 0.129E+01
CGA:  52    -0.356908432992E+03   -0.32064E+00   -0.35987E+00 10962   0.566E+01-0.283E+01
CGA:  53    -0.357059899541E+03   -0.15147E+00   -0.18064E+00 10962   0.742E+00 0.588E+00
CGA:  54    -0.357306969053E+03   -0.24707E+00   -0.78221E-01 10962   0.224E+00 0.227E+00
CGA:  55    -0.357461313741E+03   -0.15434E+00   -0.13378E-01 10962   0.174E+00 0.181E-01
CGA:  56    -0.357506980957E+03   -0.45667E-01   -0.47784E-01 10962   0.550E-01-0.166E-01
CGA:  57    -0.357526117809E+03   -0.19137E-01   -0.25091E-01 10962   0.549E-01-0.154E-01
CGA:  58    -0.357537885480E+03   -0.11768E-01   -0.14005E-01 10962   0.267E-01-0.113E-01
CGA:  59    -0.357533414775E+03    0.44707E-02   -0.57342E-02 10962   0.166E+00-0.329E-01
CGA:  60    -0.357557734342E+03   -0.24320E-01   -0.25136E-01 10962   0.189E-01 0.484E-02
CGA:  61    -0.357564500062E+03   -0.67657E-02   -0.66034E-02 10962   0.896E-02 0.463E-02
CGA:  62    -0.357569369119E+03   -0.48691E-02   -0.45361E-02 10962   0.983E-02 0.331E-02
CGA:  63    -0.357576592628E+03   -0.72235E-02   -0.66407E-02 10962   0.737E-02 0.322E-02
CGA:  64    -0.357583655747E+03   -0.70631E-02   -0.86463E-02 10962   0.252E-01-0.269E-02
CGA:  65    -0.357588137710E+03   -0.44820E-02   -0.42921E-02 10962   0.293E-01-0.209E-02
CGA:  66    -0.357594104908E+03   -0.59672E-02   -0.55820E-02 10962   0.235E-01-0.116E-02
CGA:  67    -0.357600845366E+03   -0.67405E-02   -0.65151E-02 10962   0.290E-01-0.369E-02
CGA:  68    -0.357606662083E+03   -0.58167E-02   -0.51119E-02 10962   0.253E-01-0.528E-02
CGA:  69    -0.357612071946E+03   -0.54099E-02   -0.45046E-02 10962   0.236E-01-0.697E-02
CGA:  70    -0.357616389751E+03   -0.43178E-02   -0.32632E-02 10962   0.204E-01-0.690E-02
CGA:  71    -0.357619690286E+03   -0.33005E-02   -0.24219E-02 10962   0.161E-01-0.568E-02
CGA:  72    -0.357622450849E+03   -0.27606E-02   -0.21383E-02 10962   0.146E-01-0.486E-02
CGA:  73    -0.357624603562E+03   -0.21527E-02   -0.17439E-02 10962   0.137E-01-0.311E-02
CGA:  74    -0.357626565651E+03   -0.19621E-02   -0.18085E-02 10962   0.133E-01-0.116E-02
CGA:  75    -0.357628465487E+03   -0.18998E-02   -0.19996E-02 10962   0.123E-01 0.922E-03
CGA:  76    -0.357630188293E+03   -0.17228E-02   -0.20417E-02 10962   0.993E-02 0.238E-02
CGA:  77    -0.357631748785E+03   -0.15605E-02   -0.19103E-02 10962   0.851E-02 0.288E-02
CGA:  78    -0.357633487623E+03   -0.17388E-02   -0.20153E-02 10962   0.813E-02 0.306E-02
CGA:  79    -0.357635568460E+03   -0.20808E-02   -0.22718E-02 10962   0.812E-02 0.295E-02
CGA:  80    -0.357637929883E+03   -0.23614E-02   -0.24784E-02 10962   0.826E-02 0.282E-02
CGA:  81    -0.357640072314E+03   -0.21424E-02   -0.22886E-02 10962   0.657E-02 0.280E-02
CGA:  82    -0.357641602629E+03   -0.15303E-02   -0.16882E-02 10962   0.549E-02 0.247E-02
CGA:  83    -0.357643086802E+03   -0.14842E-02   -0.15892E-02 10962   0.541E-02 0.236E-02
CGA:  84    -0.357644665391E+03   -0.15786E-02   -0.16621E-02 10962   0.479E-02 0.219E-02
CGA:  85    -0.357646165451E+03   -0.15001E-02   -0.15373E-02 10962   0.489E-02 0.166E-02
CGA:  86    -0.357647740713E+03   -0.15753E-02   -0.15868E-02 10962   0.501E-02 0.115E-02
CGA:  87    -0.357649095234E+03   -0.13545E-02   -0.13660E-02 10962   0.485E-02 0.386E-03
CGA:  88    -0.357650344998E+03   -0.12498E-02   -0.12480E-02 10962   0.590E-02-0.272E-03
CGA:  89    -0.357651719851E+03   -0.13749E-02   -0.13727E-02 10962   0.728E-02-0.121E-02
SDA:  90    -0.357652999686E+03   -0.12798E-02   -0.12143E-02 10962   0.914E-02-0.175E-02
CGA:  91    -0.357659290081E+03   -0.62904E-02   -0.58890E-02 10962   0.648E-02 0.104E-02
CGA:  92    -0.357663206844E+03   -0.39168E-02   -0.38514E-02 10962   0.641E-02 0.282E-03
CGA:  93    -0.357666349413E+03   -0.31426E-02   -0.30847E-02 10962   0.355E-02 0.314E-03
CGA:  94    -0.357668764986E+03   -0.24156E-02   -0.31144E-02 10962   0.655E-02-0.128E-02
CGA:  95    -0.357671441806E+03   -0.26768E-02   -0.46684E-02 10962   0.164E-01-0.291E-02
CGA:  96    -0.357673706337E+03   -0.22645E-02   -0.65526E-02 10962   0.278E-01-0.124E-01
CGA:  97    -0.357684760752E+03   -0.11054E-01   -0.11120E-01 10962   0.148E-01-0.223E-02
CGA:  98    -0.357692025193E+03   -0.72644E-02   -0.71267E-02 10962   0.112E-01 0.766E-03
CGA:  99    -0.357698798233E+03   -0.67730E-02   -0.66920E-02 10962   0.808E-02 0.343E-03
CGA: 100    -0.357704064234E+03   -0.52660E-02   -0.55964E-02 10962   0.614E-02-0.928E-03
CGA: 101    -0.357707159547E+03   -0.30953E-02   -0.30096E-02 10962   0.482E-02 0.603E-03
CGA: 102    -0.357710258378E+03   -0.30988E-02   -0.30057E-02 10962   0.620E-02 0.464E-03
CGA: 103    -0.357715655792E+03   -0.53974E-02   -0.53997E-02 10962   0.119E-01 0.324E-03
CGA: 104    -0.357721368492E+03   -0.57127E-02   -0.56686E-02 10962   0.109E-01 0.126E-02
CGA: 105    -0.357726542403E+03   -0.51739E-02   -0.51633E-02 10962   0.858E-02-0.106E-02
CGA: 106    -0.357729237699E+03   -0.26953E-02   -0.27120E-02 10962   0.616E-02 0.128E-03
CGA: 107    -0.357730895863E+03   -0.16582E-02   -0.17606E-02 10962   0.363E-02 0.806E-03
CGA: 108    -0.357731977489E+03   -0.10816E-02   -0.11922E-02 10962   0.262E-02 0.840E-03
CGA: 109    -0.357732789935E+03   -0.81245E-03   -0.90178E-03 10962   0.174E-02 0.721E-03
CGA: 110    -0.357733283309E+03   -0.49337E-03   -0.57461E-03 10962   0.125E-02 0.599E-03
CGA: 111    -0.357733633705E+03   -0.35040E-03   -0.41876E-03 10962   0.924E-03 0.485E-03
CGA: 112    -0.357733946179E+03   -0.31247E-03   -0.34417E-03 10962   0.766E-03 0.269E-03
CGA: 113    -0.357734306217E+03   -0.36004E-03   -0.35874E-03 10962   0.919E-03-0.439E-04
CGA: 114    -0.357734636005E+03   -0.32979E-03   -0.32330E-03 10962   0.122E-02-0.384E-03
CGA: 115    -0.357734865836E+03   -0.22983E-03   -0.15674E-03 10962   0.125E-02-0.437E-03
CGA: 116    -0.357735165808E+03   -0.29997E-03   -0.21821E-03 10962   0.136E-02-0.760E-03
CGA: 117    -0.357735248688E+03   -0.82880E-04   -0.22640E-02 10962   0.759E-02-0.173E-02
CGA: 118    -0.357737027535E+03   -0.17788E-02   -0.18667E-02 10962   0.745E-03 0.451E-03
CGA: 119    -0.357737403179E+03   -0.37564E-03   -0.45581E-03 10962   0.893E-03-0.542E-03
CGA: 120    -0.357737476902E+03   -0.73723E-04   -0.14757E-03 10962   0.137E-03 0.272E-03
CGA: 121    -0.357737482816E+03   -0.59141E-05   -0.28113E-04 10962   0.659E-04 0.832E-04
CGA: 122    -0.357737539274E+03   -0.56457E-04    0.31619E-03 10962   0.470E-04 0.331E-04
CGA: 123    -0.357737536128E+03    0.31451E-05   -0.69256E-05 10962   0.361E-04 0.383E-04
CGA: 124    -0.357737547315E+03   -0.11187E-04   -0.12702E-04 10962   0.323E-04 0.331E-04
CGA: 125    -0.357737634588E+03   -0.87273E-04   -0.60484E-04 10962   0.734E-04 0.182E-04
CGA: 126    -0.357737625247E+03    0.93413E-05   -0.66800E-05 10962   0.291E-04 0.424E-04
   1 F= -.35773763E+03 E0= -.35773763E+03  d E =-.357738E+03  mag=    12.0000
       N       E                     dE             d eps       ncg     rms          ort
SDA:   1    -0.357737601926E+03    0.32662E-04    0.00000E+00 10962   0.308E-02 0.000E+00
CGA:   2    -0.357738451657E+03   -0.84973E-03   -0.85275E-03 10962   0.179E-02 0.189E-04
CGA:   3    -0.357738717466E+03   -0.26581E-03   -0.26940E-03 10962   0.521E-03 0.126E-04
CGA:   4    -0.357738808410E+03   -0.90943E-04   -0.90259E-04 10962   0.149E-03-0.300E-05
CGA:   5    -0.357738835837E+03   -0.27427E-04   -0.27821E-04 10962   0.612E-04 0.182E-05
CGA:   6    -0.357738847085E+03   -0.11248E-04   -0.13258E-04 10962   0.351E-04 0.115E-04
CGA:   7    -0.357738854025E+03   -0.69403E-05   -0.97377E-05 10962   0.271E-04 0.191E-04
   2 F= -.35773885E+03 E0= -.35773885E+03  d E =-.122878E-02  mag=    12.0000
       N       E                     dE             d eps       ncg     rms          ort
SDA:   1    -0.357717618592E+03    0.21228E-01    0.00000E+00 10962   0.635E-01 0.000E+00
CGA:   2    -0.357734605417E+03   -0.16987E-01   -0.16994E-01 10962   0.384E-01 0.651E-04
CGA:   3    -0.357740241960E+03   -0.56365E-02   -0.56531E-02 10962   0.106E-01 0.673E-04
CGA:   4    -0.357741989905E+03   -0.17479E-02   -0.17433E-02 10962   0.260E-02-0.271E-04
CGA:   5    -0.357742445421E+03   -0.45552E-03   -0.45190E-03 10962   0.739E-03-0.222E-04
CGA:   6    -0.357742584491E+03   -0.13907E-03   -0.14099E-03 10962   0.251E-03 0.136E-04
CGA:   7    -0.357742637013E+03   -0.52522E-04   -0.55162E-04 10962   0.104E-03 0.242E-04
CGA:   8    -0.357742662223E+03   -0.25210E-04   -0.27095E-04 10962   0.499E-04 0.232E-04
CGA:   9    -0.357742674500E+03   -0.12278E-04   -0.14186E-04 10962   0.283E-04 0.228E-04
CGA:  10    -0.357742680644E+03   -0.61437E-05   -0.85023E-05 10962   0.192E-04 0.224E-04
   3 F= -.35774268E+03 E0= -.35774268E+03  d E =-.382662E-02  mag=    12.0000
       N       E                     dE             d eps       ncg     rms          ort
SDA:   1    -0.357635505378E+03    0.10717E+00    0.00000E+00 10962   0.298E+00 0.000E+00
CGA:   2    -0.357705983204E+03   -0.70478E-01   -0.70507E-01 10962   0.191E+00 0.351E-03
CGA:   3    -0.357735633884E+03   -0.29651E-01   -0.29692E-01 10962   0.506E-01 0.237E-03
CGA:   4    -0.357743703887E+03   -0.80700E-02   -0.80532E-02 10962   0.119E-01-0.134E-03
CGA:   5    -0.357745700560E+03   -0.19967E-02   -0.19845E-02 10962   0.301E-02-0.105E-03
CGA:   6    -0.357746253964E+03   -0.55340E-03   -0.55347E-03 10962   0.933E-03 0.115E-06
CGA:   7    -0.357746445912E+03   -0.19195E-03   -0.19397E-03 10962   0.320E-03 0.303E-04
CGA:   8    -0.357746524365E+03   -0.78453E-04   -0.79323E-04 10962   0.139E-03 0.279E-04
CGA:   9    -0.357746563323E+03   -0.38958E-04   -0.39219E-04 10962   0.649E-04 0.253E-04
CGA:  10    -0.357746582527E+03   -0.19205E-04   -0.19536E-04 10962   0.342E-04 0.231E-04
CGA:  11    -0.357746592944E+03   -0.10417E-04   -0.11074E-04 10962   0.227E-04 0.218E-04
CGA:  12    -0.357746597526E+03   -0.45822E-05   -0.51283E-05 10962   0.144E-04 0.134E-04
   4 F= -.35774660E+03 E0= -.35774660E+03  d E =-.391688E-02  mag=    12.0000
       N       E                     dE             d eps       ncg     rms          ort
SDA:   1    -0.357582724953E+03    0.16387E+00    0.00000E+00 10962   0.447E+00 0.000E+00
CGA:   2    -0.357689563157E+03   -0.10684E+00   -0.10686E+00 10962   0.284E+00 0.801E-03
CGA:   3    -0.357733124194E+03   -0.43561E-01   -0.43605E-01 10962   0.736E-01 0.328E-03
CGA:   4    -0.357744859460E+03   -0.11735E-01   -0.11708E-01 10962   0.172E-01-0.294E-03
CGA:   5    -0.357747708816E+03   -0.28494E-02   -0.28330E-02 10962   0.425E-02-0.191E-03
CGA:   6    -0.357748479682E+03   -0.77087E-03   -0.76978E-03 10962   0.127E-02-0.177E-04
CGA:   7    -0.357748739630E+03   -0.25995E-03   -0.26061E-03 10962   0.415E-03 0.175E-04
CGA:   8    -0.357748844880E+03   -0.10525E-03   -0.10518E-03 10962   0.189E-03 0.863E-05
CGA:   9    -0.357748901791E+03   -0.56911E-04   -0.56650E-04 10962   0.100E-03 0.508E-05
CGA:  10    -0.357748935433E+03   -0.33642E-04   -0.33116E-04 10962   0.593E-04 0.675E-05
CGA:  11    -0.357748958276E+03   -0.22843E-04   -0.21821E-04 10962   0.430E-04 0.106E-04
CGA:  12    -0.357748977103E+03   -0.18827E-04   -0.16929E-04 10962   0.388E-04 0.235E-04
CGA:  13    -0.357748990814E+03   -0.13711E-04   -0.12774E-04 10962   0.239E-04 0.130E-04
CGA:  14    -0.357749004910E+03   -0.14095E-04   -0.11725E-04 10962   0.220E-04 0.223E-04
CGA:  15    -0.357749016741E+03   -0.11832E-04   -0.97162E-05 10962   0.183E-04 0.120E-04
CGA:  16    -0.357749029991E+03   -0.13250E-04   -0.10054E-04 10962   0.213E-04 0.117E-04
CGA:  17    -0.357749038458E+03   -0.84671E-05   -0.76963E-05 10962   0.212E-04 0.107E-04
   5 F= -.35774904E+03 E0= -.35774904E+03  d E =-.244093E-02  mag=    12.0000
       N       E                     dE             d eps       ncg     rms          ort
SDA:   1    -0.354675308416E+03    0.30737E+01    0.00000E+00 10962   0.790E+01 0.000E+00
CGA:   2    -0.356739229062E+03   -0.20639E+01   -0.20644E+01 10962   0.497E+01 0.601E-02
CGA:   3    -0.357470463662E+03   -0.73123E+00   -0.73165E+00 10962   0.122E+01 0.309E-02
CGA:   4    -0.357665233482E+03   -0.19477E+00   -0.19449E+00 10962   0.284E+00-0.179E-02
CGA:   5    -0.357711790315E+03   -0.46557E-01   -0.46466E-01 10962   0.717E-01-0.791E-03
CGA:   6    -0.357724932925E+03   -0.13143E-01   -0.13147E-01 10962   0.213E-01 0.297E-04
CGA:   7    -0.357729335576E+03   -0.44027E-02   -0.44062E-02 10962   0.716E-02 0.506E-04
CGA:   8    -0.357731121762E+03   -0.17862E-02   -0.17857E-02 10962   0.307E-02-0.247E-04
CGA:   9    -0.357731987022E+03   -0.86526E-03   -0.86584E-03 10962   0.139E-02-0.429E-04
CGA:  10    -0.357732391409E+03   -0.40439E-03   -0.40509E-03 10962   0.557E-03-0.280E-04
CGA:  11    -0.357732544774E+03   -0.15337E-03   -0.15319E-03 10962   0.201E-03 0.189E-04
CGA:  12    -0.357732603106E+03   -0.58332E-04   -0.58000E-04 10962   0.942E-04 0.432E-04
CGA:  13    -0.357732633964E+03   -0.30857E-04   -0.30946E-04 10962   0.645E-04 0.523E-04
CGA:  14    -0.357732652176E+03   -0.18212E-04   -0.17977E-04 10962   0.385E-04 0.344E-04
CGA:  15    -0.357732662950E+03   -0.10775E-04   -0.10644E-04 10962   0.330E-04 0.320E-04
CGA:  16    -0.357732672770E+03   -0.98195E-05   -0.94204E-05 10962   0.303E-04 0.303E-04
   6 F= -.35773267E+03 E0= -.35773267E+03  d E =0.163657E-01  mag=    12.0000
       N       E                     dE             d eps       ncg     rms          ort
SDA:   1    -0.356841362271E+03    0.89130E+00    0.00000E+00 10962   0.222E+01 0.000E+00
CGA:   2    -0.357484206143E+03   -0.64284E+00   -0.64280E+00 10962   0.128E+01 0.256E-02
CGA:   3    -0.357668121096E+03   -0.18391E+00   -0.18400E+00 10962   0.329E+00 0.259E-03
CGA:   4    -0.357721119994E+03   -0.52999E-01   -0.52910E-01 10962   0.770E-01-0.855E-03
CGA:   5    -0.357734070537E+03   -0.12951E-01   -0.12919E-01 10962   0.213E-01-0.338E-03
CGA:   6    -0.357738030439E+03   -0.39599E-02   -0.39666E-02 10962   0.643E-02 0.920E-04
CGA:   7    -0.357739393862E+03   -0.13634E-02   -0.13691E-02 10962   0.240E-02 0.133E-03
CGA:   8    -0.357740004835E+03   -0.61097E-03   -0.61112E-03 10962   0.101E-02 0.573E-04
CGA:   9    -0.357740297174E+03   -0.29234E-03   -0.29168E-03 10962   0.467E-03 0.223E-04
CGA:  10    -0.357740432912E+03   -0.13574E-03   -0.13516E-03 10962   0.188E-03 0.194E-04
CGA:  11    -0.357740491211E+03   -0.58299E-04   -0.57513E-04 10962   0.875E-04 0.204E-04
CGA:  12    -0.357740522309E+03   -0.31099E-04   -0.29698E-04 10962   0.580E-04 0.284E-04
CGA:  13    -0.357740551289E+03   -0.28980E-04   -0.26032E-04 10962   0.536E-04 0.367E-04
CGA:  14    -0.357740571121E+03   -0.19831E-04   -0.18415E-04 10962   0.333E-04 0.177E-04
CGA:  15    -0.357740590437E+03   -0.19317E-04   -0.16150E-04 10962   0.305E-04 0.325E-04
CGA:  16    -0.357740607694E+03   -0.17257E-04   -0.14097E-04 10962   0.255E-04 0.165E-04
CGA:  17    -0.357740618740E+03   -0.11046E-04   -0.94425E-05 10962   0.237E-04 0.181E-04
CGA:  18    -0.357740633585E+03   -0.14845E-04   -0.22704E-05 10962   0.482E-03-0.179E-04
CGA:  19    -0.357740676041E+03   -0.42456E-04   -0.59953E-04 10962   0.267E-04 0.435E-04
CGA:  20    -0.357740686345E+03   -0.10304E-04   -0.11028E-04 10962   0.365E-04 0.586E-05
CGA:  21    -0.357740417643E+03    0.26870E-03   -0.14649E-03 10962   0.287E-02-0.151E-03
CGA:  22    -0.357740813392E+03   -0.39575E-03   -0.47741E-03 10962   0.303E-03 0.104E-03
CGA:  23    -0.357740894299E+03   -0.80907E-04   -0.80923E-04 10962   0.135E-04 0.285E-07
CGA:  24    -0.357740902394E+03   -0.80951E-05   -0.81814E-05 10962   0.211E-04 0.288E-06
   7 F= -.35774090E+03 E0= -.35774090E+03  d E =-.822962E-02  mag=    12.0000
       N       E                     dE             d eps       ncg     rms          ort
SDA:   1    -0.357119505371E+03    0.62139E+00    0.00000E+00 10962   0.166E+01 0.000E+00
CGA:   2    -0.357536429785E+03   -0.41692E+00   -0.41682E+00 10962   0.105E+01-0.675E-03
CGA:   3    -0.357695289830E+03   -0.15886E+00   -0.15862E+00 10962   0.264E+00 0.366E-02
CGA:   4    -0.357737286203E+03   -0.41996E-01   -0.42089E-01 10962   0.619E-01 0.410E-03
CGA:   5    -0.357747320691E+03   -0.10034E-01   -0.10125E-01 10962   0.153E-01 0.145E-03
CGA:   6    -0.357750138575E+03   -0.28179E-02   -0.28256E-02 10962   0.453E-02 0.133E-04
CGA:   7    -0.357751104141E+03   -0.96557E-03   -0.94672E-03 10962   0.152E-02-0.417E-04
CGA:   8    -0.357751490357E+03   -0.38622E-03   -0.37522E-03 10962   0.644E-03-0.281E-04
CGA:   9    -0.357751674521E+03   -0.18416E-03   -0.17700E-03 10962   0.286E-03-0.210E-04
CGA:  10    -0.357751765961E+03   -0.91440E-04   -0.84590E-04 10962   0.122E-03-0.230E-04
CGA:  11    -0.357751806248E+03   -0.40287E-04   -0.35939E-04 10962   0.516E-04-0.163E-04
CGA:  12    -0.357751832102E+03   -0.25854E-04   -0.26353E-04 10962   0.898E-04-0.379E-04
CGA:  13    -0.357751852006E+03   -0.19904E-04   -0.20124E-04 10962   0.191E-04 0.598E-06
CGA:  14    -0.357751835603E+03    0.16403E-04   -0.29078E-04 10962   0.266E-03-0.478E-04
CGA:  15    -0.357751885813E+03   -0.50209E-04   -0.54862E-04 10962   0.343E-04 0.115E-04
CGA:  16    -0.357751906903E+03   -0.21091E-04   -0.22578E-04 10962   0.666E-04-0.343E-04
CGA:  17    -0.357751908438E+03   -0.15342E-05   -0.98623E-05 10962   0.130E-04 0.189E-04
   8 F= -.35775191E+03 E0= -.35775191E+03  d E =-.110060E-01  mag=    12.0000
       N       E                     dE             d eps       ncg     rms          ort
SDA:   1    -0.357611855648E+03    0.14005E+00    0.00000E+00 10962   0.345E+00 0.000E+00
CGA:   2    -0.357717911474E+03   -0.10606E+00   -0.10605E+00 10962   0.169E+00-0.591E-04
CGA:   3    -0.357743053214E+03   -0.25142E-01   -0.25168E-01 10962   0.492E-01 0.101E-03
CGA:   4    -0.357750845337E+03   -0.77921E-02   -0.78013E-02 10962   0.110E-01 0.189E-04
CGA:   5    -0.357752742822E+03   -0.18975E-02   -0.19032E-02 10962   0.328E-02 0.157E-04
CGA:   6    -0.357753347390E+03   -0.60457E-03   -0.60905E-03 10962   0.989E-03 0.147E-04
CGA:   7    -0.357753561960E+03   -0.21457E-03   -0.21795E-03 10962   0.391E-03 0.133E-04
CGA:   8    -0.357753656998E+03   -0.95038E-04   -0.97648E-04 10962   0.161E-03 0.123E-04
CGA:   9    -0.357753701131E+03   -0.44133E-04   -0.45630E-04 10962   0.690E-04 0.868E-05
CGA:  10    -0.357753719628E+03   -0.18498E-04   -0.19470E-04 10962   0.256E-04 0.566E-05
CGA:  11    -0.357753727926E+03   -0.82971E-05   -0.84790E-05 10962   0.120E-04 0.144E-05
   9 F= -.35775373E+03 E0= -.35775373E+03  d E =-.181949E-02  mag=    12.0000
       N       E                     dE             d eps       ncg     rms          ort
SDA:   1    -0.357154963096E+03    0.59876E+00    0.00000E+00 10962   0.146E+01 0.000E+00
CGA:   2    -0.357598211213E+03   -0.44325E+00   -0.44339E+00 10962   0.829E+00 0.985E-03
CGA:   3    -0.357713583450E+03   -0.11537E+00   -0.11538E+00 10962   0.198E+00 0.194E-03
CGA:   4    -0.357744985500E+03   -0.31402E-01   -0.31304E-01 10962   0.450E-01-0.410E-03
CGA:   5    -0.357752466741E+03   -0.74812E-02   -0.74495E-02 10962   0.122E-01-0.147E-03
CGA:   6    -0.357754702116E+03   -0.22354E-02   -0.22402E-02 10962   0.349E-02 0.231E-04
CGA:   7    -0.357755410248E+03   -0.70813E-03   -0.71423E-03 10962   0.118E-02 0.361E-04
CGA:   8    -0.357755708918E+03   -0.29867E-03   -0.29966E-03 10962   0.515E-03 0.898E-05
CGA:   9    -0.357755857853E+03   -0.14894E-03   -0.14902E-03 10962   0.243E-03 0.129E-05
CGA:  10    -0.357755928677E+03   -0.70823E-04   -0.70968E-04 10962   0.959E-04 0.238E-05
CGA:  11    -0.357755957226E+03   -0.28550E-04   -0.28559E-04 10962   0.375E-04 0.156E-06
CGA:  12    -0.357755966962E+03   -0.97352E-05   -0.10323E-04 10962   0.173E-04 0.814E-05
  10 F= -.35775597E+03 E0= -.35775597E+03  d E =-.223904E-02  mag=    12.0000
       N       E                     dE             d eps       ncg     rms          ort
SDA:   1    -0.346721976063E+03    0.11034E+02    0.00000E+00 10962   0.246E+02 0.000E+00
CGA:   2    -0.353913838231E+03   -0.71919E+01   -0.71950E+01 10962   0.116E+02 0.178E-01
CGA:   3    -0.355812383528E+03   -0.18985E+01   -0.19007E+01 10962   0.418E+01 0.113E-01
CGA:   4    -0.356478549910E+03   -0.66617E+00   -0.66668E+00 10962   0.954E+00 0.295E-02
CGA:   5    -0.356653743369E+03   -0.17519E+00   -0.17523E+00 10962   0.330E+00 0.182E-03
CGA:   6    -0.356717137294E+03   -0.63394E-01   -0.63399E-01 10962   0.111E+00-0.352E-04
CGA:   7    -0.356743430111E+03   -0.26293E-01   -0.26294E-01 10962   0.509E-01 0.129E-04
CGA:   8    -0.356755719765E+03   -0.12290E-01   -0.12298E-01 10962   0.189E-01 0.149E-03
CGA:   9    -0.356760765405E+03   -0.50456E-02   -0.50494E-02 10962   0.729E-02 0.113E-03
CGA:  10    -0.356762733002E+03   -0.19676E-02   -0.19656E-02 10962   0.244E-02-0.662E-04
CGA:  11    -0.356763438580E+03   -0.70558E-03   -0.70534E-03 10962   0.893E-03-0.471E-04
CGA:  12    -0.356763715937E+03   -0.27736E-03   -0.27737E-03 10962   0.421E-03-0.900E-06
CGA:  13    -0.356763890033E+03   -0.17410E-03   -0.17463E-03 10962   0.319E-03-0.461E-05
CGA:  14    -0.356764037802E+03   -0.14777E-03   -0.14097E-03 10962   0.259E-03 0.481E-04
CGA:  15    -0.356764178625E+03   -0.14082E-03   -0.13253E-03 10962   0.198E-03 0.627E-04
CGA:  16    -0.356764276756E+03   -0.98131E-04   -0.92449E-04 10962   0.125E-03 0.960E-04
CGA:  17    -0.356764362483E+03   -0.85726E-04   -0.78771E-04 10962   0.933E-04 0.666E-04
CGA:  18    -0.356764410554E+03   -0.48072E-04   -0.52415E-04 10962   0.983E-04-0.186E-04
CGA:  19    -0.356764446130E+03   -0.35575E-04   -0.32546E-04 10962   0.707E-04 0.394E-04
CGA:  20    -0.356764489339E+03   -0.43209E-04   -0.40879E-04 10962   0.524E-04 0.323E-04
CGA:  21    -0.356764527745E+03   -0.38406E-04   -0.34293E-04 10962   0.433E-04 0.391E-04
CGA:  22    -0.356764544942E+03   -0.17197E-04   -0.16728E-04 10962   0.197E-04 0.129E-04
CGA:  23    -0.356764563320E+03   -0.18378E-04   -0.14592E-04 10962   0.256E-04 0.171E-04
CGA:  24    -0.356764568022E+03   -0.47021E-05   -0.64541E-05 10962   0.161E-04 0.159E-04
  11 F= -.35676457E+03 E0= -.35676457E+03  d E =0.991399E+00  mag=    12.0000
       N       E                     dE             d eps       ncg     rms          ort
SDA:   1    -0.353352285902E+03    0.34123E+01    0.00000E+00 10962   0.102E+02 0.000E+00
CGA:   2    -0.356709108705E+03   -0.33568E+01   -0.33552E+01 10962   0.311E+01-0.237E-01
CGA:   3    -0.357466616847E+03   -0.75751E+00   -0.75799E+00 10962   0.834E+00-0.641E-03
CGA:   4    -0.357599404490E+03   -0.13279E+00   -0.13260E+00 10962   0.309E+00-0.544E-04
CGA:   5    -0.357657803033E+03   -0.58399E-01   -0.58309E-01 10962   0.832E-01-0.264E-03
CGA:   6    -0.357675593288E+03   -0.17790E-01   -0.17748E-01 10962   0.420E-01-0.345E-03
CGA:   7    -0.357685568818E+03   -0.99755E-02   -0.99241E-02 10962   0.153E-01-0.518E-03
CGA:   8    -0.357689297625E+03   -0.37288E-02   -0.37054E-02 10962   0.681E-02-0.273E-03
CGA:   9    -0.357690967131E+03   -0.16695E-02   -0.16668E-02 10962   0.209E-02-0.351E-04
CGA:  10    -0.357691525364E+03   -0.55823E-03   -0.55858E-03 10962   0.696E-03 0.668E-05
CGA:  11    -0.357691715092E+03   -0.18973E-03   -0.18924E-03 10962   0.246E-03-0.993E-05
CGA:  12    -0.357691784174E+03   -0.69081E-04   -0.69691E-04 10962   0.102E-03 0.201E-04
CGA:  13    -0.357691821245E+03   -0.37071E-04   -0.36779E-04 10962   0.617E-04 0.157E-04
CGA:  14    -0.357691858603E+03   -0.37358E-04   -0.38523E-04 10962   0.759E-04-0.511E-05
CGA:  15    -0.357691891452E+03   -0.32849E-04   -0.33910E-04 10962   0.811E-04-0.626E-05
CGA:  16    -0.357691922268E+03   -0.30816E-04   -0.51309E-04 10962   0.150E-03-0.573E-04
CGA:  17    -0.357691958535E+03   -0.36267E-04   -0.37644E-04 10962   0.407E-04 0.133E-04
CGA:  18    -0.357691978945E+03   -0.20410E-04   -0.23155E-04 10962   0.649E-04-0.158E-04
CGA:  19    -0.357691990891E+03   -0.11946E-04   -0.11546E-04 10962   0.384E-04-0.618E-05
CGA:  20    -0.357691997876E+03   -0.69846E-05   -0.74422E-05 10962   0.241E-04 0.320E-05
  12 F= -.35769200E+03 E0= -.35769200E+03  d E =-.927430E+00  mag=    12.0000
       N       E                     dE             d eps       ncg     rms          ort
SDA:   1    -0.357580895884E+03    0.11110E+00    0.00000E+00 10962   0.389E+00 0.000E+00
CGA:   2    -0.357707655316E+03   -0.12676E+00   -0.12676E+00 10962   0.125E+00-0.104E-03
CGA:   3    -0.357736329439E+03   -0.28674E-01   -0.28686E-01 10962   0.407E-01 0.849E-04
CGA:   4    -0.357742233533E+03   -0.59041E-02   -0.59037E-02 10962   0.120E-01-0.148E-04
CGA:   5    -0.357744691954E+03   -0.24584E-02   -0.24568E-02 10962   0.362E-02-0.125E-04
CGA:   6    -0.357745397764E+03   -0.70581E-03   -0.70567E-03 10962   0.163E-02-0.137E-05
CGA:   7    -0.357745803854E+03   -0.40609E-03   -0.40598E-03 10962   0.638E-03-0.149E-05
CGA:   8    -0.357745960032E+03   -0.15618E-03   -0.15575E-03 10962   0.282E-03-0.645E-05
CGA:   9    -0.357746033296E+03   -0.73263E-04   -0.73092E-04 10962   0.969E-04-0.373E-05
CGA:  10    -0.357746058165E+03   -0.24870E-04   -0.25042E-04 10962   0.338E-04 0.399E-05
CGA:  11    -0.357746069350E+03   -0.11185E-04   -0.11215E-04 10962   0.178E-04-0.192E-05
CGA:  12    -0.357746076674E+03   -0.73236E-05   -0.80211E-05 10962   0.197E-04-0.401E-05
  13 F= -.35774608E+03 E0= -.35774608E+03  d E =-.540788E-01  mag=    12.0000
       N       E                     dE             d eps       ncg     rms          ort
SDA:   1    -0.357477561406E+03    0.26851E+00    0.00000E+00 10962   0.686E+00 0.000E+00
CGA:   2    -0.357696929375E+03   -0.21937E+00   -0.21937E+00 10962   0.241E+00 0.405E-03
CGA:   3    -0.357745217827E+03   -0.48288E-01   -0.48321E-01 10962   0.964E-01 0.242E-03
CGA:   4    -0.357759103738E+03   -0.13886E-01   -0.13895E-01 10962   0.217E-01 0.281E-04
CGA:   5    -0.357763547837E+03   -0.44441E-02   -0.44446E-02 10962   0.769E-02 0.185E-05
CGA:   6    -0.357764981945E+03   -0.14341E-02   -0.14384E-02 10962   0.279E-02 0.375E-04
CGA:   7    -0.357765689770E+03   -0.70782E-03   -0.71062E-03 10962   0.121E-02 0.696E-04
CGA:   8    -0.357765979048E+03   -0.28928E-03   -0.29162E-03 10962   0.475E-03 0.411E-04
CGA:   9    -0.357766111012E+03   -0.13196E-03   -0.13229E-03 10962   0.174E-03 0.168E-04
CGA:  10    -0.357766157354E+03   -0.46342E-04   -0.46620E-04 10962   0.610E-04 0.958E-05
CGA:  11    -0.357766176702E+03   -0.19348E-04   -0.19318E-04 10962   0.270E-04 0.214E-05
CGA:  12    -0.357766186960E+03   -0.10258E-04   -0.10032E-04 10962   0.189E-04 0.319E-05
CGA:  13    -0.357766194528E+03   -0.75687E-05   -0.71712E-05 10962   0.145E-04 0.816E-05
  14 F= -.35776619E+03 E0= -.35776619E+03  d E =-.201179E-01  mag=    12.0000
       N       E                     dE             d eps       ncg     rms          ort
SDA:   1    -0.357755407854E+03    0.10779E-01    0.00000E+00 10962   0.357E-01 0.000E+00
CGA:   2    -0.357764991912E+03   -0.95841E-02   -0.95857E-02 10962   0.192E-01 0.554E-04
CGA:   3    -0.357767875341E+03   -0.28834E-02   -0.28955E-02 10962   0.594E-02 0.795E-04
CGA:   4    -0.357768898144E+03   -0.10228E-02   -0.10262E-02 10962   0.149E-02 0.290E-04
CGA:   5    -0.357769151773E+03   -0.25363E-03   -0.25337E-03 10962   0.413E-03-0.252E-05
CGA:   6    -0.357769232952E+03   -0.81179E-04   -0.81729E-04 10962   0.146E-03 0.710E-05
CGA:   7    -0.357769259447E+03   -0.26495E-04   -0.28708E-04 10962   0.537E-04 0.283E-04
CGA:   8    -0.357769267864E+03   -0.84163E-05   -0.10946E-04 10962   0.228E-04 0.261E-04
  15 F= -.35776927E+03 E0= -.35776927E+03  d E =-.307334E-02  mag=    12.0000
       N       E                     dE             d eps       ncg     rms          ort
SDA:   1    -0.357744152266E+03    0.25107E-01    0.00000E+00 10962   0.749E-01 0.000E+00
CGA:   2    -0.357761884850E+03   -0.17733E-01   -0.17735E-01 10962   0.453E-01 0.947E-04
CGA:   3    -0.357768974262E+03   -0.70894E-02   -0.71025E-02 10962   0.133E-01 0.119E-03
CGA:   4    -0.357771193545E+03   -0.22193E-02   -0.22208E-02 10962   0.331E-02 0.148E-04
CGA:   5    -0.357771757934E+03   -0.56439E-03   -0.56315E-03 10962   0.908E-03-0.165E-04
CGA:   6    -0.357771929653E+03   -0.17172E-03   -0.17170E-03 10962   0.305E-03-0.385E-06
CGA:   7    -0.357771989720E+03   -0.60067E-04   -0.61440E-04 10962   0.108E-03 0.349E-04
CGA:   8    -0.357772010027E+03   -0.20306E-04   -0.22290E-04 10962   0.397E-04 0.373E-04
CGA:   9    -0.357772018210E+03   -0.81832E-05   -0.94530E-05 10962   0.187E-04 0.215E-04
  16 F= -.35777202E+03 E0= -.35777202E+03  d E =-.275035E-02  mag=    12.0000
       N       E                     dE             d eps       ncg     rms          ort
SDA:   1    -0.357760826541E+03    0.11183E-01    0.00000E+00 10962   0.363E-01 0.000E+00
CGA:   2    -0.357767812359E+03   -0.69858E-02   -0.69887E-02 10962   0.209E-01 0.499E-04
CGA:   3    -0.357771407810E+03   -0.35955E-02   -0.36008E-02 10962   0.677E-02 0.765E-04
CGA:   4    -0.357772483899E+03   -0.10761E-02   -0.10760E-02 10962   0.167E-02-0.275E-05
CGA:   5    -0.357772745364E+03   -0.26146E-03   -0.26037E-03 10962   0.419E-03-0.152E-04
CGA:   6    -0.357772821373E+03   -0.76009E-04   -0.75691E-04 10962   0.127E-03-0.748E-05
CGA:   7    -0.357772845023E+03   -0.23650E-04   -0.24034E-04 10962   0.390E-04 0.124E-04
CGA:   8    -0.357772851271E+03   -0.62478E-05   -0.71185E-05 10962   0.150E-04 0.157E-04
  17 F= -.35777285E+03 E0= -.35777285E+03  d E =-.833061E-03  mag=    12.0000
       N       E                     dE             d eps       ncg     rms          ort
SDA:   1    -0.357618542443E+03    0.15430E+00    0.00000E+00 10962   0.487E+00 0.000E+00
CGA:   2    -0.357708286782E+03   -0.89744E-01   -0.89767E-01 10962   0.264E+00 0.414E-03
CGA:   3    -0.357754773510E+03   -0.46487E-01   -0.46501E-01 10962   0.894E-01 0.279E-03
CGA:   4    -0.357769173522E+03   -0.14400E-01   -0.14396E-01 10962   0.206E-01-0.902E-04
CGA:   5    -0.357772412731E+03   -0.32392E-02   -0.32373E-02 10962   0.483E-02-0.410E-04
CGA:   6    -0.357773272144E+03   -0.85941E-03   -0.85921E-03 10962   0.138E-02-0.857E-05
CGA:   7    -0.357773550945E+03   -0.27880E-03   -0.27884E-03 10962   0.407E-03 0.126E-04
CGA:   8    -0.357773640467E+03   -0.89522E-04   -0.89209E-04 10962   0.141E-03 0.268E-04
CGA:   9    -0.357773677596E+03   -0.37129E-04   -0.36425E-04 10962   0.534E-04 0.190E-04
CGA:  10    -0.357773695184E+03   -0.17588E-04   -0.17196E-04 10962   0.250E-04 0.516E-05
CGA:  11    -0.357773705277E+03   -0.10093E-04   -0.12208E-04 10962   0.247E-04-0.907E-05
CGA:  12    -0.357773708571E+03   -0.32944E-05   -0.76862E-05 10962   0.316E-04-0.166E-04
  18 F= -.35777371E+03 E0= -.35777371E+03  d E =-.857301E-03  mag=    12.0000
       N       E                     dE             d eps       ncg     rms          ort
SDA:   1    -0.357709118941E+03    0.64586E-01    0.00000E+00 10962   0.159E+00 0.000E+00
CGA:   2    -0.357756454819E+03   -0.47336E-01   -0.47328E-01 10962   0.794E-01 0.970E-04
CGA:   3    -0.357768170038E+03   -0.11715E-01   -0.11711E-01 10962   0.236E-01-0.534E-04
CGA:   4    -0.357771889050E+03   -0.37190E-02   -0.37143E-02 10962   0.493E-02-0.652E-04
CGA:   5    -0.357772694706E+03   -0.80566E-03   -0.80340E-03 10962   0.144E-02-0.334E-04
CGA:   6    -0.357772965297E+03   -0.27059E-03   -0.27021E-03 10962   0.458E-03-0.977E-05
CGA:   7    -0.357773060029E+03   -0.94732E-04   -0.94683E-04 10962   0.164E-03-0.275E-05
CGA:   8    -0.357773103598E+03   -0.43569E-04   -0.43937E-04 10962   0.801E-04-0.839E-05
CGA:   9    -0.357773125755E+03   -0.22157E-04   -0.22569E-04 10962   0.393E-04-0.597E-05
CGA:  10    -0.357773136108E+03   -0.10354E-04   -0.10428E-04 10962   0.160E-04-0.134E-05
CGA:  11    -0.357773141347E+03   -0.52384E-05   -0.54890E-05 10962   0.960E-05-0.209E-05
  19 F= -.35777314E+03 E0= -.35777314E+03  d E =0.567224E-03  mag=    12.0000
       N       E                     dE             d eps       ncg     rms          ort
SDA:   1    -0.357711232864E+03    0.61903E-01    0.00000E+00 10962   0.168E+00 0.000E+00
CGA:   2    -0.357754854526E+03   -0.43622E-01   -0.43621E-01 10962   0.959E-01 0.850E-04
CGA:   3    -0.357769332877E+03   -0.14478E-01   -0.14470E-01 10962   0.280E-01-0.104E-03
CGA:   4    -0.357773878478E+03   -0.45456E-02   -0.45385E-02 10962   0.647E-02-0.877E-04
CGA:   5    -0.357774933925E+03   -0.10554E-02   -0.10530E-02 10962   0.185E-02-0.310E-04
CGA:   6    -0.357775280402E+03   -0.34648E-03   -0.34577E-03 10962   0.604E-03-0.134E-04
CGA:   7    -0.357775413466E+03   -0.13306E-03   -0.13279E-03 10962   0.237E-03-0.166E-04
CGA:   8    -0.357775475378E+03   -0.61912E-04   -0.62618E-04 10962   0.114E-03-0.204E-04
CGA:   9    -0.357775505047E+03   -0.29669E-04   -0.30352E-04 10962   0.533E-04-0.129E-04
CGA:  10    -0.357775518724E+03   -0.13677E-04   -0.13997E-04 10962   0.224E-04-0.585E-05
CGA:  11    -0.357775524515E+03   -0.57912E-05   -0.57673E-05 10962   0.927E-05 0.525E-06
  20 F= -.35777552E+03 E0= -.35777552E+03  d E =-.238317E-02  mag=    12.0000
       N       E                     dE             d eps       ncg     rms          ort
SDA:   1    -0.357707589655E+03    0.67929E-01    0.00000E+00 10962   0.173E+00 0.000E+00
CGA:   2    -0.357758223091E+03   -0.50633E-01   -0.50633E-01 10962   0.858E-01-0.241E-04
CGA:   3    -0.357771288106E+03   -0.13065E-01   -0.13070E-01 10962   0.266E-01 0.323E-04
CGA:   4    -0.357775406757E+03   -0.41187E-02   -0.41214E-02 10962   0.528E-02 0.213E-04
CGA:   5    -0.357776302328E+03   -0.89557E-03   -0.89392E-03 10962   0.164E-02-0.210E-04
CGA:   6    -0.357776606753E+03   -0.30443E-03   -0.30411E-03 10962   0.515E-03-0.538E-05
CGA:   7    -0.357776710562E+03   -0.10381E-03   -0.10473E-03 10962   0.180E-03 0.235E-04
CGA:   8    -0.357776752922E+03   -0.42360E-04   -0.42732E-04 10962   0.711E-04 0.268E-04
CGA:   9    -0.357776773503E+03   -0.20581E-04   -0.20433E-04 10962   0.318E-04 0.155E-04
CGA:  10    -0.357776784277E+03   -0.10774E-04   -0.10594E-04 10962   0.150E-04 0.556E-05
CGA:  11    -0.357776790113E+03   -0.58358E-05   -0.57974E-05 10962   0.856E-05 0.440E-06
  21 F= -.35777679E+03 E0= -.35777679E+03  d E =-.126560E-02  mag=    12.0000
       N       E                     dE             d eps       ncg     rms          ort
SDA:   1    -0.357630896122E+03    0.14589E+00    0.00000E+00 10962   0.362E+00 0.000E+00
CGA:   2    -0.357745207179E+03   -0.11431E+00   -0.11434E+00 10962   0.149E+00-0.506E-03
CGA:   3    -0.357769617079E+03   -0.24410E-01   -0.24433E-01 10962   0.492E-01 0.221E-03
CGA:   4    -0.357776724101E+03   -0.71070E-02   -0.71204E-02 10962   0.923E-02 0.105E-03
CGA:   5    -0.357778407934E+03   -0.16838E-02   -0.16813E-02 10962   0.307E-02-0.372E-04
CGA:   6    -0.357778966707E+03   -0.55877E-03   -0.55674E-03 10962   0.945E-03-0.317E-04
CGA:   7    -0.357779169127E+03   -0.20242E-03   -0.20261E-03 10962   0.379E-03 0.683E-05
CGA:   8    -0.357779262919E+03   -0.93792E-04   -0.93740E-04 10962   0.161E-03 0.160E-04
CGA:   9    -0.357779310603E+03   -0.47683E-04   -0.47271E-04 10962   0.729E-04 0.105E-04
CGA:  10    -0.357779332246E+03   -0.21643E-04   -0.21499E-04 10962   0.292E-04 0.449E-05
CGA:  11    -0.357779343205E+03   -0.10959E-04   -0.11781E-04 10962   0.205E-04-0.615E-05
CGA:  12    -0.357779349244E+03   -0.60385E-05   -0.73986E-05 10962   0.212E-04-0.666E-05
  22 F= -.35777935E+03 E0= -.35777935E+03  d E =-.255913E-02  mag=    12.0000
       N       E                     dE             d eps       ncg     rms          ort
SDA:   1    -0.356727431859E+03    0.10519E+01    0.00000E+00 10962   0.261E+01 0.000E+00
CGA:   2    -0.357541450506E+03   -0.81402E+00   -0.81407E+00 10962   0.101E+01-0.199E-02
CGA:   3    -0.357720705313E+03   -0.17925E+00   -0.17932E+00 10962   0.327E+00 0.473E-03
CGA:   4    -0.357765291004E+03   -0.44586E-01   -0.44616E-01 10962   0.602E-01 0.139E-03
CGA:   5    -0.357776687626E+03   -0.11397E-01   -0.11387E-01 10962   0.199E-01-0.137E-03
CGA:   6    -0.357780231700E+03   -0.35441E-02   -0.35346E-02 10962   0.570E-02-0.120E-03
CGA:   7    -0.357781533772E+03   -0.13021E-02   -0.12996E-02 10962   0.241E-02-0.941E-04
CGA:   8    -0.357782153099E+03   -0.61933E-03   -0.61986E-03 10962   0.117E-02-0.793E-04
CGA:   9    -0.357782491203E+03   -0.33810E-03   -0.34029E-03 10962   0.555E-03-0.476E-04
CGA:  10    -0.357782640397E+03   -0.14919E-03   -0.14959E-03 10962   0.204E-03-0.165E-04
CGA:  11    -0.357782699560E+03   -0.59163E-04   -0.59570E-04 10962   0.759E-04-0.965E-05
CGA:  12    -0.357782722949E+03   -0.23389E-04   -0.23239E-04 10962   0.364E-04 0.245E-05
CGA:  13    -0.357782736118E+03   -0.13169E-04   -0.12670E-04 10962   0.196E-04 0.675E-05
CGA:  14    -0.357782743958E+03   -0.78402E-05   -0.74388E-05 10962   0.107E-04 0.754E-05
  23 F= -.35778274E+03 E0= -.35778274E+03  d E =-.339471E-02  mag=    12.0000
       N       E                     dE             d eps       ncg     rms          ort
SDA:   1    -0.357550665605E+03    0.23207E+00    0.00000E+00 10962   0.607E+00 0.000E+00
CGA:   2    -0.357710429245E+03   -0.15976E+00   -0.15976E+00 10962   0.340E+00-0.239E-03
CGA:   3    -0.357763957960E+03   -0.53529E-01   -0.53517E-01 10962   0.108E+00-0.136E-03
CGA:   4    -0.357781110533E+03   -0.17153E-01   -0.17160E-01 10962   0.236E-01 0.480E-04
CGA:   5    -0.357785163216E+03   -0.40527E-02   -0.40529E-02 10962   0.753E-02-0.315E-05
CGA:   6    -0.357786616889E+03   -0.14537E-02   -0.14515E-02 10962   0.246E-02-0.347E-04
CGA:   7    -0.357787167805E+03   -0.55092E-03   -0.54999E-03 10962   0.104E-02-0.340E-04
CGA:   8    -0.357787426638E+03   -0.25883E-03   -0.25884E-03 10962   0.416E-03-0.527E-05
CGA:   9    -0.357787533939E+03   -0.10730E-03   -0.10718E-03 10962   0.162E-03 0.148E-04
CGA:  10    -0.357787580908E+03   -0.46969E-04   -0.46845E-04 10962   0.628E-04 0.453E-05
CGA:  11    -0.357787599945E+03   -0.19038E-04   -0.18841E-04 10962   0.273E-04 0.502E-05
CGA:  12    -0.357787608888E+03   -0.89431E-05   -0.86856E-05 10962   0.150E-04 0.651E-05
  24 F= -.35778761E+03 E0= -.35778761E+03  d E =-.486493E-02  mag=    12.0000
       N       E                     dE             d eps       ncg     rms          ort
SDA:   1    -0.357653658683E+03    0.13394E+00    0.00000E+00 10962   0.351E+00 0.000E+00
CGA:   2    -0.357748659189E+03   -0.95001E-01   -0.94992E-01 10962   0.195E+00 0.611E-03
CGA:   3    -0.357778435905E+03   -0.29777E-01   -0.29790E-01 10962   0.572E-01 0.729E-04
CGA:   4    -0.357787530925E+03   -0.90950E-02   -0.90875E-02 10962   0.122E-01-0.873E-04
CGA:   5    -0.357789582734E+03   -0.20518E-02   -0.20516E-02 10962   0.361E-02-0.461E-05
CGA:   6    -0.357790264436E+03   -0.68170E-03   -0.68421E-03 10962   0.114E-02 0.448E-04
CGA:   7    -0.357790498142E+03   -0.23371E-03   -0.23640E-03 10962   0.410E-03 0.706E-04
CGA:   8    -0.357790597399E+03   -0.99257E-04   -0.99874E-04 10962   0.158E-03 0.566E-04
CGA:   9    -0.357790644692E+03   -0.47293E-04   -0.46867E-04 10962   0.689E-04 0.205E-04
CGA:  10    -0.357790667042E+03   -0.22350E-04   -0.22174E-04 10962   0.297E-04 0.401E-05
CGA:  11    -0.357790676665E+03   -0.96224E-05   -0.97140E-05 10962   0.136E-04-0.140E-05
  25 F= -.35779068E+03 E0= -.35779068E+03  d E =-.306778E-02  mag=    12.0000
       N       E                     dE             d eps       ncg     rms          ort
SDA:   1    -0.357762889793E+03    0.27777E-01    0.00000E+00 10962   0.773E-01 0.000E+00
CGA:   2    -0.357782375198E+03   -0.19485E-01   -0.19486E-01 10962   0.430E-01 0.119E-03
CGA:   3    -0.357788971813E+03   -0.65966E-02   -0.66124E-02 10962   0.129E-01 0.150E-03
CGA:   4    -0.357791069807E+03   -0.20980E-02   -0.21056E-02 10962   0.297E-02 0.848E-04
CGA:   5    -0.357791561285E+03   -0.49148E-03   -0.49163E-03 10962   0.861E-03 0.124E-05
CGA:   6    -0.357791724355E+03   -0.16307E-03   -0.16308E-03 10962   0.288E-03 0.124E-06
CGA:   7    -0.357791776126E+03   -0.51771E-04   -0.53968E-04 10962   0.944E-04 0.426E-04
CGA:   8    -0.357791790683E+03   -0.14557E-04   -0.17735E-04 10962   0.379E-04 0.437E-04
CGA:   9    -0.357791796053E+03   -0.53704E-05   -0.78795E-05 10962   0.192E-04 0.277E-04
  26 F= -.35779180E+03 E0= -.35779180E+03  d E =-.111939E-02  mag=    12.0000
       N       E                     dE             d eps       ncg     rms          ort
SDA:   1    -0.357748086979E+03    0.43704E-01    0.00000E+00 10962   0.116E+00 0.000E+00
CGA:   2    -0.357782376164E+03   -0.34289E-01   -0.34306E-01 10962   0.545E-01-0.285E-03
CGA:   3    -0.357790948814E+03   -0.85727E-02   -0.85800E-02 10962   0.167E-01 0.898E-04
CGA:   4    -0.357793370820E+03   -0.24220E-02   -0.24289E-02 10962   0.305E-02 0.787E-04
CGA:   5    -0.357793900887E+03   -0.53007E-03   -0.52948E-03 10962   0.100E-02-0.113E-04
CGA:   6    -0.357794087991E+03   -0.18710E-03   -0.18617E-03 10962   0.297E-03-0.256E-04
CGA:   7    -0.357794150653E+03   -0.62662E-04   -0.62627E-04 10962   0.122E-03-0.780E-05
CGA:   8    -0.357794181731E+03   -0.31077E-04   -0.30993E-04 10962   0.576E-04 0.212E-05
CGA:   9    -0.357794198084E+03   -0.16353E-04   -0.15991E-04 10962   0.267E-04 0.721E-05
CGA:  10    -0.357794206346E+03   -0.82619E-05   -0.80329E-05 10962   0.112E-04 0.539E-05
  27 F= -.35779421E+03 E0= -.35779421E+03  d E =-.241029E-02  mag=    12.0000
       N       E                     dE             d eps       ncg     rms          ort
SDA:   1    -0.356386999363E+03    0.14072E+01    0.00000E+00 10962   0.348E+01 0.000E+00
CGA:   2    -0.357466248385E+03   -0.10792E+01   -0.10793E+01 10962   0.142E+01-0.920E-03
CGA:   3    -0.357708723353E+03   -0.24247E+00   -0.24249E+00 10962   0.450E+00-0.254E-04
CGA:   4    -0.357772134960E+03   -0.63412E-01   -0.63422E-01 10962   0.814E-01-0.563E-05
CGA:   5    -0.357787369860E+03   -0.15235E-01   -0.15229E-01 10962   0.267E-01-0.149E-03
CGA:   6    -0.357792190834E+03   -0.48210E-02   -0.48124E-02 10962   0.771E-02-0.188E-03
CGA:   7    -0.357793953127E+03   -0.17623E-02   -0.17634E-02 10962   0.331E-02-0.218E-03
CGA:   8    -0.357794812296E+03   -0.85917E-03   -0.86576E-03 10962   0.164E-02-0.152E-03
CGA:   9    -0.357795276594E+03   -0.46430E-03   -0.46820E-03 10962   0.781E-03-0.550E-04
CGA:  10    -0.357795488163E+03   -0.21157E-03   -0.21214E-03 10962   0.282E-03-0.115E-04
CGA:  11    -0.357795569141E+03   -0.80978E-04   -0.80832E-04 10962   0.103E-03 0.257E-05
CGA:  12    -0.357795600672E+03   -0.31531E-04   -0.30688E-04 10962   0.465E-04 0.143E-04
CGA:  13    -0.357795615846E+03   -0.15174E-04   -0.14517E-04 10962   0.241E-04 0.191E-04
CGA:  14    -0.357795623401E+03   -0.75553E-05   -0.77758E-05 10962   0.139E-04 0.176E-04
  28 F= -.35779562E+03 E0= -.35779562E+03  d E =-.141706E-02  mag=    12.0000
       N       E                     dE             d eps       ncg     rms          ort
SDA:   1    -0.357570319561E+03    0.22530E+00    0.00000E+00 10962   0.562E+00 0.000E+00
CGA:   2    -0.357744770254E+03   -0.17445E+00   -0.17441E+00 10962   0.257E+00 0.527E-03
CGA:   3    -0.357785415153E+03   -0.40645E-01   -0.40663E-01 10962   0.831E-01 0.158E-03
CGA:   4    -0.357798188542E+03   -0.12773E-01   -0.12764E-01 10962   0.178E-01-0.127E-03
CGA:   5    -0.357801406848E+03   -0.32183E-02   -0.32128E-02 10962   0.590E-02-0.101E-03
CGA:   6    -0.357802511699E+03   -0.11049E-02   -0.11041E-02 10962   0.188E-02-0.166E-04
CGA:   7    -0.357802932223E+03   -0.42052E-03   -0.42088E-03 10962   0.798E-03 0.469E-04
CGA:   8    -0.357803123266E+03   -0.19104E-03   -0.19091E-03 10962   0.299E-03 0.600E-04
CGA:   9    -0.357803212944E+03   -0.89678E-04   -0.88868E-04 10962   0.132E-03 0.179E-04
CGA:  10    -0.357803254039E+03   -0.41095E-04   -0.41507E-04 10962   0.581E-04-0.648E-05
CGA:  11    -0.357803270431E+03   -0.16392E-04   -0.16500E-04 10962   0.249E-04-0.173E-05
CGA:  12    -0.357803279693E+03   -0.92614E-05   -0.11704E-04 10962   0.296E-04-0.993E-05
CGA:  13    -0.357803277859E+03    0.18333E-05   -0.15206E-04 10962   0.854E-04-0.281E-04
CGA:  14    -0.357803299108E+03   -0.21248E-04   -0.21465E-04 10962   0.187E-04 0.699E-05
CGA:  15    -0.357803305682E+03   -0.65743E-05   -0.64105E-05 10962   0.657E-05 0.446E-05
  29 F= -.35780331E+03 E0= -.35780331E+03  d E =-.768228E-02  mag=    12.0000
       N       E                     dE             d eps       ncg     rms          ort
SDA:   1    -0.357655368054E+03    0.14793E+00    0.00000E+00 10962   0.376E+00 0.000E+00
CGA:   2    -0.357761335253E+03   -0.10597E+00   -0.10597E+00 10962   0.182E+00 0.721E-03
CGA:   3    -0.357790709524E+03   -0.29374E-01   -0.29378E-01 10962   0.574E-01 0.881E-05
CGA:   4    -0.357799453940E+03   -0.87444E-02   -0.87287E-02 10962   0.109E-01-0.136E-03
CGA:   5    -0.357801362664E+03   -0.19087E-02   -0.19064E-02 10962   0.345E-02-0.261E-04
CGA:   6    -0.357801991166E+03   -0.62850E-03   -0.63301E-03 10962   0.103E-02 0.528E-04
CGA:   7    -0.357802204353E+03   -0.21319E-03   -0.21749E-03 10962   0.389E-03 0.756E-04
CGA:   8    -0.357802306040E+03   -0.10169E-03   -0.10247E-03 10962   0.169E-03 0.478E-04
CGA:   9    -0.357802362311E+03   -0.56271E-04   -0.55915E-04 10962   0.886E-04 0.107E-04
CGA:  10    -0.357802391570E+03   -0.29259E-04   -0.29585E-04 10962   0.429E-04-0.630E-05
CGA:  11    -0.357802404741E+03   -0.13171E-04   -0.14358E-04 10962   0.255E-04-0.124E-04
CGA:  12    -0.357802410836E+03   -0.60954E-05   -0.70486E-05 10962   0.172E-04-0.803E-05
CGA:  13    -0.357802400190E+03    0.10646E-04   -0.12928E-04 10962   0.952E-04-0.286E-04
CGA:  14    -0.357802422280E+03   -0.22090E-04   -0.22082E-04 10962   0.126E-04-0.109E-06
CGA:  15    -0.357802425238E+03   -0.29575E-05   -0.31599E-05 10962   0.358E-05 0.329E-05
  30 F= -.35780243E+03 E0= -.35780243E+03  d E =0.880444E-03  mag=    12.0000
       N       E                     dE             d eps       ncg     rms          ort
SDA:   1    -0.357773238568E+03    0.29184E-01    0.00000E+00 10962   0.876E-01 0.000E+00
CGA:   2    -0.357789537131E+03   -0.16299E-01   -0.16319E-01 10962   0.461E-01 0.130E-03
CGA:   3    -0.357797648208E+03   -0.81111E-02   -0.81342E-02 10962   0.160E-01 0.174E-03
CGA:   4    -0.357800270036E+03   -0.26218E-02   -0.26265E-02 10962   0.381E-02 0.316E-04
CGA:   5    -0.357800894121E+03   -0.62408E-03   -0.62373E-03 10962   0.980E-03-0.381E-05
CGA:   6    -0.357801072841E+03   -0.17872E-03   -0.18005E-03 10962   0.296E-03 0.135E-04
CGA:   7    -0.357801129078E+03   -0.56237E-04   -0.58474E-04 10962   0.951E-04 0.276E-04
CGA:   8    -0.357801148657E+03   -0.19580E-04   -0.21194E-04 10962   0.353E-04 0.238E-04
CGA:   9    -0.357801156608E+03   -0.79501E-05   -0.88868E-05 10962   0.151E-04 0.140E-04
  31 F= -.35780116E+03 E0= -.35780116E+03  d E =0.126863E-02  mag=    12.0000
       N       E                     dE             d eps       ncg     rms          ort
SDA:   1    -0.357739822966E+03    0.61326E-01    0.00000E+00 10962   0.151E+00 0.000E+00
CGA:   2    -0.357786317093E+03   -0.46494E-01   -0.46496E-01 10962   0.818E-01-0.597E-04
CGA:   3    -0.357797878206E+03   -0.11561E-01   -0.11582E-01 10962   0.202E-01 0.154E-03
CGA:   4    -0.357801044203E+03   -0.31660E-02   -0.31652E-02 10962   0.437E-02-0.110E-04
CGA:   5    -0.357801782689E+03   -0.73849E-03   -0.73624E-03 10962   0.127E-02-0.271E-04
CGA:   6    -0.357802018134E+03   -0.23544E-03   -0.23473E-03 10962   0.369E-03-0.114E-04
CGA:   7    -0.357802095593E+03   -0.77459E-04   -0.77059E-04 10962   0.132E-03-0.115E-04
CGA:   8    -0.357802129467E+03   -0.33874E-04   -0.34049E-04 10962   0.641E-04-0.772E-05
CGA:   9    -0.357802146247E+03   -0.16780E-04   -0.16771E-04 10962   0.282E-04 0.288E-06
CGA:  10    -0.357802154043E+03   -0.77960E-05   -0.77286E-05 10962   0.109E-04 0.258E-05
  32 F= -.35780215E+03 E0= -.35780215E+03  d E =-.997435E-03  mag=    12.0000
       N       E                     dE             d eps       ncg     rms          ort
SDA:   1    -0.347198968384E+03    0.10603E+02    0.00000E+00 10962   0.295E+02 0.000E+00
CGA:   2    -0.353273439945E+03   -0.60745E+01   -0.60848E+01 10962   0.166E+02 0.755E-01
CGA:   3    -0.356084545970E+03   -0.28111E+01   -0.28118E+01 10962   0.514E+01 0.208E-01
CGA:   4    -0.356925133830E+03   -0.84059E+00   -0.83990E+00 10962   0.130E+01 0.240E-03
CGA:   5    -0.357143193172E+03   -0.21806E+00   -0.21827E+00 10962   0.354E+00 0.138E-02
CGA:   6    -0.357209252881E+03   -0.66060E-01   -0.66155E-01 10962   0.113E+00 0.165E-02
CGA:   7    -0.357234026207E+03   -0.24773E-01   -0.24775E-01 10962   0.437E-01 0.136E-03
CGA:   8    -0.357244974698E+03   -0.10948E-01   -0.10951E-01 10962   0.180E-01-0.135E-03
CGA:   9    -0.357249718147E+03   -0.47434E-02   -0.47420E-02 10962   0.714E-02 0.532E-04
CGA:  10    -0.357251678184E+03   -0.19600E-02   -0.19598E-02 10962   0.259E-02 0.808E-05
CGA:  11    -0.357252388202E+03   -0.71002E-03   -0.70348E-03 10962   0.920E-03 0.195E-03
CGA:  12    -0.357252681637E+03   -0.29343E-03   -0.28686E-03 10962   0.443E-03 0.131E-03
CGA:  13    -0.357252891124E+03   -0.20949E-03   -0.19781E-03 10962   0.365E-03 0.776E-04
CGA:  14    -0.357253081428E+03   -0.19030E-03   -0.17008E-03 10962   0.312E-03 0.136E-03
CGA:  15    -0.357253301965E+03   -0.22054E-03   -0.19704E-03 10962   0.290E-03 0.111E-03
CGA:  16    -0.357253541603E+03   -0.23964E-03   -0.21642E-03 10962   0.324E-03 0.736E-04
CGA:  17    -0.357253793930E+03   -0.25233E-03   -0.22338E-03 10962   0.351E-03 0.908E-04
CGA:  18    -0.357254071460E+03   -0.27753E-03   -0.54550E-03 10962   0.164E-02-0.343E-03
CGA:  19    -0.357254457660E+03   -0.38620E-03   -0.40894E-03 10962   0.323E-03 0.248E-03
CGA:  20    -0.357254629285E+03   -0.17162E-03   -0.22347E-03 10962   0.580E-03-0.197E-03
CGA:  21    -0.357254678232E+03   -0.48947E-04   -0.85595E-04 10962   0.125E-03 0.181E-03
CGA:  22    -0.357254711031E+03   -0.32799E-04   -0.37968E-04 10962   0.838E-04 0.480E-04
CGA:  23    -0.357253959447E+03    0.75158E-03   -0.40511E-03 10962   0.448E-02-0.563E-03
CGA:  24    -0.357254678824E+03   -0.71938E-03   -0.87824E-03 10962   0.748E-03 0.377E-03
CGA:  25    -0.357254975743E+03   -0.29692E-03   -0.26896E-03 10962   0.975E-04-0.109E-03
CGA:  26    -0.357255007675E+03   -0.31932E-04   -0.35062E-04 10962   0.378E-04 0.201E-04
CGA:  27    -0.357255066455E+03   -0.58780E-04    0.95603E-04 10962   0.449E-04 0.135E-04
CGA:  28    -0.357255126735E+03   -0.60280E-04   -0.57839E-04 10962   0.118E-03 0.565E-05
CGA:  29    -0.357253617312E+03    0.15094E-02   -0.79182E-03 10962   0.651E-02-0.651E-03
CGA:  30    -0.357254643910E+03   -0.10266E-02   -0.12606E-02 10962   0.138E-02 0.262E-03
CGA:  31    -0.357255373667E+03   -0.72976E-03   -0.74403E-03 10962   0.700E-03 0.291E-04
CGA:  32    -0.357255853955E+03   -0.48029E-03   -0.48054E-03 10962   0.514E-03 0.240E-05
CGA:  33    -0.357255926862E+03   -0.72907E-04   -0.11938E-03 10962   0.151E-03 0.621E-04
CGA:  34    -0.357256030016E+03   -0.10315E-03   -0.94528E-04 10962   0.114E-03-0.219E-04
CGA:  35    -0.357256106783E+03   -0.76766E-04   -0.58691E-04 10962   0.211E-03-0.551E-04
CGA:  36    -0.357256126600E+03   -0.19817E-04   -0.24282E-04 10962   0.150E-03 0.639E-05
CGA:  37    -0.357256137879E+03   -0.11279E-04   -0.29170E-04 10962   0.955E-04 0.256E-04
CGA:  38    -0.357256166455E+03   -0.28576E-04   -0.35301E-04 10962   0.895E-04 0.120E-04
CGA:  39    -0.357256204129E+03   -0.37674E-04   -0.31818E-04 10962   0.105E-03-0.132E-04
CGA:  40    -0.357256227561E+03   -0.23432E-04   -0.32076E-04 10962   0.178E-03 0.161E-04
CGA:  41    -0.357256256672E+03   -0.29111E-04   -0.62302E-04 10962   0.190E-03 0.585E-04
CGA:  42    -0.357256366392E+03   -0.10972E-03   -0.12876E-03 10962   0.339E-03 0.587E-04
CGA:  43    -0.357256576558E+03   -0.21017E-03   -0.19010E-03 10962   0.392E-03-0.101E-03
CGA:  44    -0.357256691283E+03   -0.11472E-03   -0.81931E-04 10962   0.487E-03-0.959E-04
CGA:  45    -0.357256787731E+03   -0.96449E-04   -0.78869E-04 10962   0.422E-03-0.793E-04
CGA:  46    -0.357256909183E+03   -0.12145E-03   -0.92647E-04 10962   0.418E-03-0.835E-04
CGA:  47    -0.357257056602E+03   -0.14742E-03   -0.98854E-04 10962   0.369E-03-0.159E-03
CGA:  48    -0.357257194402E+03   -0.13780E-03   -0.97514E-04 10962   0.637E-03-0.249E-03
CGA:  49    -0.357257329148E+03   -0.13475E-03   -0.16763E-03 10962   0.231E-03 0.909E-04
CGA:  50    -0.357257457967E+03   -0.12882E-03   -0.12900E-03 10962   0.109E-03 0.188E-05
CGA:  51    -0.357257513922E+03   -0.55955E-04   -0.57899E-04 10962   0.837E-04 0.262E-04
CGA:  52    -0.357257562262E+03   -0.48340E-04   -0.51746E-04 10962   0.430E-04 0.347E-04
CGA:  53    -0.357257602645E+03   -0.40383E-04   -0.68828E-04 10962   0.203E-03-0.523E-04
CGA:  54    -0.357257627475E+03   -0.24830E-04   -0.40141E-04 10962   0.373E-04 0.362E-04
CGA:  55    -0.357257590996E+03    0.36479E-04   -0.67773E-04 10962   0.400E-03-0.110E-03
CGA:  56    -0.357257717364E+03   -0.12637E-03   -0.13185E-03 10962   0.336E-04 0.174E-04
CGA:  57    -0.357257727082E+03   -0.97186E-05   -0.12257E-04 10962   0.911E-05 0.907E-05
CGA:  58    -0.357257567956E+03    0.15913E-03   -0.85685E-04 10962   0.630E-03-0.603E-04
CGA:  59    -0.357257705900E+03   -0.13794E-03   -0.17816E-03 10962   0.148E-03 0.478E-04
CGA:  60    -0.357257805122E+03   -0.99222E-04   -0.64569E-04 10962   0.525E-04-0.512E-04
CGA:  61    -0.357257804939E+03    0.18316E-06   -0.72228E-05 10962   0.149E-04 0.885E-05
  33 F= -.35725780E+03 E0= -.35725780E+03  d E =0.544349E+00  mag=    12.0000
       N       E                     dE             d eps       ncg     rms          ort
SDA:   1    -0.354593716891E+03    0.26641E+01    0.00000E+00 10962   0.745E+01 0.000E+00
CGA:   2    -0.356990558780E+03   -0.23968E+01   -0.24015E+01 10962   0.256E+01 0.133E-01
CGA:   3    -0.357510777341E+03   -0.52022E+00   -0.52029E+00 10962   0.994E+00 0.124E-01
CGA:   4    -0.357657594252E+03   -0.14682E+00   -0.14717E+00 10962   0.234E+00 0.398E-02
CGA:   5    -0.357706274146E+03   -0.48680E-01   -0.48619E-01 10962   0.825E-01-0.680E-04
CGA:   6    -0.357721766693E+03   -0.15493E-01   -0.15453E-01 10962   0.314E-01 0.185E-05
CGA:   7    -0.357729720916E+03   -0.79542E-02   -0.79595E-02 10962   0.140E-01 0.145E-04
CGA:   8    -0.357732963510E+03   -0.32426E-02   -0.32494E-02 10962   0.536E-02 0.110E-04
CGA:   9    -0.357734415359E+03   -0.14518E-02   -0.14537E-02 10962   0.196E-02 0.416E-05
CGA:  10    -0.357734922943E+03   -0.50758E-03   -0.51394E-03 10962   0.670E-03 0.139E-04
CGA:  11    -0.357735112297E+03   -0.18935E-03   -0.19197E-03 10962   0.256E-03 0.632E-05
CGA:  12    -0.357735200709E+03   -0.88413E-04   -0.90248E-04 10962   0.152E-03 0.557E-05
CGA:  13    -0.357735257062E+03   -0.56352E-04   -0.61687E-04 10962   0.119E-03 0.203E-04
CGA:  14    -0.357735308008E+03   -0.50946E-04   -0.58154E-04 10962   0.954E-04 0.338E-04
CGA:  15    -0.357735345417E+03   -0.37409E-04   -0.47924E-04 10962   0.676E-04 0.432E-04
CGA:  16    -0.357735368897E+03   -0.23480E-04   -0.35034E-04 10962   0.426E-04 0.434E-04
CGA:  17    -0.357735380802E+03   -0.11905E-04   -0.15074E-04 10962   0.210E-04 0.124E-04
CGA:  18    -0.357735384873E+03   -0.40718E-05   -0.91451E-05 10962   0.177E-04 0.195E-04
  34 F= -.35773538E+03 E0= -.35773538E+03  d E =-.477580E+00  mag=    12.0000
       N       E                     dE             d eps       ncg     rms          ort
SDA:   1    -0.357666742706E+03    0.68638E-01    0.00000E+00 10962   0.237E+00 0.000E+00
CGA:   2    -0.357732438659E+03   -0.65696E-01   -0.65721E-01 10962   0.123E+00-0.358E-04
CGA:   3    -0.357751261051E+03   -0.18822E-01   -0.18867E-01 10962   0.385E-01 0.146E-03
CGA:   4    -0.357757741320E+03   -0.64803E-02   -0.65325E-02 10962   0.960E-02 0.133E-03
CGA:   5    -0.357759388468E+03   -0.16471E-02   -0.16577E-02 10962   0.292E-02 0.270E-04
CGA:   6    -0.357759954114E+03   -0.56565E-03   -0.56870E-03 10962   0.103E-02 0.948E-05
CGA:   7    -0.357760168754E+03   -0.21464E-03   -0.22929E-03 10962   0.424E-03 0.550E-04
CGA:   8    -0.357760254528E+03   -0.85774E-04   -0.10170E-03 10962   0.162E-03 0.643E-04
CGA:   9    -0.357760295027E+03   -0.40499E-04   -0.47159E-04 10962   0.730E-04 0.316E-04
CGA:  10    -0.357760317892E+03   -0.22865E-04   -0.24912E-04 10962   0.396E-04 0.122E-04
CGA:  11    -0.357760331756E+03   -0.13864E-04   -0.14978E-04 10962   0.282E-04 0.918E-05
CGA:  12    -0.357760348117E+03   -0.16361E-04   -0.16214E-04 10962   0.382E-04 0.511E-05
CGA:  13    -0.357760376755E+03   -0.28637E-04   -0.27176E-04 10962   0.660E-04 0.859E-05
CGA:  14    -0.357760415138E+03   -0.38384E-04   -0.37841E-04 10962   0.748E-04 0.263E-04
CGA:  15    -0.357760450241E+03   -0.35102E-04   -0.38687E-04 10962   0.559E-04 0.443E-04
CGA:  16    -0.357760463707E+03   -0.13467E-04   -0.16426E-04 10962   0.227E-04 0.195E-04
CGA:  17    -0.357760472839E+03   -0.91323E-05   -0.10625E-04 10962   0.157E-04 0.164E-04
  35 F= -.35776047E+03 E0= -.35776047E+03  d E =-.250880E-01  mag=    12.0000
       N       E                     dE             d eps       ncg     rms          ort
SDA:   1    -0.357514596551E+03    0.24587E+00    0.00000E+00 10962   0.734E+00 0.000E+00
CGA:   2    -0.357689847843E+03   -0.17525E+00   -0.17532E+00 10962   0.422E+00-0.969E-04
CGA:   3    -0.357755375677E+03   -0.65528E-01   -0.65562E-01 10962   0.122E+00 0.305E-03
CGA:   4    -0.357775891403E+03   -0.20516E-01   -0.20590E-01 10962   0.315E-01 0.290E-03
CGA:   5    -0.357781110460E+03   -0.52191E-02   -0.52482E-02 10962   0.840E-02 0.114E-03
CGA:   6    -0.357782704216E+03   -0.15938E-02   -0.16010E-02 10962   0.281E-02 0.354E-04
CGA:   7    -0.357783290868E+03   -0.58665E-03   -0.60494E-03 10962   0.107E-02 0.112E-03
CGA:   8    -0.357783525030E+03   -0.23416E-03   -0.25387E-03 10962   0.404E-03 0.140E-03
CGA:   9    -0.357783629210E+03   -0.10418E-03   -0.11224E-03 10962   0.160E-03 0.689E-04
CGA:  10    -0.357783681954E+03   -0.52745E-04   -0.53554E-04 10962   0.744E-04 0.116E-04
CGA:  11    -0.357783708274E+03   -0.26320E-04   -0.26241E-04 10962   0.421E-04-0.325E-05
CGA:  12    -0.357783715016E+03   -0.67411E-05   -0.34534E-04 10962   0.190E-03-0.551E-04
CGA:  13    -0.357783755835E+03   -0.40819E-04   -0.41432E-04 10962   0.383E-04 0.379E-05
CGA:  14    -0.357783775533E+03   -0.19699E-04   -0.24003E-04 10962   0.615E-04-0.176E-04
CGA:  15    -0.357783783457E+03   -0.79234E-05   -0.89662E-05 10962   0.499E-04 0.931E-05
CGA:  16    -0.357783801836E+03   -0.18380E-04   -0.18429E-04 10962   0.407E-04 0.800E-06
CGA:  17    -0.357783835257E+03   -0.33421E-04    0.92317E-04 10962   0.403E-04 0.946E-05
CGA:  18    -0.357783864446E+03   -0.29189E-04   -0.31864E-04 10962   0.102E-03-0.103E-04
CGA:  19    -0.357783898843E+03   -0.34397E-04   -0.34650E-04 10962   0.210E-03-0.469E-05
CGA:  20    -0.357783981012E+03   -0.82169E-04   -0.83052E-04 10962   0.277E-03-0.431E-04
CGA:  21    -0.357784056456E+03   -0.75444E-04   -0.72734E-04 10962   0.308E-03-0.490E-04
CGA:  22    -0.357784121213E+03   -0.64757E-04   -0.56444E-04 10962   0.169E-03-0.481E-04
CGA:  23    -0.357784165767E+03   -0.44554E-04   -0.34997E-04 10962   0.826E-04-0.745E-04
CGA:  24    -0.357784169785E+03   -0.40175E-05   -0.26151E-04 10962   0.144E-03-0.121E-03
CGA:  25    -0.357784184222E+03   -0.14437E-04   -0.27287E-04 10962   0.427E-04 0.666E-04
CGA:  26    -0.357784188169E+03   -0.39469E-05   -0.10597E-04 10962   0.220E-04 0.327E-04
  36 F= -.35778419E+03 E0= -.35778419E+03  d E =-.237153E-01  mag=    12.0000
       N       E                     dE             d eps       ncg     rms          ort
SDA:   1    -0.357747898101E+03    0.36286E-01    0.00000E+00 10962   0.131E+00 0.000E+00
CGA:   2    -0.357773908307E+03   -0.26010E-01   -0.26005E-01 10962   0.721E-01-0.927E-04
CGA:   3    -0.357786075363E+03   -0.12167E-01   -0.12157E-01 10962   0.227E-01-0.690E-04
CGA:   4    -0.357789747803E+03   -0.36724E-02   -0.36912E-02 10962   0.563E-02 0.992E-04
CGA:   5    -0.357790650364E+03   -0.90256E-03   -0.91602E-03 10962   0.140E-02 0.771E-04
CGA:   6    -0.357790903305E+03   -0.25294E-03   -0.25741E-03 10962   0.421E-03 0.307E-04
CGA:   7    -0.357790983141E+03   -0.79835E-04   -0.85027E-04 10962   0.144E-03 0.432E-04
CGA:   8    -0.357791007980E+03   -0.24840E-04   -0.30619E-04 10962   0.588E-04 0.487E-04
CGA:   9    -0.357791017090E+03   -0.91096E-05   -0.13837E-04 10962   0.310E-04 0.363E-04
  37 F= -.35779102E+03 E0= -.35779102E+03  d E =-.682892E-02  mag=    12.0000
       N       E                     dE             d eps       ncg     rms          ort
SDA:   1    -0.357662983633E+03    0.12802E+00    0.00000E+00 10962   0.439E+00 0.000E+00
CGA:   2    -0.357743312671E+03   -0.80329E-01   -0.80335E-01 10962   0.227E+00-0.226E-03
CGA:   3    -0.357783118964E+03   -0.39806E-01   -0.39773E-01 10962   0.772E-01-0.350E-03
CGA:   4    -0.357795631899E+03   -0.12513E-01   -0.12525E-01 10962   0.191E-01 0.782E-04
CGA:   5    -0.357798660857E+03   -0.30290E-02   -0.30488E-02 10962   0.470E-02 0.162E-03
CGA:   6    -0.357799501670E+03   -0.84081E-03   -0.84751E-03 10962   0.134E-02 0.704E-04
CGA:   7    -0.357799780164E+03   -0.27849E-03   -0.28089E-03 10962   0.458E-03 0.382E-04
CGA:   8    -0.357799889580E+03   -0.10942E-03   -0.11070E-03 10962   0.191E-03 0.430E-04
CGA:   9    -0.357799940198E+03   -0.50618E-04   -0.51294E-04 10962   0.835E-04 0.389E-04
CGA:  10    -0.357799964445E+03   -0.24247E-04   -0.24736E-04 10962   0.414E-04 0.297E-04
CGA:  11    -0.357799976183E+03   -0.11738E-04   -0.12626E-04 10962   0.229E-04 0.242E-04
CGA:  12    -0.357799982312E+03   -0.61299E-05   -0.60755E-05 10962   0.131E-04 0.101E-04
  38 F= -.35779998E+03 E0= -.35779998E+03  d E =-.896522E-02  mag=    12.0000
       N       E                     dE             d eps       ncg     rms          ort
SDA:   1    -0.357716532169E+03    0.83444E-01    0.00000E+00 10962   0.303E+00 0.000E+00
CGA:   2    -0.357768092215E+03   -0.51560E-01   -0.51546E-01 10962   0.142E+00-0.336E-03
CGA:   3    -0.357793874750E+03   -0.25783E-01   -0.25753E-01 10962   0.537E-01-0.453E-03
CGA:   4    -0.357802697164E+03   -0.88224E-02   -0.88250E-02 10962   0.130E-01 0.127E-04
CGA:   5    -0.357804739380E+03   -0.20422E-02   -0.20561E-02 10962   0.309E-02 0.151E-03
CGA:   6    -0.357805289778E+03   -0.55040E-03   -0.55549E-03 10962   0.870E-03 0.771E-04
CGA:   7    -0.357805473984E+03   -0.18421E-03   -0.18473E-03 10962   0.296E-03 0.158E-04
CGA:   8    -0.357805550805E+03   -0.76821E-04   -0.76761E-04 10962   0.141E-03 0.348E-05
CGA:   9    -0.357805589042E+03   -0.38236E-04   -0.37825E-04 10962   0.665E-04 0.157E-04
CGA:  10    -0.357805606794E+03   -0.17752E-04   -0.17760E-04 10962   0.316E-04 0.234E-04
CGA:  11    -0.357805614361E+03   -0.75672E-05   -0.84701E-05 10962   0.177E-04 0.214E-04
  39 F= -.35780561E+03 E0= -.35780561E+03  d E =-.563205E-02  mag=    12.0000
       N       E                     dE             d eps       ncg     rms          ort
SDA:   1    -0.357465052759E+03    0.34055E+00    0.00000E+00 10962   0.123E+01 0.000E+00
CGA:   2    -0.357664264407E+03   -0.19921E+00   -0.19930E+00 10962   0.541E+00-0.325E-03
CGA:   3    -0.357765447118E+03   -0.10118E+00   -0.10116E+00 10962   0.220E+00-0.663E-03
CGA:   4    -0.357802056251E+03   -0.36609E-01   -0.36616E-01 10962   0.530E-01 0.551E-04
CGA:   5    -0.357810279962E+03   -0.82237E-02   -0.82498E-02 10962   0.122E-01 0.345E-03
CGA:   6    -0.357812476275E+03   -0.21963E-02   -0.22046E-02 10962   0.349E-02 0.180E-03
CGA:   7    -0.357813208078E+03   -0.73180E-03   -0.73173E-03 10962   0.115E-02-0.586E-05
CGA:   8    -0.357813502173E+03   -0.29409E-03   -0.29583E-03 10962   0.539E-03-0.482E-04
CGA:   9    -0.357813646486E+03   -0.14431E-03   -0.14487E-03 10962   0.254E-03-0.100E-04
CGA:  10    -0.357813717014E+03   -0.70528E-04   -0.69289E-04 10962   0.109E-03 0.238E-04
CGA:  11    -0.357813748137E+03   -0.31124E-04   -0.30360E-04 10962   0.439E-04 0.284E-04
CGA:  12    -0.357813762655E+03   -0.14518E-04   -0.14102E-04 10962   0.221E-04 0.167E-04
CGA:  13    -0.357813772240E+03   -0.95846E-05   -0.88536E-05 10962   0.165E-04 0.121E-04
  40 F= -.35781377E+03 E0= -.35781377E+03  d E =-.815788E-02  mag=    12.0000
       N       E                     dE             d eps       ncg     rms          ort
SDA:   1    -0.357721710086E+03    0.92053E-01    0.00000E+00 10962   0.279E+00 0.000E+00
CGA:   2    -0.357779741316E+03   -0.58031E-01   -0.58017E-01 10962   0.151E+00-0.596E-03
CGA:   3    -0.357805556023E+03   -0.25815E-01   -0.25801E-01 10962   0.531E-01-0.242E-03
CGA:   4    -0.357814167586E+03   -0.86116E-02   -0.86294E-02 10962   0.117E-01 0.240E-03
CGA:   5    -0.357816034242E+03   -0.18667E-02   -0.18784E-02 10962   0.302E-02 0.165E-03
CGA:   6    -0.357816613266E+03   -0.57902E-03   -0.58083E-03 10962   0.952E-03 0.495E-04
CGA:   7    -0.357816822124E+03   -0.20886E-03   -0.20895E-03 10962   0.371E-03 0.109E-04
CGA:   8    -0.357816916895E+03   -0.94771E-04   -0.94290E-04 10962   0.162E-03 0.174E-04
CGA:   9    -0.357816961438E+03   -0.44543E-04   -0.43879E-04 10962   0.703E-04 0.202E-04
CGA:  10    -0.357816984509E+03   -0.23071E-04   -0.22430E-04 10962   0.338E-04 0.112E-04
CGA:  11    -0.357816998560E+03   -0.14051E-04   -0.13708E-04 10962   0.236E-04 0.277E-05
CGA:  12    -0.357817009539E+03   -0.10979E-04   -0.10705E-04 10962   0.230E-04 0.137E-05
CGA:  13    -0.357817022005E+03   -0.12466E-04   -0.11439E-04 10962   0.249E-04 0.427E-05
CGA:  14    -0.357817036182E+03   -0.14178E-04   -0.12495E-04 10962   0.227E-04 0.959E-05
CGA:  15    -0.357817048109E+03   -0.11927E-04   -0.10696E-04 10962   0.168E-04 0.156E-04
CGA:  16    -0.357817052410E+03   -0.43012E-05   -0.43711E-05 10962   0.795E-05 0.845E-05
  41 F= -.35781705E+03 E0= -.35781705E+03  d E =-.328017E-02  mag=    12.0000
       N       E                     dE             d eps       ncg     rms          ort
SDA:   1    -0.357788055469E+03    0.28993E-01    0.00000E+00 10962   0.955E-01 0.000E+00
CGA:   2    -0.357804659396E+03   -0.16604E-01   -0.16633E-01 10962   0.462E-01 0.270E-03
CGA:   3    -0.357813072024E+03   -0.84126E-02   -0.84256E-02 10962   0.177E-01 0.141E-03
CGA:   4    -0.357816052493E+03   -0.29805E-02   -0.29737E-02 10962   0.436E-02-0.779E-04
CGA:   5    -0.357816755825E+03   -0.70333E-03   -0.69830E-03 10962   0.109E-02-0.539E-04
CGA:   6    -0.357816957823E+03   -0.20200E-03   -0.20123E-03 10962   0.339E-03-0.120E-04
CGA:   7    -0.357817026962E+03   -0.69138E-04   -0.69309E-04 10962   0.118E-03 0.413E-05
CGA:   8    -0.357817054081E+03   -0.27119E-04   -0.27315E-04 10962   0.454E-04 0.121E-04
CGA:   9    -0.357817065840E+03   -0.11760E-04   -0.11842E-04 10962   0.186E-04 0.977E-05
CGA:  10    -0.357817070977E+03   -0.51366E-05   -0.52355E-05 10962   0.872E-05 0.733E-05
  42 F= -.35781707E+03 E0= -.35781707E+03  d E =-.185666E-04  mag=    12.0000
       N       E                     dE             d eps       ncg     rms          ort
SDA:   1    -0.357813593551E+03    0.34723E-02    0.00000E+00 10962   0.133E-01 0.000E+00
CGA:   2    -0.357816494848E+03   -0.29013E-02   -0.28966E-02 10962   0.713E-02-0.203E-03
CGA:   3    -0.357817679672E+03   -0.11848E-02   -0.11803E-02 10962   0.251E-02-0.641E-04
CGA:   4    -0.357818060377E+03   -0.38071E-03   -0.38587E-03 10962   0.496E-03 0.631E-04
CGA:   5    -0.357818134779E+03   -0.74402E-04   -0.77450E-04 10962   0.122E-03 0.381E-04
CGA:   6    -0.357818158289E+03   -0.23511E-04   -0.23985E-04 10962   0.365E-04 0.102E-04
CGA:   7    -0.357818166916E+03   -0.86268E-05   -0.86420E-05 10962   0.153E-04 0.200E-05
  43 F= -.35781817E+03 E0= -.35781817E+03  d E =-.109594E-02  mag=    12.0000
       N       E                     dE             d eps       ncg     rms          ort
SDA:   1    -0.357685195571E+03    0.13296E+00    0.00000E+00 10962   0.442E+00 0.000E+00
CGA:   2    -0.357769480907E+03   -0.84285E-01   -0.84261E-01 10962   0.212E+00-0.910E-03
CGA:   3    -0.357806323995E+03   -0.36843E-01   -0.36819E-01 10962   0.804E-01-0.536E-03
CGA:   4    -0.357819399629E+03   -0.13076E-01   -0.13093E-01 10962   0.176E-01 0.274E-03
CGA:   5    -0.357822145744E+03   -0.27461E-02   -0.27622E-02 10962   0.435E-02 0.260E-03
CGA:   6    -0.357822962824E+03   -0.81708E-03   -0.81946E-03 10962   0.129E-02 0.814E-04
CGA:   7    -0.357823246603E+03   -0.28378E-03   -0.28381E-03 10962   0.491E-03-0.928E-05
CGA:   8    -0.357823376983E+03   -0.13038E-03   -0.13058E-03 10962   0.247E-03-0.396E-05
CGA:   9    -0.357823443602E+03   -0.66619E-04   -0.65660E-04 10962   0.109E-03 0.183E-04
CGA:  10    -0.357823476363E+03   -0.32761E-04   -0.31923E-04 10962   0.437E-04 0.154E-04
CGA:  11    -0.357823491245E+03   -0.14882E-04   -0.14591E-04 10962   0.181E-04 0.405E-05
CGA:  12    -0.357823498315E+03   -0.70700E-05   -0.74667E-05 10962   0.116E-04-0.262E-05
  44 F= -.35782350E+03 E0= -.35782350E+03  d E =-.533140E-02  mag=    12.0000
       N       E                     dE             d eps       ncg     rms          ort
SDA:   1    -0.357751436452E+03    0.72055E-01    0.00000E+00 10962   0.229E+00 0.000E+00
CGA:   2    -0.357800206438E+03   -0.48770E-01   -0.48751E-01 10962   0.113E+00-0.749E-03
CGA:   3    -0.357819125652E+03   -0.18919E-01   -0.18916E-01 10962   0.404E-01-0.716E-04
CGA:   4    -0.357825572414E+03   -0.64468E-02   -0.64699E-02 10962   0.842E-02 0.292E-03
CGA:   5    -0.357826918831E+03   -0.13464E-02   -0.13570E-02 10962   0.222E-02 0.142E-03
CGA:   6    -0.357827346238E+03   -0.42741E-03   -0.42826E-03 10962   0.687E-03 0.212E-04
CGA:   7    -0.357827499666E+03   -0.15343E-03   -0.15331E-03 10962   0.288E-03-0.179E-04
CGA:   8    -0.357827571851E+03   -0.72185E-04   -0.71931E-04 10962   0.131E-03 0.880E-05
CGA:   9    -0.357827606175E+03   -0.34324E-04   -0.33879E-04 10962   0.545E-04 0.204E-04
CGA:  10    -0.357827623108E+03   -0.16934E-04   -0.16564E-04 10962   0.219E-04 0.111E-04
CGA:  11    -0.357827630646E+03   -0.75378E-05   -0.73403E-05 10962   0.983E-05 0.422E-05
  45 F= -.35782763E+03 E0= -.35782763E+03  d E =-.413233E-02  mag=    12.0000
       N       E                     dE             d eps       ncg     rms          ort
SDA:   1    -0.357773131657E+03    0.54491E-01    0.00000E+00 10962   0.175E+00 0.000E+00
CGA:   2    -0.357810521214E+03   -0.37390E-01   -0.37371E-01 10962   0.891E-01-0.772E-03
CGA:   3    -0.357825349967E+03   -0.14829E-01   -0.14831E-01 10962   0.312E-01 0.480E-05
CGA:   4    -0.357830302549E+03   -0.49526E-02   -0.49739E-02 10962   0.650E-02 0.275E-03
CGA:   5    -0.357831333601E+03   -0.10311E-02   -0.10399E-02 10962   0.169E-02 0.120E-03
CGA:   6    -0.357831661420E+03   -0.32782E-03   -0.32831E-03 10962   0.537E-03 0.129E-04
CGA:   7    -0.357831781801E+03   -0.12038E-03   -0.12030E-03 10962   0.225E-03-0.209E-04
CGA:   8    -0.357831836174E+03   -0.54373E-04   -0.54133E-04 10962   0.996E-04 0.964E-05
CGA:   9    -0.357831861632E+03   -0.25459E-04   -0.25166E-04 10962   0.401E-04 0.191E-04
CGA:  10    -0.357831874366E+03   -0.12734E-04   -0.12432E-04 10962   0.169E-04 0.927E-05
CGA:  11    -0.357831880538E+03   -0.61720E-05   -0.59979E-05 10962   0.826E-05 0.297E-05
  46 F= -.35783188E+03 E0= -.35783188E+03  d E =-.424989E-02  mag=    12.0000
       N       E                     dE             d eps       ncg     rms          ort
SDA:   1    -0.357691414217E+03    0.14046E+00    0.00000E+00 10962   0.436E+00 0.000E+00
CGA:   2    -0.357795383267E+03   -0.10397E+00   -0.10396E+00 10962   0.167E+00-0.192E-02
CGA:   3    -0.357827054646E+03   -0.31671E-01   -0.31684E-01 10962   0.674E-01 0.218E-03
CGA:   4    -0.357836545885E+03   -0.94912E-02   -0.95320E-02 10962   0.115E-01 0.398E-03
CGA:   5    -0.357838622689E+03   -0.20768E-02   -0.20844E-02 10962   0.356E-02 0.141E-03
CGA:   6    -0.357839283240E+03   -0.66055E-03   -0.66102E-03 10962   0.108E-02 0.930E-05
CGA:   7    -0.357839545656E+03   -0.26242E-03   -0.26275E-03 10962   0.548E-03-0.241E-04
CGA:   8    -0.357839693076E+03   -0.14742E-03   -0.14748E-03 10962   0.287E-03-0.162E-05
CGA:   9    -0.357839775517E+03   -0.82441E-04   -0.81454E-04 10962   0.129E-03 0.188E-04
CGA:  10    -0.357839813218E+03   -0.37701E-04   -0.37365E-04 10962   0.445E-04 0.889E-05
CGA:  11    -0.357839828291E+03   -0.15074E-04   -0.15379E-04 10962   0.197E-04-0.354E-05
CGA:  12    -0.357839833324E+03   -0.50330E-05   -0.10952E-04 10962   0.368E-04-0.164E-04
  47 F= -.35783983E+03 E0= -.35783983E+03  d E =-.795279E-02  mag=    12.0000
       N       E                     dE             d eps       ncg     rms          ort
SDA:   1    -0.349701613173E+03    0.81382E+01    0.00000E+00 10962   0.244E+02 0.000E+00
CGA:   2    -0.355484149513E+03   -0.57825E+01   -0.57858E+01 10962   0.866E+01 0.468E-01
CGA:   3    -0.357221869127E+03   -0.17377E+01   -0.17378E+01 10962   0.350E+01 0.105E-02
CGA:   4    -0.357710543627E+03   -0.48867E+00   -0.48919E+00 10962   0.624E+00 0.293E-02
CGA:   5    -0.357826463653E+03   -0.11592E+00   -0.11595E+00 10962   0.192E+00 0.334E-03
CGA:   6    -0.357861859793E+03   -0.35396E-01   -0.35394E-01 10962   0.586E-01-0.617E-04
CGA:   7    -0.357876114581E+03   -0.14255E-01   -0.14256E-01 10962   0.289E-01-0.517E-03
CGA:   8    -0.357884166136E+03   -0.80516E-02   -0.80783E-02 10962   0.154E-01-0.663E-03
CGA:   9    -0.357888779420E+03   -0.46133E-02   -0.46371E-02 10962   0.750E-02-0.367E-03
CGA:  10    -0.357890812513E+03   -0.20331E-02   -0.20371E-02 10962   0.255E-02-0.126E-03
CGA:  11    -0.357891547965E+03   -0.73545E-03   -0.73968E-03 10962   0.881E-03-0.895E-04
CGA:  12    -0.357891834150E+03   -0.28618E-03   -0.29344E-03 10962   0.413E-03-0.767E-04
CGA:  13    -0.357891972483E+03   -0.13833E-03   -0.14088E-03 10962   0.201E-03-0.217E-04
CGA:  14    -0.357892043358E+03   -0.70875E-04   -0.71059E-04 10962   0.853E-04-0.187E-05
CGA:  15    -0.357892078619E+03   -0.35261E-04   -0.49006E-04 10962   0.950E-04-0.441E-04
CGA:  16    -0.357892109761E+03   -0.31143E-04   -0.31825E-04 10962   0.310E-04-0.130E-04
CGA:  17    -0.357892130307E+03   -0.20546E-04    0.11059E-04 10962   0.162E-04 0.117E-04
CGA:  18    -0.357892145240E+03   -0.14933E-04    0.18038E-04 10962   0.120E-04 0.123E-04
CGA:  19    -0.357892152742E+03   -0.75021E-05    0.16924E-04 10962   0.846E-05 0.788E-05
  48 F= -.35789215E+03 E0= -.35789215E+03  d E =-.523194E-01  mag=    12.0000
       N       E                     dE             d eps       ncg     rms          ort
SDA:   1    -0.351712719066E+03    0.61794E+01    0.00000E+00 10962   0.182E+02 0.000E+00
CGA:   2    -0.356131466044E+03   -0.44187E+01   -0.44224E+01 10962   0.638E+01 0.868E-02
CGA:   3    -0.357432983209E+03   -0.13015E+01   -0.13017E+01 10962   0.254E+01 0.359E-02
CGA:   4    -0.357783117327E+03   -0.35013E+00   -0.35080E+00 10962   0.459E+00 0.308E-02
CGA:   5    -0.357870458610E+03   -0.87341E-01   -0.87380E-01 10962   0.144E+00 0.451E-03
CGA:   6    -0.357896599311E+03   -0.26141E-01   -0.26142E-01 10962   0.451E-01-0.565E-06
CGA:   7    -0.357907760124E+03   -0.11161E-01   -0.11156E-01 10962   0.221E-01-0.304E-03
CGA:   8    -0.357913789455E+03   -0.60293E-02   -0.60336E-02 10962   0.113E-01-0.342E-03
CGA:   9    -0.357917156588E+03   -0.33671E-02   -0.33712E-02 10962   0.522E-02-0.104E-03
CGA:  10    -0.357918574245E+03   -0.14177E-02   -0.14176E-02 10962   0.176E-02 0.371E-05
CGA:  11    -0.357919098688E+03   -0.52444E-03   -0.52590E-03 10962   0.638E-03-0.442E-04
CGA:  12    -0.357919310974E+03   -0.21229E-03   -0.21617E-03 10962   0.308E-03-0.484E-04
CGA:  13    -0.357919416095E+03   -0.10512E-03   -0.10611E-03 10962   0.151E-03-0.987E-05
CGA:  14    -0.357919465772E+03   -0.49677E-04   -0.48741E-04 10962   0.587E-04 0.161E-04
CGA:  15    -0.357919488443E+03   -0.22671E-04   -0.22116E-04 10962   0.274E-04 0.902E-05
CGA:  16    -0.357919503206E+03   -0.14763E-04   -0.14211E-04 10962   0.223E-04 0.319E-05
CGA:  17    -0.357919520458E+03   -0.17252E-04   -0.17061E-04 10962   0.329E-04 0.282E-06
CGA:  18    -0.357919541593E+03   -0.21135E-04   -0.20145E-04 10962   0.362E-04 0.286E-05
CGA:  19    -0.357919561442E+03   -0.19848E-04   -0.19256E-04 10962   0.260E-04 0.304E-05
CGA:  20    -0.357919575989E+03   -0.14547E-04   -0.14685E-04 10962   0.193E-04-0.120E-05
CGA:  21    -0.357919579824E+03   -0.38351E-05   -0.19460E-04 10962   0.648E-04-0.225E-04
CGA:  22    -0.357919594905E+03   -0.15081E-04   -0.16122E-04 10962   0.199E-04 0.803E-05
CGA:  23    -0.357919603503E+03   -0.85978E-05   -0.14264E-04 10962   0.540E-04-0.214E-04
  49 F= -.35791960E+03 E0= -.35791960E+03  d E =-.274508E-01  mag=    12.0000
       N       E                     dE             d eps       ncg     rms          ort
SDA:   1    -0.351344379780E+03    0.65752E+01    0.00000E+00 10962   0.195E+02 0.000E+00
CGA:   2    -0.355918267860E+03   -0.45739E+01   -0.45915E+01 10962   0.717E+01 0.154E-01
CGA:   3    -0.357316298254E+03   -0.13980E+01   -0.13986E+01 10962   0.295E+01 0.297E-02
CGA:   4    -0.357739374433E+03   -0.42308E+00   -0.42282E+00 10962   0.522E+00 0.473E-03
CGA:   5    -0.357836283037E+03   -0.96909E-01   -0.96753E-01 10962   0.168E+00-0.948E-03
CGA:   6    -0.357867556977E+03   -0.31274E-01   -0.31264E-01 10962   0.518E-01-0.102E-03
CGA:   7    -0.357880056474E+03   -0.12499E-01   -0.12504E-01 10962   0.252E-01 0.485E-04
CGA:   8    -0.357887041322E+03   -0.69848E-02   -0.69754E-02 10962   0.127E-01-0.194E-03
CGA:   9    -0.357890890916E+03   -0.38496E-02   -0.38430E-02 10962   0.605E-02-0.334E-03
CGA:  10    -0.357892556841E+03   -0.16659E-02   -0.16593E-02 10962   0.215E-02-0.157E-03
CGA:  11    -0.357893161356E+03   -0.60452E-03   -0.60442E-03 10962   0.738E-03-0.322E-05
CGA:  12    -0.357893384273E+03   -0.22292E-03   -0.22368E-03 10962   0.297E-03 0.460E-04
CGA:  13    -0.357893487996E+03   -0.10372E-03   -0.10342E-03 10962   0.131E-03 0.372E-04
CGA:  14    -0.357893538737E+03   -0.50741E-04   -0.50320E-04 10962   0.568E-04 0.201E-04
CGA:  15    -0.357893560922E+03   -0.22185E-04   -0.22015E-04 10962   0.246E-04 0.109E-04
CGA:  16    -0.357893573539E+03   -0.12617E-04   -0.12336E-04 10962   0.166E-04 0.280E-05
CGA:  17    -0.357893585423E+03   -0.11884E-04   -0.13587E-04 10962   0.274E-04-0.428E-05
CGA:  18    -0.357893591224E+03   -0.58011E-05   -0.19559E-04 10962   0.620E-04-0.228E-04
CGA:  19    -0.357893615759E+03   -0.24535E-04   -0.24529E-04 10962   0.168E-04 0.293E-06
CGA:  20    -0.357893508576E+03    0.10718E-03   -0.57830E-04 10962   0.649E-03-0.718E-04
CGA:  21    -0.357893600014E+03   -0.91437E-04   -0.10996E-03 10962   0.793E-04 0.352E-04
CGA:  22    -0.357893639878E+03   -0.39864E-04   -0.35549E-04 10962   0.377E-04-0.180E-04
CGA:  23    -0.357893647551E+03   -0.76731E-05   -0.84266E-05 10962   0.101E-04 0.208E-05
  50 F= -.35789365E+03 E0= -.35789365E+03  d E =0.259560E-01  mag=    12.0000
       N       E                     dE             d eps       ncg     rms          ort
SDA:   1    -0.356213903501E+03    0.16797E+01    0.00000E+00 10962   0.451E+01 0.000E+00
CGA:   2    -0.357372854995E+03   -0.11590E+01   -0.11611E+01 10962   0.178E+01 0.233E-02
CGA:   3    -0.357698850668E+03   -0.32600E+00   -0.32582E+00 10962   0.719E+00 0.126E-02
CGA:   4    -0.357808155493E+03   -0.10930E+00   -0.10898E+00 10962   0.144E+00 0.708E-04
CGA:   5    -0.357834558841E+03   -0.26403E-01   -0.26335E-01 10962   0.468E-01-0.190E-03
CGA:   6    -0.357843321303E+03   -0.87625E-02   -0.87571E-02 10962   0.155E-01-0.249E-04
CGA:   7    -0.357847145587E+03   -0.38243E-02   -0.38048E-02 10962   0.732E-02-0.720E-04
CGA:   8    -0.357849070325E+03   -0.19247E-02   -0.18883E-02 10962   0.317E-02-0.146E-03
CGA:   9    -0.357849991839E+03   -0.92151E-03   -0.89949E-03 10962   0.135E-02-0.107E-03
CGA:  10    -0.357850343550E+03   -0.35171E-03   -0.34664E-03 10962   0.438E-03-0.234E-04
CGA:  11    -0.357850467693E+03   -0.12414E-03   -0.12472E-03 10962   0.159E-03 0.309E-05
CGA:  12    -0.357850515374E+03   -0.47680E-04   -0.49294E-04 10962   0.686E-04 0.103E-04
CGA:  13    -0.357850540580E+03   -0.25206E-04   -0.25832E-04 10962   0.347E-04 0.608E-05
CGA:  14    -0.357850557325E+03   -0.16745E-04   -0.16709E-04 10962   0.216E-04-0.431E-05
CGA:  15    -0.357850565958E+03   -0.86328E-05   -0.13327E-04 10962   0.337E-04-0.184E-04
CGA:  16    -0.357850580037E+03   -0.14079E-04   -0.12996E-04 10962   0.168E-04-0.140E-04
CGA:  17    -0.357850584322E+03   -0.42848E-05   -0.72613E-05 10962   0.273E-04-0.106E-04
CGA:  18    -0.357850597284E+03   -0.12962E-04   -0.11829E-04 10962   0.465E-04-0.279E-04
CGA:  19    -0.357850598196E+03   -0.91187E-06   -0.54017E-05 10962   0.424E-05 0.126E-04
  51 F= -.35785060E+03 E0= -.35785060E+03  d E =0.430494E-01  mag=    12.0000
       N       E                     dE             d eps       ncg     rms          ort
SDA:   1    -0.355408227011E+03    0.24424E+01    0.00000E+00 10962   0.720E+01 0.000E+00
CGA:   2    -0.357213074166E+03   -0.18048E+01   -0.18064E+01 10962   0.244E+01-0.748E-02
CGA:   3    -0.357737927306E+03   -0.52485E+00   -0.52521E+00 10962   0.912E+00 0.252E-02
CGA:   4    -0.357859958426E+03   -0.12203E+00   -0.12233E+00 10962   0.179E+00 0.117E-02
CGA:   5    -0.357894932664E+03   -0.34974E-01   -0.35021E-01 10962   0.543E-01 0.229E-03
CGA:   6    -0.357904912060E+03   -0.99794E-02   -0.99840E-02 10962   0.185E-01 0.167E-04
CGA:   7    -0.357909571944E+03   -0.46599E-02   -0.46501E-02 10962   0.897E-02-0.785E-04
CGA:   8    -0.357911999712E+03   -0.24278E-02   -0.24231E-02 10962   0.449E-02-0.459E-04
CGA:   9    -0.357913322660E+03   -0.13229E-02   -0.13242E-02 10962   0.193E-02 0.171E-04
CGA:  10    -0.357913854073E+03   -0.53141E-03   -0.53111E-03 10962   0.659E-03-0.348E-05
CGA:  11    -0.357914057569E+03   -0.20350E-03   -0.20177E-03 10962   0.250E-03-0.318E-04
CGA:  12    -0.357914146544E+03   -0.88974E-04   -0.89681E-04 10962   0.137E-03-0.395E-04
CGA:  13    -0.357914190073E+03   -0.43529E-04   -0.43847E-04 10962   0.652E-04-0.147E-04
CGA:  14    -0.357914208471E+03   -0.18398E-04   -0.18520E-04 10962   0.216E-04 0.289E-05
CGA:  15    -0.357914215480E+03   -0.70090E-05   -0.70890E-05 10962   0.797E-05 0.182E-05
  52 F= -.35791422E+03 E0= -.35791422E+03  d E =-.636173E-01  mag=    12.0000
       N       E                     dE             d eps       ncg     rms          ort
SDA:   1    -0.357600116223E+03    0.31409E+00    0.00000E+00 10962   0.894E+00 0.000E+00
CGA:   2    -0.357804691028E+03   -0.20457E+00   -0.20485E+00 10962   0.377E+00 0.182E-02
CGA:   3    -0.357871325509E+03   -0.66634E-01   -0.66642E-01 10962   0.149E+00 0.237E-04
CGA:   4    -0.357894194313E+03   -0.22869E-01   -0.22782E-01 10962   0.267E-01-0.497E-03
CGA:   5    -0.357898826989E+03   -0.46327E-02   -0.46003E-02 10962   0.824E-02-0.210E-03
CGA:   6    -0.357900351649E+03   -0.15247E-02   -0.15227E-02 10962   0.241E-02-0.153E-04
CGA:   7    -0.357900881455E+03   -0.52981E-03   -0.53430E-03 10962   0.106E-02 0.490E-04
CGA:   8    -0.357901179763E+03   -0.29831E-03   -0.29874E-03 10962   0.544E-03 0.134E-04
CGA:   9    -0.357901357089E+03   -0.17733E-03   -0.17779E-03 10962   0.306E-03-0.302E-04
CGA:  10    -0.357901441022E+03   -0.83933E-04   -0.83634E-04 10962   0.114E-03-0.158E-04
CGA:  11    -0.357901470427E+03   -0.29405E-04   -0.29478E-04 10962   0.359E-04 0.203E-05
CGA:  12    -0.357901478795E+03   -0.83684E-05   -0.88292E-05 10962   0.121E-04 0.725E-05
  53 F= -.35790148E+03 E0= -.35790148E+03  d E =0.127367E-01  mag=    12.0000
       N       E                     dE             d eps       ncg     rms          ort
SDA:   1    -0.356634482466E+03    0.12670E+01    0.00000E+00 10962   0.353E+01 0.000E+00
CGA:   2    -0.357495271183E+03   -0.86079E+00   -0.86123E+00 10962   0.143E+01 0.522E-02
CGA:   3    -0.357758531858E+03   -0.26326E+00   -0.26319E+00 10962   0.562E+00-0.747E-03
CGA:   4    -0.357840561797E+03   -0.82030E-01   -0.81854E-01 10962   0.984E-01-0.133E-02
CGA:   5    -0.357858354468E+03   -0.17793E-01   -0.17741E-01 10962   0.314E-01-0.506E-03
CGA:   6    -0.357864099365E+03   -0.57449E-02   -0.57389E-02 10962   0.925E-02-0.673E-04
CGA:   7    -0.357866271552E+03   -0.21722E-02   -0.21717E-02 10962   0.432E-02-0.138E-04
CGA:   8    -0.357867479905E+03   -0.12084E-02   -0.12097E-02 10962   0.228E-02-0.146E-03
CGA:   9    -0.357868179019E+03   -0.69911E-03   -0.70775E-03 10962   0.122E-02-0.177E-03
CGA:  10    -0.357868492362E+03   -0.31334E-03   -0.31363E-03 10962   0.436E-03-0.556E-04
CGA:  11    -0.357868604287E+03   -0.11193E-03   -0.11202E-03 10962   0.139E-03 0.192E-04
CGA:  12    -0.357868638205E+03   -0.33917E-04   -0.35062E-04 10962   0.514E-04 0.347E-04
CGA:  13    -0.357868650975E+03   -0.12770E-04   -0.14115E-04 10962   0.242E-04 0.254E-04
CGA:  14    -0.357868657277E+03   -0.63028E-05   -0.74255E-05 10962   0.131E-04 0.174E-04
  54 F= -.35786866E+03 E0= -.35786866E+03  d E =0.328215E-01  mag=    12.0000
       N       E                     dE             d eps       ncg     rms          ort
SDA:   1    -0.356669834057E+03    0.11988E+01    0.00000E+00 10962   0.364E+01 0.000E+00
CGA:   2    -0.357530572461E+03   -0.86074E+00   -0.86067E+00 10962   0.138E+01-0.513E-02
CGA:   3    -0.357792901530E+03   -0.26233E+00   -0.26234E+00 10962   0.568E+00 0.626E-04
CGA:   4    -0.357873874217E+03   -0.80973E-01   -0.81107E-01 10962   0.979E-01 0.100E-02
CGA:   5    -0.357891697426E+03   -0.17823E-01   -0.17855E-01 10962   0.310E-01 0.418E-03
CGA:   6    -0.357897421543E+03   -0.57241E-02   -0.57249E-02 10962   0.922E-02 0.820E-05
CGA:   7    -0.357899655083E+03   -0.22335E-02   -0.22324E-02 10962   0.457E-02-0.150E-03
CGA:   8    -0.357900888423E+03   -0.12333E-02   -0.12354E-02 10962   0.233E-02-0.829E-04
CGA:   9    -0.357901573434E+03   -0.68501E-03   -0.68498E-03 10962   0.110E-02 0.373E-06
CGA:  10    -0.357901881376E+03   -0.30794E-03   -0.30792E-03 10962   0.384E-03 0.752E-06
CGA:  11    -0.357901996186E+03   -0.11481E-03   -0.11553E-03 10962   0.139E-03-0.155E-04
CGA:  12    -0.357902043993E+03   -0.47807E-04   -0.53000E-04 10962   0.869E-04-0.371E-04
CGA:  13    -0.357902065906E+03   -0.21913E-04   -0.22944E-04 10962   0.408E-04-0.107E-04
CGA:  14    -0.357902076822E+03   -0.10916E-04   -0.10871E-04 10962   0.139E-04 0.124E-05
CGA:  15    -0.357902081961E+03   -0.51394E-05   -0.54511E-05 10962   0.685E-05-0.286E-05
  55 F= -.35790208E+03 E0= -.35790208E+03  d E =-.334247E-01  mag=    12.0000
       N       E                     dE             d eps       ncg     rms          ort
SDA:   1    -0.355605538108E+03    0.22965E+01    0.00000E+00 10962   0.694E+01 0.000E+00
CGA:   2    -0.357204453059E+03   -0.15989E+01   -0.15994E+01 10962   0.269E+01-0.692E-02
CGA:   3    -0.357700004552E+03   -0.49555E+00   -0.49560E+00 10962   0.112E+01 0.242E-03
CGA:   4    -0.357866393301E+03   -0.16639E+00   -0.16666E+00 10962   0.197E+00 0.165E-02
CGA:   5    -0.357901587912E+03   -0.35195E-01   -0.35275E-01 10962   0.614E-01 0.595E-03
CGA:   6    -0.357913086418E+03   -0.11499E-01   -0.11515E-01 10962   0.183E-01 0.139E-03
CGA:   7    -0.357917469205E+03   -0.43828E-02   -0.43844E-02 10962   0.883E-02 0.244E-04
CGA:   8    -0.357919858382E+03   -0.23892E-02   -0.23914E-02 10962   0.436E-02 0.947E-04
CGA:   9    -0.357921176771E+03   -0.13184E-02   -0.13180E-02 10962   0.209E-02 0.537E-04
CGA:  10    -0.357921785387E+03   -0.60862E-03   -0.60846E-03 10962   0.765E-03-0.310E-04
CGA:  11    -0.357922020629E+03   -0.23524E-03   -0.23645E-03 10962   0.298E-03-0.567E-04
CGA:  12    -0.357922124687E+03   -0.10406E-03   -0.11744E-03 10962   0.214E-03-0.101E-03
CGA:  13    -0.357922177315E+03   -0.52628E-04   -0.61891E-04 10962   0.138E-03-0.672E-04
CGA:  14    -0.357922212237E+03   -0.34922E-04   -0.38989E-04 10962   0.694E-04-0.385E-04
CGA:  15    -0.357922228183E+03   -0.15946E-04   -0.15953E-04 10962   0.288E-04-0.982E-06
CGA:  16    -0.357922240500E+03   -0.12317E-04   -0.15151E-04 10962   0.331E-04-0.129E-04
CGA:  17    -0.357922248124E+03   -0.76247E-05   -0.83713E-05 10962   0.334E-04-0.562E-05
CGA:  18    -0.357922259445E+03   -0.11321E-04   -0.16030E-04 10962   0.407E-04-0.190E-04
CGA:  19    -0.357922276208E+03   -0.16762E-04   -0.18297E-04 10962   0.176E-04-0.144E-04
CGA:  20    -0.357922285227E+03   -0.90192E-05    0.14129E-04 10962   0.467E-05 0.271E-05
  56 F= -.35792229E+03 E0= -.35792229E+03  d E =-.202033E-01  mag=    12.0000
       N       E                     dE             d eps       ncg     rms          ort
SDA:   1    -0.356786013112E+03    0.11363E+01    0.00000E+00 10962   0.333E+01 0.000E+00
CGA:   2    -0.357558269078E+03   -0.77226E+00   -0.77330E+00 10962   0.135E+01 0.275E-02
CGA:   3    -0.357802546591E+03   -0.24428E+00   -0.24421E+00 10962   0.551E+00 0.457E-04
CGA:   4    -0.357885814480E+03   -0.83268E-01   -0.83072E-01 10962   0.982E-01-0.886E-03
CGA:   5    -0.357903390266E+03   -0.17576E-01   -0.17503E-01 10962   0.310E-01-0.388E-03
CGA:   6    -0.357909205278E+03   -0.58150E-02   -0.58024E-02 10962   0.917E-02-0.772E-04
CGA:   7    -0.357911397114E+03   -0.21918E-02   -0.21878E-02 10962   0.438E-02-0.375E-04
CGA:   8    -0.357912606568E+03   -0.12095E-02   -0.12009E-02 10962   0.224E-02-0.125E-03
CGA:   9    -0.357913277676E+03   -0.67111E-03   -0.66714E-03 10962   0.112E-02-0.119E-03
CGA:  10    -0.357913571320E+03   -0.29364E-03   -0.29254E-03 10962   0.385E-03-0.174E-04
CGA:  11    -0.357913671109E+03   -0.99789E-04   -0.10168E-03 10962   0.124E-03 0.279E-04
CGA:  12    -0.357913700275E+03   -0.29165E-04   -0.32136E-04 10962   0.457E-04 0.329E-04
CGA:  13    -0.357913709360E+03   -0.90858E-05   -0.12056E-04 10962   0.213E-04 0.248E-04
  57 F= -.35791371E+03 E0= -.35791371E+03  d E =0.857587E-02  mag=    12.0000
       N       E                     dE             d eps       ncg     rms          ort
SDA:   1    -0.357830076876E+03    0.83623E-01    0.00000E+00 10962   0.209E+00 0.000E+00
CGA:   2    -0.357883924768E+03   -0.53848E-01   -0.53883E-01 10962   0.952E-01 0.553E-03
CGA:   3    -0.357900032699E+03   -0.16108E-01   -0.16089E-01 10962   0.351E-01-0.148E-03
CGA:   4    -0.357905543626E+03   -0.55109E-02   -0.54717E-02 10962   0.704E-02-0.265E-03
CGA:   5    -0.357906796422E+03   -0.12528E-02   -0.12438E-02 10962   0.228E-02-0.741E-04
CGA:   6    -0.357907223466E+03   -0.42704E-03   -0.42688E-03 10962   0.716E-03-0.161E-05
CGA:   7    -0.357907395799E+03   -0.17233E-03   -0.17115E-03 10962   0.342E-03-0.240E-04
CGA:   8    -0.357907494925E+03   -0.99125E-04   -0.10034E-03 10962   0.205E-03-0.691E-04
CGA:   9    -0.357907544311E+03   -0.49386E-04   -0.50200E-04 10962   0.103E-03-0.402E-04
CGA:  10    -0.357907561752E+03   -0.17441E-04   -0.17910E-04 10962   0.309E-04 0.661E-05
CGA:  11    -0.357907565584E+03   -0.38324E-05   -0.54019E-05 10962   0.128E-04 0.131E-04
  58 F= -.35790757E+03 E0= -.35790757E+03  d E =0.614378E-02  mag=    12.0000
       N       E                     dE             d eps       ncg     rms          ort
SDA:   1    -0.357866112207E+03    0.41450E-01    0.00000E+00 10962   0.136E+00 0.000E+00
CGA:   2    -0.357900033471E+03   -0.33921E-01   -0.33903E-01 10962   0.496E-01-0.912E-03
CGA:   3    -0.357909971739E+03   -0.99383E-02   -0.99507E-02 10962   0.195E-01 0.175E-03
CGA:   4    -0.357912604241E+03   -0.26325E-02   -0.26586E-02 10962   0.355E-02 0.196E-03
CGA:   5    -0.357913281648E+03   -0.67741E-03   -0.68225E-03 10962   0.115E-02 0.698E-04
CGA:   6    -0.357913494641E+03   -0.21299E-03   -0.21326E-03 10962   0.372E-03 0.355E-05
CGA:   7    -0.357913585258E+03   -0.90617E-04   -0.90677E-04 10962   0.175E-03 0.632E-05
CGA:   8    -0.357913625351E+03   -0.40093E-04   -0.40669E-04 10962   0.692E-04 0.249E-04
CGA:   9    -0.357913643793E+03   -0.18441E-04   -0.18720E-04 10962   0.276E-04 0.200E-04
CGA:  10    -0.357913652699E+03   -0.89061E-05   -0.89069E-05 10962   0.115E-04 0.728E-05
  59 F= -.35791365E+03 E0= -.35791365E+03  d E =-.608711E-02  mag=    12.0000
