       N       E                     dE             d eps       ncg     rms          rms(c)
DAV:   1     0.255471301522E+04    0.25547E+04   -0.12686E+05 40480   0.159E+03
DAV:   2    -0.114907797004E+02   -0.25662E+04   -0.23576E+04 41200   0.435E+02
DAV:   3    -0.304383962696E+03   -0.29289E+03   -0.28780E+03 43240   0.161E+02
DAV:   4    -0.313336362193E+03   -0.89524E+01   -0.88666E+01 50384   0.285E+01
DAV:   5    -0.313693041313E+03   -0.35668E+00   -0.35617E+00 58992   0.444E+00    0.838E+01
DAV:   6    -0.288322708216E+03    0.25370E+02   -0.31462E+02 50808   0.780E+01    0.118E+02
DAV:   7    -0.267675961236E+03    0.20647E+02   -0.17645E+02 42168   0.117E+02    0.357E+01
DAV:   8    -0.261315996865E+03    0.63600E+01   -0.22069E+01 50384   0.218E+01    0.133E+01
DAV:   9    -0.260498251788E+03    0.81775E+00   -0.39393E+00 50480   0.937E+00    0.443E+00
DAV:  10    -0.260588596548E+03   -0.90345E-01   -0.97450E-01 44648   0.404E+00    0.301E+00
DAV:  11    -0.260584151158E+03    0.44454E-02   -0.12286E-01 42872   0.244E+00    0.219E+00
DAV:  12    -0.260577532956E+03    0.66182E-02   -0.48412E-02 51080   0.145E+00    0.112E+00
DAV:  13    -0.260579726430E+03   -0.21935E-02   -0.32795E-02 43608   0.910E-01    0.451E-01
DAV:  14    -0.260579085553E+03    0.64088E-03   -0.59454E-03 46592   0.502E-01    0.253E-01
DAV:  15    -0.260579308947E+03   -0.22339E-03   -0.24412E-03 44328   0.217E-01    0.154E-01
DAV:  16    -0.260579332005E+03   -0.23057E-04   -0.51368E-04 43216   0.162E-01    0.931E-02
DAV:  17    -0.260579358967E+03   -0.26963E-04   -0.13494E-04 47992   0.638E-02    0.298E-02
DAV:  18    -0.260579384055E+03   -0.25088E-04   -0.54957E-05 41960   0.296E-02    0.192E-02
DAV:  19    -0.260579388111E+03   -0.40561E-05   -0.96617E-06 27528   0.189E-02
   1 F= -.26057939E+03 E0= -.26057939E+03  d E =-.260579E+03  mag=    12.0006
