       N       E                     dE             d eps       ncg     rms          ort
DAV:   1     0.313061662000E+04    0.31306E+04   -0.14147E+05 10962   0.176E+03
DAV:   2     0.200755957192E+02   -0.31105E+04   -0.28390E+04 10962   0.462E+02
DAV:   3    -0.433508318409E+03   -0.45358E+03   -0.44217E+03 10962   0.198E+02
DAV:   4    -0.456505688079E+03   -0.22997E+02   -0.22190E+02 10962   0.428E+01
DAV:   5    -0.457828976814E+03   -0.13233E+01   -0.12947E+01 10962   0.739E+00
SDA:   6    -0.176649243695E+03    0.28118E+03   -0.12947E+01 10962   0.281E+04 0.000E+00
CGA:   7    -0.231439106927E+03   -0.54790E+02   -0.24474E+03 10962   0.366E+04-0.127E+04
CGA:   8    -0.239245109722E+03   -0.78060E+01   -0.10080E+03 10962   0.112E+04-0.852E+03
CGA:   9    -0.282502436481E+03   -0.43257E+02   -0.27163E+02 10962   0.583E+03-0.258E+03
CGA:  10    -0.268840471173E+03    0.13662E+02   -0.15038E+02 10962   0.507E+04-0.137E+04
CGA:  11    -0.256398181195E+03    0.12442E+02   -0.31308E+03 10962   0.109E+04-0.676E+03
CGA:  12    -0.285719442690E+03   -0.29321E+02   -0.26333E+02 10962   0.104E+04 0.162E+03
CGA:  13    -0.235263592836E+03    0.50456E+02   -0.52366E+02 10962   0.124E+04-0.118E+04
CGA:  14    -0.337271849020E+03   -0.10201E+03   -0.34212E+02 10962   0.281E+03 0.502E+02
CGA:  15    -0.315884425796E+03    0.21387E+02   -0.73481E+01 10962   0.272E+04-0.134E+04
CGA:  16    -0.305391403856E+03    0.10493E+02   -0.16216E+03 10962   0.312E+03-0.254E+03
CGA:  17    -0.318532488350E+03   -0.13141E+02   -0.66269E+01 10962   0.301E+03 0.336E+03
CGA:  18    -0.344913166390E+03   -0.26381E+02   -0.66908E+01 10962   0.225E+03 0.261E+02
CGA:  19    -0.308872272567E+03    0.36041E+02   -0.46998E+01 10962   0.141E+04-0.712E+03
CGA:  20    -0.308950218696E+03   -0.77946E-01   -0.65569E+02 10962   0.471E+03-0.355E+03
CGA:  21    -0.321654914429E+03   -0.12705E+02   -0.81632E+01 10962   0.409E+03 0.362E+03
CGA:  22    -0.330645249998E+03   -0.89903E+01   -0.90989E+01 10962   0.111E+04-0.140E+04
CGA:  23    -0.310609554115E+03    0.20036E+02   -0.44606E+02 10962   0.356E+03-0.249E+03
CGA:  24    -0.333230264984E+03   -0.22621E+02   -0.46132E+01 10962   0.188E+04 0.294E+04
CGA:  25    -0.299233732930E+03    0.33997E+02   -0.69724E+02 10962   0.194E+04-0.115E+04
CGA:  26    -0.301166539151E+03   -0.19328E+01   -0.86378E+02 10962   0.424E+03-0.355E+03
CGA:  27    -0.316863143154E+03   -0.15697E+02   -0.58097E+01 10962   0.364E+03 0.396E+03
CGA:  28    -0.346235539948E+03   -0.29372E+02   -0.56715E+01 10962   0.556E+03 0.275E+02
CGA:  29    -0.321968804177E+03    0.24267E+02   -0.12577E+02 10962   0.692E+03-0.561E+03
CGA:  30    -0.339413700914E+03   -0.17445E+02   -0.23251E+02 10962   0.618E+03-0.730E+03
CGA:  31    -0.339018817151E+03    0.39488E+00   -0.20011E+02 10962   0.164E+03-0.127E+03
CGA:  32    -0.341503782391E+03   -0.24850E+01   -0.12752E+01 10962   0.138E+03 0.129E+03
CGA:  33    -0.349510439162E+03   -0.80067E+01   -0.12467E+01 10962   0.325E+03 0.655E+03
CGA:  34    -0.342444421368E+03    0.70660E+01   -0.87440E+01 10962   0.637E+03-0.369E+03
CGA:  35    -0.339230529021E+03    0.32139E+01   -0.18625E+02 10962   0.146E+03-0.124E+03
CGA:  36    -0.342370052519E+03   -0.31395E+01   -0.11689E+01 10962   0.393E+03 0.401E+03
CGA:  37    -0.344670121303E+03   -0.23001E+01   -0.69848E+01 10962   0.587E+03-0.661E+03
CGA:  38    -0.340085952619E+03    0.45842E+01   -0.15258E+02 10962   0.151E+03-0.122E+03
CGA:  39    -0.352500338538E+03   -0.12414E+02   -0.16042E+01 10962   0.128E+03 0.430E+03
CGA:  40    -0.352142567690E+03    0.35777E+00   -0.19852E+01 10962   0.188E+03-0.145E+03
CGA:  41    -0.350386804817E+03    0.17558E+01   -0.32179E+01 10962   0.448E+03-0.286E+03
CGA:  42    -0.344763025718E+03    0.56238E+01   -0.93594E+01 10962   0.684E+03-0.386E+03
CGA:  43    -0.340472641265E+03    0.42904E+01   -0.15171E+02 10962   0.195E+03-0.154E+03
CGA:  44    -0.352795744289E+03   -0.12323E+02   -0.24314E+01 10962   0.981E+02-0.310E+03
CGA:  45    -0.353482737776E+03   -0.68699E+00   -0.10898E+01 10962   0.349E+02-0.501E+02
CGA:  46    -0.353744715726E+03   -0.26198E+00   -0.28304E+00 10962   0.334E+01-0.273E+01
CGA:  47    -0.353838922352E+03   -0.94207E-01   -0.95204E-01 10962   0.290E+01-0.753E-01
CGA:  48    -0.354069515244E+03   -0.23059E+00   -0.44172E+00 10962   0.538E+02-0.279E+01
CGA:  49    -0.354544480695E+03   -0.47497E+00   -0.76751E+00 10962   0.766E+01-0.133E+02
CGA:  50    -0.354693474484E+03   -0.14899E+00   -0.14956E+00 10962   0.248E+01-0.279E+00
CGA:  51    -0.354876329420E+03   -0.18285E+00   -0.16754E+00 10962   0.169E+01 0.542E+00
CGA:  52    -0.355031301747E+03   -0.15497E+00   -0.13435E+00 10962   0.431E+00 0.765E+00
CGA:  53    -0.355093466505E+03   -0.62165E-01    0.16985E+01 10962   0.345E+00 0.543E+00
CGA:  54    -0.355128528584E+03   -0.35062E-01    0.25378E+00 10962   0.313E+00 0.318E+00
CGA:  55    -0.355160927073E+03   -0.32398E-01    0.14924E+00 10962   0.296E+00 0.300E+00
CGA:  56    -0.355191862973E+03   -0.30936E-01    0.11773E+00 10962   0.289E+00 0.290E+00
CGA:  57    -0.355222359536E+03   -0.30497E-01    0.95910E-01 10962   0.291E+00 0.290E+00
CGA:  58    -0.355253552100E+03   -0.31193E-01    0.81531E-01 10962   0.306E+00 0.302E+00
CGA:  59    -0.355286780247E+03   -0.33228E-01    0.72525E-01 10962   0.337E+00 0.327E+00
CGA:  60    -0.355323975460E+03   -0.37195E-01    0.67675E-01 10962   0.391E+00 0.372E+00
CGA:  61    -0.355367818062E+03   -0.43843E-01    0.69131E-01 10962   0.475E+00 0.444E+00
CGA:  62    -0.355421575382E+03   -0.53757E-01    0.78017E-01 10962   0.599E+00 0.549E+00
CGA:  63    -0.355489527470E+03   -0.67952E-01    0.96400E-01 10962   0.766E+00 0.690E+00
CGA:  64    -0.355574473757E+03   -0.84946E-01    0.14948E+00 10962   0.945E+00 0.842E+00
CGA:  65    -0.355674064883E+03   -0.99591E-01    0.32683E+00 10962   0.104E+01 0.932E+00
CGA:  66    -0.356051714778E+03   -0.37765E+00   -0.94704E-01 10962   0.354E+00 0.257E+00
CGA:  67    -0.356216231495E+03   -0.16452E+00   -0.14220E+00 10962   0.276E+00 0.116E+00
CGA:  68    -0.356288095070E+03   -0.71864E-01   -0.75332E-01 10962   0.435E+00-0.325E-01
CGA:  69    -0.356383685579E+03   -0.95591E-01   -0.10605E+00 10962   0.993E+00-0.511E-01
CGA:  70    -0.356461921847E+03   -0.78236E-01   -0.76610E-01 10962   0.346E+00-0.375E-01
CGA:  71    -0.356521382862E+03   -0.59461E-01   -0.62464E-01 10962   0.724E+00-0.406E-01
CGA:  72    -0.356652708273E+03   -0.13133E+00   -0.15994E+00 10962   0.126E+01-0.186E+00
CGA:  73    -0.356756468063E+03   -0.10376E+00   -0.10270E+00 10962   0.740E+00-0.476E-01
CGA:  74    -0.356843351053E+03   -0.86883E-01   -0.86862E-01 10962   0.512E+00-0.146E-01
CGA:  75    -0.356912447497E+03   -0.69096E-01   -0.69103E-01 10962   0.392E+00-0.161E-03
CGA:  76    -0.356980108619E+03   -0.67661E-01   -0.67116E-01 10962   0.391E+00 0.947E-02
CGA:  77    -0.357054933164E+03   -0.74825E-01   -0.73961E-01 10962   0.358E+00 0.156E-01
CGA:  78    -0.357115907691E+03   -0.60975E-01   -0.60491E-01 10962   0.218E+00 0.154E-01
CGA:  79    -0.357153149372E+03   -0.37242E-01   -0.36940E-01 10962   0.135E+00 0.102E-01
CGA:  80    -0.357179032417E+03   -0.25883E-01   -0.25525E-01 10962   0.974E-01 0.791E-02
CGA:  81    -0.357199645940E+03   -0.20614E-01   -0.20117E-01 10962   0.724E-01 0.840E-02
CGA:  82    -0.357215547469E+03   -0.15902E-01   -0.15441E-01 10962   0.498E-01 0.795E-02
CGA:  83    -0.357227241846E+03   -0.11694E-01   -0.11358E-01 10962   0.323E-01 0.527E-02
CGA:  84    -0.357235121953E+03   -0.78801E-02   -0.78102E-02 10962   0.197E-01 0.946E-03
CGA:  85    -0.357240132808E+03   -0.50109E-02   -0.53096E-02 10962   0.143E-01-0.261E-02
CGA:  86    -0.357243230076E+03   -0.30973E-02   -0.35702E-02 10962   0.113E-01-0.345E-02
CGA:  87    -0.357245310787E+03   -0.20807E-02   -0.23688E-02 10962   0.919E-02-0.243E-02
CGA:  88    -0.357247090680E+03   -0.17799E-02   -0.19079E-02 10962   0.718E-02-0.126E-02
CGA:  89    -0.357248618479E+03   -0.15278E-02   -0.15265E-02 10962   0.554E-02 0.312E-04
CGA:  90    -0.357249934679E+03   -0.13162E-02   -0.12634E-02 10962   0.399E-02 0.101E-02
CGA:  91    -0.357251034501E+03   -0.10998E-02   -0.10441E-02 10962   0.275E-02 0.127E-02
CGA:  92    -0.357251966244E+03   -0.93174E-03   -0.87262E-03 10962   0.191E-02 0.962E-03
CGA:  93    -0.357252730072E+03   -0.76383E-03   -0.71676E-03 10962   0.145E-02 0.489E-03
CGA:  94    -0.357253331745E+03   -0.60167E-03   -0.56990E-03 10962   0.133E-02 0.252E-03
CGA:  95    -0.357253911994E+03   -0.58025E-03   -0.56901E-03 10962   0.158E-02 0.663E-04
SDA:  96    -0.357254555447E+03   -0.64345E-03   -0.99042E-03 10962   0.373E-02-0.856E-03
CGA:  97    -0.357256403907E+03   -0.18485E-02   -0.25250E-02 10962   0.366E-02-0.148E-02
CGA:  98    -0.357257268496E+03   -0.86459E-03   -0.90485E-03 10962   0.260E-02-0.229E-03
CGA:  99    -0.357258384774E+03   -0.11163E-02   -0.16500E-02 10962   0.268E-02-0.125E-02
CGA: 100    -0.357259064726E+03   -0.67995E-03   -0.89371E-03 10962   0.358E-02-0.562E-03
CGA: 101    -0.357260618069E+03   -0.15533E-02   -0.14517E-02 10962   0.310E-02 0.426E-03
CGA: 102    -0.357262911875E+03   -0.22938E-02   -0.21987E-02 10962   0.354E-02 0.281E-03
CGA: 103    -0.357266382951E+03   -0.34711E-02   -0.31863E-02 10962   0.536E-02 0.283E-03
CGA: 104    -0.357266848164E+03   -0.46521E-03   -0.62079E-02 10962   0.296E-01-0.107E-01
CGA: 105    -0.357276102143E+03   -0.92540E-02   -0.94723E-02 10962   0.604E-02 0.202E-03
CGA: 106    -0.357278558106E+03   -0.24560E-02   -0.24747E-02 10962   0.271E-02-0.643E-03
CGA: 107    -0.357280157017E+03   -0.15989E-02   -0.20852E-02 10962   0.499E-02-0.101E-02
CGA: 108    -0.357281551619E+03   -0.13946E-02   -0.14519E-02 10962   0.280E-02-0.631E-03
CGA: 109    -0.357282730401E+03   -0.11788E-02   -0.11491E-02 10962   0.319E-02 0.421E-03
CGA: 110    -0.357284806079E+03   -0.20757E-02   -0.19610E-02 10962   0.334E-02 0.871E-03
CGA: 111    -0.357287575728E+03   -0.27696E-02   -0.25969E-02 10962   0.309E-02 0.823E-03
CGA: 112    -0.357289824490E+03   -0.22488E-02   -0.21790E-02 10962   0.265E-02 0.480E-03
CGA: 113    -0.357291300754E+03   -0.14763E-02   -0.14827E-02 10962   0.265E-02-0.847E-04
CGA: 114    -0.357292764196E+03   -0.14634E-02   -0.14620E-02 10962   0.214E-02-0.620E-04
CGA: 115    -0.357293644232E+03   -0.88004E-03   -0.88028E-03 10962   0.172E-02 0.272E-04
CGA: 116    -0.357294352755E+03   -0.70852E-03   -0.70490E-03 10962   0.768E-03-0.527E-04
CGA: 117    -0.357294653540E+03   -0.30078E-03   -0.30014E-03 10962   0.429E-03-0.669E-05
CGA: 118    -0.357294737080E+03   -0.83541E-04   -0.10970E-03 10962   0.230E-03 0.149E-03
CGA: 119    -0.357294771934E+03   -0.34853E-04   -0.68230E-04 10962   0.148E-03 0.161E-03
CGA: 120    -0.357294812083E+03   -0.40150E-04   -0.47155E-04 10962   0.784E-04 0.712E-04
CGA: 121    -0.357294818213E+03   -0.61291E-05   -0.24065E-04 10962   0.541E-04 0.874E-04
CGA: 122    -0.357294821421E+03   -0.32089E-05   -0.11514E-04 10962   0.422E-04 0.438E-04
CGA: 123    -0.357294831301E+03   -0.98799E-05   -0.13048E-04 10962   0.355E-04 0.378E-04
   1 F= -.35729483E+03 E0= -.35729483E+03  d E =-.357295E+03  mag=    12.0000
       N       E                     dE             d eps       ncg     rms          ort
SDA:   1    -0.357294179077E+03    0.64234E-03    0.00000E+00 10962   0.215E-01 0.000E+00
CGA:   2    -0.357301019574E+03   -0.68405E-02   -0.68512E-02 10962   0.882E-02 0.162E-03
CGA:   3    -0.357302390891E+03   -0.13713E-02   -0.13998E-02 10962   0.336E-02 0.126E-03
CGA:   4    -0.357302920621E+03   -0.52973E-03   -0.54603E-03 10962   0.752E-03 0.774E-04
CGA:   5    -0.357303053450E+03   -0.13283E-03   -0.13353E-03 10962   0.266E-03 0.368E-05
CGA:   6    -0.357303104071E+03   -0.50621E-04   -0.52875E-04 10962   0.119E-03 0.148E-04
CGA:   7    -0.357303118019E+03   -0.13948E-04   -0.21617E-04 10962   0.522E-04 0.452E-04
CGA:   8    -0.357303121288E+03   -0.32686E-05   -0.10718E-04 10962   0.335E-04 0.403E-04
CGA:   9    -0.357303133223E+03   -0.11935E-04   -0.11749E-04 10962   0.387E-04 0.693E-05
CGA:  10    -0.357303161260E+03   -0.28037E-04   -0.26768E-04 10962   0.699E-04 0.504E-05
CGA:  11    -0.357302944951E+03    0.21631E-03   -0.12299E-03 10962   0.187E-02-0.216E-03
CGA:  12    -0.357303279508E+03   -0.33456E-03   -0.32046E-03 10962   0.334E-03-0.320E-04
CGA:  13    -0.357303470885E+03   -0.19138E-03   -0.18896E-03 10962   0.360E-03-0.126E-03
CGA:  14    -0.357303564662E+03   -0.93776E-04   -0.79422E-04 10962   0.118E-03-0.600E-04
CGA:  15    -0.357303592209E+03   -0.27548E-04   -0.27941E-04 10962   0.645E-04 0.127E-05
CGA:  16    -0.357303598740E+03   -0.65309E-05   -0.14859E-04 10962   0.324E-04 0.246E-04
   2 F= -.35730360E+03 E0= -.35730360E+03  d E =-.876744E-02  mag=    12.0000
       N       E                     dE             d eps       ncg     rms          ort
SDA:   1    -0.357152040515E+03    0.15155E+00    0.00000E+00 10962   0.427E+00 0.000E+00
CGA:   2    -0.357288269361E+03   -0.13623E+00   -0.13638E+00 10962   0.181E+00 0.412E-03
CGA:   3    -0.357316451258E+03   -0.28182E-01   -0.28350E-01 10962   0.674E-01 0.406E-03
CGA:   4    -0.357327332296E+03   -0.10881E-01   -0.10973E-01 10962   0.151E-01 0.260E-03
CGA:   5    -0.357329871006E+03   -0.25387E-02   -0.25436E-02 10962   0.462E-02 0.117E-04
CGA:   6    -0.357330766526E+03   -0.89552E-03   -0.91172E-03 10962   0.183E-02 0.591E-04
CGA:   7    -0.357331096438E+03   -0.32991E-03   -0.37887E-03 10962   0.672E-03 0.194E-03
CGA:   8    -0.357331203039E+03   -0.10660E-03   -0.14985E-03 10962   0.256E-03 0.179E-03
CGA:   9    -0.357331257689E+03   -0.54650E-04   -0.71581E-04 10962   0.107E-03 0.804E-04
CGA:  10    -0.357331296097E+03   -0.38408E-04   -0.39730E-04 10962   0.567E-04 0.951E-05
CGA:  11    -0.357331320333E+03   -0.24236E-04   -0.23675E-04 10962   0.441E-04-0.184E-04
CGA:  12    -0.357331353267E+03   -0.32934E-04    0.17903E-04 10962   0.416E-04-0.203E-04
CGA:  13    -0.357331395339E+03   -0.42072E-04    0.36182E-05 10962   0.421E-04-0.948E-05
CGA:  14    -0.357331451326E+03   -0.55987E-04    0.61851E-05 10962   0.441E-04-0.119E-05
CGA:  15    -0.357331519072E+03   -0.67746E-04    0.96827E-05 10962   0.354E-04 0.442E-05
CGA:  16    -0.357331558998E+03   -0.39926E-04    0.33198E-04 10962   0.233E-04 0.385E-05
CGA:  17    -0.357331325159E+03    0.23384E-03   -0.12607E-03 10962   0.911E-03-0.134E-03
CGA:  18    -0.357331553975E+03   -0.22882E-03   -0.24154E-03 10962   0.130E-03 0.260E-04
CGA:  19    -0.357331615410E+03   -0.61436E-04   -0.57828E-04 10962   0.616E-04-0.122E-04
CGA:  20    -0.357331621419E+03   -0.60084E-05   -0.13820E-04 10962   0.231E-04 0.168E-04
   3 F= -.35733162E+03 E0= -.35733162E+03  d E =-.280227E-01  mag=    12.0000
       N       E                     dE             d eps       ncg     rms          ort
SDA:   1    -0.356544420999E+03    0.78719E+00    0.00000E+00 10962   0.199E+01 0.000E+00
CGA:   2    -0.357129672276E+03   -0.58525E+00   -0.58603E+00 10962   0.112E+01-0.528E-03
CGA:   3    -0.357288045908E+03   -0.15837E+00   -0.15861E+00 10962   0.322E+00 0.490E-02
CGA:   4    -0.357341715622E+03   -0.53670E-01   -0.53910E-01 10962   0.831E-01 0.528E-03
CGA:   5    -0.357354952773E+03   -0.13237E-01   -0.13283E-01 10962   0.227E-01 0.585E-04
CGA:   6    -0.357359178473E+03   -0.42257E-02   -0.42575E-02 10962   0.852E-02 0.764E-04
CGA:   7    -0.357360905519E+03   -0.17270E-02   -0.18250E-02 10962   0.321E-02 0.280E-03
CGA:   8    -0.357361552517E+03   -0.64700E-03   -0.75097E-03 10962   0.127E-02 0.327E-03
CGA:   9    -0.357361854446E+03   -0.30193E-03   -0.34612E-03 10962   0.479E-03 0.157E-03
CGA:  10    -0.357362007652E+03   -0.15321E-03   -0.15287E-03 10962   0.209E-03-0.152E-05
CGA:  11    -0.357362084984E+03   -0.77332E-04   -0.69384E-04 10962   0.115E-03-0.466E-04
CGA:  12    -0.357361930144E+03    0.15484E-03   -0.11460E-03 10962   0.160E-02-0.342E-03
CGA:  13    -0.357362210748E+03   -0.28060E-03   -0.29369E-03 10962   0.206E-03 0.368E-04
CGA:  14    -0.357362288774E+03   -0.78027E-04   -0.75138E-04 10962   0.802E-04-0.182E-04
CGA:  15    -0.357362307463E+03   -0.18688E-04   -0.22894E-04 10962   0.285E-04 0.214E-04
CGA:  16    -0.357362168939E+03    0.13852E-03   -0.75937E-04 10962   0.797E-03-0.134E-03
CGA:  17    -0.357362353433E+03   -0.18449E-03   -0.19890E-03 10962   0.897E-04 0.435E-04
CGA:  18    -0.357362399371E+03   -0.45938E-04   -0.72177E-04 10962   0.362E-03-0.131E-03
CGA:  19    -0.357362408214E+03   -0.88430E-05   -0.51268E-04 10962   0.501E-04 0.981E-04
CGA:  20    -0.357362413642E+03   -0.54278E-05   -0.11541E-04 10962   0.164E-04 0.165E-04
CGA:  21    -0.357362449465E+03   -0.35824E-04    0.10656E-04 10962   0.424E-04-0.227E-04
CGA:  22    -0.357362445718E+03    0.37473E-05   -0.53092E-05 10962   0.142E-04 0.222E-04
   4 F= -.35736245E+03 E0= -.35736245E+03  d E =-.308243E-01  mag=    12.0000
       N       E                     dE             d eps       ncg     rms          ort
SDA:   1    -0.356394640756E+03    0.96781E+00    0.00000E+00 10962   0.252E+01 0.000E+00
CGA:   2    -0.357075494113E+03   -0.68085E+00   -0.68088E+00 10962   0.160E+01-0.509E-03
CGA:   3    -0.357303227475E+03   -0.22773E+00   -0.22782E+00 10962   0.413E+00 0.334E-02
CGA:   4    -0.357368805931E+03   -0.65578E-01   -0.65730E-01 10962   0.103E+00 0.492E-03
CGA:   5    -0.357385186565E+03   -0.16381E-01   -0.16445E-01 10962   0.267E-01 0.172E-03
CGA:   6    -0.357389936733E+03   -0.47502E-02   -0.47755E-02 10962   0.864E-02 0.897E-04
CGA:   7    -0.357391727384E+03   -0.17907E-02   -0.18149E-02 10962   0.300E-02 0.110E-03
CGA:   8    -0.357392408212E+03   -0.68083E-03   -0.70499E-03 10962   0.124E-02 0.130E-03
CGA:   9    -0.357392728567E+03   -0.32036E-03   -0.33382E-03 10962   0.493E-03 0.891E-04
CGA:  10    -0.357392876683E+03   -0.14812E-03   -0.14923E-03 10962   0.203E-03 0.929E-05
CGA:  11    -0.357392954424E+03   -0.77741E-04   -0.76079E-04 10962   0.131E-03-0.587E-04
CGA:  12    -0.357392730306E+03    0.22412E-03   -0.12232E-03 10962   0.179E-02-0.378E-03
CGA:  13    -0.357393051433E+03   -0.32113E-03   -0.32995E-03 10962   0.243E-03 0.341E-04
CGA:  14    -0.357393146003E+03   -0.94570E-04   -0.93528E-04 10962   0.966E-04-0.210E-04
CGA:  15    -0.357393186092E+03   -0.40089E-04   -0.40378E-04 10962   0.492E-04-0.879E-05
CGA:  16    -0.357393232643E+03   -0.46551E-04    0.43215E-04 10962   0.271E-04-0.243E-05
CGA:  17    -0.357393239472E+03   -0.68288E-05   -0.77436E-05 10962   0.138E-04 0.721E-05
   5 F= -.35739324E+03 E0= -.35739324E+03  d E =-.307938E-01  mag=    12.0000
       N       E                     dE             d eps       ncg     rms          ort
SDA:   1    -0.330750601327E+03    0.26643E+02    0.00000E+00 10962   0.672E+02 0.000E+00
CGA:   2    -0.349642308560E+03   -0.18892E+02   -0.18944E+02 10962   0.385E+02 0.458E-01
CGA:   3    -0.355205716197E+03   -0.55634E+01   -0.55627E+01 10962   0.950E+01 0.105E+01
CGA:   4    -0.356808137116E+03   -0.16024E+01   -0.15987E+01 10962   0.243E+01 0.527E-01
CGA:   5    -0.357200404277E+03   -0.39227E+00   -0.39350E+00 10962   0.660E+00 0.393E-03
CGA:   6    -0.357320769361E+03   -0.12037E+00   -0.12054E+00 10962   0.222E+00-0.317E-04
CGA:   7    -0.357368610887E+03   -0.47842E-01   -0.47677E-01 10962   0.813E-01-0.107E-02
CGA:   8    -0.357388930320E+03   -0.20319E-01   -0.20185E-01 10962   0.380E-01-0.124E-02
CGA:   9    -0.357399271526E+03   -0.10341E-01   -0.10266E-01 10962   0.160E-01-0.952E-03
CGA:  10    -0.357403714924E+03   -0.44434E-02   -0.43886E-02 10962   0.609E-02-0.808E-03
CGA:  11    -0.357405472339E+03   -0.17574E-02   -0.17259E-02 10962   0.234E-02-0.657E-03
CGA:  12    -0.357406261451E+03   -0.78911E-03   -0.82502E-03 10962   0.170E-02-0.689E-03
CGA:  13    -0.357406698234E+03   -0.43678E-03   -0.80786E-03 10962   0.322E-02-0.113E-02
CGA:  14    -0.357407482025E+03   -0.78379E-03   -0.78174E-03 10962   0.732E-03-0.179E-04
CGA:  15    -0.357407782666E+03   -0.30064E-03   -0.30870E-03 10962   0.422E-03-0.119E-03
CGA:  16    -0.357407976186E+03   -0.19352E-03   -0.26905E-03 10962   0.740E-03-0.187E-03
CGA:  17    -0.357405920460E+03    0.20557E-02   -0.73890E-03 10962   0.133E-01-0.196E-02
CGA:  18    -0.357408097217E+03   -0.21768E-02   -0.22803E-02 10962   0.204E-02 0.328E-03
CGA:  19    -0.357409081206E+03   -0.98399E-03   -0.98928E-03 10962   0.837E-03-0.143E-03
CGA:  20    -0.357409480004E+03   -0.39880E-03   -0.40740E-03 10962   0.315E-03-0.102E-03
CGA:  21    -0.357409554682E+03   -0.74678E-04   -0.82972E-04 10962   0.104E-03 0.580E-04
CGA:  22    -0.357409616135E+03   -0.61453E-04   -0.64746E-04 10962   0.123E-03-0.369E-04
CGA:  23    -0.357409620528E+03   -0.43930E-05   -0.14179E-04 10962   0.940E-04 0.374E-04
CGA:  24    -0.357409626745E+03   -0.62167E-05   -0.20249E-04 10962   0.534E-04 0.536E-04
CGA:  25    -0.357409222231E+03    0.40451E-03   -0.21793E-03 10962   0.267E-02-0.243E-03
CGA:  26    -0.357409563242E+03   -0.34101E-03   -0.45650E-03 10962   0.279E-03 0.190E-03
CGA:  27    -0.357409689911E+03   -0.12667E-03   -0.11880E-03 10962   0.611E-04-0.239E-04
CGA:  28    -0.357409728462E+03   -0.38551E-04   -0.35213E-04 10962   0.118E-03-0.419E-04
CGA:  29    -0.357409731029E+03   -0.25676E-05   -0.18336E-04 10962   0.180E-04 0.286E-04
   6 F= -.35740973E+03 E0= -.35740973E+03  d E =-.164916E-01  mag=    12.0000
       N       E                     dE             d eps       ncg     rms          ort
SDA:   1    -0.349009942885E+03    0.83998E+01    0.00000E+00 10962   0.219E+02 0.000E+00
CGA:   2    -0.355228959705E+03   -0.62190E+01   -0.62314E+01 10962   0.106E+02 0.212E-01
CGA:   3    -0.356768545074E+03   -0.15396E+01   -0.15328E+01 10962   0.295E+01 0.289E+00
CGA:   4    -0.357277743870E+03   -0.50920E+00   -0.50873E+00 10962   0.745E+00 0.111E-01
CGA:   5    -0.357395523673E+03   -0.11778E+00   -0.11785E+00 10962   0.198E+00 0.730E-03
CGA:   6    -0.357431485420E+03   -0.35962E-01   -0.36000E-01 10962   0.629E-01 0.600E-04
CGA:   7    -0.357444693942E+03   -0.13209E-01   -0.13187E-01 10962   0.221E-01-0.622E-04
CGA:   8    -0.357450168748E+03   -0.54748E-02   -0.54395E-02 10962   0.982E-02-0.124E-03
CGA:   9    -0.357452883742E+03   -0.27150E-02   -0.26909E-02 10962   0.419E-02-0.977E-04
CGA:  10    -0.357454062215E+03   -0.11785E-02   -0.11540E-02 10962   0.152E-02-0.105E-03
CGA:  11    -0.357454519077E+03   -0.45686E-03   -0.43108E-03 10962   0.522E-03-0.125E-03
CGA:  12    -0.357454698172E+03   -0.17910E-03   -0.16475E-03 10962   0.266E-03-0.998E-04
CGA:  13    -0.357454800329E+03   -0.10216E-03   -0.10142E-03 10962   0.234E-03-0.900E-04
CGA:  14    -0.357454880392E+03   -0.80063E-04   -0.10442E-03 10962   0.334E-03-0.124E-03
CGA:  15    -0.357454968310E+03   -0.87919E-04   -0.88448E-04 10962   0.721E-04 0.230E-05
CGA:  16    -0.357454989161E+03   -0.20850E-04   -0.23040E-04 10962   0.244E-04 0.136E-04
CGA:  17    -0.357454996348E+03   -0.71874E-05   -0.91502E-05 10962   0.137E-04 0.127E-04
   7 F= -.35745500E+03 E0= -.35745500E+03  d E =-.452653E-01  mag=    12.0000
       N       E                     dE             d eps       ncg     rms          ort
SDA:   1    -0.352785477695E+03    0.46695E+01    0.00000E+00 10962   0.119E+02 0.000E+00
CGA:   2    -0.355960209724E+03   -0.31747E+01   -0.31810E+01 10962   0.764E+01-0.304E-02
CGA:   3    -0.357069202458E+03   -0.11090E+01   -0.11068E+01 10962   0.191E+01 0.712E-01
CGA:   4    -0.357374199206E+03   -0.30500E+00   -0.30410E+00 10962   0.473E+00 0.406E-02
CGA:   5    -0.357450833650E+03   -0.76634E-01   -0.76582E-01 10962   0.126E+00-0.488E-03
CGA:   6    -0.357473220000E+03   -0.22386E-01   -0.22329E-01 10962   0.406E-01-0.283E-03
CGA:   7    -0.357481898191E+03   -0.86782E-02   -0.86106E-02 10962   0.145E-01-0.360E-03
CGA:   8    -0.357485455093E+03   -0.35569E-02   -0.35140E-02 10962   0.645E-02-0.299E-03
CGA:   9    -0.357487250603E+03   -0.17955E-02   -0.17665E-02 10962   0.282E-02-0.285E-03
CGA:  10    -0.357488026748E+03   -0.77614E-03   -0.76058E-03 10962   0.109E-02-0.165E-03
CGA:  11    -0.357488284911E+03   -0.25816E-03   -0.26246E-03 10962   0.329E-03 0.382E-04
CGA:  12    -0.357488359299E+03   -0.74388E-04   -0.82524E-04 10962   0.119E-03 0.663E-04
CGA:  13    -0.357488381205E+03   -0.21906E-04   -0.30708E-04 10962   0.629E-04 0.616E-04
CGA:  14    -0.357488388447E+03   -0.72418E-05   -0.12923E-04 10962   0.352E-04 0.389E-04
   8 F= -.35748839E+03 E0= -.35748839E+03  d E =-.333921E-01  mag=    12.0000
       N       E                     dE             d eps       ncg     rms          ort
SDA:   1    -0.356677134115E+03    0.81125E+00    0.00000E+00 10962   0.216E+01 0.000E+00
CGA:   2    -0.357234976460E+03   -0.55784E+00   -0.55791E+00 10962   0.131E+01 0.260E-03
CGA:   3    -0.357426913369E+03   -0.19194E+00   -0.19191E+00 10962   0.353E+00 0.141E-03
CGA:   4    -0.357482867692E+03   -0.55954E-01   -0.55894E-01 10962   0.857E-01-0.379E-03
CGA:   5    -0.357496591808E+03   -0.13724E-01   -0.13704E-01 10962   0.228E-01-0.154E-03
CGA:   6    -0.357500703718E+03   -0.41119E-02   -0.40983E-02 10962   0.716E-02-0.110E-03
CGA:   7    -0.357502238768E+03   -0.15351E-02   -0.15186E-02 10962   0.263E-02-0.187E-03
CGA:   8    -0.357502907690E+03   -0.66892E-03   -0.66151E-03 10962   0.125E-02-0.195E-03
CGA:   9    -0.357503240796E+03   -0.33311E-03   -0.33188E-03 10962   0.586E-03-0.133E-03
CGA:  10    -0.357503389905E+03   -0.14911E-03   -0.14851E-03 10962   0.225E-03-0.538E-04
CGA:  11    -0.357503450334E+03   -0.60429E-04   -0.60470E-04 10962   0.838E-04-0.222E-04
CGA:  12    -0.357503476947E+03   -0.26612E-04   -0.27888E-04 10962   0.515E-04-0.170E-04
CGA:  13    -0.357503492671E+03   -0.15724E-04   -0.15895E-04 10962   0.326E-04-0.192E-05
CGA:  14    -0.357503508091E+03   -0.15420E-04   -0.17126E-04 10962   0.337E-04-0.705E-05
CGA:  15    -0.357503525003E+03   -0.16913E-04    0.21779E-03 10962   0.185E-04 0.594E-05
CGA:  16    -0.357503541796E+03   -0.16792E-04    0.15164E-04 10962   0.105E-04 0.367E-05
CGA:  17    -0.357503554083E+03   -0.12288E-04    0.36097E-05 10962   0.726E-05 0.459E-05
CGA:  18    -0.357503563973E+03   -0.98902E-05    0.32234E-05 10962   0.576E-05 0.483E-05
   9 F= -.35750356E+03 E0= -.35750356E+03  d E =-.151755E-01  mag=    12.0000
       N       E                     dE             d eps       ncg     rms          ort
SDA:   1    -0.351428978931E+03    0.60746E+01    0.00000E+00 10962   0.151E+02 0.000E+00
CGA:   2    -0.356031526305E+03   -0.46025E+01   -0.46025E+01 10962   0.720E+01-0.233E-02
CGA:   3    -0.357052922455E+03   -0.10214E+01   -0.10216E+01 10962   0.212E+01 0.851E-02
CGA:   4    -0.357393709077E+03   -0.34079E+00   -0.34071E+00 10962   0.499E+00-0.468E-03
CGA:   5    -0.357472333946E+03   -0.78625E-01   -0.78601E-01 10962   0.133E+00-0.248E-03
CGA:   6    -0.357496729423E+03   -0.24395E-01   -0.24378E-01 10962   0.421E-01-0.162E-03
CGA:   7    -0.357505574585E+03   -0.88452E-02   -0.88084E-02 10962   0.150E-01-0.388E-03
CGA:   8    -0.357509416802E+03   -0.38422E-02   -0.38212E-02 10962   0.708E-02-0.481E-03
CGA:   9    -0.357511342737E+03   -0.19259E-02   -0.19196E-02 10962   0.320E-02-0.342E-03
CGA:  10    -0.357512222439E+03   -0.87970E-03   -0.87754E-03 10962   0.121E-02-0.232E-03
CGA:  11    -0.357512571911E+03   -0.34947E-03   -0.35350E-03 10962   0.493E-03-0.219E-03
CGA:  12    -0.357512714777E+03   -0.14287E-03   -0.15709E-03 10962   0.325E-03-0.155E-03
CGA:  13    -0.357512800905E+03   -0.86128E-04   -0.11673E-03 10962   0.345E-03-0.137E-03
CGA:  14    -0.357512801751E+03   -0.84651E-06   -0.17576E-03 10962   0.828E-03-0.306E-03
CGA:  15    -0.357513013705E+03   -0.21195E-03   -0.21070E-03 10962   0.145E-03-0.145E-04
CGA:  16    -0.357513070133E+03   -0.56428E-04   -0.57666E-04 10962   0.641E-04-0.185E-04
CGA:  17    -0.357513088156E+03   -0.18023E-04   -0.18249E-04 10962   0.238E-04 0.158E-04
CGA:  18    -0.357513103777E+03   -0.15622E-04   -0.17217E-04 10962   0.381E-04-0.672E-05
CGA:  19    -0.357513108503E+03   -0.47262E-05   -0.61146E-05 10962   0.321E-04 0.108E-04
  10 F= -.35751311E+03 E0= -.35751311E+03  d E =-.954453E-02  mag=    12.0000
       N       E                     dE             d eps       ncg     rms          ort
SDA:   1    -0.294663613250E+03    0.62849E+02    0.00000E+00 10962   0.148E+03 0.000E+00
CGA:   2    -0.335428195488E+03   -0.40765E+02   -0.40900E+02 10962   0.745E+02 0.620E+00
CGA:   3    -0.347365034009E+03   -0.11937E+02   -0.11959E+02 10962   0.261E+02 0.745E+00
CGA:   4    -0.351643966148E+03   -0.42789E+01   -0.42873E+01 10962   0.637E+01 0.988E-01
CGA:   5    -0.352742435462E+03   -0.10985E+01   -0.11015E+01 10962   0.213E+01 0.701E-02
CGA:   6    -0.353156165811E+03   -0.41373E+00   -0.41477E+00 10962   0.805E+00 0.512E-02
CGA:   7    -0.353340665249E+03   -0.18450E+00   -0.18492E+00 10962   0.347E+00 0.485E-02
CGA:   8    -0.353425336661E+03   -0.84671E-01   -0.84906E-01 10962   0.140E+00 0.393E-02
CGA:   9    -0.353461841947E+03   -0.36505E-01   -0.36563E-01 10962   0.526E-01 0.141E-02
CGA:  10    -0.353476094625E+03   -0.14253E-01   -0.14242E-01 10962   0.182E-01-0.369E-03
CGA:  11    -0.353481325251E+03   -0.52306E-02   -0.52299E-02 10962   0.702E-02-0.122E-03
CGA:  12    -0.353483533061E+03   -0.22078E-02   -0.22016E-02 10962   0.355E-02 0.295E-03
CGA:  13    -0.353484989367E+03   -0.14563E-02   -0.14076E-02 10962   0.255E-02 0.579E-03
CGA:  14    -0.353486282624E+03   -0.12933E-02   -0.12005E-02 10962   0.202E-02 0.883E-03
CGA:  15    -0.353487416917E+03   -0.11343E-02   -0.10473E-02 10962   0.149E-02 0.109E-02
CGA:  16    -0.353487902041E+03   -0.48512E-03   -0.47946E-03 10962   0.718E-03 0.431E-03
CGA:  17    -0.353488341542E+03   -0.43950E-03   -0.38033E-03 10962   0.635E-03 0.587E-03
CGA:  18    -0.353488670503E+03   -0.32896E-03   -0.28401E-03 10962   0.488E-03 0.338E-03
CGA:  19    -0.353488971753E+03   -0.30125E-03   -0.24291E-03 10962   0.503E-03 0.330E-03
CGA:  20    -0.353489140080E+03   -0.16833E-03   -0.16757E-03 10962   0.503E-03 0.285E-03
CGA:  21    -0.353489385231E+03   -0.24515E-03   -0.23316E-03 10962   0.987E-03 0.889E-04
CGA:  22    -0.353490161655E+03   -0.77642E-03   -0.59688E-03 10962   0.516E-03 0.101E-02
CGA:  23    -0.353490259420E+03   -0.97765E-04   -0.12117E-03 10962   0.354E-03 0.210E-03
CGA:  24    -0.353490620412E+03   -0.36099E-03   -0.27483E-03 10962   0.534E-03 0.406E-03
CGA:  25    -0.353490801218E+03   -0.18081E-03   -0.18142E-03 10962   0.485E-03 0.521E-04
CGA:  26    -0.353490991853E+03   -0.19063E-03   -0.18889E-03 10962   0.431E-03 0.428E-03
CGA:  27    -0.353491145586E+03   -0.15373E-03   -0.15314E-03 10962   0.306E-03 0.139E-03
CGA:  28    -0.353491550654E+03   -0.40507E-03   -0.29347E-03 10962   0.454E-03 0.293E-03
CGA:  29    -0.353491644722E+03   -0.94067E-04   -0.11753E-03 10962   0.214E-03 0.211E-03
CGA:  30    -0.353491753973E+03   -0.10925E-03   -0.11130E-03 10962   0.263E-03 0.215E-03
CGA:  31    -0.353491980426E+03   -0.22645E-03   -0.20554E-03 10962   0.428E-03 0.484E-04
CGA:  32    -0.353492313505E+03   -0.33308E-03   -0.27065E-03 10962   0.342E-03 0.415E-03
CGA:  33    -0.353492449146E+03   -0.13564E-03   -0.13532E-03 10962   0.192E-03 0.921E-04
CGA:  34    -0.353492535235E+03   -0.86088E-04   -0.90221E-04 10962   0.198E-03 0.187E-03
CGA:  35    -0.353492747626E+03   -0.21239E-03   -0.21057E-03 10962   0.451E-03 0.158E-05
CGA:  36    -0.353493030860E+03   -0.28323E-03   -0.24423E-03 10962   0.420E-03 0.348E-03
CGA:  37    -0.353493178778E+03   -0.14792E-03   -0.15301E-03 10962   0.141E-03 0.762E-04
CGA:  38    -0.353493215843E+03   -0.37064E-04   -0.50574E-04 10962   0.123E-03 0.110E-03
CGA:  39    -0.353493419946E+03   -0.20410E-03   -0.18996E-03 10962   0.434E-03 0.119E-04
CGA:  40    -0.353493728742E+03   -0.30880E-03   -0.27475E-03 10962   0.384E-03 0.341E-03
CGA:  41    -0.353493854080E+03   -0.12534E-03   -0.13112E-03 10962   0.137E-03 0.404E-04
CGA:  42    -0.353493877451E+03   -0.23372E-04   -0.40557E-04 10962   0.889E-04 0.824E-04
CGA:  43    -0.353494026653E+03   -0.14920E-03   -0.12196E-03 10962   0.210E-03 0.287E-04
CGA:  44    -0.353494433471E+03   -0.40682E-03   -0.29208E-03 10962   0.107E-03 0.208E-03
CGA:  45    -0.353494445227E+03   -0.11757E-04   -0.28276E-04 10962   0.641E-04 0.601E-04
CGA:  46    -0.353494535703E+03   -0.90476E-04   -0.84659E-05 10962   0.163E-02-0.505E-04
CGA:  47    -0.353494705728E+03   -0.17002E-03   -0.28206E-03 10962   0.115E-03 0.141E-03
CGA:  48    -0.353494776370E+03   -0.70642E-04   -0.70269E-04 10962   0.117E-03-0.942E-06
CGA:  49    -0.353494827125E+03   -0.50755E-04   -0.16483E-03 10962   0.176E-02-0.221E-03
CGA:  50    -0.353495002145E+03   -0.17502E-03   -0.32925E-03 10962   0.210E-03 0.206E-03
CGA:  51    -0.353495054846E+03   -0.52701E-04   -0.82422E-04 10962   0.748E-04 0.553E-04
CGA:  52    -0.353495129103E+03   -0.74257E-04   -0.61124E-04 10962   0.279E-03-0.619E-04
CGA:  53    -0.353495136059E+03   -0.69558E-05   -0.50898E-04 10962   0.629E-04 0.655E-04
CGA:  54    -0.353495172932E+03   -0.36873E-04   -0.41063E-04 10962   0.105E-03 0.142E-04
CGA:  55    -0.353494986770E+03    0.18616E-03   -0.26965E-03 10962   0.322E-02-0.356E-03
CGA:  56    -0.353495481459E+03   -0.49469E-03   -0.71477E-03 10962   0.604E-03 0.335E-03
CGA:  57    -0.353495707130E+03   -0.22567E-03   -0.23765E-03 10962   0.530E-04 0.248E-04
CGA:  58    -0.353495797390E+03   -0.90260E-04    0.28163E-02 10962   0.194E-03-0.457E-05
CGA:  59    -0.353495999320E+03   -0.20193E-03   -0.18488E-03 10962   0.500E-03 0.702E-04
CGA:  60    -0.353496331826E+03   -0.33251E-03   -0.38136E-03 10962   0.877E-03 0.191E-03
CGA:  61    -0.353497230733E+03   -0.89891E-03   -0.87084E-03 10962   0.607E-03-0.270E-03
CGA:  62    -0.353497404237E+03   -0.17350E-03   -0.15534E-03 10962   0.325E-03-0.908E-04
CGA:  63    -0.353497409873E+03   -0.56361E-05   -0.49355E-04 10962   0.101E-03 0.669E-04
CGA:  64    -0.353497390358E+03    0.19516E-04   -0.15749E-04 10962   0.537E-04 0.555E-04
CGA:  65    -0.353497384340E+03    0.60181E-05   -0.12549E-04 10962   0.316E-04 0.382E-04
  11 F= -.35349738E+03 E0= -.35349738E+03  d E =0.401572E+01  mag=    12.0000
       N       E                     dE             d eps       ncg     rms          ort
SDA:   1    -0.338396273850E+03    0.15101E+02    0.00000E+00 10962   0.441E+02 0.000E+00
CGA:   2    -0.353015805267E+03   -0.14620E+02   -0.14634E+02 10962   0.123E+02 0.245E+00
CGA:   3    -0.356030136100E+03   -0.30143E+01   -0.30529E+01 10962   0.348E+01-0.198E-01
CGA:   4    -0.356569909352E+03   -0.53977E+00   -0.53768E+00 10962   0.127E+01 0.261E-01
CGA:   5    -0.356813780164E+03   -0.24387E+00   -0.24263E+00 10962   0.392E+00 0.361E-02
CGA:   6    -0.356896264832E+03   -0.82485E-01   -0.81927E-01 10962   0.199E+00-0.151E-02
CGA:   7    -0.356943173001E+03   -0.46908E-01   -0.46189E-01 10962   0.763E-01-0.237E-02
CGA:   8    -0.356962017010E+03   -0.18844E-01   -0.18437E-01 10962   0.339E-01-0.133E-02
CGA:   9    -0.356970336817E+03   -0.83198E-02   -0.82313E-02 10962   0.109E-01-0.289E-03
CGA:  10    -0.356973327890E+03   -0.29911E-02   -0.29342E-02 10962   0.412E-02-0.219E-03
CGA:  11    -0.356974604254E+03   -0.12764E-02   -0.12158E-02 10962   0.201E-02-0.285E-03
CGA:  12    -0.356975362190E+03   -0.75794E-03   -0.73715E-03 10962   0.148E-02-0.192E-03
CGA:  13    -0.356976128359E+03   -0.76617E-03   -0.84691E-03 10962   0.242E-02-0.574E-03
CGA:  14    -0.356976906973E+03   -0.77861E-03   -0.90875E-03 10962   0.316E-02-0.111E-02
CGA:  15    -0.356977714905E+03   -0.80793E-03   -0.72154E-03 10962   0.264E-02-0.968E-03
CGA:  16    -0.356978597345E+03   -0.88244E-03   -0.83298E-03 10962   0.230E-02-0.995E-03
CGA:  17    -0.356979259337E+03   -0.66199E-03   -0.62064E-03 10962   0.180E-02-0.609E-03
CGA:  18    -0.356979801393E+03   -0.54206E-03   -0.51332E-03 10962   0.137E-02-0.271E-03
CGA:  19    -0.356980286719E+03   -0.48533E-03   -0.47976E-03 10962   0.111E-02-0.802E-04
CGA:  20    -0.356980627026E+03   -0.34031E-03   -0.36752E-03 10962   0.754E-03 0.195E-03
CGA:  21    -0.356980841711E+03   -0.21469E-03   -0.26675E-03 10962   0.449E-03 0.287E-03
CGA:  22    -0.356980977334E+03   -0.13562E-03   -0.18054E-03 10962   0.284E-03 0.249E-03
CGA:  23    -0.356981123189E+03   -0.14586E-03   -0.14358E-03 10962   0.171E-03 0.530E-04
CGA:  24    -0.356981241292E+03   -0.11810E-03   -0.11058E-03 10962   0.139E-03 0.944E-04
CGA:  25    -0.356981278327E+03   -0.37035E-04   -0.43880E-04 10962   0.913E-04 0.450E-04
CGA:  26    -0.356981355653E+03   -0.77326E-04   -0.71393E-04 10962   0.112E-03 0.468E-04
CGA:  27    -0.356981372342E+03   -0.16689E-04   -0.27708E-04 10962   0.556E-04 0.501E-04
CGA:  28    -0.356981401368E+03   -0.29027E-04   -0.31740E-04 10962   0.563E-04 0.430E-04
CGA:  29    -0.356981442446E+03   -0.41078E-04   -0.38049E-04 10962   0.711E-04 0.137E-04
CGA:  30    -0.356981466580E+03   -0.24134E-04   -0.31497E-04 10962   0.512E-04 0.683E-04
CGA:  31    -0.356981490532E+03   -0.23953E-04   -0.23828E-04 10962   0.348E-04 0.193E-04
CGA:  32    -0.356981502239E+03   -0.11706E-04   -0.16297E-04 10962   0.324E-04 0.385E-04
CGA:  33    -0.356981539278E+03   -0.37039E-04   -0.32550E-04 10962   0.556E-04 0.802E-05
CGA:  34    -0.356981552987E+03   -0.13709E-04   -0.22242E-04 10962   0.388E-04 0.531E-04
CGA:  35    -0.356981572328E+03   -0.19341E-04   -0.19116E-04 10962   0.236E-04 0.113E-04
CGA:  36    -0.356981577770E+03   -0.54421E-05   -0.93790E-05 10962   0.214E-04 0.236E-04
  12 F= -.35698158E+03 E0= -.35698158E+03  d E =-.348419E+01  mag=    12.0000
       N       E                     dE             d eps       ncg     rms          ort
SDA:   1    -0.356472039323E+03    0.50953E+00    0.00000E+00 10962   0.192E+01 0.000E+00
CGA:   2    -0.357097292349E+03   -0.62525E+00   -0.62366E+00 10962   0.595E+00 0.787E-03
CGA:   3    -0.357230973302E+03   -0.13368E+00   -0.13350E+00 10962   0.236E+00-0.491E-03
CGA:   4    -0.357262453679E+03   -0.31480E-01   -0.31392E-01 10962   0.595E-01 0.493E-03
CGA:   5    -0.357274108920E+03   -0.11655E-01   -0.11617E-01 10962   0.216E-01-0.239E-04
CGA:   6    -0.357278178306E+03   -0.40694E-02   -0.39629E-02 10962   0.898E-02-0.188E-03
CGA:   7    -0.357280577984E+03   -0.23997E-02   -0.22273E-02 10962   0.417E-02-0.378E-03
CGA:   8    -0.357281663677E+03   -0.10857E-02   -0.96871E-03 10962   0.173E-02-0.265E-03
CGA:   9    -0.357282140245E+03   -0.47657E-03   -0.44607E-03 10962   0.594E-03-0.790E-04
CGA:  10    -0.357282288014E+03   -0.14777E-03   -0.14709E-03 10962   0.219E-03-0.189E-05
CGA:  11    -0.357282347593E+03   -0.59579E-04   -0.61002E-04 10962   0.976E-04 0.396E-05
CGA:  12    -0.357282381980E+03   -0.34387E-04   -0.36432E-04 10962   0.712E-04 0.830E-05
CGA:  13    -0.357282428620E+03   -0.46639E-04   -0.46700E-04 10962   0.119E-03-0.586E-05
CGA:  14    -0.357282491090E+03   -0.62471E-04   -0.13571E-03 10962   0.618E-03-0.121E-03
CGA:  15    -0.357282706510E+03   -0.21542E-03   -0.19401E-03 10962   0.201E-03-0.689E-04
CGA:  16    -0.357282816736E+03   -0.11023E-03   -0.11164E-03 10962   0.239E-03-0.102E-03
CGA:  17    -0.357282864613E+03   -0.47876E-04   -0.53242E-04 10962   0.364E-04 0.137E-04
CGA:  18    -0.357282885863E+03   -0.21250E-04   -0.21049E-04 10962   0.442E-04-0.467E-05
CGA:  19    -0.357282900062E+03   -0.14199E-04   -0.16230E-04 10962   0.474E-04 0.116E-04
CGA:  20    -0.357282954770E+03   -0.54708E-04   -0.51121E-04 10962   0.707E-04 0.111E-04
CGA:  21    -0.357283019185E+03   -0.64415E-04   -0.85729E-04 10962   0.451E-03-0.627E-04
CGA:  22    -0.357283076854E+03   -0.57670E-04   -0.73345E-04 10962   0.469E-04 0.341E-04
CGA:  23    -0.357283084727E+03   -0.78732E-05   -0.65316E-04 10962   0.278E-03-0.821E-04
CGA:  24    -0.357283192579E+03   -0.10785E-03   -0.99529E-04 10962   0.563E-04-0.311E-04
CGA:  25    -0.357283190512E+03    0.20668E-05   -0.71717E-05 10962   0.161E-04 0.196E-04
  13 F= -.35728319E+03 E0= -.35728319E+03  d E =-.301613E+00  mag=    12.0000
       N       E                     dE             d eps       ncg     rms          ort
SDA:   1    -0.355375144269E+03    0.19080E+01    0.00000E+00 10962   0.505E+01 0.000E+00
CGA:   2    -0.356995216764E+03   -0.16201E+01   -0.16181E+01 10962   0.167E+01-0.210E-02
CGA:   3    -0.357340691318E+03   -0.34547E+00   -0.34522E+00 10962   0.713E+00-0.772E-03
CGA:   4    -0.357440991998E+03   -0.10030E+00   -0.10011E+00 10962   0.157E+00 0.904E-03
CGA:   5    -0.357471665557E+03   -0.30674E-01   -0.30616E-01 10962   0.578E-01-0.890E-04
CGA:   6    -0.357482726799E+03   -0.11061E-01   -0.10917E-01 10962   0.231E-01-0.447E-03
CGA:   7    -0.357488694405E+03   -0.59676E-02   -0.57517E-02 10962   0.107E-01-0.908E-03
CGA:   8    -0.357491374028E+03   -0.26796E-02   -0.25267E-02 10962   0.458E-02-0.661E-03
CGA:   9    -0.357492543104E+03   -0.11691E-02   -0.11274E-02 10962   0.164E-02-0.206E-03
CGA:  10    -0.357492940877E+03   -0.39777E-03   -0.39470E-03 10962   0.538E-03-0.153E-04
CGA:  11    -0.357493095729E+03   -0.15485E-03   -0.15476E-03 10962   0.222E-03-0.714E-06
CGA:  12    -0.357493170450E+03   -0.74721E-04   -0.75833E-04 10962   0.143E-03 0.119E-04
CGA:  13    -0.357493254505E+03   -0.84055E-04   -0.87919E-04 10962   0.228E-03-0.249E-04
CGA:  14    -0.357493164636E+03    0.89869E-04   -0.29226E-03 10962   0.181E-02-0.339E-03
CGA:  15    -0.357493755027E+03   -0.59039E-03   -0.56431E-03 10962   0.555E-03-0.142E-03
CGA:  16    -0.357494033988E+03   -0.27896E-03   -0.29963E-03 10962   0.531E-03-0.206E-03
CGA:  17    -0.357494198194E+03   -0.16421E-03   -0.16436E-03 10962   0.339E-03-0.101E-03
CGA:  18    -0.357494352821E+03   -0.15463E-03   -0.16599E-03 10962   0.540E-03-0.987E-04
CGA:  19    -0.357494456325E+03   -0.10350E-03   -0.12178E-03 10962   0.364E-03 0.103E-03
CGA:  20    -0.357494567821E+03   -0.11150E-03   -0.13809E-03 10962   0.295E-03 0.157E-03
CGA:  21    -0.357494714019E+03   -0.14620E-03   -0.15644E-03 10962   0.257E-03 0.928E-04
CGA:  22    -0.357494894619E+03   -0.18060E-03   -0.17520E-03 10962   0.305E-03 0.119E-03
CGA:  23    -0.357495238977E+03   -0.34436E-03   -0.32449E-03 10962   0.879E-03 0.684E-04
CGA:  24    -0.357495355566E+03   -0.11659E-03   -0.12950E-02 10962   0.639E-02-0.158E-02
CGA:  25    -0.357497320345E+03   -0.19648E-02   -0.20225E-02 10962   0.175E-02 0.276E-03
CGA:  26    -0.357497892847E+03   -0.57250E-03   -0.53748E-03 10962   0.715E-03-0.160E-03
CGA:  27    -0.357498212442E+03   -0.31960E-03   -0.31946E-03 10962   0.274E-03-0.132E-04
CGA:  28    -0.357498335443E+03   -0.12300E-03   -0.12009E-03 10962   0.165E-03-0.522E-04
CGA:  29    -0.357498384197E+03   -0.48754E-04   -0.50208E-04 10962   0.773E-04 0.115E-04
CGA:  30    -0.357498402252E+03   -0.18055E-04   -0.25483E-04 10962   0.419E-04 0.400E-04
CGA:  31    -0.357498424148E+03   -0.21897E-04   -0.21620E-04 10962   0.392E-04 0.850E-05
CGA:  32    -0.357498428461E+03   -0.43127E-05   -0.12247E-04 10962   0.236E-04 0.350E-04
CGA:  33    -0.357498438201E+03   -0.97402E-05   -0.10206E-04 10962   0.191E-04 0.109E-04
CGA:  34    -0.357498475705E+03   -0.37503E-04   -0.27427E-04 10962   0.222E-04 0.193E-04
CGA:  35    -0.357498488418E+03   -0.12714E-04   -0.12323E-04 10962   0.139E-04 0.678E-05
CGA:  36    -0.357498500096E+03   -0.11678E-04   -0.10549E-04 10962   0.144E-04 0.138E-04
CGA:  37    -0.357498513212E+03   -0.13116E-04   -0.11741E-04 10962   0.159E-04 0.427E-05
CGA:  38    -0.357498541223E+03   -0.28011E-04   -0.35265E-04 10962   0.181E-03-0.650E-05
CGA:  39    -0.357498550593E+03   -0.93698E-05   -0.22422E-04 10962   0.336E-03 0.135E-04
CGA:  40    -0.357498588217E+03   -0.37624E-04   -0.70432E-04 10962   0.111E-03 0.589E-04
CGA:  41    -0.357498599503E+03   -0.11286E-04   -0.23433E-04 10962   0.596E-04 0.280E-04
CGA:  42    -0.357498615854E+03   -0.16352E-04   -0.18741E-04 10962   0.264E-04 0.619E-05
CGA:  43    -0.357498626218E+03   -0.10364E-04   -0.74204E-05 10962   0.111E-04-0.121E-04
CGA:  44    -0.357498624982E+03    0.12362E-05   -0.44733E-06 10962   0.840E-05 0.393E-05
  14 F= -.35749862E+03 E0= -.35749862E+03  d E =-.215434E+00  mag=    12.0000
       N       E                     dE             d eps       ncg     rms          ort
SDA:   1    -0.357395779888E+03    0.10285E+00    0.00000E+00 10962   0.291E+00 0.000E+00
CGA:   2    -0.357479292038E+03   -0.83512E-01   -0.83369E-01 10962   0.135E+00-0.772E-03
CGA:   3    -0.357500149964E+03   -0.20858E-01   -0.20744E-01 10962   0.492E-01-0.394E-03
CGA:   4    -0.357508498599E+03   -0.83486E-02   -0.83025E-02 10962   0.122E-01-0.179E-03
CGA:   5    -0.357510462061E+03   -0.19635E-02   -0.19630E-02 10962   0.350E-02-0.207E-05
CGA:   6    -0.357511166491E+03   -0.70443E-03   -0.68873E-03 10962   0.137E-02-0.742E-04
CGA:   7    -0.357511547349E+03   -0.38086E-03   -0.34920E-03 10962   0.748E-03-0.231E-03
CGA:   8    -0.357511757585E+03   -0.21024E-03   -0.18754E-03 10962   0.491E-03-0.257E-03
CGA:   9    -0.357511850556E+03   -0.92971E-04   -0.80626E-04 10962   0.192E-03-0.914E-04
CGA:  10    -0.357511876171E+03   -0.25615E-04   -0.29938E-04 10962   0.618E-04 0.231E-04
CGA:  11    -0.357511880133E+03   -0.39621E-05   -0.10144E-04 10962   0.269E-04 0.278E-04
  15 F= -.35751188E+03 E0= -.35751188E+03  d E =-.132552E-01  mag=    12.0000
       N       E                     dE             d eps       ncg     rms          ort
SDA:   1    -0.357366196349E+03    0.14568E+00    0.00000E+00 10962   0.415E+00 0.000E+00
CGA:   2    -0.357472562858E+03   -0.10637E+00   -0.10633E+00 10962   0.241E+00-0.468E-03
CGA:   3    -0.357508337008E+03   -0.35774E-01   -0.35703E-01 10962   0.701E-01-0.420E-03
CGA:   4    -0.357519999202E+03   -0.11662E-01   -0.11632E-01 10962   0.183E-01-0.191E-03
CGA:   5    -0.357522925754E+03   -0.29266E-02   -0.29265E-02 10962   0.477E-02-0.224E-05
CGA:   6    -0.357523820695E+03   -0.89494E-03   -0.88851E-03 10962   0.166E-02-0.500E-04
CGA:   7    -0.357524222791E+03   -0.40210E-03   -0.39093E-03 10962   0.747E-03-0.156E-03
CGA:   8    -0.357524417184E+03   -0.19439E-03   -0.19039E-03 10962   0.431E-03-0.166E-03
CGA:   9    -0.357524508723E+03   -0.91540E-04   -0.88945E-04 10962   0.177E-03-0.674E-04
CGA:  10    -0.357524540077E+03   -0.31354E-04   -0.32364E-04 10962   0.507E-04 0.118E-04
CGA:  11    -0.357524547436E+03   -0.73592E-05   -0.95242E-05 10962   0.182E-04 0.177E-04
  16 F= -.35752455E+03 E0= -.35752455E+03  d E =-.126673E-01  mag=    12.0000
       N       E                     dE             d eps       ncg     rms          ort
SDA:   1    -0.357446819026E+03    0.77721E-01    0.00000E+00 10962   0.232E+00 0.000E+00
CGA:   2    -0.357499562151E+03   -0.52743E-01   -0.52754E-01 10962   0.143E+00 0.107E-03
CGA:   3    -0.357521665835E+03   -0.22104E-01   -0.22096E-01 10962   0.407E-01-0.977E-04
CGA:   4    -0.357528178737E+03   -0.65129E-02   -0.65056E-02 10962   0.102E-01-0.707E-04
CGA:   5    -0.357529793460E+03   -0.16147E-02   -0.16158E-02 10962   0.257E-02 0.799E-05
CGA:   6    -0.357530251158E+03   -0.45770E-03   -0.45736E-03 10962   0.813E-03-0.432E-05
CGA:   7    -0.357530424943E+03   -0.17378E-03   -0.17351E-03 10962   0.297E-03-0.613E-05
CGA:   8    -0.357530490782E+03   -0.65840E-04   -0.66299E-04 10962   0.117E-03 0.144E-04
CGA:   9    -0.357530519696E+03   -0.28913E-04   -0.29219E-04 10962   0.443E-04 0.177E-04
CGA:  10    -0.357530531834E+03   -0.12139E-04   -0.12276E-04 10962   0.170E-04 0.100E-04
CGA:  11    -0.357530536559E+03   -0.47252E-05   -0.48479E-05 10962   0.711E-05 0.581E-05
  17 F= -.35753054E+03 E0= -.35753054E+03  d E =-.598912E-02  mag=    12.0000
       N       E                     dE             d eps       ncg     rms          ort
SDA:   1    -0.356768311361E+03    0.76222E+00    0.00000E+00 10962   0.220E+01 0.000E+00
CGA:   2    -0.357240152584E+03   -0.47184E+00   -0.47197E+00 10962   0.133E+01 0.183E-02
CGA:   3    -0.357452252345E+03   -0.21210E+00   -0.21214E+00 10962   0.392E+00 0.130E-03
CGA:   4    -0.357514493072E+03   -0.62241E-01   -0.62220E-01 10962   0.963E-01-0.256E-03
CGA:   5    -0.357529602620E+03   -0.15110E-01   -0.15120E-01 10962   0.237E-01 0.916E-04
CGA:   6    -0.357533706709E+03   -0.41041E-02   -0.41105E-02 10962   0.707E-02 0.954E-04
CGA:   7    -0.357535168476E+03   -0.14618E-02   -0.14651E-02 10962   0.236E-02 0.119E-03
CGA:   8    -0.357535684036E+03   -0.51556E-03   -0.51855E-03 10962   0.876E-03 0.186E-03
CGA:   9    -0.357535913954E+03   -0.22992E-03   -0.22854E-03 10962   0.345E-03 0.136E-03
CGA:  10    -0.357536022546E+03   -0.10859E-03   -0.10707E-03 10962   0.146E-03 0.421E-04
CGA:  11    -0.357536070278E+03   -0.47732E-04   -0.47370E-04 10962   0.623E-04 0.659E-05
CGA:  12    -0.357536093190E+03   -0.22912E-04   -0.27254E-04 10962   0.517E-04-0.238E-04
CGA:  13    -0.357536099573E+03   -0.63828E-05   -0.18424E-04 10962   0.769E-04-0.363E-04
CGA:  14    -0.357536114317E+03   -0.14744E-04   -0.15798E-04 10962   0.187E-04 0.184E-04
CGA:  15    -0.357536121281E+03   -0.69633E-05   -0.67330E-05 10962   0.873E-05 0.731E-05
  18 F= -.35753612E+03 E0= -.35753612E+03  d E =-.558472E-02  mag=    12.0000
       N       E                     dE             d eps       ncg     rms          ort
SDA:   1    -0.357146091666E+03    0.39002E+00    0.00000E+00 10962   0.112E+01 0.000E+00
CGA:   2    -0.357384747943E+03   -0.23866E+00   -0.23872E+00 10962   0.646E+00 0.582E-03
CGA:   3    -0.357487714897E+03   -0.10297E+00   -0.10295E+00 10962   0.202E+00-0.342E-03
CGA:   4    -0.357520631462E+03   -0.32917E-01   -0.32881E-01 10962   0.501E-01-0.414E-03
CGA:   5    -0.357528495447E+03   -0.78640E-02   -0.78673E-02 10962   0.125E-01 0.220E-04
CGA:   6    -0.357530711188E+03   -0.22157E-02   -0.22197E-02 10962   0.387E-02 0.578E-04
CGA:   7    -0.357531553618E+03   -0.84243E-03   -0.84112E-03 10962   0.144E-02-0.562E-04
CGA:   8    -0.357531906770E+03   -0.35315E-03   -0.35407E-03 10962   0.662E-03-0.841E-04
CGA:   9    -0.357532079930E+03   -0.17316E-03   -0.17505E-03 10962   0.311E-03-0.460E-04
CGA:  10    -0.357532157461E+03   -0.77531E-04   -0.77527E-04 10962   0.114E-03 0.228E-06
CGA:  11    -0.357532186969E+03   -0.29508E-04   -0.29317E-04 10962   0.404E-04 0.133E-04
CGA:  12    -0.357532199153E+03   -0.12184E-04   -0.11992E-04 10962   0.182E-04 0.870E-05
CGA:  13    -0.357532204413E+03   -0.52602E-05   -0.53034E-05 10962   0.109E-04 0.975E-05
  19 F= -.35753220E+03 E0= -.35753220E+03  d E =0.391687E-02  mag=    12.0000
       N       E                     dE             d eps       ncg     rms          ort
SDA:   1    -0.357335003593E+03    0.19720E+00    0.00000E+00 10962   0.562E+00 0.000E+00
CGA:   2    -0.357465776584E+03   -0.13077E+00   -0.13078E+00 10962   0.330E+00 0.555E-03
CGA:   3    -0.357516773573E+03   -0.50997E-01   -0.51000E-01 10962   0.101E+00-0.375E-04
CGA:   4    -0.357533153029E+03   -0.16379E-01   -0.16367E-01 10962   0.250E-01-0.179E-03
CGA:   5    -0.357537160472E+03   -0.40074E-02   -0.40111E-02 10962   0.674E-02 0.441E-04
CGA:   6    -0.357538358212E+03   -0.11977E-02   -0.12033E-02 10962   0.213E-02 0.107E-03
CGA:   7    -0.357538816878E+03   -0.45867E-03   -0.45982E-03 10962   0.815E-03 0.767E-04
CGA:   8    -0.357539020461E+03   -0.20358E-03   -0.20315E-03 10962   0.350E-03 0.319E-04
CGA:   9    -0.357539122003E+03   -0.10154E-03   -0.10154E-03 10962   0.166E-03 0.365E-07
CGA:  10    -0.357539168416E+03   -0.46413E-04   -0.46389E-04 10962   0.683E-04 0.505E-06
CGA:  11    -0.357539186839E+03   -0.18423E-04   -0.18165E-04 10962   0.267E-04 0.800E-05
CGA:  12    -0.357539196769E+03   -0.99299E-05   -0.97634E-05 10962   0.160E-04 0.183E-05
  20 F= -.35753920E+03 E0= -.35753920E+03  d E =-.699236E-02  mag=    12.0000
       N       E                     dE             d eps       ncg     rms          ort
SDA:   1    -0.357237113699E+03    0.30207E+00    0.00000E+00 10962   0.766E+00 0.000E+00
CGA:   2    -0.357453411793E+03   -0.21630E+00   -0.21623E+00 10962   0.372E+00 0.186E-02
CGA:   3    -0.357511574292E+03   -0.58162E-01   -0.58185E-01 10962   0.125E+00 0.141E-03
CGA:   4    -0.357531270190E+03   -0.19696E-01   -0.19682E-01 10962   0.293E-01-0.182E-03
CGA:   5    -0.357536045825E+03   -0.47756E-02   -0.47747E-02 10962   0.860E-02-0.172E-04
CGA:   6    -0.357537615522E+03   -0.15697E-02   -0.15773E-02 10962   0.280E-02 0.139E-03
CGA:   7    -0.357538203147E+03   -0.58762E-03   -0.59342E-03 10962   0.108E-02 0.217E-03
CGA:   8    -0.357538464779E+03   -0.26163E-03   -0.26309E-03 10962   0.440E-03 0.173E-03
CGA:   9    -0.357538598708E+03   -0.13393E-03   -0.13212E-03 10962   0.203E-03 0.705E-04
CGA:  10    -0.357538668367E+03   -0.69659E-04   -0.69444E-04 10962   0.101E-03 0.373E-05
CGA:  11    -0.357538702079E+03   -0.33712E-04   -0.35189E-04 10962   0.588E-04-0.142E-04
CGA:  12    -0.357538706184E+03   -0.41045E-05   -0.36207E-04 10962   0.180E-03-0.676E-04
CGA:  13    -0.357538744880E+03   -0.38696E-04   -0.38487E-04 10962   0.345E-04-0.398E-05
CGA:  14    -0.357538759052E+03   -0.14173E-04   -0.16429E-04 10962   0.314E-04-0.101E-04
CGA:  15    -0.357538768236E+03   -0.91832E-05   -0.92087E-05 10962   0.155E-04-0.113E-06
CGA:  16    -0.357538775529E+03   -0.72938E-05   -0.10255E-04 10962   0.238E-04-0.769E-05
  21 F= -.35753878E+03 E0= -.35753878E+03  d E =0.421239E-03  mag=    12.0000
       N       E                     dE             d eps       ncg     rms          ort
SDA:   1    -0.357134484638E+03    0.40428E+00    0.00000E+00 10962   0.108E+01 0.000E+00
CGA:   2    -0.357413939367E+03   -0.27945E+00   -0.27953E+00 10962   0.559E+00 0.131E-02
CGA:   3    -0.357501326845E+03   -0.87387E-01   -0.87390E-01 10962   0.180E+00-0.565E-04
CGA:   4    -0.357529653273E+03   -0.28326E-01   -0.28290E-01 10962   0.422E-01-0.315E-03
CGA:   5    -0.357536423345E+03   -0.67701E-02   -0.67616E-02 10962   0.117E-01-0.761E-04
CGA:   6    -0.357538537671E+03   -0.21143E-02   -0.21216E-02 10962   0.373E-02 0.717E-04
CGA:   7    -0.357539312999E+03   -0.77533E-03   -0.78289E-03 10962   0.142E-02 0.112E-03
CGA:   8    -0.357539659480E+03   -0.34648E-03   -0.34928E-03 10962   0.611E-03 0.860E-04
CGA:   9    -0.357539836925E+03   -0.17745E-03   -0.17733E-03 10962   0.281E-03 0.339E-04
CGA:  10    -0.357539922114E+03   -0.85189E-04   -0.85147E-04 10962   0.123E-03 0.258E-05
CGA:  11    -0.357539957076E+03   -0.34962E-04   -0.34911E-04 10962   0.477E-04 0.472E-05
CGA:  12    -0.357539972457E+03   -0.15382E-04   -0.15341E-04 10962   0.227E-04 0.105E-05
CGA:  13    -0.357539982103E+03   -0.96452E-05   -0.10474E-04 10962   0.185E-04-0.467E-05
  22 F= -.35753998E+03 E0= -.35753998E+03  d E =-.120657E-02  mag=    12.0000
       N       E                     dE             d eps       ncg     rms          ort
SDA:   1    -0.354126112770E+03    0.34139E+01    0.00000E+00 10962   0.864E+01 0.000E+00
CGA:   2    -0.356524913112E+03   -0.23988E+01   -0.23988E+01 10962   0.442E+01 0.237E-02
CGA:   3    -0.357204898449E+03   -0.67999E+00   -0.67998E+00 10962   0.137E+01-0.519E-03
CGA:   4    -0.357419528129E+03   -0.21463E+00   -0.21449E+00 10962   0.307E+00-0.140E-02
CGA:   5    -0.357469685999E+03   -0.50158E-01   -0.50153E-01 10962   0.885E-01-0.966E-04
CGA:   6    -0.357485965180E+03   -0.16279E-01   -0.16289E-01 10962   0.289E-01 0.111E-03
CGA:   7    -0.357492268231E+03   -0.63031E-02   -0.62887E-02 10962   0.117E-01-0.317E-03
CGA:   8    -0.357495274970E+03   -0.30067E-02   -0.30062E-02 10962   0.562E-02-0.497E-03
CGA:   9    -0.357496783960E+03   -0.15090E-02   -0.15146E-02 10962   0.256E-02-0.279E-03
CGA:  10    -0.357497444125E+03   -0.66017E-03   -0.66057E-03 10962   0.928E-03-0.462E-04
CGA:  11    -0.357497687520E+03   -0.24339E-03   -0.24317E-03 10962   0.321E-03 0.544E-04
CGA:  12    -0.357497776357E+03   -0.88837E-04   -0.88921E-04 10962   0.137E-03 0.681E-04
CGA:  13    -0.357497816557E+03   -0.40200E-04   -0.41154E-04 10962   0.755E-04 0.652E-04
CGA:  14    -0.357497838229E+03   -0.21672E-04   -0.24263E-04 10962   0.471E-04 0.584E-04
CGA:  15    -0.357497853401E+03   -0.15172E-04   -0.14256E-04 10962   0.262E-04 0.212E-04
CGA:  16    -0.357497867160E+03   -0.13759E-04   -0.12216E-04 10962   0.212E-04 0.258E-04
CGA:  17    -0.357497872892E+03   -0.57317E-05   -0.56850E-05 10962   0.150E-04 0.150E-04
  23 F= -.35749787E+03 E0= -.35749787E+03  d E =0.421092E-01  mag=    12.0000
       N       E                     dE             d eps       ncg     rms          ort
SDA:   1    -0.356570857614E+03    0.92701E+00    0.00000E+00 10962   0.233E+01 0.000E+00
CGA:   2    -0.357259092694E+03   -0.68824E+00   -0.68829E+00 10962   0.119E+01-0.231E-02
CGA:   3    -0.357439805745E+03   -0.18071E+00   -0.18062E+00 10962   0.380E+00-0.637E-03
CGA:   4    -0.357500511127E+03   -0.60705E-01   -0.60635E-01 10962   0.916E-01-0.722E-03
CGA:   5    -0.357516043374E+03   -0.15532E-01   -0.15492E-01 10962   0.288E-01-0.446E-03
CGA:   6    -0.357521462985E+03   -0.54196E-02   -0.53927E-02 10962   0.100E-01-0.384E-03
CGA:   7    -0.357523753114E+03   -0.22901E-02   -0.22782E-02 10962   0.447E-02-0.487E-03
CGA:   8    -0.357524849215E+03   -0.10961E-02   -0.10985E-02 10962   0.197E-02-0.457E-03
CGA:   9    -0.357525329618E+03   -0.48040E-03   -0.48489E-03 10962   0.834E-03-0.210E-03
CGA:  10    -0.357525520678E+03   -0.19106E-03   -0.19116E-03 10962   0.269E-03-0.474E-04
CGA:  11    -0.357525592011E+03   -0.71333E-04   -0.71539E-04 10962   0.947E-04-0.730E-05
CGA:  12    -0.357525614025E+03   -0.22014E-04   -0.22277E-04 10962   0.349E-04 0.185E-04
CGA:  13    -0.357525620582E+03   -0.65568E-05   -0.79072E-05 10962   0.181E-04 0.205E-04
  24 F= -.35752562E+03 E0= -.35752562E+03  d E =-.277477E-01  mag=    12.0000
       N       E                     dE             d eps       ncg     rms          ort
SDA:   1    -0.357111432377E+03    0.41418E+00    0.00000E+00 10962   0.113E+01 0.000E+00
CGA:   2    -0.357418807281E+03   -0.30737E+00   -0.30732E+00 10962   0.546E+00 0.217E-02
CGA:   3    -0.357503462033E+03   -0.84655E-01   -0.84768E-01 10962   0.187E+00 0.107E-02
CGA:   4    -0.357533714234E+03   -0.30252E-01   -0.30301E-01 10962   0.445E-01 0.529E-03
CGA:   5    -0.357540997469E+03   -0.72832E-02   -0.72860E-02 10962   0.130E-01 0.250E-04
CGA:   6    -0.357543405879E+03   -0.24084E-02   -0.24123E-02 10962   0.453E-02 0.709E-04
CGA:   7    -0.357544321720E+03   -0.91584E-03   -0.92780E-03 10962   0.166E-02 0.369E-03
CGA:   8    -0.357544667693E+03   -0.34597E-03   -0.35976E-03 10962   0.606E-03 0.409E-03
CGA:   9    -0.357544818604E+03   -0.15091E-03   -0.15669E-03 10962   0.258E-03 0.228E-03
CGA:  10    -0.357544902068E+03   -0.83465E-04   -0.83202E-04 10962   0.116E-03 0.871E-04
CGA:  11    -0.357544949203E+03   -0.47135E-04   -0.46135E-04 10962   0.590E-04 0.151E-04
CGA:  12    -0.357544973333E+03   -0.24130E-04   -0.28198E-04 10962   0.499E-04-0.216E-04
CGA:  13    -0.357544796456E+03    0.17688E-03   -0.95259E-04 10962   0.712E-03-0.173E-03
CGA:  14    -0.357544944488E+03   -0.14803E-03   -0.15495E-03 10962   0.135E-03 0.302E-04
CGA:  15    -0.357544996391E+03   -0.51903E-04   -0.52883E-04 10962   0.605E-04 0.171E-04
CGA:  16    -0.357545008363E+03   -0.11973E-04   -0.17744E-04 10962   0.260E-04 0.337E-04
CGA:  17    -0.357545023801E+03   -0.15438E-04   -0.18157E-04 10962   0.392E-04-0.987E-05
CGA:  18    -0.357545024416E+03   -0.61508E-06   -0.40589E-05 10962   0.251E-04 0.128E-04
  25 F= -.35754502E+03 E0= -.35754502E+03  d E =-.194038E-01  mag=    12.0000
       N       E                     dE             d eps       ncg     rms          ort
SDA:   1    -0.357408605133E+03    0.13642E+00    0.00000E+00 10962   0.357E+00 0.000E+00
CGA:   2    -0.357501667698E+03   -0.93063E-01   -0.93216E-01 10962   0.192E+00 0.872E-03
CGA:   3    -0.357530430053E+03   -0.28762E-01   -0.28908E-01 10962   0.621E-01 0.559E-03
CGA:   4    -0.357540810652E+03   -0.10381E-01   -0.10440E-01 10962   0.163E-01 0.253E-03
CGA:   5    -0.357543428456E+03   -0.26178E-02   -0.26173E-02 10962   0.447E-02-0.635E-05
CGA:   6    -0.357544257501E+03   -0.82905E-03   -0.83578E-03 10962   0.164E-02 0.368E-04
CGA:   7    -0.357544550615E+03   -0.29311E-03   -0.32663E-03 10962   0.575E-03 0.208E-03
CGA:   8    -0.357544626931E+03   -0.76315E-04   -0.11337E-03 10962   0.209E-03 0.212E-03
CGA:   9    -0.357544652110E+03   -0.25179E-04   -0.46718E-04 10962   0.945E-04 0.121E-03
CGA:  10    -0.357544683207E+03   -0.31097E-04   -0.31116E-04 10962   0.708E-04 0.575E-05
CGA:  11    -0.357544693984E+03   -0.10777E-04   -0.15111E-04 10962   0.256E-04 0.330E-04
CGA:  12    -0.357544695784E+03   -0.18005E-05   -0.55126E-05 10962   0.123E-04 0.207E-04
  26 F= -.35754470E+03 E0= -.35754470E+03  d E =0.328632E-03  mag=    12.0000
       N       E                     dE             d eps       ncg     rms          ort
SDA:   1    -0.357448955773E+03    0.95738E-01    0.00000E+00 10962   0.237E+00 0.000E+00
CGA:   2    -0.357521580273E+03   -0.72625E-01   -0.72626E-01 10962   0.113E+00 0.108E-03
CGA:   3    -0.357538344682E+03   -0.16764E-01   -0.16749E-01 10962   0.340E-01-0.106E-03
CGA:   4    -0.357543535823E+03   -0.51911E-02   -0.51710E-02 10962   0.736E-02-0.137E-03
CGA:   5    -0.357544737623E+03   -0.12018E-02   -0.11933E-02 10962   0.223E-02-0.627E-04
CGA:   6    -0.357545130420E+03   -0.39280E-03   -0.38969E-03 10962   0.681E-03-0.268E-04
CGA:   7    -0.357545279497E+03   -0.14908E-03   -0.14695E-03 10962   0.267E-03-0.307E-04
CGA:   8    -0.357545351993E+03   -0.72496E-04   -0.72501E-04 10962   0.158E-03-0.386E-04
CGA:   9    -0.357545392540E+03   -0.40547E-04   -0.41060E-04 10962   0.861E-04-0.259E-04
CGA:  10    -0.357545414524E+03   -0.21984E-04   -0.22382E-04 10962   0.395E-04-0.157E-04
CGA:  11    -0.357545423791E+03   -0.92667E-05   -0.92677E-05 10962   0.157E-04-0.310E-05
  27 F= -.35754542E+03 E0= -.35754542E+03  d E =-.728007E-03  mag=    12.0000
       N       E                     dE             d eps       ncg     rms          ort
SDA:   1    -0.355144841932E+03    0.24006E+01    0.00000E+00 10962   0.590E+01 0.000E+00
CGA:   2    -0.356918240206E+03   -0.17734E+01   -0.17735E+01 10962   0.267E+01-0.320E-02
CGA:   3    -0.357335302948E+03   -0.41706E+00   -0.41679E+00 10962   0.889E+00-0.712E-03
CGA:   4    -0.357471980637E+03   -0.13668E+00   -0.13656E+00 10962   0.181E+00-0.121E-02
CGA:   5    -0.357502577455E+03   -0.30597E-01   -0.30556E-01 10962   0.554E-01-0.421E-03
CGA:   6    -0.357512801335E+03   -0.10224E-01   -0.10188E-01 10962   0.186E-01-0.455E-03
CGA:   7    -0.357517019646E+03   -0.42183E-02   -0.41865E-02 10962   0.800E-02-0.917E-03
CGA:   8    -0.357519090222E+03   -0.20706E-02   -0.20852E-02 10962   0.440E-02-0.101E-02
CGA:   9    -0.357520167598E+03   -0.10774E-02   -0.10891E-02 10962   0.206E-02-0.513E-03
CGA:  10    -0.357520645874E+03   -0.47828E-03   -0.47843E-03 10962   0.700E-03-0.863E-04
CGA:  11    -0.357520816605E+03   -0.17073E-03   -0.17106E-03 10962   0.234E-03 0.509E-04
CGA:  12    -0.357520865372E+03   -0.48767E-04   -0.53018E-04 10962   0.959E-04 0.844E-04
CGA:  13    -0.357520880713E+03   -0.15341E-04   -0.21754E-04 10962   0.539E-04 0.698E-04
CGA:  14    -0.357520889242E+03   -0.85296E-05   -0.10577E-04 10962   0.318E-04 0.353E-04
  28 F= -.35752089E+03 E0= -.35752089E+03  d E =0.245345E-01  mag=    12.0000
       N       E                     dE             d eps       ncg     rms          ort
SDA:   1    -0.357137993686E+03    0.38289E+00    0.00000E+00 10962   0.105E+01 0.000E+00
CGA:   2    -0.357409050852E+03   -0.27106E+00   -0.27104E+00 10962   0.563E+00 0.176E-02
CGA:   3    -0.357496604053E+03   -0.87553E-01   -0.87652E-01 10962   0.189E+00 0.937E-03
CGA:   4    -0.357527174428E+03   -0.30570E-01   -0.30591E-01 10962   0.446E-01 0.202E-03
CGA:   5    -0.357534613603E+03   -0.74392E-02   -0.74383E-02 10962   0.137E-01-0.201E-04
CGA:   6    -0.357537152188E+03   -0.25386E-02   -0.25451E-02 10962   0.474E-02 0.126E-03
CGA:   7    -0.357538132761E+03   -0.98057E-03   -0.98940E-03 10962   0.180E-02 0.328E-03
CGA:   8    -0.357538538838E+03   -0.40608E-03   -0.41200E-03 10962   0.675E-03 0.330E-03
CGA:   9    -0.357538720817E+03   -0.18198E-03   -0.18251E-03 10962   0.280E-03 0.169E-03
CGA:  10    -0.357538813955E+03   -0.93138E-04   -0.91681E-04 10962   0.125E-03 0.481E-04
CGA:  11    -0.357538858641E+03   -0.44686E-04   -0.44449E-04 10962   0.618E-04 0.330E-05
CGA:  12    -0.357538880897E+03   -0.22256E-04   -0.25274E-04 10962   0.453E-04-0.187E-04
CGA:  13    -0.357538751813E+03    0.12908E-03   -0.69725E-04 10962   0.617E-03-0.137E-03
CGA:  14    -0.357538877439E+03   -0.12563E-03   -0.13149E-03 10962   0.939E-04 0.251E-04
CGA:  15    -0.357538910602E+03   -0.33163E-04   -0.34045E-04 10962   0.363E-04 0.102E-04
CGA:  16    -0.357538917743E+03   -0.71416E-05   -0.10490E-04 10962   0.165E-04 0.198E-04
CGA:  17    -0.357538928059E+03   -0.10315E-04   -0.11342E-04 10962   0.224E-04-0.390E-05
CGA:  18    -0.357538931290E+03   -0.32308E-05   -0.43880E-05 10962   0.113E-04 0.648E-05
  29 F= -.35753893E+03 E0= -.35753893E+03  d E =-.180420E-01  mag=    12.0000
       N       E                     dE             d eps       ncg     rms          ort
SDA:   1    -0.357180830092E+03    0.35810E+00    0.00000E+00 10962   0.903E+00 0.000E+00
CGA:   2    -0.357449753546E+03   -0.26892E+00   -0.26910E+00 10962   0.448E+00 0.948E-03
CGA:   3    -0.357516213056E+03   -0.66460E-01   -0.66542E-01 10962   0.140E+00 0.286E-03
CGA:   4    -0.357538555797E+03   -0.22343E-01   -0.22360E-01 10962   0.305E-01 0.766E-04
CGA:   5    -0.357543634852E+03   -0.50791E-02   -0.50817E-02 10962   0.921E-02 0.433E-05
CGA:   6    -0.357545319199E+03   -0.16843E-02   -0.17008E-02 10962   0.318E-02 0.839E-04
CGA:   7    -0.357545935653E+03   -0.61645E-03   -0.65096E-03 10962   0.114E-02 0.209E-03
CGA:   8    -0.357546165660E+03   -0.23001E-03   -0.25971E-03 10962   0.448E-03 0.204E-03
CGA:   9    -0.357546279769E+03   -0.11411E-03   -0.12614E-03 10962   0.190E-03 0.106E-03
CGA:  10    -0.357546340533E+03   -0.60765E-04   -0.62874E-04 10962   0.862E-04 0.269E-04
CGA:  11    -0.357546368776E+03   -0.28243E-04   -0.28414E-04 10962   0.376E-04 0.320E-05
CGA:  12    -0.357546384282E+03   -0.15506E-04   -0.19011E-04 10962   0.454E-04-0.238E-04
CGA:  13    -0.357546397393E+03   -0.13111E-04   -0.12342E-04 10962   0.153E-04-0.102E-04
CGA:  14    -0.357546300699E+03    0.96695E-04   -0.52088E-04 10962   0.609E-03-0.654E-04
CGA:  15    -0.357546407861E+03   -0.10716E-03   -0.11093E-03 10962   0.388E-04 0.840E-05
CGA:  16    -0.357546419424E+03   -0.11563E-04   -0.12818E-04 10962   0.602E-05 0.451E-05
CGA:  17    -0.357546418813E+03    0.61058E-06   -0.10826E-05 10962   0.265E-05 0.395E-05
  30 F= -.35754642E+03 E0= -.35754642E+03  d E =-.748752E-02  mag=    12.0000
       N       E                     dE             d eps       ncg     rms          ort
SDA:   1    -0.357345263172E+03    0.20116E+00    0.00000E+00 10962   0.507E+00 0.000E+00
CGA:   2    -0.357497323613E+03   -0.15206E+00   -0.15218E+00 10962   0.241E+00 0.381E-03
CGA:   3    -0.357533846768E+03   -0.36523E-01   -0.36517E-01 10962   0.758E-01 0.106E-05
CGA:   4    -0.357545296712E+03   -0.11450E-01   -0.11411E-01 10962   0.158E-01-0.130E-03
CGA:   5    -0.357547937614E+03   -0.26409E-02   -0.26323E-02 10962   0.480E-02-0.286E-04
CGA:   6    -0.357548786115E+03   -0.84850E-03   -0.85678E-03 10962   0.148E-02 0.266E-04
CGA:   7    -0.357549088580E+03   -0.30247E-03   -0.31051E-03 10962   0.546E-03 0.308E-04
CGA:   8    -0.357549221813E+03   -0.13323E-03   -0.13711E-03 10962   0.246E-03 0.186E-04
CGA:   9    -0.357549291038E+03   -0.69226E-04   -0.70739E-04 10962   0.114E-03 0.915E-05
CGA:  10    -0.357549323150E+03   -0.32112E-04   -0.32710E-04 10962   0.446E-04 0.375E-05
CGA:  11    -0.357549337202E+03   -0.14053E-04   -0.13872E-04 10962   0.185E-04-0.146E-05
CGA:  12    -0.357549345113E+03   -0.79110E-05   -0.82687E-05 10962   0.196E-04-0.845E-05
  31 F= -.35754935E+03 E0= -.35754935E+03  d E =-.292630E-02  mag=    12.0000
       N       E                     dE             d eps       ncg     rms          ort
SDA:   1    -0.357408321520E+03    0.14102E+00    0.00000E+00 10962   0.375E+00 0.000E+00
CGA:   2    -0.357511402347E+03   -0.10308E+00   -0.10318E+00 10962   0.172E+00 0.463E-03
CGA:   3    -0.357539395121E+03   -0.27993E-01   -0.27972E-01 10962   0.595E-01-0.770E-04
CGA:   4    -0.357548179439E+03   -0.87843E-02   -0.87278E-02 10962   0.114E-01-0.225E-03
CGA:   5    -0.357550073562E+03   -0.18941E-02   -0.18757E-02 10962   0.341E-02-0.787E-04
CGA:   6    -0.357550682528E+03   -0.60897E-03   -0.60599E-03 10962   0.101E-02-0.146E-04
CGA:   7    -0.357550907456E+03   -0.22493E-03   -0.22127E-03 10962   0.411E-03-0.230E-04
CGA:   8    -0.357551019784E+03   -0.11233E-03   -0.10849E-03 10962   0.229E-03-0.372E-04
CGA:   9    -0.357551082913E+03   -0.63130E-04   -0.61875E-04 10962   0.119E-03-0.178E-04
CGA:  10    -0.357551111793E+03   -0.28879E-04   -0.29023E-04 10962   0.413E-04 0.139E-05
CGA:  11    -0.357551121892E+03   -0.10099E-04   -0.10588E-04 10962   0.137E-04 0.459E-05
CGA:  12    -0.357551124212E+03   -0.23203E-05   -0.31243E-05 10962   0.551E-05 0.541E-05
  32 F= -.35755112E+03 E0= -.35755112E+03  d E =-.177910E-02  mag=    12.0000
       N       E                     dE             d eps       ncg     rms          ort
SDA:   1    -0.297637544887E+03    0.59914E+02    0.00000E+00 10962   0.137E+03 0.000E+00
CGA:   2    -0.339757632462E+03   -0.42120E+02   -0.42152E+02 10962   0.572E+02 0.356E+00
CGA:   3    -0.349573676395E+03   -0.98160E+01   -0.98780E+01 10962   0.205E+02 0.128E+00
CGA:   4    -0.352602671811E+03   -0.30290E+01   -0.30326E+01 10962   0.462E+01 0.537E-01
CGA:   5    -0.353466787761E+03   -0.86412E+00   -0.86345E+00 10962   0.172E+01-0.260E-02
CGA:   6    -0.353788820567E+03   -0.32203E+00   -0.32227E+00 10962   0.619E+00 0.217E-03
CGA:   7    -0.353934399674E+03   -0.14558E+00   -0.14556E+00 10962   0.281E+00-0.707E-03
CGA:   8    -0.354002169954E+03   -0.67770E-01   -0.67672E-01 10962   0.115E+00-0.168E-02
CGA:   9    -0.354032508382E+03   -0.30338E-01   -0.30322E-01 10962   0.445E-01-0.490E-03
CGA:  10    -0.354044099358E+03   -0.11591E-01   -0.11582E-01 10962   0.153E-01-0.264E-03
CGA:  11    -0.354048418055E+03   -0.43187E-02   -0.43171E-02 10962   0.582E-02-0.154E-03
CGA:  12    -0.354050166542E+03   -0.17485E-02   -0.17451E-02 10962   0.273E-02 0.428E-03
CGA:  13    -0.354051197936E+03   -0.10314E-02   -0.10054E-02 10962   0.168E-02 0.535E-03
CGA:  14    -0.354051971154E+03   -0.77322E-03   -0.73378E-03 10962   0.116E-02 0.587E-03
CGA:  15    -0.354052530204E+03   -0.55905E-03   -0.53408E-03 10962   0.752E-03 0.610E-03
CGA:  16    -0.354052831314E+03   -0.30111E-03   -0.29055E-03 10962   0.439E-03 0.125E-03
CGA:  17    -0.354053049685E+03   -0.21837E-03   -0.19532E-03 10962   0.333E-03 0.310E-03
CGA:  18    -0.354053242440E+03   -0.19276E-03   -0.17030E-03 10962   0.329E-03 0.110E-03
CGA:  19    -0.354053370182E+03   -0.12774E-03   -0.13331E-03 10962   0.271E-03 0.324E-03
CGA:  20    -0.354053534661E+03   -0.16448E-03   -0.14613E-03 10962   0.283E-03 0.822E-04
CGA:  21    -0.354053627784E+03   -0.93123E-04   -0.10549E-03 10962   0.226E-03 0.269E-03
CGA:  22    -0.354053762509E+03   -0.13473E-03   -0.11911E-03 10962   0.203E-03 0.776E-04
CGA:  23    -0.354053833698E+03   -0.71188E-04   -0.80395E-04 10962   0.176E-03 0.205E-03
CGA:  24    -0.354053948400E+03   -0.11470E-03   -0.10054E-03 10962   0.195E-03 0.591E-04
CGA:  25    -0.354054006657E+03   -0.58257E-04   -0.71896E-04 10962   0.148E-03 0.186E-03
CGA:  26    -0.354054106341E+03   -0.99684E-04   -0.86607E-04 10962   0.142E-03 0.531E-04
CGA:  27    -0.354054157209E+03   -0.50868E-04   -0.58712E-04 10962   0.124E-03 0.144E-03
CGA:  28    -0.354054247191E+03   -0.89982E-04   -0.82936E-04 10962   0.199E-03 0.216E-04
CGA:  29    -0.354054293120E+03   -0.45929E-04   -0.61604E-04 10962   0.129E-03 0.147E-03
CGA:  30    -0.354054366752E+03   -0.73633E-04   -0.67255E-04 10962   0.751E-04 0.400E-04
CGA:  31    -0.354054426893E+03   -0.60141E-04   -0.49286E-04 10962   0.809E-04 0.842E-04
CGA:  32    -0.354054491588E+03   -0.64694E-04   -0.55889E-04 10962   0.996E-04 0.278E-04
CGA:  33    -0.354054530848E+03   -0.39260E-04   -0.44499E-04 10962   0.851E-04 0.842E-04
CGA:  34    -0.354054584639E+03   -0.53792E-04   -0.71010E-04 10962   0.335E-03-0.394E-04
CGA:  35    -0.354054605761E+03   -0.21122E-04   -0.33495E-04 10962   0.342E-03 0.540E-04
CGA:  36    -0.354054642949E+03   -0.37188E-04   -0.64179E-04 10962   0.227E-03 0.112E-03
CGA:  37    -0.354054727523E+03   -0.84574E-04   -0.93622E-04 10962   0.333E-03 0.113E-03
CGA:  38    -0.354054872929E+03   -0.14541E-03   -0.14621E-03 10962   0.150E-03 0.683E-05
CGA:  39    -0.354054970718E+03   -0.97789E-04   -0.97640E-04 10962   0.355E-03-0.239E-05
CGA:  40    -0.354055031942E+03   -0.61225E-04   -0.77891E-04 10962   0.159E-03 0.942E-04
CGA:  41    -0.354055058265E+03   -0.26322E-04   -0.38387E-04 10962   0.970E-04 0.606E-04
CGA:  42    -0.354055105597E+03   -0.47332E-04   -0.47158E-04 10962   0.510E-04-0.857E-05
CGA:  43    -0.354055146859E+03   -0.41262E-04    0.47626E-04 10962   0.927E-04-0.293E-04
CGA:  44    -0.354055155809E+03   -0.89500E-05   -0.14420E-04 10962   0.178E-04 0.249E-04
CGA:  45    -0.354054955382E+03    0.20043E-03   -0.10801E-03 10962   0.950E-03-0.126E-03
CGA:  46    -0.354055231109E+03   -0.27573E-03   -0.24368E-03 10962   0.240E-03-0.786E-04
CGA:  47    -0.354055266119E+03   -0.35010E-04   -0.46668E-04 10962   0.160E-04 0.271E-04
CGA:  48    -0.354055270971E+03   -0.48520E-05   -0.51426E-05 10962   0.103E-04 0.893E-06
  33 F= -.35405527E+03 E0= -.35405527E+03  d E =0.349585E+01  mag=    12.0000
       N       E                     dE             d eps       ncg     rms          ort
SDA:   1    -0.327442380461E+03    0.26613E+02    0.00000E+00 10962   0.703E+02 0.000E+00
CGA:   2    -0.350799728398E+03   -0.23357E+02   -0.23614E+02 10962   0.199E+02 0.297E+00
CGA:   3    -0.355448928621E+03   -0.46492E+01   -0.47288E+01 10962   0.610E+01 0.334E-01
CGA:   4    -0.356424848432E+03   -0.97592E+00   -0.97603E+00 10962   0.236E+01 0.540E-01
CGA:   5    -0.356893552541E+03   -0.46870E+00   -0.46717E+00 10962   0.759E+00 0.725E-02
CGA:   6    -0.357057977455E+03   -0.16442E+00   -0.16427E+00 10962   0.410E+00-0.200E-02
CGA:   7    -0.357152453026E+03   -0.94476E-01   -0.94207E-01 10962   0.154E+00-0.278E-02
CGA:   8    -0.357189225128E+03   -0.36772E-01   -0.36442E-01 10962   0.645E-01-0.152E-02
CGA:   9    -0.357205300876E+03   -0.16076E-01   -0.15985E-01 10962   0.211E-01-0.371E-03
CGA:  10    -0.357211042103E+03   -0.57412E-02   -0.56539E-02 10962   0.780E-02-0.415E-03
CGA:  11    -0.357213439153E+03   -0.23970E-02   -0.23107E-02 10962   0.358E-02-0.521E-03
CGA:  12    -0.357214764721E+03   -0.13256E-02   -0.13019E-02 10962   0.247E-02-0.335E-03
CGA:  13    -0.357215914326E+03   -0.11496E-02   -0.12013E-02 10962   0.284E-02-0.627E-03
CGA:  14    -0.357217036458E+03   -0.11221E-02   -0.12540E-02 10962   0.320E-02-0.943E-03
CGA:  15    -0.357218054628E+03   -0.10182E-02   -0.10282E-02 10962   0.246E-02-0.702E-03
CGA:  16    -0.357218935733E+03   -0.88111E-03   -0.87153E-03 10962   0.170E-02-0.627E-03
CGA:  17    -0.357219401459E+03   -0.46573E-03   -0.45794E-03 10962   0.877E-03-0.866E-04
CGA:  18    -0.357219683137E+03   -0.28168E-03   -0.29009E-03 10962   0.502E-03 0.695E-04
CGA:  19    -0.357219855281E+03   -0.17214E-03   -0.18606E-03 10962   0.326E-03 0.121E-03
CGA:  20    -0.357219942672E+03   -0.87391E-04   -0.11526E-03 10962   0.194E-03 0.168E-03
CGA:  21    -0.357220008189E+03   -0.65516E-04   -0.70655E-04 10962   0.903E-04 0.662E-04
CGA:  22    -0.357220031206E+03   -0.23017E-04   -0.35047E-04 10962   0.647E-04 0.809E-04
CGA:  23    -0.357220044156E+03   -0.12950E-04   -0.19254E-04 10962   0.459E-04 0.472E-04
CGA:  24    -0.357220048647E+03   -0.44913E-05   -0.11521E-04 10962   0.405E-04 0.406E-04
CGA:  25    -0.357220056624E+03   -0.79765E-05   -0.12073E-04 10962   0.367E-04 0.349E-04
  34 F= -.35722006E+03 E0= -.35722006E+03  d E =-.316479E+01  mag=    12.0000
       N       E                     dE             d eps       ncg     rms          ort
SDA:   1    -0.356961412707E+03    0.25864E+00    0.00000E+00 10962   0.986E+00 0.000E+00
CGA:   2    -0.357277954503E+03   -0.31654E+00   -0.31665E+00 10962   0.341E+00 0.613E-03
CGA:   3    -0.357346934578E+03   -0.68980E-01   -0.69066E-01 10962   0.134E+00 0.428E-03
CGA:   4    -0.357365779157E+03   -0.18845E-01   -0.18896E-01 10962   0.328E-01 0.171E-03
CGA:   5    -0.357372209903E+03   -0.64307E-02   -0.64473E-02 10962   0.116E-01 0.850E-04
CGA:   6    -0.357374281799E+03   -0.20719E-02   -0.20903E-02 10962   0.436E-02 0.984E-04
CGA:   7    -0.357375310069E+03   -0.10283E-02   -0.10466E-02 10962   0.192E-02 0.156E-03
CGA:   8    -0.357375745208E+03   -0.43514E-03   -0.44704E-03 10962   0.736E-03 0.955E-04
CGA:   9    -0.357375948740E+03   -0.20353E-03   -0.20615E-03 10962   0.294E-03 0.342E-04
CGA:  10    -0.357376021390E+03   -0.72649E-04   -0.75299E-04 10962   0.106E-03 0.279E-04
CGA:  11    -0.357376052126E+03   -0.30736E-04   -0.31645E-04 10962   0.476E-04 0.147E-04
CGA:  12    -0.357376074434E+03   -0.22308E-04   -0.22307E-04 10962   0.482E-04-0.620E-07
CGA:  13    -0.357376093532E+03   -0.19098E-04   -0.18474E-04 10962   0.463E-04 0.128E-04
CGA:  14    -0.357376114858E+03   -0.21326E-04   -0.20868E-04 10962   0.422E-04 0.248E-04
CGA:  15    -0.357376126154E+03   -0.11296E-04   -0.11975E-04 10962   0.191E-04 0.123E-04
CGA:  16    -0.357376129351E+03   -0.31974E-05   -0.53478E-05 10962   0.140E-04 0.181E-04
  35 F= -.35737613E+03 E0= -.35737613E+03  d E =-.156073E+00  mag=    12.0000
       N       E                     dE             d eps       ncg     rms          ort
SDA:   1    -0.356131278436E+03    0.12448E+01    0.00000E+00 10962   0.335E+01 0.000E+00
CGA:   2    -0.357185394559E+03   -0.10541E+01   -0.10543E+01 10962   0.120E+01 0.737E-02
CGA:   3    -0.357413614562E+03   -0.22822E+00   -0.22848E+00 10962   0.514E+00 0.136E-02
CGA:   4    -0.357488192427E+03   -0.74578E-01   -0.74679E-01 10962   0.115E+00 0.563E-03
CGA:   5    -0.357509855902E+03   -0.21663E-01   -0.21685E-01 10962   0.410E-01 0.121E-03
CGA:   6    -0.357517443658E+03   -0.75878E-02   -0.76220E-02 10962   0.152E-01 0.261E-03
CGA:   7    -0.357521035200E+03   -0.35915E-02   -0.36224E-02 10962   0.682E-02 0.469E-03
CGA:   8    -0.357522607475E+03   -0.15723E-02   -0.15948E-02 10962   0.256E-02 0.315E-03
CGA:   9    -0.357523315249E+03   -0.70777E-03   -0.71076E-03 10962   0.101E-02 0.101E-03
CGA:  10    -0.357523583921E+03   -0.26867E-03   -0.26974E-03 10962   0.357E-03 0.285E-04
CGA:  11    -0.357523696796E+03   -0.11288E-03   -0.11310E-03 10962   0.164E-03-0.140E-04
CGA:  12    -0.357523761541E+03   -0.64744E-04   -0.73190E-04 10962   0.188E-03-0.491E-04
CGA:  13    -0.357523820418E+03   -0.58877E-04   -0.62287E-04 10962   0.207E-03-0.193E-04
CGA:  14    -0.357523911827E+03   -0.91409E-04   -0.88900E-04 10962   0.224E-03 0.156E-04
CGA:  15    -0.357524009876E+03   -0.98050E-04   -0.92852E-04 10962   0.174E-03 0.786E-04
CGA:  16    -0.357524084550E+03   -0.74673E-04   -0.74893E-04 10962   0.103E-03 0.110E-03
CGA:  17    -0.357524127773E+03   -0.43223E-04   -0.42524E-04 10962   0.593E-04 0.737E-05
CGA:  18    -0.357524151312E+03   -0.23539E-04   -0.22505E-04 10962   0.367E-04 0.370E-04
CGA:  19    -0.357524177264E+03   -0.25952E-04   -0.23717E-04 10962   0.438E-04 0.687E-05
CGA:  20    -0.357524187408E+03   -0.10144E-04   -0.13506E-04 10962   0.345E-04 0.401E-04
CGA:  21    -0.357524212624E+03   -0.25216E-04    0.76187E-04 10962   0.208E-04 0.167E-04
CGA:  22    -0.357524224812E+03   -0.12188E-04   -0.11444E-04 10962   0.240E-04 0.226E-04
CGA:  23    -0.357524241232E+03   -0.16420E-04    0.10137E-02 10962   0.185E-04 0.155E-04
[...]
CGA:   3    -0.357568429544E+03   -0.21839E-01   -0.21831E-01 10962   0.367E-01-0.153E-03
CGA:   4    -0.357573430031E+03   -0.50005E-02   -0.49838E-02 10962   0.772E-02-0.162E-03
CGA:   5    -0.357574852919E+03   -0.14229E-02   -0.14204E-02 10962   0.244E-02-0.452E-04
CGA:   6    -0.357575261074E+03   -0.40815E-03   -0.41017E-03 10962   0.732E-03 0.290E-04
CGA:   7    -0.357575417588E+03   -0.15651E-03   -0.15721E-03 10962   0.276E-03 0.316E-04
CGA:   8    -0.357575492727E+03   -0.75139E-04   -0.75129E-04 10962   0.146E-03 0.303E-06
CGA:   9    -0.357575537155E+03   -0.44428E-04   -0.44975E-04 10962   0.768E-04-0.742E-05
CGA:  10    -0.357575555307E+03   -0.18152E-04   -0.18105E-04 10962   0.258E-04 0.456E-05
CGA:  11    -0.357575561421E+03   -0.61138E-05   -0.61798E-05 10962   0.811E-05 0.529E-05
  47 F= -.35757556E+03 E0= -.35757556E+03  d E =-.118438E-02  mag=    12.0000
       N       E                     dE             d eps       ncg     rms          ort
SDA:   1    -0.349451726164E+03    0.81238E+01    0.00000E+00 10962   0.195E+02 0.000E+00
CGA:   2    -0.355949017031E+03   -0.64973E+01   -0.64956E+01 10962   0.682E+01 0.883E-02
CGA:   3    -0.357182713580E+03   -0.12337E+01   -0.12339E+01 10962   0.201E+01-0.290E-02
CGA:   4    -0.357453654587E+03   -0.27094E+00   -0.27073E+00 10962   0.428E+00-0.231E-02
CGA:   5    -0.357534358937E+03   -0.80704E-01   -0.80669E-01 10962   0.133E+00-0.834E-03
CGA:   6    -0.357557365915E+03   -0.23007E-01   -0.23009E-01 10962   0.415E-01 0.121E-05
CGA:   7    -0.357566697336E+03   -0.93314E-02   -0.93307E-02 10962   0.170E-01-0.326E-03
CGA:   8    -0.357571147985E+03   -0.44506E-02   -0.44776E-02 10962   0.898E-02-0.690E-03
CGA:   9    -0.357573672874E+03   -0.25249E-02   -0.25595E-02 10962   0.424E-02-0.507E-03
CGA:  10    -0.357574767484E+03   -0.10946E-02   -0.11044E-02 10962   0.152E-02-0.221E-03
CGA:  11    -0.357575166019E+03   -0.39854E-03   -0.40144E-03 10962   0.500E-03-0.645E-04
CGA:  12    -0.357575295399E+03   -0.12938E-03   -0.12740E-03 10962   0.186E-03 0.676E-04
CGA:  13    -0.357575354368E+03   -0.58969E-04   -0.57014E-04 10962   0.888E-04 0.607E-04
CGA:  14    -0.357575388409E+03   -0.34041E-04   -0.32472E-04 10962   0.490E-04 0.434E-04
CGA:  15    -0.357575406462E+03   -0.18053E-04   -0.17911E-04 10962   0.263E-04 0.343E-04
CGA:  16    -0.357575419874E+03   -0.13413E-04   -0.12935E-04 10962   0.201E-04 0.188E-05
CGA:  17    -0.357575438796E+03   -0.18922E-04   -0.74686E-06 10962   0.103E-03-0.149E-04
CGA:  18    -0.357575459367E+03   -0.20571E-04   -0.23760E-04 10962   0.187E-04 0.136E-04
CGA:  19    -0.357575237014E+03    0.22235E-03   -0.11972E-03 10962   0.109E-02-0.117E-03
CGA:  20    -0.357575400391E+03   -0.16338E-03   -0.21299E-03 10962   0.240E-03 0.779E-04
CGA:  21    -0.357575515913E+03   -0.11552E-03   -0.96811E-04 10962   0.438E-04-0.451E-04
CGA:  22    -0.357575521648E+03   -0.57348E-05   -0.10008E-04 10962   0.115E-04 0.871E-05
  48 F= -.35757552E+03 E0= -.35757552E+03  d E =0.397731E-04  mag=    12.0000
       N       E                     dE             d eps       ncg     rms          ort
SDA:   1    -0.349044111804E+03    0.85314E+01    0.00000E+00 10962   0.207E+02 0.000E+00
CGA:   2    -0.355722298191E+03   -0.66782E+01   -0.66954E+01 10962   0.735E+01 0.423E-01
CGA:   3    -0.357092667712E+03   -0.13704E+01   -0.13753E+01 10962   0.227E+01 0.525E-01
CGA:   4    -0.357400641482E+03   -0.30797E+00   -0.30720E+00 10962   0.458E+00 0.174E-01
CGA:   5    -0.357489890853E+03   -0.89249E-01   -0.89107E-01 10962   0.148E+00 0.593E-04
CGA:   6    -0.357516199332E+03   -0.26308E-01   -0.26241E-01 10962   0.483E-01-0.139E-03
CGA:   7    -0.357527382185E+03   -0.11183E-01   -0.11011E-01 10962   0.203E-01-0.466E-03
CGA:   8    -0.357532789128E+03   -0.54069E-02   -0.52367E-02 10962   0.103E-01-0.522E-03
CGA:   9    -0.357535776696E+03   -0.29876E-02   -0.28984E-02 10962   0.466E-02-0.316E-03
CGA:  10    -0.357537035991E+03   -0.12593E-02   -0.12282E-02 10962   0.164E-02-0.108E-03
CGA:  11    -0.357537485315E+03   -0.44932E-03   -0.44785E-03 10962   0.565E-03-0.568E-05
CGA:  12    -0.357537638040E+03   -0.15272E-03   -0.16486E-03 10962   0.240E-03 0.506E-04
CGA:  13    -0.357537712963E+03   -0.74924E-04   -0.84625E-04 10962   0.127E-03 0.494E-04
CGA:  14    -0.357537760593E+03   -0.47629E-04   -0.53552E-04 10962   0.731E-04 0.367E-04
CGA:  15    -0.357537796550E+03   -0.35957E-04   -0.37563E-04 10962   0.476E-04 0.156E-04
CGA:  16    -0.357537833946E+03   -0.37397E-04   -0.46628E-04 10962   0.109E-03-0.297E-04
CGA:  17    -0.357537869811E+03   -0.35865E-04   -0.35453E-04 10962   0.317E-04-0.224E-05
CGA:  18    -0.357537918265E+03   -0.48455E-04    0.14117E-04 10962   0.294E-04 0.376E-05
CGA:  19    -0.357537936093E+03   -0.17827E-04   -0.17680E-04 10962   0.361E-04 0.432E-05
CGA:  20    -0.357538007118E+03   -0.71025E-04    0.15007E-04 10962   0.282E-04 0.118E-04
CGA:  21    -0.357538021541E+03   -0.14423E-04   -0.81046E-04 10962   0.313E-03-0.400E-04
CGA:  22    -0.357538134634E+03   -0.11309E-03   -0.99739E-04 10962   0.719E-04-0.496E-04
CGA:  23    -0.357538134438E+03    0.19546E-06   -0.10507E-04 10962   0.217E-04 0.267E-04
  49 F= -.35753813E+03 E0= -.35753813E+03  d E =0.373872E-01  mag=    12.0000
       N       E                     dE             d eps       ncg     rms          ort
SDA:   1    -0.351455440214E+03    0.60827E+01    0.00000E+00 10962   0.147E+02 0.000E+00
CGA:   2    -0.356315157362E+03   -0.48597E+01   -0.48670E+01 10962   0.530E+01-0.449E-04
CGA:   3    -0.357252047583E+03   -0.93689E+00   -0.93808E+00 10962   0.167E+01 0.113E-01
CGA:   4    -0.357479772118E+03   -0.22772E+00   -0.22792E+00 10962   0.345E+00 0.261E-02
CGA:   5    -0.357545573025E+03   -0.65801E-01   -0.65769E-01 10962   0.113E+00-0.135E-03
CGA:   6    -0.357565457406E+03   -0.19884E-01   -0.19871E-01 10962   0.364E-01-0.829E-04
CGA:   7    -0.357573645852E+03   -0.81884E-02   -0.81896E-02 10962   0.149E-01-0.670E-05
CGA:   8    -0.357577373197E+03   -0.37273E-02   -0.37278E-02 10962   0.697E-02 0.842E-06
CGA:   9    -0.357579343269E+03   -0.19701E-02   -0.19637E-02 10962   0.303E-02-0.416E-04
CGA:  10    -0.357580183251E+03   -0.83998E-03   -0.82667E-03 10962   0.109E-02-0.864E-04
CGA:  11    -0.357580508000E+03   -0.32475E-03   -0.31335E-03 10962   0.408E-03-0.912E-04
CGA:  12    -0.357580648207E+03   -0.14021E-03   -0.13657E-03 10962   0.234E-03-0.725E-04
CGA:  13    -0.357580733220E+03   -0.85014E-04   -0.87114E-04 10962   0.178E-03-0.530E-04
CGA:  14    -0.357580791188E+03   -0.57968E-04   -0.58105E-04 10962   0.987E-04-0.181E-04
CGA:  15    -0.357580819534E+03   -0.28346E-04   -0.29130E-04 10962   0.396E-04 0.917E-05
CGA:  16    -0.357580829923E+03   -0.10389E-04   -0.12133E-04 10962   0.187E-04 0.134E-04
CGA:  17    -0.357580833465E+03   -0.35421E-05   -0.58277E-05 10962   0.119E-04 0.133E-04
  50 F= -.35758083E+03 E0= -.35758083E+03  d E =-.426990E-01  mag=    12.0000
       N       E                     dE             d eps       ncg     rms          ort
SDA:   1    -0.355562918072E+03    0.20179E+01    0.00000E+00 10962   0.479E+01 0.000E+00
CGA:   2    -0.357085320105E+03   -0.15224E+01   -0.15232E+01 10962   0.168E+01 0.387E-02
CGA:   3    -0.357401308180E+03   -0.31599E+00   -0.31643E+00 10962   0.683E+00 0.177E-02
CGA:   4    -0.357497927704E+03   -0.96620E-01   -0.96779E-01 10962   0.141E+00 0.433E-03
CGA:   5    -0.357524517095E+03   -0.26589E-01   -0.26547E-01 10962   0.489E-01-0.289E-03
CGA:   6    -0.357533614507E+03   -0.90974E-02   -0.91214E-02 10962   0.184E-01 0.129E-03
CGA:   7    -0.357537690446E+03   -0.40759E-02   -0.41583E-02 10962   0.745E-02 0.681E-03
CGA:   8    -0.357539394108E+03   -0.17037E-02   -0.17637E-02 10962   0.293E-02 0.537E-03
CGA:   9    -0.357540219772E+03   -0.82566E-03   -0.83650E-03 10962   0.115E-02 0.158E-03
CGA:  10    -0.357540551767E+03   -0.33199E-03   -0.32943E-03 10962   0.417E-03-0.426E-04
CGA:  11    -0.357540684906E+03   -0.13314E-03   -0.13351E-03 10962   0.197E-03-0.966E-04
CGA:  12    -0.357540738813E+03   -0.53907E-04   -0.72693E-04 10962   0.227E-03-0.125E-03
CGA:  13    -0.357540784054E+03   -0.45241E-04   -0.46125E-04 10962   0.421E-04 0.663E-05
CGA:  14    -0.357540803154E+03   -0.19100E-04   -0.20078E-04 10962   0.309E-04-0.731E-05
CGA:  15    -0.357540813464E+03   -0.10310E-04   -0.10030E-04 10962   0.159E-04 0.503E-05
CGA:  16    -0.357540750767E+03    0.62697E-04   -0.34993E-04 10962   0.391E-03-0.583E-04
CGA:  17    -0.357540842410E+03   -0.91643E-04   -0.10041E-03 10962   0.390E-04 0.242E-04
CGA:  18    -0.357540853008E+03   -0.10598E-04   -0.12101E-04 10962   0.116E-04 0.487E-05
CGA:  19    -0.357540851230E+03    0.17784E-05   -0.20640E-05 10962   0.726E-05 0.902E-05
  51 F= -.35754085E+03 E0= -.35754085E+03  d E =0.399822E-01  mag=    12.0000
       N       E                     dE             d eps       ncg     rms          ort
SDA:   1    -0.354822681503E+03    0.27182E+01    0.00000E+00 10962   0.664E+01 0.000E+00
CGA:   2    -0.357033908211E+03   -0.22112E+01   -0.22109E+01 10962   0.210E+01 0.865E-03
CGA:   3    -0.357475354278E+03   -0.44145E+00   -0.44141E+00 10962   0.551E+00-0.164E-02
CGA:   4    -0.357551324802E+03   -0.75971E-01   -0.75757E-01 10962   0.148E+00 0.230E-03
CGA:   5    -0.357579084562E+03   -0.27760E-01   -0.27753E-01 10962   0.418E-01 0.208E-04
CGA:   6    -0.357586980471E+03   -0.78959E-02   -0.78344E-02 10962   0.163E-01-0.214E-03
CGA:   7    -0.357590863059E+03   -0.38826E-02   -0.37524E-02 10962   0.659E-02-0.543E-03
CGA:   8    -0.357592659101E+03   -0.17960E-02   -0.17125E-02 10962   0.352E-02-0.440E-03
CGA:   9    -0.357593578165E+03   -0.91906E-03   -0.89034E-03 10962   0.133E-02-0.161E-03
CGA:  10    -0.357593910488E+03   -0.33232E-03   -0.33018E-03 10962   0.437E-03-0.119E-04
CGA:  11    -0.357594012099E+03   -0.10161E-03   -0.10818E-03 10962   0.131E-03 0.361E-04
CGA:  12    -0.357594033226E+03   -0.21127E-04   -0.30651E-04 10962   0.506E-04 0.460E-04
CGA:  13    -0.357594037961E+03   -0.47354E-05   -0.12447E-04 10962   0.266E-04 0.335E-04
  52 F= -.35759404E+03 E0= -.35759404E+03  d E =-.531867E-01  mag=    12.0000
       N       E                     dE             d eps       ncg     rms          ort
SDA:   1    -0.357414266554E+03    0.17977E+00    0.00000E+00 10962   0.437E+00 0.000E+00
CGA:   2    -0.357549552220E+03   -0.13529E+00   -0.13527E+00 10962   0.204E+00-0.333E-03
CGA:   3    -0.357580580886E+03   -0.31029E-01   -0.31036E-01 10962   0.613E-01-0.115E-04
CGA:   4    -0.357589548762E+03   -0.89679E-02   -0.89922E-02 10962   0.121E-01 0.935E-04
CGA:   5    -0.357591605074E+03   -0.20563E-02   -0.20613E-02 10962   0.375E-02 0.238E-04
CGA:   6    -0.357592293742E+03   -0.68867E-03   -0.68335E-03 10962   0.112E-02-0.314E-04
CGA:   7    -0.357592539869E+03   -0.24613E-03   -0.24028E-03 10962   0.439E-03-0.450E-04
CGA:   8    -0.357592652366E+03   -0.11250E-03   -0.11017E-03 10962   0.214E-03-0.298E-04
CGA:   9    -0.357592710365E+03   -0.57999E-04   -0.57370E-04 10962   0.100E-03-0.128E-04
CGA:  10    -0.357592738326E+03   -0.27961E-04   -0.27587E-04 10962   0.396E-04-0.917E-05
CGA:  11    -0.357592750706E+03   -0.12380E-04   -0.12565E-04 10962   0.206E-04-0.105E-04
CGA:  12    -0.357592755564E+03   -0.48575E-05   -0.86732E-05 10962   0.347E-04-0.159E-04
  53 F= -.35759276E+03 E0= -.35759276E+03  d E =0.128240E-02  mag=    12.0000
       N       E                     dE             d eps       ncg     rms          ort
SDA:   1    -0.357075321109E+03    0.51743E+00    0.00000E+00 10962   0.135E+01 0.000E+00
CGA:   2    -0.357407390533E+03   -0.33207E+00   -0.33217E+00 10962   0.867E+00 0.523E-03
CGA:   3    -0.357537622950E+03   -0.13023E+00   -0.13027E+00 10962   0.233E+00 0.278E-03
CGA:   4    -0.357573834181E+03   -0.36211E-01   -0.36222E-01 10962   0.520E-01 0.472E-04
CGA:   5    -0.357582238646E+03   -0.84045E-02   -0.84132E-02 10962   0.140E-01 0.477E-04
CGA:   6    -0.357584795256E+03   -0.25566E-02   -0.25608E-02 10962   0.435E-02 0.320E-04
CGA:   7    -0.357585669084E+03   -0.87383E-03   -0.87954E-03 10962   0.145E-02 0.570E-04
CGA:   8    -0.357586000403E+03   -0.33132E-03   -0.33676E-03 10962   0.571E-03 0.819E-04
CGA:   9    -0.357586150221E+03   -0.14982E-03   -0.15211E-03 10962   0.231E-03 0.565E-04
CGA:  10    -0.357586219838E+03   -0.69617E-04   -0.69915E-04 10962   0.923E-04 0.190E-04
CGA:  11    -0.357586249073E+03   -0.29235E-04   -0.29232E-04 10962   0.372E-04 0.122E-05
CGA:  12    -0.357586263076E+03   -0.14002E-04   -0.17417E-04 10962   0.392E-04-0.199E-04
CGA:  13    -0.357586271259E+03   -0.81838E-05   -0.83120E-05 10962   0.804E-05 0.148E-05
  54 F= -.35758627E+03 E0= -.35758627E+03  d E =0.648430E-02  mag=    12.0000
       N       E                     dE             d eps       ncg     rms          ort
SDA:   1    -0.356487180083E+03    0.10991E+01    0.00000E+00 10962   0.267E+01 0.000E+00
CGA:   2    -0.357363899046E+03   -0.87672E+00   -0.87667E+00 10962   0.992E+00 0.103E-02
CGA:   3    -0.357538484493E+03   -0.17459E+00   -0.17454E+00 10962   0.299E+00-0.725E-03
CGA:   4    -0.357579025461E+03   -0.40541E-01   -0.40458E-01 10962   0.608E-01-0.554E-03
CGA:   5    -0.357590309535E+03   -0.11284E-01   -0.11267E-01 10962   0.195E-01-0.172E-03
CGA:   6    -0.357593666379E+03   -0.33568E-02   -0.33569E-02 10962   0.574E-02-0.356E-05
CGA:   7    -0.357594948767E+03   -0.12824E-02   -0.12792E-02 10962   0.232E-02-0.593E-04
CGA:   8    -0.357595556500E+03   -0.60773E-03   -0.60627E-03 10962   0.120E-02-0.123E-03
CGA:   9    -0.357595900342E+03   -0.34384E-03   -0.34661E-03 10962   0.601E-03-0.949E-04
CGA:  10    -0.357596052430E+03   -0.15209E-03   -0.15203E-03 10962   0.216E-03-0.333E-04
CGA:  11    -0.357596107455E+03   -0.55025E-04   -0.55015E-04 10962   0.677E-04-0.167E-05
CGA:  12    -0.357596122270E+03   -0.14815E-04   -0.15549E-04 10962   0.239E-04 0.165E-04
CGA:  13    -0.357596127722E+03   -0.54521E-05   -0.62355E-05 10962   0.115E-04 0.122E-04
  55 F= -.35759613E+03 E0= -.35759613E+03  d E =-.985646E-02  mag=    12.0000
       N       E                     dE             d eps       ncg     rms          ort
SDA:   1    -0.354973875690E+03    0.26222E+01    0.00000E+00 10962   0.626E+01 0.000E+00
CGA:   2    -0.357008579964E+03   -0.20347E+01   -0.20346E+01 10962   0.235E+01 0.911E-03
CGA:   3    -0.357424181934E+03   -0.41560E+00   -0.41557E+00 10962   0.743E+00-0.127E-02
CGA:   4    -0.357525730234E+03   -0.10155E+00   -0.10148E+00 10962   0.150E+00-0.714E-03
CGA:   5    -0.357554281357E+03   -0.28551E-01   -0.28544E-01 10962   0.491E-01-0.114E-03
CGA:   6    -0.357562954461E+03   -0.86731E-02   -0.86777E-02 10962   0.152E-01 0.446E-04
CGA:   7    -0.357566402205E+03   -0.34477E-02   -0.34444E-02 10962   0.638E-02-0.116E-03
CGA:   8    -0.357568023654E+03   -0.16214E-02   -0.16218E-02 10962   0.310E-02-0.241E-03
CGA:   9    -0.357568904716E+03   -0.88106E-03   -0.88950E-03 10962   0.146E-02-0.192E-03
CGA:  10    -0.357569272966E+03   -0.36825E-03   -0.36900E-03 10962   0.515E-03-0.581E-04
CGA:  11    -0.357569408937E+03   -0.13597E-03   -0.13592E-03 10962   0.172E-03 0.311E-05
CGA:  12    -0.357569457454E+03   -0.48518E-04   -0.48040E-04 10962   0.723E-04 0.247E-04
CGA:  13    -0.357569484346E+03   -0.26892E-04   -0.25874E-04 10962   0.411E-04 0.190E-04
CGA:  14    -0.357569504666E+03   -0.20320E-04   -0.18979E-04 10962   0.283E-04 0.131E-04
CGA:  15    -0.357569519546E+03   -0.14880E-04   -0.13802E-04 10962   0.188E-04 0.105E-04
CGA:  16    -0.357569534344E+03   -0.14798E-04   -0.15071E-04 10962   0.256E-04-0.755E-06
CGA:  17    -0.357569527471E+03    0.68729E-05   -0.31960E-04 10962   0.132E-03-0.375E-04
CGA:  18    -0.357569577523E+03   -0.50052E-04   -0.50459E-04 10962   0.438E-04-0.917E-05
CGA:  19    -0.357569598364E+03   -0.20841E-04   -0.26142E-04 10962   0.651E-04-0.176E-04
CGA:  20    -0.357569608875E+03   -0.10511E-04   -0.10213E-04 10962   0.351E-04-0.326E-05
CGA:  21    -0.357569621967E+03   -0.13091E-04   -0.13690E-04 10962   0.351E-04-0.100E-04
CGA:  22    -0.357569630519E+03   -0.85520E-05   -0.82250E-05 10962   0.320E-04-0.126E-04
  56 F= -.35756963E+03 E0= -.35756963E+03  d E =0.264972E-01  mag=    12.0000
       N       E                     dE             d eps       ncg     rms          ort
SDA:   1    -0.356680348997E+03    0.88927E+00    0.00000E+00 10962   0.225E+01 0.000E+00
CGA:   2    -0.357382686492E+03   -0.70234E+00   -0.70237E+00 10962   0.921E+00 0.153E-03
CGA:   3    -0.357536964615E+03   -0.15428E+00   -0.15433E+00 10962   0.313E+00 0.164E-03
CGA:   4    -0.357581764892E+03   -0.44800E-01   -0.44825E-01 10962   0.632E-01 0.556E-04
CGA:   5    -0.357593497679E+03   -0.11733E-01   -0.11724E-01 10962   0.214E-01-0.654E-04
CGA:   6    -0.357597391237E+03   -0.38936E-02   -0.38854E-02 10962   0.672E-02-0.603E-04
CGA:   7    -0.357598894890E+03   -0.15037E-02   -0.15041E-02 10962   0.286E-02 0.375E-05
CGA:   8    -0.357599574227E+03   -0.67934E-03   -0.68245E-03 10962   0.118E-02 0.425E-04
CGA:   9    -0.357599899584E+03   -0.32536E-03   -0.32657E-03 10962   0.493E-03 0.350E-04
CGA:  10    -0.357600037083E+03   -0.13750E-03   -0.13746E-03 10962   0.176E-03-0.103E-05
CGA:  11    -0.357600093141E+03   -0.56058E-04   -0.56487E-04 10962   0.772E-04-0.242E-04
CGA:  12    -0.357600117695E+03   -0.24554E-04   -0.27466E-04 10962   0.590E-04-0.272E-04
CGA:  13    -0.357600131836E+03   -0.14140E-04   -0.15216E-04 10962   0.374E-04-0.123E-04
CGA:  14    -0.357600142180E+03   -0.10344E-04   -0.10329E-04 10962   0.183E-04 0.456E-06
CGA:  15    -0.357600148221E+03   -0.60412E-05   -0.60230E-05 10962   0.887E-05 0.194E-05
  57 F= -.35760015E+03 E0= -.35760015E+03  d E =-.305177E-01  mag=    12.0000
       N       E                     dE             d eps       ncg     rms          ort
SDA:   1    -0.357555721332E+03    0.44421E-01    0.00000E+00 10962   0.110E+00 0.000E+00
CGA:   2    -0.357585002970E+03   -0.29282E-01   -0.29283E-01 10962   0.631E-01 0.772E-05
CGA:   3    -0.357594484498E+03   -0.94815E-02   -0.94806E-02 10962   0.197E-01-0.161E-04
CGA:   4    -0.357597702556E+03   -0.32181E-02   -0.32145E-02 10962   0.466E-02-0.292E-04
CGA:   5    -0.357598495352E+03   -0.79280E-03   -0.78789E-03 10962   0.141E-02-0.390E-04
CGA:   6    -0.357598766015E+03   -0.27066E-03   -0.26788E-03 10962   0.495E-03-0.280E-04
CGA:   7    -0.357598873805E+03   -0.10779E-03   -0.10733E-03 10962   0.202E-03-0.717E-05
CGA:   8    -0.357598921220E+03   -0.47414E-04   -0.47545E-04 10962   0.786E-04 0.293E-05
CGA:   9    -0.357598942281E+03   -0.21061E-04   -0.21064E-04 10962   0.319E-04 0.135E-06
CGA:  10    -0.357598952685E+03   -0.10404E-04   -0.11031E-04 10962   0.190E-04-0.964E-05
CGA:  11    -0.357598953846E+03   -0.11612E-05   -0.80316E-05 10962   0.426E-04-0.213E-04
  58 F= -.35759895E+03 E0= -.35759895E+03  d E =0.119438E-02  mag=    12.0000
       N       E                     dE             d eps       ncg     rms          ort
SDA:   1    -0.357542387101E+03    0.56566E-01    0.00000E+00 10962   0.142E+00 0.000E+00
CGA:   2    -0.357588949764E+03   -0.46563E-01   -0.46553E-01 10962   0.487E-01 0.252E-03
CGA:   3    -0.357598640430E+03   -0.96907E-02   -0.96762E-02 10962   0.140E-01-0.162E-03
CGA:   4    -0.357600499593E+03   -0.18592E-02   -0.18553E-02 10962   0.333E-02-0.279E-04
CGA:   5    -0.357601128788E+03   -0.62919E-03   -0.63246E-03 10962   0.101E-02 0.353E-04
CGA:   6    -0.357601303398E+03   -0.17461E-03   -0.17666E-03 10962   0.345E-03 0.195E-04
CGA:   7    -0.357601384172E+03   -0.80774E-04   -0.80795E-04 10962   0.143E-03 0.439E-06
CGA:   8    -0.357601421796E+03   -0.37624E-04   -0.37564E-04 10962   0.751E-04-0.701E-05
CGA:   9    -0.357601440942E+03   -0.19147E-04   -0.19148E-04 10962   0.293E-04 0.732E-06
CGA:  10    -0.357601446302E+03   -0.53599E-05   -0.58872E-05 10962   0.884E-05 0.746E-05
  59 F= -.35760145E+03 E0= -.35760145E+03  d E =-.249246E-02  mag=    12.0000
