       N       E                     dE             d eps       ncg     rms          ort
DAV:   1     0.225635181726E+04    0.22564E+04   -0.13745E+05 10080   0.155E+03
DAV:   2    -0.245693413627E+03   -0.25020E+04   -0.23581E+04 10080   0.414E+02
DAV:   3    -0.479495600952E+03   -0.23380E+03   -0.23042E+03 10080   0.143E+02
DAV:   4    -0.486339010258E+03   -0.68434E+01   -0.67777E+01 10080   0.226E+01
DAV:   5    -0.486617002142E+03   -0.27799E+00   -0.27768E+00 10080   0.365E+00
SDA:   6    -0.242434386341E+03    0.24418E+03   -0.27768E+00 10080   0.952E+03 0.000E+00
CGA:   7    -0.294398594675E+03   -0.51964E+02   -0.98737E+02 10080   0.414E+03 0.139E+03
CGA:   8    -0.315861363966E+03   -0.21463E+02   -0.24337E+02 10080   0.551E+03-0.904E+02
CGA:   9    -0.316226804931E+03   -0.36544E+00   -0.18425E+02 10080   0.339E+03-0.391E+02
CGA:  10    -0.341885598607E+03   -0.25659E+02   -0.11490E+02 10080   0.812E+03-0.188E+03
CGA:  11    -0.323459526886E+03    0.18426E+02   -0.61495E+02 10080   0.778E+03-0.260E+03
CGA:  12    -0.349397407618E+03   -0.25938E+02   -0.25862E+02 10080   0.405E+03 0.347E+03
CGA:  13    -0.346665809866E+03    0.27316E+01   -0.40870E+02 10080   0.138E+03-0.729E+02
CGA:  14    -0.360905625173E+03   -0.14240E+02   -0.40485E+01 10080   0.311E+03 0.506E+03
CGA:  15    -0.344820899370E+03    0.16085E+02   -0.15324E+02 10080   0.144E+04-0.715E+03
CGA:  16    -0.336264743244E+03    0.85562E+01   -0.95704E+02 10080   0.491E+03-0.199E+03
CGA:  17    -0.336232944142E+03    0.31799E-01   -0.17464E+02 10080   0.384E+03-0.131E+03
CGA:  18    -0.359715483151E+03   -0.23483E+02   -0.12527E+02 10080   0.448E+03-0.630E+03
CGA:  19    -0.360385085305E+03   -0.66960E+00   -0.22672E+02 10080   0.442E+03-0.434E+03
CGA:  20    -0.343067418649E+03    0.17318E+02   -0.21722E+02 10080   0.352E+03-0.222E+03
CGA:  21    -0.352964734206E+03   -0.98973E+01   -0.15390E+02 10080   0.152E+03-0.161E+03
CGA:  22    -0.369942324872E+03   -0.16978E+02   -0.27519E+01 10080   0.116E+03 0.347E+03
CGA:  23    -0.367941950738E+03    0.20004E+01   -0.34938E+01 10080   0.382E+03-0.190E+03
CGA:  24    -0.356066815714E+03    0.11875E+02   -0.17246E+02 10080   0.241E+03-0.926E+02
CGA:  25    -0.349977885385E+03    0.60889E+01   -0.64270E+01 10080   0.451E+03-0.338E+03
CGA:  26    -0.350963202518E+03   -0.98532E+00   -0.18507E+02 10080   0.165E+03-0.145E+03
CGA:  27    -0.368738099526E+03   -0.17775E+02   -0.37328E+01 10080   0.412E+03-0.101E+04
CGA:  28    -0.354681850778E+03    0.14056E+02   -0.15855E+02 10080   0.270E+03-0.103E+03
CGA:  29    -0.351607456754E+03    0.30744E+01   -0.67915E+01 10080   0.267E+03-0.193E+03
CGA:  30    -0.352562027208E+03   -0.95457E+00   -0.86103E+01 10080   0.174E+03-0.153E+03
CGA:  31    -0.357028328651E+03   -0.44663E+01   -0.50045E+01 10080   0.615E+03-0.679E+03
CGA:  32    -0.352653787765E+03    0.43745E+01   -0.22374E+02 10080   0.171E+03-0.135E+03
CGA:  33    -0.366332833194E+03   -0.13679E+02   -0.37727E+01 10080   0.530E+03-0.933E+03
CGA:  34    -0.354982965837E+03    0.11350E+02   -0.17118E+02 10080   0.253E+03-0.135E+03
CGA:  35    -0.357661905438E+03   -0.26789E+01   -0.52892E+01 10080   0.599E+03-0.506E+03
CGA:  36    -0.352952152571E+03    0.47098E+01   -0.19170E+02 10080   0.186E+03-0.139E+03
CGA:  37    -0.364022156046E+03   -0.11070E+02   -0.37752E+01 10080   0.545E+03-0.787E+03
CGA:  38    -0.354366208434E+03    0.96559E+01   -0.15522E+02 10080   0.237E+03-0.147E+03
CGA:  39    -0.362670308851E+03   -0.83041E+01   -0.43762E+01 10080   0.717E+03-0.725E+03
CGA:  40    -0.354315098860E+03    0.83552E+01   -0.20409E+02 10080   0.216E+03-0.141E+03
CGA:  41    -0.363256521256E+03   -0.89414E+01   -0.41115E+01 10080   0.661E+03-0.795E+03
CGA:  42    -0.355304516177E+03    0.79520E+01   -0.17409E+02 10080   0.247E+03-0.165E+03
CGA:  43    -0.367599625664E+03   -0.12295E+02   -0.42017E+01 10080   0.541E+03-0.750E+03
CGA:  44    -0.359516665829E+03    0.80830E+01   -0.12734E+02 10080   0.525E+03-0.308E+03
CGA:  45    -0.356544201000E+03    0.29725E+01   -0.12349E+02 10080   0.472E+03-0.390E+03
CGA:  46    -0.358135401395E+03   -0.15912E+01   -0.11355E+02 10080   0.319E+03-0.313E+03
CGA:  47    -0.363364839452E+03   -0.52294E+01   -0.65501E+01 10080   0.557E+03-0.696E+03
CGA:  48    -0.361500111659E+03    0.18647E+01   -0.12139E+02 10080   0.494E+03-0.433E+03
CGA:  49    -0.363027753956E+03   -0.15276E+01   -0.10080E+02 10080   0.569E+03-0.598E+03
CGA:  50    -0.363310611465E+03   -0.28286E+00   -0.11846E+02 10080   0.503E+03-0.492E+03
CGA:  51    -0.365936230427E+03   -0.26256E+01   -0.95560E+01 10080   0.488E+03-0.565E+03
CGA:  52    -0.367193697045E+03   -0.12575E+01   -0.91189E+01 10080   0.447E+03-0.478E+03
CGA:  53    -0.369440112513E+03   -0.22464E+01   -0.75351E+01 10080   0.321E+03-0.402E+03
CGA:  54    -0.371202699850E+03   -0.17626E+01   -0.50331E+01 10080   0.194E+03-0.263E+03
CGA:  55    -0.372673103567E+03   -0.14704E+01   -0.25162E+01 10080   0.463E+02-0.960E+02
CGA:  56    -0.373105234823E+03   -0.43213E+00   -0.44858E+00 10080   0.702E+00-0.903E+00
CGA:  57    -0.373130359177E+03   -0.25124E-01   -0.25228E-01 10080   0.180E+01 0.149E-02
CGA:  58    -0.373383462894E+03   -0.25310E+00   -0.23440E+00 10080   0.195E+01 0.213E+00
CGA:  59    -0.373470619774E+03   -0.87157E-01   -0.89054E-01 10080   0.762E+00 0.184E+00
CGA:  60    -0.373523645674E+03   -0.53026E-01   -0.51862E-01 10080   0.364E+00 0.309E-01
CGA:  61    -0.373571481281E+03   -0.47836E-01   -0.48975E-01 10080   0.503E+00-0.542E-02
CGA:  62    -0.373608456570E+03   -0.36975E-01   -0.37050E-01 10080   0.223E+00-0.198E-01
CGA:  63    -0.373632908488E+03   -0.24452E-01   -0.41120E-01 10080   0.555E+00-0.105E+00
CGA:  64    -0.373647299737E+03   -0.14391E-01   -0.47647E-01 10080   0.163E+00-0.332E+00
CGA:  65    -0.373666724571E+03   -0.19425E-01   -0.18407E-01 10080   0.111E+00 0.204E-01
CGA:  66    -0.373680209715E+03   -0.13485E-01   -0.12799E-01 10080   0.370E-01 0.184E-01
CGA:  67    -0.373690995319E+03   -0.10786E-01   -0.85176E-02 10080   0.262E-01 0.176E-01
CGA:  68    -0.373695929813E+03   -0.49345E-02   -0.45017E-02 10080   0.130E-01 0.103E-01
CGA:  69    -0.373698585352E+03   -0.26555E-02   -0.22201E-02 10080   0.740E-02 0.938E-02
CGA:  70    -0.373699369351E+03   -0.78400E-03   -0.71192E-03 10080   0.501E-02 0.397E-02
CGA:  71    -0.373699947456E+03   -0.57811E-03   -0.51286E-03 10080   0.434E-02 0.282E-02
CGA:  72    -0.373700353517E+03   -0.40606E-03   -0.38526E-03 10080   0.366E-02 0.241E-02
CGA:  73    -0.373700779353E+03   -0.42584E-03   -0.37843E-03 10080   0.355E-02 0.210E-02
CGA:  74    -0.373701090974E+03   -0.31162E-03   -0.30431E-03 10080   0.310E-02 0.190E-02
CGA:  75    -0.373701448588E+03   -0.35761E-03   -0.32104E-03 10080   0.322E-02 0.170E-02
CGA:  76    -0.373701714289E+03   -0.26570E-03   -0.26620E-03 10080   0.285E-02 0.154E-02
CGA:  77    -0.373702386673E+03   -0.67238E-03   -0.52180E-03 10080   0.271E-02 0.369E-02
CGA:  78    -0.373702646659E+03   -0.25999E-03   -0.25272E-03 10080   0.276E-02 0.912E-03
CGA:  79    -0.373703346930E+03   -0.70027E-03   -0.52059E-03 10080   0.223E-02 0.323E-02
CGA:  80    -0.373703532300E+03   -0.18537E-03   -0.18847E-03 10080   0.204E-02 0.805E-03
CGA:  81    -0.373704177268E+03   -0.64497E-03   -0.45729E-03 10080   0.195E-02 0.245E-02
CGA:  82    -0.373704360570E+03   -0.18330E-03   -0.18266E-03 10080   0.206E-02 0.374E-03
CGA:  83    -0.373705099043E+03   -0.73847E-03   -0.50341E-03 10080   0.148E-02 0.207E-02
CGA:  84    -0.373705228753E+03   -0.12971E-03   -0.13241E-03 10080   0.143E-02 0.333E-03
CGA:  85    -0.373705813776E+03   -0.58502E-03   -0.40098E-03 10080   0.120E-02 0.139E-02
CGA:  86    -0.373705954944E+03   -0.14117E-03   -0.13983E-03 10080   0.135E-02 0.110E-03
CGA:  87    -0.373706371920E+03   -0.41698E-03   -0.34161E-03 10080   0.186E-02 0.589E-03
CGA:  88    -0.373707077754E+03   -0.70583E-03   -0.57191E-03 10080   0.149E-02 0.130E-02
CGA:  89    -0.373707169985E+03   -0.92231E-04   -0.97330E-04 10080   0.438E-03 0.996E-04
CGA:  90    -0.373707370302E+03   -0.20032E-03   -0.18706E-03 10080   0.110E-02 0.441E-04
CGA:  91    -0.373707684937E+03   -0.31464E-03   -0.31653E-03 10080   0.390E-02-0.898E-05
CGA:  92    -0.373708524642E+03   -0.83970E-03   -0.85380E-03 10080   0.266E-02 0.532E-04
CGA:  93    -0.373708766330E+03   -0.24169E-03   -0.24254E-03 10080   0.141E-02 0.822E-04
CGA:  94    -0.373708945381E+03   -0.17905E-03   -0.17493E-03 10080   0.349E-03-0.239E-03
CGA:  95    -0.373708989054E+03   -0.43673E-04   -0.60683E-04 10080   0.110E-02-0.228E-03
CGA:  96    -0.373709052574E+03   -0.63520E-04   -0.65108E-04 10080   0.210E-03 0.214E-04
CGA:  97    -0.373709115165E+03   -0.62591E-04    0.18125E-03 10080   0.183E-03 0.134E-03
CGA:  98    -0.373709082973E+03    0.32192E-04   -0.79879E-04 10080   0.359E-02-0.375E-03
CGA:  99    -0.373709272611E+03   -0.18964E-03   -0.19025E-03 10080   0.118E-03-0.380E-05
CGA: 100    -0.373709295275E+03   -0.22663E-04   -0.28306E-04 10080   0.703E-03-0.604E-04
CGA: 101    -0.373709343348E+03   -0.48073E-04   -0.39142E-04 10080   0.123E-03-0.955E-04
CGA: 102    -0.373709377655E+03   -0.34308E-04    0.69173E-04 10080   0.103E-03 0.620E-04
CGA: 103    -0.373709386351E+03   -0.86952E-05   -0.33072E-04 10080   0.126E-02-0.140E-03
CGA: 104    -0.373709447108E+03   -0.60757E-04   -0.60738E-04 10080   0.769E-04 0.224E-05
CGA: 105    -0.373709475232E+03   -0.28125E-04    0.25484E-04 10080   0.132E-03 0.237E-04
CGA: 106    -0.373709544645E+03   -0.69413E-04    0.36503E-04 10080   0.605E-04 0.147E-03
CGA: 107    -0.373709556747E+03   -0.12102E-04   -0.12801E-04 10080   0.249E-03-0.125E-04
CGA: 108    -0.373709637089E+03   -0.80342E-04    0.44829E-04 10080   0.447E-03 0.126E-03
CGA: 109    -0.373709672854E+03   -0.35765E-04   -0.28057E-04 10080   0.774E-04-0.865E-04
CGA: 110    -0.373709682151E+03   -0.92969E-05   -0.17098E-04 10080   0.451E-03-0.634E-04
CGA: 111    -0.373709708316E+03   -0.26165E-04   -0.22483E-04 10080   0.434E-04-0.358E-04
CGA: 112    -0.373709719871E+03   -0.11555E-04   -0.11568E-04 10080   0.105E-03-0.187E-05
CGA: 113    -0.373709761822E+03   -0.41951E-04    0.23370E-04 10080   0.116E-03 0.283E-04
CGA: 114    -0.373709834139E+03   -0.72317E-04    0.20114E-04 10080   0.249E-04 0.987E-04
CGA: 115    -0.373709843554E+03   -0.94151E-05    0.91235E-05 10080   0.173E-04 0.107E-04
   1 F= -.37370984E+03 E0= -.37370504E+03  d E =-.373710E+03  mag=     8.0000
       N       E                     dE             d eps       ncg     rms          ort
SDA:   1    -0.373767208631E+03   -0.57374E-01    0.00000E+00 10080   0.120E-01 0.000E+00
CGA:   2    -0.373768864510E+03   -0.16559E-02   -0.16621E-02 10080   0.119E-01 0.363E-03
CGA:   3    -0.373769937278E+03   -0.10728E-02   -0.10681E-02 10080   0.186E-02-0.820E-04
CGA:   4    -0.373770359383E+03   -0.42210E-03   -0.41888E-03 10080   0.114E-02 0.433E-04
CGA:   5    -0.373770469161E+03   -0.10978E-03   -0.10107E-03 10080   0.427E-03-0.128E-03
CGA:   6    -0.373770522509E+03   -0.53348E-04   -0.53321E-04 10080   0.205E-03-0.246E-05
CGA:   7    -0.373770547220E+03   -0.24711E-04   -0.23236E-04 10080   0.135E-03-0.397E-04
CGA:   8    -0.373770567247E+03   -0.20027E-04   -0.20851E-04 10080   0.881E-04-0.206E-04
CGA:   9    -0.373770420859E+03    0.14639E-03   -0.55682E-04 10080   0.458E-02-0.345E-03
CGA:  10    -0.373770609897E+03   -0.18904E-03   -0.19956E-03 10080   0.111E-03 0.106E-03
CGA:  11    -0.373770640770E+03   -0.30873E-04   -0.47125E-04 10080   0.313E-03-0.684E-04
CGA:  12    -0.373770659452E+03   -0.18682E-04   -0.18243E-04 10080   0.451E-04-0.347E-05
CGA:  13    -0.373770663925E+03   -0.44730E-05   -0.52134E-05 10080   0.218E-04 0.115E-04
CGA:  14    -0.373770642760E+03    0.21164E-04   -0.15643E-04 10080   0.655E-03-0.953E-04
CGA:  15    -0.373770675547E+03   -0.32787E-04   -0.36936E-04 10080   0.606E-04 0.296E-04
CGA:  16    -0.373770685513E+03   -0.99659E-05   -0.22140E-04 10080   0.333E-03-0.768E-04
CGA:  17    -0.373770699361E+03   -0.13848E-04   -0.16202E-04 10080   0.202E-04 0.163E-04
CGA:  18    -0.373770702776E+03   -0.34150E-05   -0.33169E-05 10080   0.236E-04-0.314E-05
   2 F= -.37377070E+03 E0= -.37376593E+03  d E =-.608592E-01  mag=     8.0000
       N       E                     dE             d eps       ncg     rms          ort
SDA:   1    -0.370808611595E+03    0.29621E+01    0.00000E+00 10080   0.158E+02 0.000E+00
CGA:   2    -0.373787017048E+03   -0.29784E+01   -0.29755E+01 10080   0.107E+02 0.446E+00
CGA:   3    -0.374759754898E+03   -0.97274E+00   -0.79109E+00 10080   0.198E+01 0.198E+01
CGA:   4    -0.375203093972E+03   -0.44334E+00   -0.44347E+00 10080   0.306E+01-0.109E-01
CGA:   5    -0.375422995609E+03   -0.21990E+00   -0.22561E+00 10080   0.521E+00-0.464E-01
CGA:   6    -0.375473931676E+03   -0.50936E-01   -0.50887E-01 10080   0.495E+00 0.635E-03
CGA:   7    -0.375527496471E+03   -0.53565E-01   -0.53485E-01 10080   0.126E+00-0.120E-02
CGA:   8    -0.375539865943E+03   -0.12369E-01   -0.12329E-01 10080   0.120E+00-0.375E-03
CGA:   9    -0.375558821977E+03   -0.18956E-01   -0.18958E-01 10080   0.652E-01 0.303E-03
CGA:  10    -0.375564588290E+03   -0.57663E-02   -0.57959E-02 10080   0.432E-01-0.640E-03
CGA:  11    -0.375572998477E+03   -0.84102E-02   -0.84688E-02 10080   0.223E-01-0.156E-02
CGA:  12    -0.375574877209E+03   -0.18787E-02   -0.18653E-02 10080   0.155E-01-0.152E-03
CGA:  13    -0.375577931363E+03   -0.30542E-02   -0.30664E-02 10080   0.750E-02-0.292E-03
CGA:  14    -0.375578648469E+03   -0.71711E-03   -0.70945E-03 10080   0.537E-02-0.150E-03
CGA:  15    -0.375579876816E+03   -0.12283E-02   -0.12850E-02 10080   0.383E-02-0.651E-03
CGA:  16    -0.375580170817E+03   -0.29400E-03   -0.27775E-03 10080   0.224E-02-0.219E-03
CGA:  17    -0.375580658348E+03   -0.48753E-03   -0.48895E-03 10080   0.133E-02-0.206E-04
CGA:  18    -0.375580797304E+03   -0.13896E-03   -0.13551E-03 10080   0.103E-02-0.598E-04
CGA:  19    -0.375580991408E+03   -0.19410E-03   -0.22854E-03 10080   0.916E-03-0.474E-03
CGA:  20    -0.375581023132E+03   -0.31724E-04   -0.30419E-04 10080   0.470E-03-0.131E-04
CGA:  21    -0.375581058233E+03   -0.35101E-04   -0.41379E-04 10080   0.450E-03 0.931E-04
CGA:  22    -0.375581094596E+03   -0.36364E-04   -0.42094E-04 10080   0.137E-03 0.759E-04
CGA:  23    -0.375581121180E+03   -0.26584E-04   -0.27688E-04 10080   0.353E-03-0.478E-04
CGA:  24    -0.375581139988E+03   -0.18807E-04   -0.14453E-04 10080   0.249E-03-0.501E-04
CGA:  25    -0.375581150322E+03   -0.10335E-04   -0.77627E-05 10080   0.859E-04-0.235E-04
CGA:  26    -0.375581159273E+03   -0.89511E-05   -0.65933E-05 10080   0.161E-03-0.421E-04
CGA:  27    -0.375581171039E+03   -0.11766E-04   -0.11001E-04 10080   0.507E-03-0.174E-03
CGA:  28    -0.375581200706E+03   -0.29667E-04   -0.30577E-04 10080   0.559E-04 0.114E-04
CGA:  29    -0.375581204836E+03   -0.41300E-05   -0.52531E-05 10080   0.255E-04 0.267E-04
   3 F= -.37558120E+03 E0= -.37557656E+03  d E =-.181050E+01  mag=     8.0000
       N       E                     dE             d eps       ncg     rms          ort
SDA:   1    -0.364676988056E+03    0.10904E+02    0.00000E+00 10080   0.496E+02 0.000E+00
CGA:   2    -0.370657305297E+03   -0.59803E+01   -0.60726E+01 10080   0.370E+02 0.319E+01
CGA:   3    -0.374770296949E+03   -0.41130E+01   -0.36745E+01 10080   0.791E+01 0.828E+00
CGA:   4    -0.375834318605E+03   -0.10640E+01   -0.10641E+01 10080   0.758E+01-0.124E+00
CGA:   5    -0.376662509115E+03   -0.82819E+00   -0.81917E+00 10080   0.122E+01-0.993E-01
CGA:   6    -0.376848029637E+03   -0.18552E+00   -0.18493E+00 10080   0.100E+01 0.151E-01
CGA:   7    -0.376945159760E+03   -0.97130E-01   -0.96875E-01 10080   0.227E+00 0.111E-02
CGA:   8    -0.376992302309E+03   -0.47143E-01   -0.46772E-01 10080   0.243E+00 0.411E-02
CGA:   9    -0.377018948935E+03   -0.26647E-01   -0.26608E-01 10080   0.105E+00-0.258E-03
CGA:  10    -0.377040010490E+03   -0.21062E-01   -0.21170E-01 10080   0.114E+00-0.199E-02
CGA:  11    -0.377050208599E+03   -0.10198E-01   -0.10163E-01 10080   0.381E-01-0.171E-02
CGA:  12    -0.377057233026E+03   -0.70244E-02   -0.70851E-02 10080   0.395E-01-0.119E-02
CGA:  13    -0.377061328119E+03   -0.40951E-02   -0.40598E-02 10080   0.105E-01-0.128E-02
CGA:  14    -0.377063748958E+03   -0.24208E-02   -0.25279E-02 10080   0.125E-01-0.930E-03
CGA:  15    -0.377064953602E+03   -0.12046E-02   -0.11752E-02 10080   0.352E-02-0.794E-03
CGA:  16    -0.377065909098E+03   -0.95550E-03   -0.10424E-02 10080   0.483E-02-0.485E-03
CGA:  17    -0.377066265365E+03   -0.35627E-03   -0.34169E-03 10080   0.138E-02-0.243E-03
CGA:  18    -0.377066600765E+03   -0.33540E-03   -0.43201E-03 10080   0.325E-02-0.523E-03
CGA:  19    -0.377066712459E+03   -0.11169E-03   -0.10955E-03 10080   0.102E-02-0.242E-04
CGA:  20    -0.377066754741E+03   -0.42283E-04   -0.51463E-04 10080   0.645E-03 0.935E-04
CGA:  21    -0.377066814785E+03   -0.60044E-04   -0.67248E-04 10080   0.726E-03 0.149E-03
CGA:  22    -0.377066871285E+03   -0.56500E-04   -0.59161E-04 10080   0.269E-03 0.331E-04
CGA:  23    -0.377066918510E+03   -0.47225E-04   -0.70296E-04 10080   0.121E-02-0.207E-03
CGA:  24    -0.377066975155E+03   -0.56645E-04   -0.62710E-04 10080   0.109E-03 0.691E-04
CGA:  25    -0.377067008047E+03   -0.32892E-04   -0.40994E-04 10080   0.309E-03-0.371E-04
CGA:  26    -0.377067027561E+03   -0.19515E-04   -0.15698E-04 10080   0.145E-03-0.536E-04
CGA:  27    -0.377067044763E+03   -0.17202E-04   -0.17073E-04 10080   0.322E-03-0.443E-04
CGA:  28    -0.377067072852E+03   -0.28089E-04   -0.26634E-04 10080   0.294E-03-0.585E-04
CGA:  29    -0.377067090779E+03   -0.17927E-04   -0.14284E-04 10080   0.156E-03-0.450E-04
CGA:  30    -0.377067128029E+03   -0.37250E-04    0.16053E-02 10080   0.298E-03-0.184E-04
CGA:  31    -0.377067122848E+03    0.51813E-05   -0.66125E-04 10080   0.845E-03-0.650E-03
CGA:  32    -0.377067180475E+03   -0.57627E-04   -0.69547E-04 10080   0.279E-03 0.188E-03
CGA:  33    -0.377067201390E+03   -0.20915E-04   -0.28144E-04 10080   0.555E-04 0.120E-03
CGA:  34    -0.377067211279E+03   -0.98892E-05   -0.10000E-04 10080   0.584E-04 0.812E-05
CGA:  35    -0.377067222146E+03   -0.10867E-04   -0.15169E-04 10080   0.736E-04-0.488E-04
CGA:  36    -0.377067154050E+03    0.68097E-04   -0.41567E-04 10080   0.194E-02-0.260E-03
CGA:  37    -0.377067249589E+03   -0.95540E-04   -0.10054E-03 10080   0.119E-03 0.458E-04
CGA:  38    -0.377067252674E+03   -0.30842E-05   -0.87087E-05 10080   0.391E-04 0.644E-04
   4 F= -.37706725E+03 E0= -.37706294E+03  d E =-.148605E+01  mag=     8.0000
       N       E                     dE             d eps       ncg     rms          ort
SDA:   1    -0.371962285686E+03    0.51050E+01    0.00000E+00 10080   0.184E+02 0.000E+00
CGA:   2    -0.375467865697E+03   -0.35056E+01   -0.34876E+01 10080   0.124E+02 0.318E+00
CGA:   3    -0.376516993356E+03   -0.10491E+01   -0.92984E+00 10080   0.271E+01 0.105E+01
CGA:   4    -0.377168880286E+03   -0.65189E+00   -0.65346E+00 10080   0.216E+01-0.193E-01
CGA:   5    -0.377324211668E+03   -0.15533E+00   -0.15238E+00 10080   0.433E+00 0.302E-01
CGA:   6    -0.377406710360E+03   -0.82499E-01   -0.82578E-01 10080   0.250E+00-0.182E-02
CGA:   7    -0.377426394035E+03   -0.19684E-01   -0.19778E-01 10080   0.945E-01 0.109E-02
CGA:   8    -0.377446238910E+03   -0.19845E-01   -0.19713E-01 10080   0.744E-01 0.219E-02
CGA:   9    -0.377453882481E+03   -0.76436E-02   -0.75784E-02 10080   0.479E-01-0.108E-02
CGA:  10    -0.377465033974E+03   -0.11151E-01   -0.11397E-01 10080   0.197E-01-0.258E-02
CGA:  11    -0.377469918735E+03   -0.48848E-02   -0.49630E-02 10080   0.263E-01-0.664E-03
CGA:  12    -0.377471948297E+03   -0.20296E-02   -0.19768E-02 10080   0.681E-02-0.805E-03
CGA:  13    -0.377473917248E+03   -0.19690E-02   -0.20586E-02 10080   0.381E-02-0.564E-03
CGA:  14    -0.377474304253E+03   -0.38701E-03   -0.39125E-03 10080   0.270E-02 0.834E-04
CGA:  15    -0.377474897964E+03   -0.59371E-03   -0.59693E-03 10080   0.865E-03-0.573E-04
CGA:  16    -0.377475098994E+03   -0.20103E-03   -0.21525E-03 10080   0.169E-02-0.154E-03
CGA:  17    -0.377475266227E+03   -0.16723E-03   -0.15461E-03 10080   0.407E-03-0.235E-03
CGA:  18    -0.377475328231E+03   -0.62004E-04   -0.61565E-04 10080   0.467E-03 0.340E-04
CGA:  19    -0.377475382922E+03   -0.54691E-04   -0.55969E-04 10080   0.146E-03 0.224E-04
CGA:  20    -0.377475436115E+03   -0.53193E-04    0.16847E-03 10080   0.770E-04 0.728E-04
CGA:  21    -0.377475212425E+03    0.22369E-03   -0.12260E-03 10080   0.391E-02-0.402E-03
CGA:  22    -0.377475462154E+03   -0.24973E-03   -0.25436E-03 10080   0.631E-03 0.106E-04
CGA:  23    -0.377475521792E+03   -0.59638E-04   -0.78242E-04 10080   0.203E-03 0.117E-03
CGA:  24    -0.377475550071E+03   -0.28279E-04   -0.28970E-04 10080   0.143E-03 0.450E-05
CGA:  25    -0.377475590436E+03   -0.40365E-04   -0.42277E-04 10080   0.914E-04-0.834E-04
CGA:  26    -0.377475600623E+03   -0.10188E-04   -0.98564E-05 10080   0.589E-04-0.198E-05
CGA:  27    -0.377475612072E+03   -0.11448E-04   -0.11415E-04 10080   0.133E-04-0.564E-06
CGA:  28    -0.377475623133E+03   -0.11061E-04    0.26576E-05 10080   0.809E-04-0.135E-04
CGA:  29    -0.377475624808E+03   -0.16743E-05   -0.37359E-05 10080   0.568E-05 0.990E-05
   5 F= -.37747562E+03 E0= -.37747164E+03  d E =-.408372E+00  mag=     8.0000
       N       E                     dE             d eps       ncg     rms          ort
SDA:   1    -0.373049114615E+03    0.44265E+01    0.00000E+00 10080   0.130E+02 0.000E+00
CGA:   2    -0.376252339761E+03   -0.32032E+01   -0.32026E+01 10080   0.788E+01-0.779E-01
CGA:   3    -0.376922519788E+03   -0.67018E+00   -0.69403E+00 10080   0.340E+01-0.246E-01
CGA:   4    -0.377471369601E+03   -0.54885E+00   -0.53713E+00 10080   0.110E+01 0.190E-01
CGA:   5    -0.377565103818E+03   -0.93734E-01   -0.93550E-01 10080   0.384E+00-0.500E-03
CGA:   6    -0.377622920038E+03   -0.57816E-01   -0.57855E-01 10080   0.109E+00 0.947E-03
CGA:   7    -0.377636959191E+03   -0.14039E-01   -0.14040E-01 10080   0.850E-01-0.817E-04
CGA:   8    -0.377648230045E+03   -0.11271E-01   -0.11342E-01 10080   0.314E-01 0.385E-03
CGA:   9    -0.377654393452E+03   -0.61634E-02   -0.61530E-02 10080   0.404E-01-0.679E-03
CGA:  10    -0.377658889419E+03   -0.44960E-02   -0.44703E-02 10080   0.137E-01-0.177E-04
CGA:  11    -0.377662459271E+03   -0.35699E-02   -0.36286E-02 10080   0.181E-01-0.108E-02
CGA:  12    -0.377664022005E+03   -0.15627E-02   -0.15598E-02 10080   0.445E-02-0.494E-04
CGA:  13    -0.377665306706E+03   -0.12847E-02   -0.13110E-02 10080   0.447E-02-0.299E-03
CGA:  14    -0.377665636642E+03   -0.32994E-03   -0.32504E-03 10080   0.136E-02-0.643E-04
CGA:  15    -0.377666102117E+03   -0.46547E-03   -0.51538E-03 10080   0.117E-02-0.282E-03
CGA:  16    -0.377666186773E+03   -0.84656E-04   -0.87194E-04 10080   0.706E-03 0.197E-04
CGA:  17    -0.377666368366E+03   -0.18159E-03   -0.18445E-03 10080   0.460E-03-0.617E-04
CGA:  18    -0.377666441886E+03   -0.73520E-04   -0.63597E-04 10080   0.636E-03-0.169E-03
CGA:  19    -0.377666514739E+03   -0.72854E-04   -0.64800E-04 10080   0.351E-03-0.178E-03
CGA:  20    -0.377666538568E+03   -0.23829E-04   -0.21952E-04 10080   0.267E-03-0.171E-04
CGA:  21    -0.377666593194E+03   -0.54626E-04   -0.55262E-04 10080   0.311E-03-0.376E-04
CGA:  22    -0.377666622261E+03   -0.29066E-04   -0.22926E-04 10080   0.152E-03-0.560E-04
CGA:  23    -0.377666683411E+03   -0.61150E-04    0.47190E-04 10080   0.212E-03 0.197E-04
CGA:  24    -0.377666712614E+03   -0.29203E-04   -0.71043E-04 10080   0.124E-02-0.417E-03
CGA:  25    -0.377666781155E+03   -0.68541E-04   -0.78190E-04 10080   0.150E-03 0.713E-04
CGA:  26    -0.377666795406E+03   -0.14251E-04   -0.18265E-04 10080   0.637E-04 0.518E-04
CGA:  27    -0.377666801214E+03   -0.58083E-05   -0.81275E-05 10080   0.278E-04 0.247E-04
CGA:  28    -0.377666817396E+03   -0.16182E-04    0.25415E-04 10080   0.190E-04 0.137E-04
CGA:  29    -0.377666836490E+03   -0.19094E-04    0.31415E-05 10080   0.409E-04-0.110E-04
CGA:  30    -0.377666836612E+03   -0.12198E-06   -0.18058E-05 10080   0.752E-05 0.121E-04
   6 F= -.37766684E+03 E0= -.37766309E+03  d E =-.191212E+00  mag=     8.0000
       N       E                     dE             d eps       ncg     rms          ort
SDA:   1    -0.369306765362E+03    0.83601E+01    0.00000E+00 10080   0.212E+02 0.000E+00
CGA:   2    -0.375417127617E+03   -0.61104E+01   -0.61180E+01 10080   0.169E+02-0.633E-01
CGA:   3    -0.376786467838E+03   -0.13693E+01   -0.12166E+01 10080   0.375E+01 0.213E+01
CGA:   4    -0.377528793371E+03   -0.74233E+00   -0.74233E+00 10080   0.216E+01 0.320E-02
CGA:   5    -0.377684912361E+03   -0.15612E+00   -0.15533E+00 10080   0.524E+00 0.977E-02
CGA:   6    -0.377777805444E+03   -0.92893E-01   -0.92923E-01 10080   0.201E+00-0.324E-02
CGA:   7    -0.377797183466E+03   -0.19378E-01   -0.19522E-01 10080   0.115E+00 0.376E-03
CGA:   8    -0.377814345270E+03   -0.17162E-01   -0.17154E-01 10080   0.483E-01-0.558E-03
CGA:   9    -0.377819863904E+03   -0.55186E-02   -0.55092E-02 10080   0.386E-01-0.521E-03
CGA:  10    -0.377827088740E+03   -0.72248E-02   -0.72951E-02 10080   0.158E-01-0.235E-02
CGA:  11    -0.377830156820E+03   -0.30681E-02   -0.31272E-02 10080   0.223E-01-0.123E-02
CGA:  12    -0.377832698737E+03   -0.25419E-02   -0.24800E-02 10080   0.533E-02-0.152E-02
CGA:  13    -0.377834222158E+03   -0.15234E-02   -0.18882E-02 10080   0.822E-02-0.167E-02
CGA:  14    -0.377834643081E+03   -0.42092E-03   -0.37792E-03 10080   0.277E-02-0.420E-03
CGA:  15    -0.377835111353E+03   -0.46827E-03   -0.47804E-03 10080   0.631E-02-0.715E-03
CGA:  16    -0.377835631263E+03   -0.51991E-03   -0.44434E-03 10080   0.337E-02-0.105E-02
CGA:  17    -0.377835817542E+03   -0.18628E-03   -0.15522E-03 10080   0.155E-02-0.293E-03
CGA:  18    -0.377836008427E+03   -0.19088E-03   -0.18541E-03 10080   0.304E-02-0.193E-03
CGA:  19    -0.377836306343E+03   -0.29792E-03   -0.27431E-03 10080   0.187E-02-0.442E-03
CGA:  20    -0.377836433438E+03   -0.12710E-03   -0.92629E-04 10080   0.773E-03-0.356E-03
CGA:  21    -0.377833145184E+03    0.32883E-02   -0.17904E-02 10080   0.488E-01-0.472E-02
CGA:  22    -0.377836145922E+03   -0.30007E-02   -0.31664E-02 10080   0.517E-02 0.130E-03
CGA:  23    -0.377836756376E+03   -0.61045E-03   -0.66643E-03 10080   0.206E-02 0.415E-03
CGA:  24    -0.377836929342E+03   -0.17297E-03   -0.19901E-03 10080   0.583E-03 0.153E-03
CGA:  25    -0.377837140606E+03   -0.21126E-03   -0.37181E-03 10080   0.943E-03-0.466E-03
CGA:  26    -0.377837240587E+03   -0.99981E-04   -0.11594E-03 10080   0.496E-03 0.112E-03
CGA:  27    -0.377837306435E+03   -0.65848E-04   -0.70791E-04 10080   0.132E-03 0.379E-04
CGA:  28    -0.377837341725E+03   -0.35291E-04   -0.34587E-04 10080   0.351E-03-0.707E-04
CGA:  29    -0.377837370043E+03   -0.28317E-04   -0.21214E-04 10080   0.428E-04-0.363E-04
CGA:  30    -0.377837378116E+03   -0.80731E-05   -0.22546E-04 10080   0.435E-03-0.420E-04
CGA:  31    -0.377837409143E+03   -0.31027E-04   -0.25304E-04 10080   0.366E-04-0.284E-04
CGA:  32    -0.377837416749E+03   -0.76059E-05   -0.74962E-05 10080   0.424E-04-0.366E-05
CGA:  33    -0.377836831291E+03    0.58546E-03   -0.32245E-03 10080   0.102E-01-0.473E-03
CGA:  34    -0.377837377714E+03   -0.54642E-03   -0.57647E-03 10080   0.747E-03 0.344E-04
CGA:  35    -0.377837502310E+03   -0.12460E-03   -0.12070E-03 10080   0.358E-03-0.135E-04
CGA:  36    -0.377837528911E+03   -0.26601E-04   -0.28305E-04 10080   0.124E-04 0.498E-05
CGA:  37    -0.377837529353E+03   -0.44180E-06   -0.18813E-05 10080   0.506E-05 0.569E-05
   7 F= -.37783753E+03 E0= -.37783418E+03  d E =-.170693E+00  mag=     8.0000
       N       E                     dE             d eps       ncg     rms          ort
SDA:   1    -0.352326619603E+03    0.25511E+02    0.00000E+00 10080   0.667E+02 0.000E+00
CGA:   2    -0.368481006578E+03   -0.16154E+02   -0.15920E+02 10080   0.759E+02 0.868E+00
CGA:   3    -0.374087700426E+03   -0.56067E+01   -0.52082E+01 10080   0.140E+02 0.103E+02
CGA:   4    -0.376609813011E+03   -0.25221E+01   -0.24644E+01 10080   0.104E+02 0.279E+00
CGA:   5    -0.377362986395E+03   -0.75317E+00   -0.77979E+00 10080   0.254E+01-0.616E-01
CGA:   6    -0.377612119991E+03   -0.24913E+00   -0.23275E+00 10080   0.216E+01 0.139E+00
CGA:   7    -0.377808728067E+03   -0.19661E+00   -0.21149E+00 10080   0.366E+00-0.134E+00
CGA:   8    -0.377879434067E+03   -0.70706E-01   -0.71811E-01 10080   0.259E+00 0.136E-02
CGA:   9    -0.377901666597E+03   -0.22233E-01   -0.22949E-01 10080   0.123E+00-0.533E-02
CGA:  10    -0.377918955216E+03   -0.17289E-01   -0.17484E-01 10080   0.126E+00-0.323E-02
CGA:  11    -0.377931230699E+03   -0.12275E-01   -0.11716E-01 10080   0.347E-01 0.155E-03
CGA:  12    -0.377941799856E+03   -0.10569E-01   -0.10673E-01 10080   0.287E-01-0.354E-02
CGA:  13    -0.377944642283E+03   -0.28424E-02   -0.27273E-02 10080   0.158E-01-0.142E-02
CGA:  14    -0.377947433029E+03   -0.27907E-02   -0.27167E-02 10080   0.136E-01-0.925E-03
CGA:  15    -0.377948624021E+03   -0.11910E-02   -0.10784E-02 10080   0.468E-02-0.843E-03
CGA:  16    -0.377950035475E+03   -0.14115E-02   -0.20744E-02 10080   0.902E-02-0.307E-02
CGA:  17    -0.377950823103E+03   -0.78763E-03   -0.82179E-03 10080   0.342E-02 0.169E-03
CGA:  18    -0.377951331621E+03   -0.50852E-03   -0.53854E-03 10080   0.989E-03 0.286E-03
CGA:  19    -0.377951607515E+03   -0.27589E-03   -0.27906E-03 10080   0.392E-02-0.475E-03
CGA:  20    -0.377951885596E+03   -0.27808E-03   -0.15815E-03 10080   0.320E-02-0.694E-03
CGA:  21    -0.377952048138E+03   -0.16254E-03   -0.10460E-03 10080   0.108E-02-0.360E-03
CGA:  22    -0.377952153415E+03   -0.10528E-03   -0.81055E-04 10080   0.186E-02-0.173E-03
CGA:  23    -0.377952370663E+03   -0.21725E-03   -0.17478E-03 10080   0.259E-02-0.372E-03
CGA:  24    -0.377952520556E+03   -0.14989E-03   -0.96060E-04 10080   0.111E-02-0.338E-03
CGA:  25    -0.377952658392E+03   -0.13784E-03   -0.71115E-04 10080   0.132E-02-0.489E-03
CGA:  26    -0.377951658175E+03    0.10002E-02   -0.33763E-03 10080   0.254E-01-0.538E-02
CGA:  27    -0.377953357269E+03   -0.16991E-02   -0.17627E-02 10080   0.274E-02 0.364E-03
CGA:  28    -0.377953703897E+03   -0.34663E-03   -0.39255E-03 10080   0.588E-03 0.660E-03
CGA:  29    -0.377953845393E+03   -0.14150E-03   -0.14175E-03 10080   0.879E-03 0.212E-04
CGA:  30    -0.377954013918E+03   -0.16852E-03   -0.15536E-03 10080   0.329E-03-0.365E-03
CGA:  31    -0.377954093266E+03   -0.79348E-04    0.43743E-02 10080   0.600E-03-0.185E-03
CGA:  32    -0.377954141861E+03   -0.48596E-04   -0.45409E-04 10080   0.230E-03-0.247E-04
CGA:  33    -0.377954202299E+03   -0.60438E-04   -0.61032E-04 10080   0.106E-03-0.704E-05
CGA:  34    -0.377954108517E+03    0.93782E-04   -0.52841E-04 10080   0.316E-02-0.471E-03
CGA:  35    -0.377954293413E+03   -0.18490E-03   -0.18741E-03 10080   0.109E-03 0.357E-04
CGA:  36    -0.377954309492E+03   -0.16079E-04   -0.14602E-04 10080   0.115E-03-0.190E-04
CGA:  37    -0.377954329630E+03   -0.20138E-04   -0.20316E-04 10080   0.383E-04-0.228E-04
CGA:  38    -0.377954364614E+03   -0.34985E-04    0.18066E-05 10080   0.583E-04-0.210E-04
CGA:  39    -0.377954371304E+03   -0.66896E-05   -0.15861E-04 10080   0.461E-03-0.140E-03
CGA:  40    -0.377954393290E+03   -0.21985E-04   -0.27856E-04 10080   0.783E-05 0.423E-04
CGA:  41    -0.377954400267E+03   -0.69774E-05    0.84900E-06 10080   0.275E-04-0.664E-05
CGA:  42    -0.377954414018E+03   -0.13751E-04    0.11750E-04 10080   0.105E-03-0.454E-04
CGA:  43    -0.377954419224E+03   -0.52057E-05   -0.64808E-05 10080   0.392E-05 0.951E-05
   8 F= -.37795442E+03 E0= -.37795091E+03  d E =-.116890E+00  mag=     8.0000
       N       E                     dE             d eps       ncg     rms          ort
SDA:   1    -0.374249772438E+03    0.37046E+01    0.00000E+00 10080   0.928E+01 0.000E+00
CGA:   2    -0.377208397795E+03   -0.29586E+01   -0.29634E+01 10080   0.557E+01-0.329E-01
CGA:   3    -0.377680031185E+03   -0.47163E+00   -0.48691E+00 10080   0.217E+01-0.688E-01
CGA:   4    -0.377979741267E+03   -0.29971E+00   -0.29882E+00 10080   0.566E+00-0.190E-02
CGA:   5    -0.378039713600E+03   -0.59972E-01   -0.58779E-01 10080   0.200E+00 0.600E-02
CGA:   6    -0.378070666293E+03   -0.30953E-01   -0.30877E-01 10080   0.579E-01-0.235E-02
CGA:   7    -0.378077880873E+03   -0.72146E-02   -0.72324E-02 10080   0.374E-01 0.497E-03
CGA:   8    -0.378082679648E+03   -0.47988E-02   -0.48190E-02 10080   0.121E-01 0.361E-03
CGA:   9    -0.378084525772E+03   -0.18461E-02   -0.18542E-02 10080   0.930E-02 0.255E-03
CGA:  10    -0.378086003114E+03   -0.14773E-02   -0.14725E-02 10080   0.373E-02-0.191E-03
CGA:  11    -0.378086732415E+03   -0.72930E-03   -0.73215E-03 10080   0.406E-02-0.127E-03
CGA:  12    -0.378087232690E+03   -0.50028E-03   -0.47524E-03 10080   0.158E-02-0.430E-03
CGA:  13    -0.378087502693E+03   -0.27000E-03   -0.27632E-03 10080   0.158E-02-0.324E-03
CGA:  14    -0.378087719568E+03   -0.21687E-03   -0.21235E-03 10080   0.859E-03-0.538E-03
CGA:  15    -0.378087816037E+03   -0.96469E-04   -0.92703E-04 10080   0.879E-03-0.281E-03
CGA:  16    -0.378087854680E+03   -0.38642E-04   -0.20371E-03 10080   0.318E-02-0.978E-03
CGA:  17    -0.378088029992E+03   -0.17531E-03   -0.18546E-03 10080   0.418E-03 0.837E-04
CGA:  18    -0.378088140590E+03   -0.11060E-03   -0.11358E-03 10080   0.460E-03-0.344E-04
CGA:  19    -0.378088199628E+03   -0.59038E-04   -0.52876E-04 10080   0.150E-03-0.106E-03
CGA:  20    -0.378088254600E+03   -0.54973E-04    0.31833E-04 10080   0.757E-04 0.374E-04
CGA:  21    -0.378087821544E+03    0.43306E-03   -0.23413E-03 10080   0.711E-02-0.563E-03
CGA:  22    -0.378088254606E+03   -0.43306E-03   -0.43454E-03 10080   0.638E-03 0.292E-04
CGA:  23    -0.378088358606E+03   -0.10400E-03   -0.96790E-04 10080   0.458E-03-0.442E-04
CGA:  24    -0.378088408356E+03   -0.49750E-04   -0.50345E-04 10080   0.356E-04 0.477E-05
CGA:  25    -0.378088442067E+03   -0.33711E-04    0.92156E-05 10080   0.574E-04-0.879E-05
CGA:  26    -0.378088477112E+03   -0.35045E-04    0.17574E-04 10080   0.164E-03-0.713E-04
CGA:  27    -0.378088481129E+03   -0.40166E-05   -0.12024E-04 10080   0.307E-04 0.365E-04
   9 F= -.37808848E+03 E0= -.37808522E+03  d E =-.134062E+00  mag=     8.0000
       N       E                     dE             d eps       ncg     rms          ort
SDA:   1    -0.376942299813E+03    0.11462E+01    0.00000E+00 10080   0.308E+01 0.000E+00
CGA:   2    -0.377856220040E+03   -0.91392E+00   -0.91400E+00 10080   0.116E+01-0.388E-02
CGA:   3    -0.378028569475E+03   -0.17235E+00   -0.17221E+00 10080   0.753E+00 0.350E-02
CGA:   4    -0.378100325120E+03   -0.71756E-01   -0.70462E-01 10080   0.161E+00 0.128E-01
CGA:   5    -0.378121957205E+03   -0.21632E-01   -0.21556E-01 10080   0.609E-01 0.114E-02
CGA:   6    -0.378129785362E+03   -0.78282E-02   -0.77939E-02 10080   0.167E-01-0.681E-03
CGA:   7    -0.378132870340E+03   -0.30850E-02   -0.30851E-02 10080   0.719E-02 0.306E-04
CGA:   8    -0.378133823019E+03   -0.95268E-03   -0.93119E-03 10080   0.508E-02-0.195E-03
CGA:   9    -0.378134538836E+03   -0.71582E-03   -0.71078E-03 10080   0.204E-02-0.502E-04
CGA:  10    -0.378134872488E+03   -0.33365E-03   -0.32865E-03 10080   0.171E-02-0.657E-04
CGA:  11    -0.378135184388E+03   -0.31190E-03   -0.30454E-03 10080   0.712E-03-0.156E-03
CGA:  12    -0.378135333829E+03   -0.14944E-03   -0.14996E-03 10080   0.964E-03-0.181E-03
CGA:  13    -0.378135433007E+03   -0.99179E-04   -0.84354E-04 10080   0.315E-03-0.133E-03
CGA:  14    -0.378135490344E+03   -0.57337E-04   -0.81338E-04 10080   0.128E-02-0.316E-03
CGA:  15    -0.378135574149E+03   -0.83805E-04   -0.85240E-04 10080   0.100E-03 0.164E-04
CGA:  16    -0.378135470678E+03    0.10347E-03   -0.86363E-04 10080   0.355E-02-0.299E-03
CGA:  17    -0.378135662352E+03   -0.19167E-03   -0.19693E-03 10080   0.166E-03 0.515E-04
CGA:  18    -0.378135697641E+03   -0.35289E-04   -0.32155E-04 10080   0.211E-03-0.619E-04
CGA:  19    -0.378135729241E+03   -0.31600E-04   -0.27563E-04 10080   0.102E-03-0.132E-03
CGA:  20    -0.378135756273E+03   -0.27032E-04   -0.27402E-04 10080   0.496E-04-0.117E-04
CGA:  21    -0.378135764662E+03   -0.83886E-05   -0.56552E-05 10080   0.419E-04-0.247E-04
  10 F= -.37813576E+03 E0= -.37813274E+03  d E =-.472835E-01  mag=     8.0000
       N       E                     dE             d eps       ncg     rms          ort
SDA:   1    -0.374358111394E+03    0.37776E+01    0.00000E+00 10080   0.912E+01 0.000E+00
CGA:   2    -0.377431197096E+03   -0.30731E+01   -0.30738E+01 10080   0.377E+01-0.672E-02
CGA:   3    -0.377900440187E+03   -0.46924E+00   -0.46833E+00 10080   0.188E+01 0.280E-01
CGA:   4    -0.378103469628E+03   -0.20303E+00   -0.19716E+00 10080   0.414E+00 0.439E-01
CGA:   5    -0.378154117865E+03   -0.50648E-01   -0.50139E-01 10080   0.189E+00 0.252E-02
CGA:   6    -0.378178549464E+03   -0.24432E-01   -0.24329E-01 10080   0.429E-01-0.179E-02
CGA:   7    -0.378187123984E+03   -0.85745E-02   -0.85781E-02 10080   0.164E-01 0.286E-03
CGA:   8    -0.378189260262E+03   -0.21363E-02   -0.21151E-02 10080   0.117E-01-0.298E-03
CGA:   9    -0.378190902618E+03   -0.16424E-02   -0.16255E-02 10080   0.449E-02-0.242E-03
CGA:  10    -0.378191657838E+03   -0.75522E-03   -0.74336E-03 10080   0.385E-02-0.303E-03
CGA:  11    -0.378192331225E+03   -0.67339E-03   -0.66337E-03 10080   0.148E-02-0.477E-03
CGA:  12    -0.378192600202E+03   -0.26898E-03   -0.26998E-03 10080   0.183E-02-0.264E-03
CGA:  13    -0.378192792840E+03   -0.19264E-03   -0.17039E-03 10080   0.490E-03-0.246E-03
CGA:  14    -0.378190468897E+03    0.23239E-02   -0.12690E-02 10080   0.342E-01-0.262E-02
CGA:  15    -0.378192661807E+03   -0.21929E-02   -0.22292E-02 10080   0.267E-02 0.118E-02
CGA:  16    -0.378193046668E+03   -0.38486E-03   -0.42551E-03 10080   0.196E-02 0.209E-03
CGA:  17    -0.378193273015E+03   -0.22635E-03   -0.23781E-03 10080   0.334E-03 0.506E-04
CGA:  18    -0.378193120211E+03    0.15280E-03   -0.31925E-03 10080   0.327E-02-0.783E-03
CGA:  19    -0.378193385375E+03   -0.26516E-03   -0.35898E-03 10080   0.985E-03 0.378E-03
CGA:  20    -0.378193442040E+03   -0.56665E-04   -0.94694E-04 10080   0.189E-03 0.148E-03
CGA:  21    -0.378193504334E+03   -0.62295E-04   -0.61050E-04 10080   0.194E-03-0.232E-04
CGA:  22    -0.378193563563E+03   -0.59228E-04   -0.33249E-04 10080   0.204E-03-0.191E-03
CGA:  23    -0.378193575358E+03   -0.11796E-04   -0.16402E-04 10080   0.422E-04 0.195E-04
CGA:  24    -0.378193589817E+03   -0.14458E-04   -0.26956E-04 10080   0.984E-04-0.461E-04
CGA:  25    -0.378193613114E+03   -0.23297E-04   -0.15600E-04 10080   0.130E-03-0.458E-04
CGA:  26    -0.378193638636E+03   -0.25522E-04   -0.16079E-04 10080   0.146E-03-0.110E-03
CGA:  27    -0.378193643990E+03   -0.53537E-05   -0.12529E-04 10080   0.390E-04 0.319E-04
  11 F= -.37819364E+03 E0= -.37819093E+03  d E =-.578793E-01  mag=     8.0000
       N       E                     dE             d eps       ncg     rms          ort
SDA:   1    -0.337979009285E+03    0.40215E+02    0.00000E+00 10080   0.122E+03 0.000E+00
CGA:   2    -0.362221631434E+03   -0.24243E+02   -0.26069E+02 10080   0.950E+02 0.355E+01
CGA:   3    -0.370554139505E+03   -0.83325E+01   -0.63455E+01 10080   0.235E+02 0.378E+02
CGA:   4    -0.374866429696E+03   -0.43123E+01   -0.39481E+01 10080   0.214E+02 0.146E+01
CGA:   5    -0.376654238112E+03   -0.17878E+01   -0.13994E+01 10080   0.777E+01 0.680E+01
CGA:   6    -0.377327556239E+03   -0.67332E+00   -0.70732E+00 10080   0.518E+01-0.673E+00
CGA:   7    -0.377812287886E+03   -0.48473E+00   -0.48497E+00 10080   0.439E+01-0.209E-01
CGA:   8    -0.378031046910E+03   -0.21876E+00   -0.20455E+00 10080   0.937E+00 0.396E+00
CGA:   9    -0.378099632306E+03   -0.68585E-01   -0.68702E-01 10080   0.649E+00 0.113E-01
CGA:  10    -0.378167942369E+03   -0.68310E-01   -0.69788E-01 10080   0.506E+00 0.377E-02
CGA:  11    -0.378202806129E+03   -0.34864E-01   -0.35764E-01 10080   0.245E+00 0.307E-02
CGA:  12    -0.378226268618E+03   -0.23462E-01   -0.23224E-01 10080   0.229E+00-0.181E-03
CGA:  13    -0.378251089203E+03   -0.24821E-01   -0.24279E-01 10080   0.141E+00-0.686E-02
CGA:  14    -0.378260685680E+03   -0.95965E-02   -0.96749E-02 10080   0.643E-01-0.759E-02
CGA:  15    -0.378267944297E+03   -0.72586E-02   -0.72950E-02 10080   0.614E-01-0.244E-03
CGA:  16    -0.378273802356E+03   -0.58581E-02   -0.59079E-02 10080   0.247E-01 0.764E-03
CGA:  17    -0.378275830897E+03   -0.20285E-02   -0.19907E-02 10080   0.126E-01-0.697E-03
CGA:  18    -0.378278478343E+03   -0.26474E-02   -0.28228E-02 10080   0.203E-01-0.344E-02
CGA:  19    -0.378279655204E+03   -0.11769E-02   -0.10215E-02 10080   0.829E-02-0.152E-02
CGA:  20    -0.378280275180E+03   -0.61998E-03   -0.60032E-03 10080   0.678E-02-0.239E-03
CGA:  21    -0.378281073688E+03   -0.79851E-03   -0.78981E-03 10080   0.704E-02-0.170E-03
CGA:  22    -0.378281695149E+03   -0.62146E-03   -0.56936E-03 10080   0.381E-02-0.662E-03
CGA:  23    -0.378282305295E+03   -0.61015E-03   -0.66145E-03 10080   0.105E-01-0.194E-02
CGA:  24    -0.378283052637E+03   -0.74734E-03   -0.76244E-03 10080   0.147E-02 0.144E-03
CGA:  25    -0.378283389572E+03   -0.33694E-03   -0.41410E-03 10080   0.430E-02-0.661E-03
CGA:  26    -0.378283627479E+03   -0.23791E-03   -0.19278E-03 10080   0.249E-02-0.535E-03
CGA:  27    -0.378283773293E+03   -0.14581E-03   -0.13675E-03 10080   0.176E-02-0.114E-03
CGA:  28    -0.378283979898E+03   -0.20660E-03   -0.20735E-03 10080   0.204E-02 0.222E-04
CGA:  29    -0.378284136602E+03   -0.15670E-03   -0.14590E-03 10080   0.891E-03-0.147E-03
CGA:  30    -0.378283757803E+03    0.37880E-03   -0.41170E-03 10080   0.158E-01-0.227E-02
CGA:  31    -0.378284805672E+03   -0.10479E-02   -0.10559E-02 10080   0.125E-02-0.122E-03
CGA:  32    -0.378284953344E+03   -0.14767E-03   -0.14435E-03 10080   0.736E-03-0.667E-04
CGA:  33    -0.378285092707E+03   -0.13936E-03   -0.14374E-03 10080   0.262E-03-0.975E-04
CGA:  34    -0.378285197013E+03   -0.10431E-03    0.46734E-04 10080   0.185E-03 0.108E-03
CGA:  35    -0.378285308959E+03   -0.11195E-03    0.71273E-04 10080   0.921E-04 0.121E-03
CGA:  36    -0.378285342795E+03   -0.33836E-04    0.64372E-04 10080   0.132E-03 0.235E-04
CGA:  37    -0.378285421631E+03   -0.78836E-04    0.30659E-04 10080   0.699E-04 0.108E-03
CGA:  38    -0.378285453108E+03   -0.31476E-04    0.15461E-04 10080   0.747E-04 0.230E-04
CGA:  39    -0.378285510734E+03   -0.57626E-04    0.10658E-04 10080   0.582E-04 0.896E-04
CGA:  40    -0.378285535178E+03   -0.24444E-04    0.17141E-04 10080   0.627E-04 0.218E-04
CGA:  41    -0.378285587812E+03   -0.52634E-04    0.82779E-05 10080   0.512E-04 0.803E-04
CGA:  42    -0.378285609612E+03   -0.21800E-04    0.14287E-04 10080   0.553E-04 0.198E-04
CGA:  43    -0.378285654369E+03   -0.44757E-04    0.81326E-05 10080   0.456E-04 0.719E-04
CGA:  44    -0.378285676442E+03   -0.22073E-04    0.79374E-05 10080   0.494E-04 0.177E-04
CGA:  45    -0.378285719113E+03   -0.42671E-04    0.63076E-05 10080   0.412E-04 0.642E-04
CGA:  46    -0.378285734031E+03   -0.14918E-04    0.32984E-04 10080   0.449E-04 0.154E-04
CGA:  47    -0.378285768476E+03   -0.34445E-04    0.72443E-05 10080   0.376E-04 0.575E-04
CGA:  48    -0.378285788589E+03   -0.20113E-04    0.49076E-05 10080   0.414E-04 0.130E-04
CGA:  49    -0.378285823766E+03   -0.35177E-04    0.49489E-05 10080   0.352E-04 0.513E-04
CGA:  50    -0.378285832070E+03   -0.83037E-05   -0.13516E-04 10080   0.214E-03-0.234E-04
CGA:  51    -0.378285857881E+03   -0.25812E-04   -0.21682E-04 10080   0.594E-04-0.553E-04
CGA:  52    -0.378285880968E+03   -0.23086E-04    0.71928E-05 10080   0.548E-04 0.129E-04
CGA:  53    -0.378285905574E+03   -0.24606E-04    0.76874E-04 10080   0.575E-04 0.173E-04
CGA:  54    -0.378285945578E+03   -0.40004E-04    0.11948E-04 10080   0.206E-04 0.632E-04
CGA:  55    -0.378285957303E+03   -0.11725E-04    0.26839E-05 10080   0.301E-04 0.943E-05
CGA:  56    -0.378285981111E+03   -0.23808E-04    0.64990E-05 10080   0.197E-04 0.373E-04
CGA:  57    -0.378285952507E+03    0.28604E-04   -0.16287E-04 10080   0.101E-02-0.556E-04
CGA:  58    -0.378286036271E+03   -0.83763E-04   -0.75362E-04 10080   0.354E-04-0.408E-04
CGA:  59    -0.378286042445E+03   -0.61749E-05   -0.40750E-05 10080   0.405E-04-0.116E-04
CGA:  60    -0.378286062728E+03   -0.20283E-04    0.14370E-04 10080   0.335E-04 0.201E-04
CGA:  61    -0.378286075482E+03   -0.12754E-04   -0.10490E-04 10080   0.175E-03-0.271E-04
CGA:  62    -0.378286087643E+03   -0.12160E-04   -0.10349E-04 10080   0.116E-04-0.747E-05
CGA:  63    -0.378286096508E+03   -0.88650E-05   -0.84262E-05 10080   0.731E-04 0.806E-06
CGA:  64    -0.378286049863E+03    0.46645E-04   -0.76677E-04 10080   0.246E-02-0.182E-03
CGA:  65    -0.378286190165E+03   -0.14030E-03   -0.15001E-03 10080   0.202E-03 0.367E-04
CGA:  66    -0.378286231875E+03   -0.41711E-04   -0.39397E-04 10080   0.501E-04-0.179E-04
CGA:  67    -0.378286240478E+03   -0.86027E-05   -0.52368E-05 10080   0.109E-04-0.167E-04
  12 F= -.37828624E+03 E0= -.37828410E+03  d E =-.925965E-01  mag=     8.0000
       N       E                     dE             d eps       ncg     rms          ort
SDA:   1    -0.358137821944E+03    0.20148E+02    0.00000E+00 10080   0.500E+02 0.000E+00
CGA:   2    -0.373167096310E+03   -0.15029E+02   -0.15033E+02 10080   0.334E+02-0.205E+00
CGA:   3    -0.376192782518E+03   -0.30257E+01   -0.26812E+01 10080   0.782E+01 0.735E+01
CGA:   4    -0.377668117557E+03   -0.14753E+01   -0.14726E+01 10080   0.364E+01 0.264E-01
CGA:   5    -0.378041079863E+03   -0.37296E+00   -0.33151E+00 10080   0.104E+01 0.400E+00
CGA:   6    -0.378230351943E+03   -0.18927E+00   -0.18895E+00 10080   0.502E+00-0.703E-02
CGA:   7    -0.378283792047E+03   -0.53440E-01   -0.53780E-01 10080   0.211E+00-0.539E-02
CGA:   8    -0.378317088187E+03   -0.33296E-01   -0.33595E-01 10080   0.113E+00 0.331E-02
CGA:   9    -0.378328562376E+03   -0.11474E-01   -0.11594E-01 10080   0.506E-01 0.327E-02
CGA:  10    -0.378340242099E+03   -0.11680E-01   -0.11655E-01 10080   0.340E-01-0.148E-02
CGA:  11    -0.378344879726E+03   -0.46376E-02   -0.45264E-02 10080   0.217E-01-0.117E-02
CGA:  12    -0.378349052651E+03   -0.41729E-02   -0.41851E-02 10080   0.898E-02 0.338E-03
CGA:  13    -0.378350279353E+03   -0.12267E-02   -0.12222E-02 10080   0.675E-02-0.468E-05
CGA:  14    -0.378351565668E+03   -0.12863E-02   -0.12677E-02 10080   0.325E-02-0.462E-03
CGA:  15    -0.378352013023E+03   -0.44735E-03   -0.41846E-03 10080   0.281E-02-0.343E-03
CGA:  16    -0.378352641143E+03   -0.62812E-03   -0.63347E-03 10080   0.158E-02-0.191E-03
CGA:  17    -0.378352931001E+03   -0.28986E-03   -0.28851E-03 10080   0.195E-02-0.624E-04
CGA:  18    -0.378353327729E+03   -0.39673E-03   -0.39701E-03 10080   0.767E-03 0.456E-05
CGA:  19    -0.378353559394E+03   -0.23167E-03   -0.26265E-03 10080   0.214E-02-0.270E-03
CGA:  20    -0.378353718139E+03   -0.15875E-03   -0.13216E-03 10080   0.934E-03-0.214E-03
CGA:  21    -0.378353784532E+03   -0.66393E-04   -0.62814E-04 10080   0.570E-03-0.298E-04
CGA:  22    -0.378353850732E+03   -0.66200E-04   -0.70580E-04 10080   0.684E-03 0.428E-04
CGA:  23    -0.378353917564E+03   -0.66832E-04   -0.74431E-04 10080   0.364E-03 0.591E-04
CGA:  24    -0.378353966298E+03   -0.48734E-04   -0.44281E-04 10080   0.336E-03-0.503E-04
CGA:  25    -0.378354085920E+03   -0.11962E-03    0.82605E-03 10080   0.431E-03-0.828E-04
CGA:  26    -0.378354153361E+03   -0.67441E-04   -0.48531E-04 10080   0.631E-03-0.388E-03
CGA:  27    -0.378354179399E+03   -0.26038E-04   -0.48960E-04 10080   0.201E-03 0.192E-03
CGA:  28    -0.378354189674E+03   -0.10275E-04   -0.23607E-04 10080   0.106E-03 0.132E-03
CGA:  29    -0.378354207572E+03   -0.17898E-04   -0.43398E-04 10080   0.747E-03-0.114E-03
CGA:  30    -0.378354242422E+03   -0.34850E-04   -0.44503E-04 10080   0.369E-04 0.704E-04
CGA:  31    -0.378354246148E+03   -0.37258E-05   -0.40927E-05 10080   0.238E-04 0.427E-05
  13 F= -.37835425E+03 E0= -.37835221E+03  d E =-.680057E-01  mag=     8.0000
       N       E                     dE             d eps       ncg     rms          ort
SDA:   1    -0.371867726348E+03    0.64865E+01    0.00000E+00 10080   0.159E+02 0.000E+00
CGA:   2    -0.376952476527E+03   -0.50848E+01   -0.50926E+01 10080   0.698E+01-0.560E-01
CGA:   3    -0.377831862007E+03   -0.87939E+00   -0.88845E+00 10080   0.351E+01 0.606E-01
CGA:   4    -0.378205613049E+03   -0.37375E+00   -0.36828E+00 10080   0.807E+00 0.326E-01
CGA:   5    -0.378313788820E+03   -0.10818E+00   -0.10804E+00 10080   0.299E+00 0.253E-02
CGA:   6    -0.378353748330E+03   -0.39960E-01   -0.39884E-01 10080   0.796E-01-0.213E-02
CGA:   7    -0.378368437364E+03   -0.14689E-01   -0.14689E-01 10080   0.331E-01-0.807E-04
CGA:   8    -0.378372762706E+03   -0.43253E-02   -0.42425E-02 10080   0.228E-01-0.155E-02
CGA:   9    -0.378376238264E+03   -0.34756E-02   -0.34414E-02 10080   0.876E-02-0.182E-02
CGA:  10    -0.378377988827E+03   -0.17506E-02   -0.18737E-02 10080   0.105E-01-0.217E-02
CGA:  11    -0.378379144439E+03   -0.11556E-02   -0.11071E-02 10080   0.329E-02-0.126E-02
CGA:  12    -0.378379746654E+03   -0.60222E-03   -0.63013E-03 10080   0.413E-02-0.686E-03
CGA:  13    -0.378380134681E+03   -0.38803E-03   -0.36815E-03 10080   0.904E-03-0.307E-03
CGA:  14    -0.378380336083E+03   -0.20140E-03   -0.23143E-03 10080   0.178E-02-0.300E-03
CGA:  15    -0.378380486080E+03   -0.15000E-03   -0.12971E-03 10080   0.781E-03-0.281E-03
CGA:  16    -0.378380544395E+03   -0.58316E-04   -0.59727E-04 10080   0.588E-03 0.170E-04
CGA:  17    -0.378380606166E+03   -0.61770E-04   -0.72617E-04 10080   0.522E-03 0.205E-03
CGA:  18    -0.378380654497E+03   -0.48332E-04   -0.62055E-04 10080   0.170E-03 0.166E-03
CGA:  19    -0.378380705170E+03   -0.50673E-04   -0.52972E-04 10080   0.368E-03-0.332E-04
CGA:  20    -0.378380734975E+03   -0.29806E-04   -0.26615E-04 10080   0.224E-03-0.409E-04
CGA:  21    -0.378380742619E+03   -0.76431E-05   -0.11105E-04 10080   0.142E-03 0.311E-04
  14 F= -.37838074E+03 E0= -.37837885E+03  d E =-.264965E-01  mag=     8.0000
       N       E                     dE             d eps       ncg     rms          ort
SDA:   1    -0.378113359903E+03    0.26738E+00    0.00000E+00 10080   0.701E+00 0.000E+00
CGA:   2    -0.378327411911E+03   -0.21405E+00   -0.21389E+00 10080   0.458E+00 0.113E-02
CGA:   3    -0.378372070195E+03   -0.44658E-01   -0.43937E-01 10080   0.145E+00 0.146E-02
CGA:   4    -0.378393654014E+03   -0.21584E-01   -0.21596E-01 10080   0.525E-01 0.111E-02
CGA:   5    -0.378399496620E+03   -0.58426E-02   -0.58021E-02 10080   0.148E-01-0.428E-03
CGA:   6    -0.378402161636E+03   -0.26650E-02   -0.26698E-02 10080   0.369E-02-0.180E-03
CGA:   7    -0.378402825722E+03   -0.66409E-03   -0.66220E-03 10080   0.280E-02 0.811E-04
CGA:   8    -0.378403141545E+03   -0.31582E-03   -0.31968E-03 10080   0.942E-03 0.858E-04
CGA:   9    -0.378403371440E+03   -0.22989E-03   -0.30313E-03 10080   0.165E-02-0.467E-03
CGA:  10    -0.378403438138E+03   -0.66698E-04   -0.62411E-04 10080   0.718E-03-0.468E-04
CGA:  11    -0.378403482587E+03   -0.44449E-04   -0.49166E-04 10080   0.455E-03 0.535E-04
CGA:  12    -0.378403543398E+03   -0.60811E-04   -0.61363E-04 10080   0.355E-03 0.182E-04
CGA:  13    -0.378403584950E+03   -0.41552E-04   -0.36187E-04 10080   0.186E-03-0.952E-04
CGA:  14    -0.378403578057E+03    0.68929E-05   -0.47028E-04 10080   0.956E-03-0.278E-03
CGA:  15    -0.378403645269E+03   -0.67212E-04   -0.69778E-04 10080   0.111E-03 0.358E-04
CGA:  16    -0.378403661695E+03   -0.16426E-04   -0.16774E-04 10080   0.719E-04 0.337E-04
CGA:  17    -0.378403679148E+03   -0.17453E-04   -0.24799E-04 10080   0.128E-03-0.672E-04
CGA:  18    -0.378403686622E+03   -0.74733E-05   -0.90548E-05 10080   0.196E-04 0.178E-04
CGA:  19    -0.378403693783E+03   -0.71611E-05    0.73940E-04 10080   0.169E-04 0.664E-05
CGA:  20    -0.378403701414E+03   -0.76316E-05    0.22481E-04 10080   0.715E-05 0.182E-05
  15 F= -.37840370E+03 E0= -.37840185E+03  d E =-.229588E-01  mag=     8.0000
       N       E                     dE             d eps       ncg     rms          ort
SDA:   1    -0.377664145045E+03    0.73955E+00    0.00000E+00 10080   0.176E+01 0.000E+00
CGA:   2    -0.378278409440E+03   -0.61426E+00   -0.61339E+00 10080   0.719E+00 0.455E-02
CGA:   3    -0.378362539134E+03   -0.84130E-01   -0.84241E-01 10080   0.366E+00-0.228E-02
CGA:   4    -0.378403412171E+03   -0.40873E-01   -0.40849E-01 10080   0.664E-01 0.546E-03
CGA:   5    -0.378412907632E+03   -0.94955E-02   -0.94868E-02 10080   0.260E-01-0.287E-03
CGA:   6    -0.378416681606E+03   -0.37740E-02   -0.37614E-02 10080   0.754E-02-0.922E-03
CGA:   7    -0.378417868089E+03   -0.11865E-02   -0.11851E-02 10080   0.339E-02 0.283E-03
CGA:   8    -0.378418221392E+03   -0.35330E-03   -0.36888E-03 10080   0.139E-02 0.297E-03
CGA:   9    -0.378418566698E+03   -0.34531E-03   -0.35646E-03 10080   0.844E-03-0.138E-03
CGA:  10    -0.378418676924E+03   -0.11023E-03   -0.11183E-03 10080   0.444E-03 0.131E-03
CGA:  11    -0.378418804903E+03   -0.12798E-03   -0.13811E-03 10080   0.436E-03-0.913E-04
CGA:  12    -0.378418840799E+03   -0.35896E-04   -0.34258E-04 10080   0.196E-03-0.244E-04
CGA:  13    -0.378418885374E+03   -0.44575E-04   -0.67873E-04 10080   0.198E-03-0.113E-03
CGA:  14    -0.378418910971E+03   -0.25597E-04   -0.25144E-04 10080   0.134E-03-0.991E-05
CGA:  15    -0.378418923884E+03   -0.12913E-04   -0.13686E-04 10080   0.234E-04 0.126E-04
CGA:  16    -0.378418933773E+03   -0.98891E-05    0.13022E-04 10080   0.234E-04 0.929E-05
CGA:  17    -0.378418944910E+03   -0.11137E-04    0.11258E-03 10080   0.163E-04 0.391E-05
CGA:  18    -0.378418948587E+03   -0.36774E-05   -0.38102E-05 10080   0.224E-04-0.383E-05
  16 F= -.37841895E+03 E0= -.37841713E+03  d E =-.152472E-01  mag=     8.0000
       N       E                     dE             d eps       ncg     rms          ort
SDA:   1    -0.343090405317E+03    0.35329E+02    0.00000E+00 10080   0.859E+02 0.000E+00
CGA:   2    -0.368399741744E+03   -0.25309E+02   -0.25604E+02 10080   0.656E+02-0.189E+01
CGA:   3    -0.374079416564E+03   -0.56797E+01   -0.54679E+01 10080   0.159E+02 0.672E+01
CGA:   4    -0.376899925337E+03   -0.28205E+01   -0.28168E+01 10080   0.416E+01-0.167E+00
CGA:   5    -0.377528726873E+03   -0.62880E+00   -0.62840E+00 10080   0.262E+01-0.227E-01
CGA:   6    -0.377747101851E+03   -0.21837E+00   -0.21709E+00 10080   0.574E+00 0.462E-02
CGA:   7    -0.377858501406E+03   -0.11140E+00   -0.11108E+00 10080   0.414E+00 0.872E-02
CGA:   8    -0.377896978622E+03   -0.38477E-01   -0.38043E-01 10080   0.129E+00 0.325E-02
CGA:   9    -0.377929809797E+03   -0.32831E-01   -0.32800E-01 10080   0.573E-01 0.388E-03
CGA:  10    -0.377942192192E+03   -0.12382E-01   -0.12605E-01 10080   0.734E-01-0.420E-02
CGA:  11    -0.377948884878E+03   -0.66927E-02   -0.65101E-02 10080   0.209E-01-0.326E-02
CGA:  12    -0.377953182553E+03   -0.42977E-02   -0.43245E-02 10080   0.136E-01-0.535E-03
CGA:  13    -0.377954725988E+03   -0.15434E-02   -0.15081E-02 10080   0.583E-02-0.664E-03
CGA:  14    -0.377956008493E+03   -0.12825E-02   -0.17363E-02 10080   0.777E-02-0.307E-02
CGA:  15    -0.377956490550E+03   -0.48206E-03   -0.56288E-03 10080   0.199E-02 0.864E-03
CGA:  16    -0.377956807127E+03   -0.31658E-03   -0.32806E-03 10080   0.952E-03 0.587E-03
CGA:  17    -0.377957046203E+03   -0.23908E-03   -0.24989E-03 10080   0.198E-02-0.298E-03
CGA:  18    -0.377957193453E+03   -0.14725E-03   -0.14739E-03 10080   0.180E-02 0.786E-05
CGA:  19    -0.377957281988E+03   -0.88534E-04   -0.10935E-03 10080   0.922E-03 0.217E-03
CGA:  20    -0.377957389023E+03   -0.10703E-03   -0.11600E-03 10080   0.135E-02 0.189E-03
CGA:  21    -0.377957597714E+03   -0.20869E-03   -0.20700E-03 10080   0.901E-03-0.582E-04
CGA:  22    -0.377957675858E+03   -0.78145E-04   -0.72060E-04 10080   0.500E-03-0.863E-04
CGA:  23    -0.377957714180E+03   -0.38321E-04   -0.43911E-04 10080   0.513E-03 0.102E-03
CGA:  24    -0.377957766233E+03   -0.52053E-04   -0.61668E-04 10080   0.328E-03 0.192E-03
CGA:  25    -0.377957817910E+03   -0.51678E-04   -0.51269E-04 10080   0.275E-03-0.119E-04
CGA:  26    -0.377957828592E+03   -0.10682E-04   -0.10736E-03 10080   0.837E-03-0.372E-03
CGA:  27    -0.377957858782E+03   -0.30190E-04   -0.58159E-04 10080   0.299E-03 0.315E-03
CGA:  28    -0.377957875541E+03   -0.16760E-04   -0.33600E-04 10080   0.177E-03 0.232E-03
CGA:  29    -0.377957907751E+03   -0.32209E-04   -0.37544E-04 10080   0.443E-03-0.869E-04
CGA:  30    -0.377957912489E+03   -0.47389E-05   -0.13082E-04 10080   0.368E-03 0.871E-04
CGA:  31    -0.377957913816E+03   -0.13262E-05   -0.16008E-04 10080   0.612E-04 0.132E-03
  17 F= -.37795791E+03 E0= -.37795512E+03  d E =0.461035E+00  mag=     8.0000
       N       E                     dE             d eps       ncg     rms          ort
SDA:   1    -0.361248952661E+03    0.16709E+02    0.00000E+00 10080   0.409E+02 0.000E+00
CGA:   2    -0.373588382111E+03   -0.12339E+02   -0.12446E+02 10080   0.310E+02-0.757E+00
CGA:   3    -0.376122226627E+03   -0.25338E+01   -0.27127E+01 10080   0.799E+01 0.809E+00
CGA:   4    -0.377553400727E+03   -0.14312E+01   -0.14339E+01 10080   0.273E+01-0.596E-01
CGA:   5    -0.377832553323E+03   -0.27915E+00   -0.27280E+00 10080   0.144E+01-0.279E-02
CGA:   6    -0.378002153842E+03   -0.16960E+00   -0.16942E+00 10080   0.351E+00-0.101E-01
CGA:   7    -0.378053137898E+03   -0.50984E-01   -0.50971E-01 10080   0.258E+00 0.255E-02
CGA:   8    -0.378087543831E+03   -0.34406E-01   -0.34410E-01 10080   0.730E-01 0.407E-03
CGA:   9    -0.378105331815E+03   -0.17788E-01   -0.18290E-01 10080   0.669E-01-0.449E-02
CGA:  10    -0.378111171903E+03   -0.58401E-02   -0.56272E-02 10080   0.283E-01-0.368E-02
CGA:  11    -0.378116459070E+03   -0.52872E-02   -0.54804E-02 10080   0.217E-01-0.309E-02
CGA:  12    -0.378118639041E+03   -0.21800E-02   -0.21240E-02 10080   0.693E-02-0.164E-02
CGA:  13    -0.378120171909E+03   -0.15329E-02   -0.15678E-02 10080   0.477E-02-0.346E-03
CGA:  14    -0.378120716676E+03   -0.54477E-03   -0.49833E-03 10080   0.390E-02-0.118E-02
CGA:  15    -0.378120766202E+03   -0.49526E-04   -0.12436E-02 10080   0.114E-01-0.433E-02
CGA:  16    -0.378121563495E+03   -0.79729E-03   -0.80766E-03 10080   0.409E-02 0.108E-03
CGA:  17    -0.378122073091E+03   -0.50960E-03   -0.53600E-03 10080   0.925E-03 0.966E-03
CGA:  18    -0.378122321772E+03   -0.24868E-03   -0.25377E-03 10080   0.182E-02-0.759E-04
CGA:  19    -0.378122535415E+03   -0.21364E-03   -0.19158E-03 10080   0.781E-03-0.501E-03
CGA:  20    -0.378122602762E+03   -0.67347E-04   -0.63876E-04 10080   0.695E-03-0.809E-04
CGA:  21    -0.378122727954E+03   -0.12519E-03   -0.12408E-03 10080   0.919E-03 0.229E-04
CGA:  22    -0.378122843014E+03   -0.11506E-03   -0.10344E-03 10080   0.472E-03-0.255E-03
CGA:  23    -0.378122963685E+03   -0.12067E-03    0.18018E-03 10080   0.244E-03 0.149E-03
CGA:  24    -0.378123074123E+03   -0.11044E-03    0.21891E-03 10080   0.256E-03 0.116E-03
CGA:  25    -0.378123211386E+03   -0.13726E-03    0.16427E-03 10080   0.157E-03 0.866E-04
CGA:  26    -0.378122635357E+03    0.57603E-03   -0.30739E-03 10080   0.106E-01-0.950E-03
CGA:  27    -0.378123314471E+03   -0.67911E-03   -0.60476E-03 10080   0.988E-03-0.259E-03
CGA:  28    -0.378123538003E+03   -0.22353E-03   -0.21256E-03 10080   0.133E-02-0.220E-03
CGA:  29    -0.378123696363E+03   -0.15836E-03   -0.12765E-03 10080   0.262E-03-0.211E-03
CGA:  30    -0.378123697048E+03   -0.68525E-06   -0.18438E-04 10080   0.122E-03 0.100E-03
CGA:  31    -0.378123692235E+03    0.48134E-05   -0.11217E-04 10080   0.499E-04 0.864E-04
  18 F= -.37812369E+03 E0= -.37812089E+03  d E =-.165778E+00  mag=     8.0000
       N       E                     dE             d eps       ncg     rms          ort
SDA:   1    -0.375739316943E+03    0.23844E+01    0.00000E+00 10080   0.643E+01 0.000E+00
CGA:   2    -0.377870090380E+03   -0.21308E+01   -0.21277E+01 10080   0.293E+01 0.287E-01
CGA:   3    -0.378183699254E+03   -0.31361E+00   -0.28595E+00 10080   0.125E+01 0.216E+00
CGA:   4    -0.378376549607E+03   -0.19285E+00   -0.19180E+00 10080   0.595E+00 0.499E-02
CGA:   5    -0.378430593262E+03   -0.54044E-01   -0.53669E-01 10080   0.157E+00-0.411E-02
CGA:   6    -0.378457633266E+03   -0.27040E-01   -0.27004E-01 10080   0.515E-01-0.699E-03
CGA:   7    -0.378465386798E+03   -0.77535E-02   -0.77345E-02 10080   0.325E-01-0.238E-03
CGA:   8    -0.378469681779E+03   -0.42950E-02   -0.43663E-02 10080   0.153E-01 0.781E-03
CGA:   9    -0.378471564906E+03   -0.18831E-02   -0.18787E-02 10080   0.101E-01-0.119E-03
CGA:  10    -0.378473197666E+03   -0.16328E-02   -0.16530E-02 10080   0.291E-02 0.475E-03
CGA:  11    -0.378474020083E+03   -0.82242E-03   -0.84701E-03 10080   0.336E-02-0.349E-03
CGA:  12    -0.378474283497E+03   -0.26341E-03   -0.25840E-03 10080   0.101E-02-0.450E-04
CGA:  13    -0.378474498025E+03   -0.21453E-03   -0.21588E-03 10080   0.118E-02-0.112E-03
CGA:  14    -0.378474587873E+03   -0.89848E-04   -0.97101E-04 10080   0.315E-03 0.669E-04
CGA:  15    -0.378474643364E+03   -0.55491E-04   -0.55891E-04 10080   0.493E-03 0.126E-04
CGA:  16    -0.378474747474E+03   -0.10411E-03   -0.10718E-03 10080   0.450E-03-0.284E-03
CGA:  17    -0.378474797435E+03   -0.49960E-04   -0.55970E-04 10080   0.222E-03 0.806E-04
CGA:  18    -0.378474838000E+03   -0.40566E-04   -0.37870E-04 10080   0.180E-03-0.535E-04
CGA:  19    -0.378474856899E+03   -0.18898E-04   -0.18949E-04 10080   0.120E-03 0.791E-06
CGA:  20    -0.378474905314E+03   -0.48415E-04    0.19822E-03 10080   0.721E-04 0.321E-04
CGA:  21    -0.378474944697E+03   -0.39383E-04    0.64566E-04 10080   0.154E-03-0.168E-04
CGA:  22    -0.378474949304E+03   -0.46073E-05   -0.41702E-04 10080   0.557E-03-0.233E-03
CGA:  23    -0.378475005068E+03   -0.55764E-04   -0.58103E-04 10080   0.224E-03 0.272E-04
CGA:  24    -0.378475026986E+03   -0.21918E-04   -0.25080E-04 10080   0.394E-04 0.364E-04
CGA:  25    -0.378475045110E+03   -0.18124E-04    0.94841E-04 10080   0.896E-04-0.239E-04
CGA:  26    -0.378475047930E+03   -0.28198E-05   -0.50231E-05 10080   0.118E-04 0.168E-04
  19 F= -.37847505E+03 E0= -.37847248E+03  d E =-.351356E+00  mag=     8.0000
       N       E                     dE             d eps       ncg     rms          ort
SDA:   1    -0.378384794770E+03    0.90250E-01    0.00000E+00 10080   0.261E+00 0.000E+00
CGA:   2    -0.378459589351E+03   -0.74795E-01   -0.74514E-01 10080   0.190E+00 0.289E-02
CGA:   3    -0.378478052164E+03   -0.18463E-01   -0.18467E-01 10080   0.536E-01-0.565E-03
CGA:   4    -0.378486568082E+03   -0.85159E-02   -0.85309E-02 10080   0.242E-01 0.701E-03
CGA:   5    -0.378488902182E+03   -0.23341E-02   -0.22649E-02 10080   0.803E-02-0.843E-03
CGA:   6    -0.378489965118E+03   -0.10629E-02   -0.10575E-02 10080   0.285E-02-0.132E-03
CGA:   7    -0.378490304360E+03   -0.33924E-03   -0.34370E-03 10080   0.971E-03 0.943E-04
CGA:   8    -0.378490503635E+03   -0.19928E-03   -0.19761E-03 10080   0.489E-03 0.693E-04
CGA:   9    -0.378490566456E+03   -0.62821E-04   -0.62909E-04 10080   0.381E-03 0.247E-05
CGA:  10    -0.378490597225E+03   -0.30769E-04   -0.40091E-04 10080   0.918E-04 0.141E-03
CGA:  11    -0.378490613864E+03   -0.16638E-04   -0.17504E-04 10080   0.121E-03 0.303E-04
CGA:  12    -0.378490644155E+03   -0.30292E-04   -0.33374E-04 10080   0.115E-03-0.762E-04
CGA:  13    -0.378490646415E+03   -0.22600E-05   -0.65210E-05 10080   0.358E-04 0.382E-04
  20 F= -.37849065E+03 E0= -.37848811E+03  d E =-.155985E-01  mag=     8.0000
       N       E                     dE             d eps       ncg     rms          ort
SDA:   1    -0.378349714285E+03    0.14093E+00    0.00000E+00 10080   0.383E+00 0.000E+00
CGA:   2    -0.378450010204E+03   -0.10030E+00   -0.99915E-01 10080   0.305E+00 0.380E-02
CGA:   3    -0.378477545411E+03   -0.27535E-01   -0.27227E-01 10080   0.112E+00-0.635E-03
CGA:   4    -0.378493197524E+03   -0.15652E-01   -0.15664E-01 10080   0.311E-01 0.867E-03
CGA:   5    -0.378496804810E+03   -0.36073E-02   -0.35837E-02 10080   0.121E-01-0.378E-03
CGA:   6    -0.378498390346E+03   -0.15855E-02   -0.15834E-02 10080   0.322E-02-0.857E-04
CGA:   7    -0.378498823329E+03   -0.43298E-03   -0.43308E-03 10080   0.182E-02 0.103E-04
CGA:   8    -0.378499015147E+03   -0.19182E-03   -0.19889E-03 10080   0.642E-03 0.152E-03
CGA:   9    -0.378499140996E+03   -0.12585E-03   -0.13052E-03 10080   0.682E-03-0.134E-03
CGA:  10    -0.378499176002E+03   -0.35006E-04   -0.46119E-04 10080   0.219E-03 0.161E-03
CGA:  11    -0.378499185887E+03   -0.98849E-05   -0.17817E-04 10080   0.119E-03 0.932E-04
CGA:  12    -0.378499211690E+03   -0.25803E-04   -0.25692E-04 10080   0.128E-03 0.264E-04
CGA:  13    -0.378499233396E+03   -0.21707E-04   -0.33669E-04 10080   0.250E-03-0.178E-03
CGA:  14    -0.378499241628E+03   -0.82318E-05   -0.15511E-04 10080   0.674E-04 0.825E-04
  21 F= -.37849924E+03 E0= -.37849671E+03  d E =-.859521E-02  mag=     8.0000
       N       E                     dE             d eps       ncg     rms          ort
SDA:   1    -0.378339439806E+03    0.15979E+00    0.00000E+00 10080   0.437E+00 0.000E+00
CGA:   2    -0.378450835336E+03   -0.11140E+00   -0.11113E+00 10080   0.332E+00 0.254E-02
CGA:   3    -0.378484482265E+03   -0.33647E-01   -0.33484E-01 10080   0.127E+00-0.231E-02
CGA:   4    -0.378500901471E+03   -0.16419E-01   -0.16437E-01 10080   0.400E-01 0.131E-02
CGA:   5    -0.378504692717E+03   -0.37912E-02   -0.37641E-02 10080   0.129E-01-0.354E-03
CGA:   6    -0.378506549901E+03   -0.18572E-02   -0.18572E-02 10080   0.306E-02 0.139E-04
CGA:   7    -0.378507010131E+03   -0.46023E-03   -0.45951E-03 10080   0.157E-02 0.119E-03
CGA:   8    -0.378507189284E+03   -0.17915E-03   -0.18184E-03 10080   0.627E-03 0.850E-04
CGA:   9    -0.378507298262E+03   -0.10898E-03   -0.11350E-03 10080   0.685E-03-0.153E-03
CGA:  10    -0.378507328309E+03   -0.30047E-04   -0.39894E-04 10080   0.213E-03 0.148E-03
CGA:  11    -0.378507334907E+03   -0.65983E-05   -0.14571E-04 10080   0.120E-03 0.952E-04
CGA:  12    -0.378507351375E+03   -0.16467E-04   -0.18423E-04 10080   0.114E-03 0.657E-04
CGA:  13    -0.378507127924E+03    0.22345E-03   -0.66764E-04 10080   0.600E-02-0.640E-03
CGA:  14    -0.378507387857E+03   -0.25993E-03   -0.30414E-03 10080   0.210E-03 0.455E-03
CGA:  15    -0.378507392102E+03   -0.42457E-05   -0.11065E-04 10080   0.300E-04 0.670E-04
  22 F= -.37850739E+03 E0= -.37850481E+03  d E =-.815047E-02  mag=     8.0000
       N       E                     dE             d eps       ncg     rms          ort
SDA:   1    -0.377859801739E+03    0.64759E+00    0.00000E+00 10080   0.166E+01 0.000E+00
CGA:   2    -0.378320856490E+03   -0.46105E+00   -0.46083E+00 10080   0.117E+01 0.153E-02
CGA:   3    -0.378431373207E+03   -0.11052E+00   -0.10953E+00 10080   0.508E+00-0.662E-03
CGA:   4    -0.378492118528E+03   -0.60745E-01   -0.60710E-01 10080   0.124E+00 0.232E-02
CGA:   5    -0.378507358602E+03   -0.15240E-01   -0.15210E-01 10080   0.398E-01-0.151E-02
CGA:   6    -0.378512607323E+03   -0.52487E-02   -0.52549E-02 10080   0.131E-01 0.701E-03
CGA:   7    -0.378514123804E+03   -0.15165E-02   -0.15166E-02 10080   0.656E-02 0.383E-04
CGA:   8    -0.378514944300E+03   -0.82050E-03   -0.82349E-03 10080   0.230E-02 0.194E-03
CGA:   9    -0.378515290244E+03   -0.34594E-03   -0.34792E-03 10080   0.195E-02-0.314E-03
CGA:  10    -0.378515465255E+03   -0.17501E-03   -0.18550E-03 10080   0.458E-03 0.346E-03
CGA:  11    -0.378515532282E+03   -0.67027E-04   -0.69027E-04 10080   0.414E-03 0.179E-03
CGA:  12    -0.378515639405E+03   -0.10712E-03   -0.10777E-03 10080   0.248E-03-0.131E-04
CGA:  13    -0.378515652542E+03   -0.13136E-04   -0.18676E-04 10080   0.144E-03 0.877E-04
CGA:  14    -0.378515672361E+03   -0.19819E-04   -0.22259E-04 10080   0.118E-03 0.102E-03
CGA:  15    -0.378515689392E+03   -0.17031E-04   -0.19805E-04 10080   0.369E-03-0.899E-04
CGA:  16    -0.378515696990E+03   -0.75983E-05   -0.15180E-04 10080   0.387E-04 0.787E-04
  23 F= -.37851570E+03 E0= -.37851294E+03  d E =-.830489E-02  mag=     8.0000
       N       E                     dE             d eps       ncg     rms          ort
SDA:   1    -0.377269603455E+03    0.12461E+01    0.00000E+00 10080   0.301E+01 0.000E+00
CGA:   2    -0.378222870660E+03   -0.95327E+00   -0.95353E+00 10080   0.158E+01-0.161E-02
CGA:   3    -0.378377326757E+03   -0.15446E+00   -0.15428E+00 10080   0.875E+00-0.467E-02
CGA:   4    -0.378475477462E+03   -0.98151E-01   -0.98047E-01 10080   0.145E+00 0.251E-02
CGA:   5    -0.378498030182E+03   -0.22553E-01   -0.22585E-01 10080   0.605E-01-0.160E-02
CGA:   6    -0.378504440175E+03   -0.64100E-02   -0.64359E-02 10080   0.211E-01 0.113E-02
CGA:   7    -0.378507323321E+03   -0.28831E-02   -0.28830E-02 10080   0.121E-01-0.327E-03
CGA:   8    -0.378508508113E+03   -0.11848E-02   -0.11991E-02 10080   0.362E-02 0.444E-03
CGA:   9    -0.378509268169E+03   -0.76006E-03   -0.77419E-03 10080   0.275E-02-0.187E-03
CGA:  10    -0.378509495368E+03   -0.22720E-03   -0.24535E-03 10080   0.892E-03 0.434E-03
CGA:  11    -0.378509733014E+03   -0.23765E-03   -0.22255E-03 10080   0.763E-03 0.185E-03
CGA:  12    -0.378509837079E+03   -0.10407E-03   -0.10430E-03 10080   0.361E-03 0.114E-04
CGA:  13    -0.378509887265E+03   -0.50186E-04   -0.50244E-04 10080   0.163E-03 0.195E-03
CGA:  14    -0.378509900285E+03   -0.13020E-04   -0.16189E-04 10080   0.932E-04 0.839E-04
CGA:  15    -0.378509911967E+03   -0.11681E-04   -0.12020E-04 10080   0.750E-04 0.533E-04
CGA:  16    -0.378509916903E+03   -0.49358E-05   -0.67974E-05 10080   0.591E-04 0.419E-04
  24 F= -.37850992E+03 E0= -.37850685E+03  d E =0.578009E-02  mag=     8.0000
       N       E                     dE             d eps       ncg     rms          ort
SDA:   1    -0.378212369913E+03    0.29754E+00    0.00000E+00 10080   0.755E+00 0.000E+00
CGA:   2    -0.378446396476E+03   -0.23403E+00   -0.23307E+00 10080   0.574E+00 0.529E-02
CGA:   3    -0.378489339306E+03   -0.42943E-01   -0.42766E-01 10080   0.190E+00-0.394E-02
CGA:   4    -0.378518694334E+03   -0.29355E-01   -0.29336E-01 10080   0.421E-01 0.127E-02
CGA:   5    -0.378523229531E+03   -0.45352E-02   -0.45067E-02 10080   0.192E-01-0.715E-03
CGA:   6    -0.378525812981E+03   -0.25834E-02   -0.25833E-02 10080   0.543E-02 0.104E-03
CGA:   7    -0.378526492370E+03   -0.67939E-03   -0.67642E-03 10080   0.430E-02-0.264E-03
CGA:   8    -0.378526879439E+03   -0.38707E-03   -0.40410E-03 10080   0.857E-03 0.486E-03
CGA:   9    -0.378527111132E+03   -0.23169E-03   -0.22805E-03 10080   0.924E-03 0.347E-04
CGA:  10    -0.378527204331E+03   -0.93199E-04   -0.94947E-04 10080   0.470E-03 0.461E-04
CGA:  11    -0.378527235754E+03   -0.31423E-04   -0.41698E-04 10080   0.249E-03 0.201E-03
CGA:  12    -0.378527280817E+03   -0.45063E-04   -0.45678E-04 10080   0.232E-03 0.125E-03
CGA:  13    -0.378527309573E+03   -0.28756E-04   -0.25655E-04 10080   0.362E-03-0.138E-03
CGA:  14    -0.378527315272E+03   -0.56986E-05   -0.14411E-04 10080   0.625E-04 0.954E-04
  25 F= -.37852732E+03 E0= -.37852424E+03  d E =-.173984E-01  mag=     8.0000
       N       E                     dE             d eps       ncg     rms          ort
SDA:   1    -0.377747539291E+03    0.77977E+00    0.00000E+00 10080   0.198E+01 0.000E+00
CGA:   2    -0.378257067255E+03   -0.50953E+00   -0.51021E+00 10080   0.246E+01-0.542E-02
CGA:   3    -0.378422922759E+03   -0.16586E+00   -0.16796E+00 10080   0.469E+00-0.228E-01
CGA:   4    -0.378511101548E+03   -0.88179E-01   -0.88114E-01 10080   0.904E-01 0.116E-02
CGA:   5    -0.378522206675E+03   -0.11105E-01   -0.11089E-01 10080   0.563E-01-0.197E-02
CGA:   6    -0.378527691886E+03   -0.54852E-02   -0.54900E-02 10080   0.145E-01 0.359E-03
CGA:   7    -0.378529521359E+03   -0.18295E-02   -0.18279E-02 10080   0.101E-01-0.517E-03
CGA:   8    -0.378530537181E+03   -0.10158E-02   -0.10305E-02 10080   0.213E-02 0.682E-03
CGA:   9    -0.378531163802E+03   -0.62662E-03   -0.63576E-03 10080   0.183E-02-0.600E-04
CGA:  10    -0.378531325111E+03   -0.16131E-03   -0.17247E-03 10080   0.887E-03 0.301E-03
CGA:  11    -0.378531528632E+03   -0.20352E-03   -0.19344E-03 10080   0.834E-03 0.184E-03
CGA:  12    -0.378531653571E+03   -0.12494E-03   -0.12563E-03 10080   0.409E-03 0.652E-04
CGA:  13    -0.378531738205E+03   -0.84634E-04   -0.82370E-04 10080   0.450E-03 0.436E-04
CGA:  14    -0.378531760581E+03   -0.22376E-04   -0.36760E-04 10080   0.149E-03 0.226E-03
CGA:  15    -0.378531770278E+03   -0.96974E-05   -0.13186E-04 10080   0.862E-04 0.766E-04
CGA:  16    -0.378531786897E+03   -0.16619E-04   -0.14967E-04 10080   0.833E-04 0.398E-04
CGA:  17    -0.378531791265E+03   -0.43679E-05   -0.93866E-05 10080   0.420E-04 0.879E-04
  26 F= -.37853179E+03 E0= -.37852867E+03  d E =-.447599E-02  mag=     8.0000
       N       E                     dE             d eps       ncg     rms          ort
SDA:   1    -0.370078595387E+03    0.84532E+01    0.00000E+00 10080   0.212E+02 0.000E+00
CGA:   2    -0.375979189798E+03   -0.59006E+01   -0.59799E+01 10080   0.230E+02-0.556E+00
CGA:   3    -0.377315129950E+03   -0.13359E+01   -0.14816E+01 10080   0.644E+01-0.131E+01
CGA:   4    -0.378258893070E+03   -0.94376E+00   -0.94902E+00 10080   0.152E+01-0.140E+00
CGA:   5    -0.378397114005E+03   -0.13822E+00   -0.14094E+00 10080   0.788E+00-0.553E-02
CGA:   6    -0.378475028445E+03   -0.77914E-01   -0.77051E-01 10080   0.255E+00-0.457E-02
CGA:   7    -0.378503254142E+03   -0.28226E-01   -0.28211E-01 10080   0.109E+00-0.767E-03
CGA:   8    -0.378516263104E+03   -0.13009E-01   -0.13029E-01 10080   0.635E-01 0.274E-02
CGA:   9    -0.378522566770E+03   -0.63037E-02   -0.62853E-02 10080   0.263E-01-0.114E-02
CGA:  10    -0.378526609904E+03   -0.40431E-02   -0.40039E-02 10080   0.198E-01 0.144E-02
CGA:  11    -0.378528981191E+03   -0.23713E-02   -0.23618E-02 10080   0.128E-01-0.696E-03
CGA:  12    -0.378530792054E+03   -0.18109E-02   -0.18070E-02 10080   0.955E-02 0.220E-03
CGA:  13    -0.378532033886E+03   -0.12418E-02   -0.12413E-02 10080   0.748E-02-0.693E-03
CGA:  14    -0.378532852381E+03   -0.81850E-03   -0.82673E-03 10080   0.261E-02 0.891E-03
CGA:  15    -0.378533329838E+03   -0.47746E-03   -0.47409E-03 10080   0.367E-02 0.938E-04
CGA:  16    -0.378533710526E+03   -0.38069E-03   -0.39500E-03 10080   0.915E-03 0.556E-03
CGA:  17    -0.378533975904E+03   -0.26538E-03   -0.25712E-03 10080   0.172E-02 0.684E-04
CGA:  18    -0.378534132887E+03   -0.15698E-03   -0.17920E-03 10080   0.693E-03 0.584E-03
CGA:  19    -0.378534185567E+03   -0.52681E-04   -0.76985E-04 10080   0.519E-03 0.489E-03
CGA:  20    -0.378534244107E+03   -0.58540E-04   -0.61040E-04 10080   0.397E-03 0.204E-03
CGA:  21    -0.378534290988E+03   -0.46881E-04   -0.56701E-04 10080   0.221E-03 0.368E-03
CGA:  22    -0.378534312751E+03   -0.21763E-04   -0.24304E-04 10080   0.201E-03 0.141E-03
CGA:  23    -0.378534323539E+03   -0.10788E-04   -0.16604E-04 10080   0.182E-03 0.131E-03
CGA:  24    -0.378534342915E+03   -0.19376E-04   -0.20567E-04 10080   0.234E-03 0.101E-03
CGA:  25    -0.378534345675E+03   -0.27599E-05   -0.11578E-04 10080   0.149E-03 0.118E-03
CGA:  26    -0.378534361027E+03   -0.15352E-04   -0.16510E-04 10080   0.160E-03 0.123E-03
CGA:  27    -0.378534363536E+03   -0.25083E-05   -0.95612E-05 10080   0.140E-03 0.117E-03
CGA:  28    -0.378534376674E+03   -0.13138E-04   -0.14560E-04 10080   0.153E-03 0.112E-03
CGA:  29    -0.378534378572E+03   -0.18986E-05   -0.85630E-05 10080   0.130E-03 0.111E-03
CGA:  30    -0.378534389807E+03   -0.11234E-04   -0.12824E-04 10080   0.137E-03 0.110E-03
CGA:  31    -0.378534391752E+03   -0.19456E-05   -0.78862E-05 10080   0.122E-03 0.108E-03
CGA:  32    -0.378534401522E+03   -0.97694E-05   -0.11475E-04 10080   0.126E-03 0.107E-03
  27 F= -.37853440E+03 E0= -.37853122E+03  d E =-.261026E-02  mag=     8.0000
       N       E                     dE             d eps       ncg     rms          ort
SDA:   1    -0.364099566873E+03    0.14435E+02    0.00000E+00 10080   0.630E+02 0.000E+00
CGA:   2    -0.369011349155E+03   -0.49118E+01   -0.46028E+01 10080   0.393E+02-0.466E+01
CGA:   3    -0.374418085492E+03   -0.54067E+01   -0.54261E+01 10080   0.224E+02-0.692E+00
CGA:   4    -0.375917745385E+03   -0.14997E+01   -0.15573E+01 10080   0.102E+02-0.186E+00
CGA:   5    -0.377046625762E+03   -0.11289E+01   -0.11299E+01 10080   0.416E+01-0.963E-01
CGA:   6    -0.377226687095E+03   -0.18006E+00   -0.19432E+00 10080   0.186E+01-0.233E+00
CGA:   7    -0.377505799690E+03   -0.27911E+00   -0.27534E+00 10080   0.829E+00 0.545E-01
CGA:   8    -0.377555171157E+03   -0.49371E-01   -0.51578E-01 10080   0.284E+00-0.823E-02
CGA:   9    -0.377588423226E+03   -0.33252E-01   -0.33134E-01 10080   0.320E+00 0.591E-02
CGA:  10    -0.377617339429E+03   -0.28916E-01   -0.29255E-01 10080   0.116E+00 0.866E-02
CGA:  11    -0.377628056777E+03   -0.10717E-01   -0.10736E-01 10080   0.645E-01 0.700E-04
CGA:  12    -0.377638480277E+03   -0.10424E-01   -0.10558E-01 10080   0.495E-01-0.228E-02
CGA:  13    -0.377641960480E+03   -0.34802E-02   -0.35097E-02 10080   0.228E-01-0.665E-04
CGA:  14    -0.377645671299E+03   -0.37108E-02   -0.37489E-02 10080   0.216E-01-0.750E-03
CGA:  15    -0.377647545260E+03   -0.18740E-02   -0.18624E-02 10080   0.749E-02-0.773E-03
CGA:  16    -0.377649011506E+03   -0.14662E-02   -0.14993E-02 10080   0.105E-01-0.332E-03
CGA:  17    -0.377650164473E+03   -0.11530E-02   -0.11589E-02 10080   0.635E-02-0.161E-02
CGA:  18    -0.377650758662E+03   -0.59419E-03   -0.59357E-03 10080   0.525E-02-0.691E-03
CGA:  19    -0.377651658639E+03   -0.89998E-03   -0.90154E-03 10080   0.398E-02-0.793E-04
CGA:  20    -0.377652131650E+03   -0.47301E-03   -0.47390E-03 10080   0.382E-02-0.201E-03
CGA:  21    -0.377652877557E+03   -0.74591E-03   -0.71865E-03 10080   0.333E-02 0.272E-03
CGA:  22    -0.377653257920E+03   -0.38036E-03   -0.38181E-03 10080   0.249E-02-0.381E-06
CGA:  23    -0.377653616540E+03   -0.35862E-03   -0.35447E-03 10080   0.187E-02 0.159E-03
CGA:  24    -0.377653922796E+03   -0.30626E-03   -0.30643E-03 10080   0.135E-02-0.437E-04
CGA:  25    -0.377654076221E+03   -0.15343E-03   -0.15481E-03 10080   0.586E-03 0.304E-03
CGA:  26    -0.377654113014E+03   -0.36793E-04   -0.53988E-04 10080   0.291E-03 0.367E-03
CGA:  27    -0.377654160806E+03   -0.47792E-04   -0.45104E-04 10080   0.406E-03 0.747E-04
CGA:  28    -0.377654195661E+03   -0.34855E-04   -0.44349E-04 10080   0.141E-03 0.276E-03
CGA:  29    -0.377654202690E+03   -0.70291E-05   -0.10771E-04 10080   0.947E-04 0.868E-04
CGA:  30    -0.377654217521E+03   -0.14831E-04   -0.13136E-04 10080   0.872E-04 0.789E-04
CGA:  31    -0.377654224179E+03   -0.66580E-05   -0.82869E-05 10080   0.812E-04 0.693E-04
  28 F= -.37765422E+03 E0= -.37764921E+03  d E =0.880177E+00  mag=     8.0000
       N       E                     dE             d eps       ncg     rms          ort
SDA:   1    -0.377034131264E+03    0.62009E+00    0.00000E+00 10080   0.294E+01 0.000E+00
CGA:   2    -0.377554866253E+03   -0.52073E+00   -0.51872E+00 10080   0.474E+01 0.301E-01
CGA:   3    -0.377976446224E+03   -0.42158E+00   -0.41488E+00 10080   0.609E+00-0.197E-01
CGA:   4    -0.378064849187E+03   -0.88403E-01   -0.88420E-01 10080   0.596E+00-0.133E-02
CGA:   5    -0.378110526008E+03   -0.45677E-01   -0.45829E-01 10080   0.900E-01 0.965E-03
CGA:   6    -0.378124111956E+03   -0.13586E-01   -0.13547E-01 10080   0.579E-01 0.127E-02
CGA:   7    -0.378129627642E+03   -0.55157E-02   -0.55052E-02 10080   0.186E-01-0.496E-03
CGA:   8    -0.378132033828E+03   -0.24062E-02   -0.24284E-02 10080   0.213E-01-0.157E-02
CGA:   9    -0.378134019601E+03   -0.19858E-02   -0.19757E-02 10080   0.421E-02-0.579E-03
[...]
CGA:   6    -0.378590102798E+03   -0.67625E-03   -0.68715E-03 10080   0.207E-02 0.196E-03
CGA:   7    -0.378590512116E+03   -0.40932E-03   -0.40791E-03 10080   0.114E-02-0.314E-03
CGA:   8    -0.378590687190E+03   -0.17507E-03   -0.17494E-03 10080   0.502E-03-0.766E-05
CGA:   9    -0.378590376315E+03    0.31087E-03   -0.35477E-03 10080   0.624E-02-0.128E-02
CGA:  10    -0.378590840728E+03   -0.46441E-03   -0.51097E-03 10080   0.928E-03 0.452E-03
CGA:  11    -0.378591026974E+03   -0.18625E-03   -0.18312E-03 10080   0.206E-03-0.108E-03
CGA:  12    -0.378590985409E+03    0.41566E-04   -0.11594E-03 10080   0.186E-02-0.367E-03
CGA:  13    -0.378591142715E+03   -0.15731E-03   -0.16141E-03 10080   0.113E-03 0.383E-04
CGA:  14    -0.378591175044E+03   -0.32329E-04   -0.32934E-04 10080   0.534E-04-0.977E-05
CGA:  15    -0.378591204719E+03   -0.29675E-04    0.16857E-04 10080   0.110E-03-0.458E-04
CGA:  16    -0.378591211287E+03   -0.65681E-05   -0.81930E-05 10080   0.133E-04 0.112E-04
  90 F= -.37859121E+03 E0= -.37859088E+03  d E =-.149407E-01  mag=     8.0000
       N       E                     dE             d eps       ncg     rms          ort
SDA:   1    -0.378576187687E+03    0.15017E-01    0.00000E+00 10080   0.406E-01 0.000E+00
CGA:   2    -0.378587236342E+03   -0.11049E-01   -0.11009E-01 10080   0.252E-01 0.857E-03
CGA:   3    -0.378590434199E+03   -0.31979E-02   -0.31787E-02 10080   0.780E-02-0.367E-03
CGA:   4    -0.378591715817E+03   -0.12816E-02   -0.12862E-02 10080   0.222E-02 0.102E-03
CGA:   5    -0.378592109962E+03   -0.39414E-03   -0.37168E-03 10080   0.107E-02-0.446E-03
CGA:   6    -0.378592214031E+03   -0.10407E-03   -0.10954E-03 10080   0.189E-03 0.677E-04
CGA:   7    -0.378592249985E+03   -0.35954E-04   -0.36814E-04 10080   0.111E-03 0.338E-04
CGA:   8    -0.378592277398E+03   -0.27413E-04   -0.27500E-04 10080   0.957E-04-0.364E-04
CGA:   9    -0.378592283411E+03   -0.60128E-05   -0.73937E-05 10080   0.506E-04 0.150E-04
CGA:  10    -0.378592295465E+03   -0.12054E-04   -0.12245E-04 10080   0.872E-04-0.318E-04
CGA:  11    -0.378592272875E+03    0.22590E-04   -0.34759E-04 10080   0.122E-02-0.292E-03
CGA:  12    -0.378592333917E+03   -0.61042E-04   -0.81699E-04 10080   0.330E-04 0.152E-03
CGA:  13    -0.378592335418E+03   -0.15012E-05   -0.24711E-05 10080   0.428E-05 0.710E-05
  91 F= -.37859234E+03 E0= -.37859204E+03  d E =-.112413E-02  mag=     8.0000
       N       E                     dE             d eps       ncg     rms          ort
SDA:   1    -0.378589282763E+03    0.30512E-02    0.00000E+00 10080   0.106E-01 0.000E+00
CGA:   2    -0.378591577201E+03   -0.22944E-02   -0.22922E-02 10080   0.538E-02 0.142E-03
CGA:   3    -0.378592481688E+03   -0.90449E-03   -0.90182E-03 10080   0.186E-02-0.683E-04
CGA:   4    -0.378592792564E+03   -0.31088E-03   -0.30963E-03 10080   0.416E-03-0.391E-04
CGA:   5    -0.378592853917E+03   -0.61354E-04   -0.61778E-04 10080   0.148E-03 0.102E-04
CGA:   6    -0.378592873812E+03   -0.19895E-04   -0.49929E-04 10080   0.587E-03-0.220E-03
CGA:   7    -0.378592897055E+03   -0.23243E-04   -0.37015E-04 10080   0.513E-04 0.103E-03
CGA:   8    -0.378592900690E+03   -0.36345E-05   -0.55971E-05 10080   0.250E-04 0.194E-04
CGA:   9    -0.378592847865E+03    0.52824E-04   -0.24965E-04 10080   0.537E-03-0.145E-03
CGA:  10    -0.378592894860E+03   -0.46994E-04   -0.54908E-04 10080   0.141E-03 0.722E-04
CGA:  11    -0.378592930435E+03   -0.35576E-04   -0.44236E-04 10080   0.129E-03-0.129E-03
CGA:  12    -0.378592933918E+03   -0.34827E-05   -0.95123E-05 10080   0.293E-04 0.435E-04
  92 F= -.37859293E+03 E0= -.37859265E+03  d E =-.598500E-03  mag=     8.0000
       N       E                     dE             d eps       ncg     rms          ort
SDA:   1    -0.378576608202E+03    0.16322E-01    0.00000E+00 10080   0.508E-01 0.000E+00
CGA:   2    -0.378586891000E+03   -0.10283E-01   -0.10283E-01 10080   0.300E-01 0.596E-03
CGA:   3    -0.378591249716E+03   -0.43587E-02   -0.43103E-02 10080   0.125E-01-0.100E-02
CGA:   4    -0.378593082360E+03   -0.18326E-02   -0.18471E-02 10080   0.215E-02 0.342E-03
CGA:   5    -0.378593520096E+03   -0.43774E-03   -0.43804E-03 10080   0.630E-03-0.149E-03
CGA:   6    -0.378593595306E+03   -0.75210E-04   -0.78647E-04 10080   0.186E-03 0.559E-04
CGA:   7    -0.378593642442E+03   -0.47136E-04   -0.59217E-04 10080   0.246E-03-0.121E-03
CGA:   8    -0.378593658763E+03   -0.16322E-04   -0.20649E-04 10080   0.434E-04 0.386E-04
CGA:   9    -0.378593393630E+03    0.26513E-03   -0.14295E-03 10080   0.211E-02-0.317E-03
CGA:  10    -0.378593658378E+03   -0.26475E-03   -0.29043E-03 10080   0.307E-03 0.124E-03
CGA:  11    -0.378593712789E+03   -0.54411E-04   -0.40005E-04 10080   0.929E-04-0.662E-04
CGA:  12    -0.378593716605E+03   -0.38161E-05   -0.81575E-05 10080   0.145E-04 0.201E-04
  93 F= -.37859372E+03 E0= -.37859344E+03  d E =-.782687E-03  mag=     8.0000
       N       E                     dE             d eps       ncg     rms          ort
SDA:   1    -0.378589451703E+03    0.42611E-02    0.00000E+00 10080   0.118E-01 0.000E+00
CGA:   2    -0.378592270085E+03   -0.28184E-02   -0.28380E-02 10080   0.790E-02 0.319E-03
CGA:   3    -0.378593376436E+03   -0.11064E-02   -0.10498E-02 10080   0.268E-02-0.381E-03
CGA:   4    -0.378593754100E+03   -0.37766E-03   -0.39449E-03 10080   0.416E-03 0.125E-03
CGA:   5    -0.378593838604E+03   -0.84505E-04   -0.83154E-04 10080   0.133E-03-0.135E-04
CGA:   6    -0.378593852838E+03   -0.14234E-04   -0.16510E-04 10080   0.388E-04 0.149E-04
CGA:   7    -0.378593865763E+03   -0.12925E-04   -0.14941E-04 10080   0.591E-04-0.286E-04
CGA:   8    -0.378593866500E+03   -0.73645E-06   -0.44790E-05 10080   0.122E-04 0.185E-04
  94 F= -.37859387E+03 E0= -.37859359E+03  d E =-.149894E-03  mag=     8.0000
       N       E                     dE             d eps       ncg     rms          ort
SDA:   1    -0.378569830993E+03    0.24035E-01    0.00000E+00 10080   0.633E-01 0.000E+00
CGA:   2    -0.378587074942E+03   -0.17244E-01   -0.17242E-01 10080   0.318E-01 0.197E-03
CGA:   3    -0.378591721318E+03   -0.46464E-02   -0.45702E-02 10080   0.138E-01-0.997E-03
CGA:   4    -0.378593483134E+03   -0.17618E-02   -0.17938E-02 10080   0.222E-02 0.327E-03
CGA:   5    -0.378593905309E+03   -0.42217E-03   -0.42138E-03 10080   0.581E-03-0.115E-04
CGA:   6    -0.378594012413E+03   -0.10710E-03   -0.10538E-03 10080   0.230E-03-0.257E-04
CGA:   7    -0.378594059862E+03   -0.47449E-04   -0.45771E-04 10080   0.126E-03-0.470E-04
CGA:   8    -0.378594085920E+03   -0.26058E-04   -0.31882E-04 10080   0.169E-03-0.765E-04
CGA:   9    -0.378594107043E+03   -0.21123E-04   -0.19025E-04 10080   0.498E-04-0.152E-04
CGA:  10    -0.378594116823E+03   -0.97799E-05   -0.96285E-05 10080   0.202E-04-0.555E-05
  95 F= -.37859412E+03 E0= -.37859386E+03  d E =-.250324E-03  mag=     8.0000
       N       E                     dE             d eps       ncg     rms          ort
SDA:   1    -0.378583328517E+03    0.10779E-01    0.00000E+00 10080   0.302E-01 0.000E+00
CGA:   2    -0.378589982018E+03   -0.66535E-02   -0.66347E-02 10080   0.276E-01-0.116E-02
CGA:   3    -0.378593073718E+03   -0.30917E-02   -0.31276E-02 10080   0.453E-02 0.696E-03
CGA:   4    -0.378593975154E+03   -0.90144E-03   -0.90790E-03 10080   0.122E-02 0.183E-03
CGA:   5    -0.378594167715E+03   -0.19256E-03   -0.17531E-03 10080   0.546E-03-0.189E-03
CGA:   6    -0.378594214659E+03   -0.46944E-04   -0.56168E-04 10080   0.126E-03 0.910E-04
CGA:   7    -0.378594227693E+03   -0.13034E-04   -0.16244E-04 10080   0.576E-04 0.298E-04
CGA:   8    -0.378594203945E+03    0.23748E-04   -0.44539E-04 10080   0.567E-03-0.166E-03
CGA:   9    -0.378594235194E+03   -0.31249E-04   -0.47569E-04 10080   0.116E-03 0.112E-03
CGA:  10    -0.378594258535E+03   -0.23341E-04   -0.23683E-04 10080   0.243E-04 0.594E-05
CGA:  11    -0.378594271293E+03   -0.12758E-04    0.25269E-04 10080   0.480E-04-0.190E-04
CGA:  12    -0.378594269239E+03    0.20540E-05   -0.19976E-05 10080   0.115E-04 0.224E-04
  96 F= -.37859427E+03 E0= -.37859400E+03  d E =-.152416E-03  mag=     8.0000
       N       E                     dE             d eps       ncg     rms          ort
SDA:   1    -0.378586348974E+03    0.79223E-02    0.00000E+00 10080   0.208E-01 0.000E+00
CGA:   2    -0.378592357730E+03   -0.60088E-02   -0.60407E-02 10080   0.123E-01-0.376E-03
CGA:   3    -0.378593660458E+03   -0.13027E-02   -0.13673E-02 10080   0.345E-02 0.843E-03
CGA:   4    -0.378594327167E+03   -0.66671E-03   -0.66439E-03 10080   0.693E-03-0.937E-04
CGA:   5    -0.378594450053E+03   -0.12289E-03   -0.12041E-03 10080   0.362E-03-0.965E-04
CGA:   6    -0.378594487641E+03   -0.37588E-04   -0.39009E-04 10080   0.720E-04 0.193E-04
CGA:   7    -0.378594492089E+03   -0.44477E-05   -0.79704E-05 10080   0.334E-04 0.376E-04
  97 F= -.37859449E+03 E0= -.37859422E+03  d E =-.222850E-03  mag=     8.0000
       N       E                     dE             d eps       ncg     rms          ort
SDA:   1    -0.378517151523E+03    0.77336E-01    0.00000E+00 10080   0.188E+00 0.000E+00
CGA:   2    -0.378578608491E+03   -0.61457E-01   -0.61506E-01 10080   0.688E-01-0.403E-03
CGA:   3    -0.378590810477E+03   -0.12202E-01   -0.12209E-01 10080   0.230E-01 0.385E-03
CGA:   4    -0.378593648038E+03   -0.28376E-02   -0.28358E-02 10080   0.508E-02 0.610E-04
CGA:   5    -0.378594597017E+03   -0.94898E-03   -0.94593E-03 10080   0.191E-02-0.457E-03
CGA:   6    -0.378594786435E+03   -0.18942E-03   -0.20728E-03 10080   0.512E-03 0.253E-03
CGA:   7    -0.378594896595E+03   -0.11016E-03   -0.11011E-03 10080   0.199E-03 0.325E-04
CGA:   8    -0.378594947050E+03   -0.50455E-04   -0.51546E-04 10080   0.185E-03-0.195E-04
CGA:   9    -0.378594962821E+03   -0.15770E-04   -0.18551E-04 10080   0.772E-04 0.352E-04
CGA:  10    -0.378594983563E+03   -0.20742E-04   -0.20938E-04 10080   0.964E-04-0.472E-05
CGA:  11    -0.378594999211E+03   -0.15648E-04   -0.14371E-04 10080   0.611E-04-0.415E-04
CGA:  12    -0.378595002955E+03   -0.37440E-05   -0.41547E-05 10080   0.417E-04 0.603E-05
  98 F= -.37859500E+03 E0= -.37859476E+03  d E =-.510866E-03  mag=     8.0000
       N       E                     dE             d eps       ncg     rms          ort
SDA:   1    -0.378537737463E+03    0.57262E-01    0.00000E+00 10080   0.148E+00 0.000E+00
CGA:   2    -0.378577454015E+03   -0.39717E-01   -0.39716E-01 10080   0.980E-01 0.242E-03
CGA:   3    -0.378589062372E+03   -0.11608E-01   -0.11583E-01 10080   0.289E-01-0.214E-02
CGA:   4    -0.378593869185E+03   -0.48068E-02   -0.48152E-02 10080   0.412E-02 0.713E-03
CGA:   5    -0.378594742701E+03   -0.87352E-03   -0.87670E-03 10080   0.146E-02-0.122E-03
CGA:   6    -0.378594920953E+03   -0.17825E-03   -0.18487E-03 10080   0.473E-03 0.129E-03
CGA:   7    -0.378595033498E+03   -0.11255E-03   -0.11555E-03 10080   0.258E-03-0.684E-04
CGA:   8    -0.378595071924E+03   -0.38426E-04   -0.38604E-04 10080   0.115E-03 0.234E-04
CGA:   9    -0.378594668871E+03    0.40305E-03   -0.21775E-03 10080   0.397E-02-0.568E-03
CGA:  10    -0.378594986263E+03   -0.31739E-03   -0.38592E-03 10080   0.721E-03 0.356E-03
CGA:  11    -0.378595109917E+03   -0.12365E-03   -0.12072E-03 10080   0.111E-03-0.172E-04
CGA:  12    -0.378595140425E+03   -0.30509E-04   -0.29453E-04 10080   0.127E-03-0.260E-04
CGA:  13    -0.378595153600E+03   -0.13175E-04   -0.12605E-04 10080   0.322E-04-0.282E-05
CGA:  14    -0.378595153824E+03   -0.22350E-06   -0.32001E-05 10080   0.196E-04 0.149E-04
  99 F= -.37859515E+03 E0= -.37859490E+03  d E =-.150869E-03  mag=     8.0000
       N       E                     dE             d eps       ncg     rms          ort
SDA:   1    -0.378576908271E+03    0.18245E-01    0.00000E+00 10080   0.461E-01 0.000E+00
CGA:   2    -0.378591170133E+03   -0.14262E-01   -0.14248E-01 10080   0.181E-01 0.521E-03
CGA:   3    -0.378594223349E+03   -0.30532E-02   -0.30311E-02 10080   0.694E-02-0.158E-03
CGA:   4    -0.378595165808E+03   -0.94246E-03   -0.92331E-03 10080   0.159E-02-0.134E-03
CGA:   5    -0.378595381464E+03   -0.21566E-03   -0.23139E-03 10080   0.412E-03 0.132E-03
CGA:   6    -0.378595489771E+03   -0.10831E-03   -0.10290E-03 10080   0.369E-03-0.157E-03
CGA:   7    -0.378595505570E+03   -0.15800E-04   -0.21830E-04 10080   0.136E-03 0.368E-04
CGA:   8    -0.378595510524E+03   -0.49535E-05   -0.11676E-04 10080   0.677E-04 0.385E-04
CGA:   9    -0.378595523400E+03   -0.12876E-04   -0.13084E-04 10080   0.432E-04 0.219E-05
CGA:  10    -0.378595532522E+03   -0.91220E-05   -0.12809E-04 10080   0.179E-03-0.797E-04
CGA:  11    -0.378595535432E+03   -0.29102E-05   -0.11881E-04 10080   0.284E-04 0.518E-04
 100 F= -.37859554E+03 E0= -.37859530E+03  d E =-.381609E-03  mag=     8.0000
       N       E                     dE             d eps       ncg     rms          ort
SDA:   1    -0.378587600394E+03    0.79321E-02    0.00000E+00 10080   0.211E-01 0.000E+00
CGA:   2    -0.378593125940E+03   -0.55255E-02   -0.55044E-02 10080   0.135E-01 0.664E-03
CGA:   3    -0.378594942198E+03   -0.18163E-02   -0.17579E-02 10080   0.419E-02-0.676E-03
CGA:   4    -0.378595558563E+03   -0.61637E-03   -0.63086E-03 10080   0.604E-03 0.231E-03
CGA:   5    -0.378595671368E+03   -0.11281E-03   -0.11122E-03 10080   0.300E-03-0.335E-04
CGA:   6    -0.378595712961E+03   -0.41593E-04   -0.40780E-04 10080   0.583E-04-0.103E-04
CGA:   7    -0.378595725219E+03   -0.12258E-04   -0.12238E-04 10080   0.202E-04 0.631E-05
CGA:   8    -0.378595726235E+03   -0.10158E-05   -0.22961E-05 10080   0.858E-05 0.115E-04
 101 F= -.37859573E+03 E0= -.37859549E+03  d E =-.190803E-03  mag=     8.0000
       N       E                     dE             d eps       ncg     rms          ort
SDA:   1    -0.378429569094E+03    0.16616E+00    0.00000E+00 10080   0.405E+00 0.000E+00
CGA:   2    -0.378562469207E+03   -0.13290E+00   -0.13312E+00 10080   0.130E+00-0.201E-02
CGA:   3    -0.378589805807E+03   -0.27337E-01   -0.27341E-01 10080   0.250E-01 0.115E-02
CGA:   4    -0.378594143591E+03   -0.43378E-02   -0.43055E-02 10080   0.796E-02-0.743E-03
CGA:   5    -0.378595220312E+03   -0.10767E-02   -0.11049E-02 10080   0.222E-02 0.449E-03
CGA:   6    -0.378595640303E+03   -0.41999E-03   -0.41568E-03 10080   0.969E-03-0.133E-03
CGA:   7    -0.378595781119E+03   -0.14082E-03   -0.14568E-03 10080   0.364E-03 0.104E-03
CGA:   8    -0.378595879897E+03   -0.98778E-04   -0.10321E-03 10080   0.341E-03-0.860E-04
CGA:   9    -0.378595928397E+03   -0.48500E-04   -0.48470E-04 10080   0.186E-03-0.839E-06
CGA:  10    -0.378595954143E+03   -0.25747E-04   -0.28588E-04 10080   0.732E-04 0.539E-04
CGA:  11    -0.378595968471E+03   -0.14328E-04   -0.15089E-04 10080   0.420E-04 0.174E-04
CGA:  12    -0.378595979371E+03   -0.10900E-04   -0.10919E-04 10080   0.218E-04-0.221E-05
CGA:  13    -0.378595984765E+03   -0.53938E-05   -0.57274E-05 10080   0.173E-04-0.442E-05
 102 F= -.37859598E+03 E0= -.37859574E+03  d E =-.258530E-03  mag=     8.0000
       N       E                     dE             d eps       ncg     rms          ort
SDA:   1    -0.378477431078E+03    0.11855E+00    0.00000E+00 10080   0.277E+00 0.000E+00
CGA:   2    -0.378573979886E+03   -0.96549E-01   -0.96517E-01 10080   0.848E-01 0.173E-03
CGA:   3    -0.378590045604E+03   -0.16066E-01   -0.16075E-01 10080   0.273E-01 0.852E-03
CGA:   4    -0.378593638383E+03   -0.35928E-02   -0.35413E-02 10080   0.672E-02-0.859E-03
CGA:   5    -0.378594743767E+03   -0.11054E-02   -0.11138E-02 10080   0.181E-02 0.304E-03
CGA:   6    -0.378595083396E+03   -0.33963E-03   -0.33439E-03 10080   0.105E-02-0.232E-03
CGA:   7    -0.378595206882E+03   -0.12349E-03   -0.12786E-03 10080   0.272E-03 0.769E-04
CGA:   8    -0.378595259139E+03   -0.52257E-04   -0.53335E-04 10080   0.128E-03 0.838E-04
CGA:   9    -0.378595299699E+03   -0.40560E-04   -0.45543E-04 10080   0.263E-03-0.637E-04
CGA:  10    -0.378595306728E+03   -0.70295E-05   -0.89693E-05 10080   0.211E-03 0.150E-04
CGA:  11    -0.378595313644E+03   -0.69153E-05   -0.12245E-04 10080   0.838E-04 0.395E-04
 103 F= -.37859531E+03 E0= -.37859511E+03  d E =0.671121E-03  mag=     8.0000
       N       E                     dE             d eps       ncg     rms          ort
SDA:   1    -0.378456222996E+03    0.13908E+00    0.00000E+00 10080   0.339E+00 0.000E+00
CGA:   2    -0.378562791773E+03   -0.10657E+00   -0.10650E+00 10080   0.186E+00 0.705E-03
CGA:   3    -0.378584527750E+03   -0.21736E-01   -0.21819E-01 10080   0.582E-01-0.221E-02
CGA:   4    -0.378593681377E+03   -0.91536E-02   -0.91688E-02 10080   0.808E-02 0.874E-03
CGA:   5    -0.378595360362E+03   -0.16790E-02   -0.16867E-02 10080   0.332E-02-0.321E-03
CGA:   6    -0.378595762442E+03   -0.40208E-03   -0.41221E-03 10080   0.790E-03 0.205E-03
CGA:   7    -0.378595957428E+03   -0.19499E-03   -0.19758E-03 10080   0.392E-03-0.466E-04
CGA:   8    -0.378596011206E+03   -0.53779E-04   -0.55440E-04 10080   0.180E-03 0.509E-04
CGA:   9    -0.378596049573E+03   -0.38366E-04   -0.90594E-04 10080   0.488E-03-0.198E-03
CGA:  10    -0.378596084968E+03   -0.35396E-04   -0.47450E-04 10080   0.927E-04 0.124E-03
CGA:  11    -0.378596099068E+03   -0.14100E-04   -0.15238E-04 10080   0.205E-04 0.193E-04
CGA:  12    -0.378596079580E+03    0.19488E-04   -0.21249E-04 10080   0.294E-03-0.607E-04
CGA:  13    -0.378596098892E+03   -0.19312E-04   -0.26299E-04 10080   0.473E-04 0.545E-04
CGA:  14    -0.378596106110E+03   -0.72183E-05   -0.83179E-05 10080   0.179E-04 0.168E-04
 104 F= -.37859611E+03 E0= -.37859586E+03  d E =-.792466E-03  mag=     8.0000
       N       E                     dE             d eps       ncg     rms          ort
SDA:   1    -0.378577617721E+03    0.18481E-01    0.00000E+00 10080   0.494E-01 0.000E+00
CGA:   2    -0.378591177217E+03   -0.13559E-01   -0.13588E-01 10080   0.181E-01-0.440E-03
CGA:   3    -0.378594637080E+03   -0.34599E-02   -0.34507E-02 10080   0.864E-02-0.493E-03
CGA:   4    -0.378595742331E+03   -0.11053E-02   -0.11161E-02 10080   0.132E-02 0.170E-03
CGA:   5    -0.378596053331E+03   -0.31100E-03   -0.31714E-03 10080   0.668E-03-0.212E-03
CGA:   6    -0.378596096236E+03   -0.42906E-04   -0.53094E-04 10080   0.187E-03 0.921E-04
CGA:   7    -0.378596129875E+03   -0.33638E-04   -0.34662E-04 10080   0.132E-03 0.260E-04
CGA:   8    -0.378596121304E+03    0.85703E-05   -0.61747E-04 10080   0.104E-02-0.332E-03
CGA:   9    -0.378596180388E+03   -0.59084E-04   -0.77758E-04 10080   0.122E-03 0.146E-03
CGA:  10    -0.378596203848E+03   -0.23460E-04   -0.23758E-04 10080   0.438E-04 0.896E-05
CGA:  11    -0.378596016415E+03    0.18743E-03   -0.40496E-04 10080   0.286E-02-0.344E-03
CGA:  12    -0.378596186181E+03   -0.16977E-03   -0.20478E-03 10080   0.159E-03 0.259E-03
CGA:  13    -0.378596213724E+03   -0.27543E-04   -0.28690E-04 10080   0.807E-04 0.189E-04
CGA:  14    -0.378596226684E+03   -0.12960E-04   -0.29649E-04 10080   0.304E-03-0.160E-03
CGA:  15    -0.378596234818E+03   -0.81334E-05   -0.20104E-04 10080   0.399E-04 0.755E-04
 105 F= -.37859623E+03 E0= -.37859601E+03  d E =-.128707E-03  mag=     8.0000
       N       E                     dE             d eps       ncg     rms          ort
SDA:   1    -0.378587169336E+03    0.90573E-02    0.00000E+00 10080   0.235E-01 0.000E+00
CGA:   2    -0.378593966006E+03   -0.67967E-02   -0.67424E-02 10080   0.138E-01 0.769E-03
CGA:   3    -0.378595735947E+03   -0.17699E-02   -0.17303E-02 10080   0.435E-02-0.481E-03
CGA:   4    -0.378596379586E+03   -0.64364E-03   -0.65805E-03 10080   0.631E-03 0.270E-03
CGA:   5    -0.378596524569E+03   -0.14498E-03   -0.14516E-03 10080   0.248E-03-0.250E-04
CGA:   6    -0.378596554399E+03   -0.29830E-04   -0.31454E-04 10080   0.677E-04 0.215E-04
CGA:   7    -0.378596569445E+03   -0.15046E-04   -0.15054E-04 10080   0.280E-04 0.483E-05
CGA:   8    -0.378596569118E+03    0.32686E-06   -0.22478E-05 10080   0.145E-04 0.196E-04
 106 F= -.37859657E+03 E0= -.37859634E+03  d E =-.334300E-03  mag=     8.0000
