       N       E                     dE             d eps       ncg     rms          ort
DAV:   1     0.234823481540E+04    0.23482E+04   -0.13677E+05 10080   0.174E+03
DAV:   2    -0.148535003764E+03   -0.24968E+04   -0.23299E+04 10080   0.442E+02
DAV:   3    -0.432856263337E+03   -0.28432E+03   -0.27117E+03 10080   0.164E+02
DAV:   4    -0.443853013871E+03   -0.10997E+02   -0.10889E+02 10080   0.311E+01
DAV:   5    -0.444305526769E+03   -0.45251E+00   -0.45121E+00 10080   0.485E+00
SDA:   6    -0.365912827396E+03    0.78393E+02   -0.45121E+00 10080   0.160E+02 0.000E+00
CGA:   7    -0.368151687316E+03   -0.22389E+01   -0.22825E+01 10080   0.407E+01 0.264E-01
CGA:   8    -0.368696809184E+03   -0.54512E+00   -0.54363E+00 10080   0.761E+00 0.154E-01
CGA:   9    -0.368900265183E+03   -0.20346E+00   -0.20376E+00 10080   0.287E+00-0.497E-02
CGA:  10    -0.368965441002E+03   -0.65176E-01   -0.65585E-01 10080   0.147E+00-0.133E-01
CGA:  11    -0.369000304289E+03   -0.34863E-01   -0.35816E-01 10080   0.923E-01-0.176E-01
CGA:  12    -0.369022086699E+03   -0.21782E-01   -0.23800E-01 10080   0.621E-01-0.227E-01
CGA:  13    -0.369033725899E+03   -0.11639E-01   -0.12110E-01 10080   0.273E-01-0.925E-02
CGA:  14    -0.369039927676E+03   -0.62018E-02   -0.73410E-02 10080   0.298E-01-0.109E-01
CGA:  15    -0.369043462599E+03   -0.35349E-02   -0.34383E-02 10080   0.146E-01-0.436E-02
CGA:  16    -0.369047022357E+03   -0.35598E-02   -0.46902E-02 10080   0.201E-01-0.707E-02
CGA:  17    -0.369049313860E+03   -0.22915E-02   -0.22804E-02 10080   0.177E-01-0.651E-02
CGA:  18    -0.369051234286E+03   -0.19204E-02   -0.18547E-02 10080   0.766E-02-0.101E-02
CGA:  19    -0.369052256496E+03   -0.10222E-02   -0.10577E-02 10080   0.480E-02 0.514E-03
CGA:  20    -0.369053383758E+03   -0.11273E-02   -0.11369E-02 10080   0.231E-02-0.127E-02
CGA:  21    -0.369053749952E+03   -0.36619E-03   -0.36621E-03 10080   0.191E-02-0.189E-04
CGA:  22    -0.369053822464E+03   -0.72512E-04   -0.18145E-03 10080   0.966E-03 0.917E-03
CGA:  23    -0.369053818489E+03    0.39757E-05   -0.10647E-03 10080   0.555E-03 0.821E-03
CGA:  24    -0.369053875477E+03   -0.56989E-04   -0.78649E-04 10080   0.285E-03 0.358E-03
CGA:  25    -0.369053863293E+03    0.12184E-04   -0.19991E-04 10080   0.225E-03 0.249E-03
CGA:  26    -0.369053853860E+03    0.94329E-05   -0.15667E-04 10080   0.187E-03 0.204E-03
CGA:  27    -0.369053844081E+03    0.97792E-05   -0.11712E-04 10080   0.162E-03 0.173E-03
   1 F= -.36905384E+03 E0= -.36905384E+03  d E =-.369054E+03  mag=    16.0000
       N       E                     dE             d eps       ncg     rms          ort
SDA:   1    -0.369033622371E+03    0.20231E-01    0.00000E+00 10080   0.487E-01 0.000E+00
CGA:   2    -0.369046791408E+03   -0.13169E-01   -0.13867E-01 10080   0.449E-01-0.637E-02
CGA:   3    -0.369051043235E+03   -0.42518E-02   -0.44190E-02 10080   0.804E-02 0.257E-02
CGA:   4    -0.369052270887E+03   -0.12277E-02   -0.12592E-02 10080   0.328E-02 0.112E-02
CGA:   5    -0.369052889220E+03   -0.61833E-03   -0.60537E-03 10080   0.137E-02-0.101E-02
CGA:   6    -0.369052961392E+03   -0.72171E-04   -0.96704E-04 10080   0.508E-03 0.340E-03
CGA:   7    -0.369052977461E+03   -0.16069E-04   -0.43036E-04 10080   0.193E-03 0.262E-03
CGA:   8    -0.369052983248E+03   -0.57868E-05   -0.12631E-03 10080   0.613E-03-0.247E-03
CGA:   9    -0.369053003013E+03   -0.19765E-04   -0.51585E-04 10080   0.175E-03 0.301E-03
CGA:  10    -0.369053006838E+03   -0.38251E-05   -0.18813E-04 10080   0.617E-04 0.133E-03
CGA:  11    -0.369053024064E+03   -0.17226E-04   -0.22470E-04 10080   0.718E-04-0.283E-04
CGA:  12    -0.369053019206E+03    0.48576E-05   -0.64028E-06 10080   0.595E-04 0.320E-04
   2 F= -.36905302E+03 E0= -.36905302E+03  d E =0.824875E-03  mag=    16.0000
       N       E                     dE             d eps       ncg     rms          ort
SDA:   1    -0.369044618120E+03    0.84059E-02    0.00000E+00 10080   0.217E-01 0.000E+00
CGA:   2    -0.369051212450E+03   -0.65943E-02   -0.64234E-02 10080   0.711E-02 0.136E-02
CGA:   3    -0.369052685227E+03   -0.14728E-02   -0.14694E-02 10080   0.263E-02 0.203E-03
CGA:   4    -0.369053061565E+03   -0.37634E-03   -0.38577E-03 10080   0.600E-03 0.262E-03
CGA:   5    -0.369053183606E+03   -0.12204E-03   -0.12191E-03 10080   0.167E-03 0.160E-04
CGA:   6    -0.369053196003E+03   -0.12397E-04   -0.18208E-04 10080   0.553E-04 0.819E-04
CGA:   7    -0.369053197203E+03   -0.11997E-05   -0.61633E-05 10080   0.296E-04 0.501E-04
   3 F= -.36905320E+03 E0= -.36905320E+03  d E =0.646878E-03  mag=    16.0000
