 vasp.6.1.2 22Jul20 (build Feb 09 2022 12:23:39) complex                        
  
 executed on             LinuxIFC date 2022.03.25  10:41:38
 running on  240 total cores
 distrk:  each k-point on  240 cores,    1 groups
 distr:  one band on NCORE=  24 cores,   10 groups


--------------------------------------------------------------------------------------------------------


 INCAR:
 POTCAR:    PAW_PBE Ca_sv 06Sep2000               
 POTCAR:    PAW_PBE Fe_pv 02Aug2007               
 POTCAR:    PAW_PBE P 06Sep2000                   
 POTCAR:    PAW_PBE O 08Apr2002                   
 POTCAR:    PAW_PBE Ca_sv 06Sep2000               
   SHA256 =  a47365830e737f14e0e6c5cf1ed81b94e081eecf0a33df105380881bc9da05d5 Ca_sv/POTCAR          
   COPYR  = (c) Copyright 06Sep2000 Georg Kresse                                                    
   COPYR  = This file is part of the software VASP. Any use, copying, and all other rights are regul
   COPYR  = If you do not have a valid VASP license, you may not use, copy or distribute this file. 
   VRHFIN =Ca: 3s3p4s                                                                               
   LEXCH  = PE                                                                                      
   EATOM  =  1006.0909 eV,   73.9456 Ry                                                             
                                                                                                    
   TITEL  = PAW_PBE Ca_sv 06Sep2000                                                                 
   LULTRA =        F    use ultrasoft PP ?                                                          
   IUNSCR =        1    unscreen: 0-lin 1-nonlin 2-no                                               
   RPACOR =    2.000    partial core radius                                                         
   POMASS =   40.078; ZVAL   =   10.000    mass and valenz                                          
   RCORE  =    2.300    outmost cutoff radius                                                       
   RWIGS  =    2.500; RWIGS  =    1.323    wigner-seitz radius (au A)                               
   ENMAX  =  266.622; ENMIN  =  199.967 eV                                                          
   RCLOC  =    1.808    cutoff for local pot                                                        
   LCOR   =        T    correct aug charges                                                         
   LPAW   =        T    paw PP                                                                      
   EAUG   =  420.852                                                                                
   RMAX   =    2.359    core radius for proj-oper                                                   
   RAUG   =    1.300    factor for augmentation sphere                                              
   RDEP   =    2.392    radius for radial grids                                                     
   RDEPT  =    1.987    core radius for aug-charge                                                  
                                                                                                    
   Atomic configuration                                                                             
    7 entries                                                                                       
     n  l   j            E        occ.                                                              
     1  0  0.50     -3949.1705   2.0000                                                             
     2  0  0.50      -414.3434   2.0000                                                             
     2  1  1.50      -334.7047   6.0000                                                             
     3  0  0.50       -47.0896   2.0000                                                             
     4  0  0.50        -3.7663   2.0000                                                             
     3  1  1.50       -28.0061   6.0000                                                             
     3  2  1.50        -4.0817   0.0000                                                             
   Description                                                                                      
     l       E           TYP  RCUT    TYP  RCUT                                                     
     0    -47.0896403     23  2.300                                                                 
     0     -3.7663320     23  2.300                                                                 
     1    -28.0060855     23  2.300                                                                 
     1      6.8029130     23  2.300                                                                 
     2     -4.0817478     23  2.300                                                                 
     2      0.4464412     23  2.300                                                                 
  local pseudopotential read in
  partial core-charges read in
  partial kinetic energy density read in
  atomic valenz-charges read in
  non local Contribution for L=           0  read in
    real space projection operators read in
  non local Contribution for L=           0  read in
    real space projection operators read in
  non local Contribution for L=           1  read in
    real space projection operators read in
  non local Contribution for L=           1  read in
    real space projection operators read in
  non local Contribution for L=           2  read in
    real space projection operators read in
  non local Contribution for L=           2  read in
    real space projection operators read in
    PAW grid and wavefunctions read in
 
   number of l-projection  operators is LMAX  =           6
   number of lm-projection operators is LMMAX =          18
 
 POTCAR:    PAW_PBE Fe_pv 02Aug2007               
   SHA256 =  5d22e414b1f82158bf2c7ecb8b97b28fd0923e48cadc1c3bf74d524558f5dd32 Fe_pv/POTCAR          
   COPYR  = (c) Copyright 02Aug2007 Georg Kresse                                                    
   COPYR  = This file is part of the software VASP. Any use, copying, and all other rights are regul
   COPYR  = If you do not have a valid VASP license, you may not use, copy or distribute this file. 
   VRHFIN =Fe:  3pd7s1                                                                              
   LEXCH  = PE                                                                                      
   EATOM  =  2457.4239 eV,  180.6156 Ry                                                             
                                                                                                    
   TITEL  = PAW_PBE Fe_pv 02Aug2007                                                                 
   LULTRA =        F    use ultrasoft PP ?                                                          
   IUNSCR =        1    unscreen: 0-lin 1-nonlin 2-no                                               
   RPACOR =    1.750    partial core radius                                                         
   POMASS =   55.847; ZVAL   =   14.000    mass and valenz                                          
   RCORE  =    2.200    outmost cutoff radius                                                       
   RWIGS  =    2.200; RWIGS  =    1.164    wigner-seitz radius (au A)                               
   ENMAX  =  293.238; ENMIN  =  219.928 eV                                                          
   ICORE  =        3    local potential                                                             
   LCOR   =        T    correct aug charges                                                         
   LPAW   =        T    paw PP                                                                      
   EAUG   =  578.342                                                                                
   DEXC   =    0.000                                                                                
   RMAX   =    2.249    core radius for proj-oper                                                   
   RAUG   =    1.300    factor for augmentation sphere                                              
   RDEP   =    2.296    radius for radial grids                                                     
   RDEPT  =    1.766    core radius for aug-charge                                                  
                                                                                                    
   Atomic configuration                                                                             
    8 entries                                                                                       
     n  l   j            E        occ.                                                              
     1  0  0.50     -6993.8440   2.0000                                                             
     2  0  0.50      -814.6047   2.0000                                                             
     2  1  1.50      -693.3689   6.0000                                                             
     3  0  0.50       -89.4732   2.0000                                                             
     3  1  1.50       -55.6373   6.0000                                                             
     3  2  2.50        -3.8151   7.0000                                                             
     4  0  0.50        -4.2551   1.0000                                                             
     4  3  2.50        -1.3606   0.0000                                                             
   Description                                                                                      
     l       E           TYP  RCUT    TYP  RCUT                                                     
     1    -55.6372668     23  2.000                                                                 
     1     -5.4423304     23  2.000                                                                 
     2     -3.8151096     23  2.200                                                                 
     2     -5.1756922     23  2.200                                                                 
     0     -4.2550951     23  2.200                                                                 
     0     27.2116520     23  2.200                                                                 
     3     -1.3605826     23  2.200                                                                 
  local pseudopotential read in
  partial core-charges read in
  partial kinetic energy density read in
  atomic valenz-charges read in
  non local Contribution for L=           1  read in
    real space projection operators read in
  non local Contribution for L=           1  read in
    real space projection operators read in
  non local Contribution for L=           2  read in
    real space projection operators read in
  non local Contribution for L=           2  read in
    real space projection operators read in
  non local Contribution for L=           0  read in
    real space projection operators read in
  non local Contribution for L=           0  read in
    real space projection operators read in
    PAW grid and wavefunctions read in
 
   number of l-projection  operators is LMAX  =           6
   number of lm-projection operators is LMMAX =          18
 
 POTCAR:    PAW_PBE P 06Sep2000                   
   SHA256 =  df60c54a93efe35c9e85ae94c010c75e9f6960a95d5595d7cdba4096d109af88 P/POTCAR              
   COPYR  = (c) Copyright 06Sep2000 Georg Kresse                                                    
   COPYR  = This file is part of the software VASP. Any use, copying, and all other rights are regul
   COPYR  = If you do not have a valid VASP license, you may not use, copy or distribute this file. 
   VRHFIN =P : s2p3                                                                                 
   LEXCH  = PE                                                                                      
   EATOM  =   176.0430 eV,   12.9388 Ry                                                             
                                                                                                    
   TITEL  = PAW_PBE P 06Sep2000                                                                     
   LULTRA =        F    use ultrasoft PP ?                                                          
   IUNSCR =        1    unscreen: 0-lin 1-nonlin 2-no                                               
   RPACOR =    1.500    partial core radius                                                         
   POMASS =   30.974; ZVAL   =    5.000    mass and valenz                                          
   RCORE  =    1.900    outmost cutoff radius                                                       
   RWIGS  =    2.330; RWIGS  =    1.233    wigner-seitz radius (au A)                               
   ENMAX  =  255.040; ENMIN  =  191.280 eV                                                          
   ICORE  =        2    local potential                                                             
   LCOR   =        T    correct aug charges                                                         
   LPAW   =        T    paw PP                                                                      
   EAUG   =  342.924                                                                                
   DEXC   =    0.000                                                                                
   RMAX   =    1.935    core radius for proj-oper                                                   
   RAUG   =    1.300    factor for augmentation sphere                                              
   RDEP   =    1.931    radius for radial grids                                                     
   RDEPT  =    1.794    core radius for aug-charge                                                  
                                                                                                    
   Atomic configuration                                                                             
    6 entries                                                                                       
     n  l   j            E        occ.                                                              
     1  0  0.50     -2084.0982   2.0000                                                             
     2  0  0.50      -173.9859   2.0000                                                             
     2  1  1.50      -124.4865   6.0000                                                             
     3  0  0.50       -13.9692   2.0000                                                             
     3  1  0.50        -5.5067   3.0000                                                             
     3  2  1.50        -5.4423   0.0000                                                             
   Description                                                                                      
     l       E           TYP  RCUT    TYP  RCUT                                                     
     0    -13.9691527     23  1.900                                                                 
     0    -11.7794650     23  1.900                                                                 
     1     -5.5066937     23  1.900                                                                 
     1     -0.2556953     23  1.900                                                                 
     2     -5.4423304     23  1.900                                                                 
  local pseudopotential read in
  partial core-charges read in
  partial kinetic energy density read in
  atomic valenz-charges read in
  non local Contribution for L=           0  read in
    real space projection operators read in
  non local Contribution for L=           0  read in
    real space projection operators read in
  non local Contribution for L=           1  read in
    real space projection operators read in
  non local Contribution for L=           1  read in
    real space projection operators read in
    PAW grid and wavefunctions read in
 
   number of l-projection  operators is LMAX  =           4
   number of lm-projection operators is LMMAX =           8
 
 POTCAR:    PAW_PBE O 08Apr2002                   
   SHA256 =  818f92134a0a090dccd8ba1447fa70422a3b330e708bb4f08108d8ae51209ddf O/POTCAR              
   COPYR  = (c) Copyright 08Apr2002 Georg Kresse                                                    
   COPYR  = This file is part of the software VASP. Any use, copying, and all other rights are regul
   COPYR  = If you do not have a valid VASP license, you may not use, copy or distribute this file. 
   VRHFIN =O: s2p4                                                                                  
   LEXCH  = PE                                                                                      
   EATOM  =   432.3788 eV,   31.7789 Ry                                                             
                                                                                                    
   TITEL  = PAW_PBE O 08Apr2002                                                                     
   LULTRA =        F    use ultrasoft PP ?                                                          
   IUNSCR =        1    unscreen: 0-lin 1-nonlin 2-no                                               
   RPACOR =    1.200    partial core radius                                                         
   POMASS =   16.000; ZVAL   =    6.000    mass and valenz                                          
   RCORE  =    1.520    outmost cutoff radius                                                       
   RWIGS  =    1.550; RWIGS  =    0.820    wigner-seitz radius (au A)                               
   ENMAX  =  400.000; ENMIN  =  300.000 eV                                                          
   ICORE  =        2    local potential                                                             
   LCOR   =        T    correct aug charges                                                         
   LPAW   =        T    paw PP                                                                      
   EAUG   =  605.392                                                                                
   DEXC   =    0.000                                                                                
   RMAX   =    1.553    core radius for proj-oper                                                   
   RAUG   =    1.300    factor for augmentation sphere                                              
   RDEP   =    1.550    radius for radial grids                                                     
   RDEPT  =    1.329    core radius for aug-charge                                                  
                                                                                                    
   Atomic configuration                                                                             
    4 entries                                                                                       
     n  l   j            E        occ.                                                              
     1  0  0.50      -514.6923   2.0000                                                             
     2  0  0.50       -23.9615   2.0000                                                             
     2  1  0.50        -9.0305   4.0000                                                             
     3  2  1.50        -9.5241   0.0000                                                             
   Description                                                                                      
     l       E           TYP  RCUT    TYP  RCUT                                                     
     0    -23.9615318     23  1.200                                                                 
     0     -9.5240782     23  1.200                                                                 
     1     -9.0304911     23  1.520                                                                 
     1      8.1634956     23  1.520                                                                 
     2     -9.5240782      7  1.500                                                                 
  local pseudopotential read in
  partial core-charges read in
  partial kinetic energy density read in
  kinetic energy density of atom read in
  atomic valenz-charges read in
  non local Contribution for L=           0  read in
    real space projection operators read in
  non local Contribution for L=           0  read in
    real space projection operators read in
  non local Contribution for L=           1  read in
    real space projection operators read in
  non local Contribution for L=           1  read in
    real space projection operators read in
    PAW grid and wavefunctions read in
 
   number of l-projection  operators is LMAX  =           4
   number of lm-projection operators is LMMAX =           8
 
 Optimization of the real space projectors (new method)

 maximal supplied QI-value         = 16.25
 optimisation between [QCUT,QGAM] = [ 11.54, 23.24] = [ 37.28,151.24] Ry 
 Optimized for a Real-space Cutoff    1.58 Angstroem

   l    n(q)    QCUT    max X(q) W(low)/X(q) W(high)/X(q)  e(spline) 
   0     11    11.539    11.817    0.25E-04    0.22E-05    0.26E-07
   0     11    11.539     8.461    0.39E-04    0.49E-05    0.55E-07
   1     11    11.539     3.957    0.21E-05    0.44E-05    0.32E-07
   1     11    11.539     4.314    0.56E-04    0.44E-04    0.19E-06
   2     10    11.539    14.565    0.25E-03    0.21E-04    0.75E-06
   2     10    11.539    14.552    0.23E-03    0.22E-04    0.72E-06
 Optimization of the real space projectors (new method)

 maximal supplied QI-value         = 17.01
 optimisation between [QCUT,QGAM] = [ 11.57, 23.30] = [ 37.45,152.03] Ry 
 Optimized for a Real-space Cutoff    1.45 Angstroem

   l    n(q)    QCUT    max X(q) W(low)/X(q) W(high)/X(q)  e(spline) 
   1     10    11.565     4.267    0.91E-04    0.15E-03    0.13E-06
   1     10    11.565     5.750    0.14E-03    0.22E-03    0.20E-06
   2      9    11.565    53.656    0.13E-03    0.57E-04    0.16E-06
   2      9    11.565    49.521    0.13E-03    0.59E-04    0.16E-06
   0     10    11.565    31.246    0.61E-04    0.74E-05    0.89E-07
   0     10    11.565    12.201    0.44E-04    0.68E-05    0.74E-07
 Optimization of the real space projectors (new method)

 maximal supplied QI-value         = 19.84
 optimisation between [QCUT,QGAM] = [ 11.51, 23.22] = [ 37.09,150.92] Ry 
 Optimized for a Real-space Cutoff    1.21 Angstroem

   l    n(q)    QCUT    max X(q) W(low)/X(q) W(high)/X(q)  e(spline) 
   0      8    11.508   160.924    0.96E-04    0.17E-03    0.52E-07
   0      8    11.508   130.086    0.95E-04    0.17E-03    0.51E-07
   1      8    11.508    74.434    0.16E-03    0.74E-04    0.91E-07
   1      8    11.508    49.120    0.16E-03    0.71E-04    0.89E-07
 Optimization of the real space projectors (new method)

 maximal supplied QI-value         = 24.76
 optimisation between [QCUT,QGAM] = [ 11.64, 23.27] = [ 37.91,151.63] Ry 
 Optimized for a Real-space Cutoff    1.14 Angstroem

   l    n(q)    QCUT    max X(q) W(low)/X(q) W(high)/X(q)  e(spline) 
   0      8    11.635    20.381    0.10E-03    0.33E-03    0.24E-06
   0      8    11.635    15.268    0.11E-03    0.35E-03    0.26E-06
   1      7    11.635     5.964    0.24E-03    0.31E-03    0.30E-06
   1      7    11.635     5.382    0.22E-03    0.25E-03    0.26E-06
  PAW_PBE Ca_sv 06Sep2000               :
 energy of atom  1       EATOM=-1006.0909
 kinetic energy error for atom=    0.0022 (will be added to EATOM!!)
  PAW_PBE Fe_pv 02Aug2007               :
 energy of atom  2       EATOM=-2457.4239
 kinetic energy error for atom=    0.0062 (will be added to EATOM!!)
  PAW_PBE P 06Sep2000                   :
 energy of atom  3       EATOM= -176.0430
 kinetic energy error for atom=    0.0011 (will be added to EATOM!!)
  PAW_PBE O 08Apr2002                   :
 energy of atom  4       EATOM= -432.3788
 kinetic energy error for atom=    0.0208 (will be added to EATOM!!)
 
 
 POSCAR: Ca1 Fe4 P6 O24
  positions in direct lattice
  velocities in cartesian coordinates

 METAGGA = SCAN     LMAXTAU =  6    LMIXTAU =  F

 exchange correlation table for  LEXCH =        8
   RHO(1)=    0.500       N(1)  =     2000
   RHO(2)=  100.500       N(2)  =     4000
 


--------------------------------------------------------------------------------------------------------


 ion  position               nearest neighbor table
   1  0.498  0.498  0.498-  14 2.38  12 2.38  16 2.38  23 2.39  19 2.39  21 2.39
   2  0.644  0.644  0.644-  29 1.93  27 1.93  25 1.93  16 2.06  12 2.06  14 2.06
   3  0.150  0.150  0.150-  17 1.84  13 1.84  15 1.84  24 1.84  26 1.84  28 1.84
   4  0.845  0.845  0.845-  35 1.84  31 1.84  33 1.84  18 1.84  20 1.84  22 1.84
   5  0.351  0.351  0.351-  30 1.93  34 1.93  32 1.93  21 2.06  19 2.06  23 2.06
   6  0.236  0.538  0.961-  30 1.50  14 1.52  22 1.54  24 1.57
   7  0.034  0.758  0.457-  25 1.50  21 1.52  17 1.54  31 1.57
   8  0.961  0.236  0.538-  32 1.50  16 1.52  18 1.54  26 1.57
   9  0.457  0.034  0.758-  27 1.50  23 1.52  13 1.54  33 1.57
  10  0.538  0.961  0.236-  34 1.50  12 1.52  20 1.54  28 1.57
  11  0.758  0.457  0.034-  29 1.50  19 1.52  15 1.54  35 1.57
  12  0.616  0.748  0.377-  10 1.52   2 2.06   1 2.38
  13  0.320  0.007  0.981-   9 1.54   3 1.84
  14  0.377  0.616  0.748-   6 1.52   2 2.06   1 2.38
  15  0.981  0.320  0.007-  11 1.54   3 1.84
  16  0.748  0.377  0.616-   8 1.52   2 2.06   1 2.38
  17  0.007  0.981  0.320-   7 1.54   3 1.84
  18  0.988  0.014  0.675-   8 1.54   4 1.84
  19  0.618  0.379  0.247-  11 1.52   5 2.06   1 2.39
  20  0.675  0.988  0.014-  10 1.54   4 1.84
  21  0.247  0.618  0.379-   7 1.52   5 2.06   1 2.39
  22  0.014  0.675  0.988-   6 1.54   4 1.84
  23  0.379  0.247  0.618-   9 1.52   5 2.06   1 2.39
  24  0.284  0.326  0.980-   6 1.57   3 1.84
  25  0.877  0.720  0.475-   7 1.50   2 1.93
  26  0.980  0.284  0.326-   8 1.57   3 1.84
  27  0.475  0.877  0.720-   9 1.50   2 1.93
  28  0.326  0.980  0.284-  10 1.57   3 1.84
  29  0.720  0.475  0.877-  11 1.50   2 1.93
  30  0.275  0.520  0.119-   6 1.50   5 1.93
  31  0.015  0.711  0.669-   7 1.57   4 1.84
  32  0.119  0.275  0.520-   8 1.50   5 1.93
  33  0.669  0.015  0.711-   9 1.57   4 1.84
  34  0.520  0.119  0.275-  10 1.50   5 1.93
  35  0.711  0.669  0.015-  11 1.57   4 1.84
 

IMPORTANT INFORMATION: All symmetrisations will be switched off!
NOSYMM: (Re-)initialisation of all symmetry stuff for point group C_1.


----------------------------------------------------------------------------------------

                                     Primitive cell                                     

  volume of cell :     412.9357

  direct lattice vectors                    reciprocal lattice vectors
     2.726641328  6.859587773  4.669137477    -0.003145950  0.150640812 -0.005302049
     0.446750108  0.316138352  8.716985341    -0.073945780 -0.052570216  0.120414880
     7.375305754  0.318325223  4.668087214     0.141229828 -0.052507344 -0.005333823

  length of vectors
     8.734378176  8.734149217  8.734271816     0.150766916  0.150769192  0.150769145

  position of ions in fractional coordinates (direct lattice)
     0.497643912  0.497654273  0.497660476
     0.643744125  0.643740770  0.643742925
     0.149520128  0.149535133  0.149521148
     0.845129340  0.845132778  0.845124903
     0.351111542  0.351114254  0.351111732
     0.236237639  0.537725957  0.961375717
     0.033875970  0.758383556  0.457305023
     0.961377439  0.236234650  0.537728770
     0.457308489  0.033871471  0.758385407
     0.537733645  0.961370814  0.236238246
     0.758380903  0.457309082  0.033877329
     0.616449817  0.748408117  0.377027663
     0.320451328  0.006807840  0.980711586
     0.377010957  0.616454653  0.748407040
     0.980702857  0.320461506  0.006794240
     0.748415022  0.377018121  0.616451589
     0.006814984  0.980712772  0.320467192
     0.987942310  0.014145314  0.674784704
     0.618006547  0.378502667  0.246994115
     0.674793174  0.987954448  0.014143186
     0.246988579  0.618005237  0.378500721
     0.014161877  0.674781513  0.987947666
     0.378506807  0.246984261  0.618007057
     0.284189321  0.325635694  0.979840367
     0.876521154  0.719671774  0.475466631
     0.979859190  0.284207382  0.325621251
     0.475466771  0.876524414  0.719656525
     0.325636675  0.979836647  0.284216792
     0.719649695  0.475485273  0.876524499
     0.274947555  0.519838946  0.118634595
     0.015330569  0.710540776  0.669443444
     0.118624568  0.274940215  0.519863533
     0.669445331  0.015339736  0.710541438
     0.519868438  0.118617589  0.274951366
     0.710553339  0.669452367  0.015331124

  ion indices of the primitive-cell ions
   primitive index   ion index
                 1           1
                 2           2
                 3           3
                 4           4
                 5           5
                 6           6
                 7           7
                 8           8
                 9           9
                10          10
                11          11
                12          12
                13          13
                14          14
                15          15
                16          16
                17          17
                18          18
                19          19
                20          20
                21          21
                22          22
                23          23
                24          24
                25          25
                26          26
                27          27
                28          28
                29          29
                30          30
                31          31
                32          32
                33          33
                34          34
                35          35

----------------------------------------------------------------------------------------

 
 
 KPOINTS: Fully automatic kpoint scheme           

Automatic generation of k-mesh.
 generate k-points for:    5    5    5
Space group operators:
 irot       det(A)        alpha          n_x          n_y          n_z        tau_x        tau_y        tau_z
    1     1.000000     0.000000     1.000000     0.000000     0.000000     0.000000     0.000000     0.000000
 
 Subroutine IBZKPT returns following result:
 ===========================================
 
 Found     63 irreducible k-points:
 
 Following reciprocal coordinates:
            Coordinates               Weight
  0.000000  0.000000  0.000000      1.000000
  0.200000 -0.000000 -0.000000      2.000000
  0.000000 -0.200000  0.000000      2.000000
  0.400000 -0.000000 -0.000000      2.000000
 -0.000000 -0.400000  0.000000      2.000000
  0.200000  0.200000 -0.000000      2.000000
  0.400000  0.200000 -0.000000      2.000000
 -0.200000 -0.400000  0.000000      2.000000
 -0.400000  0.200000 -0.000000      2.000000
 -0.200000  0.400000  0.000000      2.000000
 -0.200000  0.200000 -0.000000      2.000000
  0.400000  0.400000 -0.000000      2.000000
 -0.400000  0.400000 -0.000000      2.000000
 -0.000000  0.000000  0.200000      2.000000
  0.200000  0.000000  0.200000      2.000000
 -0.000000 -0.200000 -0.200000      2.000000
  0.400000 -0.000000  0.200000      2.000000
  0.000000 -0.400000 -0.200000      2.000000
 -0.400000  0.000000  0.200000      2.000000
  0.000000  0.400000 -0.200000      2.000000
 -0.200000  0.000000  0.200000      2.000000
  0.000000  0.200000 -0.200000      2.000000
  0.200000  0.200000  0.200000      2.000000
  0.400000  0.200000  0.200000      2.000000
 -0.200000 -0.400000 -0.200000      2.000000
 -0.400000  0.200000  0.200000      2.000000
 -0.200000  0.400000 -0.200000      2.000000
 -0.200000  0.200000  0.200000      2.000000
 -0.200000  0.200000 -0.200000      2.000000
  0.400000  0.400000  0.200000      2.000000
 -0.400000  0.400000  0.200000      2.000000
 -0.400000  0.400000 -0.200000      2.000000
 -0.200000  0.400000  0.200000      2.000000
 -0.400000  0.200000 -0.200000      2.000000
 -0.400000 -0.400000  0.200000      2.000000
 -0.200000 -0.400000  0.200000      2.000000
  0.400000  0.200000 -0.200000      2.000000
 -0.200000 -0.200000  0.200000      2.000000
  0.000000  0.000000  0.400000      2.000000
  0.200000 -0.000000  0.400000      2.000000
  0.000000 -0.200000 -0.400000      2.000000
  0.400000  0.000000  0.400000      2.000000
  0.000000 -0.400000 -0.400000      2.000000
 -0.400000  0.000000  0.400000      2.000000
 -0.000000  0.400000 -0.400000      2.000000
 -0.200000  0.000000  0.400000      2.000000
  0.000000  0.200000 -0.400000      2.000000
  0.200000  0.200000  0.400000      2.000000
  0.400000  0.200000  0.400000      2.000000
 -0.200000 -0.400000 -0.400000      2.000000
 -0.400000  0.200000  0.400000      2.000000
 -0.200000  0.400000 -0.400000      2.000000
 -0.200000  0.200000  0.400000      2.000000
 -0.200000  0.200000 -0.400000      2.000000
  0.400000  0.400000  0.400000      2.000000
 -0.400000  0.400000  0.400000      2.000000
 -0.400000  0.400000 -0.400000      2.000000
 -0.200000  0.400000  0.400000      2.000000
 -0.400000  0.200000 -0.400000      2.000000
 -0.400000 -0.400000  0.400000      2.000000
 -0.200000 -0.400000  0.400000      2.000000
  0.400000  0.200000 -0.400000      2.000000
 -0.200000 -0.200000  0.400000      2.000000
 
 Following cartesian coordinates:
            Coordinates               Weight
  0.000000  0.000000  0.000000      1.000000
 -0.000629  0.030128 -0.001060      2.000000
  0.014789  0.010514 -0.024083      2.000000
 -0.001258  0.060256 -0.002121      2.000000
  0.029578  0.021028 -0.048166      2.000000
 -0.015418  0.019614  0.023023      2.000000
 -0.016048  0.049742  0.021962      2.000000
  0.030208 -0.009100 -0.047106      2.000000
 -0.013531 -0.070770  0.026204      2.000000
 -0.028949 -0.051156  0.049226      2.000000
 -0.014160 -0.040642  0.025143      2.000000
 -0.030837  0.039228  0.046045      2.000000
 -0.028320 -0.081284  0.050287      2.000000
  0.028246 -0.010501 -0.001067      2.000000
  0.027617  0.019627 -0.002127      2.000000
 -0.013457  0.021016 -0.023016      2.000000
  0.026988  0.049755 -0.003188      2.000000
  0.001332  0.031530 -0.047099      2.000000
  0.029504 -0.070758  0.001054      2.000000
 -0.057824 -0.010527  0.049233      2.000000
  0.028875 -0.040630 -0.000006      2.000000
 -0.043035 -0.000013  0.025150      2.000000
  0.012828  0.009113  0.021956      2.000000
  0.012198  0.039241  0.020895      2.000000
  0.001962  0.001401 -0.046039      2.000000
  0.014715 -0.081272  0.025137      2.000000
 -0.057195 -0.040655  0.050293      2.000000
  0.014086 -0.051144  0.024077      2.000000
 -0.042406 -0.030141  0.026210      2.000000
 -0.002591  0.028727  0.044978      2.000000
 -0.000074 -0.091786  0.049220      2.000000
 -0.056566 -0.070783  0.051354      2.000000
 -0.000703 -0.061658  0.048160      2.000000
 -0.041777 -0.060269  0.027271      2.000000
  0.059083 -0.049730 -0.047112      2.000000
  0.058453 -0.019602 -0.048172      2.000000
 -0.044294  0.060244  0.023029      2.000000
  0.043664 -0.030116 -0.024089      2.000000
  0.056492 -0.021003 -0.002134      2.000000
  0.055863  0.009125 -0.003194      2.000000
 -0.041703  0.031517 -0.021949      2.000000
  0.055234  0.039253 -0.004254      2.000000
 -0.026914  0.042031 -0.046032      2.000000
  0.057750 -0.081259 -0.000013      2.000000
 -0.086070 -0.000025  0.050299      2.000000
  0.057121 -0.051131 -0.001073      2.000000
 -0.071281  0.010489  0.026217      2.000000
  0.041074 -0.001389  0.020889      2.000000
  0.040444  0.028739  0.019829      2.000000
 -0.026284  0.011903 -0.044972      2.000000
  0.042961 -0.091773  0.024070      2.000000
 -0.085441 -0.030153  0.051360      2.000000
  0.042332 -0.061645  0.023010      2.000000
 -0.070652 -0.019639  0.027277      2.000000
  0.025655  0.018225  0.043912      2.000000
  0.028172 -0.102287  0.048153      2.000000
 -0.084812 -0.060281  0.052420      2.000000
  0.027543 -0.072159  0.047093      2.000000
 -0.070023 -0.049767  0.028337      2.000000
  0.087329 -0.060231 -0.048179      2.000000
  0.086699 -0.030103 -0.049239      2.000000
 -0.072539  0.070745  0.024096      2.000000
  0.071910 -0.040617 -0.025156      2.000000
 


--------------------------------------------------------------------------------------------------------




 Dimension of arrays:
   k-points           NKPTS =     63   k-points in BZ     NKDIM =     63   number of bands    NBANDS=    160
   number of dos      NEDOS =    301   number of ions     NIONS =     35
   non local maximal  LDIM  =      6   non local SUM 2l+1 LMDIM =     18
   total plane-waves  NPLWV = 343000
   max r-space proj   IRMAX =  13769   max aug-charges    IRDMAX=  39826
   dimension x,y,z NGX =    70 NGY =   70 NGZ =   70
   dimension x,y,z NGXF=   140 NGYF=  140 NGZF=  140
   support grid    NGXF=   140 NGYF=  140 NGZF=  140
   ions per type =               1   4   6  24
   NGX,Y,Z   is equivalent  to a cutoff of  13.32, 13.32, 13.32 a.u.
   NGXF,Y,Z  is equivalent  to a cutoff of  26.65, 26.65, 26.65 a.u.

 SYSTEM =  unknown system                          
 POSCAR =  Ca1 Fe4 P6 O24                          

 Startparameter for this run:
   NWRITE =      2    write-flag & timer
   PREC   = accura    normal or accurate (medium, high low for compatibility)
   ISTART =      0    job   : 0-new  1-cont  2-samecut
   ICHARG =      1    charge: 1-file 2-atom 10-const
   ISPIN  =      2    spin polarized calculation?
   LNONCOLLINEAR =      F non collinear calculations
   LSORBIT =      F    spin-orbit coupling
   INIWAV =      1    electr: 0-lowe 1-rand  2-diag
   LASPH  =      T    aspherical Exc in radial PAW
   METAGGA=      F    non-selfconsistent MetaGGA calc.

 Electronic Relaxation 1
   ENCUT  =  520.0 eV  38.22 Ry    6.18 a.u.  16.24 16.24 16.24*2*pi/ulx,y,z
   ENINI  =  520.0     initial cutoff
   ENAUG  =  605.4 eV  augmentation charge cutoff
   NELM   =    150;   NELMIN=  6; NELMDL= -5     # of ELM steps 
   EDIFF  = 0.1E-04   stopping-criterion for ELM
   LREAL  =      T    real-space projection
   NLSPLINE    = F    spline interpolate recip. space projectors
   LCOMPAT=      F    compatible to vasp.4.4
   GGA_COMPAT  = T    GGA compatible to vasp.4.4-vasp.4.6
   LMAXPAW     = -100 max onsite density
   LMAXMIX     =    2 max onsite mixed and CHGCAR
   VOSKOWN=      0    Vosko Wilk Nusair interpolation
   ROPT   =   -0.00025  -0.00025  -0.00025  -0.00025
 Ionic relaxation
   EDIFFG = -.3E-01   stopping-criterion for IOM
   NSW    =    199    number of steps for IOM
   NBLOCK =      1;   KBLOCK =    199    inner block; outer block 
   IBRION =      2    ionic relax: 0-MD 1-quasi-New 2-CG
   NFREE  =      1    steps in history (QN), initial steepest desc. (CG)
   ISIF   =      3    stress and relaxation
   IWAVPR =     11    prediction:  0-non 1-charg 2-wave 3-comb
   ISYM   =      0    0-nonsym 1-usesym 2-fastsym
   LCORR  =      T    Harris-Foulkes like correction to forces

   POTIM  = 0.5000    time-step for ionic-motion
   TEIN   =    0.0    initial temperature
   TEBEG  =    0.0;   TEEND  =   0.0 temperature during run
   SMASS  =  -3.00    Nose mass-parameter (am)
   estimated Nose-frequenzy (Omega)   =  0.10E-29 period in steps = 0.13E+47 mass=  -0.174E-26a.u.
   SCALEE = 1.0000    scale energy and forces
   NPACO  =    256;   APACO  = 16.0  distance and # of slots for P.C.
   PSTRESS=    0.0 pullay stress

  Mass of Ions in am
   POMASS =  40.08 55.85 30.97 16.00
  Ionic Valenz
   ZVAL   =  10.00 14.00  5.00  6.00
  Atomic Wigner-Seitz radii
   RWIGS  =  -1.00 -1.00 -1.00 -1.00
  virtual crystal weights 
   VCA    =   1.00  1.00  1.00  1.00
   NELECT =     240.0000    total number of electrons
   NUPDOWN=      -1.0000    fix difference up-down

 DOS related values:
   EMIN   =  10.00;   EMAX   =-10.00  energy-range for DOS
   EFERMI =   0.00
   ISMEAR =     0;   SIGMA  =   0.05  broadening in eV -4-tet -1-fermi 0-gaus

 Electronic relaxation 2 (details)
   IALGO  =     58    algorithm
   LDIAG  =      T    sub-space diagonalisation (order eigenvalues)
   LSUBROT=      F    optimize rotation matrix (better conditioning)
   TURBO    =      0    0=normal 1=particle mesh
   IRESTART =      0    0=no restart 2=restart with 2 vectors
   NREBOOT  =      0    no. of reboots
   NMIN     =      0    reboot dimension
   EREF     =   0.00    reference energy to select bands
   IMIX   =      4    mixing-type and parameters
     AMIX     =   0.40;   BMIX     =  1.00
     AMIX_MAG =   1.60;   BMIX_MAG =  1.00
     AMIN     =   0.10
     WC   =   100.;   INIMIX=   1;  MIXPRE=   1;  MAXMIX= -45

 Intra band minimization:
   WEIMIN = 0.0010     energy-eigenvalue tresh-hold
   EBREAK =  0.16E-07  absolut break condition
   DEPER  =   0.30     relativ break condition  

   TIME   =   0.40     timestep for ELM

  volume/ion in A,a.u.               =      11.80        79.62
  Fermi-wavevector in a.u.,A,eV,Ry     =   1.366211  2.581764 25.395717  1.866533
  Thomas-Fermi vector in A             =   2.492372
 
 Write flags
   LWAVE        =      F    write WAVECAR
   LDOWNSAMPLE  =      F    k-point downsampling of WAVECAR
   LCHARG       =      T    write CHGCAR
   LVTOT        =      F    write LOCPOT, total local potential
   LVHAR        =      F    write LOCPOT, Hartree potential only
   LELF         =      F    write electronic localiz. function (ELF)
   LORBIT       =     11    0 simple, 1 ext, 2 COOP (PROOUT), +10 PAW based schemes


 Dipole corrections
   LMONO  =      F    monopole corrections only (constant potential shift)
   LDIPOL =      F    correct potential (dipole corrections)
   IDIPOL =      0    1-x, 2-y, 3-z, 4-all directions 
   EPSILON=  1.0000000 bulk dielectric constant

 Exchange correlation treatment:
   GGA     =    --    GGA type
   LEXCH   =     8    internal setting for exchange type
   VOSKOWN=      0    Vosko Wilk Nusair interpolation
   LHFCALC =     F    Hartree Fock is set to
   LHFONE  =     F    Hartree Fock one center treatment
   AEXX    =    0.0000 exact exchange contribution

 Linear response parameters
   LEPSILON=     F    determine dielectric tensor
   LRPA    =     F    only Hartree local field effects (RPA)
   LNABLA  =     F    use nabla operator in PAW spheres
   LVEL    =     F    velocity operator in full k-point grid
   LINTERFAST=   F  fast interpolation
   KINTER  =     0    interpolate to denser k-point grid
   CSHIFT  =0.1000    complex shift for real part using Kramers Kronig
   OMEGAMAX=  -1.0    maximum frequency
   DEG_THRESHOLD= 0.2000000E-02 threshold for treating states as degnerate
   RTIME   =   -0.100 relaxation time in fs
  (WPLASMAI=    0.000 imaginary part of plasma frequency in eV, 0.658/RTIME)
   DFIELD  = 0.0000000 0.0000000 0.0000000 field for delta impulse in time
 
 Orbital magnetization related:
   ORBITALMAG=     F  switch on orbital magnetization
   LCHIMAG   =     F  perturbation theory with respect to B field
   DQ        =  0.001000  dq finite difference perturbation B field
   LLRAUG    =     F  two centre corrections for induced B field



--------------------------------------------------------------------------------------------------------


 conjugate gradient relaxation of ions
 charge density and potential will be updated during run
 spin polarized calculation
 Conjugate gradient for all bands (Freysoldt, et al. PRB 79, 241103 (2009))
 preconditioned conjugated gradient                                        
 perform sub-space diagonalisation
    before iterative eigenvector-optimisation
 modified Broyden-mixing scheme, WC =      100.0
 initial mixing is a Kerker type mixing with AMIX =  0.4000 and BMIX =      1.0000
 Hartree-type preconditioning will be used
 using additional bands           40
 real space projection scheme for non local part
 use partial core corrections
 no Harris-corrections to forces 
 use gradient corrections 
 use of overlap-Matrix (Vanderbilt PP)
 Gauss-broadening in eV      SIGMA  =   0.05


--------------------------------------------------------------------------------------------------------


  energy-cutoff  :      520.00
  volume of cell :      412.94
      direct lattice vectors                 reciprocal lattice vectors
     2.726641328  6.859587773  4.669137477    -0.003145950  0.150640812 -0.005302049
     0.446750108  0.316138352  8.716985341    -0.073945780 -0.052570216  0.120414880
     7.375305754  0.318325223  4.668087214     0.141229828 -0.052507344 -0.005333823

  length of vectors
     8.734378176  8.734149217  8.734271816     0.150766916  0.150769192  0.150769145


 
 k-points in units of 2pi/SCALE and weight: Fully automatic kpoint scheme           
   0.00000000  0.00000000  0.00000000       0.008
  -0.00062919  0.03012816 -0.00106041       0.016
   0.01478916  0.01051404 -0.02408298       0.016
  -0.00125838  0.06025632 -0.00212082       0.016
   0.02957831  0.02102809 -0.04816595       0.016
  -0.01541835  0.01961412  0.02302257       0.016
  -0.01604754  0.04974228  0.02196216       0.016
   0.03020750 -0.00910008 -0.04710554       0.016
  -0.01353078 -0.07077037  0.02620380       0.016
  -0.02894912 -0.05115625  0.04922636       0.016
  -0.01415997 -0.04064221  0.02514339       0.016
  -0.03083669  0.03922824  0.04604513       0.016
  -0.02831993 -0.08128441  0.05028677       0.016
   0.02824597 -0.01050147 -0.00106676       0.016
   0.02761678  0.01962669 -0.00212717       0.016
  -0.01345681  0.02101551 -0.02301621       0.016
   0.02698759  0.04975486 -0.00318758       0.016
   0.00133235  0.03152956 -0.04709919       0.016
   0.02950435 -0.07075779  0.00105406       0.016
  -0.05782428 -0.01052662  0.04923272       0.016
   0.02887516 -0.04062963 -0.00000635       0.016
  -0.04303512 -0.00001257  0.02514974       0.016
   0.01282762  0.00911265  0.02195580       0.016
   0.01219843  0.03924081  0.02089539       0.016
   0.00196154  0.00140139 -0.04603878       0.016
   0.01471519 -0.08127184  0.02513703       0.016
  -0.05719509 -0.04065478  0.05029313       0.016
   0.01408600 -0.05114367  0.02407662       0.016
  -0.04240593 -0.03014074  0.02621015       0.016
  -0.00259073  0.02872677  0.04497837       0.016
  -0.00007397 -0.09178588  0.04922001       0.016
  -0.05656590 -0.07078294  0.05135354       0.016
  -0.00070316 -0.06165772  0.04815960       0.016
  -0.04177674 -0.06026890  0.02727056       0.016
   0.05908266 -0.04972971 -0.04711190       0.016
   0.05845347 -0.01960154 -0.04817231       0.016
  -0.04429350  0.06024375  0.02302892       0.016
   0.04366431 -0.03011559 -0.02408933       0.016
   0.05649193 -0.02100294 -0.00213353       0.016
   0.05586274  0.00912522 -0.00319394       0.016
  -0.04170278  0.03151698 -0.02194945       0.016
   0.05523355  0.03925339 -0.00425435       0.016
  -0.02691362  0.04203102 -0.04603242       0.016
   0.05775031 -0.08125926 -0.00001271       0.016
  -0.08607024 -0.00002515  0.05029948       0.016
   0.05712112 -0.05113110 -0.00107312       0.016
  -0.07128109  0.01048889  0.02621651       0.016
   0.04107359 -0.00138882  0.02088904       0.016
   0.04044440  0.02873934  0.01982863       0.016
  -0.02628443  0.01190286 -0.04497201       0.016
   0.04296116 -0.09177331  0.02407027       0.016
  -0.08544105 -0.03015331  0.05135989       0.016
   0.04233197 -0.06164514  0.02300986       0.016
  -0.07065190 -0.01963927  0.02727692       0.016
   0.02565524  0.01822530  0.04391160       0.016
   0.02817200 -0.10228735  0.04815324       0.016
  -0.08481186 -0.06028147  0.05242030       0.016
   0.02754281 -0.07215919  0.04709283       0.016
  -0.07002271 -0.04976743  0.02833732       0.016
   0.08732862 -0.06023118 -0.04817866       0.016
   0.08669943 -0.03010301 -0.04923907       0.016
  -0.07253947  0.07074522  0.02409569       0.016
   0.07191028 -0.04061706 -0.02515610       0.016
 
 k-points in reciprocal lattice and weights: Fully automatic kpoint scheme           
   0.00000000  0.00000000  0.00000000       0.008
   0.20000000 -0.00000000 -0.00000000       0.016
   0.00000000 -0.20000000  0.00000000       0.016
   0.40000000 -0.00000000 -0.00000000       0.016
  -0.00000000 -0.40000000  0.00000000       0.016
   0.20000000  0.20000000 -0.00000000       0.016
   0.40000000  0.20000000 -0.00000000       0.016
  -0.20000000 -0.40000000  0.00000000       0.016
  -0.40000000  0.20000000 -0.00000000       0.016
  -0.20000000  0.40000000  0.00000000       0.016
  -0.20000000  0.20000000 -0.00000000       0.016
   0.40000000  0.40000000 -0.00000000       0.016
  -0.40000000  0.40000000 -0.00000000       0.016
  -0.00000000  0.00000000  0.20000000       0.016
   0.20000000  0.00000000  0.20000000       0.016
  -0.00000000 -0.20000000 -0.20000000       0.016
   0.40000000 -0.00000000  0.20000000       0.016
   0.00000000 -0.40000000 -0.20000000       0.016
  -0.40000000  0.00000000  0.20000000       0.016
   0.00000000  0.40000000 -0.20000000       0.016
  -0.20000000  0.00000000  0.20000000       0.016
   0.00000000  0.20000000 -0.20000000       0.016
   0.20000000  0.20000000  0.20000000       0.016
   0.40000000  0.20000000  0.20000000       0.016
  -0.20000000 -0.40000000 -0.20000000       0.016
  -0.40000000  0.20000000  0.20000000       0.016
  -0.20000000  0.40000000 -0.20000000       0.016
  -0.20000000  0.20000000  0.20000000       0.016
  -0.20000000  0.20000000 -0.20000000       0.016
   0.40000000  0.40000000  0.20000000       0.016
  -0.40000000  0.40000000  0.20000000       0.016
  -0.40000000  0.40000000 -0.20000000       0.016
  -0.20000000  0.40000000  0.20000000       0.016
  -0.40000000  0.20000000 -0.20000000       0.016
  -0.40000000 -0.40000000  0.20000000       0.016
  -0.20000000 -0.40000000  0.20000000       0.016
   0.40000000  0.20000000 -0.20000000       0.016
  -0.20000000 -0.20000000  0.20000000       0.016
   0.00000000  0.00000000  0.40000000       0.016
   0.20000000 -0.00000000  0.40000000       0.016
   0.00000000 -0.20000000 -0.40000000       0.016
   0.40000000  0.00000000  0.40000000       0.016
   0.00000000 -0.40000000 -0.40000000       0.016
  -0.40000000  0.00000000  0.40000000       0.016
  -0.00000000  0.40000000 -0.40000000       0.016
  -0.20000000  0.00000000  0.40000000       0.016
   0.00000000  0.20000000 -0.40000000       0.016
   0.20000000  0.20000000  0.40000000       0.016
   0.40000000  0.20000000  0.40000000       0.016
  -0.20000000 -0.40000000 -0.40000000       0.016
  -0.40000000  0.20000000  0.40000000       0.016
  -0.20000000  0.40000000 -0.40000000       0.016
  -0.20000000  0.20000000  0.40000000       0.016
  -0.20000000  0.20000000 -0.40000000       0.016
   0.40000000  0.40000000  0.40000000       0.016
  -0.40000000  0.40000000  0.40000000       0.016
  -0.40000000  0.40000000 -0.40000000       0.016
  -0.20000000  0.40000000  0.40000000       0.016
  -0.40000000  0.20000000 -0.40000000       0.016
  -0.40000000 -0.40000000  0.40000000       0.016
  -0.20000000 -0.40000000  0.40000000       0.016
   0.40000000  0.20000000 -0.40000000       0.016
  -0.20000000 -0.20000000  0.40000000       0.016
 
 position of ions in fractional coordinates (direct lattice) 
   0.49764391  0.49765427  0.49766048
   0.64374413  0.64374077  0.64374293
   0.14952013  0.14953513  0.14952115
   0.84512934  0.84513278  0.84512490
   0.35111154  0.35111425  0.35111173
   0.23623764  0.53772596  0.96137572
   0.03387597  0.75838356  0.45730502
   0.96137744  0.23623465  0.53772877
   0.45730849  0.03387147  0.75838541
   0.53773365  0.96137081  0.23623825
   0.75838090  0.45730908  0.03387733
   0.61644982  0.74840812  0.37702766
   0.32045133  0.00680784  0.98071159
   0.37701096  0.61645465  0.74840704
   0.98070286  0.32046151  0.00679424
   0.74841502  0.37701812  0.61645159
   0.00681498  0.98071277  0.32046719
   0.98794231  0.01414531  0.67478470
   0.61800655  0.37850267  0.24699411
   0.67479317  0.98795445  0.01414319
   0.24698858  0.61800524  0.37850072
   0.01416188  0.67478151  0.98794767
   0.37850681  0.24698426  0.61800706
   0.28418932  0.32563569  0.97984037
   0.87652115  0.71967177  0.47546663
   0.97985919  0.28420738  0.32562125
   0.47546677  0.87652441  0.71965652
   0.32563667  0.97983665  0.28421679
   0.71964969  0.47548527  0.87652450
   0.27494756  0.51983895  0.11863459
   0.01533057  0.71054078  0.66944344
   0.11862457  0.27494022  0.51986353
   0.66944533  0.01533974  0.71054144
   0.51986844  0.11861759  0.27495137
   0.71055334  0.66945237  0.01533112
 
 position of ions in cartesian coordinates  (Angst):
   5.24962173  3.72937758  8.98473535
   6.79065150  4.82425009 11.62225680
   1.57725678  1.12051659  2.69960336
   8.91498231  6.33344235 15.25815186
   3.70377195  2.63124885  6.33906605
   7.97480429  2.09651876 10.27816099
   3.80393993  0.61770104  8.90372963
   6.69278340  6.84050839  9.05822220
   6.85537256  3.38906899  5.97070254
   3.63802859  4.06775791 11.99378834
   2.52199126  5.35753732  7.68548359
   4.79588325  4.58520955 11.16214954
   8.10984504  2.51250147  6.13362236
   6.82310558  3.01926154 10.62757150
   2.86730075  6.83069028  7.40421082
   6.75561117  5.44924051  9.65856384
   2.82025908  0.45880169 10.07664776
   7.67682726  6.99614986  7.88609681
   3.67583541  4.43755382  7.33794979
   2.38559804  4.94563543 11.82870817
   3.74110172  2.01010132  8.30724061
   7.62648918  0.62495761 10.56001017
   5.70038355  2.87120910  6.80516934
   8.14698243  2.36427543  8.73946087
   6.21818402  6.39144266 12.58548577
   5.20025053  6.91493243  8.57255724
   6.99570163  3.76769386 13.22008961
   3.42182229  2.63397067 11.38841287
   8.63928588  5.36583924 11.59663432
   1.85688788  2.08813230  6.36899304
   5.29658522  0.54289131  9.39037445
   4.28042872  1.06612046  5.37729255
   7.07265069  4.82315175  6.57631793
   3.49833758  3.69110670  4.74482194
   2.34957375  5.09062284  9.22484472
 


--------------------------------------------------------------------------------------------------------


 k-point   1 :   0.0000 0.0000 0.0000  plane waves:   11049
 k-point   2 :   0.2000-0.0000-0.0000  plane waves:   11114
 k-point   3 :   0.0000-0.2000 0.0000  plane waves:   11114
 k-point   4 :   0.4000-0.0000-0.0000  plane waves:   11147
 k-point   5 :  -0.0000-0.4000 0.0000  plane waves:   11147
 k-point   6 :   0.2000 0.2000-0.0000  plane waves:   11097
 k-point   7 :   0.4000 0.2000-0.0000  plane waves:   11129
 k-point   8 :  -0.2000-0.4000 0.0000  plane waves:   11129
 k-point   9 :  -0.4000 0.2000-0.0000  plane waves:   11133
 k-point  10 :  -0.2000 0.4000 0.0000  plane waves:   11133
 k-point  11 :  -0.2000 0.2000-0.0000  plane waves:   11127
 k-point  12 :   0.4000 0.4000-0.0000  plane waves:   11118
 k-point  13 :  -0.4000 0.4000-0.0000  plane waves:   11125
 k-point  14 :  -0.0000 0.0000 0.2000  plane waves:   11114
 k-point  15 :   0.2000 0.0000 0.2000  plane waves:   11098
 k-point  16 :  -0.0000-0.2000-0.2000  plane waves:   11097
 k-point  17 :   0.4000-0.0000 0.2000  plane waves:   11128
 k-point  18 :   0.0000-0.4000-0.2000  plane waves:   11128
 k-point  19 :  -0.4000 0.0000 0.2000  plane waves:   11133
 k-point  20 :   0.0000 0.4000-0.2000  plane waves:   11134
 k-point  21 :  -0.2000 0.0000 0.2000  plane waves:   11127
 k-point  22 :   0.0000 0.2000-0.2000  plane waves:   11127
 k-point  23 :   0.2000 0.2000 0.2000  plane waves:   11088
 k-point  24 :   0.4000 0.2000 0.2000  plane waves:   11115
 k-point  25 :  -0.2000-0.4000-0.2000  plane waves:   11115
 k-point  26 :  -0.4000 0.2000 0.2000  plane waves:   11127
 k-point  27 :  -0.2000 0.4000-0.2000  plane waves:   11127
 k-point  28 :  -0.2000 0.2000 0.2000  plane waves:   11122
 k-point  29 :  -0.2000 0.2000-0.2000  plane waves:   11122
 k-point  30 :   0.4000 0.4000 0.2000  plane waves:   11111
 k-point  31 :  -0.4000 0.4000 0.2000  plane waves:   11124
 k-point  32 :  -0.4000 0.4000-0.2000  plane waves:   11124
 k-point  33 :  -0.2000 0.4000 0.2000  plane waves:   11118
 k-point  34 :  -0.4000 0.2000-0.2000  plane waves:   11118
 k-point  35 :  -0.4000-0.4000 0.2000  plane waves:   11122
 k-point  36 :  -0.2000-0.4000 0.2000  plane waves:   11118
 k-point  37 :   0.4000 0.2000-0.2000  plane waves:   11118
 k-point  38 :  -0.2000-0.2000 0.2000  plane waves:   11122
 k-point  39 :   0.0000 0.0000 0.4000  plane waves:   11147
 k-point  40 :   0.2000-0.0000 0.4000  plane waves:   11129
 k-point  41 :   0.0000-0.2000-0.4000  plane waves:   11129
 k-point  42 :   0.4000 0.0000 0.4000  plane waves:   11118
 k-point  43 :   0.0000-0.4000-0.4000  plane waves:   11118
 k-point  44 :  -0.4000 0.0000 0.4000  plane waves:   11125
 k-point  45 :  -0.0000 0.4000-0.4000  plane waves:   11125
 k-point  46 :  -0.2000 0.0000 0.4000  plane waves:   11134
 k-point  47 :   0.0000 0.2000-0.4000  plane waves:   11133
 k-point  48 :   0.2000 0.2000 0.4000  plane waves:   11115
 k-point  49 :   0.4000 0.2000 0.4000  plane waves:   11111
 k-point  50 :  -0.2000-0.4000-0.4000  plane waves:   11111
 k-point  51 :  -0.4000 0.2000 0.4000  plane waves:   11124
 k-point  52 :  -0.2000 0.4000-0.4000  plane waves:   11124
 k-point  53 :  -0.2000 0.2000 0.4000  plane waves:   11118
 k-point  54 :  -0.2000 0.2000-0.4000  plane waves:   11118
 k-point  55 :   0.4000 0.4000 0.4000  plane waves:   11113
 k-point  56 :  -0.4000 0.4000 0.4000  plane waves:   11093
 k-point  57 :  -0.4000 0.4000-0.4000  plane waves:   11094
 k-point  58 :  -0.2000 0.4000 0.4000  plane waves:   11122
 k-point  59 :  -0.4000 0.2000-0.4000  plane waves:   11122
 k-point  60 :  -0.4000-0.4000 0.4000  plane waves:   11093
 k-point  61 :  -0.2000-0.4000 0.4000  plane waves:   11124
 k-point  62 :   0.4000 0.2000-0.4000  plane waves:   11124
 k-point  63 :  -0.2000-0.2000 0.4000  plane waves:   11127

 maximum and minimum number of plane-waves per node :       503      436

 maximum number of plane-waves:     11147
 maximum index in each direction: 
   IXMAX=   16   IYMAX=   16   IZMAX=   16
   IXMIN=  -16   IYMIN=  -16   IZMIN=  -16


 real space projection operators:
  total allocation   :      17374.00 KBytes
  max/ min on nodes  :        831.45        583.70


 parallel 3D FFT for wavefunctions:
    minimum data exchange during FFTs selected (reduces bandwidth)
 parallel 3D FFT for charge:
    minimum data exchange during FFTs selected (reduces bandwidth)


 total amount of memory used by VASP MPI-rank0    94093. kBytes
=======================================================================

   base      :      30000. kBytes
   nonlr-proj:       9226. kBytes
   fftplans  :       1111. kBytes
   grid      :       4344. kBytes
   one-center:         62. kBytes
   wavefun   :      49350. kBytes
 
     INWAV:  cpu time    0.0001: real time    0.0003
 Broyden mixing: mesh for mixing (old mesh)
   NGX = 33   NGY = 33   NGZ = 33
  (NGX  =140   NGY  =140   NGZ  =140)
  gives a total of  35937 points

 initial charge density was supplied:
 number of electron     239.9999995 magnetization      16.0000003
 keeping initial charge density in first step


--------------------------------------------------------------------------------------------------------


 Maximum index for non-local projection operator          570
 Maximum index for augmentation-charges          861 (set IRDMAX)


--------------------------------------------------------------------------------------------------------


 First call to EWALD:  gamma=   0.238
 Maximum number of real-space cells 3x 3x 3
 Maximum number of reciprocal cells 3x 3x 3

    FEWALD:  cpu time    0.0026: real time    0.0026


--------------------------------------- Iteration      1(   1)  ---------------------------------------


    POTLOK:  cpu time    0.1585: real time    0.1610
    SETDIJ:  cpu time    0.8504: real time    0.8528
    TRIAL :  cpu time   18.3417: real time   18.3939
    CORREC:  cpu time    0.0047: real time    0.0047
    --------------------------------------------
      LOOP:  cpu time   19.4056: real time   19.4634

 eigenvalue-minimisations  : 42650
 total energy-change (2. order) : 0.2348235E+04  (-0.1367679E+05)
 number of electron     239.9999995 magnetization      16.0000003
 augmentation part      239.9999995 magnetization      16.0000003

 Free energy of the ion-electron system (eV)
  ---------------------------------------------------
  alpha Z        PSCENC =       674.89853183
  Ewald energy   TEWEN  =    -12727.38108806
  -Hartree energ DENC   =     -8614.20068724
  -exchange      EXHF   =         0.00000000
  -V(xc)+E(xc)   XCENC  =      1240.27327733
  PAW double counting   =     40057.99131385   -40547.77007833
  entropy T*S    EENTRO =        -0.00559335
  eigenvalues    EBANDS =        -4.17386708
  atomic energy  EATOM  =     22268.60300644
  ---------------------------------------------------
  free energy    TOTEN  =      2348.23481540 eV

  energy without entropy =     2348.24040875  energy(sigma->0) =     2348.23761207


--------------------------------------------------------------------------------------------------------




--------------------------------------- Iteration      1(   2)  ---------------------------------------


    TRIAL :  cpu time   18.3737: real time   18.4246
    CORREC:  cpu time    0.0050: real time    0.0050
    --------------------------------------------
      LOOP:  cpu time   18.3860: real time   18.4374

 eigenvalue-minimisations  : 43570
 total energy-change (2. order) :-0.2496770E+04  (-0.2329880E+04)
 number of electron     239.9999995 magnetization      16.0000003
 augmentation part      239.9999995 magnetization      16.0000003

 Free energy of the ion-electron system (eV)
  ---------------------------------------------------
  alpha Z        PSCENC =       674.89853183
  Ewald energy   TEWEN  =    -12727.38108806
  -Hartree energ DENC   =     -8614.20068724
  -exchange      EXHF   =         0.00000000
  -V(xc)+E(xc)   XCENC  =      1240.27327733
  PAW double counting   =     40057.99131385   -40547.77007833
  entropy T*S    EENTRO =        -0.01160448
  eigenvalues    EBANDS =     -2500.93767511
  atomic energy  EATOM  =     22268.60300644
  ---------------------------------------------------
  free energy    TOTEN  =      -148.53500376 eV

  energy without entropy =     -148.52339929  energy(sigma->0) =     -148.52920153


--------------------------------------------------------------------------------------------------------




--------------------------------------- Iteration      1(   3)  ---------------------------------------


    TRIAL :  cpu time   18.5928: real time   18.6452
    CORREC:  cpu time    0.0032: real time    0.0032
    --------------------------------------------
      LOOP:  cpu time   18.5968: real time   18.6560

 eigenvalue-minimisations  : 44150
 total energy-change (2. order) :-0.2843213E+03  (-0.2711688E+03)
 number of electron     239.9999995 magnetization      16.0000003
 augmentation part      239.9999995 magnetization      16.0000003

 Free energy of the ion-electron system (eV)
  ---------------------------------------------------
  alpha Z        PSCENC =       674.89853183
  Ewald energy   TEWEN  =    -12727.38108806
  -Hartree energ DENC   =     -8614.20068724
  -exchange      EXHF   =         0.00000000
  -V(xc)+E(xc)   XCENC  =      1240.27327733
  PAW double counting   =     40057.99131385   -40547.77007833
  entropy T*S    EENTRO =        -0.00000002
  eigenvalues    EBANDS =     -2785.27053915
  atomic energy  EATOM  =     22268.60300644
  ---------------------------------------------------
  free energy    TOTEN  =      -432.85626334 eV

  energy without entropy =     -432.85626332  energy(sigma->0) =     -432.85626333


--------------------------------------------------------------------------------------------------------




--------------------------------------- Iteration      1(   4)  ---------------------------------------


    TRIAL :  cpu time   20.3136: real time   20.3699
    CORREC:  cpu time    0.0026: real time    0.0026
    --------------------------------------------
      LOOP:  cpu time   20.3169: real time   20.3799

 eigenvalue-minimisations  : 50420
 total energy-change (2. order) :-0.1099675E+02  (-0.1088925E+02)
 number of electron     239.9999995 magnetization      16.0000003
 augmentation part      239.9999995 magnetization      16.0000003

 Free energy of the ion-electron system (eV)
  ---------------------------------------------------
  alpha Z        PSCENC =       674.89853183
  Ewald energy   TEWEN  =    -12727.38108806
  -Hartree energ DENC   =     -8614.20068724
  -exchange      EXHF   =         0.00000000
  -V(xc)+E(xc)   XCENC  =      1240.27327733
  PAW double counting   =     40057.99131385   -40547.77007833
  entropy T*S    EENTRO =        -0.00000000
  eigenvalues    EBANDS =     -2796.26728970
  atomic energy  EATOM  =     22268.60300644
  ---------------------------------------------------
  free energy    TOTEN  =      -443.85301387 eV

  energy without entropy =     -443.85301387  energy(sigma->0) =     -443.85301387


--------------------------------------------------------------------------------------------------------




--------------------------------------- Iteration      1(   5)  ---------------------------------------


    TRIAL :  cpu time   23.8868: real time   23.9604
    CORREC:  cpu time    0.0025: real time    0.0025
    CHARGE:  cpu time    1.7311: real time    1.7360
    --------------------------------------------
      LOOP:  cpu time   25.6210: real time   25.7066

 eigenvalue-minimisations  : 64430
 total energy-change (2. order) :-0.4525129E+00  (-0.4512052E+00)
 number of electron     239.9999995 magnetization      16.0000003
 augmentation part       47.9936451 magnetization      10.8988198

 Free energy of the ion-electron system (eV)
  ---------------------------------------------------
  alpha Z        PSCENC =       674.89853183
  Ewald energy   TEWEN  =    -12727.38108806
  -Hartree energ DENC   =     -8614.20068724
  -exchange      EXHF   =         0.00000000
  -V(xc)+E(xc)   XCENC  =      1240.27327733
  PAW double counting   =     40057.99131385   -40547.77007833
  entropy T*S    EENTRO =        -0.00000000
  eigenvalues    EBANDS =     -2796.71980260
  atomic energy  EATOM  =     22268.60300644
  ---------------------------------------------------
  free energy    TOTEN  =      -444.30552677 eV

  energy without entropy =     -444.30552677  energy(sigma->0) =     -444.30552677


--------------------------------------------------------------------------------------------------------




--------------------------------------- Iteration      1(   6)  ---------------------------------------


    POTLOK:  cpu time    0.0816: real time    0.0837
    SETDIJ:  cpu time    0.8504: real time    0.8534
    TRIAL :  cpu time   13.6475: real time   13.7067
    CORREC:  cpu time    7.6100: real time    7.6346
    CHARGE:  cpu time    1.7220: real time    1.7265
    --------------------------------------------
      LOOP:  cpu time   23.9124: real time   24.0126

 eigenvalue-minimisations  :     0
 total energy-change (2. order) : 0.7839270E+02  (-0.2282531E+01)
 number of electron     239.9999995 magnetization      16.0000003
 augmentation part       48.4826887 magnetization      11.0076477

 Free energy of the ion-electron system (eV)
  ---------------------------------------------------
  alpha Z        PSCENC =       674.89853183
  Ewald energy   TEWEN  =    -12727.38108806
  -Hartree energ DENC   =     -8497.52796610
  -exchange      EXHF   =         0.00000000
  -V(xc)+E(xc)   XCENC  =      1262.49026963
  PAW double counting   =     40025.53520688   -40507.60504140
  entropy T*S    EENTRO =        -0.00000000
  eigenvalues    EBANDS =     -2864.92574662
  atomic energy  EATOM  =     22268.60300644
  ---------------------------------------------------
  free energy    TOTEN  =      -365.91282740 eV

  energy without entropy =     -365.91282740  energy(sigma->0) =     -365.91282740


--------------------------------------------------------------------------------------------------------




--------------------------------------- Iteration      1(   7)  ---------------------------------------


    POTLOK:  cpu time    0.0823: real time    0.0842
    SETDIJ:  cpu time    0.8381: real time    0.8408
    TRIAL :  cpu time   13.6626: real time   13.7009
    CORREC:  cpu time    7.5489: real time    7.5717
    CHARGE:  cpu time    1.7178: real time    1.7227
    --------------------------------------------
      LOOP:  cpu time   23.8507: real time   23.9277

 eigenvalue-minimisations  :     0
 total energy-change (2. order) :-0.2238860E+01  (-0.5436256E+00)
 number of electron     239.9999995 magnetization      16.0000003
 augmentation part       48.9324271 magnetization      11.0501748

 Free energy of the ion-electron system (eV)
  ---------------------------------------------------
  alpha Z        PSCENC =       674.89853183
  Ewald energy   TEWEN  =    -12727.38108806
  -Hartree energ DENC   =     -8552.85588507
  -exchange      EXHF   =         0.00000000
  -V(xc)+E(xc)   XCENC  =      1270.12364188
  PAW double counting   =     39888.90258069   -40372.65622570
  entropy T*S    EENTRO =        -0.00000000
  eigenvalues    EBANDS =     -2817.78624933
  atomic energy  EATOM  =     22268.60300644
  ---------------------------------------------------
  free energy    TOTEN  =      -368.15168732 eV

  energy without entropy =     -368.15168732  energy(sigma->0) =     -368.15168732


--------------------------------------------------------------------------------------------------------




--------------------------------------- Iteration      1(   8)  ---------------------------------------


    POTLOK:  cpu time    0.0798: real time    0.0815
    SETDIJ:  cpu time    0.8373: real time    0.8397
    TRIAL :  cpu time   13.6609: real time   13.7000
    CORREC:  cpu time    7.5559: real time    7.5782
    CHARGE:  cpu time    1.7176: real time    1.7223
    --------------------------------------------
      LOOP:  cpu time   23.8524: real time   23.9292

 eigenvalue-minimisations  :     0
 total energy-change (2. order) :-0.5451219E+00  (-0.2037552E+00)
 number of electron     239.9999995 magnetization      16.0000003
 augmentation part       49.0008705 magnetization      11.0847872

 Free energy of the ion-electron system (eV)
  ---------------------------------------------------
  alpha Z        PSCENC =       674.89853183
  Ewald energy   TEWEN  =    -12727.38108806
  -Hartree energ DENC   =     -8622.83253683
  -exchange      EXHF   =         0.00000000
  -V(xc)+E(xc)   XCENC  =      1274.04083388
  PAW double counting   =     40027.96662136   -40518.32930504
  entropy T*S    EENTRO =        -0.00000000
  eigenvalues    EBANDS =     -2745.66287276
  atomic energy  EATOM  =     22268.60300644
  ---------------------------------------------------
  free energy    TOTEN  =      -368.69680918 eV

  energy without entropy =     -368.69680918  energy(sigma->0) =     -368.69680918


--------------------------------------------------------------------------------------------------------




--------------------------------------- Iteration      1(   9)  ---------------------------------------


    POTLOK:  cpu time    0.0771: real time    0.0773
    SETDIJ:  cpu time    0.8376: real time    0.8399
    TRIAL :  cpu time   13.5792: real time   13.6171
    CORREC:  cpu time    7.5399: real time    7.5607
    CHARGE:  cpu time    1.7172: real time    1.7220
    --------------------------------------------
      LOOP:  cpu time   23.7521: real time   23.8244

 eigenvalue-minimisations  :     0
 total energy-change (2. order) :-0.2034560E+00  (-0.6558543E-01)
 number of electron     239.9999995 magnetization      16.0000003
 augmentation part       49.0469954 magnetization      11.0859396

 Free energy of the ion-electron system (eV)
  ---------------------------------------------------
  alpha Z        PSCENC =       674.89853183
  Ewald energy   TEWEN  =    -12727.38108806
  -Hartree energ DENC   =     -8611.64616310
  -exchange      EXHF   =         0.00000000
  -V(xc)+E(xc)   XCENC  =      1273.63521851
  PAW double counting   =     40197.21046796   -40686.68277801
  entropy T*S    EENTRO =        -0.00000000
  eigenvalues    EBANDS =     -2757.53746075
  atomic energy  EATOM  =     22268.60300644
  ---------------------------------------------------
  free energy    TOTEN  =      -368.90026518 eV

  energy without entropy =     -368.90026518  energy(sigma->0) =     -368.90026518


--------------------------------------------------------------------------------------------------------




--------------------------------------- Iteration      1(  10)  ---------------------------------------


    POTLOK:  cpu time    0.0768: real time    0.0770
    SETDIJ:  cpu time    0.8377: real time    0.8401
    TRIAL :  cpu time   13.6329: real time   13.6713
    CORREC:  cpu time    7.5757: real time    7.5981
    CHARGE:  cpu time    1.7234: real time    1.7282
    --------------------------------------------
      LOOP:  cpu time   23.8477: real time   23.9223

 eigenvalue-minimisations  :     0
 total energy-change (2. order) :-0.6517582E-01  (-0.3581593E-01)
 number of electron     239.9999994 magnetization      16.0000003
 augmentation part       49.0649733 magnetization      11.0673955

 Free energy of the ion-electron system (eV)
  ---------------------------------------------------
  alpha Z        PSCENC =       674.89853183
  Ewald energy   TEWEN  =    -12727.38108806
  -Hartree energ DENC   =     -8608.98980511
  -exchange      EXHF   =         0.00000000
  -V(xc)+E(xc)   XCENC  =      1273.33564607
  PAW double counting   =     40243.87947295   -40734.54769431
  entropy T*S    EENTRO =        -0.00000000
  eigenvalues    EBANDS =     -2758.76351081
  atomic energy  EATOM  =     22268.60300644
  ---------------------------------------------------
  free energy    TOTEN  =      -368.96544100 eV

  energy without entropy =     -368.96544100  energy(sigma->0) =     -368.96544100


--------------------------------------------------------------------------------------------------------




--------------------------------------- Iteration      1(  11)  ---------------------------------------


    POTLOK:  cpu time    0.0824: real time    0.0842
    SETDIJ:  cpu time    0.8396: real time    0.8419
    TRIAL :  cpu time   13.7052: real time   13.7435
    CORREC:  cpu time    7.5774: real time    7.6006
    CHARGE:  cpu time    1.7216: real time    1.7264
    --------------------------------------------
      LOOP:  cpu time   23.9328: real time   24.0041

 eigenvalue-minimisations  :     0
 total energy-change (2. order) :-0.3486329E-01  (-0.2380048E-01)
 number of electron     239.9999994 magnetization      16.0000003
 augmentation part       49.0517315 magnetization      11.0370714

 Free energy of the ion-electron system (eV)
  ---------------------------------------------------
  alpha Z        PSCENC =       674.89853183
  Ewald energy   TEWEN  =    -12727.38108806
  -Hartree energ DENC   =     -8611.49818393
  -exchange      EXHF   =         0.00000000
  -V(xc)+E(xc)   XCENC  =      1273.39019563
  PAW double counting   =     40211.45920440   -40702.48584630
  entropy T*S    EENTRO =        -0.00000000
  eigenvalues    EBANDS =     -2755.98612428
  atomic energy  EATOM  =     22268.60300644
  ---------------------------------------------------
  free energy    TOTEN  =      -369.00030429 eV

  energy without entropy =     -369.00030429  energy(sigma->0) =     -369.00030429


--------------------------------------------------------------------------------------------------------




--------------------------------------- Iteration      1(  12)  ---------------------------------------


    POTLOK:  cpu time    0.0780: real time    0.0782
    SETDIJ:  cpu time    0.8388: real time    0.8411
    TRIAL :  cpu time   13.5636: real time   13.6021
    CORREC:  cpu time    7.5802: real time    7.6014
    CHARGE:  cpu time    1.7173: real time    1.7221
    --------------------------------------------
      LOOP:  cpu time   23.7789: real time   23.8525

 eigenvalue-minimisations  :     0
 total energy-change (2. order) :-0.2178241E-01  (-0.1210985E-01)
 number of electron     239.9999995 magnetization      16.0000003
 augmentation part       49.0762931 magnetization      11.0088130

 Free energy of the ion-electron system (eV)
  ---------------------------------------------------
  alpha Z        PSCENC =       674.89853183
  Ewald energy   TEWEN  =    -12727.38108806
  -Hartree energ DENC   =     -8611.58240944
  -exchange      EXHF   =         0.00000000
  -V(xc)+E(xc)   XCENC  =      1273.52280082
  PAW double counting   =     40141.50815380   -40631.67630555
  entropy T*S    EENTRO =        -0.00000000
  eigenvalues    EBANDS =     -2756.91477654
  atomic energy  EATOM  =     22268.60300644
  ---------------------------------------------------
  free energy    TOTEN  =      -369.02208670 eV

  energy without entropy =     -369.02208670  energy(sigma->0) =     -369.02208670


--------------------------------------------------------------------------------------------------------




--------------------------------------- Iteration      1(  13)  ---------------------------------------


    POTLOK:  cpu time    0.0777: real time    0.0793
    SETDIJ:  cpu time    0.8390: real time    0.8414
    TRIAL :  cpu time   35.4340: real time   35.5336
    CORREC:  cpu time    7.5599: real time    7.5822
    CHARGE:  cpu time    2.2469: real time    2.2529
    --------------------------------------------
      LOOP:  cpu time   46.1589: real time   46.2968

 eigenvalue-minimisations  :     0
 total energy-change (2. order) :-0.1163920E-01  (-0.7341031E-02)
 number of electron     239.9999995 magnetization      16.0000003
 augmentation part       49.0722750 magnetization      10.9896353

 Free energy of the ion-electron system (eV)
  ---------------------------------------------------
  alpha Z        PSCENC =       674.89853183
  Ewald energy   TEWEN  =    -12727.38108806
  -Hartree energ DENC   =     -8616.89060808
  -exchange      EXHF   =         0.00000000
  -V(xc)+E(xc)   XCENC  =      1273.62515538
  PAW double counting   =     40111.08533741   -40601.77816029
  entropy T*S    EENTRO =        -0.00000000
  eigenvalues    EBANDS =     -2751.19590053
  atomic energy  EATOM  =     22268.60300644
  ---------------------------------------------------
  free energy    TOTEN  =      -369.03372590 eV

  energy without entropy =     -369.03372590  energy(sigma->0) =     -369.03372590


--------------------------------------------------------------------------------------------------------




--------------------------------------- Iteration      1(  14)  ---------------------------------------


    POTLOK:  cpu time    0.0769: real time    0.0771
    SETDIJ:  cpu time    0.8354: real time    0.8377
    TRIAL :  cpu time   13.6228: real time   13.6610
    CORREC:  cpu time    7.5700: real time    7.5951
    CHARGE:  cpu time    1.7168: real time    1.7216
    --------------------------------------------
      LOOP:  cpu time   23.8282: real time   23.8998

 eigenvalue-minimisations  :     0
 total energy-change (2. order) :-0.6201777E-02  (-0.3438292E-02)
 number of electron     239.9999995 magnetization      16.0000003
 augmentation part       49.0795539 magnetization      10.9711356

 Free energy of the ion-electron system (eV)
[...]
  0.000   0.000  -0.000  -0.000  -0.000   0.000   0.000   0.000  -0.000  -0.000  -0.000  -0.000   0.000   0.000   0.000   0.000
 -0.000   0.000  -0.000  -0.000  -0.000   0.000   0.000   0.000  -0.000  -0.000  -0.000  -0.000  -0.000   0.000   0.000   0.000
 -0.000   0.000  -0.000  -0.000  -0.000   0.000   0.000   0.000  -0.000  -0.000  -0.000  -0.000   0.000   0.000   0.000   0.000
  0.000   0.000   0.000   0.000  -0.000  -0.000  -0.000  -0.000   0.001  -0.001  -0.001  -0.000   0.001  -0.000   0.000   0.000
  0.000   0.000  -0.000   0.000   0.000  -0.000  -0.000  -0.000  -0.001   0.001  -0.001  -0.001  -0.000   0.000  -0.000   0.001
  0.000   0.000   0.000   0.000   0.000  -0.000  -0.000  -0.000  -0.001  -0.001   0.000  -0.001  -0.001   0.000   0.001  -0.000
  0.000   0.000   0.000   0.000   0.000  -0.000  -0.000  -0.000  -0.000  -0.001  -0.001  -0.001  -0.000   0.000   0.001   0.000
  0.000   0.000  -0.000   0.000  -0.000   0.000  -0.000   0.000   0.001  -0.000  -0.001  -0.000   0.001  -0.000   0.000   0.000
 -0.000   0.000  -0.000  -0.000   0.000   0.000   0.000   0.000  -0.000   0.000   0.000   0.000  -0.000   0.000  -0.000  -0.000
 -0.000   0.000   0.000   0.000  -0.000   0.000   0.000   0.000   0.000  -0.000   0.001   0.001   0.000  -0.000   0.000  -0.000
 -0.000   0.000  -0.000  -0.000   0.000   0.000   0.000   0.000   0.000   0.001  -0.000   0.000   0.000  -0.000  -0.000   0.000
 -0.000   0.000  -0.000   0.000  -0.000   0.000   0.000   0.000   0.000   0.001   0.000   0.000   0.000  -0.000  -0.000  -0.000
 -0.000   0.000   0.000  -0.000   0.000  -0.000   0.000  -0.000  -0.000   0.000   0.000   0.000  -0.000   0.000  -0.000  -0.000


------------------------ aborting loop because EDIFF is reached ----------------------------------------


 


 total charge     
 
# of ion       s       p       d       tot
------------------------------------------
    1        2.017   5.867   0.191   8.075
    2        0.284   6.344   5.599  12.226
    3        0.399   6.581   5.728  12.709
    4        0.400   6.583   5.729  12.711
    5        0.284   6.343   5.599  12.226
    6        0.901   1.524   0.000   2.426
    7        0.901   1.525   0.000   2.426
    8        0.901   1.524   0.000   2.425
    9        0.901   1.525   0.000   2.426
   10        0.901   1.524   0.000   2.425
   11        0.901   1.525   0.000   2.426
   12        1.580   3.639   0.000   5.219
   13        1.583   3.594   0.000   5.177
   14        1.580   3.639   0.000   5.219
   15        1.583   3.594   0.000   5.177
   16        1.580   3.639   0.000   5.219
   17        1.583   3.594   0.000   5.177
   18        1.583   3.594   0.000   5.177
   19        1.580   3.639   0.000   5.219
   20        1.583   3.594   0.000   5.177
   21        1.580   3.639   0.000   5.219
   22        1.583   3.594   0.000   5.177
   23        1.580   3.639   0.000   5.219
   24        1.585   3.571   0.000   5.156
   25        1.578   3.639   0.000   5.217
   26        1.585   3.571   0.000   5.156
   27        1.578   3.639   0.000   5.217
   28        1.585   3.571   0.000   5.156
   29        1.578   3.639   0.000   5.217
   30        1.578   3.639   0.000   5.217
   31        1.585   3.572   0.000   5.157
   32        1.578   3.639   0.000   5.217
   33        1.585   3.572   0.000   5.157
   34        1.578   3.639   0.000   5.217
   35        1.585   3.572   0.000   5.157
--------------------------------------------------
tot         46.746 127.528  22.846 197.120
 


 magnetization (x)
 
# of ion       s       p       d       tot
------------------------------------------
    1        0.000   0.000   0.000   0.001
    2        0.010   0.022   4.175   4.208
    3        0.005   0.020   2.453   2.479
    4        0.005   0.020   2.450   2.475
    5        0.010   0.022   4.175   4.207
    6        0.004   0.009   0.000   0.014
    7        0.004   0.010   0.000   0.014
    8        0.004   0.009   0.000   0.014
    9        0.004   0.010   0.000   0.014
   10        0.004   0.009   0.000   0.014
   11        0.004   0.010   0.000   0.014
   12        0.008   0.061   0.000   0.068
   13        0.005   0.087   0.000   0.093
   14        0.008   0.061   0.000   0.069
   15        0.005   0.087   0.000   0.092
   16        0.008   0.061   0.000   0.069
   17        0.005   0.088   0.000   0.093
   18        0.005   0.086   0.000   0.091
   19        0.008   0.060   0.000   0.068
   20        0.005   0.086   0.000   0.091
   21        0.008   0.060   0.000   0.068
   22        0.005   0.086   0.000   0.091
   23        0.008   0.060   0.000   0.068
   24        0.004   0.050   0.000   0.054
   25        0.012   0.101   0.000   0.112
   26        0.004   0.050   0.000   0.054
   27        0.012   0.101   0.000   0.112
   28        0.004   0.050   0.000   0.053
   29        0.012   0.101   0.000   0.112
   30        0.012   0.101   0.000   0.113
   31        0.004   0.052   0.000   0.055
   32        0.012   0.101   0.000   0.113
   33        0.004   0.051   0.000   0.055
   34        0.012   0.101   0.000   0.113
   35        0.004   0.052   0.000   0.055
--------------------------------------------------
tot          0.224   1.937  13.253  15.414
 
    FORLOC:  cpu time    0.0016: real time    0.0016
    FORNL :  cpu time    1.4741: real time    1.4784
    STRESS:  cpu time   32.9700: real time   33.0611
    FORCOR:  cpu time    0.0614: real time    0.0631
    OFIELD:  cpu time    0.0001: real time    0.0001

  FORCE on cell =-STRESS in cart. coord.  units (eV):
  Direction    XX          YY          ZZ          XY          YZ          ZX
  --------------------------------------------------------------------------------------
  Alpha Z   674.84414   674.84414   674.84414
  Ewald   -4248.67280 -4255.58443 -4222.51753     9.37516    16.44029    22.99734
  Hartree  2884.47283  2897.64172  2832.61390   -19.18627   -32.70300   -46.09218
  E(xc)   -1315.43718 -1315.45131 -1315.37824     0.02021     0.03587     0.05032
  Local   -2555.50116 -2561.84838 -2529.49585     9.91260    16.45686    23.35791
  n-local  -407.45437  -407.57131  -407.02025     0.20595     0.30376     0.41321
  augment   765.67460   765.47167   766.46066     0.26269     0.47986     0.69623
  Kinetic  4202.05827  4202.46749  4200.53128    -0.57432    -0.98241    -1.37748
  Fock        0.00000     0.00000     0.00000     0.00000     0.00000     0.00000
  -------------------------------------------------------------------------------------
  Total      -0.01567    -0.03041     0.03811     0.01602     0.03124     0.04535
  in kB      -0.06078    -0.11796     0.14786     0.06215     0.12118     0.17595
  external pressure =       -0.01 kB  Pullay stress =        0.00 kB


 VOLUME and BASIS-vectors are now :
 -----------------------------------------------------------------------------
  energy-cutoff  :      520.00
  volume of cell :      412.97
      direct lattice vectors                 reciprocal lattice vectors
     2.726849561  6.859778858  4.669509522    -0.003147311  0.150638730 -0.005303797
     0.446947001  0.316266585  8.717398777    -0.073946243 -0.052570656  0.120411653
     7.375556938  0.318468787  4.668458821     0.141227612 -0.052507609 -0.005335864

  length of vectors
     8.734792137  8.734576556  8.734687760     0.150764926  0.150766995  0.150767234


 FORCES acting on ions:
    Electron-Ion                     Ewald-Force                    Non-Local-Force
 -----------------------------------------------------------------------------------------------
   0.592E+00 0.397E+00 0.100E+01   -.597E+00 -.401E+00 -.101E+01   0.461E-02 0.407E-02 0.833E-02
   -.634E+01 -.451E+01 -.108E+02   0.800E+01 0.568E+01 0.136E+02   -.164E+01 -.117E+01 -.281E+01
   0.919E+02 0.653E+02 0.157E+03   -.921E+02 -.654E+02 -.158E+03   0.197E+00 0.142E+00 0.324E+00
   -.916E+02 -.650E+02 -.157E+03   0.918E+02 0.652E+02 0.157E+03   -.269E+00 -.184E+00 -.471E+00
   0.570E+01 0.404E+01 0.974E+01   -.735E+01 -.522E+01 -.126E+02   0.164E+01 0.117E+01 0.281E+01
   -.424E+01 0.576E+01 -.805E+02   0.454E+01 -.337E+01 0.834E+02   -.311E+00 -.249E+01 -.303E+01
   0.723E+02 0.547E+01 0.362E+02   -.737E+02 -.496E+01 -.398E+02   0.142E+01 -.543E+00 0.370E+01
   -.721E+02 -.590E+01 -.360E+02   0.735E+02 0.539E+01 0.395E+02   -.143E+01 0.526E+00 -.363E+01
   0.173E+02 0.665E+02 0.430E+02   -.204E+02 -.679E+02 -.447E+02   0.324E+01 0.153E+01 0.178E+01
   -.169E+02 -.661E+02 -.432E+02   0.200E+02 0.676E+02 0.449E+02   -.318E+01 -.152E+01 -.176E+01
   0.386E+01 -.553E+01 0.808E+02   -.417E+01 0.308E+01 -.837E+02   0.315E+00 0.256E+01 0.306E+01
   0.746E+02 -.904E+02 0.269E+02   -.527E+02 0.107E+03 -.486E+02   -.219E+02 -.163E+02 0.217E+02
   0.639E+02 0.141E+02 0.268E+03   -.368E+02 -.275E+02 -.280E+03   -.272E+02 0.134E+02 0.123E+02
   0.532E+02 0.100E+03 -.397E+02   -.833E+02 -.848E+02 0.488E+02   0.300E+02 -.153E+02 -.906E+01
   0.216E+03 0.557E+02 0.161E+03   -.225E+03 -.257E+02 -.171E+03   0.888E+01 -.301E+02 0.930E+01
   -.896E+02 0.173E+02 0.782E+02   0.953E+02 -.507E+02 -.697E+02   -.564E+01 0.334E+02 -.845E+01
   0.797E+02 0.186E+03 0.187E+03   -.100E+03 -.204E+03 -.169E+03   0.206E+02 0.183E+02 -.176E+02
   -.802E+02 -.186E+03 -.187E+03   0.101E+03 0.204E+03 0.170E+03   -.208E+02 -.182E+02 0.176E+02
   -.540E+02 -.992E+02 0.397E+02   0.842E+02 0.838E+02 -.488E+02   -.302E+02 0.154E+02 0.902E+01
   -.641E+02 -.146E+02 -.268E+03   0.370E+02 0.283E+02 0.280E+03   0.271E+02 -.136E+02 -.122E+02
   0.893E+02 -.184E+02 -.776E+02   -.949E+02 0.519E+02 0.691E+02   0.560E+01 -.336E+02 0.843E+01
   -.216E+03 -.557E+02 -.162E+03   0.225E+03 0.256E+02 0.171E+03   -.872E+01 0.301E+02 -.944E+01
   -.735E+02 0.904E+02 -.276E+02   0.515E+02 -.107E+03 0.494E+02   0.220E+02 0.163E+02 -.219E+02
   0.124E+03 -.174E+03 -.935E+02   -.130E+03 0.193E+03 0.694E+02   0.596E+01 -.190E+02 0.242E+02
   0.192E+03 -.826E+02 -.374E+00   -.208E+03 0.619E+02 -.223E+02   0.154E+02 0.207E+02 0.227E+02
   -.211E+02 0.175E+03 -.153E+03   -.778E+01 -.186E+03 0.155E+03   0.289E+02 0.119E+02 -.203E+01
   0.685E+01 0.209E+03 -.130E+02   -.146E+02 -.217E+03 -.196E+02   0.771E+01 0.773E+01 0.326E+02
   -.211E+03 -.774E+02 0.624E+02   0.223E+03 0.540E+02 -.794E+02   -.119E+02 0.234E+02 0.171E+02
   -.109E+03 -.623E+02 0.167E+03   0.857E+02 0.575E+02 -.192E+03   0.236E+02 0.474E+01 0.246E+02
   0.110E+03 0.630E+02 -.168E+03   -.861E+02 -.583E+02 0.192E+03   -.235E+02 -.471E+01 -.247E+02
   0.213E+02 -.176E+03 0.153E+03   0.752E+01 0.188E+03 -.155E+03   -.289E+02 -.120E+02 0.201E+01
   -.193E+03 0.827E+02 0.941E+00   0.208E+03 -.621E+02 0.217E+02   -.155E+02 -.206E+02 -.227E+02
   0.212E+03 0.781E+02 -.634E+02   -.224E+03 -.548E+02 0.805E+02   0.120E+02 -.233E+02 -.172E+02
   -.632E+01 -.209E+03 0.132E+02   0.140E+02 0.217E+03 0.194E+02   -.773E+01 -.787E+01 -.326E+02
   -.126E+03 0.174E+03 0.939E+02   0.132E+03 -.193E+03 -.698E+02   -.608E+01 0.190E+02 -.242E+02
 -----------------------------------------------------------------------------------------------
   0.137E+00 0.594E-01 0.254E+00   -.199E-12 0.568E-13 -.199E-12   -.237E+00 -.129E+00 -.426E+00
 
 
 POSITION                                       TOTAL-FORCE (eV/Angst)
 -----------------------------------------------------------------------------------
      5.24999      3.72964      8.98538         0.001849      0.001578      0.003494
      6.79100      4.82449     11.62289         0.002065      0.001631      0.003819
      1.57728      1.12053      2.69961        -0.005615     -0.004276     -0.011298
      8.91574      6.33399     15.25945        -0.000564     -0.001116     -0.000795
      3.70409      2.63147      6.33958         0.003483      0.002526      0.005984
      7.97514      2.09697     10.27895        -0.001091     -0.012196     -0.004489
      3.80427      0.61799      8.90422        -0.000182     -0.002532      0.015066
      6.69318      6.84068      9.05908         0.002199      0.003444     -0.011481
      6.85558      3.38928      5.97127         0.013947      0.000763      0.005867
      3.63862      4.06807     11.99449        -0.012212      0.001119     -0.001705
      2.52234      5.35766      7.68602         0.001915      0.013447      0.007664
      4.79616      4.58553     11.16275        -0.001722      0.003710     -0.004934
      8.11040      2.51241      6.13423        -0.003945     -0.000076      0.000068
      6.82343      3.01945     10.62823        -0.005471     -0.001600      0.000408
      2.86777      6.83124      7.40459         0.001125     -0.003964     -0.001188
      6.75603      5.44948      9.65912         0.001935     -0.004585     -0.003441
      2.82025      0.45907     10.07744         0.000514      0.002536     -0.003802
      7.67755      6.99635      7.88626        -0.002070     -0.001271      0.000173
      3.67613      4.43791      7.33843         0.003718      0.005108     -0.000102
      2.38553      4.94625     11.82917         0.000839     -0.001503     -0.001972
      3.74129      2.01027      8.30787        -0.003426      0.001940      0.005165
      7.62662      0.62465     10.56075        -0.000231      0.000184     -0.001417
      5.70080      2.87133      6.80568         0.004101     -0.003734      0.003182
      8.14749      2.36443      8.73981         0.001137     -0.003528      0.005516
      6.21864      6.39186     12.58636         0.002682      0.007092      0.007786
      5.20041      6.91536      8.57302         0.007047      0.002077      0.000088
      6.99619      3.76799     13.22102         0.003437      0.000294      0.010746
      3.42198      2.63398     11.38905        -0.001926      0.006249      0.003510
      8.63986      5.36619     11.59748         0.008633      0.002871      0.006275
      1.85711      2.08817      6.36933        -0.000839     -0.005066     -0.003069
      5.29690      0.54290      9.39091        -0.010750     -0.004875     -0.005194
      4.28066      1.06633      5.37757        -0.000338      0.001264     -0.006084
      7.07304      4.82343      6.57668        -0.000280     -0.008874     -0.009657
      3.49843      3.69125      4.74520        -0.005924     -0.000642     -0.002195
      2.34968      5.09089      9.22538        -0.004036      0.002001     -0.011988
 -----------------------------------------------------------------------------------
    total drift:                               -0.099445     -0.069950     -0.171301


--------------------------------------------------------------------------------------------------------



  FREE ENERGIE OF THE ION-ELECTRON SYSTEM (eV)
  ---------------------------------------------------
  free  energy   TOTEN  =      -369.05319720 eV

  energy  without entropy=     -369.05319720  energy(sigma->0) =     -369.05319720
 
 d Force = 0.4764607E-03[ 0.312E-05, 0.950E-03]  d Energy = 0.1779969E-03 0.298E-03
 d Force = 0.7581530E+00[ 0.752E+00, 0.764E+00]  d Ewald  = 0.1548696E+01-0.791E+00


--------------------------------------------------------------------------------------------------------


    POTLOK:  cpu time    0.9157: real time    0.9183


--------------------------------------------------------------------------------------------------------




--------------------------------------------------------------------------------------------------------


  
 reached required accuracy - stopping structural energy minimisation
     LOOP+:  cpu time  230.2453: real time  231.3179
    4ORBIT:  cpu time    0.0000: real time    0.0000
 


 total charge     
 
# of ion       s       p       d       tot
------------------------------------------
    1        2.017   5.867   0.191   8.075
    2        0.284   6.344   5.599  12.226
    3        0.399   6.581   5.728  12.709
    4        0.400   6.583   5.729  12.711
    5        0.284   6.343   5.599  12.226
    6        0.901   1.524   0.000   2.426
    7        0.901   1.525   0.000   2.426
    8        0.901   1.524   0.000   2.425
    9        0.901   1.525   0.000   2.426
   10        0.901   1.524   0.000   2.425
   11        0.901   1.525   0.000   2.426
   12        1.580   3.639   0.000   5.219
   13        1.583   3.594   0.000   5.177
   14        1.580   3.639   0.000   5.219
   15        1.583   3.594   0.000   5.177
   16        1.580   3.639   0.000   5.219
   17        1.583   3.594   0.000   5.177
   18        1.583   3.594   0.000   5.177
   19        1.580   3.639   0.000   5.219
   20        1.583   3.594   0.000   5.177
   21        1.580   3.639   0.000   5.219
   22        1.583   3.594   0.000   5.177
   23        1.580   3.639   0.000   5.219
   24        1.585   3.571   0.000   5.156
   25        1.578   3.639   0.000   5.217
   26        1.585   3.571   0.000   5.156
   27        1.578   3.639   0.000   5.217
   28        1.585   3.571   0.000   5.156
   29        1.578   3.639   0.000   5.217
   30        1.578   3.639   0.000   5.217
   31        1.585   3.572   0.000   5.157
   32        1.578   3.639   0.000   5.217
   33        1.585   3.572   0.000   5.157
   34        1.578   3.639   0.000   5.217
   35        1.585   3.572   0.000   5.157
--------------------------------------------------
tot         46.746 127.528  22.846 197.120
 


 magnetization (x)
 
# of ion       s       p       d       tot
------------------------------------------
    1        0.000   0.000   0.000   0.001
    2        0.010   0.022   4.175   4.208
    3        0.005   0.020   2.453   2.479
    4        0.005   0.020   2.450   2.475
    5        0.010   0.022   4.175   4.207
    6        0.004   0.009   0.000   0.014
    7        0.004   0.010   0.000   0.014
    8        0.004   0.009   0.000   0.014
    9        0.004   0.010   0.000   0.014
   10        0.004   0.009   0.000   0.014
   11        0.004   0.010   0.000   0.014
   12        0.008   0.061   0.000   0.068
   13        0.005   0.087   0.000   0.093
   14        0.008   0.061   0.000   0.069
   15        0.005   0.087   0.000   0.092
   16        0.008   0.061   0.000   0.069
   17        0.005   0.088   0.000   0.093
   18        0.005   0.086   0.000   0.091
   19        0.008   0.060   0.000   0.068
   20        0.005   0.086   0.000   0.091
   21        0.008   0.060   0.000   0.068
   22        0.005   0.086   0.000   0.091
   23        0.008   0.060   0.000   0.068
   24        0.004   0.050   0.000   0.054
   25        0.012   0.101   0.000   0.112
   26        0.004   0.050   0.000   0.054
   27        0.012   0.101   0.000   0.112
   28        0.004   0.050   0.000   0.053
   29        0.012   0.101   0.000   0.112
   30        0.012   0.101   0.000   0.113
   31        0.004   0.052   0.000   0.055
   32        0.012   0.101   0.000   0.113
   33        0.004   0.051   0.000   0.055
   34        0.012   0.101   0.000   0.113
   35        0.004   0.052   0.000   0.055
--------------------------------------------------
tot          0.224   1.937  13.253  15.414
 

 total amount of memory used by VASP MPI-rank0    94093. kBytes
=======================================================================

   base      :      30000. kBytes
   nonlr-proj:       9226. kBytes
   fftplans  :       1111. kBytes
   grid      :       4344. kBytes
   one-center:         62. kBytes
   wavefun   :      49350. kBytes
 
  
  
 General timing and accounting informations for this job:
 ========================================================
  
                  Total CPU time used (sec):     1354.811
                            User time (sec):     1350.255
                          System time (sec):        4.556
                         Elapsed time (sec):     1362.502
  
                   Maximum memory used (kb):      584168.
                   Average memory used (kb):           0.
  
                          Minor page faults:       253466
                          Major page faults:            0
                 Voluntary context switches:         8752
