 vasp.6.1.2 22Jul20 (build Mar 19 2021 09:51:12) complex                        
  
 executed on             LinuxIFC date 2021.07.26  06:14:43
 running on   12 total cores
 distrk:  each k-point on   12 cores,    1 groups
 distr:  one band on NCORE=   4 cores,    3 groups


--------------------------------------------------------------------------------------------------------


 INCAR:
 POTCAR:    PAW_PBE Ca_sv 06Sep2000               
 POTCAR:    PAW_PBE Mn_pv 02Aug2007               
 POTCAR:    PAW_PBE O 08Apr2002                   
 POTCAR:    PAW_PBE Ca_sv 06Sep2000               
   VRHFIN =Ca: 3s3p4s                                                                               
   LEXCH  = PE                                                                                      
   EATOM  =  1006.0909 eV,   73.9456 Ry                                                             
                                                                                                    
   TITEL  = PAW_PBE Ca_sv 06Sep2000                                                                 
   LULTRA =        F    use ultrasoft PP ?                                                          
   IUNSCR =        1    unscreen: 0-lin 1-nonlin 2-no                                               
   RPACOR =    2.000    partial core radius                                                         
   POMASS =   40.078; ZVAL   =   10.000    mass and valenz                                          
   RCORE  =    2.300    outmost cutoff radius                                                       
   RWIGS  =    2.500; RWIGS  =    1.323    wigner-seitz radius (au A)                               
   ENMAX  =  266.622; ENMIN  =  199.967 eV                                                          
   RCLOC  =    1.808    cutoff for local pot                                                        
   LCOR   =        T    correct aug charges                                                         
   LPAW   =        T    paw PP                                                                      
   EAUG   =  420.852                                                                                
   RMAX   =    2.359    core radius for proj-oper                                                   
   RAUG   =    1.300    factor for augmentation sphere                                              
   RDEP   =    2.392    radius for radial grids                                                     
   RDEPT  =    1.987    core radius for aug-charge                                                  
                                                                                                    
   Atomic configuration                                                                             
    7 entries                                                                                       
     n  l   j            E        occ.                                                              
     1  0  0.50     -3949.1705   2.0000                                                             
     2  0  0.50      -414.3434   2.0000                                                             
     2  1  1.50      -334.7047   6.0000                                                             
     3  0  0.50       -47.0896   2.0000                                                             
     4  0  0.50        -3.7663   2.0000                                                             
     3  1  1.50       -28.0061   6.0000                                                             
     3  2  1.50        -4.0817   0.0000                                                             
   Description                                                                                      
     l       E           TYP  RCUT    TYP  RCUT                                                     
     0    -47.0896403     23  2.300                                                                 
     0     -3.7663320     23  2.300                                                                 
     1    -28.0060855     23  2.300                                                                 
     1      6.8029130     23  2.300                                                                 
     2     -4.0817478     23  2.300                                                                 
     2      0.4464412     23  2.300                                                                 
  local pseudopotential read in
  partial core-charges read in
  partial kinetic energy density read in
  atomic valenz-charges read in
  non local Contribution for L=           0  read in
    real space projection operators read in
  non local Contribution for L=           0  read in
    real space projection operators read in
  non local Contribution for L=           1  read in
    real space projection operators read in
  non local Contribution for L=           1  read in
    real space projection operators read in
  non local Contribution for L=           2  read in
    real space projection operators read in
  non local Contribution for L=           2  read in
    real space projection operators read in
    PAW grid and wavefunctions read in
 
   number of l-projection  operators is LMAX  =           6
   number of lm-projection operators is LMMAX =          18
 
 POTCAR:    PAW_PBE Mn_pv 02Aug2007               
   VRHFIN =Mn: 3p4s3d                                                                               
   LEXCH  = PE                                                                                      
   EATOM  =  2025.2664 eV,  148.8529 Ry                                                             
                                                                                                    
   TITEL  = PAW_PBE Mn_pv 02Aug2007                                                                 
   LULTRA =        F    use ultrasoft PP ?                                                          
   IUNSCR =        1    unscreen: 0-lin 1-nonlin 2-no                                               
   RPACOR =    2.080    partial core radius                                                         
   POMASS =   54.938; ZVAL   =   13.000    mass and valenz                                          
   RCORE  =    2.300    outmost cutoff radius                                                       
   RWIGS  =    2.500; RWIGS  =    1.323    wigner-seitz radius (au A)                               
   ENMAX  =  269.864; ENMIN  =  202.398 eV                                                          
   ICORE  =        3    local potential                                                             
   LCOR   =        T    correct aug charges                                                         
   LPAW   =        T    paw PP                                                                      
   EAUG   =  569.085                                                                                
   DEXC   =    0.000                                                                                
   RMAX   =    2.343    core radius for proj-oper                                                   
   RAUG   =    1.300    factor for augmentation sphere                                              
   RDEP   =    2.338    radius for radial grids                                                     
   RDEPT  =    1.798    core radius for aug-charge                                                  
                                                                                                    
   Atomic configuration                                                                             
    8 entries                                                                                       
     n  l   j            E        occ.                                                              
     1  0  0.50     -6424.8287   2.0000                                                             
     2  0  0.50      -739.1154   2.0000                                                             
     2  1  1.50      -625.3949   6.0000                                                             
     3  0  0.50       -81.6100   2.0000                                                             
     3  1  1.50       -50.4667   6.0000                                                             
     3  2  2.50        -3.3745   6.0000                                                             
     4  0  0.50        -4.1331   1.0000                                                             
     4  3  2.50        -1.3606   0.0000                                                             
   Description                                                                                      
     l       E           TYP  RCUT    TYP  RCUT                                                     
     1    -50.4666628     23  2.000                                                                 
     1     -1.3605826     23  2.000                                                                 
     2     -3.3744729     23  2.300                                                                 
     2     -4.7350555     23  2.300                                                                 
     0     -4.1331431     23  2.300                                                                 
     0      7.6656591     23  2.300                                                                 
     3      9.5240782     23  2.300                                                                 
  local pseudopotential read in
  partial core-charges read in
  partial kinetic energy density read in
  atomic valenz-charges read in
  non local Contribution for L=           1  read in
    real space projection operators read in
  non local Contribution for L=           1  read in
    real space projection operators read in
  non local Contribution for L=           2  read in
    real space projection operators read in
  non local Contribution for L=           2  read in
    real space projection operators read in
  non local Contribution for L=           0  read in
    real space projection operators read in
  non local Contribution for L=           0  read in
    real space projection operators read in
    PAW grid and wavefunctions read in
 
   number of l-projection  operators is LMAX  =           6
   number of lm-projection operators is LMMAX =          18
 
 POTCAR:    PAW_PBE O 08Apr2002                   
   VRHFIN =O: s2p4                                                                                  
   LEXCH  = PE                                                                                      
   EATOM  =   432.3788 eV,   31.7789 Ry                                                             
                                                                                                    
   TITEL  = PAW_PBE O 08Apr2002                                                                     
   LULTRA =        F    use ultrasoft PP ?                                                          
   IUNSCR =        1    unscreen: 0-lin 1-nonlin 2-no                                               
   RPACOR =    1.200    partial core radius                                                         
   POMASS =   16.000; ZVAL   =    6.000    mass and valenz                                          
   RCORE  =    1.520    outmost cutoff radius                                                       
   RWIGS  =    1.550; RWIGS  =    0.820    wigner-seitz radius (au A)                               
   ENMAX  =  400.000; ENMIN  =  300.000 eV                                                          
   ICORE  =        2    local potential                                                             
   LCOR   =        T    correct aug charges                                                         
   LPAW   =        T    paw PP                                                                      
   EAUG   =  605.392                                                                                
   DEXC   =    0.000                                                                                
   RMAX   =    1.553    core radius for proj-oper                                                   
   RAUG   =    1.300    factor for augmentation sphere                                              
   RDEP   =    1.550    radius for radial grids                                                     
   RDEPT  =    1.329    core radius for aug-charge                                                  
                                                                                                    
   Atomic configuration                                                                             
    4 entries                                                                                       
     n  l   j            E        occ.                                                              
     1  0  0.50      -514.6923   2.0000                                                             
     2  0  0.50       -23.9615   2.0000                                                             
     2  1  0.50        -9.0305   4.0000                                                             
     3  2  1.50        -9.5241   0.0000                                                             
   Description                                                                                      
     l       E           TYP  RCUT    TYP  RCUT                                                     
     0    -23.9615318     23  1.200                                                                 
     0     -9.5240782     23  1.200                                                                 
     1     -9.0304911     23  1.520                                                                 
     1      8.1634956     23  1.520                                                                 
     2     -9.5240782      7  1.500                                                                 
  local pseudopotential read in
  partial core-charges read in
  partial kinetic energy density read in
  kinetic energy density of atom read in
  atomic valenz-charges read in
  non local Contribution for L=           0  read in
    real space projection operators read in
  non local Contribution for L=           0  read in
    real space projection operators read in
  non local Contribution for L=           1  read in
    real space projection operators read in
  non local Contribution for L=           1  read in
    real space projection operators read in
    PAW grid and wavefunctions read in
 
   number of l-projection  operators is LMAX  =           4
   number of lm-projection operators is LMMAX =           8
 
 -----------------------------------------------------------------------------
|                                                                             |
|               ----> ADVICE to this user running VASP <----                  |
|                                                                             |
|     You have a (more or less) 'small supercell' and for smaller cells       |
|     it is recommended to use the reciprocal-space projection scheme!        |
|     The real-space optimization is not efficient for small cells and it     |
|     is also less accurate ...                                               |
|     Therefore, set LREAL=.FALSE. in the INCAR file.                         |
|                                                                             |
 -----------------------------------------------------------------------------

 Optimization of the real space projectors (new method)

 maximal supplied QI-value         = 16.25
 optimisation between [QCUT,QGAM] = [ 11.54, 23.24] = [ 37.28,151.24] Ry 
 Optimized for a Real-space Cutoff    1.58 Angstroem

   l    n(q)    QCUT    max X(q) W(low)/X(q) W(high)/X(q)  e(spline) 
   0     11    11.539    11.817    0.25E-04    0.22E-05    0.26E-07
   0     11    11.539     8.461    0.39E-04    0.49E-05    0.55E-07
   1     11    11.539     3.957    0.21E-05    0.44E-05    0.32E-07
   1     11    11.539     4.314    0.56E-04    0.44E-04    0.19E-06
   2     10    11.539    14.565    0.25E-03    0.21E-04    0.75E-06
   2     10    11.539    14.552    0.23E-03    0.22E-04    0.72E-06
 Optimization of the real space projectors (new method)

 maximal supplied QI-value         = 16.25
 optimisation between [QCUT,QGAM] = [ 11.54, 23.24] = [ 37.28,151.24] Ry 
 Optimized for a Real-space Cutoff    1.45 Angstroem

   l    n(q)    QCUT    max X(q) W(low)/X(q) W(high)/X(q)  e(spline) 
   1     10    11.539     3.658    0.56E-04    0.12E-03    0.13E-06
   1     10    11.539     5.612    0.11E-03    0.23E-03    0.24E-06
   2      9    11.539    55.373    0.45E-04    0.92E-04    0.22E-06
   2      9    11.539    50.863    0.47E-04    0.95E-04    0.22E-06
   0     10    11.539    79.536    0.46E-04    0.27E-04    0.11E-06
   0     10    11.539    38.668    0.38E-04    0.25E-04    0.10E-06
 Optimization of the real space projectors (new method)

 maximal supplied QI-value         = 24.76
 optimisation between [QCUT,QGAM] = [ 11.64, 23.27] = [ 37.91,151.63] Ry 
 Optimized for a Real-space Cutoff    1.14 Angstroem

   l    n(q)    QCUT    max X(q) W(low)/X(q) W(high)/X(q)  e(spline) 
   0      8    11.635    20.381    0.10E-03    0.33E-03    0.24E-06
   0      8    11.635    15.268    0.11E-03    0.35E-03    0.26E-06
   1      7    11.635     5.964    0.24E-03    0.31E-03    0.30E-06
   1      7    11.635     5.382    0.22E-03    0.25E-03    0.26E-06
  PAW_PBE Ca_sv 06Sep2000               :
 energy of atom  1       EATOM=-1006.0909
 kinetic energy error for atom=    0.0022 (will be added to EATOM!!)
  PAW_PBE Mn_pv 02Aug2007               :
 energy of atom  2       EATOM=-2025.2664
 kinetic energy error for atom=    0.0058 (will be added to EATOM!!)
  PAW_PBE O 08Apr2002                   :
 energy of atom  3       EATOM= -432.3788
 kinetic energy error for atom=    0.0208 (will be added to EATOM!!)
 
 
 POSCAR: Ca2 Mn1 O4
  positions in direct lattice
  velocities in cartesian coordinates

 METAGGA = SCAN     LMAXTAU =  6    LMIXTAU =  F

 exchange correlation table for  LEXCH =        8
   RHO(1)=    0.500       N(1)  =     2000
   RHO(2)=  100.500       N(2)  =     4000
 


--------------------------------------------------------------------------------------------------------


 ion  position               nearest neighbor table
   1  0.355  0.855  0.211-   4 2.27   7 2.51   6 2.51   6 2.52   7 2.52   3 3.12   3 3.12   3 3.12
                             3 3.13
   2  0.645  0.145  0.789-   5 2.27   7 2.51   6 2.51   6 2.52   7 2.52   3 3.12   3 3.12   3 3.12
                             3 3.12
   3  0.000  0.500  0.500-   6 1.85   7 1.85   7 1.85   6 1.85   4 1.91   5 1.91   1 3.12   2 3.12
                             2 3.12   2 3.12   1 3.12   1 3.12   2 3.12   1 3.13
   4  0.163  0.663  0.825-   3 1.91   1 2.27
   5  0.837  0.337  0.175-   3 1.91   2 2.27
   6  1.000  1.000  0.500-   3 1.85   3 1.85   2 2.51   1 2.51   1 2.52   2 2.52
   7  0.500  0.500  0.500-   3 1.85   3 1.85   2 2.51   1 2.51   1 2.52   2 2.52
 

IMPORTANT INFORMATION: All symmetrisations will be switched off!
NOSYMM: (Re-)initialisation of all symmetry stuff for point group C_1.


----------------------------------------------------------------------------------------

                                     Primitive cell                                     

  volume of cell :      80.7579

  direct lattice vectors                    reciprocal lattice vectors
    -2.619137892 -2.619961140  0.001401221    -0.190948027 -0.190842527 -0.085080615
    -2.619137859  2.619961334  0.001400603    -0.190948012  0.190842509 -0.085080518
     2.622530968  0.000001400 -5.885798769    -0.000090897 -0.000000020 -0.169940975

  length of vectors
     3.704602763  3.704602877  6.443624432     0.283056055  0.283056004  0.169940999

  position of ions in fractional coordinates (direct lattice)
     0.354649542  0.854649678  0.210974103
     0.645395359  0.145395213  0.788999960
     0.000117401  0.500117425  0.500059236
     0.162529216  0.662528712  0.824681445
     0.837471568  0.337472060  0.175309959
     0.999960584  0.999876345  0.499987663
     0.499876330  0.499960568  0.499987634

  ion indices of the primitive-cell ions
   primitive index   ion index
                 1           1
                 2           2
                 3           3
                 4           4
                 5           5
                 6           6
                 7           7

----------------------------------------------------------------------------------------

 
 
 KPOINTS: K-points file                           

Automatic generation of k-mesh.
Space group operators:
 irot       det(A)        alpha          n_x          n_y          n_z        tau_x        tau_y        tau_z
    1     1.000000     0.000000     1.000000     0.000000     0.000000     0.000000     0.000000     0.000000
 
 Subroutine IBZKPT returns following result:
 ===========================================
 
 Found    203 irreducible k-points:
 
 Following reciprocal coordinates:
            Coordinates               Weight
  0.000000  0.000000  0.000000      1.000000
  0.111111  0.000000 -0.000000      2.000000
 -0.000000 -0.111111  0.000000      2.000000
  0.222222  0.000000  0.000000      2.000000
  0.000000 -0.222222 -0.000000      2.000000
  0.333333 -0.000000  0.000000      2.000000
 -0.000000 -0.333333 -0.000000      2.000000
  0.444444  0.000000 -0.000000      2.000000
 -0.000000 -0.444444  0.000000      2.000000
  0.111111  0.111111 -0.000000      2.000000
  0.222222  0.111111 -0.000000      2.000000
 -0.111111 -0.222222 -0.000000      2.000000
  0.333333  0.111111  0.000000      2.000000
 -0.111111 -0.333333 -0.000000      2.000000
  0.444444  0.111111 -0.000000      2.000000
 -0.111111 -0.444444  0.000000      2.000000
 -0.444444  0.111111  0.000000      2.000000
 -0.111111  0.444444 -0.000000      2.000000
 -0.333333  0.111111  0.000000      2.000000
 -0.111111  0.333333  0.000000      2.000000
 -0.222222  0.111111 -0.000000      2.000000
 -0.111111  0.222222  0.000000      2.000000
 -0.111111  0.111111  0.000000      2.000000
  0.222222  0.222222  0.000000      2.000000
  0.333333  0.222222  0.000000      2.000000
 -0.222222 -0.333333  0.000000      2.000000
  0.444444  0.222222 -0.000000      2.000000
 -0.222222 -0.444444 -0.000000      2.000000
 -0.444444  0.222222  0.000000      2.000000
 -0.222222  0.444444 -0.000000      2.000000
 -0.333333  0.222222  0.000000      2.000000
 -0.222222  0.333333 -0.000000      2.000000
 -0.222222  0.222222 -0.000000      2.000000
  0.333333  0.333333 -0.000000      2.000000
  0.444444  0.333333 -0.000000      2.000000
 -0.333333 -0.444444 -0.000000      2.000000
 -0.444444  0.333333 -0.000000      2.000000
 -0.333333  0.444444  0.000000      2.000000
 -0.333333  0.333333  0.000000      2.000000
  0.444444  0.444444 -0.000000      2.000000
 -0.444444  0.444444 -0.000000      2.000000
 -0.000000  0.000000  0.200000      2.000000
  0.111111  0.000000  0.200000      2.000000
 -0.000000 -0.111111 -0.200000      2.000000
  0.222222  0.000000  0.200000      2.000000
 -0.000000 -0.222222 -0.200000      2.000000
  0.333333  0.000000  0.200000      2.000000
 -0.000000 -0.333333 -0.200000      2.000000
  0.444444  0.000000  0.200000      2.000000
  0.000000 -0.444444 -0.200000      2.000000
 -0.444444 -0.000000  0.200000      2.000000
 -0.000000  0.444444 -0.200000      2.000000
 -0.333333  0.000000  0.200000      2.000000
  0.000000  0.333333 -0.200000      2.000000
 -0.222222 -0.000000  0.200000      2.000000
  0.000000  0.222222 -0.200000      2.000000
 -0.111111 -0.000000  0.200000      2.000000
  0.000000  0.111111 -0.200000      2.000000
  0.111111  0.111111  0.200000      2.000000
  0.222222  0.111111  0.200000      2.000000
 -0.111111 -0.222222 -0.200000      2.000000
  0.333333  0.111111  0.200000      2.000000
 -0.111111 -0.333333 -0.200000      2.000000
  0.444444  0.111111  0.200000      2.000000
 -0.111111 -0.444444 -0.200000      2.000000
 -0.444444  0.111111  0.200000      2.000000
 -0.111111  0.444444 -0.200000      2.000000
 -0.333333  0.111111  0.200000      2.000000
 -0.111111  0.333333 -0.200000      2.000000
 -0.222222  0.111111  0.200000      2.000000
 -0.111111  0.222222 -0.200000      2.000000
 -0.111111  0.111111  0.200000      2.000000
 -0.111111  0.111111 -0.200000      2.000000
  0.222222  0.222222  0.200000      2.000000
  0.333333  0.222222  0.200000      2.000000
 -0.222222 -0.333333 -0.200000      2.000000
  0.444444  0.222222  0.200000      2.000000
 -0.222222 -0.444444 -0.200000      2.000000
 -0.444444  0.222222  0.200000      2.000000
 -0.222222  0.444444 -0.200000      2.000000
 -0.333333  0.222222  0.200000      2.000000
 -0.222222  0.333333 -0.200000      2.000000
 -0.222222  0.222222  0.200000      2.000000
 -0.222222  0.222222 -0.200000      2.000000
 -0.111111  0.222222  0.200000      2.000000
 -0.222222  0.111111 -0.200000      2.000000
  0.333333  0.333333  0.200000      2.000000
  0.444444  0.333333  0.200000      2.000000
 -0.333333 -0.444444 -0.200000      2.000000
 -0.444444  0.333333  0.200000      2.000000
 -0.333333  0.444444 -0.200000      2.000000
 -0.333333  0.333333  0.200000      2.000000
 -0.333333  0.333333 -0.200000      2.000000
 -0.222222  0.333333  0.200000      2.000000
 -0.333333  0.222222 -0.200000      2.000000
 -0.111111  0.333333  0.200000      2.000000
 -0.333333  0.111111 -0.200000      2.000000
  0.444444  0.444444  0.200000      2.000000
 -0.444444  0.444444  0.200000      2.000000
 -0.444444  0.444444 -0.200000      2.000000
 -0.333333  0.444444  0.200000      2.000000
 -0.444444  0.333333 -0.200000      2.000000
 -0.222222  0.444444  0.200000      2.000000
 -0.444444  0.222222 -0.200000      2.000000
 -0.111111  0.444444  0.200000      2.000000
 -0.444444  0.111111 -0.200000      2.000000
 -0.444444 -0.444444  0.200000      2.000000
 -0.333333 -0.444444  0.200000      2.000000
  0.444444  0.333333 -0.200000      2.000000
 -0.222222 -0.444444  0.200000      2.000000
  0.444444  0.222222 -0.200000      2.000000
 -0.111111 -0.444444  0.200000      2.000000
  0.444444  0.111111 -0.200000      2.000000
 -0.333333 -0.333333  0.200000      2.000000
 -0.222222 -0.333333  0.200000      2.000000
  0.333333  0.222222 -0.200000      2.000000
 -0.111111 -0.333333  0.200000      2.000000
  0.333333  0.111111 -0.200000      2.000000
 -0.222222 -0.222222  0.200000      2.000000
 -0.111111 -0.222222  0.200000      2.000000
  0.222222  0.111111 -0.200000      2.000000
 -0.111111 -0.111111  0.200000      2.000000
 -0.000000  0.000000  0.400000      2.000000
  0.111111  0.000000  0.400000      2.000000
  0.000000 -0.111111 -0.400000      2.000000
  0.222222  0.000000  0.400000      2.000000
 -0.000000 -0.222222 -0.400000      2.000000
  0.333333 -0.000000  0.400000      2.000000
 -0.000000 -0.333333 -0.400000      2.000000
  0.444444  0.000000  0.400000      2.000000
 -0.000000 -0.444444 -0.400000      2.000000
 -0.444444 -0.000000  0.400000      2.000000
  0.000000  0.444444 -0.400000      2.000000
 -0.333333  0.000000  0.400000      2.000000
 -0.000000  0.333333 -0.400000      2.000000
 -0.222222  0.000000  0.400000      2.000000
 -0.000000  0.222222 -0.400000      2.000000
 -0.111111 -0.000000  0.400000      2.000000
  0.000000  0.111111 -0.400000      2.000000
  0.111111  0.111111  0.400000      2.000000
  0.222222  0.111111  0.400000      2.000000
 -0.111111 -0.222222 -0.400000      2.000000
  0.333333  0.111111  0.400000      2.000000
 -0.111111 -0.333333 -0.400000      2.000000
  0.444444  0.111111  0.400000      2.000000
 -0.111111 -0.444444 -0.400000      2.000000
 -0.444444  0.111111  0.400000      2.000000
 -0.111111  0.444444 -0.400000      2.000000
 -0.333333  0.111111  0.400000      2.000000
 -0.111111  0.333333 -0.400000      2.000000
 -0.222222  0.111111  0.400000      2.000000
 -0.111111  0.222222 -0.400000      2.000000
 -0.111111  0.111111  0.400000      2.000000
 -0.111111  0.111111 -0.400000      2.000000
  0.222222  0.222222  0.400000      2.000000
  0.333333  0.222222  0.400000      2.000000
 -0.222222 -0.333333 -0.400000      2.000000
  0.444444  0.222222  0.400000      2.000000
 -0.222222 -0.444444 -0.400000      2.000000
 -0.444444  0.222222  0.400000      2.000000
 -0.222222  0.444444 -0.400000      2.000000
 -0.333333  0.222222  0.400000      2.000000
 -0.222222  0.333333 -0.400000      2.000000
 -0.222222  0.222222  0.400000      2.000000
 -0.222222  0.222222 -0.400000      2.000000
 -0.111111  0.222222  0.400000      2.000000
 -0.222222  0.111111 -0.400000      2.000000
  0.333333  0.333333  0.400000      2.000000
  0.444444  0.333333  0.400000      2.000000
 -0.333333 -0.444444 -0.400000      2.000000
 -0.444444  0.333333  0.400000      2.000000
 -0.333333  0.444444 -0.400000      2.000000
 -0.333333  0.333333  0.400000      2.000000
 -0.333333  0.333333 -0.400000      2.000000
 -0.222222  0.333333  0.400000      2.000000
 -0.333333  0.222222 -0.400000      2.000000
 -0.111111  0.333333  0.400000      2.000000
 -0.333333  0.111111 -0.400000      2.000000
  0.444444  0.444444  0.400000      2.000000
 -0.444444  0.444444  0.400000      2.000000
 -0.444444  0.444444 -0.400000      2.000000
 -0.333333  0.444444  0.400000      2.000000
 -0.444444  0.333333 -0.400000      2.000000
 -0.222222  0.444444  0.400000      2.000000
 -0.444444  0.222222 -0.400000      2.000000
 -0.111111  0.444444  0.400000      2.000000
 -0.444444  0.111111 -0.400000      2.000000
 -0.444444 -0.444444  0.400000      2.000000
 -0.333333 -0.444444  0.400000      2.000000
  0.444444  0.333333 -0.400000      2.000000
 -0.222222 -0.444444  0.400000      2.000000
  0.444444  0.222222 -0.400000      2.000000
 -0.111111 -0.444444  0.400000      2.000000
  0.444444  0.111111 -0.400000      2.000000
 -0.333333 -0.333333  0.400000      2.000000
 -0.222222 -0.333333  0.400000      2.000000
  0.333333  0.222222 -0.400000      2.000000
 -0.111111 -0.333333  0.400000      2.000000
  0.333333  0.111111 -0.400000      2.000000
 -0.222222 -0.222222  0.400000      2.000000
 -0.111111 -0.222222  0.400000      2.000000
  0.222222  0.111111 -0.400000      2.000000
 -0.111111 -0.111111  0.400000      2.000000
 
 Following cartesian coordinates:
            Coordinates               Weight
  0.000000  0.000000  0.000000      1.000000
 -0.021216 -0.021205 -0.009453      2.000000
  0.021216 -0.021205  0.009453      2.000000
 -0.042433 -0.042409 -0.018907      2.000000
  0.042433 -0.042409  0.018907      2.000000
 -0.063649 -0.063614 -0.028360      2.000000
  0.063649 -0.063614  0.028360      2.000000
 -0.084866 -0.084819 -0.037814      2.000000
  0.084866 -0.084819  0.037814      2.000000
 -0.042433 -0.000000 -0.018907      2.000000
 -0.063649 -0.021205 -0.028360      2.000000
  0.063649 -0.021205  0.028360      2.000000
 -0.084866 -0.042409 -0.037814      2.000000
  0.084866 -0.042409  0.037814      2.000000
 -0.106082 -0.063614 -0.047267      2.000000
  0.106082 -0.063614  0.047267      2.000000
  0.063649  0.106024  0.028360      2.000000
 -0.063649  0.106024 -0.028360      2.000000
  0.042433  0.084819  0.018907      2.000000
 -0.042433  0.084819 -0.018907      2.000000
  0.021216  0.063614  0.009453      2.000000
 -0.021216  0.063614 -0.009453      2.000000
  0.000000  0.042409  0.000000      2.000000
 -0.084866 -0.000000 -0.037814      2.000000
 -0.106082 -0.021205 -0.047267      2.000000
  0.106082 -0.021205  0.047267      2.000000
 -0.127299 -0.042409 -0.056720      2.000000
  0.127299 -0.042409  0.056720      2.000000
  0.042433  0.127228  0.018907      2.000000
 -0.042433  0.127228 -0.018907      2.000000
  0.021216  0.106024  0.009453      2.000000
 -0.021216  0.106024 -0.009453      2.000000
  0.000000  0.084819  0.000000      2.000000
 -0.127299 -0.000000 -0.056720      2.000000
 -0.148515 -0.021205 -0.066174      2.000000
  0.148515 -0.021205  0.066174      2.000000
  0.021216  0.148433  0.009453      2.000000
 -0.021216  0.148433 -0.009453      2.000000
  0.000000  0.127228  0.000000      2.000000
 -0.169732 -0.000000 -0.075627      2.000000
  0.000000  0.169638  0.000000      2.000000
 -0.000018 -0.000000 -0.033988      2.000000
 -0.021235 -0.021205 -0.043442      2.000000
  0.021235 -0.021205  0.043442      2.000000
 -0.042451 -0.042409 -0.052895      2.000000
  0.042451 -0.042409  0.052895      2.000000
 -0.063668 -0.063614 -0.062348      2.000000
  0.063668 -0.063614  0.062348      2.000000
 -0.084884 -0.084819 -0.071802      2.000000
  0.084884 -0.084819  0.071802      2.000000
  0.084848  0.084819  0.003825      2.000000
 -0.084848  0.084819 -0.003825      2.000000
  0.063631  0.063614 -0.005628      2.000000
 -0.063631  0.063614  0.005628      2.000000
  0.042415  0.042409 -0.015081      2.000000
 -0.042415  0.042409  0.015081      2.000000
  0.021198  0.021205 -0.024535      2.000000
 -0.021198  0.021205  0.024535      2.000000
 -0.042451 -0.000000 -0.052895      2.000000
 -0.063668 -0.021205 -0.062348      2.000000
  0.063668 -0.021205  0.062348      2.000000
 -0.084884 -0.042409 -0.071802      2.000000
  0.084884 -0.042409  0.071802      2.000000
 -0.106100 -0.063614 -0.081255      2.000000
  0.106100 -0.063614  0.081255      2.000000
  0.063631  0.106024 -0.005628      2.000000
 -0.063631  0.106024  0.005628      2.000000
  0.042415  0.084819 -0.015081      2.000000
 -0.042415  0.084819  0.015081      2.000000
  0.021198  0.063614 -0.024535      2.000000
 -0.021198  0.063614  0.024535      2.000000
 -0.000018  0.042409 -0.033988      2.000000
  0.000018  0.042409  0.033988      2.000000
 -0.084884 -0.000000 -0.071802      2.000000
 -0.106100 -0.021205 -0.081255      2.000000
  0.106100 -0.021205  0.081255      2.000000
 -0.127317 -0.042409 -0.090709      2.000000
  0.127317 -0.042409  0.090709      2.000000
  0.042415  0.127228 -0.015081      2.000000
 -0.042415  0.127228  0.015081      2.000000
  0.021198  0.106024 -0.024535      2.000000
 -0.021198  0.106024  0.024535      2.000000
 -0.000018  0.084819 -0.033988      2.000000
  0.000018  0.084819  0.033988      2.000000
 -0.021235  0.063614 -0.043442      2.000000
  0.021235  0.063614  0.043442      2.000000
 -0.127317 -0.000000 -0.090709      2.000000
 -0.148533 -0.021205 -0.100162      2.000000
  0.148533 -0.021205  0.100162      2.000000
  0.021198  0.148433 -0.024535      2.000000
 -0.021198  0.148433  0.024535      2.000000
 -0.000018  0.127228 -0.033988      2.000000
  0.000018  0.127228  0.033988      2.000000
 -0.021235  0.106024 -0.043442      2.000000
  0.021235  0.106024  0.043442      2.000000
 -0.042451  0.084819 -0.052895      2.000000
  0.042451  0.084819  0.052895      2.000000
 -0.169750 -0.000000 -0.109615      2.000000
 -0.000018  0.169638 -0.033988      2.000000
  0.000018  0.169638  0.033988      2.000000
 -0.021235  0.148433 -0.043442      2.000000
  0.021235  0.148433  0.043442      2.000000
 -0.042451  0.127228 -0.052895      2.000000
  0.042451  0.127228  0.052895      2.000000
 -0.063668  0.106024 -0.062348      2.000000
  0.063668  0.106024  0.062348      2.000000
  0.169713  0.000000  0.041639      2.000000
  0.148497 -0.021205  0.032186      2.000000
 -0.148497 -0.021205 -0.032186      2.000000
  0.127280 -0.042409  0.022732      2.000000
 -0.127281 -0.042409 -0.022732      2.000000
  0.106064 -0.063614  0.013279      2.000000
 -0.106064 -0.063614 -0.013279      2.000000
  0.127281  0.000000  0.022732      2.000000
  0.106064 -0.021205  0.013279      2.000000
 -0.106064 -0.021205 -0.013279      2.000000
  0.084848 -0.042409  0.003825      2.000000
 -0.084848 -0.042409 -0.003825      2.000000
  0.084848 -0.000000  0.003825      2.000000
  0.063631 -0.021205 -0.005628      2.000000
 -0.063631 -0.021205  0.005628      2.000000
  0.042415 -0.000000 -0.015081      2.000000
 -0.000036 -0.000000 -0.067976      2.000000
 -0.021253 -0.021205 -0.077430      2.000000
  0.021253 -0.021205  0.077430      2.000000
 -0.042469 -0.042409 -0.086883      2.000000
  0.042469 -0.042409  0.086883      2.000000
 -0.063686 -0.063614 -0.096337      2.000000
  0.063686 -0.063614  0.096337      2.000000
 -0.084902 -0.084819 -0.105790      2.000000
  0.084902 -0.084819  0.105790      2.000000
  0.084829  0.084819 -0.030163      2.000000
 -0.084829  0.084819  0.030163      2.000000
  0.063613  0.063614 -0.039616      2.000000
 -0.063613  0.063614  0.039616      2.000000
  0.042397  0.042409 -0.049070      2.000000
 -0.042397  0.042409  0.049070      2.000000
  0.021180  0.021205 -0.058523      2.000000
 -0.021180  0.021205  0.058523      2.000000
 -0.042469 -0.000000 -0.086883      2.000000
 -0.063686 -0.021205 -0.096337      2.000000
  0.063686 -0.021205  0.096337      2.000000
 -0.084902 -0.042409 -0.105790      2.000000
  0.084902 -0.042409  0.105790      2.000000
 -0.106119 -0.063614 -0.115243      2.000000
  0.106119 -0.063614  0.115243      2.000000
  0.063613  0.106024 -0.039616      2.000000
 -0.063613  0.106024  0.039616      2.000000
  0.042397  0.084819 -0.049070      2.000000
 -0.042397  0.084819  0.049070      2.000000
  0.021180  0.063614 -0.058523      2.000000
 -0.021180  0.063614  0.058523      2.000000
 -0.000036  0.042409 -0.067976      2.000000
  0.000036  0.042409  0.067976      2.000000
 -0.084902 -0.000000 -0.105790      2.000000
 -0.106119 -0.021205 -0.115243      2.000000
  0.106119 -0.021205  0.115243      2.000000
 -0.127335 -0.042409 -0.124697      2.000000
  0.127335 -0.042409  0.124697      2.000000
  0.042397  0.127228 -0.049070      2.000000
 -0.042397  0.127228  0.049070      2.000000
  0.021180  0.106024 -0.058523      2.000000
 -0.021180  0.106024  0.058523      2.000000
 -0.000036  0.084819 -0.067976      2.000000
  0.000036  0.084819  0.067976      2.000000
 -0.021253  0.063614 -0.077430      2.000000
  0.021253  0.063614  0.077430      2.000000
 -0.127335 -0.000000 -0.124697      2.000000
 -0.148551 -0.021205 -0.134150      2.000000
  0.148551 -0.021205  0.134150      2.000000
  0.021180  0.148433 -0.058523      2.000000
 -0.021180  0.148433  0.058523      2.000000
 -0.000036  0.127228 -0.067976      2.000000
  0.000036  0.127228  0.067976      2.000000
 -0.021253  0.106024 -0.077430      2.000000
  0.021253  0.106024  0.077430      2.000000
 -0.042469  0.084819 -0.086883      2.000000
  0.042469  0.084819  0.086883      2.000000
 -0.169768 -0.000000 -0.143604      2.000000
 -0.000036  0.169638 -0.067976      2.000000
  0.000036  0.169638  0.067976      2.000000
 -0.021253  0.148433 -0.077430      2.000000
  0.021253  0.148433  0.077430      2.000000
 -0.042469  0.127228 -0.086883      2.000000
  0.042469  0.127228  0.086883      2.000000
 -0.063686  0.106024 -0.096337      2.000000
  0.063686  0.106024  0.096337      2.000000
  0.169695 -0.000000  0.007651      2.000000
  0.148479 -0.021205 -0.001803      2.000000
 -0.148479 -0.021205  0.001803      2.000000
  0.127262 -0.042409 -0.011256      2.000000
 -0.127262 -0.042409  0.011256      2.000000
  0.106046 -0.063614 -0.020709      2.000000
 -0.106046 -0.063614  0.020709      2.000000
  0.127262 -0.000000 -0.011256      2.000000
  0.106046 -0.021205 -0.020709      2.000000
 -0.106046 -0.021205  0.020709      2.000000
  0.084829 -0.042409 -0.030163      2.000000
 -0.084829 -0.042409  0.030163      2.000000
  0.084829 -0.000000 -0.030163      2.000000
  0.063613 -0.021205 -0.039616      2.000000
 -0.063613 -0.021205  0.039616      2.000000
  0.042397 -0.000000 -0.049070      2.000000
 


--------------------------------------------------------------------------------------------------------




 Dimension of arrays:
   k-points           NKPTS =    203   k-points in BZ     NKDIM =    203   number of bands    NBANDS=     36
   number of dos      NEDOS =    301   number of ions     NIONS =      7
   non local maximal  LDIM  =      6   non local SUM 2l+1 LMDIM =     18
   total plane-waves  NPLWV =  37632
   max r-space proj   IRMAX =   7746   max aug-charges    IRDMAX=  22430
   dimension x,y,z NGX =    28 NGY =   28 NGZ =   48
   dimension x,y,z NGXF=    56 NGYF=   56 NGZF=   96
   support grid    NGXF=    56 NGYF=   56 NGZF=   96
   ions per type =               2   1   4
   NGX,Y,Z   is equivalent  to a cutoff of  12.57, 12.57, 12.38 a.u.
   NGXF,Y,Z  is equivalent  to a cutoff of  25.13, 25.13, 24.77 a.u.

 SYSTEM =  unknown system                          
 POSCAR =  Ca2 Mn1 O4                              

 Startparameter for this run:
   NWRITE =      2    write-flag & timer
   PREC   = accura    normal or accurate (medium, high low for compatibility)
   ISTART =      0    job   : 0-new  1-cont  2-samecut
   ICHARG =      1    charge: 1-file 2-atom 10-const
   ISPIN  =      2    spin polarized calculation?
   LNONCOLLINEAR =      F non collinear calculations
   LSORBIT =      F    spin-orbit coupling
   INIWAV =      1    electr: 0-lowe 1-rand  2-diag
   LASPH  =      T    aspherical Exc in radial PAW
   METAGGA=      F    non-selfconsistent MetaGGA calc.

 Electronic Relaxation 1
   ENCUT  =  520.0 eV  38.22 Ry    6.18 a.u.   6.89  6.89 11.98*2*pi/ulx,y,z
   ENINI  =  520.0     initial cutoff
   ENAUG  =  605.4 eV  augmentation charge cutoff
   NELM   =    100;   NELMIN=  6; NELMDL= -5     # of ELM steps 
   EDIFF  = 0.1E-04   stopping-criterion for ELM
   LREAL  =      T    real-space projection
   NLSPLINE    = F    spline interpolate recip. space projectors
   LCOMPAT=      F    compatible to vasp.4.4
   GGA_COMPAT  = T    GGA compatible to vasp.4.4-vasp.4.6
   LMAXPAW     = -100 max onsite density
   LMAXMIX     =    4 max onsite mixed and CHGCAR
   VOSKOWN=      0    Vosko Wilk Nusair interpolation
   ROPT   =   -0.00025  -0.00025  -0.00025
 Ionic relaxation
   EDIFFG = -.3E-01   stopping-criterion for IOM
   NSW    =     99    number of steps for IOM
   NBLOCK =      1;   KBLOCK =     99    inner block; outer block 
   IBRION =      2    ionic relax: 0-MD 1-quasi-New 2-CG
   NFREE  =      1    steps in history (QN), initial steepest desc. (CG)
   ISIF   =      3    stress and relaxation
   IWAVPR =     11    prediction:  0-non 1-charg 2-wave 3-comb
   ISYM   =      0    0-nonsym 1-usesym 2-fastsym
   LCORR  =      T    Harris-Foulkes like correction to forces

   POTIM  = 0.5000    time-step for ionic-motion
   TEIN   =    0.0    initial temperature
   TEBEG  =    0.0;   TEEND  =   0.0 temperature during run
   SMASS  =  -3.00    Nose mass-parameter (am)
   estimated Nose-frequenzy (Omega)   =  0.10E-29 period in steps = 0.13E+47 mass=  -0.314E-27a.u.
   SCALEE = 1.0000    scale energy and forces
   NPACO  =    256;   APACO  = 16.0  distance and # of slots for P.C.
   PSTRESS=    0.0 pullay stress

  Mass of Ions in am
   POMASS =  40.08 54.94 16.00
  Ionic Valenz
   ZVAL   =  10.00 13.00  6.00
  Atomic Wigner-Seitz radii
   RWIGS  =  -1.00 -1.00 -1.00
  virtual crystal weights 
   VCA    =   1.00  1.00  1.00
   NELECT =      57.0000    total number of electrons
   NUPDOWN=      -1.0000    fix difference up-down

 DOS related values:
   EMIN   =  10.00;   EMAX   =-10.00  energy-range for DOS
   EFERMI =   0.00
   ISMEAR =     0;   SIGMA  =   0.05  broadening in eV -4-tet -1-fermi 0-gaus

 Electronic relaxation 2 (details)
   IALGO  =     38    algorithm
   LDIAG  =      T    sub-space diagonalisation (order eigenvalues)
   LSUBROT=      F    optimize rotation matrix (better conditioning)
   TURBO    =      0    0=normal 1=particle mesh
   IRESTART =      0    0=no restart 2=restart with 2 vectors
   NREBOOT  =      0    no. of reboots
   NMIN     =      0    reboot dimension
   EREF     =   0.00    reference energy to select bands
   IMIX   =      4    mixing-type and parameters
     AMIX     =   0.40;   BMIX     =  1.00
     AMIX_MAG =   1.60;   BMIX_MAG =  1.00
     AMIN     =   0.10
     WC   =   100.;   INIMIX=   1;  MIXPRE=   1;  MAXMIX= -45

 Intra band minimization:
   WEIMIN = 0.0010     energy-eigenvalue tresh-hold
   EBREAK =  0.69E-07  absolut break condition
   DEPER  =   0.30     relativ break condition  

   TIME   =   0.40     timestep for ELM

  volume/ion in A,a.u.               =      11.54        77.85
  Fermi-wavevector in a.u.,A,eV,Ry     =   1.457599  2.754463 28.906870  2.124595
  Thomas-Fermi vector in A             =   2.574382
 
 Write flags
   LWAVE        =      F    write WAVECAR
   LDOWNSAMPLE  =      F    k-point downsampling of WAVECAR
   LCHARG       =      T    write CHGCAR
   LVTOT        =      F    write LOCPOT, total local potential
   LVHAR        =      F    write LOCPOT, Hartree potential only
   LELF         =      F    write electronic localiz. function (ELF)
   LORBIT       =     11    0 simple, 1 ext, 2 COOP (PROOUT), +10 PAW based schemes


 Dipole corrections
   LMONO  =      F    monopole corrections only (constant potential shift)
   LDIPOL =      F    correct potential (dipole corrections)
   IDIPOL =      0    1-x, 2-y, 3-z, 4-all directions 
   EPSILON=  1.0000000 bulk dielectric constant

 LDA+U is selected, type is set to LDAUTYPE =  2
   angular momentum for each species LDAUL =    -1    2   -1
   U (eV)           for each species LDAUU =   0.0  2.7  0.0
   J (eV)           for each species LDAUJ =   0.0  0.0  0.0
 Exchange correlation treatment:
   GGA     =    --    GGA type
   LEXCH   =     8    internal setting for exchange type
   VOSKOWN=      0    Vosko Wilk Nusair interpolation
   LHFCALC =     F    Hartree Fock is set to
   LHFONE  =     F    Hartree Fock one center treatment
   AEXX    =    0.0000 exact exchange contribution

 Linear response parameters
   LEPSILON=     F    determine dielectric tensor
   LRPA    =     F    only Hartree local field effects (RPA)
   LNABLA  =     F    use nabla operator in PAW spheres
   LVEL    =     F    velocity operator in full k-point grid
   LINTERFAST=   F  fast interpolation
   KINTER  =     0    interpolate to denser k-point grid
   CSHIFT  =0.1000    complex shift for real part using Kramers Kronig
   OMEGAMAX=  -1.0    maximum frequency
   DEG_THRESHOLD= 0.2000000E-02 threshold for treating states as degnerate
   RTIME   =   -0.100 relaxation time in fs
  (WPLASMAI=    0.000 imaginary part of plasma frequency in eV, 0.658/RTIME)
   DFIELD  = 0.0000000 0.0000000 0.0000000 field for delta impulse in time
 
 Orbital magnetization related:
   ORBITALMAG=     F  switch on orbital magnetization
   LCHIMAG   =     F  perturbation theory with respect to B field
   DQ        =  0.001000  dq finite difference perturbation B field
   LLRAUG    =     F  two centre corrections for induced B field



--------------------------------------------------------------------------------------------------------


 conjugate gradient relaxation of ions
 charge density and potential will be updated during run
 spin polarized calculation
 Variant of blocked Davidson
 Davidson routine will perform the subspace rotation
 perform sub-space diagonalisation
    after iterative eigenvector-optimisation
 modified Broyden-mixing scheme, WC =      100.0
 initial mixing is a Kerker type mixing with AMIX =  0.4000 and BMIX =      1.0000
 Hartree-type preconditioning will be used
 using additional bands            7
 real space projection scheme for non local part
 use partial core corrections
 calculate Harris-corrections to forces 
   (improved forces if not selfconsistent)
 use gradient corrections 
 use of overlap-Matrix (Vanderbilt PP)
 Gauss-broadening in eV      SIGMA  =   0.05


--------------------------------------------------------------------------------------------------------


  energy-cutoff  :      520.00
  volume of cell :       80.76
      direct lattice vectors                 reciprocal lattice vectors
    -2.619137892 -2.619961140  0.001401221    -0.190948027 -0.190842527 -0.085080615
    -2.619137859  2.619961334  0.001400603    -0.190948012  0.190842509 -0.085080518
     2.622530968  0.000001400 -5.885798769    -0.000090897 -0.000000020 -0.169940975

  length of vectors
     3.704602763  3.704602877  6.443624432     0.283056055  0.283056004  0.169940999


 
 k-points in units of 2pi/SCALE and weight: K-points file                           
   0.00000000  0.00000000  0.00000000       0.002
  -0.02121645 -0.02120473 -0.00945340       0.005
   0.02121645 -0.02120472  0.00945339       0.005
  -0.04243289 -0.04240945 -0.01890680       0.005
   0.04243289 -0.04240945  0.01890678       0.005
  -0.06364934 -0.06361418 -0.02836021       0.005
   0.06364934 -0.06361417  0.02836017       0.005
  -0.08486579 -0.08481890 -0.03781361       0.005
   0.08486578 -0.08481889  0.03781356       0.005
  -0.04243289 -0.00000000 -0.01890679       0.005
  -0.06364934 -0.02120473 -0.02836019       0.005
   0.06364934 -0.02120472  0.02836018       0.005
  -0.08486579 -0.04240945 -0.03781360       0.005
   0.08486578 -0.04240944  0.03781357       0.005
  -0.10608224 -0.06361418 -0.04726700       0.005
   0.10608223 -0.06361417  0.04726697       0.005
   0.06364934  0.10602362  0.02836022       0.005
  -0.06364934  0.10602362 -0.02836016       0.005
   0.04243290  0.08481890  0.01890681       0.005
  -0.04243289  0.08481890 -0.01890677       0.005
   0.02121645  0.06361417  0.00945341       0.005
  -0.02121644  0.06361417 -0.00945338       0.005
   0.00000000  0.04240945  0.00000001       0.005
  -0.08486579 -0.00000000 -0.03781359       0.005
  -0.10608223 -0.02120473 -0.04726699       0.005
   0.10608223 -0.02120472  0.04726698       0.005
  -0.12729868 -0.04240945 -0.05672039       0.005
   0.12729868 -0.04240944  0.05672037       0.005
   0.04243290  0.12722835  0.01890682       0.005
  -0.04243289  0.12722834 -0.01890676       0.005
   0.02121645  0.10602362  0.00945342       0.005
  -0.02121644  0.10602362 -0.00945337       0.005
   0.00000000  0.08481890  0.00000002       0.005
  -0.12729868 -0.00000001 -0.05672038       0.005
  -0.14851513 -0.02120473 -0.06617378       0.005
   0.14851513 -0.02120472  0.06617377       0.005
   0.02121645  0.14843307  0.00945343       0.005
  -0.02121644  0.14843307 -0.00945336       0.005
   0.00000000  0.12722835  0.00000003       0.005
  -0.16973157 -0.00000001 -0.07562717       0.005
   0.00000001  0.16963779  0.00000004       0.005
  -0.00001818 -0.00000000 -0.03398819       0.005
  -0.02123463 -0.02120473 -0.04344160       0.005
   0.02123463 -0.02120472  0.04344159       0.005
  -0.04245107 -0.04240945 -0.05289500       0.005
   0.04245107 -0.04240944  0.05289498       0.005
  -0.06366752 -0.06361418 -0.06234840       0.005
   0.06366752 -0.06361417  0.06234837       0.005
  -0.08488397 -0.08481890 -0.07180180       0.005
   0.08488396 -0.08481889  0.07180176       0.005
   0.08484761  0.08481890  0.00382541       0.005
  -0.08484760  0.08481890 -0.00382537       0.005
   0.06363116  0.06361417 -0.00562799       0.005
  -0.06363116  0.06361417  0.00562802       0.005
   0.04241472  0.04240945 -0.01508139       0.005
  -0.04241471  0.04240945  0.01508141       0.005
   0.02119827  0.02120472 -0.02453479       0.005
  -0.02119827  0.02120473  0.02453480       0.005
  -0.04245107 -0.00000001 -0.05289499       0.005
  -0.06366752 -0.02120473 -0.06234839       0.005
   0.06366752 -0.02120472  0.06234838       0.005
  -0.08488397 -0.04240946 -0.07180179       0.005
   0.08488396 -0.04240944  0.07180177       0.005
  -0.10610041 -0.06361418 -0.08125519       0.005
   0.10610041 -0.06361416  0.08125516       0.005
   0.06363116  0.10602362 -0.00562798       0.005
  -0.06363116  0.10602362  0.00562803       0.005
   0.04241472  0.08481889 -0.01508138       0.005
  -0.04241471  0.08481890  0.01508142       0.005
   0.02119827  0.06361417 -0.02453478       0.005
  -0.02119826  0.06361418  0.02453481       0.005
  -0.00001818  0.04240944 -0.03398818       0.005
   0.00001818  0.04240945  0.03398821       0.005
  -0.08488397 -0.00000001 -0.07180178       0.005
  -0.10610041 -0.02120473 -0.08125518       0.005
   0.10610041 -0.02120472  0.08125517       0.005
  -0.12731686 -0.04240946 -0.09070858       0.005
   0.12731686 -0.04240944  0.09070856       0.005
   0.04241472  0.12722834 -0.01508137       0.005
  -0.04241471  0.12722835  0.01508143       0.005
   0.02119827  0.10602362 -0.02453477       0.005
  -0.02119826  0.10602362  0.02453483       0.005
  -0.00001818  0.08481889 -0.03398817       0.005
   0.00001818  0.08481890  0.03398822       0.005
  -0.02123462  0.06361417 -0.04344158       0.005
   0.02123463  0.06361418  0.04344161       0.005
  -0.12731686 -0.00000001 -0.09070857       0.005
  -0.14853331 -0.02120474 -0.10016197       0.005
   0.14853331 -0.02120471  0.10016196       0.005
   0.02119827  0.14843307 -0.02453476       0.005
  -0.02119826  0.14843307  0.02453484       0.005
  -0.00001817  0.12722834 -0.03398816       0.005
   0.00001818  0.12722835  0.03398823       0.005
  -0.02123462  0.10602362 -0.04344156       0.005
   0.02123463  0.10602363  0.04344162       0.005
  -0.04245107  0.08481889 -0.05289497       0.005
   0.04245108  0.08481890  0.05289501       0.005
  -0.16974975 -0.00000001 -0.10961537       0.005
  -0.00001817  0.16963779 -0.03398815       0.005
   0.00001819  0.16963780  0.03398824       0.005
  -0.02123462  0.14843306 -0.04344155       0.005
   0.02123463  0.14843307  0.04344163       0.005
  -0.04245107  0.12722834 -0.05289496       0.005
   0.04245108  0.12722835  0.05289502       0.005
  -0.06366752  0.10602361 -0.06234836       0.005
   0.06366752  0.10602363  0.06234841       0.005
   0.16971339  0.00000000  0.04163898       0.005
   0.14849695 -0.02120472  0.03218557       0.005
  -0.14849695 -0.02120473 -0.03218558       0.005
   0.12728050 -0.04240945  0.02273217       0.005
  -0.12728050 -0.04240945 -0.02273219       0.005
   0.10606405 -0.06361417  0.01327877       0.005
  -0.10606406 -0.06361417 -0.01327880       0.005
   0.12728050  0.00000000  0.02273218       0.005
   0.10606405 -0.02120472  0.01327878       0.005
  -0.10606405 -0.02120473 -0.01327879       0.005
   0.08484761 -0.04240945  0.00382538       0.005
  -0.08484761 -0.04240945 -0.00382540       0.005
   0.08484761 -0.00000000  0.00382539       0.005
   0.06363116 -0.02120473 -0.00562801       0.005
  -0.06363116 -0.02120472  0.00562800       0.005
   0.04241471 -0.00000000 -0.01508140       0.005
  -0.00003636 -0.00000001 -0.06797639       0.005
  -0.02125281 -0.02120473 -0.07742979       0.005
   0.02125280 -0.02120472  0.07742978       0.005
  -0.04246925 -0.04240946 -0.08688319       0.005
   0.04246925 -0.04240944  0.08688317       0.005
  -0.06368570 -0.06361418 -0.09633660       0.005
   0.06368570 -0.06361416  0.09633656       0.005
  -0.08490215 -0.08481891 -0.10579000       0.005
   0.08490214 -0.08481889  0.10578995       0.005
   0.08482943  0.08481889 -0.03016278       0.005
  -0.08482942  0.08481890  0.03016283       0.005
   0.06361298  0.06361417 -0.03961618       0.005
  -0.06361298  0.06361418  0.03961622       0.005
   0.04239654  0.04240944 -0.04906959       0.005
  -0.04239653  0.04240945  0.04906961       0.005
   0.02118009  0.02120472 -0.05852299       0.005
  -0.02118009  0.02120473  0.05852300       0.005
  -0.04246925 -0.00000001 -0.08688318       0.005
  -0.06368570 -0.02120474 -0.09633658       0.005
   0.06368570 -0.02120471  0.09633657       0.005
  -0.08490215 -0.04240946 -0.10578999       0.005
   0.08490214 -0.04240944  0.10578996       0.005
  -0.10611859 -0.06361419 -0.11524339       0.005
   0.10611859 -0.06361416  0.11524336       0.005
   0.06361298  0.10602362 -0.03961617       0.005
  -0.06361298  0.10602363  0.03961623       0.005
   0.04239654  0.08481889 -0.04906958       0.005
  -0.04239653  0.08481890  0.04906962       0.005
   0.02118009  0.06361417 -0.05852298       0.005
  -0.02118009  0.06361418  0.05852301       0.005
  -0.00003636  0.04240944 -0.06797638       0.005
   0.00003636  0.04240946  0.06797640       0.005
  -0.08490215 -0.00000001 -0.10578998       0.005
  -0.10611859 -0.02120474 -0.11524338       0.005
   0.10611859 -0.02120471  0.11524337       0.005
  -0.12733504 -0.04240946 -0.12469678       0.005
   0.12733504 -0.04240943  0.12469676       0.005
   0.04239654  0.12722834 -0.04906956       0.005
  -0.04239653  0.12722835  0.04906963       0.005
   0.02118009  0.10602361 -0.05852297       0.005
  -0.02118008  0.10602363  0.05852302       0.005
  -0.00003636  0.08481889 -0.06797637       0.005
   0.00003636  0.08481890  0.06797641       0.005
  -0.02125280  0.06361416 -0.07742977       0.005
   0.02125281  0.06361418  0.07742980       0.005
  -0.12733504 -0.00000001 -0.12469677       0.005
  -0.14855149 -0.02120474 -0.13415017       0.005
   0.14855148 -0.02120471  0.13415016       0.005
   0.02118009  0.14843306 -0.05852296       0.005
  -0.02118008  0.14843308  0.05852303       0.005
  -0.00003635  0.12722834 -0.06797636       0.005
   0.00003636  0.12722835  0.06797642       0.005
  -0.02125280  0.10602361 -0.07742976       0.005
   0.02125281  0.10602363  0.07742981       0.005
  -0.04246925  0.08481889 -0.08688316       0.005
   0.04246926  0.08481891  0.08688320       0.005
  -0.16976793 -0.00000002 -0.14360356       0.005
  -0.00003635  0.16963779 -0.06797635       0.005
   0.00003637  0.16963780  0.06797643       0.005
  -0.02125280  0.14843306 -0.07742975       0.005
   0.02125281  0.14843308  0.07742982       0.005
  -0.04246925  0.12722834 -0.08688315       0.005
   0.04246926  0.12722836  0.08688321       0.005
  -0.06368569  0.10602361 -0.09633655       0.005
   0.06368570  0.10602363  0.09633661       0.005
   0.16969521 -0.00000000  0.00765078       0.005
   0.14847877 -0.02120473 -0.00180262       0.005
  -0.14847877 -0.02120472  0.00180261       0.005
   0.12726232 -0.04240945 -0.01125602       0.005
  -0.12726232 -0.04240945  0.01125600       0.005
   0.10604587 -0.06361418 -0.02070942       0.005
  -0.10604588 -0.06361417  0.02070939       0.005
   0.12726232 -0.00000000 -0.01125601       0.005
   0.10604587 -0.02120473 -0.02070941       0.005
  -0.10604588 -0.02120472  0.02070940       0.005
   0.08482943 -0.04240945 -0.03016282       0.005
  -0.08482943 -0.04240944  0.03016279       0.005
   0.08482943 -0.00000000 -0.03016280       0.005
   0.06361298 -0.02120473 -0.03961621       0.005
  -0.06361298 -0.02120472  0.03961620       0.005
   0.04239653 -0.00000001 -0.04906960       0.005
 
 k-points in reciprocal lattice and weights: K-points file                           
   0.00000000  0.00000000  0.00000000       0.002
   0.11111111  0.00000000 -0.00000000       0.005
  -0.00000000 -0.11111111  0.00000000       0.005
   0.22222222  0.00000000  0.00000000       0.005
   0.00000000 -0.22222222 -0.00000000       0.005
   0.33333333 -0.00000000  0.00000000       0.005
  -0.00000000 -0.33333333 -0.00000000       0.005
   0.44444444  0.00000000 -0.00000000       0.005
  -0.00000000 -0.44444444  0.00000000       0.005
   0.11111111  0.11111111 -0.00000000       0.005
   0.22222222  0.11111111 -0.00000000       0.005
  -0.11111111 -0.22222222 -0.00000000       0.005
   0.33333333  0.11111111  0.00000000       0.005
  -0.11111111 -0.33333333 -0.00000000       0.005
   0.44444444  0.11111111 -0.00000000       0.005
  -0.11111111 -0.44444444  0.00000000       0.005
  -0.44444444  0.11111111  0.00000000       0.005
  -0.11111111  0.44444444 -0.00000000       0.005
  -0.33333333  0.11111111  0.00000000       0.005
  -0.11111111  0.33333333  0.00000000       0.005
  -0.22222222  0.11111111 -0.00000000       0.005
  -0.11111111  0.22222222  0.00000000       0.005
  -0.11111111  0.11111111  0.00000000       0.005
   0.22222222  0.22222222  0.00000000       0.005
   0.33333333  0.22222222  0.00000000       0.005
  -0.22222222 -0.33333333  0.00000000       0.005
   0.44444444  0.22222222 -0.00000000       0.005
  -0.22222222 -0.44444444 -0.00000000       0.005
  -0.44444444  0.22222222  0.00000000       0.005
  -0.22222222  0.44444444 -0.00000000       0.005
  -0.33333333  0.22222222  0.00000000       0.005
  -0.22222222  0.33333333 -0.00000000       0.005
  -0.22222222  0.22222222 -0.00000000       0.005
   0.33333333  0.33333333 -0.00000000       0.005
   0.44444444  0.33333333 -0.00000000       0.005
  -0.33333333 -0.44444444 -0.00000000       0.005
  -0.44444444  0.33333333 -0.00000000       0.005
  -0.33333333  0.44444444  0.00000000       0.005
  -0.33333333  0.33333333  0.00000000       0.005
   0.44444444  0.44444444 -0.00000000       0.005
  -0.44444444  0.44444444 -0.00000000       0.005
  -0.00000000  0.00000000  0.20000000       0.005
   0.11111111  0.00000000  0.20000000       0.005
  -0.00000000 -0.11111111 -0.20000000       0.005
   0.22222222  0.00000000  0.20000000       0.005
  -0.00000000 -0.22222222 -0.20000000       0.005
   0.33333333  0.00000000  0.20000000       0.005
  -0.00000000 -0.33333333 -0.20000000       0.005
   0.44444444  0.00000000  0.20000000       0.005
   0.00000000 -0.44444444 -0.20000000       0.005
  -0.44444444 -0.00000000  0.20000000       0.005
  -0.00000000  0.44444444 -0.20000000       0.005
  -0.33333333  0.00000000  0.20000000       0.005
   0.00000000  0.33333333 -0.20000000       0.005
  -0.22222222 -0.00000000  0.20000000       0.005
   0.00000000  0.22222222 -0.20000000       0.005
  -0.11111111 -0.00000000  0.20000000       0.005
   0.00000000  0.11111111 -0.20000000       0.005
   0.11111111  0.11111111  0.20000000       0.005
   0.22222222  0.11111111  0.20000000       0.005
  -0.11111111 -0.22222222 -0.20000000       0.005
   0.33333333  0.11111111  0.20000000       0.005
  -0.11111111 -0.33333333 -0.20000000       0.005
   0.44444444  0.11111111  0.20000000       0.005
  -0.11111111 -0.44444444 -0.20000000       0.005
  -0.44444444  0.11111111  0.20000000       0.005
  -0.11111111  0.44444444 -0.20000000       0.005
  -0.33333333  0.11111111  0.20000000       0.005
  -0.11111111  0.33333333 -0.20000000       0.005
  -0.22222222  0.11111111  0.20000000       0.005
  -0.11111111  0.22222222 -0.20000000       0.005
  -0.11111111  0.11111111  0.20000000       0.005
  -0.11111111  0.11111111 -0.20000000       0.005
   0.22222222  0.22222222  0.20000000       0.005
   0.33333333  0.22222222  0.20000000       0.005
  -0.22222222 -0.33333333 -0.20000000       0.005
   0.44444444  0.22222222  0.20000000       0.005
  -0.22222222 -0.44444444 -0.20000000       0.005
  -0.44444444  0.22222222  0.20000000       0.005
  -0.22222222  0.44444444 -0.20000000       0.005
  -0.33333333  0.22222222  0.20000000       0.005
  -0.22222222  0.33333333 -0.20000000       0.005
  -0.22222222  0.22222222  0.20000000       0.005
  -0.22222222  0.22222222 -0.20000000       0.005
  -0.11111111  0.22222222  0.20000000       0.005
  -0.22222222  0.11111111 -0.20000000       0.005
   0.33333333  0.33333333  0.20000000       0.005
   0.44444444  0.33333333  0.20000000       0.005
  -0.33333333 -0.44444444 -0.20000000       0.005
  -0.44444444  0.33333333  0.20000000       0.005
  -0.33333333  0.44444444 -0.20000000       0.005
  -0.33333333  0.33333333  0.20000000       0.005
  -0.33333333  0.33333333 -0.20000000       0.005
  -0.22222222  0.33333333  0.20000000       0.005
  -0.33333333  0.22222222 -0.20000000       0.005
  -0.11111111  0.33333333  0.20000000       0.005
  -0.33333333  0.11111111 -0.20000000       0.005
   0.44444444  0.44444444  0.20000000       0.005
  -0.44444444  0.44444444  0.20000000       0.005
  -0.44444444  0.44444444 -0.20000000       0.005
  -0.33333333  0.44444444  0.20000000       0.005
  -0.44444444  0.33333333 -0.20000000       0.005
  -0.22222222  0.44444444  0.20000000       0.005
  -0.44444444  0.22222222 -0.20000000       0.005
  -0.11111111  0.44444444  0.20000000       0.005
  -0.44444444  0.11111111 -0.20000000       0.005
  -0.44444444 -0.44444444  0.20000000       0.005
  -0.33333333 -0.44444444  0.20000000       0.005
   0.44444444  0.33333333 -0.20000000       0.005
  -0.22222222 -0.44444444  0.20000000       0.005
   0.44444444  0.22222222 -0.20000000       0.005
  -0.11111111 -0.44444444  0.20000000       0.005
   0.44444444  0.11111111 -0.20000000       0.005
  -0.33333333 -0.33333333  0.20000000       0.005
  -0.22222222 -0.33333333  0.20000000       0.005
   0.33333333  0.22222222 -0.20000000       0.005
  -0.11111111 -0.33333333  0.20000000       0.005
   0.33333333  0.11111111 -0.20000000       0.005
  -0.22222222 -0.22222222  0.20000000       0.005
  -0.11111111 -0.22222222  0.20000000       0.005
   0.22222222  0.11111111 -0.20000000       0.005
  -0.11111111 -0.11111111  0.20000000       0.005
  -0.00000000  0.00000000  0.40000000       0.005
   0.11111111  0.00000000  0.40000000       0.005
   0.00000000 -0.11111111 -0.40000000       0.005
   0.22222222  0.00000000  0.40000000       0.005
  -0.00000000 -0.22222222 -0.40000000       0.005
   0.33333333 -0.00000000  0.40000000       0.005
  -0.00000000 -0.33333333 -0.40000000       0.005
   0.44444444  0.00000000  0.40000000       0.005
  -0.00000000 -0.44444444 -0.40000000       0.005
  -0.44444444 -0.00000000  0.40000000       0.005
   0.00000000  0.44444444 -0.40000000       0.005
  -0.33333333  0.00000000  0.40000000       0.005
  -0.00000000  0.33333333 -0.40000000       0.005
  -0.22222222  0.00000000  0.40000000       0.005
  -0.00000000  0.22222222 -0.40000000       0.005
  -0.11111111 -0.00000000  0.40000000       0.005
   0.00000000  0.11111111 -0.40000000       0.005
   0.11111111  0.11111111  0.40000000       0.005
   0.22222222  0.11111111  0.40000000       0.005
  -0.11111111 -0.22222222 -0.40000000       0.005
   0.33333333  0.11111111  0.40000000       0.005
  -0.11111111 -0.33333333 -0.40000000       0.005
   0.44444444  0.11111111  0.40000000       0.005
  -0.11111111 -0.44444444 -0.40000000       0.005
  -0.44444444  0.11111111  0.40000000       0.005
  -0.11111111  0.44444444 -0.40000000       0.005
  -0.33333333  0.11111111  0.40000000       0.005
  -0.11111111  0.33333333 -0.40000000       0.005
  -0.22222222  0.11111111  0.40000000       0.005
  -0.11111111  0.22222222 -0.40000000       0.005
  -0.11111111  0.11111111  0.40000000       0.005
  -0.11111111  0.11111111 -0.40000000       0.005
   0.22222222  0.22222222  0.40000000       0.005
   0.33333333  0.22222222  0.40000000       0.005
  -0.22222222 -0.33333333 -0.40000000       0.005
   0.44444444  0.22222222  0.40000000       0.005
  -0.22222222 -0.44444444 -0.40000000       0.005
  -0.44444444  0.22222222  0.40000000       0.005
  -0.22222222  0.44444444 -0.40000000       0.005
  -0.33333333  0.22222222  0.40000000       0.005
  -0.22222222  0.33333333 -0.40000000       0.005
  -0.22222222  0.22222222  0.40000000       0.005
  -0.22222222  0.22222222 -0.40000000       0.005
  -0.11111111  0.22222222  0.40000000       0.005
  -0.22222222  0.11111111 -0.40000000       0.005
   0.33333333  0.33333333  0.40000000       0.005
   0.44444444  0.33333333  0.40000000       0.005
  -0.33333333 -0.44444444 -0.40000000       0.005
  -0.44444444  0.33333333  0.40000000       0.005
  -0.33333333  0.44444444 -0.40000000       0.005
  -0.33333333  0.33333333  0.40000000       0.005
  -0.33333333  0.33333333 -0.40000000       0.005
  -0.22222222  0.33333333  0.40000000       0.005
  -0.33333333  0.22222222 -0.40000000       0.005
  -0.11111111  0.33333333  0.40000000       0.005
  -0.33333333  0.11111111 -0.40000000       0.005
   0.44444444  0.44444444  0.40000000       0.005
  -0.44444444  0.44444444  0.40000000       0.005
  -0.44444444  0.44444444 -0.40000000       0.005
  -0.33333333  0.44444444  0.40000000       0.005
  -0.44444444  0.33333333 -0.40000000       0.005
  -0.22222222  0.44444444  0.40000000       0.005
  -0.44444444  0.22222222 -0.40000000       0.005
  -0.11111111  0.44444444  0.40000000       0.005
  -0.44444444  0.11111111 -0.40000000       0.005
  -0.44444444 -0.44444444  0.40000000       0.005
  -0.33333333 -0.44444444  0.40000000       0.005
   0.44444444  0.33333333 -0.40000000       0.005
  -0.22222222 -0.44444444  0.40000000       0.005
   0.44444444  0.22222222 -0.40000000       0.005
  -0.11111111 -0.44444444  0.40000000       0.005
   0.44444444  0.11111111 -0.40000000       0.005
  -0.33333333 -0.33333333  0.40000000       0.005
  -0.22222222 -0.33333333  0.40000000       0.005
   0.33333333  0.22222222 -0.40000000       0.005
  -0.11111111 -0.33333333  0.40000000       0.005
   0.33333333  0.11111111 -0.40000000       0.005
  -0.22222222 -0.22222222  0.40000000       0.005
  -0.11111111 -0.22222222  0.40000000       0.005
   0.22222222  0.11111111 -0.40000000       0.005
  -0.11111111 -0.11111111  0.40000000       0.005
 
 position of ions in fractional coordinates (direct lattice) 
   0.35464954  0.85464968  0.21097410
   0.64539536  0.14539521  0.78899996
   0.00011740  0.50011742  0.50005924
   0.16252922  0.66252871  0.82468145
   0.83747157  0.33747206  0.17530996
   0.99996058  0.99987635  0.49998766
   0.49987633  0.49996057  0.49998763
 
 position of ions in cartesian coordinates  (Angst):
  -2.61403526  1.30998139 -1.24005715
  -0.00201272 -1.30997982 -4.64278701
   0.00123686  1.30998143 -2.94254741
   0.00181217  1.30998053 -4.85275336
  -2.61758357 -1.30997897 -1.03019299
  -3.92661552 -0.00021981 -2.94002517
  -1.30747764  0.00022150 -2.94142592
 


--------------------------------------------------------------------------------------------------------


 k-point   1 :   0.0000 0.0000 0.0000  plane waves:    2161
 k-point   2 :   0.1111 0.0000-0.0000  plane waves:    2160
 k-point   3 :  -0.0000-0.1111 0.0000  plane waves:    2160
 k-point   4 :   0.2222 0.0000 0.0000  plane waves:    2167
 k-point   5 :   0.0000-0.2222-0.0000  plane waves:    2167
 k-point   6 :   0.3333-0.0000 0.0000  plane waves:    2173
 k-point   7 :  -0.0000-0.3333-0.0000  plane waves:    2173
 k-point   8 :   0.4444 0.0000-0.0000  plane waves:    2169
 k-point   9 :  -0.0000-0.4444 0.0000  plane waves:    2169
 k-point  10 :   0.1111 0.1111-0.0000  plane waves:    2155
 k-point  11 :   0.2222 0.1111-0.0000  plane waves:    2165
 k-point  12 :  -0.1111-0.2222-0.0000  plane waves:    2165
 k-point  13 :   0.3333 0.1111 0.0000  plane waves:    2173
 k-point  14 :  -0.1111-0.3333-0.0000  plane waves:    2173
 k-point  15 :   0.4444 0.1111-0.0000  plane waves:    2173
 k-point  16 :  -0.1111-0.4444 0.0000  plane waves:    2173
 k-point  17 :  -0.4444 0.1111 0.0000  plane waves:    2171
 k-point  18 :  -0.1111 0.4444-0.0000  plane waves:    2171
 k-point  19 :  -0.3333 0.1111 0.0000  plane waves:    2166
 k-point  20 :  -0.1111 0.3333 0.0000  plane waves:    2166
 k-point  21 :  -0.2222 0.1111-0.0000  plane waves:    2158
 k-point  22 :  -0.1111 0.2222 0.0000  plane waves:    2158
 k-point  23 :  -0.1111 0.1111 0.0000  plane waves:    2159
 k-point  24 :   0.2222 0.2222 0.0000  plane waves:    2171
 k-point  25 :   0.3333 0.2222 0.0000  plane waves:    2177
 k-point  26 :  -0.2222-0.3333 0.0000  plane waves:    2177
 k-point  27 :   0.4444 0.2222-0.0000  plane waves:    2179
 k-point  28 :  -0.2222-0.4444-0.0000  plane waves:    2179
 k-point  29 :  -0.4444 0.2222 0.0000  plane waves:    2173
 k-point  30 :  -0.2222 0.4444-0.0000  plane waves:    2173
 k-point  31 :  -0.3333 0.2222 0.0000  plane waves:    2168
 k-point  32 :  -0.2222 0.3333-0.0000  plane waves:    2168
 k-point  33 :  -0.2222 0.2222-0.0000  plane waves:    2160
 k-point  34 :   0.3333 0.3333-0.0000  plane waves:    2178
 k-point  35 :   0.4444 0.3333-0.0000  plane waves:    2182
 k-point  36 :  -0.3333-0.4444-0.0000  plane waves:    2182
 k-point  37 :  -0.4444 0.3333-0.0000  plane waves:    2179
 k-point  38 :  -0.3333 0.4444 0.0000  plane waves:    2179
 k-point  39 :  -0.3333 0.3333 0.0000  plane waves:    2188
 k-point  40 :   0.4444 0.4444-0.0000  plane waves:    2182
 k-point  41 :  -0.4444 0.4444-0.0000  plane waves:    2168
 k-point  42 :  -0.0000 0.0000 0.2000  plane waves:    2190
 k-point  43 :   0.1111 0.0000 0.2000  plane waves:    2166
 k-point  44 :  -0.0000-0.1111-0.2000  plane waves:    2166
 k-point  45 :   0.2222 0.0000 0.2000  plane waves:    2173
 k-point  46 :  -0.0000-0.2222-0.2000  plane waves:    2173
 k-point  47 :   0.3333 0.0000 0.2000  plane waves:    2167
 k-point  48 :  -0.0000-0.3333-0.2000  plane waves:    2167
 k-point  49 :   0.4444 0.0000 0.2000  plane waves:    2180
 k-point  50 :   0.0000-0.4444-0.2000  plane waves:    2180
 k-point  51 :  -0.4444-0.0000 0.2000  plane waves:    2175
 k-point  52 :  -0.0000 0.4444-0.2000  plane waves:    2175
 k-point  53 :  -0.3333 0.0000 0.2000  plane waves:    2163
 k-point  54 :   0.0000 0.3333-0.2000  plane waves:    2163
 k-point  55 :  -0.2222-0.0000 0.2000  plane waves:    2159
 k-point  56 :   0.0000 0.2222-0.2000  plane waves:    2159
 k-point  57 :  -0.1111-0.0000 0.2000  plane waves:    2174
 k-point  58 :   0.0000 0.1111-0.2000  plane waves:    2174
 k-point  59 :   0.1111 0.1111 0.2000  plane waves:    2165
 k-point  60 :   0.2222 0.1111 0.2000  plane waves:    2171
 k-point  61 :  -0.1111-0.2222-0.2000  plane waves:    2171
 k-point  62 :   0.3333 0.1111 0.2000  plane waves:    2172
 k-point  63 :  -0.1111-0.3333-0.2000  plane waves:    2172
 k-point  64 :   0.4444 0.1111 0.2000  plane waves:    2178
 k-point  65 :  -0.1111-0.4444-0.2000  plane waves:    2178
 k-point  66 :  -0.4444 0.1111 0.2000  plane waves:    2175
 k-point  67 :  -0.1111 0.4444-0.2000  plane waves:    2175
 k-point  68 :  -0.3333 0.1111 0.2000  plane waves:    2164
 k-point  69 :  -0.1111 0.3333-0.2000  plane waves:    2164
 k-point  70 :  -0.2222 0.1111 0.2000  plane waves:    2163
 k-point  71 :  -0.1111 0.2222-0.2000  plane waves:    2163
 k-point  72 :  -0.1111 0.1111 0.2000  plane waves:    2165
 k-point  73 :  -0.1111 0.1111-0.2000  plane waves:    2165
 k-point  74 :   0.2222 0.2222 0.2000  plane waves:    2187
 k-point  75 :   0.3333 0.2222 0.2000  plane waves:    2189
 k-point  76 :  -0.2222-0.3333-0.2000  plane waves:    2189
 k-point  77 :   0.4444 0.2222 0.2000  plane waves:    2187
 k-point  78 :  -0.2222-0.4444-0.2000  plane waves:    2187
 k-point  79 :  -0.4444 0.2222 0.2000  plane waves:    2174
 k-point  80 :  -0.2222 0.4444-0.2000  plane waves:    2174
 k-point  81 :  -0.3333 0.2222 0.2000  plane waves:    2172
 k-point  82 :  -0.2222 0.3333-0.2000  plane waves:    2172
 k-point  83 :  -0.2222 0.2222 0.2000  plane waves:    2165
 k-point  84 :  -0.2222 0.2222-0.2000  plane waves:    2165
 k-point  85 :  -0.1111 0.2222 0.2000  plane waves:    2175
 k-point  86 :  -0.2222 0.1111-0.2000  plane waves:    2175
 k-point  87 :   0.3333 0.3333 0.2000  plane waves:    2191
 k-point  88 :   0.4444 0.3333 0.2000  plane waves:    2186
 k-point  89 :  -0.3333-0.4444-0.2000  plane waves:    2186
 k-point  90 :  -0.4444 0.3333 0.2000  plane waves:    2186
 k-point  91 :  -0.3333 0.4444-0.2000  plane waves:    2186
 k-point  92 :  -0.3333 0.3333 0.2000  plane waves:    2185
 k-point  93 :  -0.3333 0.3333-0.2000  plane waves:    2185
 k-point  94 :  -0.2222 0.3333 0.2000  plane waves:    2177
 k-point  95 :  -0.3333 0.2222-0.2000  plane waves:    2177
 k-point  96 :  -0.1111 0.3333 0.2000  plane waves:    2171
 k-point  97 :  -0.3333 0.1111-0.2000  plane waves:    2171
 k-point  98 :   0.4444 0.4444 0.2000  plane waves:    2179
 k-point  99 :  -0.4444 0.4444 0.2000  plane waves:    2177
 k-point 100 :  -0.4444 0.4444-0.2000  plane waves:    2177
 k-point 101 :  -0.3333 0.4444 0.2000  plane waves:    2179
 k-point 102 :  -0.4444 0.3333-0.2000  plane waves:    2179
 k-point 103 :  -0.2222 0.4444 0.2000  plane waves:    2180
 k-point 104 :  -0.4444 0.2222-0.2000  plane waves:    2180
 k-point 105 :  -0.1111 0.4444 0.2000  plane waves:    2185
 k-point 106 :  -0.4444 0.1111-0.2000  plane waves:    2185
 k-point 107 :  -0.4444-0.4444 0.2000  plane waves:    2181
 k-point 108 :  -0.3333-0.4444 0.2000  plane waves:    2189
 k-point 109 :   0.4444 0.3333-0.2000  plane waves:    2189
 k-point 110 :  -0.2222-0.4444 0.2000  plane waves:    2169
 k-point 111 :   0.4444 0.2222-0.2000  plane waves:    2169
 k-point 112 :  -0.1111-0.4444 0.2000  plane waves:    2171
 k-point 113 :   0.4444 0.1111-0.2000  plane waves:    2171
 k-point 114 :  -0.3333-0.3333 0.2000  plane waves:    2189
 k-point 115 :  -0.2222-0.3333 0.2000  plane waves:    2168
 k-point 116 :   0.3333 0.2222-0.2000  plane waves:    2168
 k-point 117 :  -0.1111-0.3333 0.2000  plane waves:    2161
 k-point 118 :   0.3333 0.1111-0.2000  plane waves:    2161
 k-point 119 :  -0.2222-0.2222 0.2000  plane waves:    2161
 k-point 120 :  -0.1111-0.2222 0.2000  plane waves:    2157
 k-point 121 :   0.2222 0.1111-0.2000  plane waves:    2157
 k-point 122 :  -0.1111-0.1111 0.2000  plane waves:    2159
 k-point 123 :  -0.0000 0.0000 0.4000  plane waves:    2158
 k-point 124 :   0.1111 0.0000 0.4000  plane waves:    2164
 k-point 125 :   0.0000-0.1111-0.4000  plane waves:    2164
 k-point 126 :   0.2222 0.0000 0.4000  plane waves:    2171
 k-point 127 :  -0.0000-0.2222-0.4000  plane waves:    2171
 k-point 128 :   0.3333-0.0000 0.4000  plane waves:    2171
 k-point 129 :  -0.0000-0.3333-0.4000  plane waves:    2171
 k-point 130 :   0.4444 0.0000 0.4000  plane waves:    2176
 k-point 131 :  -0.0000-0.4444-0.4000  plane waves:    2176
 k-point 132 :  -0.4444-0.0000 0.4000  plane waves:    2167
 k-point 133 :   0.0000 0.4444-0.4000  plane waves:    2167
 k-point 134 :  -0.3333 0.0000 0.4000  plane waves:    2177
 k-point 135 :  -0.0000 0.3333-0.4000  plane waves:    2177
 k-point 136 :  -0.2222 0.0000 0.4000  plane waves:    2171
 k-point 137 :  -0.0000 0.2222-0.4000  plane waves:    2171
 k-point 138 :  -0.1111-0.0000 0.4000  plane waves:    2171
 k-point 139 :   0.0000 0.1111-0.4000  plane waves:    2171
 k-point 140 :   0.1111 0.1111 0.4000  plane waves:    2170
 k-point 141 :   0.2222 0.1111 0.4000  plane waves:    2170
 k-point 142 :  -0.1111-0.2222-0.4000  plane waves:    2170
 k-point 143 :   0.3333 0.1111 0.4000  plane waves:    2175
 k-point 144 :  -0.1111-0.3333-0.4000  plane waves:    2175
 k-point 145 :   0.4444 0.1111 0.4000  plane waves:    2177
 k-point 146 :  -0.1111-0.4444-0.4000  plane waves:    2177
 k-point 147 :  -0.4444 0.1111 0.4000  plane waves:    2167
 k-point 148 :  -0.1111 0.4444-0.4000  plane waves:    2167
 k-point 149 :  -0.3333 0.1111 0.4000  plane waves:    2166
 k-point 150 :  -0.1111 0.3333-0.4000  plane waves:    2166
 k-point 151 :  -0.2222 0.1111 0.4000  plane waves:    2172
 k-point 152 :  -0.1111 0.2222-0.4000  plane waves:    2172
 k-point 153 :  -0.1111 0.1111 0.4000  plane waves:    2170
 k-point 154 :  -0.1111 0.1111-0.4000  plane waves:    2170
 k-point 155 :   0.2222 0.2222 0.4000  plane waves:    2176
 k-point 156 :   0.3333 0.2222 0.4000  plane waves:    2181
 k-point 157 :  -0.2222-0.3333-0.4000  plane waves:    2181
 k-point 158 :   0.4444 0.2222 0.4000  plane waves:    2181
 k-point 159 :  -0.2222-0.4444-0.4000  plane waves:    2181
 k-point 160 :  -0.4444 0.2222 0.4000  plane waves:    2181
 k-point 161 :  -0.2222 0.4444-0.4000  plane waves:    2181
 k-point 162 :  -0.3333 0.2222 0.4000  plane waves:    2182
 k-point 163 :  -0.2222 0.3333-0.4000  plane waves:    2182
 k-point 164 :  -0.2222 0.2222 0.4000  plane waves:    2182
 k-point 165 :  -0.2222 0.2222-0.4000  plane waves:    2182
 k-point 166 :  -0.1111 0.2222 0.4000  plane waves:    2168
 k-point 167 :  -0.2222 0.1111-0.4000  plane waves:    2168
 k-point 168 :   0.3333 0.3333 0.4000  plane waves:    2177
 k-point 169 :   0.4444 0.3333 0.4000  plane waves:    2190
 k-point 170 :  -0.3333-0.4444-0.4000  plane waves:    2190
 k-point 171 :  -0.4444 0.3333 0.4000  plane waves:    2181
 k-point 172 :  -0.3333 0.4444-0.4000  plane waves:    2181
[...]
     12     -15.0986      1.00000
     13     -14.6417      1.00000
     14     -13.2791      1.00000
     15     -13.1438      1.00000
     16      -1.5496      1.00000
     17      -0.9318      1.00000
     18      -0.3785      1.00000
     19       0.0204      1.00000
     20       0.1534      1.00000
     21       0.5647      1.00000
     22       1.5569      1.00000
     23       1.6496      1.00000
     24       2.1774      1.00000
     25       2.4241      1.00000
     26       2.7526      1.00000
     27       3.0394      1.00000
     28       3.2563      1.00000
     29       6.2404      0.00000
     30       6.4067      0.00000
     31       6.8889      0.00000
     32       7.7224      0.00000
     33       9.7296      0.00000
     34      10.1551      0.00000
     35      10.8477      0.00000
     36      11.1212      0.00000

 k-point   202 :       0.2222    0.1111   -0.4000
  band No.  band energies     occupation 
      1     -46.0960      1.00000
      2     -46.0918      1.00000
      3     -45.2134      1.00000
      4     -36.3060      1.00000
      5     -36.2755      1.00000
      6     -17.2024      1.00000
      7     -16.7577      1.00000
      8     -16.5081      1.00000
      9     -16.4823      1.00000
     10     -16.3779      1.00000
     11     -16.3601      1.00000
     12     -15.0985      1.00000
     13     -14.6417      1.00000
     14     -13.2791      1.00000
     15     -13.1438      1.00000
     16      -1.5496      1.00000
     17      -0.9320      1.00000
     18      -0.3785      1.00000
     19       0.0204      1.00000
     20       0.1534      1.00000
     21       0.5647      1.00000
     22       1.5569      1.00000
     23       1.6496      1.00000
     24       2.1775      1.00000
     25       2.4241      1.00000
     26       2.7526      1.00000
     27       3.0394      1.00000
     28       3.2563      1.00000
     29       6.2405      0.00000
     30       6.4068      0.00000
     31       6.8888      0.00000
     32       7.7225      0.00000
     33       9.7296      0.00000
     34      10.1551      0.00000
     35      10.8477      0.00000
     36      11.1212      0.00000

 k-point   203 :      -0.1111   -0.1111    0.4000
  band No.  band energies     occupation 
      1     -46.0924      1.00000
      2     -46.0917      1.00000
      3     -45.2136      1.00000
      4     -36.3099      1.00000
      5     -36.2791      1.00000
      6     -17.2817      1.00000
      7     -16.6619      1.00000
      8     -16.4770      1.00000
      9     -16.4163      1.00000
     10     -16.3729      1.00000
     11     -16.3631      1.00000
     12     -15.1816      1.00000
     13     -14.6818      1.00000
     14     -13.3412      1.00000
     15     -13.2322      1.00000
     16      -1.1571      1.00000
     17      -0.8503      1.00000
     18      -0.1414      1.00000
     19       0.0876      1.00000
     20       0.7181      1.00000
     21       0.8918      1.00000
     22       1.6781      1.00000
     23       1.7948      1.00000
     24       2.4084      1.00000
     25       2.4373      1.00000
     26       2.7239      1.00000
     27       2.7803      1.00000
     28       2.8523      1.00000
     29       6.2323      0.00000
     30       6.2585      0.00000
     31       6.7516      0.00000
     32       7.0119      0.00000
     33       9.1660      0.00000
     34       9.8035      0.00000
     35      10.8185      0.00000
     36      10.8513      0.00000


--------------------------------------------------------------------------------------------------------


 soft charge-density along one line, spin component           1
         0         1         2         3         4         5         6         7         8         9
 total charge-density along one line
 
 soft charge-density along one line, spin component           2
         0         1         2         3         4         5         6         7         8         9
 total charge-density along one line
 
 pseudopotential strength for first ion, spin component:           1
-18.032  -5.067  -0.000   0.013  -0.000   0.000  -0.004   0.000
 -5.067  -1.737  -0.000   0.005  -0.000   0.000  -0.018  -0.000
 -0.000  -0.000 -19.199  -0.000   0.000   6.125   0.000  -0.000
  0.013   0.005  -0.000 -19.169  -0.000   0.000   6.109   0.000
 -0.000  -0.000   0.000  -0.000 -19.199  -0.000   0.000   6.125
  0.000   0.000   6.125   0.000  -0.000   9.136   0.000  -0.000
 -0.004  -0.018   0.000   6.109   0.000   0.000   9.072   0.000
  0.000  -0.000  -0.000   0.000   6.125  -0.000   0.000   9.136
  0.000  -0.000  -0.000  -0.000  -0.000   0.000   0.000   0.000
 -0.000   0.000   0.001  -0.000  -0.000  -0.008   0.000   0.000
  0.018  -0.009  -0.000   0.023   0.000  -0.000  -0.046  -0.000
 -0.000   0.000  -0.000  -0.000   0.001   0.000   0.000  -0.008
  0.000   0.000   0.000  -0.000  -0.000  -0.000   0.000  -0.000
  0.000  -0.000  -0.001  -0.000  -0.000   0.000   0.000   0.000
 -0.000   0.000   0.001  -0.000  -0.000  -0.007   0.000   0.000
  0.021  -0.004   0.000   0.027   0.000  -0.000  -0.032  -0.000
 -0.000   0.000  -0.000  -0.000   0.001   0.000   0.000  -0.007
 -0.000   0.000   0.000  -0.000  -0.000  -0.000   0.000  -0.000
 pseudopotential strength for first ion, spin component:           2
-18.031  -5.066  -0.000   0.013  -0.000   0.000  -0.005   0.000
 -5.066  -1.739  -0.000   0.005  -0.000  -0.000  -0.017  -0.000
 -0.000  -0.000 -19.195  -0.000   0.000   6.123   0.000  -0.000
  0.013   0.005  -0.000 -19.169  -0.000   0.000   6.110   0.000
 -0.000  -0.000   0.000  -0.000 -19.195  -0.000   0.000   6.123
  0.000  -0.000   6.123   0.000  -0.000   9.136   0.000  -0.000
 -0.005  -0.017   0.000   6.110   0.000   0.000   9.069   0.001
  0.000  -0.000  -0.000   0.000   6.123  -0.000   0.001   9.135
  0.000  -0.000  -0.001  -0.000  -0.000   0.000   0.000  -0.000
 -0.000   0.000   0.002  -0.000  -0.000  -0.009   0.000   0.000
  0.017  -0.009  -0.000   0.022   0.000   0.000  -0.042  -0.000
 -0.000   0.000  -0.000  -0.000   0.002   0.000   0.000  -0.009
  0.000  -0.000   0.000  -0.000  -0.000   0.000   0.000   0.000
  0.000  -0.000  -0.001  -0.000  -0.000   0.000   0.000   0.000
 -0.000   0.000   0.003  -0.000  -0.000  -0.007   0.000   0.000
  0.018  -0.005  -0.000   0.026   0.000  -0.000  -0.029  -0.000
 -0.000   0.000  -0.000  -0.000   0.003   0.000   0.000  -0.007
 -0.000  -0.000   0.000  -0.000  -0.000  -0.000   0.000  -0.000
 total augmentation occupancy for first ion, spin component:           1
  2.003   0.011   0.000  -0.001   0.000   0.000  -0.001   0.000   0.000   0.000  -0.002  -0.000   0.000  -0.000   0.000  -0.001
  0.011   0.424   0.000  -0.012   0.000  -0.000   0.011   0.000   0.000  -0.000   0.092  -0.001  -0.000  -0.000   0.000  -0.058
  0.000   0.000   2.007  -0.000   0.000   0.002   0.000  -0.000   0.000   0.005  -0.000   0.000  -0.000  -0.000  -0.003   0.000
 -0.001  -0.012  -0.000   2.007  -0.000   0.000  -0.002   0.000   0.000   0.000  -0.021   0.000   0.000  -0.000   0.000   0.006
  0.000   0.000   0.000  -0.000   2.007  -0.000   0.000   0.002  -0.000   0.000   0.000   0.005  -0.000   0.000  -0.000  -0.000
  0.000  -0.000   0.002   0.000  -0.000   0.025  -0.000   0.000  -0.000  -0.017   0.000  -0.000   0.000   0.000   0.011  -0.000
 -0.001   0.011   0.000  -0.002   0.000  -0.000   0.034  -0.000  -0.000   0.000   0.044  -0.000  -0.000   0.000  -0.000  -0.026
  0.000   0.000  -0.000   0.000   0.002   0.000  -0.000   0.025   0.000  -0.000  -0.000  -0.017   0.001  -0.000   0.000   0.000
  0.000   0.000   0.000   0.000  -0.000  -0.000  -0.000   0.000   0.174  -0.001   0.000  -0.000   0.000  -0.096   0.000  -0.000
  0.000  -0.000   0.005   0.000   0.000  -0.017   0.000  -0.000  -0.001   0.273  -0.000   0.000   0.000   0.000  -0.154   0.000
 -0.002   0.092  -0.000  -0.021   0.000   0.000   0.044  -0.000   0.000  -0.000   0.427  -0.002   0.000  -0.000   0.000  -0.243
 -0.000  -0.001   0.000   0.000   0.005  -0.000  -0.000  -0.017  -0.000   0.000  -0.002   0.273   0.001   0.000  -0.000   0.001
  0.000  -0.000  -0.000   0.000  -0.000   0.000  -0.000   0.001   0.000   0.000   0.000   0.001   0.301  -0.000  -0.000  -0.000
 -0.000  -0.000  -0.000  -0.000   0.000   0.000   0.000  -0.000  -0.096   0.000  -0.000   0.000  -0.000   0.054  -0.000   0.000
  0.000   0.000  -0.003   0.000  -0.000   0.011  -0.000   0.000   0.000  -0.154   0.000  -0.000  -0.000  -0.000   0.087  -0.000
 -0.001  -0.058   0.000   0.006  -0.000  -0.000  -0.026   0.000  -0.000   0.000  -0.243   0.001  -0.000   0.000  -0.000   0.141
  0.000   0.000  -0.000  -0.000  -0.003   0.000   0.000   0.011   0.000  -0.000   0.001  -0.153  -0.000  -0.000   0.000  -0.001
 -0.000   0.000   0.000  -0.000   0.000  -0.000   0.000  -0.000  -0.000  -0.000  -0.000  -0.000  -0.165   0.000   0.000   0.000
 total augmentation occupancy for first ion, spin component:           2
  0.000   0.000   0.000   0.000   0.000   0.000  -0.000   0.000   0.000  -0.000   0.000   0.000  -0.000  -0.000   0.000  -0.000
  0.000   0.002   0.000  -0.000   0.000  -0.000   0.001  -0.000   0.000   0.000  -0.005   0.000   0.000  -0.000  -0.000   0.002
  0.000   0.000   0.000   0.000  -0.000  -0.000  -0.000   0.000   0.000  -0.000   0.000  -0.000   0.000  -0.000   0.000  -0.000
  0.000  -0.000   0.000  -0.000   0.000  -0.000   0.000  -0.000  -0.000  -0.000  -0.000  -0.000  -0.000   0.000   0.000  -0.000
  0.000   0.000  -0.000   0.000   0.000   0.000  -0.000  -0.000   0.000  -0.000  -0.000  -0.000   0.000  -0.000   0.000   0.000
  0.000  -0.000  -0.000  -0.000   0.000   0.000   0.000   0.000   0.000   0.000  -0.000   0.000   0.000  -0.000  -0.000   0.000
 -0.000   0.001  -0.000   0.000  -0.000   0.000  -0.001   0.000  -0.000   0.000   0.001   0.000  -0.000  -0.000  -0.000  -0.000
  0.000  -0.000   0.000  -0.000  -0.000   0.000   0.000   0.000  -0.000   0.000  -0.000   0.000   0.000   0.000  -0.000   0.000
  0.000   0.000   0.000  -0.000   0.000   0.000  -0.000  -0.000   0.009  -0.000  -0.000   0.000   0.000  -0.004   0.000   0.000
 -0.000   0.000  -0.000  -0.000  -0.000   0.000   0.000   0.000  -0.000   0.000   0.000  -0.000  -0.000   0.000  -0.000  -0.000
  0.000  -0.005   0.000  -0.000  -0.000  -0.000   0.001  -0.000  -0.000   0.000  -0.003  -0.000  -0.000   0.000  -0.000   0.001
  0.000   0.000  -0.000  -0.000  -0.000   0.000   0.000   0.000   0.000  -0.000  -0.000   0.000   0.000  -0.000   0.000   0.000
 -0.000   0.000   0.000  -0.000   0.000   0.000  -0.000   0.000   0.000  -0.000  -0.000   0.000  -0.002  -0.000   0.000   0.000
 -0.000  -0.000  -0.000   0.000  -0.000  -0.000  -0.000   0.000  -0.004   0.000   0.000  -0.000  -0.000   0.001  -0.000  -0.000
  0.000  -0.000   0.000   0.000   0.000  -0.000  -0.000  -0.000   0.000  -0.000  -0.000   0.000   0.000  -0.000   0.000   0.000
 -0.000   0.002  -0.000  -0.000   0.000   0.000  -0.000   0.000   0.000  -0.000   0.001   0.000   0.000  -0.000   0.000  -0.000
 -0.000  -0.000   0.000   0.000   0.000  -0.000  -0.000  -0.000  -0.000   0.000   0.000  -0.000  -0.000   0.000  -0.000  -0.000
  0.000  -0.000  -0.000   0.000  -0.000  -0.000   0.000  -0.000  -0.000   0.000   0.000  -0.000   0.001   0.000  -0.000  -0.000


------------------------ aborting loop because EDIFF is reached ----------------------------------------


 


 total charge     
 
# of ion       s       p       d       tot
------------------------------------------
    1        2.022   5.867   0.245   8.134
    2        2.022   5.867   0.245   8.134
    3        0.395   6.512   4.919  11.825
    4        1.565   3.474   0.000   5.039
    5        1.565   3.474   0.000   5.039
    6        1.573   3.555   0.000   5.128
    7        1.573   3.555   0.000   5.128
--------------------------------------------------
tot         10.715  32.304   5.409  48.427
 


 magnetization (x)
 
# of ion       s       p       d       tot
------------------------------------------
    1        0.000   0.000   0.001   0.001
    2        0.000   0.000   0.001   0.001
    3       -0.000   0.008   1.358   1.365
    4        0.002   0.061   0.000   0.062
    5        0.002   0.061   0.000   0.062
    6       -0.002  -0.035   0.000  -0.037
    7       -0.002  -0.035   0.000  -0.037
--------------------------------------------------
tot         -0.000   0.060   1.360   1.419
 
    CHARGE:  cpu time    0.5597: real time    0.5597
    FORLOC:  cpu time    0.0019: real time    0.0019
    FORNL :  cpu time    3.8365: real time    3.8367
    STRESS:  cpu time   85.7825: real time   85.7868
    FORCOR:  cpu time    0.0644: real time    0.0644
    FORHAR:  cpu time    0.0054: real time    0.0054
    MIXING:  cpu time    0.0019: real time    0.0019
    OFIELD:  cpu time    0.0000: real time    0.0000

  FORCE on cell =-STRESS in cart. coord.  units (eV):
  Direction    XX          YY          ZZ          XY          YZ          ZX
  --------------------------------------------------------------------------------------
  Alpha Z   312.38712   312.38712   312.38712
  Ewald   -1167.50827 -1166.73826 -1750.23037     0.00833     0.00486    -2.87306
  Hartree   706.18578   706.64292   178.92951     0.00397     0.00411    -1.85374
  E(xc)    -306.87821  -306.87624  -306.65360     0.00005    -0.00002    -0.00366
  Local    -452.32183  -453.57010   651.79614    -0.01256    -0.00831     4.71986
  n-local  -193.90041  -193.90986  -195.74371     0.00001     0.00021    -0.00183
  augment   190.44263   190.40746   191.61913     0.00003    -0.00060    -0.05321
  Kinetic   911.70522   911.78769   917.91512     0.00037    -0.00112     0.06914
  Fock        0.00000     0.00000     0.00000     0.00000     0.00000     0.00000
  -------------------------------------------------------------------------------------
  Total       0.11203     0.13073     0.01934     0.00020    -0.00088     0.00350
  in kB       2.23919     2.61305     0.38667     0.00404    -0.01751     0.06993
  external pressure =        1.75 kB  Pullay stress =        0.00 kB


 VOLUME and BASIS-vectors are now :
 -----------------------------------------------------------------------------
  energy-cutoff  :      520.00
  volume of cell :       80.16
      direct lattice vectors                 reciprocal lattice vectors
    -2.606363975 -2.604464502  0.001964470    -0.191902271 -0.191977853 -0.084841997
    -2.606390503  2.604483886  0.001992294    -0.191900844  0.191976805 -0.084843594
     2.611151215 -0.000034259 -5.906028712    -0.000128565  0.000000904 -0.169375354

  length of vectors
     3.684612920  3.684645402  6.457498418     0.284394343  0.284393149  0.169375403


 FORCES acting on ions
    electron-ion (+dipol)            ewald-force                    non-local-force                 convergence-correction
 -----------------------------------------------------------------------------------------------
   0.745E+00 0.114E-02 -.285E+03   -.747E+00 -.128E-02 0.286E+03   0.148E-02 0.108E-03 -.101E+01   0.230E-04 -.100E-05 0.236E-03
   -.773E+00 -.154E-02 0.285E+03   0.770E+00 0.169E-02 -.286E+03   0.404E-02 -.968E-04 0.101E+01   -.280E-04 0.114E-05 -.252E-03
   -.424E+00 0.533E-03 -.197E-01   0.442E+00 -.491E-03 0.215E-01   -.197E-01 -.505E-04 -.326E-02   -.128E-04 0.458E-06 0.202E-04
   0.915E+00 -.103E-02 0.276E+03   -.989E+00 0.790E-03 -.285E+03   0.734E-01 0.231E-04 0.853E+01   -.212E-04 0.320E-06 -.878E-03
   -.972E+00 0.125E-02 -.276E+03   0.105E+01 -.103E-02 0.285E+03   -.752E-01 -.363E-03 -.853E+01   0.281E-04 -.179E-05 0.873E-03
   0.234E+00 -.318E+00 0.562E-02   -.262E+00 0.354E+00 -.738E-02   0.288E-01 -.368E-01 0.208E-02   0.944E-06 0.385E-05 0.325E-04
   0.233E+00 0.317E+00 0.544E-02   -.262E+00 -.354E+00 -.719E-02   0.288E-01 0.368E-01 0.206E-02   0.190E-05 -.333E-05 0.325E-04
 -----------------------------------------------------------------------------------------------
   -.414E-01 0.584E-04 0.120E-02   -.294E-14 -.389E-15 0.142E-12   0.416E-01 -.408E-03 -.872E-03   -.795E-05 -.357E-06 0.643E-04
 
 
 POSITION                                       TOTAL-FORCE (eV/Angst)
 -----------------------------------------------------------------------------------
     -2.59996      1.30225     -1.22916        -0.000112      0.000009      0.018650
     -0.00200     -1.30226     -4.67288         0.000920      0.000101     -0.018160
      0.00204      1.30223     -2.95199        -0.001087      0.000041     -0.001483
      0.00279      1.30220     -4.87021        -0.001262     -0.000169      0.028792
     -2.60442     -1.30221     -1.03185         0.001194     -0.000090     -0.028377
     -3.90682     -0.00011     -2.94909         0.000165      0.000015      0.000290
     -1.30045      0.00011     -2.95107         0.000183      0.000093      0.000288
 -----------------------------------------------------------------------------------
    total drift:                                0.000108     -0.000350      0.000388


--------------------------------------------------------------------------------------------------------



  FREE ENERGIE OF THE ION-ELECTRON SYSTEM (eV)
  ---------------------------------------------------
  free  energy   TOTEN  =       -79.27908154 eV

  energy  without entropy=      -79.27422232  energy(sigma->0) =      -79.27665193
 
 d Force = 0.2611134E-07[-0.602E-04, 0.603E-04]  d Energy = 0.9654092E-04-0.965E-04
 d Force =-0.1264887E+01[-0.127E+01,-0.126E+01]  d Ewald  = 0.1043818E+00-0.137E+01


--------------------------------------------------------------------------------------------------------


    POTLOK:  cpu time    1.2382: real time    1.2382


--------------------------------------------------------------------------------------------------------




--------------------------------------------------------------------------------------------------------


  
 reached required accuracy - stopping structural energy minimisation
     LOOP+:  cpu time  519.2003: real time  519.2199
    4ORBIT:  cpu time    0.0000: real time    0.0000
 


 total charge     
 
# of ion       s       p       d       tot
------------------------------------------
    1        2.022   5.867   0.245   8.134
    2        2.022   5.867   0.245   8.134
    3        0.395   6.512   4.919  11.825
    4        1.565   3.474   0.000   5.039
    5        1.565   3.474   0.000   5.039
    6        1.573   3.555   0.000   5.128
    7        1.573   3.555   0.000   5.128
--------------------------------------------------
tot         10.715  32.304   5.409  48.427
 


 magnetization (x)
 
# of ion       s       p       d       tot
------------------------------------------
    1        0.000   0.000   0.001   0.001
    2        0.000   0.000   0.001   0.001
    3       -0.000   0.008   1.358   1.365
    4        0.002   0.061   0.000   0.062
    5        0.002   0.061   0.000   0.062
    6       -0.002  -0.035   0.000  -0.037
    7       -0.002  -0.035   0.000  -0.037
--------------------------------------------------
tot         -0.000   0.060   1.360   1.419
 

 total amount of memory used by VASP MPI-rank0    82631. kBytes
=======================================================================

   base      :      30000. kBytes
   nonlr-proj:       2039. kBytes
   fftplans  :       1191. kBytes
   grid      :       4205. kBytes
   one-center:         62. kBytes
   wavefun   :      45134. kBytes
 
  
  
 General timing and accounting informations for this job:
 ========================================================
  
                  Total CPU time used (sec):     5345.057
                            User time (sec):     5343.857
                          System time (sec):        1.200
                         Elapsed time (sec):     5345.861
  
                   Maximum memory used (kb):      504768.
                   Average memory used (kb):           0.
  
                          Minor page faults:        23397
                          Major page faults:            0
                 Voluntary context switches:           72
