       N       E                     dE             d eps       ncg     rms          ort
DAV:   1     0.229939843290E+04    0.22994E+04   -0.13689E+05 10080   0.153E+03
DAV:   2    -0.225353565615E+03   -0.25248E+04   -0.24304E+04 10080   0.405E+02
DAV:   3    -0.445619720285E+03   -0.22027E+03   -0.21503E+03 10080   0.139E+02
DAV:   4    -0.454801852698E+03   -0.91821E+01   -0.89633E+01 10080   0.305E+01
DAV:   5    -0.455283985758E+03   -0.48213E+00   -0.47700E+00 10080   0.478E+00
SDA:   6    -0.281363916794E+03    0.17392E+03   -0.47700E+00 10080   0.555E+03 0.000E+00
CGA:   7    -0.326030063776E+03   -0.44666E+02   -0.62186E+02 10080   0.133E+03 0.174E+02
CGA:   8    -0.332347675878E+03   -0.63176E+01   -0.70075E+01 10080   0.558E+03-0.979E+02
CGA:   9    -0.336568469837E+03   -0.42208E+01   -0.22527E+02 10080   0.324E+03-0.986E+02
CGA:  10    -0.343864856194E+03   -0.72964E+01   -0.16667E+02 10080   0.370E+02 0.673E+01
CGA:  11    -0.348035803028E+03   -0.41709E+01   -0.14263E+01 10080   0.314E+02 0.449E+02
CGA:  12    -0.346295803495E+03    0.17400E+01   -0.18836E+01 10080   0.178E+03-0.404E+02
CGA:  13    -0.334933731883E+03    0.11362E+02   -0.11125E+02 10080   0.340E+03-0.835E+02
CGA:  14    -0.336735026380E+03   -0.18013E+01   -0.48607E+01 10080   0.823E+03-0.772E+01
CGA:  15    -0.347082637033E+03   -0.10348E+02   -0.52889E+02 10080   0.412E+02-0.237E+02
CGA:  16    -0.352097659834E+03   -0.50150E+01   -0.24473E+01 10080   0.536E+01 0.201E+02
CGA:  17    -0.352360156773E+03   -0.26250E+00   -0.33595E+00 10080   0.477E+01-0.152E+01
CGA:  18    -0.352522045561E+03   -0.16189E+00   -0.11139E+00 10080   0.693E+01 0.148E+01
CGA:  19    -0.352775460527E+03   -0.25341E+00   -0.20934E+00 10080   0.387E+01-0.486E-01
CGA:  20    -0.352816167095E+03   -0.40707E-01   -0.87572E-01 10080   0.553E+01-0.216E+01
CGA:  21    -0.353085688973E+03   -0.26952E+00   -0.34172E+00 10080   0.144E+01-0.855E+00
CGA:  22    -0.353151375436E+03   -0.65686E-01   -0.56181E-01 10080   0.572E+00 0.134E+00
CGA:  23    -0.353221172486E+03   -0.69797E-01   -0.68043E-01 10080   0.132E+01-0.119E+00
CGA:  24    -0.353239295202E+03   -0.18123E-01   -0.10601E-01 10080   0.134E+01 0.732E+00
CGA:  25    -0.353286975268E+03   -0.47680E-01   -0.50011E-01 10080   0.341E+00-0.921E-01
CGA:  26    -0.353318007907E+03   -0.31033E-01   -0.30596E-01 10080   0.556E+00-0.229E-01
CGA:  27    -0.353377372820E+03   -0.59365E-01   -0.52673E-01 10080   0.261E+01-0.750E+00
CGA:  28    -0.353422267596E+03   -0.44895E-01   -0.68433E-01 10080   0.717E+00-0.864E+00
CGA:  29    -0.353449936053E+03   -0.27668E-01   -0.25036E-01 10080   0.200E+00 0.232E-01
CGA:  30    -0.353471883240E+03   -0.21947E-01   -0.21831E-01 10080   0.785E+00 0.591E-02
CGA:  31    -0.353522162267E+03   -0.50279E-01   -0.25523E-01 10080   0.279E+00 0.656E+00
CGA:  32    -0.353533183666E+03   -0.11021E-01   -0.10517E-01 10080   0.156E+00 0.411E-03
CGA:  33    -0.353550701126E+03   -0.17517E-01   -0.17326E-01 10080   0.379E+00 0.581E-02
CGA:  34    -0.353571980581E+03   -0.21279E-01   -0.20275E-01 10080   0.523E+00 0.423E-02
CGA:  35    -0.353624632564E+03   -0.52652E-01   -0.53332E-01 10080   0.633E+00-0.448E-01
CGA:  36    -0.353639895594E+03   -0.15263E-01   -0.16922E-01 10080   0.137E+00-0.320E-01
CGA:  37    -0.353645719381E+03   -0.58238E-02   -0.59965E-02 10080   0.978E-01 0.866E-02
CGA:  38    -0.353650010074E+03   -0.42907E-02   -0.44503E-02 10080   0.634E-01 0.415E-02
CGA:  39    -0.353660595502E+03   -0.10585E-01   -0.10033E-01 10080   0.219E+00 0.769E-02
CGA:  40    -0.353678620602E+03   -0.18025E-01   -0.17465E-01 10080   0.234E+00-0.698E-02
CGA:  41    -0.353690351011E+03   -0.11730E-01   -0.10376E-01 10080   0.193E+00 0.201E-01
CGA:  42    -0.353697063271E+03   -0.67123E-02   -0.67315E-02 10080   0.121E+00 0.235E-02
CGA:  43    -0.353703023572E+03   -0.59603E-02   -0.64342E-02 10080   0.131E+00-0.704E-02
CGA:  44    -0.353712906182E+03   -0.98826E-02   -0.98831E-02 10080   0.125E+00-0.364E-02
CGA:  45    -0.353718077549E+03   -0.51714E-02   -0.45754E-02 10080   0.394E-01 0.136E-01
CGA:  46    -0.353720284285E+03   -0.22067E-02   -0.21612E-02 10080   0.575E-01 0.275E-02
CGA:  47    -0.353725462187E+03   -0.51779E-02   -0.53164E-02 10080   0.207E+00-0.854E-02
CGA:  48    -0.353729754394E+03   -0.42922E-02   -0.38072E-02 10080   0.234E+00 0.140E-01
CGA:  49    -0.353734469004E+03   -0.47146E-02   -0.43791E-02 10080   0.106E+00 0.107E-01
CGA:  50    -0.353736517721E+03   -0.20487E-02   -0.20459E-02 10080   0.509E-01-0.992E-02
CGA:  51    -0.353737947061E+03   -0.14293E-02   -0.13874E-02 10080   0.633E-01-0.464E-02
CGA:  52    -0.353740299824E+03   -0.23528E-02   -0.24371E-02 10080   0.856E-01-0.110E-02
CGA:  53    -0.353743023002E+03   -0.27232E-02   -0.26901E-02 10080   0.769E-01 0.810E-02
CGA:  54    -0.353745436043E+03   -0.24130E-02   -0.22981E-02 10080   0.685E-01 0.125E-01
CGA:  55    -0.353747155863E+03   -0.17198E-02   -0.16679E-02 10080   0.449E-01 0.742E-02
CGA:  56    -0.353748266923E+03   -0.11111E-02   -0.10761E-02 10080   0.388E-01-0.720E-03
CGA:  57    -0.353749530894E+03   -0.12640E-02   -0.11948E-02 10080   0.702E-01-0.299E-02
CGA:  58    -0.353751798709E+03   -0.22678E-02   -0.22450E-02 10080   0.116E+00-0.337E-02
CGA:  59    -0.353754168804E+03   -0.23701E-02   -0.23508E-02 10080   0.569E-01 0.422E-02
CGA:  60    -0.353755008591E+03   -0.83979E-03   -0.88804E-03 10080   0.229E-01 0.415E-02
CGA:  61    -0.353755542754E+03   -0.53416E-03   -0.56552E-03 10080   0.289E-01 0.162E-02
SDA:  62    -0.353756892133E+03   -0.13494E-02   -0.13440E-02 10080   0.814E-01-0.925E-04
CGA:  63    -0.353759712234E+03   -0.28201E-02   -0.27119E-02 10080   0.208E-01-0.622E-02
CGA:  64    -0.353768207626E+03   -0.84954E-02   -0.22998E-02 10080   0.222E-01 0.618E-02
CGA:  65    -0.353770000574E+03   -0.17929E-02   -0.16662E-02 10080   0.238E-01-0.348E-02
CGA:  66    -0.353773435310E+03   -0.34347E-02   -0.42434E-02 10080   0.481E-01-0.752E-02
CGA:  67    -0.353774947369E+03   -0.15121E-02   -0.13521E-02 10080   0.159E-01-0.898E-03
CGA:  68    -0.353775578267E+03   -0.63090E-03   -0.58626E-03 10080   0.862E-02-0.132E-02
CGA:  69    -0.353776016850E+03   -0.43858E-03   -0.45021E-03 10080   0.585E-02 0.376E-03
CGA:  70    -0.353776304012E+03   -0.28716E-03   -0.30299E-03 10080   0.566E-02 0.577E-03
CGA:  71    -0.353776836725E+03   -0.53271E-03   -0.53241E-03 10080   0.879E-02-0.491E-03
CGA:  72    -0.353777122160E+03   -0.28544E-03   -0.27133E-03 10080   0.357E-02 0.307E-04
CGA:  73    -0.353777212180E+03   -0.90020E-04   -0.97378E-04 10080   0.190E-02 0.122E-03
CGA:  74    -0.353777313818E+03   -0.10164E-03   -0.10712E-03 10080   0.335E-02 0.203E-03
CGA:  75    -0.353777539485E+03   -0.22567E-03   -0.22854E-03 10080   0.424E-02 0.182E-03
CGA:  76    -0.353777781433E+03   -0.24195E-03   -0.23094E-03 10080   0.643E-02 0.813E-04
CGA:  77    -0.353778043359E+03   -0.26193E-03   -0.21666E-03 10080   0.703E-02 0.107E-02
CGA:  78    -0.353778231587E+03   -0.18823E-03   -0.15873E-03 10080   0.376E-02 0.124E-02
CGA:  79    -0.353778327477E+03   -0.95890E-04   -0.87547E-04 10080   0.188E-02-0.163E-03
CGA:  80    -0.353778390700E+03   -0.63223E-04   -0.55226E-04 10080   0.273E-02-0.245E-03
CGA:  81    -0.353778492061E+03   -0.10136E-03   -0.98531E-04 10080   0.526E-02-0.195E-03
CGA:  82    -0.353778612197E+03   -0.12014E-03   -0.11962E-03 10080   0.346E-02 0.430E-03
CGA:  83    -0.353778675645E+03   -0.63448E-04   -0.66538E-04 10080   0.190E-02 0.449E-03
CGA:  84    -0.353778731754E+03   -0.56109E-04   -0.53520E-04 10080   0.203E-02 0.484E-04
CGA:  85    -0.353778804557E+03   -0.72803E-04   -0.60221E-04 10080   0.251E-02-0.303E-03
CGA:  86    -0.353778866664E+03   -0.62106E-04   -0.45701E-04 10080   0.252E-02-0.425E-03
CGA:  87    -0.353778924140E+03   -0.57476E-04   -0.46781E-04 10080   0.314E-02-0.377E-03
CGA:  88    -0.353778996872E+03   -0.72732E-04   -0.71822E-04 10080   0.480E-02-0.155E-03
CGA:  89    -0.353779102647E+03   -0.10578E-03   -0.11322E-03 10080   0.419E-02 0.322E-03
CGA:  90    -0.353779174776E+03   -0.72128E-04   -0.74593E-04 10080   0.185E-02 0.459E-03
CGA:  91    -0.353779216326E+03   -0.41551E-04   -0.38827E-04 10080   0.127E-02-0.210E-04
CGA:  92    -0.353779267063E+03   -0.50736E-04   -0.46973E-04 10080   0.298E-02-0.302E-03
SDA:  93    -0.353779330709E+03   -0.63647E-04   -0.56511E-04 10080   0.532E-02-0.173E-03
CGA:  94    -0.353779465508E+03   -0.13480E-03   -0.14539E-03 10080   0.603E-03 0.540E-03
CGA:  95    -0.353779549317E+03   -0.83809E-04   -0.95316E-04 10080   0.269E-02-0.116E-03
CGA:  96    -0.353779668273E+03   -0.11896E-03   -0.11714E-03 10080   0.250E-02 0.594E-03
CGA:  97    -0.353779739165E+03   -0.70893E-04   -0.82069E-04 10080   0.563E-03 0.496E-03
CGA:  98    -0.353779773833E+03   -0.34667E-04   -0.34920E-04 10080   0.334E-03-0.126E-03
CGA:  99    -0.353779788011E+03   -0.14178E-04   -0.16923E-04 10080   0.542E-03-0.181E-03
CGA: 100    -0.353779799544E+03   -0.11533E-04   -0.15737E-04 10080   0.127E-03 0.193E-03
CGA: 101    -0.353779805997E+03   -0.64536E-05   -0.68952E-05 10080   0.725E-04 0.459E-04
CGA: 102    -0.353779783617E+03    0.22380E-04   -0.14316E-04 10080   0.176E-02-0.198E-03
CGA: 103    -0.353779832499E+03   -0.48882E-04   -0.57157E-04 10080   0.215E-03 0.157E-03
CGA: 104    -0.353779852754E+03   -0.20255E-04   -0.20443E-04 10080   0.518E-03-0.308E-03
CGA: 105    -0.353779852907E+03   -0.15319E-06   -0.10874E-04 10080   0.946E-04 0.164E-03
   1 F= -.35377985E+03 E0= -.35377393E+03  d E =-.353780E+03  mag=    10.0000
       N       E                     dE             d eps       ncg     rms          ort
SDA:   1    -0.353787337433E+03   -0.74847E-02    0.00000E+00 10080   0.320E-01 0.000E+00
CGA:   2    -0.353788054697E+03   -0.71726E-03   -0.79168E-03 10080   0.391E-02 0.150E-02
CGA:   3    -0.353788314354E+03   -0.25966E-03   -0.24997E-03 10080   0.190E-02-0.581E-03
CGA:   4    -0.353788587107E+03   -0.27275E-03   -0.45486E-03 10080   0.621E-02-0.891E-03
CGA:   5    -0.353788618384E+03   -0.31277E-04   -0.50941E-04 10080   0.218E-02 0.269E-03
CGA:   6    -0.353788631279E+03   -0.12895E-04   -0.31462E-04 10080   0.736E-03 0.258E-03
CGA:   7    -0.353788641581E+03   -0.10302E-04   -0.19704E-04 10080   0.874E-03 0.166E-03
CGA:   8    -0.353788687503E+03   -0.45921E-04   -0.48524E-04 10080   0.145E-02 0.809E-04
CGA:   9    -0.353788732534E+03   -0.45031E-04   -0.40815E-04 10080   0.673E-03-0.885E-04
CGA:  10    -0.353788741989E+03   -0.94550E-05   -0.10629E-04 10080   0.243E-03 0.187E-04
   2 F= -.35378874E+03 E0= -.35378281E+03  d E =-.888908E-02  mag=    10.0000
       N       E                     dE             d eps       ncg     rms          ort
SDA:   1    -0.353452004296E+03    0.33673E+00    0.00000E+00 10080   0.176E+01 0.000E+00
CGA:   2    -0.353575286383E+03   -0.12328E+00   -0.12291E+00 10080   0.269E+01 0.699E-01
CGA:   3    -0.353838203135E+03   -0.26292E+00   -0.26391E+00 10080   0.150E+01-0.253E-01
CGA:   4    -0.353900140285E+03   -0.61937E-01   -0.63354E-01 10080   0.470E+00-0.257E-01
CGA:   5    -0.353935130122E+03   -0.34990E-01   -0.35049E-01 10080   0.353E+00-0.194E-02
CGA:   6    -0.353968848210E+03   -0.33718E-01   -0.33743E-01 10080   0.171E+00-0.280E-02
CGA:   7    -0.353973975485E+03   -0.51273E-02   -0.53099E-02 10080   0.338E-01 0.521E-02
CGA:   8    -0.353978037636E+03   -0.40622E-02   -0.40963E-02 10080   0.709E-01-0.783E-03
CGA:   9    -0.353982090418E+03   -0.40528E-02   -0.40622E-02 10080   0.629E-02 0.758E-03
CGA:  10    -0.353983702301E+03   -0.16119E-02   -0.17573E-02 10080   0.134E-01-0.708E-03
CGA:  11    -0.353984400972E+03   -0.69867E-03   -0.68870E-03 10080   0.510E-02-0.516E-03
CGA:  12    -0.353984685241E+03   -0.28427E-03   -0.27248E-03 10080   0.325E-02-0.535E-03
CGA:  13    -0.353984973405E+03   -0.28816E-03   -0.27831E-03 10080   0.422E-02 0.537E-03
CGA:  14    -0.353985304083E+03   -0.33068E-03   -0.31927E-03 10080   0.193E-02-0.878E-03
CGA:  15    -0.353985338994E+03   -0.34911E-04   -0.52003E-04 10080   0.570E-03 0.386E-03
CGA:  16    -0.353985377823E+03   -0.38829E-04   -0.42059E-04 10080   0.725E-03 0.229E-03
CGA:  17    -0.353985476651E+03   -0.98828E-04   -0.11223E-03 10080   0.167E-02-0.381E-03
CGA:  18    -0.353985495394E+03   -0.18743E-04   -0.37947E-04 10080   0.281E-03 0.354E-03
CGA:  19    -0.353985505396E+03   -0.10002E-04   -0.12706E-04 10080   0.120E-03 0.725E-04
CGA:  20    -0.353985317849E+03    0.18755E-03   -0.51313E-04 10080   0.106E-01-0.891E-03
CGA:  21    -0.353985504712E+03   -0.18686E-03   -0.23832E-03 10080   0.912E-03 0.835E-03
CGA:  22    -0.353985549971E+03   -0.45258E-04   -0.44381E-04 10080   0.983E-04-0.215E-04
CGA:  23    -0.353985569254E+03   -0.19283E-04    0.15631E-04 10080   0.501E-03-0.134E-03
CGA:  24    -0.353985566818E+03    0.24358E-05   -0.78056E-05 10080   0.653E-04 0.156E-03
   3 F= -.35398557E+03 E0= -.35397996E+03  d E =-.196825E+00  mag=    10.0000
       N       E                     dE             d eps       ncg     rms          ort
SDA:   1    -0.353307970129E+03    0.67760E+00    0.00000E+00 10080   0.254E+01 0.000E+00
CGA:   2    -0.353489189569E+03   -0.18122E+00   -0.18163E+00 10080   0.389E+01 0.666E-01
CGA:   3    -0.353875108918E+03   -0.38592E+00   -0.38747E+00 10080   0.218E+01-0.443E-01
CGA:   4    -0.353951578857E+03   -0.76470E-01   -0.80412E-01 10080   0.693E+00-0.102E+00
CGA:   5    -0.354016512002E+03   -0.64933E-01   -0.65582E-01 10080   0.546E+00-0.180E-01
CGA:   6    -0.354054278945E+03   -0.37767E-01   -0.37778E-01 10080   0.258E+00-0.485E-02
CGA:   7    -0.354062925187E+03   -0.86462E-02   -0.87719E-02 10080   0.597E-01 0.691E-02
CGA:   8    -0.354069291768E+03   -0.63666E-02   -0.63372E-02 10080   0.959E-01 0.759E-03
CGA:   9    -0.354075409921E+03   -0.61182E-02   -0.61196E-02 10080   0.122E-01-0.166E-03
CGA:  10    -0.354076702954E+03   -0.12930E-02   -0.13304E-02 10080   0.335E-01-0.108E-02
CGA:  11    -0.354078766165E+03   -0.20632E-02   -0.20705E-02 10080   0.964E-02 0.953E-03
CGA:  12    -0.354079276214E+03   -0.51005E-03   -0.47033E-03 10080   0.596E-02-0.161E-02
CGA:  13    -0.354080134090E+03   -0.85788E-03   -0.96407E-03 10080   0.100E-01-0.879E-03
CGA:  14    -0.354080333614E+03   -0.19952E-03   -0.22871E-03 10080   0.210E-02 0.518E-03
CGA:  15    -0.354080485766E+03   -0.15215E-03   -0.15002E-03 10080   0.309E-02-0.254E-03
CGA:  16    -0.354080653595E+03   -0.16783E-03   -0.16006E-03 10080   0.392E-02-0.456E-03
CGA:  17    -0.354080778483E+03   -0.12489E-03   -0.14208E-03 10080   0.246E-02 0.528E-03
CGA:  18    -0.354080840889E+03   -0.62406E-04   -0.79644E-04 10080   0.823E-03 0.382E-03
CGA:  19    -0.354080895300E+03   -0.54411E-04   -0.47723E-04 10080   0.715E-03-0.324E-03
CGA:  20    -0.354080934567E+03   -0.39267E-04   -0.54285E-04 10080   0.291E-02-0.275E-03
CGA:  21    -0.354080968452E+03   -0.33885E-04   -0.50037E-04 10080   0.167E-02 0.357E-03
CGA:  22    -0.354080987220E+03   -0.18768E-04   -0.35601E-04 10080   0.540E-03 0.321E-03
CGA:  23    -0.354081009334E+03   -0.22114E-04   -0.22468E-04 10080   0.423E-03 0.922E-05
CGA:  24    -0.354081037616E+03   -0.28283E-04   -0.30276E-04 10080   0.143E-02-0.548E-03
CGA:  25    -0.354081063719E+03   -0.26103E-04   -0.40225E-04 10080   0.343E-03 0.369E-03
CGA:  26    -0.354081086238E+03   -0.22518E-04   -0.22376E-04 10080   0.183E-03-0.115E-04
CGA:  27    -0.354081115845E+03   -0.29607E-04    0.18554E-04 10080   0.242E-03 0.987E-04
CGA:  28    -0.354081120223E+03   -0.43788E-05   -0.77024E-05 10080   0.981E-04 0.102E-03
CGA:  29    -0.354081130591E+03   -0.10368E-04   -0.21221E-04 10080   0.577E-03-0.122E-03
CGA:  30    -0.354081159778E+03   -0.29187E-04   -0.29247E-04 10080   0.866E-04 0.213E-05
CGA:  31    -0.354081166183E+03   -0.64048E-05   -0.71322E-05 10080   0.271E-03-0.468E-04
   4 F= -.35408117E+03 E0= -.35407561E+03  d E =-.955994E-01  mag=    10.0000
       N       E                     dE             d eps       ncg     rms          ort
SDA:   1    -0.354058415114E+03    0.22745E-01    0.00000E+00 10080   0.104E+00 0.000E+00
CGA:   2    -0.354067410183E+03   -0.89951E-02   -0.89438E-02 10080   0.135E+00 0.295E-02
CGA:   3    -0.354079180361E+03   -0.11770E-01   -0.11846E-01 10080   0.558E-01-0.444E-02
CGA:   4    -0.354083683140E+03   -0.45028E-02   -0.45136E-02 10080   0.245E-01-0.544E-03
CGA:   5    -0.354086691424E+03   -0.30083E-02   -0.31457E-02 10080   0.218E-01-0.227E-02
CGA:   6    -0.354087355866E+03   -0.66444E-03   -0.66867E-03 10080   0.380E-02 0.601E-04
CGA:   7    -0.354087521651E+03   -0.16578E-03   -0.18585E-03 10080   0.317E-02 0.991E-03
CGA:   8    -0.354087948207E+03   -0.42656E-03   -0.43842E-03 10080   0.112E-02-0.287E-03
CGA:   9    -0.354087989980E+03   -0.41773E-04   -0.44178E-04 10080   0.645E-03 0.885E-04
CGA:  10    -0.354088021610E+03   -0.31630E-04   -0.36243E-04 10080   0.465E-03 0.278E-03
CGA:  11    -0.354087975929E+03    0.45681E-04   -0.17063E-03 10080   0.667E-02-0.115E-02
CGA:  12    -0.354088119502E+03   -0.14357E-03   -0.17432E-03 10080   0.351E-03 0.627E-03
CGA:  13    -0.354088132987E+03   -0.13485E-04   -0.18204E-04 10080   0.288E-03 0.172E-03
CGA:  14    -0.354088147697E+03   -0.14710E-04   -0.10192E-03 10080   0.112E-02-0.531E-03
CGA:  15    -0.354088164936E+03   -0.17239E-04   -0.33619E-04 10080   0.283E-03 0.323E-03
CGA:  16    -0.354088186819E+03   -0.21884E-04   -0.22829E-04 10080   0.240E-03 0.573E-04
CGA:  17    -0.354088207044E+03   -0.20225E-04   -0.41808E-04 10080   0.909E-03-0.324E-03
CGA:  18    -0.354088218218E+03   -0.11174E-04   -0.22965E-04 10080   0.102E-03 0.209E-03
CGA:  19    -0.354088220036E+03   -0.18180E-05   -0.38922E-05 10080   0.500E-04 0.434E-04
CGA:  20    -0.354088212818E+03    0.72177E-05   -0.15915E-04 10080   0.689E-03-0.158E-03
CGA:  21    -0.354088237401E+03   -0.24583E-04   -0.29027E-04 10080   0.378E-04 0.108E-03
CGA:  22    -0.354088238253E+03   -0.85208E-06   -0.66982E-05 10080   0.280E-03-0.820E-04
   5 F= -.35408824E+03 E0= -.35408260E+03  d E =-.707207E-02  mag=    10.0000
       N       E                     dE             d eps       ncg     rms          ort
SDA:   1    -0.354017722744E+03    0.70515E-01    0.00000E+00 10080   0.272E+00 0.000E+00
CGA:   2    -0.354050042399E+03   -0.32320E-01   -0.32234E-01 10080   0.445E+00 0.842E-03
CGA:   3    -0.354068223503E+03   -0.18181E-01   -0.18314E-01 10080   0.182E+00 0.411E-02
CGA:   4    -0.354082653588E+03   -0.14430E-01   -0.14425E-01 10080   0.837E-01-0.359E-02
CGA:   5    -0.354091143475E+03   -0.84899E-02   -0.84739E-02 10080   0.743E-01 0.103E-02
CGA:   6    -0.354094711058E+03   -0.35676E-02   -0.35099E-02 10080   0.999E-02-0.284E-02
CGA:   7    -0.354095763466E+03   -0.10524E-02   -0.10690E-02 10080   0.179E-01-0.575E-03
CGA:   8    -0.354096301888E+03   -0.53842E-03   -0.59244E-03 10080   0.292E-02 0.111E-02
CGA:   9    -0.354096516950E+03   -0.21506E-03   -0.21298E-03 10080   0.269E-02-0.199E-03
CGA:  10    -0.354096648278E+03   -0.13133E-03   -0.13042E-03 10080   0.215E-02-0.421E-04
CGA:  11    -0.354096723892E+03   -0.75614E-04   -0.93325E-04 10080   0.107E-02 0.517E-03
CGA:  12    -0.354096802479E+03   -0.78587E-04   -0.75763E-04 10080   0.845E-03-0.148E-03
CGA:  13    -0.354096856822E+03   -0.54343E-04   -0.62744E-04 10080   0.303E-02-0.799E-03
CGA:  14    -0.354096889758E+03   -0.32936E-04   -0.62430E-04 10080   0.342E-03 0.538E-03
CGA:  15    -0.354096894708E+03   -0.49496E-05   -0.11447E-04 10080   0.168E-03 0.146E-03
CGA:  16    -0.354096911597E+03   -0.16889E-04   -0.16832E-04 10080   0.367E-03-0.966E-04
CGA:  17    -0.354096923734E+03   -0.12137E-04   -0.13075E-04 10080   0.125E-03 0.257E-04
CGA:  18    -0.354096942980E+03   -0.19246E-04    0.11113E-03 10080   0.160E-03-0.323E-04
CGA:  19    -0.354096950960E+03   -0.79802E-05   -0.80647E-05 10080   0.172E-03 0.581E-04
CGA:  20    -0.354096964164E+03   -0.13204E-04   -0.13814E-04 10080   0.869E-04 0.598E-04
CGA:  21    -0.354096983002E+03   -0.18838E-04    0.23789E-04 10080   0.259E-03-0.816E-04
CGA:  22    -0.354096981328E+03    0.16740E-05   -0.38497E-05 10080   0.535E-04 0.102E-03
   6 F= -.35409698E+03 E0= -.35409124E+03  d E =-.874307E-02  mag=    10.0000
       N       E                     dE             d eps       ncg     rms          ort
SDA:   1    -0.354007258121E+03    0.89725E-01    0.00000E+00 10080   0.351E+00 0.000E+00
CGA:   2    -0.354042738770E+03   -0.35481E-01   -0.35655E-01 10080   0.657E+00-0.629E-02
CGA:   3    -0.354070827534E+03   -0.28089E-01   -0.28232E-01 10080   0.177E+00 0.869E-02
CGA:   4    -0.354084527180E+03   -0.13700E-01   -0.13728E-01 10080   0.155E+00-0.152E-02
CGA:   5    -0.354096123634E+03   -0.11596E-01   -0.11657E-01 10080   0.966E-01-0.657E-02
CGA:   6    -0.354101318141E+03   -0.51945E-02   -0.52082E-02 10080   0.246E-01 0.243E-02
CGA:   7    -0.354102215017E+03   -0.89688E-03   -0.88075E-03 10080   0.114E-01-0.725E-03
CGA:   8    -0.354103750197E+03   -0.15352E-02   -0.14895E-02 10080   0.170E-02 0.628E-03
CGA:   9    -0.354103970396E+03   -0.22020E-03   -0.24542E-03 10080   0.446E-02-0.363E-03
CGA:  10    -0.354104075939E+03   -0.10554E-03   -0.12166E-03 10080   0.209E-02 0.445E-03
CGA:  11    -0.354104154743E+03   -0.78804E-04   -0.86893E-04 10080   0.129E-02 0.261E-03
CGA:  12    -0.354104213327E+03   -0.58584E-04   -0.52516E-04 10080   0.485E-03-0.208E-03
CGA:  13    -0.354104261601E+03   -0.48274E-04   -0.45351E-04 10080   0.856E-03 0.629E-04
CGA:  14    -0.354104300346E+03   -0.38745E-04   -0.40250E-04 10080   0.221E-03 0.552E-04
CGA:  15    -0.354104338623E+03   -0.38277E-04    0.34732E-04 10080   0.383E-03-0.111E-03
CGA:  16    -0.354104335870E+03    0.27526E-05   -0.60397E-05 10080   0.104E-03 0.173E-03
   7 F= -.35410434E+03 E0= -.35409851E+03  d E =-.735454E-02  mag=    10.0000
       N       E                     dE             d eps       ncg     rms          ort
SDA:   1    -0.353403495631E+03    0.70084E+00    0.00000E+00 10080   0.440E+01 0.000E+00
CGA:   2    -0.353572571815E+03   -0.16908E+00   -0.17238E+00 10080   0.304E+01-0.718E-01
CGA:   3    -0.353869755833E+03   -0.29718E+00   -0.29790E+00 10080   0.177E+01-0.156E-01
CGA:   4    -0.353948836862E+03   -0.79081E-01   -0.78906E-01 10080   0.819E+00 0.202E-02
CGA:   5    -0.354076415865E+03   -0.12758E+00   -0.12810E+00 10080   0.581E+00-0.678E-02
CGA:   6    -0.354093539981E+03   -0.17124E-01   -0.16937E-01 10080   0.123E+00-0.111E-01
CGA:   7    -0.354104874014E+03   -0.11334E-01   -0.11222E-01 10080   0.847E-01 0.426E-02
CGA:   8    -0.354111153687E+03   -0.62797E-02   -0.63035E-02 10080   0.523E-01-0.448E-02
CGA:   9    -0.354112805970E+03   -0.16523E-02   -0.17307E-02 10080   0.108E-01 0.258E-02
CGA:  10    -0.354113771531E+03   -0.96556E-03   -0.94283E-03 10080   0.146E-01 0.119E-02
CGA:  11    -0.354115162743E+03   -0.13912E-02   -0.14048E-02 10080   0.392E-02-0.695E-03
CGA:  12    -0.354115395004E+03   -0.23226E-03   -0.23486E-03 10080   0.196E-02 0.727E-03
CGA:  13    -0.354115600307E+03   -0.20530E-03   -0.44536E-03 10080   0.166E-01-0.191E-02
CGA:  14    -0.354115879704E+03   -0.27940E-03   -0.34523E-03 10080   0.109E-02 0.133E-02
CGA:  15    -0.354115916088E+03   -0.36384E-04   -0.45670E-04 10080   0.480E-03 0.301E-03
CGA:  16    -0.354115965992E+03   -0.49904E-04   -0.65503E-04 10080   0.247E-02-0.411E-03
CGA:  17    -0.354116010607E+03   -0.44616E-04   -0.59496E-04 10080   0.440E-03 0.316E-03
CGA:  18    -0.354116046930E+03   -0.36323E-04   -0.37574E-04 10080   0.479E-03-0.164E-03
CGA:  19    -0.354116091615E+03   -0.44685E-04    0.11848E-03 10080   0.815E-03 0.139E-03
CGA:  20    -0.354116180893E+03   -0.89277E-04   -0.86893E-04 10080   0.150E-03 0.168E-03
CGA:  21    -0.354115961571E+03    0.21932E-03   -0.11839E-03 10080   0.152E-01-0.794E-03
CGA:  22    -0.354116236111E+03   -0.27454E-03   -0.31459E-03 10080   0.404E-03 0.432E-03
CGA:  23    -0.354116261255E+03   -0.25144E-04   -0.19501E-04 10080   0.914E-04-0.809E-04
CGA:  24    -0.354116260492E+03    0.76339E-06   -0.18455E-05 10080   0.311E-04 0.283E-04
   8 F= -.35411626E+03 E0= -.35411021E+03  d E =-.119246E-01  mag=    10.0000
       N       E                     dE             d eps       ncg     rms          ort
SDA:   1    -0.353902262776E+03    0.21400E+00    0.00000E+00 10080   0.106E+01 0.000E+00
CGA:   2    -0.353954945380E+03   -0.52683E-01   -0.54034E-01 10080   0.112E+01-0.371E-01
CGA:   3    -0.354044536117E+03   -0.89591E-01   -0.89609E-01 10080   0.573E+00 0.237E-02
CGA:   4    -0.354069488335E+03   -0.24952E-01   -0.24752E-01 10080   0.247E+00 0.729E-02
CGA:   5    -0.354109981169E+03   -0.40493E-01   -0.40768E-01 10080   0.735E-01-0.472E-02
CGA:   6    -0.354114626285E+03   -0.46451E-02   -0.46912E-02 10080   0.270E-01 0.155E-02
CGA:   7    -0.354117321049E+03   -0.26948E-02   -0.26931E-02 10080   0.310E-01-0.463E-03
CGA:   8    -0.354118699764E+03   -0.13787E-02   -0.13798E-02 10080   0.644E-02-0.149E-03
CGA:   9    -0.354118882254E+03   -0.18249E-03   -0.23210E-03 10080   0.328E-02 0.787E-03
CGA:  10    -0.354119542572E+03   -0.66032E-03   -0.65816E-03 10080   0.154E-02 0.251E-04
CGA:  11    -0.354119613958E+03   -0.71386E-04   -0.61928E-04 10080   0.127E-02-0.166E-03
CGA:  12    -0.354119727226E+03   -0.11327E-03   -0.11257E-03 10080   0.817E-03 0.311E-03
CGA:  13    -0.354119795013E+03   -0.67788E-04   -0.59686E-04 10080   0.813E-03-0.216E-03
CGA:  14    -0.354119852027E+03   -0.57014E-04   -0.57026E-04 10080   0.146E-02-0.288E-03
CGA:  15    -0.354119858202E+03   -0.61747E-05   -0.20290E-04 10080   0.498E-03 0.191E-03
   9 F= -.35411986E+03 E0= -.35411371E+03  d E =-.359771E-02  mag=    10.0000
       N       E                     dE             d eps       ncg     rms          ort
SDA:   1    -0.354105041098E+03    0.14811E-01    0.00000E+00 10080   0.500E-01 0.000E+00
CGA:   2    -0.354110130220E+03   -0.50891E-02   -0.51165E-02 10080   0.139E+00-0.206E-02
CGA:   3    -0.354117688735E+03   -0.75585E-02   -0.76219E-02 10080   0.199E-01 0.190E-02
CGA:   4    -0.354119426678E+03   -0.17379E-02   -0.17378E-02 10080   0.322E-01-0.270E-03
CGA:   5    -0.354121047626E+03   -0.16209E-02   -0.16066E-02 10080   0.112E-01-0.492E-03
CGA:   6    -0.354121378431E+03   -0.33080E-03   -0.37590E-03 10080   0.296E-02 0.940E-03
CGA:   7    -0.354121637674E+03   -0.25924E-03   -0.25878E-03 10080   0.337E-02-0.243E-03
CGA:   8    -0.354121829808E+03   -0.19213E-03   -0.17860E-03 10080   0.344E-02-0.556E-03
CGA:   9    -0.354121905626E+03   -0.75818E-04   -0.95529E-04 10080   0.773E-03 0.419E-03
CGA:  10    -0.354121909616E+03   -0.39903E-05   -0.17521E-04 10080   0.317E-03 0.232E-03
CGA:  11    -0.354121923309E+03   -0.13693E-04   -0.18813E-04 10080   0.489E-03 0.169E-03
CGA:  12    -0.354121959481E+03   -0.36172E-04   -0.37194E-04 10080   0.204E-02-0.603E-03
CGA:  13    -0.354121976744E+03   -0.17264E-04   -0.36586E-04 10080   0.130E-03 0.336E-03
CGA:  14    -0.354121975166E+03    0.15782E-05   -0.28284E-05 10080   0.898E-04 0.831E-04
  10 F= -.35412198E+03 E0= -.35411582E+03  d E =-.211696E-02  mag=    10.0000
       N       E                     dE             d eps       ncg     rms          ort
SDA:   1    -0.353956580769E+03    0.16540E+00    0.00000E+00 10080   0.748E+01 0.000E+00
CGA:   2    -0.354077426488E+03   -0.12085E+00   -0.22849E+00 10080   0.205E+01-0.388E+01
CGA:   3    -0.354117677347E+03   -0.40251E-01   -0.45817E-01 10080   0.456E-01-0.233E+00
CGA:   4    -0.354119186087E+03   -0.15087E-02   -0.14361E-02 10080   0.151E-01-0.132E-02
CGA:   5    -0.354120721600E+03   -0.15355E-02   -0.15413E-02 10080   0.158E-01 0.839E-03
CGA:   6    -0.354121760251E+03   -0.10387E-02   -0.98742E-03 10080   0.973E-02-0.109E-02
CGA:   7    -0.354122153172E+03   -0.39292E-03   -0.41432E-03 10080   0.241E-02 0.330E-03
CGA:   8    -0.354122511110E+03   -0.35794E-03   -0.37210E-03 10080   0.530E-02-0.333E-03
CGA:   9    -0.354122617987E+03   -0.10688E-03   -0.13424E-03 10080   0.506E-03 0.339E-03
CGA:  10    -0.354122633007E+03   -0.15020E-04   -0.20132E-04 10080   0.382E-03 0.750E-04
CGA:  11    -0.354122671924E+03   -0.38917E-04   -0.35053E-04 10080   0.550E-03-0.184E-03
CGA:  12    -0.354122685975E+03   -0.14051E-04   -0.14333E-04 10080   0.512E-03 0.563E-05
CGA:  13    -0.354122691543E+03   -0.55684E-05   -0.12719E-04 10080   0.133E-03 0.985E-04
  11 F= -.35412269E+03 E0= -.35411653E+03  d E =-.716377E-03  mag=    10.0000
       N       E                     dE             d eps       ncg     rms          ort
SDA:   1    -0.354080344836E+03    0.42341E-01    0.00000E+00 10080   0.157E+00 0.000E+00
CGA:   2    -0.354090127207E+03   -0.97824E-02   -0.98435E-02 10080   0.252E+00 0.165E-02
CGA:   3    -0.354112637375E+03   -0.22510E-01   -0.22509E-01 10080   0.627E-01-0.374E-02
CGA:   4    -0.354116775323E+03   -0.41379E-02   -0.41923E-02 10080   0.566E-01 0.344E-02
CGA:   5    -0.354121857898E+03   -0.50826E-02   -0.50792E-02 10080   0.180E-01-0.149E-02
CGA:   6    -0.354122592592E+03   -0.73469E-03   -0.77639E-03 10080   0.746E-02 0.101E-02
CGA:   7    -0.354123051369E+03   -0.45878E-03   -0.44527E-03 10080   0.595E-02-0.504E-03
CGA:   8    -0.354123520442E+03   -0.46907E-03   -0.46904E-03 10080   0.182E-02 0.698E-04
CGA:   9    -0.354123595275E+03   -0.74833E-04   -0.81917E-04 10080   0.537E-03 0.176E-03
CGA:  10    -0.354123646071E+03   -0.50796E-04   -0.50280E-04 10080   0.661E-03 0.156E-03
CGA:  11    -0.354123722339E+03   -0.76268E-04   -0.11567E-03 10080   0.258E-02-0.739E-03
CGA:  12    -0.354123746564E+03   -0.24225E-04   -0.48972E-04 10080   0.175E-03 0.370E-03
CGA:  13    -0.354123745694E+03    0.87052E-06   -0.50320E-05 10080   0.127E-03 0.104E-03
CGA:  14    -0.354123766369E+03   -0.20675E-04    0.13798E-03 10080   0.231E-03 0.149E-04
CGA:  15    -0.354123775910E+03   -0.95411E-05   -0.12398E-04 10080   0.273E-04 0.925E-04
  12 F= -.35412378E+03 E0= -.35411763E+03  d E =-.108437E-02  mag=    10.0000
       N       E                     dE             d eps       ncg     rms          ort
SDA:   1    -0.354023718661E+03    0.10005E+00    0.00000E+00 10080   0.272E+00 0.000E+00
CGA:   2    -0.354089517866E+03   -0.65799E-01   -0.66302E-01 10080   0.270E+00-0.285E-02
CGA:   3    -0.354104721090E+03   -0.15203E-01   -0.15095E-01 10080   0.143E+00 0.411E-02
CGA:   4    -0.354114695131E+03   -0.99740E-02   -0.99537E-02 10080   0.109E+00-0.343E-02
CGA:   5    -0.354120535234E+03   -0.58401E-02   -0.59046E-02 10080   0.511E-01 0.275E-02
CGA:   6    -0.354122495688E+03   -0.19605E-02   -0.20176E-02 10080   0.831E-02 0.136E-02
CGA:   7    -0.354124181855E+03   -0.16862E-02   -0.16918E-02 10080   0.185E-02-0.482E-04
CGA:   8    -0.354124306715E+03   -0.12486E-03   -0.13008E-03 10080   0.183E-02 0.393E-03
CGA:   9    -0.354124569741E+03   -0.26303E-03   -0.34613E-03 10080   0.424E-02-0.115E-02
CGA:  10    -0.354124624477E+03   -0.54736E-04   -0.90065E-04 10080   0.435E-03 0.544E-03
CGA:  11    -0.354124635840E+03   -0.11363E-04   -0.19779E-04 10080   0.331E-03 0.195E-03
CGA:  12    -0.354124680976E+03   -0.45136E-04   -0.46846E-04 10080   0.748E-03-0.105E-03
CGA:  13    -0.354124692609E+03   -0.11632E-04   -0.11965E-04 10080   0.464E-03 0.487E-05
CGA:  14    -0.354124698531E+03   -0.59224E-05   -0.83178E-05 10080   0.222E-03 0.371E-04
  13 F= -.35412470E+03 E0= -.35411858E+03  d E =-.922621E-03  mag=    10.0000
       N       E                     dE             d eps       ncg     rms          ort
SDA:   1    -0.353854119562E+03    0.27057E+00    0.00000E+00 10080   0.967E+00 0.000E+00
CGA:   2    -0.353912307899E+03   -0.58188E-01   -0.58140E-01 10080   0.139E+01-0.299E-02
CGA:   3    -0.354049125640E+03   -0.13682E+00   -0.13704E+00 10080   0.705E+00-0.104E-01
CGA:   4    -0.354076666122E+03   -0.27540E-01   -0.26887E-01 10080   0.218E+00 0.228E-01
CGA:   5    -0.354109335081E+03   -0.32669E-01   -0.32660E-01 10080   0.990E-01-0.643E-04
CGA:   6    -0.354115253768E+03   -0.59187E-02   -0.59735E-02 10080   0.299E-01 0.131E-02
CGA:   7    -0.354116793822E+03   -0.15401E-02   -0.15962E-02 10080   0.250E-01 0.261E-02
CGA:   8    -0.354119236844E+03   -0.24430E-02   -0.24637E-02 10080   0.153E-01-0.130E-02
CGA:   9    -0.354119724234E+03   -0.48739E-03   -0.47744E-03 10080   0.316E-02-0.274E-03
CGA:  10    -0.354120319759E+03   -0.59552E-03   -0.64092E-03 10080   0.453E-02-0.343E-03
CGA:  11    -0.354120502389E+03   -0.18263E-03   -0.18834E-03 10080   0.148E-02 0.169E-03
CGA:  12    -0.354120616887E+03   -0.11450E-03   -0.11233E-03 10080   0.126E-02-0.450E-03
CGA:  13    -0.354120672282E+03   -0.55395E-04   -0.21317E-03 10080   0.661E-02-0.953E-03
CGA:  14    -0.354120771551E+03   -0.99268E-04   -0.14284E-03 10080   0.585E-03 0.693E-03
CGA:  15    -0.354120788261E+03   -0.16710E-04   -0.26184E-04 10080   0.374E-03 0.224E-03
CGA:  16    -0.354120834241E+03   -0.45980E-04   -0.46731E-04 10080   0.834E-03-0.807E-04
CGA:  17    -0.354120851846E+03   -0.17605E-04   -0.19935E-04 10080   0.562E-03 0.454E-04
CGA:  18    -0.354120859852E+03   -0.80060E-05   -0.12274E-04 10080   0.235E-03 0.721E-04
  14 F= -.35412086E+03 E0= -.35411481E+03  d E =0.383868E-02  mag=    10.0000
       N       E                     dE             d eps       ncg     rms          ort
SDA:   1    -0.354057611037E+03    0.63241E-01    0.00000E+00 10080   0.267E+00 0.000E+00
CGA:   2    -0.354069118647E+03   -0.11508E-01   -0.11691E-01 10080   0.265E+00 0.540E-02
CGA:   3    -0.354105656525E+03   -0.36538E-01   -0.36393E-01 10080   0.726E-01 0.215E-02
CGA:   4    -0.354112023466E+03   -0.63669E-02   -0.63949E-02 10080   0.925E-01-0.284E-02
CGA:   5    -0.354118191984E+03   -0.61685E-02   -0.61707E-02 10080   0.236E-01 0.290E-03
CGA:   6    -0.354119414446E+03   -0.12225E-02   -0.12495E-02 10080   0.102E-01 0.121E-02
CGA:   7    -0.354120056274E+03   -0.64183E-03   -0.62128E-03 10080   0.105E-01-0.132E-02
CGA:   8    -0.354120833847E+03   -0.77757E-03   -0.77775E-03 10080   0.217E-02-0.265E-04
CGA:   9    -0.354120936668E+03   -0.10282E-03   -0.10589E-03 10080   0.125E-02 0.117E-03
CGA:  10    -0.354121124831E+03   -0.18816E-03   -0.21964E-03 10080   0.205E-02-0.335E-03
CGA:  11    -0.354121178275E+03   -0.53444E-04   -0.61159E-04 10080   0.696E-03 0.208E-03
CGA:  12    -0.354121191866E+03   -0.13591E-04   -0.23106E-04 10080   0.314E-03 0.209E-03
CGA:  13    -0.354121210121E+03   -0.18255E-04   -0.21092E-04 10080   0.372E-03 0.131E-03
CGA:  14    -0.354121262629E+03   -0.52508E-04   -0.58898E-04 10080   0.506E-03-0.161E-03
CGA:  15    -0.354121268154E+03   -0.55253E-05   -0.57141E-05 10080   0.283E-03 0.320E-05
  15 F= -.35412127E+03 E0= -.35411520E+03  d E =-.408302E-03  mag=    10.0000
       N       E                     dE             d eps       ncg     rms          ort
SDA:   1    -0.354071878206E+03    0.49384E-01    0.00000E+00 10080   0.144E+00 0.000E+00
CGA:   2    -0.354089752947E+03   -0.17875E-01   -0.17551E-01 10080   0.299E+00 0.628E-02
CGA:   3    -0.354109035495E+03   -0.19283E-01   -0.19268E-01 10080   0.915E-01-0.377E-02
CGA:   4    -0.354112978663E+03   -0.39432E-02   -0.39625E-02 10080   0.565E-01 0.469E-03
CGA:   5    -0.354117753476E+03   -0.47748E-02   -0.48040E-02 10080   0.325E-01-0.208E-02
CGA:   6    -0.354119772062E+03   -0.20186E-02   -0.20159E-02 10080   0.659E-02-0.606E-03
CGA:   7    -0.354120121702E+03   -0.34964E-03   -0.35110E-03 10080   0.515E-02 0.721E-04
CGA:   8    -0.354120518872E+03   -0.39717E-03   -0.39373E-03 10080   0.322E-02 0.542E-03
CGA:   9    -0.354120728878E+03   -0.21001E-03   -0.19363E-03 10080   0.192E-02-0.110E-02
CGA:  10    -0.354120776616E+03   -0.47738E-04   -0.56819E-04 10080   0.532E-03 0.377E-03
CGA:  11    -0.354120789743E+03   -0.13127E-04   -0.22119E-04 10080   0.323E-03 0.274E-03
CGA:  12    -0.354120443384E+03    0.34636E-03   -0.18768E-03 10080   0.214E-01-0.135E-02
CGA:  13    -0.354120838028E+03   -0.39464E-03   -0.47688E-03 10080   0.740E-03 0.101E-02
CGA:  14    -0.354120856444E+03   -0.18415E-04   -0.23500E-04 10080   0.150E-03 0.575E-04
CGA:  15    -0.354120830157E+03    0.26287E-04   -0.50933E-04 10080   0.239E-02-0.378E-03
CGA:  16    -0.354120877168E+03   -0.47011E-04   -0.74494E-04 10080   0.379E-03 0.318E-03
CGA:  17    -0.354120891572E+03   -0.14405E-04   -0.14749E-04 10080   0.437E-04 0.291E-06
CGA:  18    -0.354120896852E+03   -0.52792E-05   -0.52793E-05 10080   0.969E-04-0.119E-06
  16 F= -.35412090E+03 E0= -.35411482E+03  d E =0.371303E-03  mag=    10.0000
       N       E                     dE             d eps       ncg     rms          ort
SDA:   1    -0.354098354160E+03    0.22537E-01    0.00000E+00 10080   0.675E-01 0.000E+00
CGA:   2    -0.354103637353E+03   -0.52832E-02   -0.52251E-02 10080   0.140E+00-0.207E-02
CGA:   3    -0.354113205911E+03   -0.95686E-02   -0.96568E-02 10080   0.254E-01 0.225E-02
CGA:   4    -0.354114891994E+03   -0.16861E-02   -0.17299E-02 10080   0.277E-01 0.132E-02
CGA:   5    -0.354117489508E+03   -0.25975E-02   -0.25615E-02 10080   0.144E-01-0.216E-02
CGA:   6    -0.354117842456E+03   -0.35295E-03   -0.36196E-03 10080   0.295E-02 0.886E-04
CGA:   7    -0.354118150612E+03   -0.30816E-03   -0.30795E-03 10080   0.351E-02 0.670E-04
CGA:   8    -0.354118346037E+03   -0.19543E-03   -0.16774E-03 10080   0.219E-02-0.525E-03
CGA:   9    -0.354118408574E+03   -0.62537E-04   -0.69185E-04 10080   0.471E-03 0.107E-03
CGA:  10    -0.354118413585E+03   -0.50113E-05   -0.15944E-04 10080   0.333E-03 0.174E-03
CGA:  11    -0.354118443969E+03   -0.30384E-04   -0.32505E-04 10080   0.441E-03 0.101E-03
CGA:  12    -0.354118496106E+03   -0.52137E-04   -0.51815E-04 10080   0.480E-03-0.337E-03
CGA:  13    -0.354118495719E+03    0.38651E-06   -0.96020E-05 10080   0.103E-03 0.140E-03
  17 F= -.35411850E+03 E0= -.35411242E+03  d E =0.240113E-02  mag=    10.0000
       N       E                     dE             d eps       ncg     rms          ort
SDA:   1    -0.354098526859E+03    0.19969E-01    0.00000E+00 10080   0.147E+00 0.000E+00
CGA:   2    -0.354102399349E+03   -0.38725E-02   -0.40660E-02 10080   0.504E-01 0.276E-02
CGA:   3    -0.354111863120E+03   -0.94638E-02   -0.92650E-02 10080   0.331E-01 0.199E-02
CGA:   4    -0.354113720709E+03   -0.18576E-02   -0.18101E-02 10080   0.217E-01-0.192E-02
CGA:   5    -0.354116083255E+03   -0.23625E-02   -0.23353E-02 10080   0.807E-02 0.927E-03
CGA:   6    -0.354116429256E+03   -0.34600E-03   -0.30787E-03 10080   0.409E-02-0.822E-03
CGA:   7    -0.354116774804E+03   -0.34555E-03   -0.34935E-03 10080   0.249E-02-0.344E-03
CGA:   8    -0.354116921035E+03   -0.14623E-03   -0.14698E-03 10080   0.811E-03 0.304E-04
CGA:   9    -0.354116946475E+03   -0.25440E-04   -0.31261E-04 10080   0.348E-03 0.127E-03
CGA:  10    -0.354116685333E+03    0.26114E-03   -0.14819E-03 10080   0.106E-01-0.105E-02
CGA:  11    -0.354116874466E+03   -0.18913E-03   -0.25427E-03 10080   0.942E-03 0.667E-03
CGA:  12    -0.354116932171E+03   -0.57705E-04   -0.64173E-04 10080   0.114E-02 0.815E-04
CGA:  13    -0.354117059161E+03   -0.12699E-03   -0.11878E-03 10080   0.136E-03-0.197E-03
CGA:  14    -0.354117057731E+03    0.14298E-05   -0.30840E-05 10080   0.695E-04 0.413E-04
  18 F= -.35411706E+03 E0= -.35411098E+03  d E =0.143799E-02  mag=    10.0000
       N       E                     dE             d eps       ncg     rms          ort
SDA:   1    -0.354098643153E+03    0.18416E-01    0.00000E+00 10080   0.159E+00 0.000E+00
CGA:   2    -0.354102816909E+03   -0.41738E-02   -0.43887E-02 10080   0.421E-01 0.436E-02
CGA:   3    -0.354107910733E+03   -0.50938E-02   -0.50988E-02 10080   0.722E-01 0.108E-02
CGA:   4    -0.354111783958E+03   -0.38732E-02   -0.38800E-02 10080   0.158E-01-0.549E-03
CGA:   5    -0.354113119206E+03   -0.13352E-02   -0.13586E-02 10080   0.108E-01 0.789E-03
CGA:   6    -0.354114041783E+03   -0.92258E-03   -0.87207E-03 10080   0.138E-01-0.131E-02
CGA:   7    -0.354114470204E+03   -0.42842E-03   -0.41168E-03 10080   0.127E-02-0.197E-03
CGA:   8    -0.354114515308E+03   -0.45104E-04   -0.57774E-04 10080   0.151E-02 0.194E-03
CGA:   9    -0.354114675321E+03   -0.16001E-03   -0.15811E-03 10080   0.586E-03-0.116E-03
CGA:  10    -0.354114728552E+03   -0.53231E-04   -0.45281E-04 10080   0.746E-03-0.347E-03
CGA:  11    -0.354114732342E+03   -0.37898E-05   -0.18682E-04 10080   0.129E-03 0.187E-03
  19 F= -.35411473E+03 E0= -.35410866E+03  d E =0.232539E-02  mag=    10.0000
       N       E                     dE             d eps       ncg     rms          ort
SDA:   1    -0.354100925338E+03    0.13803E-01    0.00000E+00 10080   0.109E+00 0.000E+00
CGA:   2    -0.354104645287E+03   -0.37199E-02   -0.37749E-02 10080   0.301E-01 0.512E-02
CGA:   3    -0.354110672731E+03   -0.60274E-02   -0.59882E-02 10080   0.142E-01 0.403E-03
CGA:   4    -0.354111918828E+03   -0.12461E-02   -0.12362E-02 10080   0.240E-01-0.760E-03
CGA:   5    -0.354113416986E+03   -0.14982E-02   -0.14817E-02 10080   0.608E-02-0.537E-03
CGA:   6    -0.354113546296E+03   -0.12931E-03   -0.17020E-03 10080   0.151E-02 0.643E-03
CGA:   7    -0.354113705116E+03   -0.15882E-03   -0.15867E-03 10080   0.177E-02 0.183E-03
CGA:   8    -0.354113845539E+03   -0.14042E-03   -0.11804E-03 10080   0.171E-02-0.655E-03
CGA:   9    -0.354113877694E+03   -0.32155E-04   -0.32125E-04 10080   0.602E-03-0.787E-06
CGA:  10    -0.354113879523E+03   -0.18295E-05   -0.11156E-04 10080   0.251E-03 0.131E-03
  20 F= -.35411388E+03 E0= -.35410777E+03  d E =0.852818E-03  mag=    10.0000
       N       E                     dE             d eps       ncg     rms          ort
SDA:   1    -0.354097843369E+03    0.16034E-01    0.00000E+00 10080   0.312E+00 0.000E+00
CGA:   2    -0.354104757637E+03   -0.69143E-02   -0.71403E-02 10080   0.281E-01 0.753E-02
CGA:   3    -0.354107094137E+03   -0.23365E-02   -0.23356E-02 10080   0.435E-01 0.654E-03
CGA:   4    -0.354111218383E+03   -0.41242E-02   -0.41478E-02 10080   0.196E-01-0.183E-02
CGA:   5    -0.354112071964E+03   -0.85358E-03   -0.89678E-03 10080   0.812E-02 0.141E-02
CGA:   6    -0.354112477600E+03   -0.40564E-03   -0.40593E-03 10080   0.563E-02-0.402E-04
CGA:   7    -0.354113063706E+03   -0.58611E-03   -0.58840E-03 10080   0.880E-03-0.851E-04
CGA:   8    -0.354113139240E+03   -0.75534E-04   -0.77525E-04 10080   0.832E-03-0.186E-03
CGA:   9    -0.354113189300E+03   -0.50060E-04   -0.50253E-04 10080   0.641E-03 0.719E-04
CGA:  10    -0.354113221174E+03   -0.31874E-04   -0.30743E-04 10080   0.134E-03-0.363E-04
CGA:  11    -0.354113220728E+03    0.44572E-06   -0.32157E-05 10080   0.670E-04 0.705E-04
CGA:  12    -0.354113207284E+03    0.13444E-04   -0.10384E-04 10080   0.102E-02-0.111E-03
CGA:  13    -0.354113248513E+03   -0.41229E-04   -0.35959E-04 10080   0.258E-03-0.636E-04
CGA:  14    -0.354113247833E+03    0.68036E-06   -0.58453E-05 10080   0.354E-04 0.611E-04
  21 F= -.35411325E+03 E0= -.35410712E+03  d E =0.631691E-03  mag=    10.0000
       N       E                     dE             d eps       ncg     rms          ort
SDA:   1    -0.354108612593E+03    0.46359E-02    0.00000E+00 10080   0.192E-01 0.000E+00
CGA:   2    -0.354109307900E+03   -0.69531E-03   -0.75350E-03 10080   0.157E-01 0.739E-03
CGA:   3    -0.354111700389E+03   -0.23925E-02   -0.24021E-02 10080   0.101E-01-0.339E-03
CGA:   4    -0.354112370970E+03   -0.67058E-03   -0.66151E-03 10080   0.224E-02-0.932E-04
CGA:   5    -0.354112676502E+03   -0.30553E-03   -0.30907E-03 10080   0.305E-02-0.154E-03
CGA:   6    -0.354112747849E+03   -0.71347E-04   -0.10076E-03 10080   0.329E-03 0.372E-03
CGA:   7    -0.354112755394E+03   -0.75450E-05   -0.15842E-04 10080   0.273E-03 0.119E-03
CGA:   8    -0.354112801810E+03   -0.46416E-04   -0.47234E-04 10080   0.123E-03-0.461E-04
CGA:   9    -0.354112728509E+03    0.73301E-04   -0.30439E-04 10080   0.389E-02-0.550E-03
CGA:  10    -0.354112803866E+03   -0.75357E-04   -0.10914E-03 10080   0.256E-03 0.421E-03
CGA:  11    -0.354112810802E+03   -0.69361E-05   -0.12009E-04 10080   0.877E-04 0.694E-04
CGA:  12    -0.354112823415E+03   -0.12612E-04   -0.12769E-04 10080   0.262E-03-0.520E-04
CGA:  13    -0.354112826814E+03   -0.33990E-05   -0.74422E-05 10080   0.268E-04 0.481E-04
  22 F= -.35411283E+03 E0= -.35410669E+03  d E =0.421019E-03  mag=    10.0000
       N       E                     dE             d eps       ncg     rms          ort
SDA:   1    -0.354031021439E+03    0.81802E-01    0.00000E+00 10080   0.243E+00 0.000E+00
CGA:   2    -0.354061060419E+03   -0.30039E-01   -0.30034E-01 10080   0.535E+00-0.133E-02
CGA:   3    -0.354085373379E+03   -0.24313E-01   -0.24562E-01 10080   0.205E+00 0.166E-02
CGA:   4    -0.354098392035E+03   -0.13019E-01   -0.13360E-01 10080   0.679E-01 0.383E-04
CGA:   5    -0.354104378161E+03   -0.59861E-02   -0.60186E-02 10080   0.695E-01 0.238E-02
CGA:   6    -0.354107935103E+03   -0.35569E-02   -0.35529E-02 10080   0.125E-01-0.350E-03
CGA:   7    -0.354108528917E+03   -0.59381E-03   -0.54065E-03 10080   0.959E-02-0.101E-02
CGA:   8    -0.354109354021E+03   -0.82510E-03   -0.82725E-03 10080   0.178E-02 0.774E-03
CGA:   9    -0.354109565928E+03   -0.21191E-03   -0.22028E-03 10080   0.252E-02-0.472E-03
CGA:  10    -0.354109675507E+03   -0.10958E-03   -0.10135E-03 10080   0.201E-02-0.198E-03
CGA:  11    -0.354109734808E+03   -0.59301E-04   -0.73722E-04 10080   0.470E-03 0.263E-03
CGA:  12    -0.354109756630E+03   -0.21822E-04   -0.22631E-04 10080   0.360E-03 0.144E-04
CGA:  13    -0.354109795328E+03   -0.38697E-04   -0.57788E-04 10080   0.187E-02-0.291E-03
CGA:  14    -0.354109818013E+03   -0.22685E-04   -0.42234E-04 10080   0.171E-03 0.273E-03
CGA:  15    -0.354109824052E+03   -0.60393E-05   -0.71929E-05 10080   0.692E-04 0.213E-04
CGA:  16    -0.354109842202E+03   -0.18150E-04    0.10019E-04 10080   0.165E-03-0.249E-04
CGA:  17    -0.354109849761E+03   -0.75593E-05   -0.65056E-05 10080   0.275E-03-0.418E-04
  23 F= -.35410985E+03 E0= -.35410376E+03  d E =0.297705E-02  mag=    10.0000
       N       E                     dE             d eps       ncg     rms          ort
SDA:   1    -0.354072933941E+03    0.36908E-01    0.00000E+00 10080   0.299E+00 0.000E+00
CGA:   2    -0.354083899587E+03   -0.10966E-01   -0.10977E-01 10080   0.120E+00-0.282E-02
CGA:   3    -0.354093219407E+03   -0.93198E-02   -0.93158E-02 10080   0.130E+00-0.243E-02
CGA:   4    -0.354101874748E+03   -0.86553E-02   -0.87009E-02 10080   0.746E-01 0.465E-02
CGA:   5    -0.354105815925E+03   -0.39412E-02   -0.39531E-02 10080   0.171E-01-0.151E-02
CGA:   6    -0.354108689398E+03   -0.28735E-02   -0.29806E-02 10080   0.916E-02-0.108E-02
CGA:   7    -0.354109034010E+03   -0.34461E-03   -0.29019E-03 10080   0.333E-02-0.116E-02
CGA:   8    -0.354109276044E+03   -0.24203E-03   -0.24170E-03 10080   0.253E-02 0.136E-03
CGA:   9    -0.354109401823E+03   -0.12578E-03   -0.13134E-03 10080   0.644E-03 0.173E-03
CGA:  10    -0.354109470160E+03   -0.68336E-04   -0.76983E-04 10080   0.986E-03-0.266E-03
CGA:  11    -0.354109497480E+03   -0.27321E-04   -0.28319E-04 10080   0.510E-03 0.302E-04
CGA:  12    -0.354109502718E+03   -0.52375E-05   -0.14391E-04 10080   0.178E-03 0.177E-03
  24 F= -.35410950E+03 E0= -.35410341E+03  d E =0.347044E-03  mag=    10.0000
       N       E                     dE             d eps       ncg     rms          ort
SDA:   1    -0.354046804702E+03    0.62693E-01    0.00000E+00 10080   0.254E+00 0.000E+00
CGA:   2    -0.354062265379E+03   -0.15461E-01   -0.15546E-01 10080   0.322E+00 0.711E-02
CGA:   3    -0.354087140046E+03   -0.24875E-01   -0.24877E-01 10080   0.130E+00-0.194E-02
CGA:   4    -0.354093540135E+03   -0.64001E-02   -0.63740E-02 10080   0.853E-01-0.144E-02
CGA:   5    -0.354104306965E+03   -0.10767E-01   -0.10904E-01 10080   0.283E-01-0.250E-02
CGA:   6    -0.354105387677E+03   -0.10807E-02   -0.10853E-02 10080   0.135E-01 0.901E-04
CGA:   7    -0.354106446121E+03   -0.10584E-02   -0.10736E-02 10080   0.121E-01-0.262E-02
CGA:   8    -0.354106997819E+03   -0.55170E-03   -0.56120E-03 10080   0.314E-02 0.602E-03
CGA:   9    -0.354107172327E+03   -0.17451E-03   -0.17343E-03 10080   0.111E-02-0.818E-04
CGA:  10    -0.354107277667E+03   -0.10534E-03   -0.98726E-04 10080   0.121E-02 0.342E-03
CGA:  11    -0.354107383317E+03   -0.10565E-03   -0.10426E-03 10080   0.802E-03-0.201E-03
CGA:  12    -0.354107396006E+03   -0.12690E-04   -0.19919E-04 10080   0.219E-03 0.167E-03
CGA:  13    -0.354107402385E+03   -0.63786E-05   -0.97772E-05 10080   0.205E-03 0.101E-03
CGA:  14    -0.354107422926E+03   -0.20541E-04   -0.20546E-04 10080   0.206E-03 0.155E-04
CGA:  15    -0.354107434853E+03   -0.11927E-04   -0.12677E-04 10080   0.161E-03 0.647E-04
CGA:  16    -0.354107441891E+03   -0.70383E-05   -0.78632E-05 10080   0.485E-04 0.264E-04
  25 F= -.35410744E+03 E0= -.35410131E+03  d E =0.206083E-02  mag=    10.0000
       N       E                     dE             d eps       ncg     rms          ort
SDA:   1    -0.354091411756E+03    0.16023E-01    0.00000E+00 10080   0.145E+00 0.000E+00
CGA:   2    -0.354096376758E+03   -0.49650E-02   -0.48656E-02 10080   0.519E-01-0.768E-02
CGA:   3    -0.354100902373E+03   -0.45256E-02   -0.45134E-02 10080   0.671E-01 0.352E-03
CGA:   4    -0.354104554786E+03   -0.36524E-02   -0.36624E-02 10080   0.233E-01 0.688E-03
CGA:   5    -0.354106165768E+03   -0.16110E-02   -0.16085E-02 10080   0.967E-02 0.862E-03
CGA:   6    -0.354107284932E+03   -0.11192E-02   -0.10952E-02 10080   0.846E-02 0.536E-03
CGA:   7    -0.354107526767E+03   -0.24183E-03   -0.26969E-03 10080   0.107E-02 0.706E-03
CGA:   8    -0.354107640436E+03   -0.11367E-03   -0.18233E-03 10080   0.533E-02-0.760E-03
CGA:   9    -0.354107725911E+03   -0.85475E-04   -0.12013E-03 10080   0.285E-03 0.739E-03
CGA:  10    -0.354107731153E+03   -0.52414E-05   -0.90795E-05 10080   0.142E-03 0.946E-04
CGA:  11    -0.354107755007E+03   -0.23855E-04   -0.37828E-04 10080   0.122E-02-0.105E-03
CGA:  12    -0.354107789300E+03   -0.34293E-04   -0.33399E-04 10080   0.104E-03-0.239E-04
CGA:  13    -0.354107795253E+03   -0.59530E-05   -0.10814E-04 10080   0.545E-03-0.140E-03
  26 F= -.35410780E+03 E0= -.35410167E+03  d E =-.353362E-03  mag=    10.0000
       N       E                     dE             d eps       ncg     rms          ort
SDA:   1    -0.354090533016E+03    0.17256E-01    0.00000E+00 10080   0.129E+00 0.000E+00
CGA:   2    -0.354095387670E+03   -0.48547E-02   -0.47916E-02 10080   0.636E-01-0.442E-02
CGA:   3    -0.354099925657E+03   -0.45380E-02   -0.45258E-02 10080   0.518E-01 0.228E-02
CGA:   4    -0.354103850322E+03   -0.39247E-02   -0.39211E-02 10080   0.299E-01 0.653E-03
CGA:   5    -0.354105579442E+03   -0.17291E-02   -0.17154E-02 10080   0.116E-01-0.131E-02
CGA:   6    -0.354106906800E+03   -0.13274E-02   -0.12576E-02 10080   0.350E-02 0.153E-02
CGA:   7    -0.354107019226E+03   -0.11243E-03   -0.13172E-03 10080   0.144E-02 0.509E-03
CGA:   8    -0.354107236601E+03   -0.21738E-03   -0.25485E-03 10080   0.212E-02-0.435E-03
CGA:   9    -0.354107250630E+03   -0.14029E-04   -0.32515E-04 10080   0.660E-03 0.364E-03
CGA:  10    -0.354107251939E+03   -0.13089E-05   -0.13881E-04 10080   0.298E-03 0.242E-03
CGA:  11    -0.354107257958E+03   -0.60192E-05   -0.11683E-04 10080   0.298E-03 0.146E-03
CGA:  12    -0.354107285923E+03   -0.27965E-04   -0.27604E-04 10080   0.511E-03-0.104E-03
CGA:  13    -0.354107302679E+03   -0.16756E-04   -0.10403E-04 10080   0.564E-03-0.187E-03
CGA:  14    -0.354107313245E+03   -0.10566E-04   -0.61687E-05 10080   0.342E-03-0.950E-04
CGA:  15    -0.354107318906E+03   -0.56608E-05   -0.44232E-05 10080   0.171E-03-0.271E-04
  27 F= -.35410732E+03 E0= -.35410120E+03  d E =0.476348E-03  mag=    10.0000
       N       E                     dE             d eps       ncg     rms          ort
SDA:   1    -0.354044542819E+03    0.62770E-01    0.00000E+00 10080   0.245E+00 0.000E+00
CGA:   2    -0.354067760599E+03   -0.23218E-01   -0.23280E-01 10080   0.334E+00-0.246E-02
CGA:   3    -0.354086320345E+03   -0.18560E-01   -0.18569E-01 10080   0.882E-01 0.338E-02
CGA:   4    -0.354091697853E+03   -0.53775E-02   -0.53675E-02 10080   0.113E+00 0.641E-02
CGA:   5    -0.354102426928E+03   -0.10729E-01   -0.10709E-01 10080   0.146E-01 0.525E-03
CGA:   6    -0.354103358648E+03   -0.93172E-03   -0.92459E-03 10080   0.106E-01 0.250E-02
CGA:   7    -0.354104281721E+03   -0.92307E-03   -0.94024E-03 10080   0.972E-02-0.115E-02
CGA:   8    -0.354104593991E+03   -0.31227E-03   -0.32288E-03 10080   0.170E-02 0.419E-03
CGA:   9    -0.354104698498E+03   -0.10451E-03   -0.10472E-03 10080   0.129E-02 0.185E-03
CGA:  10    -0.354104774370E+03   -0.75871E-04   -0.22795E-03 10080   0.867E-02-0.154E-02
CGA:  11    -0.354104915335E+03   -0.14097E-03   -0.17711E-03 10080   0.554E-03 0.815E-03
CGA:  12    -0.354104929519E+03   -0.14184E-04   -0.20480E-04 10080   0.238E-03 0.218E-03
CGA:  13    -0.354104947686E+03   -0.18167E-04   -0.17988E-04 10080   0.269E-03-0.271E-04
CGA:  14    -0.354104962131E+03   -0.14445E-04   -0.14453E-04 10080   0.261E-03 0.248E-04
CGA:  15    -0.354104972174E+03   -0.10042E-04   -0.10404E-04 10080   0.117E-03 0.140E-04
CGA:  16    -0.354104948664E+03    0.23510E-04   -0.20158E-04 10080   0.161E-02-0.424E-03
CGA:  17    -0.354104983296E+03   -0.34632E-04   -0.44744E-04 10080   0.276E-03 0.273E-03
CGA:  18    -0.354104994132E+03   -0.10836E-04   -0.11669E-04 10080   0.439E-04 0.295E-04
CGA:  19    -0.354104997252E+03   -0.31201E-05   -0.30781E-05 10080   0.445E-04 0.242E-04
  28 F= -.35410500E+03 E0= -.35409893E+03  d E =0.232165E-02  mag=    10.0000
       N       E                     dE             d eps       ncg     rms          ort
SDA:   1    -0.354083830411E+03    0.21164E-01    0.00000E+00 10080   0.201E+00 0.000E+00
CGA:   2    -0.354088893271E+03   -0.50629E-02   -0.51660E-02 10080   0.471E-01 0.280E-02
CGA:   3    -0.354096756862E+03   -0.78636E-02   -0.78351E-02 10080   0.546E-01 0.273E-03
CGA:   4    -0.354098767099E+03   -0.20102E-02   -0.20932E-02 10080   0.110E-01 0.365E-02
CGA:   5    -0.354100616721E+03   -0.18496E-02   -0.17366E-02 10080   0.125E-01 0.134E-02
CGA:   6    -0.354101302951E+03   -0.68623E-03   -0.64434E-03 10080   0.632E-02-0.198E-02
CGA:   7    -0.354101530755E+03   -0.22780E-03   -0.23064E-03 10080   0.158E-02 0.113E-03
CGA:   8    -0.354101615962E+03   -0.85207E-04   -0.88678E-04 10080   0.120E-02 0.314E-03
CGA:   9    -0.354101750771E+03   -0.13481E-03   -0.17070E-03 10080   0.207E-02-0.680E-03
CGA:  10    -0.354101784811E+03   -0.34040E-04   -0.46976E-04 10080   0.291E-03 0.277E-03
CGA:  11    -0.354101806536E+03   -0.21726E-04   -0.21720E-04 10080   0.241E-03-0.501E-04
CGA:  12    -0.354101448377E+03    0.35816E-03   -0.19343E-03 10080   0.177E-01-0.125E-02
CGA:  13    -0.354101755502E+03   -0.30713E-03   -0.37743E-03 10080   0.885E-03 0.807E-03
CGA:  14    -0.354101786589E+03   -0.31087E-04   -0.43325E-04 10080   0.381E-03 0.180E-03
CGA:  15    -0.354101837535E+03   -0.50945E-04   -0.50622E-04 10080   0.116E-02-0.241E-03
CGA:  16    -0.354101851268E+03   -0.13733E-04   -0.26339E-04 10080   0.121E-03 0.138E-03
CGA:  17    -0.354101859637E+03   -0.83696E-05   -0.69213E-05 10080   0.452E-04-0.259E-04
  29 F= -.35410186E+03 E0= -.35409582E+03  d E =0.313761E-02  mag=    10.0000
       N       E                     dE             d eps       ncg     rms          ort
SDA:   1    -0.353902487839E+03    0.19936E+00    0.00000E+00 10080   0.143E+01 0.000E+00
CGA:   2    -0.353950907690E+03   -0.48420E-01   -0.51678E-01 10080   0.786E+00-0.965E-01
CGA:   3    -0.354025136960E+03   -0.74229E-01   -0.74229E-01 10080   0.613E+00 0.405E-02
CGA:   4    -0.354054334825E+03   -0.29198E-01   -0.29049E-01 10080   0.215E+00 0.750E-02
CGA:   5    -0.354074368728E+03   -0.20034E-01   -0.20042E-01 10080   0.183E+00 0.329E-03
CGA:   6    -0.354087295389E+03   -0.12927E-01   -0.12817E-01 10080   0.126E+00-0.533E-02
CGA:   7    -0.354091329414E+03   -0.40340E-02   -0.40534E-02 10080   0.143E-01 0.105E-02
CGA:   8    -0.354093863690E+03   -0.25343E-02   -0.27573E-02 10080   0.232E-01-0.231E-02
CGA:   9    -0.354094499020E+03   -0.63533E-03   -0.66804E-03 10080   0.317E-02 0.681E-03
CGA:  10    -0.354094689466E+03   -0.19045E-03   -0.19829E-03 10080   0.360E-02 0.226E-03
CGA:  11    -0.354095023969E+03   -0.33450E-03   -0.33093E-03 10080   0.333E-02-0.473E-03
CGA:  12    -0.354095154404E+03   -0.13043E-03   -0.14391E-03 10080   0.127E-02 0.304E-03
CGA:  13    -0.354095180977E+03   -0.26573E-04   -0.43456E-04 10080   0.478E-03 0.285E-03
CGA:  14    -0.354095218779E+03   -0.37802E-04   -0.41340E-04 10080   0.807E-03 0.204E-03
CGA:  15    -0.354095320371E+03   -0.10159E-03   -0.10164E-03 10080   0.303E-03-0.382E-04
CGA:  16    -0.354095346685E+03   -0.26313E-04   -0.27840E-04 10080   0.553E-03-0.164E-03
CGA:  17    -0.354095355456E+03   -0.87707E-05   -0.16552E-04 10080   0.202E-03 0.135E-03
CGA:  18    -0.354095373142E+03   -0.17686E-04   -0.18089E-04 10080   0.179E-03 0.308E-04
CGA:  19    -0.354095391148E+03   -0.18006E-04   -0.43531E-04 10080   0.799E-03-0.202E-03
CGA:  20    -0.354095401568E+03   -0.10420E-04   -0.16992E-04 10080   0.101E-03 0.921E-04
CGA:  21    -0.354095417732E+03   -0.16164E-04   -0.18367E-04 10080   0.490E-03-0.291E-04
CGA:  22    -0.354095429606E+03   -0.11874E-04   -0.95842E-05 10080   0.232E-03-0.367E-04
CGA:  23    -0.354095431426E+03   -0.18206E-05   -0.31799E-05 10080   0.686E-04 0.179E-04
  30 F= -.35409543E+03 E0= -.35408929E+03  d E =0.642821E-02  mag=    10.0000
       N       E                     dE             d eps       ncg     rms          ort
SDA:   1    -0.354053381034E+03    0.42049E-01    0.00000E+00 10080   0.144E+00 0.000E+00
CGA:   2    -0.354081641186E+03   -0.28260E-01   -0.29479E-01 10080   0.149E+00-0.100E-01
CGA:   3    -0.354090350038E+03   -0.87089E-02   -0.87668E-02 10080   0.659E-01 0.320E-02
CGA:   4    -0.354094000964E+03   -0.36509E-02   -0.36323E-02 10080   0.612E-01-0.120E-02
CGA:   5    -0.354098513252E+03   -0.45123E-02   -0.45348E-02 10080   0.167E-01 0.266E-02
CGA:   6    -0.354099238075E+03   -0.72482E-03   -0.74896E-03 10080   0.539E-02 0.581E-03
CGA:   7    -0.354099878727E+03   -0.64065E-03   -0.63702E-03 10080   0.465E-02 0.105E-03
CGA:   8    -0.354100107383E+03   -0.22866E-03   -0.23345E-03 10080   0.159E-02 0.118E-03
CGA:   9    -0.354100142307E+03   -0.34924E-04   -0.52527E-04 10080   0.504E-03 0.360E-03
CGA:  10    -0.354100246662E+03   -0.10435E-03   -0.10896E-03 10080   0.139E-02-0.480E-04
CGA:  11    -0.354100297267E+03   -0.50605E-04   -0.38411E-04 10080   0.290E-03-0.233E-03
CGA:  12    -0.354100307822E+03   -0.10555E-04   -0.10922E-04 10080   0.238E-03 0.964E-05
CGA:  13    -0.354100321486E+03   -0.13664E-04   -0.14406E-04 10080   0.295E-03 0.351E-04
CGA:  14    -0.354100347290E+03   -0.25804E-04   -0.47860E-04 10080   0.888E-03-0.352E-03
CGA:  15    -0.354100353701E+03   -0.64113E-05   -0.19922E-04 10080   0.112E-03 0.230E-03
  31 F= -.35410035E+03 E0= -.35409424E+03  d E =-.492227E-02  mag=    10.0000
       N       E                     dE             d eps       ncg     rms          ort
SDA:   1    -0.354023594122E+03    0.76753E-01    0.00000E+00 10080   0.284E+00 0.000E+00
CGA:   2    -0.354050373679E+03   -0.26780E-01   -0.26792E-01 10080   0.480E+00 0.604E-03
CGA:   3    -0.354081106062E+03   -0.30732E-01   -0.30638E-01 10080   0.151E+00-0.101E-01
CGA:   4    -0.354087799367E+03   -0.66933E-02   -0.67285E-02 10080   0.115E+00 0.135E-02
CGA:   5    -0.354100339501E+03   -0.12540E-01   -0.12384E-01 10080   0.176E-01 0.467E-02
CGA:   6    -0.354101852711E+03   -0.15132E-02   -0.15117E-02 10080   0.157E-01 0.216E-03
CGA:   7    -0.354102738855E+03   -0.88614E-03   -0.89232E-03 10080   0.102E-01 0.247E-03
CGA:   8    -0.354103166296E+03   -0.42744E-03   -0.46892E-03 10080   0.193E-02 0.140E-02
CGA:   9    -0.354103337430E+03   -0.17113E-03   -0.17380E-03 10080   0.301E-02-0.517E-03
CGA:  10    -0.354103523179E+03   -0.18575E-03   -0.18555E-03 10080   0.190E-02 0.200E-04
CGA:  11    -0.354103567295E+03   -0.44117E-04   -0.54636E-04 10080   0.526E-03 0.226E-03
CGA:  12    -0.354103613699E+03   -0.46403E-04   -0.48728E-04 10080   0.892E-03-0.223E-03
CGA:  13    -0.354103646621E+03   -0.32923E-04   -0.50194E-04 10080   0.260E-02-0.696E-03
CGA:  14    -0.354103708115E+03   -0.61494E-04   -0.83546E-04 10080   0.348E-03 0.533E-03
CGA:  15    -0.354103723195E+03   -0.15080E-04   -0.15970E-04 10080   0.928E-04 0.237E-04
CGA:  16    -0.354103732635E+03   -0.94398E-05   -0.89525E-05 10080   0.157E-03 0.242E-04
CGA:  17    -0.354103756757E+03   -0.24122E-04   -0.26245E-04 10080   0.773E-04-0.347E-04
CGA:  18    -0.354103757115E+03   -0.35781E-06   -0.14509E-05 10080   0.370E-04 0.215E-04
  32 F= -.35410376E+03 E0= -.35409772E+03  d E =-.340341E-02  mag=    10.0000
       N       E                     dE             d eps       ncg     rms          ort
SDA:   1    -0.354059487393E+03    0.44269E-01    0.00000E+00 10080   0.404E+00 0.000E+00
CGA:   2    -0.354070716194E+03   -0.11229E-01   -0.11313E-01 10080   0.120E+00 0.288E-02
CGA:   3    -0.354087502805E+03   -0.16787E-01   -0.16836E-01 10080   0.152E+00-0.824E-03
CGA:   4    -0.354093515877E+03   -0.60131E-02   -0.61033E-02 10080   0.313E-01 0.571E-02
CGA:   5    -0.354100248186E+03   -0.67323E-02   -0.71776E-02 10080   0.121E-01-0.299E-02
CGA:   6    -0.354100855324E+03   -0.60714E-03   -0.56496E-03 10080   0.839E-02-0.164E-02
CGA:   7    -0.354101634472E+03   -0.77915E-03   -0.78312E-03 10080   0.153E-02-0.140E-03
CGA:   8    -0.354101729032E+03   -0.94561E-04   -0.97734E-04 10080   0.910E-03 0.219E-03
CGA:   9    -0.354101803007E+03   -0.73975E-04   -0.74716E-04 10080   0.102E-02 0.108E-03
CGA:  10    -0.354101892188E+03   -0.89181E-04   -0.89148E-04 10080   0.536E-03-0.228E-03
CGA:  11    -0.354101892973E+03   -0.78520E-06   -0.86368E-05 10080   0.177E-03 0.136E-03
  33 F= -.35410189E+03 E0= -.35409581E+03  d E =0.186414E-02  mag=    10.0000
       N       E                     dE             d eps       ncg     rms          ort
SDA:   1    -0.354066436860E+03    0.35455E-01    0.00000E+00 10080   0.158E+00 0.000E+00
CGA:   2    -0.354074124392E+03   -0.76875E-02   -0.77906E-02 10080   0.166E+00 0.361E-02
CGA:   3    -0.354088559884E+03   -0.14435E-01   -0.14440E-01 10080   0.594E-01-0.607E-03
CGA:   4    -0.354093849731E+03   -0.52898E-02   -0.52504E-02 10080   0.356E-01 0.222E-02
CGA:   5    -0.354097423177E+03   -0.35734E-02   -0.36607E-02 10080   0.536E-01-0.343E-02
CGA:   6    -0.354099003700E+03   -0.15805E-02   -0.15729E-02 10080   0.433E-02-0.234E-03
CGA:   7    -0.354099341521E+03   -0.33782E-03   -0.33921E-03 10080   0.849E-02-0.227E-03
CGA:   8    -0.354099796668E+03   -0.45515E-03   -0.43932E-03 10080   0.244E-02-0.902E-03
CGA:   9    -0.354099846727E+03   -0.50059E-04   -0.62494E-04 10080   0.713E-03 0.288E-03
CGA:  10    -0.354099877264E+03   -0.30537E-04   -0.35828E-04 10080   0.780E-03 0.214E-03
CGA:  11    -0.354099967557E+03   -0.90292E-04   -0.98498E-04 10080   0.839E-03-0.284E-03
CGA:  12    -0.354099979093E+03   -0.11537E-04   -0.15525E-04 10080   0.480E-03 0.974E-04
CGA:  13    -0.354099981411E+03   -0.23180E-05   -0.10790E-04 10080   0.187E-03 0.178E-03
  34 F= -.35409998E+03 E0= -.35409386E+03  d E =0.191156E-02  mag=    10.0000
       N       E                     dE             d eps       ncg     rms          ort
SDA:   1    -0.354097218099E+03    0.27610E-02    0.00000E+00 10080   0.215E-01 0.000E+00
CGA:   2    -0.354097872088E+03   -0.65399E-03   -0.70608E-03 10080   0.558E-02 0.194E-02
CGA:   3    -0.354098936952E+03   -0.10649E-02   -0.10006E-02 10080   0.656E-02 0.620E-03
CGA:   4    -0.354099279742E+03   -0.34279E-03   -0.33547E-03 10080   0.341E-02-0.380E-03
CGA:   5    -0.354099547887E+03   -0.26815E-03   -0.28761E-03 10080   0.360E-02-0.821E-03
CGA:   6    -0.354099630630E+03   -0.82743E-04   -0.96115E-04 10080   0.127E-02 0.422E-03
CGA:   7    -0.354099684205E+03   -0.53575E-04   -0.57200E-04 10080   0.508E-03 0.142E-03
CGA:   8    -0.354099720665E+03   -0.36460E-04   -0.37109E-04 10080   0.120E-02-0.408E-03
CGA:   9    -0.354099738003E+03   -0.17339E-04   -0.26725E-04 10080   0.194E-03 0.220E-03
CGA:  10    -0.354099752219E+03   -0.14216E-04   -0.14216E-04 10080   0.196E-03-0.282E-04
CGA:  11    -0.354099775761E+03   -0.23542E-04    0.38552E-04 10080   0.328E-03-0.460E-04
CGA:  12    -0.354099790398E+03   -0.14637E-04   -0.14446E-04 10080   0.207E-03-0.434E-04
CGA:  13    -0.354099788309E+03    0.20893E-05   -0.20611E-05 10080   0.891E-04 0.826E-04
  35 F= -.35409979E+03 E0= -.35409366E+03  d E =0.193102E-03  mag=    10.0000
       N       E                     dE             d eps       ncg     rms          ort
SDA:   1    -0.354082047113E+03    0.17743E-01    0.00000E+00 10080   0.802E-01 0.000E+00
CGA:   2    -0.354086717526E+03   -0.46704E-02   -0.46762E-02 10080   0.770E-01-0.481E-02
CGA:   3    -0.354093294840E+03   -0.65773E-02   -0.64560E-02 10080   0.429E-01 0.364E-02
CGA:   4    -0.354095049667E+03   -0.17548E-02   -0.17698E-02 10080   0.208E-01 0.609E-03
CGA:   5    -0.354097099126E+03   -0.20495E-02   -0.19740E-02 10080   0.107E-01 0.207E-02
CGA:   6    -0.354098100097E+03   -0.10010E-02   -0.10201E-02 10080   0.316E-02-0.708E-03
CGA:   7    -0.354098188983E+03   -0.88886E-04   -0.10704E-03 10080   0.150E-02 0.742E-03
CGA:   8    -0.354098322001E+03   -0.13302E-03   -0.13054E-03 10080   0.797E-03 0.225E-03
CGA:   9    -0.354098251639E+03    0.70363E-04   -0.20766E-03 10080   0.862E-02-0.167E-02
CGA:  10    -0.354098417236E+03   -0.16560E-03   -0.20894E-03 10080   0.512E-03 0.105E-02
CGA:  11    -0.354098434116E+03   -0.16880E-04   -0.21781E-04 10080   0.344E-03 0.173E-03
CGA:  12    -0.354098480211E+03   -0.46095E-04   -0.45180E-04 10080   0.163E-03 0.272E-04
CGA:  13    -0.354098488278E+03   -0.80665E-05   -0.72033E-05 10080   0.785E-04-0.347E-04
CGA:  14    -0.354098497184E+03   -0.89063E-05    0.18678E-04 10080   0.638E-04-0.233E-04
  36 F= -.35409850E+03 E0= -.35409238E+03  d E =0.129112E-02  mag=    10.0000
       N       E                     dE             d eps       ncg     rms          ort
SDA:   1    -0.354094383038E+03    0.41052E-02    0.00000E+00 10080   0.401E-01 0.000E+00
CGA:   2    -0.354095919397E+03   -0.15364E-02   -0.14972E-02 10080   0.193E-01-0.189E-02
CGA:   3    -0.354097062647E+03   -0.11433E-02   -0.11432E-02 10080   0.144E-01 0.118E-04
CGA:   4    -0.354098776540E+03   -0.17139E-02   -0.17879E-02 10080   0.104E-01-0.122E-02
CGA:   5    -0.354099061456E+03   -0.28492E-03   -0.31587E-03 10080   0.186E-02 0.102E-02
CGA:   6    -0.354099194242E+03   -0.13279E-03   -0.13202E-03 10080   0.199E-02 0.590E-03
CGA:   7    -0.354099382784E+03   -0.18854E-03   -0.19310E-03 10080   0.985E-03-0.440E-03
CGA:   8    -0.354099394693E+03   -0.11909E-04   -0.22470E-04 10080   0.344E-03 0.306E-03
CGA:   9    -0.354099397773E+03   -0.30802E-05   -0.10348E-04 10080   0.147E-03 0.186E-03
CGA:  10    -0.354099417165E+03   -0.19391E-04    0.46105E-04 10080   0.113E-03 0.701E-04
CGA:  11    -0.354099425638E+03   -0.84736E-05   -0.89128E-05 10080   0.499E-04 0.645E-04
  37 F= -.35409943E+03 E0= -.35409331E+03  d E =-.928454E-03  mag=    10.0000
       N       E                     dE             d eps       ncg     rms          ort
SDA:   1    -0.354091704366E+03    0.77128E-02    0.00000E+00 10080   0.197E+00 0.000E+00
CGA:   2    -0.354096109723E+03   -0.44054E-02   -0.42979E-02 10080   0.121E-01-0.445E-02
CGA:   3    -0.354098554913E+03   -0.24452E-02   -0.24055E-02 10080   0.133E-01 0.260E-03
CGA:   4    -0.354099173697E+03   -0.61878E-03   -0.59907E-03 10080   0.825E-02-0.101E-02
CGA:   5    -0.354099661379E+03   -0.48768E-03   -0.48777E-03 10080   0.325E-02 0.584E-03
CGA:   6    -0.354100028316E+03   -0.36694E-03   -0.56130E-03 10080   0.405E-02-0.200E-02
CGA:   7    -0.354100123096E+03   -0.94780E-04   -0.12191E-03 10080   0.843E-03 0.711E-03
CGA:   8    -0.354100160108E+03   -0.37012E-04   -0.39855E-04 10080   0.252E-03 0.101E-03
CGA:   9    -0.354100196466E+03   -0.36358E-04   -0.36771E-04 10080   0.247E-03-0.651E-05
CGA:  10    -0.354100198133E+03   -0.16666E-05   -0.57384E-05 10080   0.735E-04 0.898E-04
  38 F= -.35410020E+03 E0= -.35409408E+03  d E =-.772494E-03  mag=    10.0000
       N       E                     dE             d eps       ncg     rms          ort
SDA:   1    -0.354097284832E+03    0.29116E-02    0.00000E+00 10080   0.120E-01 0.000E+00
CGA:   2    -0.354097665149E+03   -0.38032E-03   -0.42957E-03 10080   0.689E-02 0.173E-02
CGA:   3    -0.354098474611E+03   -0.80946E-03   -0.76953E-03 10080   0.501E-02 0.115E-02
CGA:   4    -0.354098841699E+03   -0.36709E-03   -0.36574E-03 10080   0.336E-02-0.628E-03
CGA:   5    -0.354099041248E+03   -0.19955E-03   -0.19902E-03 10080   0.144E-02 0.171E-03
CGA:   6    -0.354099202953E+03   -0.16171E-03   -0.17630E-03 10080   0.134E-02-0.284E-03
CGA:   7    -0.354099259578E+03   -0.56624E-04   -0.49028E-04 10080   0.706E-03-0.353E-03
CGA:   8    -0.354099195221E+03    0.64356E-04   -0.86901E-04 10080   0.484E-02-0.150E-02
CGA:   9    -0.354099286340E+03   -0.91119E-04   -0.12287E-03 10080   0.782E-03 0.707E-03
CGA:  10    -0.354099310263E+03   -0.23922E-04   -0.30568E-04 10080   0.161E-03 0.186E-03
CGA:  11    -0.354099324443E+03   -0.14180E-04   -0.14214E-04 10080   0.362E-03-0.994E-05
CGA:  12    -0.354099329037E+03   -0.45937E-05   -0.10238E-04 10080   0.283E-03 0.151E-03
  39 F= -.35409933E+03 E0= -.35409321E+03  d E =0.869096E-03  mag=    10.0000
       N       E                     dE             d eps       ncg     rms          ort
SDA:   1    -0.351594520287E+03    0.25048E+01    0.00000E+00 10080   0.982E+01 0.000E+00
CGA:   2    -0.352310483932E+03   -0.71596E+00   -0.70146E+00 10080   0.102E+02 0.109E+01
CGA:   3    -0.353285938658E+03   -0.97545E+00   -0.99572E+00 10080   0.797E+01-0.613E+00
CGA:   4    -0.353562195911E+03   -0.27626E+00   -0.28098E+00 10080   0.306E+01-0.192E+00
CGA:   5    -0.353829002664E+03   -0.26681E+00   -0.26353E+00 10080   0.229E+01 0.100E+00
CGA:   6    -0.353971400002E+03   -0.14240E+00   -0.14125E+00 10080   0.761E+00-0.884E-01
CGA:   7    -0.354004274231E+03   -0.32874E-01   -0.32708E-01 10080   0.399E+00-0.136E-01
CGA:   8    -0.354025895832E+03   -0.21622E-01   -0.21593E-01 10080   0.258E+00-0.339E-02
CGA:   9    -0.354043406492E+03   -0.17511E-01   -0.17520E-01 10080   0.743E-01-0.203E-02
CGA:  10    -0.354048334448E+03   -0.49280E-02   -0.49392E-02 10080   0.601E-01-0.378E-02
CGA:  11    -0.354052057318E+03   -0.37229E-02   -0.37175E-02 10080   0.426E-01 0.336E-02
CGA:  12    -0.354054081617E+03   -0.20243E-02   -0.20241E-02 10080   0.191E-01-0.342E-03
CGA:  13    -0.354055869243E+03   -0.17876E-02   -0.18111E-02 10080   0.146E-01-0.768E-03
CGA:  14    -0.354056821266E+03   -0.95202E-03   -0.94664E-03 10080   0.515E-02 0.174E-02
CGA:  15    -0.354057483278E+03   -0.66201E-03   -0.68643E-03 10080   0.974E-02-0.464E-03
CGA:  16    -0.354058080863E+03   -0.59759E-03   -0.59737E-03 10080   0.453E-02 0.115E-02
CGA:  17    -0.354058325274E+03   -0.24441E-03   -0.23581E-03 10080   0.295E-02-0.445E-03
CGA:  18    -0.354058609675E+03   -0.28440E-03   -0.32034E-03 10080   0.528E-02-0.672E-03
CGA:  19    -0.354058932482E+03   -0.32281E-03   -0.32356E-03 10080   0.128E-02-0.780E-04
CGA:  20    -0.354058964700E+03   -0.32218E-04   -0.44052E-04 10080   0.650E-03 0.344E-03
CGA:  21    -0.354059078725E+03   -0.11402E-03   -0.10348E-03 10080   0.137E-02 0.182E-03
CGA:  22    -0.354059225795E+03   -0.14707E-03   -0.17400E-03 10080   0.159E-02-0.947E-03
CGA:  23    -0.354059249496E+03   -0.23701E-04   -0.38091E-04 10080   0.261E-03 0.297E-03
CGA:  24    -0.354059267880E+03   -0.18384E-04   -0.18999E-04 10080   0.384E-03 0.727E-04
CGA:  25    -0.354059307832E+03   -0.39952E-04   -0.91619E-04 10080   0.130E-02-0.441E-03
CGA:  26    -0.354059321293E+03   -0.13461E-04   -0.28613E-04 10080   0.238E-03 0.287E-03
CGA:  27    -0.354059325608E+03   -0.43150E-05   -0.93444E-05 10080   0.144E-03 0.124E-03
CGA:  28    -0.354059345968E+03   -0.20361E-04    0.11760E-02 10080   0.314E-03-0.241E-04
CGA:  29    -0.354059368264E+03   -0.22296E-04   -0.21922E-04 10080   0.112E-03 0.279E-04
CGA:  30    -0.354059366752E+03    0.15121E-05   -0.16414E-05 10080   0.316E-04 0.545E-04
  40 F= -.35405937E+03 E0= -.35405289E+03  d E =0.399623E-01  mag=    10.0000
       N       E                     dE             d eps       ncg     rms          ort
SDA:   1    -0.352596341157E+03    0.14630E+01    0.00000E+00 10080   0.475E+01 0.000E+00
CGA:   2    -0.353212609483E+03   -0.61627E+00   -0.61651E+00 10080   0.942E+01 0.276E-01
CGA:   3    -0.353651307797E+03   -0.43870E+00   -0.43346E+00 10080   0.275E+01-0.734E-01
CGA:   4    -0.353833078836E+03   -0.18177E+00   -0.18177E+00 10080   0.201E+01 0.315E-02
CGA:   5    -0.353984341368E+03   -0.15126E+00   -0.15118E+00 10080   0.125E+01 0.116E-01
CGA:   6    -0.354051791581E+03   -0.67450E-01   -0.67545E-01 10080   0.176E+00 0.126E-02
CGA:   7    -0.354066861829E+03   -0.15070E-01   -0.15066E-01 10080   0.306E+00-0.472E-03
CGA:   8    -0.354082410406E+03   -0.15549E-01   -0.15667E-01 10080   0.335E-01 0.803E-02
CGA:   9    -0.354084970484E+03   -0.25601E-02   -0.25819E-02 10080   0.456E-01-0.307E-02
CGA:  10    -0.354089108410E+03   -0.41379E-02   -0.40976E-02 10080   0.974E-02 0.125E-02
CGA:  11    -0.354089638146E+03   -0.52974E-03   -0.52555E-03 10080   0.106E-01-0.307E-03
CGA:  12    -0.354090673717E+03   -0.10356E-02   -0.10276E-02 10080   0.845E-02 0.243E-03
CGA:  13    -0.354091366985E+03   -0.69327E-03   -0.72637E-03 10080   0.600E-02-0.236E-02
CGA:  14    -0.354091524153E+03   -0.15717E-03   -0.16967E-03 10080   0.253E-02 0.392E-03
CGA:  15    -0.354091698186E+03   -0.17403E-03   -0.17615E-03 10080   0.293E-02 0.564E-03
CGA:  16    -0.354091975813E+03   -0.27763E-03   -0.28275E-03 10080   0.347E-02-0.530E-03
CGA:  17    -0.354092165577E+03   -0.18976E-03   -0.18954E-03 10080   0.227E-02-0.902E-04
CGA:  18    -0.354092230860E+03   -0.65283E-04   -0.66509E-04 10080   0.435E-03 0.267E-04
CGA:  19    -0.354092279487E+03   -0.48627E-04   -0.50575E-04 10080   0.157E-02-0.418E-04
CGA:  20    -0.354092358498E+03   -0.79011E-04   -0.79748E-04 10080   0.966E-03 0.535E-04
CGA:  21    -0.354092388717E+03   -0.30219E-04   -0.30385E-04 10080   0.315E-03-0.639E-06
CGA:  22    -0.354092399228E+03   -0.10510E-04   -0.11086E-04 10080   0.167E-03 0.159E-04
CGA:  23    -0.354092401512E+03   -0.22841E-05   -0.53770E-05 10080   0.150E-03 0.889E-04
  41 F= -.35409240E+03 E0= -.35408623E+03  d E =-.330348E-01  mag=    10.0000
       N       E                     dE             d eps       ncg     rms          ort
SDA:   1    -0.351962976770E+03    0.21294E+01    0.00000E+00 10080   0.665E+01 0.000E+00
CGA:   2    -0.352798673353E+03   -0.83570E+00   -0.83704E+00 10080   0.128E+02 0.556E-01
CGA:   3    -0.353437736064E+03   -0.63906E+00   -0.63272E+00 10080   0.392E+01-0.128E+00
CGA:   4    -0.353692027884E+03   -0.25429E+00   -0.25429E+00 10080   0.268E+01 0.526E-02
CGA:   5    -0.353897820690E+03   -0.20579E+00   -0.20586E+00 10080   0.178E+01 0.379E-02
CGA:   6    -0.353998230363E+03   -0.10041E+00   -0.10069E+00 10080   0.223E+00 0.944E-02
CGA:   7    -0.354025916774E+03   -0.27686E-01   -0.27429E-01 10080   0.389E+00 0.411E-02
CGA:   8    -0.354041966563E+03   -0.16050E-01   -0.16136E-01 10080   0.621E-01 0.569E-02
CGA:   9    -0.354045644517E+03   -0.36780E-02   -0.36477E-02 10080   0.598E-01-0.403E-02
CGA:  10    -0.354052634551E+03   -0.69900E-02   -0.69263E-02 10080   0.137E-01 0.106E-02
CGA:  11    -0.354053664498E+03   -0.10299E-02   -0.10397E-02 10080   0.278E-01-0.203E-02
CGA:  12    -0.354055701207E+03   -0.20367E-02   -0.20464E-02 10080   0.123E-01-0.600E-03
CGA:  13    -0.354056219876E+03   -0.51867E-03   -0.52933E-03 10080   0.603E-02 0.384E-03
CGA:  14    -0.354056647481E+03   -0.42760E-03   -0.42607E-03 10080   0.909E-02-0.150E-02
CGA:  15    -0.354057168368E+03   -0.52089E-03   -0.52806E-03 10080   0.102E-01-0.925E-03
CGA:  16    -0.354057529569E+03   -0.36120E-03   -0.38406E-03 10080   0.382E-02 0.824E-03
CGA:  17    -0.354057639842E+03   -0.11027E-03   -0.11704E-03 10080   0.102E-02 0.143E-03
CGA:  18    -0.354057811692E+03   -0.17185E-03   -0.17443E-03 10080   0.364E-02-0.293E-04
CGA:  19    -0.354057929672E+03   -0.11798E-03   -0.12824E-03 10080   0.134E-02 0.285E-03
CGA:  20    -0.354057994438E+03   -0.64766E-04   -0.63306E-04 10080   0.607E-03-0.554E-04
CGA:  21    -0.354058029759E+03   -0.35321E-04   -0.29092E-04 10080   0.848E-03-0.342E-03
CGA:  22    -0.354058044103E+03   -0.14344E-04   -0.22917E-04 10080   0.276E-03 0.212E-03
CGA:  23    -0.354058063556E+03   -0.19453E-04   -0.20139E-04 10080   0.237E-03 0.972E-04
CGA:  24    -0.354058093691E+03   -0.30135E-04   -0.44660E-04 10080   0.153E-02-0.198E-03
CGA:  25    -0.354058117187E+03   -0.23495E-04   -0.31676E-04 10080   0.121E-03 0.163E-03
CGA:  26    -0.354058126674E+03   -0.94873E-05   -0.14540E-04 10080   0.395E-03-0.120E-03
CGA:  27    -0.354058140187E+03   -0.13513E-04   -0.13137E-04 10080   0.112E-03-0.132E-04
CGA:  28    -0.354058139495E+03    0.69174E-06   -0.22063E-05 10080   0.483E-04 0.625E-04
  42 F= -.35405814E+03 E0= -.35405199E+03  d E =0.342620E-01  mag=    10.0000
       N       E                     dE             d eps       ncg     rms          ort
SDA:   1    -0.352706244160E+03    0.13519E+01    0.00000E+00 10080   0.417E+01 0.000E+00
CGA:   2    -0.353409054499E+03   -0.70281E+00   -0.68019E+00 10080   0.596E+01 0.247E+00
CGA:   3    -0.353741422915E+03   -0.33237E+00   -0.32133E+00 10080   0.165E+01-0.951E-01
CGA:   4    -0.353936297026E+03   -0.19487E+00   -0.19513E+00 10080   0.274E+01-0.370E-02
CGA:   5    -0.354034792764E+03   -0.98496E-01   -0.97996E-01 10080   0.387E+00-0.300E-01
CGA:   6    -0.354058235112E+03   -0.23442E-01   -0.23366E-01 10080   0.255E+00-0.698E-04
CGA:   7    -0.354082828419E+03   -0.24593E-01   -0.24787E-01 10080   0.119E+00-0.766E-02
CGA:   8    -0.354089359504E+03   -0.65311E-02   -0.65300E-02 10080   0.331E-01 0.112E-02
CGA:   9    -0.354092700339E+03   -0.33408E-02   -0.34533E-02 10080   0.634E-01-0.330E-02
CGA:  10    -0.354095597976E+03   -0.28976E-02   -0.29492E-02 10080   0.214E-01 0.276E-02
CGA:  11    -0.354096397512E+03   -0.79954E-03   -0.84615E-03 10080   0.643E-02 0.162E-02
CGA:  12    -0.354097310210E+03   -0.91270E-03   -0.92199E-03 10080   0.176E-01-0.165E-03
CGA:  13    -0.354097975040E+03   -0.66483E-03   -0.70298E-03 10080   0.664E-02 0.124E-02
CGA:  14    -0.354098278933E+03   -0.30389E-03   -0.31486E-03 10080   0.269E-02 0.456E-03
CGA:  15    -0.354098444890E+03   -0.16596E-03   -0.15592E-03 10080   0.423E-02-0.740E-03
CGA:  16    -0.354098737227E+03   -0.29234E-03   -0.30997E-03 10080   0.723E-02-0.523E-03
CGA:  17    -0.354098864433E+03   -0.12721E-03   -0.15794E-03 10080   0.248E-02 0.705E-03
CGA:  18    -0.354098911740E+03   -0.47306E-04   -0.67282E-04 10080   0.917E-03 0.483E-03
CGA:  19    -0.354098944714E+03   -0.32975E-04   -0.34133E-04 10080   0.648E-03 0.281E-04
CGA:  20    -0.354099004025E+03   -0.59310E-04   -0.79354E-04 10080   0.299E-02-0.363E-03
CGA:  21    -0.354099071637E+03   -0.67612E-04   -0.80403E-04 10080   0.509E-03 0.321E-03
CGA:  22    -0.354099109311E+03   -0.37674E-04   -0.40646E-04 10080   0.552E-03-0.364E-03
CGA:  23    -0.354099124448E+03   -0.15137E-04   -0.18919E-04 10080   0.139E-03 0.125E-03
CGA:  24    -0.354099134958E+03   -0.10510E-04   -0.10508E-04 10080   0.159E-03-0.245E-05
CGA:  25    -0.354099148267E+03   -0.13309E-04   -0.12116E-04 10080   0.222E-03 0.806E-04
CGA:  26    -0.354099119908E+03    0.28359E-04   -0.42142E-04 10080   0.204E-02-0.561E-03
CGA:  27    -0.354099180378E+03   -0.60470E-04   -0.71408E-04 10080   0.175E-03 0.310E-03
CGA:  28    -0.354099182779E+03   -0.24003E-05   -0.51587E-05 10080   0.362E-04 0.646E-04
  43 F= -.35409918E+03 E0= -.35409303E+03  d E =-.410433E-01  mag=    10.0000
       N       E                     dE             d eps       ncg     rms          ort
SDA:   1    -0.354067099235E+03    0.32081E-01    0.00000E+00 10080   0.884E-01 0.000E+00
CGA:   2    -0.354080771965E+03   -0.13673E-01   -0.13314E-01 10080   0.104E+00 0.412E-02
CGA:   3    -0.354091600964E+03   -0.10829E-01   -0.10954E-01 10080   0.531E-01-0.427E-02
CGA:   4    -0.354093365654E+03   -0.17647E-02   -0.18416E-02 10080   0.271E-01 0.201E-02
CGA:   5    -0.354096275566E+03   -0.29099E-02   -0.28841E-02 10080   0.162E-01 0.744E-03
CGA:   6    -0.354097100155E+03   -0.82459E-03   -0.79333E-03 10080   0.560E-02-0.152E-02
CGA:   7    -0.354097441573E+03   -0.34142E-03   -0.34268E-03 10080   0.239E-02 0.498E-03
CGA:   8    -0.354097628810E+03   -0.18724E-03   -0.18747E-03 10080   0.369E-02-0.113E-03
CGA:   9    -0.354097785759E+03   -0.15695E-03   -0.16642E-03 10080   0.617E-03 0.415E-03
CGA:  10    -0.354097818918E+03   -0.33158E-04   -0.34068E-04 10080   0.729E-03 0.441E-04
CGA:  11    -0.354097884837E+03   -0.65919E-04   -0.85532E-04 10080   0.155E-02-0.472E-03
CGA:  12    -0.354097918499E+03   -0.33662E-04   -0.48120E-04 10080   0.268E-03 0.374E-03
CGA:  13    -0.354097929745E+03   -0.11246E-04   -0.12450E-04 10080   0.902E-04 0.376E-04
CGA:  14    -0.354097948512E+03   -0.18766E-04   -0.19800E-04 10080   0.302E-03-0.840E-05
CGA:  15    -0.354097961988E+03   -0.13476E-04   -0.13894E-04 10080   0.134E-03 0.188E-04
CGA:  16    -0.354097970954E+03   -0.89657E-05   -0.80933E-05 10080   0.109E-03-0.595E-04
CGA:  17    -0.354097846996E+03    0.12396E-03   -0.66884E-04 10080   0.366E-02-0.392E-03
CGA:  18    -0.354097945935E+03   -0.98939E-04   -0.11883E-03 10080   0.466E-03 0.202E-03
CGA:  19    -0.354097951103E+03   -0.51679E-05   -0.14317E-04 10080   0.860E-04 0.958E-04
  44 F= -.35409795E+03 E0= -.35409184E+03  d E =0.123168E-02  mag=    10.0000
       N       E                     dE             d eps       ncg     rms          ort
SDA:   1    -0.354074394316E+03    0.23552E-01    0.00000E+00 10080   0.381E+00 0.000E+00
CGA:   2    -0.354085748946E+03   -0.11355E-01   -0.11477E-01 10080   0.535E-01-0.815E-02
CGA:   3    -0.354090557549E+03   -0.48086E-02   -0.47915E-02 10080   0.927E-01-0.133E-02
CGA:   4    -0.354095577084E+03   -0.50195E-02   -0.51012E-02 10080   0.396E-01 0.184E-02
CGA:   5    -0.354098375581E+03   -0.27985E-02   -0.27307E-02 10080   0.111E-01-0.174E-02
CGA:   6    -0.354099816289E+03   -0.14407E-02   -0.14053E-02 10080   0.625E-02 0.147E-02
CGA:   7    -0.354100171835E+03   -0.35555E-03   -0.34239E-03 10080   0.229E-02-0.271E-03
CGA:   8    -0.354100385340E+03   -0.21350E-03   -0.21490E-03 10080   0.170E-02 0.168E-03
CGA:   9    -0.354100436911E+03   -0.51572E-04   -0.67020E-04 10080   0.590E-03 0.220E-03
CGA:  10    -0.354100514202E+03   -0.77290E-04   -0.99876E-04 10080   0.281E-02-0.478E-03
CGA:  11    -0.354100551884E+03   -0.37682E-04   -0.64746E-04 10080   0.186E-03 0.339E-03
CGA:  12    -0.354100558262E+03   -0.63783E-05   -0.81731E-05 10080   0.128E-03 0.286E-04
CGA:  13    -0.354100590134E+03   -0.31872E-04    0.64853E-04 10080   0.200E-03 0.397E-04
CGA:  14    -0.354100613714E+03   -0.23580E-04   -0.22522E-04 10080   0.396E-03-0.923E-04
CGA:  15    -0.354100621749E+03   -0.80344E-05   -0.58103E-05 10080   0.258E-03-0.324E-04
  45 F= -.35410062E+03 E0= -.35409449E+03  d E =-.267065E-02  mag=    10.0000
       N       E                     dE             d eps       ncg     rms          ort
SDA:   1    -0.354097026491E+03    0.35872E-02    0.00000E+00 10080   0.484E-01 0.000E+00
CGA:   2    -0.354098604490E+03   -0.15780E-02   -0.15339E-02 10080   0.565E-02-0.231E-02
CGA:   3    -0.354098993122E+03   -0.38863E-03   -0.40213E-03 10080   0.441E-02 0.114E-02
CGA:   4    -0.354099383042E+03   -0.38992E-03   -0.38731E-03 10080   0.603E-02-0.219E-03
CGA:   5    -0.354099652670E+03   -0.26963E-03   -0.27738E-03 10080   0.820E-03 0.202E-03
CGA:   6    -0.354099729620E+03   -0.76950E-04   -0.76229E-04 10080   0.152E-02 0.112E-03
CGA:   7    -0.354099844709E+03   -0.11509E-03   -0.10509E-03 10080   0.685E-03-0.439E-03
CGA:   8    -0.354099862084E+03   -0.17375E-04   -0.17916E-04 10080   0.124E-03 0.102E-04
CGA:   9    -0.354099554476E+03    0.30761E-03   -0.16546E-03 10080   0.857E-02-0.852E-03
CGA:  10    -0.354099863301E+03   -0.30883E-03   -0.34843E-03 10080   0.600E-03 0.292E-03
CGA:  11    -0.354099876185E+03   -0.12885E-04   -0.18087E-04 10080   0.113E-03 0.454E-04
CGA:  12    -0.354099892359E+03   -0.16174E-04   -0.22680E-04 10080   0.894E-03-0.128E-03
CGA:  13    -0.354099895743E+03   -0.33844E-05   -0.19137E-04 10080   0.553E-04 0.134E-03
  46 F= -.35409990E+03 E0= -.35409376E+03  d E =0.726005E-03  mag=    10.0000
