       N       E                     dE             d eps       ncg     rms          ort
DAV:   1     0.229477387367E+04    0.22948E+04   -0.13676E+05 10080   0.153E+03
DAV:   2    -0.225260933350E+03   -0.25200E+04   -0.24261E+04 10080   0.404E+02
DAV:   3    -0.445355515928E+03   -0.22009E+03   -0.21509E+03 10080   0.139E+02
DAV:   4    -0.454555368241E+03   -0.91999E+01   -0.89813E+01 10080   0.305E+01
DAV:   5    -0.455030631136E+03   -0.47526E+00   -0.47089E+00 10080   0.467E+00
SDA:   6    -0.283647301477E+03    0.17138E+03   -0.47089E+00 10080   0.437E+03 0.000E+00
CGA:   7    -0.321371879390E+03   -0.37725E+02   -0.50959E+02 10080   0.487E+03 0.147E+02
CGA:   8    -0.336647622130E+03   -0.15276E+02   -0.27518E+02 10080   0.197E+03 0.531E+02
CGA:   9    -0.327437472237E+03    0.92101E+01   -0.16600E+02 10080   0.148E+03-0.323E+02
CGA:  10    -0.330636321656E+03   -0.31988E+01   -0.13531E+01 10080   0.237E+03 0.218E+03
CGA:  11    -0.343018803935E+03   -0.12382E+02   -0.42439E+01 10080   0.798E+02 0.373E+02
CGA:  12    -0.329596158759E+03    0.13423E+02   -0.49891E+01 10080   0.700E+03-0.929E+02
CGA:  13    -0.345082357785E+03   -0.15486E+02   -0.40723E+02 10080   0.507E+02-0.665E+02
CGA:  14    -0.346819789698E+03   -0.17374E+01   -0.16559E+01 10080   0.663E+02-0.249E+02
CGA:  15    -0.346899775695E+03   -0.79986E-01   -0.64061E+00 10080   0.202E+03-0.343E+02
CGA:  16    -0.348500381204E+03   -0.16006E+01   -0.10994E+02 10080   0.109E+03 0.430E+02
CGA:  17    -0.331839387062E+03    0.16661E+02   -0.58605E+01 10080   0.443E+03-0.129E+03
CGA:  18    -0.348119395896E+03   -0.16280E+02   -0.18614E+02 10080   0.808E+02-0.536E+02
CGA:  19    -0.340948230776E+03    0.71712E+01   -0.32395E+01 10080   0.762E+03-0.231E+03
CGA:  20    -0.347448478060E+03   -0.65002E+01   -0.48128E+02 10080   0.123E+03 0.746E+01
CGA:  21    -0.338769766065E+03    0.86787E+01   -0.47914E+01 10080   0.843E+03-0.324E+03
CGA:  22    -0.345935982049E+03   -0.71662E+01   -0.49188E+02 10080   0.574E+02-0.361E+02
CGA:  23    -0.349502301604E+03   -0.35663E+01   -0.14367E+01 10080   0.369E+02 0.798E+02
CGA:  24    -0.350094041613E+03   -0.59174E+00   -0.67437E+00 10080   0.242E+02-0.990E+01
CGA:  25    -0.350358781592E+03   -0.26474E+00   -0.14069E+00 10080   0.222E+02 0.159E+02
CGA:  26    -0.350665583934E+03   -0.30680E+00   -0.21735E+00 10080   0.845E+01 0.921E+01
CGA:  27    -0.350783061704E+03   -0.11748E+00   -0.59194E-01 10080   0.913E+01 0.118E+02
CGA:  28    -0.350853796124E+03   -0.70734E-01   -0.34070E-01 10080   0.973E+01 0.995E+01
CGA:  29    -0.350931495705E+03   -0.77700E-01   -0.35172E-01 10080   0.119E+02 0.122E+02
CGA:  30    -0.351051827994E+03   -0.12033E+00   -0.47417E-01 10080   0.190E+02 0.197E+02
CGA:  31    -0.351377892700E+03   -0.32606E+00   -0.10413E+00 10080   0.379E+02 0.431E+02
CGA:  32    -0.352228557510E+03   -0.85066E+00   -0.33891E+00 10080   0.219E+02 0.436E+02
CGA:  33    -0.352494082764E+03   -0.26553E+00   -0.19035E+00 10080   0.291E+01 0.717E+01
CGA:  34    -0.352535030530E+03   -0.40948E-01   -0.36072E-01 10080   0.127E+01 0.584E+00
CGA:  35    -0.352571870046E+03   -0.36840E-01   -0.35986E-01 10080   0.313E+01 0.620E-01
CGA:  36    -0.352661663130E+03   -0.89793E-01   -0.10632E+00 10080   0.156E+02-0.497E+00
CGA:  37    -0.352158259923E+03    0.50340E+00   -0.12815E+00 10080   0.657E+02-0.127E+03
CGA:  38    -0.352524368611E+03   -0.36611E+00   -0.96535E+00 10080   0.308E+02-0.392E+02
CGA:  39    -0.352821200560E+03   -0.29683E+00   -0.25481E+00 10080   0.937E+00 0.223E+01
CGA:  40    -0.352866187065E+03   -0.44987E-01   -0.44627E-01 10080   0.511E+01-0.449E-01
CGA:  41    -0.353023918559E+03   -0.15773E+00   -0.13725E+00 10080   0.110E+02-0.186E+00
CGA:  42    -0.353068835115E+03   -0.44917E-01   -0.12362E+00 10080   0.323E+01-0.502E+01
CGA:  43    -0.353077908620E+03   -0.90735E-02   -0.10660E-01 10080   0.152E+01 0.738E-03
CGA:  44    -0.353089108785E+03   -0.11200E-01   -0.13665E-01 10080   0.789E+00-0.134E+00
CGA:  45    -0.353100306932E+03   -0.11198E-01   -0.11504E-01 10080   0.133E+01-0.267E-01
CGA:  46    -0.353145138127E+03   -0.44831E-01   -0.45400E-01 10080   0.471E+01-0.494E-01
CGA:  47    -0.353190448322E+03   -0.45310E-01   -0.26081E-01 10080   0.337E+01 0.302E+01
CGA:  48    -0.353234246703E+03   -0.43798E-01   -0.46515E-01 10080   0.466E+00-0.184E+00
CGA:  49    -0.353261368867E+03   -0.27122E-01   -0.27512E-01 10080   0.106E+01-0.258E-01
CGA:  50    -0.353326118265E+03   -0.64749E-01   -0.61946E-01 10080   0.547E+00 0.102E+00
CGA:  51    -0.353341328871E+03   -0.15211E-01   -0.15826E-01 10080   0.146E+00-0.201E-01
CGA:  52    -0.353350352065E+03   -0.90232E-02   -0.94969E-02 10080   0.255E+00-0.183E-01
CGA:  53    -0.353367497200E+03   -0.17145E-01   -0.15676E-01 10080   0.722E-01 0.394E-01
CGA:  54    -0.353370361962E+03   -0.28648E-02   -0.28897E-02 10080   0.326E-01 0.108E-02
CGA:  55    -0.353374122962E+03   -0.37610E-02   -0.54493E-02 10080   0.217E+00-0.121E-01
CGA:  56    -0.353383846430E+03   -0.97235E-02   -0.12271E-01 10080   0.493E-01-0.622E-01
CGA:  57    -0.353384823228E+03   -0.97680E-03   -0.88180E-03 10080   0.171E-01-0.405E-02
CGA:  58    -0.353385965175E+03   -0.11419E-02   -0.17771E-02 10080   0.563E-01-0.102E-01
CGA:  59    -0.353387548812E+03   -0.15836E-02   -0.16215E-02 10080   0.650E-02 0.933E-03
CGA:  60    -0.353387878384E+03   -0.32957E-03   -0.33491E-03 10080   0.573E-02 0.222E-02
CGA:  61    -0.353389624390E+03   -0.17460E-02   -0.13662E-02 10080   0.647E-02 0.308E-02
CGA:  62    -0.353389830709E+03   -0.20632E-03   -0.19548E-03 10080   0.201E-02-0.421E-03
CGA:  63    -0.353390057847E+03   -0.22714E-03   -0.17416E-03 10080   0.122E-02 0.151E-02
CGA:  64    -0.353390158227E+03   -0.10038E-03   -0.91768E-04 10080   0.175E-02 0.547E-03
CGA:  65    -0.353390489097E+03   -0.33087E-03   -0.26600E-03 10080   0.147E-02 0.146E-02
CGA:  66    -0.353390507329E+03   -0.18232E-04   -0.36637E-04 10080   0.571E-03 0.485E-03
CGA:  67    -0.353390528731E+03   -0.21402E-04   -0.31774E-04 10080   0.827E-03 0.552E-03
CGA:  68    -0.353390588702E+03   -0.59971E-04   -0.68478E-04 10080   0.269E-02-0.375E-03
CGA:  69    -0.353390676621E+03   -0.87918E-04   -0.88413E-04 10080   0.598E-02 0.629E-03
CGA:  70    -0.353390868470E+03   -0.19185E-03   -0.25136E-03 10080   0.133E-02 0.231E-02
CGA:  71    -0.353390893038E+03   -0.24568E-04   -0.49996E-04 10080   0.270E-03 0.793E-03
CGA:  72    -0.353390911083E+03   -0.18045E-04   -0.19029E-04 10080   0.670E-03-0.801E-04
CGA:  73    -0.353390944357E+03   -0.33275E-04   -0.30695E-04 10080   0.112E-02 0.389E-03
CGA:  74    -0.353390960599E+03   -0.16242E-04   -0.23546E-04 10080   0.133E-03 0.187E-03
CGA:  75    -0.353390967852E+03   -0.72530E-05   -0.77882E-05 10080   0.230E-03 0.768E-04
CGA:  76    -0.353390982286E+03   -0.14434E-04   -0.15490E-04 10080   0.552E-03-0.999E-04
CGA:  77    -0.353391002273E+03   -0.19987E-04   -0.19076E-04 10080   0.112E-02 0.228E-03
CGA:  78    -0.353391051396E+03   -0.49123E-04   -0.60058E-04 10080   0.229E-03 0.561E-03
CGA:  79    -0.353391091570E+03   -0.40174E-04    0.24781E-03 10080   0.136E-03 0.164E-03
CGA:  80    -0.353391091176E+03    0.39463E-06   -0.28384E-05 10080   0.814E-04 0.909E-04
   1 F= -.35339109E+03 E0= -.35338216E+03  d E =-.353391E+03  mag=    10.0000
       N       E                     dE             d eps       ncg     rms          ort
SDA:   1    -0.353403498543E+03   -0.12407E-01    0.00000E+00 10080   0.496E-02 0.000E+00
CGA:   2    -0.353403681132E+03   -0.18259E-03   -0.19215E-03 10080   0.232E-02 0.592E-03
CGA:   3    -0.353403982518E+03   -0.30139E-03   -0.26617E-03 10080   0.333E-02 0.716E-03
CGA:   4    -0.353404304420E+03   -0.32190E-03   -0.36054E-03 10080   0.281E-02-0.147E-02
CGA:   5    -0.353404353147E+03   -0.48727E-04   -0.54197E-04 10080   0.109E-02 0.234E-03
CGA:   6    -0.353404369736E+03   -0.16589E-04   -0.28340E-04 10080   0.483E-03 0.365E-03
CGA:   7    -0.353404390242E+03   -0.20506E-04   -0.24436E-04 10080   0.531E-03 0.233E-03
CGA:   8    -0.353404460086E+03   -0.69844E-04   -0.93581E-04 10080   0.957E-03-0.365E-03
CGA:   9    -0.353404492110E+03   -0.32024E-04   -0.28891E-04 10080   0.269E-03-0.122E-03
CGA:  10    -0.353404520688E+03   -0.28578E-04    0.69318E-04 10080   0.117E-03 0.111E-03
CGA:  11    -0.353404532031E+03   -0.11343E-04   -0.10721E-04 10080   0.856E-04 0.678E-04
CGA:  12    -0.353404541771E+03   -0.97400E-05    0.18817E-03 10080   0.128E-03-0.137E-04
   2 F= -.35340454E+03 E0= -.35339576E+03  d E =-.134506E-01  mag=    10.0000
       N       E                     dE             d eps       ncg     rms          ort
SDA:   1    -0.352993100547E+03    0.41143E+00    0.00000E+00 10080   0.237E+01 0.000E+00
CGA:   2    -0.353142724915E+03   -0.14962E+00   -0.15009E+00 10080   0.355E+01-0.578E-01
CGA:   3    -0.353540082927E+03   -0.39736E+00   -0.39822E+00 10080   0.122E+01-0.167E-01
CGA:   4    -0.353590556383E+03   -0.50473E-01   -0.49351E-01 10080   0.468E+00 0.126E-01
CGA:   5    -0.353653803428E+03   -0.63247E-01   -0.62427E-01 10080   0.680E+00 0.107E-01
CGA:   6    -0.353678400576E+03   -0.24597E-01   -0.24470E-01 10080   0.509E-01 0.126E-02
CGA:   7    -0.353690172528E+03   -0.11772E-01   -0.11324E-01 10080   0.729E-01 0.269E-02
CGA:   8    -0.353692900769E+03   -0.27282E-02   -0.26695E-02 10080   0.145E-01-0.194E-02
CGA:   9    -0.353694841425E+03   -0.19407E-02   -0.20592E-02 10080   0.373E-01-0.157E-02
CGA:  10    -0.353696776809E+03   -0.19354E-02   -0.19425E-02 10080   0.546E-02 0.323E-03
CGA:  11    -0.353697187180E+03   -0.41037E-03   -0.41032E-03 10080   0.954E-02-0.351E-04
CGA:  12    -0.353698269335E+03   -0.10822E-02   -0.11169E-02 10080   0.267E-02-0.725E-03
CGA:  13    -0.353698476624E+03   -0.20729E-03   -0.24426E-03 10080   0.742E-02-0.145E-02
CGA:  14    -0.353698644917E+03   -0.16829E-03   -0.20599E-03 10080   0.999E-03 0.842E-03
CGA:  15    -0.353698761305E+03   -0.11639E-03   -0.10905E-03 10080   0.177E-02 0.280E-03
CGA:  16    -0.353698992652E+03   -0.23135E-03   -0.30179E-03 10080   0.217E-02-0.118E-02
CGA:  17    -0.353699040755E+03   -0.48103E-04   -0.67013E-04 10080   0.559E-03 0.416E-03
CGA:  18    -0.353699125210E+03   -0.84455E-04   -0.78904E-04 10080   0.103E-02 0.124E-03
CGA:  19    -0.353699228762E+03   -0.10355E-03   -0.12219E-03 10080   0.116E-02-0.910E-03
CGA:  20    -0.353699249839E+03   -0.21077E-04   -0.35153E-04 10080   0.316E-03 0.299E-03
CGA:  21    -0.353699290234E+03   -0.40395E-04   -0.37813E-04 10080   0.566E-03 0.128E-03
CGA:  22    -0.353699325913E+03   -0.35679E-04   -0.14092E-03 10080   0.221E-02-0.104E-02
CGA:  23    -0.353699370572E+03   -0.44658E-04   -0.65951E-04 10080   0.473E-03 0.418E-03
CGA:  24    -0.353699428651E+03   -0.58080E-04   -0.54948E-04 10080   0.774E-03 0.162E-03
CGA:  25    -0.353699521488E+03   -0.92837E-04   -0.12702E-03 10080   0.109E-02-0.801E-03
CGA:  26    -0.353699534612E+03   -0.13124E-04   -0.28257E-04 10080   0.190E-03 0.271E-03
CGA:  27    -0.353699541127E+03   -0.65146E-05   -0.10463E-04 10080   0.216E-03 0.114E-03
CGA:  28    -0.353699578937E+03   -0.37810E-04    0.60424E-04 10080   0.338E-03-0.272E-04
CGA:  29    -0.353699627714E+03   -0.48777E-04   -0.85989E-04 10080   0.804E-03-0.174E-03
CGA:  30    -0.353699653063E+03   -0.25348E-04   -0.26043E-04 10080   0.189E-03 0.561E-05
CGA:  31    -0.353699690754E+03   -0.37691E-04   -0.32472E-04 10080   0.244E-03 0.609E-04
CGA:  32    -0.353698624030E+03    0.10667E-02   -0.58793E-03 10080   0.371E-01-0.253E-02
CGA:  33    -0.353699591836E+03   -0.96781E-03   -0.10341E-02 10080   0.126E-02 0.296E-02
CGA:  34    -0.353699635044E+03   -0.43207E-04   -0.64065E-04 10080   0.100E-02 0.183E-03
CGA:  35    -0.353699847384E+03   -0.21234E-03   -0.21182E-03 10080   0.394E-03 0.144E-04
CGA:  36    -0.353699872421E+03   -0.25038E-04   -0.14926E-04 10080   0.645E-04-0.920E-04
CGA:  37    -0.353699881073E+03   -0.86512E-05   -0.95224E-05 10080   0.306E-03-0.195E-04
CGA:  38    -0.353699900081E+03   -0.19008E-04   -0.19038E-04 10080   0.146E-03 0.241E-05
CGA:  39    -0.353699922163E+03   -0.22083E-04   -0.13982E-04 10080   0.492E-03-0.161E-03
CGA:  40    -0.353699930393E+03   -0.82300E-05   -0.13799E-04 10080   0.442E-04 0.456E-04
   3 F= -.35369993E+03 E0= -.35369276E+03  d E =-.295389E+00  mag=    10.0000
       N       E                     dE             d eps       ncg     rms          ort
SDA:   1    -0.352675788476E+03    0.10241E+01    0.00000E+00 10080   0.436E+01 0.000E+00
CGA:   2    -0.352912069854E+03   -0.23628E+00   -0.22860E+00 10080   0.473E+01-0.189E-01
CGA:   3    -0.353595431202E+03   -0.68336E+00   -0.68359E+00 10080   0.190E+01-0.108E-01
CGA:   4    -0.353670369671E+03   -0.74938E-01   -0.74809E-01 10080   0.823E+00-0.824E-02
CGA:   5    -0.353802775360E+03   -0.13241E+00   -0.13226E+00 10080   0.407E+00 0.210E-02
CGA:   6    -0.353817956423E+03   -0.15181E-01   -0.15407E-01 10080   0.929E-01 0.109E-01
CGA:   7    -0.353840367147E+03   -0.22411E-01   -0.22491E-01 10080   0.275E-01-0.725E-03
CGA:   8    -0.353842655346E+03   -0.22882E-02   -0.22638E-02 10080   0.502E-01-0.691E-03
CGA:   9    -0.353847274227E+03   -0.46189E-02   -0.46139E-02 10080   0.124E-01-0.233E-03
CGA:  10    -0.353847878555E+03   -0.60433E-03   -0.66719E-03 10080   0.112E-01 0.857E-03
CGA:  11    -0.353849859607E+03   -0.19811E-02   -0.19955E-02 10080   0.503E-02-0.334E-03
CGA:  12    -0.353850174494E+03   -0.31489E-03   -0.28917E-03 10080   0.415E-02-0.448E-03
CGA:  13    -0.353850947149E+03   -0.77265E-03   -0.77393E-03 10080   0.121E-02-0.100E-04
CGA:  14    -0.353851008108E+03   -0.60959E-04   -0.70387E-04 10080   0.145E-02 0.142E-03
CGA:  15    -0.353851312495E+03   -0.30439E-03   -0.32574E-03 10080   0.135E-02-0.264E-03
CGA:  16    -0.353851352694E+03   -0.40199E-04   -0.37899E-04 10080   0.441E-03-0.278E-04
CGA:  17    -0.353851505441E+03   -0.15275E-03   -0.16275E-03 10080   0.194E-02-0.335E-04
CGA:  18    -0.353851562367E+03   -0.56926E-04   -0.56437E-04 10080   0.331E-03-0.272E-05
CGA:  19    -0.353851594222E+03   -0.31855E-04   -0.31970E-04 10080   0.963E-03 0.559E-05
CGA:  20    -0.353851726828E+03   -0.13261E-03   -0.13307E-03 10080   0.132E-02-0.343E-04
CGA:  21    -0.353851768658E+03   -0.41829E-04   -0.41975E-04 10080   0.264E-03-0.739E-04
CGA:  22    -0.353851794793E+03   -0.26136E-04   -0.27293E-04 10080   0.581E-03 0.895E-04
CGA:  23    -0.353851856103E+03   -0.61309E-04   -0.63655E-04 10080   0.391E-03 0.739E-04
CGA:  24    -0.353851900100E+03   -0.43997E-04   -0.37169E-04 10080   0.606E-03-0.202E-03
CGA:  25    -0.353851902257E+03   -0.21571E-05   -0.13593E-04 10080   0.819E-04 0.117E-03
   4 F= -.35385190E+03 E0= -.35384570E+03  d E =-.151972E+00  mag=    10.0000
       N       E                     dE             d eps       ncg     rms          ort
SDA:   1    -0.353829204730E+03    0.22695E-01    0.00000E+00 10080   0.196E+00 0.000E+00
CGA:   2    -0.353835257400E+03   -0.60527E-02   -0.61149E-02 10080   0.725E-01 0.195E-02
CGA:   3    -0.353849299116E+03   -0.14042E-01   -0.14012E-01 10080   0.476E-01 0.285E-03
CGA:   4    -0.353852002860E+03   -0.27037E-02   -0.26334E-02 10080   0.255E-01-0.180E-02
CGA:   5    -0.353855112801E+03   -0.31099E-02   -0.31034E-02 10080   0.916E-02 0.310E-03
CGA:   6    -0.353855434226E+03   -0.32143E-03   -0.36748E-03 10080   0.278E-02 0.700E-03
CGA:   7    -0.353855854071E+03   -0.41984E-03   -0.41415E-03 10080   0.344E-02 0.163E-03
CGA:   8    -0.353856002671E+03   -0.14860E-03   -0.13567E-03 10080   0.579E-03-0.213E-03
CGA:   9    -0.353856046794E+03   -0.44123E-04   -0.47373E-04 10080   0.375E-03 0.211E-03
CGA:  10    -0.353856112282E+03   -0.65488E-04   -0.76946E-04 10080   0.160E-02-0.239E-03
CGA:  11    -0.353856135578E+03   -0.23297E-04   -0.35304E-04 10080   0.919E-04 0.142E-03
CGA:  12    -0.353856135202E+03    0.37668E-06   -0.34453E-05 10080   0.747E-04 0.579E-04
CGA:  13    -0.353856122374E+03    0.12828E-04   -0.25375E-04 10080   0.246E-02-0.158E-03
CGA:  14    -0.353856163858E+03   -0.41484E-04   -0.53225E-04 10080   0.430E-04 0.129E-03
CGA:  15    -0.353856162850E+03    0.10075E-05   -0.11001E-05 10080   0.252E-04 0.261E-04
   5 F= -.35385616E+03 E0= -.35384999E+03  d E =-.426059E-02  mag=    10.0000
       N       E                     dE             d eps       ncg     rms          ort
SDA:   1    -0.353800409654E+03    0.55754E-01    0.00000E+00 10080   0.188E+00 0.000E+00
CGA:   2    -0.353830404753E+03   -0.29995E-01   -0.29607E-01 10080   0.253E+00 0.629E-02
CGA:   3    -0.353846779673E+03   -0.16375E-01   -0.15967E-01 10080   0.727E-01-0.594E-02
CGA:   4    -0.353857677975E+03   -0.10898E-01   -0.10742E-01 10080   0.501E-01 0.307E-02
CGA:   5    -0.353859716512E+03   -0.20385E-02   -0.19775E-02 10080   0.144E-01-0.169E-02
CGA:   6    -0.353860815830E+03   -0.10993E-02   -0.10913E-02 10080   0.130E-01-0.471E-03
CGA:   7    -0.353861515780E+03   -0.69995E-03   -0.73654E-03 10080   0.220E-02 0.881E-03
CGA:   8    -0.353861678352E+03   -0.16257E-03   -0.16546E-03 10080   0.207E-02 0.102E-03
CGA:   9    -0.353861926197E+03   -0.24785E-03   -0.25093E-03 10080   0.921E-03-0.164E-03
CGA:  10    -0.353861946490E+03   -0.20294E-04   -0.30365E-04 10080   0.346E-03 0.161E-03
CGA:  11    -0.353861981245E+03   -0.34754E-04   -0.35630E-04 10080   0.415E-03 0.133E-03
CGA:  12    -0.353862043269E+03   -0.62025E-04   -0.66099E-04 10080   0.676E-03-0.194E-03
CGA:  13    -0.353862049493E+03   -0.62233E-05   -0.77513E-05 10080   0.346E-03 0.197E-04
   6 F= -.35386205E+03 E0= -.35385589E+03  d E =-.588664E-02  mag=    10.0000
       N       E                     dE             d eps       ncg     rms          ort
SDA:   1    -0.353774635750E+03    0.87408E-01    0.00000E+00 10080   0.456E+00 0.000E+00
CGA:   2    -0.353796191916E+03   -0.21556E-01   -0.21791E-01 10080   0.388E+00-0.240E-02
CGA:   3    -0.353839265685E+03   -0.43074E-01   -0.43171E-01 10080   0.232E+00-0.438E-02
CGA:   4    -0.353849848049E+03   -0.10582E-01   -0.10508E-01 10080   0.971E-01 0.313E-02
CGA:   5    -0.353863553071E+03   -0.13705E-01   -0.13601E-01 10080   0.397E-01 0.191E-02
CGA:   6    -0.353865525265E+03   -0.19722E-02   -0.18834E-02 10080   0.123E-01-0.260E-02
CGA:   7    -0.353866872280E+03   -0.13470E-02   -0.13214E-02 10080   0.110E-01 0.834E-03
CGA:   8    -0.353867252368E+03   -0.38009E-03   -0.41313E-03 10080   0.192E-02 0.609E-03
CGA:   9    -0.353867524553E+03   -0.27219E-03   -0.36847E-03 10080   0.748E-02-0.995E-03
CGA:  10    -0.353867663527E+03   -0.13897E-03   -0.18408E-03 10080   0.516E-03 0.705E-03
CGA:  11    -0.353867673681E+03   -0.10154E-04   -0.21046E-04 10080   0.350E-03 0.222E-03
CGA:  12    -0.353867738703E+03   -0.65023E-04   -0.61125E-04 10080   0.834E-03 0.998E-04
CGA:  13    -0.353867809117E+03   -0.70414E-04   -0.63656E-04 10080   0.338E-03-0.263E-03
CGA:  14    -0.353867830134E+03   -0.21017E-04   -0.22647E-04 10080   0.623E-03-0.122E-03
CGA:  15    -0.353867847176E+03   -0.17042E-04   -0.20849E-04 10080   0.312E-03 0.116E-03
CGA:  16    -0.353867857580E+03   -0.10404E-04   -0.14062E-04 10080   0.209E-03 0.797E-04
CGA:  17    -0.353867887926E+03   -0.30347E-04   -0.30163E-04 10080   0.277E-03 0.486E-05
CGA:  18    -0.353867899746E+03   -0.11820E-04   -0.10666E-04 10080   0.593E-04-0.267E-04
CGA:  19    -0.353867908497E+03   -0.87514E-05    0.13803E-03 10080   0.100E-03 0.157E-04
CGA:  20    -0.353867914630E+03   -0.61323E-05   -0.28520E-04 10080   0.465E-03-0.156E-03
CGA:  21    -0.353867922024E+03   -0.73945E-05   -0.11256E-04 10080   0.504E-04 0.589E-04
   7 F= -.35386792E+03 E0= -.35386176E+03  d E =-.587253E-02  mag=    10.0000
       N       E                     dE             d eps       ncg     rms          ort
SDA:   1    -0.353185853989E+03    0.68206E+00    0.00000E+00 10080   0.289E+01 0.000E+00
CGA:   2    -0.353350518180E+03   -0.16466E+00   -0.16262E+00 10080   0.314E+01-0.979E-02
CGA:   3    -0.353674760572E+03   -0.32424E+00   -0.32486E+00 10080   0.168E+01-0.251E-01
CGA:   4    -0.353749556511E+03   -0.74796E-01   -0.76537E-01 10080   0.780E+00-0.344E-01
CGA:   5    -0.353851548187E+03   -0.10199E+00   -0.10172E+00 10080   0.196E+00 0.470E-02
CGA:   6    -0.353861052712E+03   -0.95045E-02   -0.96655E-02 10080   0.829E-01 0.508E-02
CGA:   7    -0.353871968243E+03   -0.10916E-01   -0.10881E-01 10080   0.660E-01 0.567E-03
CGA:   8    -0.353874047092E+03   -0.20788E-02   -0.21170E-02 10080   0.111E-01-0.303E-03
CGA:   9    -0.353876120206E+03   -0.20731E-02   -0.20692E-02 10080   0.137E-01 0.192E-04
CGA:  10    -0.353876685944E+03   -0.56574E-03   -0.57691E-03 10080   0.249E-02 0.218E-03
CGA:  11    -0.353877055796E+03   -0.36985E-03   -0.69929E-03 10080   0.192E-01-0.173E-02
CGA:  12    -0.353877443265E+03   -0.38747E-03   -0.44676E-03 10080   0.952E-03 0.841E-03
CGA:  13    -0.353877472727E+03   -0.29462E-04   -0.45849E-04 10080   0.642E-03 0.361E-03
CGA:  14    -0.353877625264E+03   -0.15254E-03   -0.15249E-03 10080   0.213E-02-0.163E-05
CGA:  15    -0.353877710209E+03   -0.84945E-04   -0.75806E-04 10080   0.421E-03-0.168E-03
CGA:  16    -0.353877742743E+03   -0.32534E-04   -0.30388E-04 10080   0.139E-02-0.188E-03
CGA:  17    -0.353877808212E+03   -0.65469E-04   -0.59098E-04 10080   0.368E-02-0.508E-03
CGA:  18    -0.353877860838E+03   -0.52627E-04   -0.42634E-04 10080   0.170E-02-0.144E-03
CGA:  19    -0.353877876938E+03   -0.16099E-04   -0.23455E-04 10080   0.602E-03 0.103E-03
CGA:  20    -0.353877876542E+03    0.39524E-06   -0.95157E-05 10080   0.373E-03 0.145E-03
   8 F= -.35387788E+03 E0= -.35387173E+03  d E =-.995452E-02  mag=    10.0000
       N       E                     dE             d eps       ncg     rms          ort
SDA:   1    -0.353609302352E+03    0.26857E+00    0.00000E+00 10080   0.105E+01 0.000E+00
CGA:   2    -0.353670394369E+03   -0.61092E-01   -0.60701E-01 10080   0.128E+01-0.562E-02
CGA:   3    -0.353807832643E+03   -0.13744E+00   -0.13756E+00 10080   0.686E+00-0.374E-02
CGA:   4    -0.353840000354E+03   -0.32168E-01   -0.31646E-01 10080   0.205E+00-0.133E-01
CGA:   5    -0.353868960163E+03   -0.28960E-01   -0.28601E-01 10080   0.126E+00 0.518E-02
CGA:   6    -0.353874209241E+03   -0.52491E-02   -0.52953E-02 10080   0.228E-01 0.151E-02
CGA:   7    -0.353878457777E+03   -0.42485E-02   -0.42142E-02 10080   0.896E-02 0.297E-03
CGA:   8    -0.353878886141E+03   -0.42836E-03   -0.45300E-03 10080   0.394E-02 0.748E-03
CGA:   9    -0.353879506584E+03   -0.62044E-03   -0.59975E-03 10080   0.567E-02 0.334E-03
CGA:  10    -0.353879807973E+03   -0.30139E-03   -0.27545E-03 10080   0.165E-02-0.710E-03
CGA:  11    -0.353879933353E+03   -0.12538E-03   -0.12611E-03 10080   0.211E-02-0.124E-03
CGA:  12    -0.353880084598E+03   -0.15125E-03   -0.15213E-03 10080   0.662E-03 0.255E-03
CGA:  13    -0.353880168303E+03   -0.83706E-04   -0.10605E-03 10080   0.309E-02-0.368E-03
CGA:  14    -0.353880233829E+03   -0.65526E-04   -0.73606E-04 10080   0.248E-03 0.130E-03
CGA:  15    -0.353880240693E+03   -0.68638E-05   -0.12094E-04 10080   0.199E-03 0.151E-03
CGA:  16    -0.353880274237E+03   -0.33544E-04    0.13070E-03 10080   0.268E-03 0.672E-04
CGA:  17    -0.353880334954E+03   -0.60717E-04   -0.68536E-04 10080   0.105E-02-0.708E-04
CGA:  18    -0.353880351169E+03   -0.16215E-04   -0.20381E-04 10080   0.368E-03 0.685E-04
CGA:  19    -0.353880356021E+03   -0.48511E-05   -0.69977E-05 10080   0.123E-03 0.312E-04
   9 F= -.35388036E+03 E0= -.35387415E+03  d E =-.247948E-02  mag=    10.0000
       N       E                     dE             d eps       ncg     rms          ort
SDA:   1    -0.353840656717E+03    0.39694E-01    0.00000E+00 10080   0.129E+01 0.000E+00
CGA:   2    -0.353869369412E+03   -0.28713E-01   -0.29316E-01 10080   0.323E-01-0.218E-01
CGA:   3    -0.353877658307E+03   -0.82889E-02   -0.82214E-02 10080   0.516E-01 0.346E-03
CGA:   4    -0.353879457292E+03   -0.17990E-02   -0.17841E-02 10080   0.119E-01-0.654E-03
CGA:   5    -0.353881120962E+03   -0.16637E-02   -0.18092E-02 10080   0.213E-01-0.206E-02
CGA:   6    -0.353881698148E+03   -0.57719E-03   -0.61658E-03 10080   0.235E-02 0.792E-03
CGA:   7    -0.353881766649E+03   -0.68501E-04   -0.95207E-04 10080   0.155E-02 0.599E-03
CGA:   8    -0.353881926259E+03   -0.15961E-03   -0.15941E-03 10080   0.162E-02 0.272E-03
CGA:   9    -0.353882055491E+03   -0.12923E-03   -0.11607E-03 10080   0.590E-03-0.657E-03
CGA:  10    -0.353882070380E+03   -0.14889E-04   -0.17892E-04 10080   0.340E-03 0.103E-03
CGA:  11    -0.353882086666E+03   -0.16286E-04   -0.20862E-04 10080   0.244E-03 0.173E-03
CGA:  12    -0.353882126579E+03   -0.39913E-04    0.16064E-03 10080   0.330E-03-0.395E-04
CGA:  13    -0.353882154783E+03   -0.28204E-04   -0.30248E-04 10080   0.205E-03-0.639E-04
CGA:  14    -0.353882152858E+03    0.19250E-05   -0.26963E-05 10080   0.762E-04 0.735E-04
  10 F= -.35388215E+03 E0= -.35387597E+03  d E =-.179684E-02  mag=    10.0000
       N       E                     dE             d eps       ncg     rms          ort
SDA:   1    -0.353878477925E+03    0.36769E-02    0.00000E+00 10080   0.127E-01 0.000E+00
CGA:   2    -0.353879815764E+03   -0.13378E-02   -0.14038E-02 10080   0.251E-01-0.183E-02
CGA:   3    -0.353881669490E+03   -0.18537E-02   -0.18519E-02 10080   0.715E-02 0.141E-03
CGA:   4    -0.353881922781E+03   -0.25329E-03   -0.29190E-03 10080   0.314E-02 0.106E-02
CGA:   5    -0.353882294917E+03   -0.37214E-03   -0.36914E-03 10080   0.231E-02 0.101E-03
CGA:   6    -0.353882450079E+03   -0.15516E-03   -0.13503E-03 10080   0.104E-02-0.112E-02
CGA:   7    -0.353882484683E+03   -0.34604E-04   -0.35819E-04 10080   0.438E-03 0.175E-03
CGA:   8    -0.353882492991E+03   -0.83079E-05   -0.17623E-04 10080   0.209E-03 0.237E-03
CGA:   9    -0.353882524081E+03   -0.31090E-04    0.18587E-03 10080   0.105E-03 0.108E-03
CGA:  10    -0.353882523766E+03    0.31459E-06   -0.29360E-05 10080   0.631E-04 0.744E-04
  11 F= -.35388252E+03 E0= -.35387634E+03  d E =-.370908E-03  mag=    10.0000
       N       E                     dE             d eps       ncg     rms          ort
SDA:   1    -0.353854859423E+03    0.27665E-01    0.00000E+00 10080   0.764E-01 0.000E+00
CGA:   2    -0.353867521233E+03   -0.12662E-01   -0.12242E-01 10080   0.164E+00 0.448E-02
CGA:   3    -0.353876739018E+03   -0.92178E-02   -0.92497E-02 10080   0.498E-01-0.632E-03
CGA:   4    -0.353879260325E+03   -0.25213E-02   -0.24492E-02 10080   0.289E-01-0.316E-02
CGA:   5    -0.353882168729E+03   -0.29084E-02   -0.29082E-02 10080   0.738E-02-0.369E-04
CGA:   6    -0.353882511023E+03   -0.34229E-03   -0.33758E-03 10080   0.354E-02-0.213E-03
CGA:   7    -0.353882902775E+03   -0.39175E-03   -0.42673E-03 10080   0.509E-02-0.703E-03
CGA:   8    -0.353883051917E+03   -0.14914E-03   -0.14412E-03 10080   0.571E-03-0.134E-03
CGA:   9    -0.353883062899E+03   -0.10982E-04   -0.20091E-04 10080   0.378E-03 0.240E-03
CGA:  10    -0.353883086681E+03   -0.23782E-04   -0.28580E-04 10080   0.327E-03 0.254E-03
CGA:  11    -0.353883135649E+03   -0.48968E-04    0.21591E-03 10080   0.396E-03-0.116E-03
CGA:  12    -0.353883157351E+03   -0.21702E-04   -0.20705E-04 10080   0.274E-03 0.100E-03
CGA:  13    -0.353883155199E+03    0.21525E-05   -0.68622E-05 10080   0.680E-04 0.174E-03
  12 F= -.35388316E+03 E0= -.35387698E+03  d E =-.631433E-03  mag=    10.0000
       N       E                     dE             d eps       ncg     rms          ort
SDA:   1    -0.353744588075E+03    0.13857E+00    0.00000E+00 10080   0.355E+00 0.000E+00
CGA:   2    -0.353829541043E+03   -0.84953E-01   -0.85693E-01 10080   0.644E+00-0.441E-02
CGA:   3    -0.353857200722E+03   -0.27660E-01   -0.27567E-01 10080   0.149E+00 0.847E-02
CGA:   4    -0.353868903143E+03   -0.11702E-01   -0.11707E-01 10080   0.186E+00-0.790E-03
CGA:   5    -0.353879632196E+03   -0.10729E-01   -0.10690E-01 10080   0.223E-01-0.370E-02
CGA:   6    -0.353881287033E+03   -0.16548E-02   -0.16656E-02 10080   0.257E-01-0.345E-02
CGA:   7    -0.353883098068E+03   -0.18110E-02   -0.18007E-02 10080   0.438E-02 0.105E-02
CGA:   8    -0.353883246277E+03   -0.14821E-03   -0.17633E-03 10080   0.216E-02 0.805E-03
CGA:   9    -0.353883569662E+03   -0.32338E-03   -0.29526E-03 10080   0.180E-02 0.641E-03
CGA:  10    -0.353883744732E+03   -0.17507E-03   -0.17720E-03 10080   0.180E-02-0.110E-02
CGA:  11    -0.353883769416E+03   -0.24683E-04   -0.48515E-04 10080   0.297E-03 0.503E-03
CGA:  12    -0.353883773674E+03   -0.42589E-05   -0.12164E-04 10080   0.239E-03 0.198E-03
CGA:  13    -0.353883815090E+03   -0.41415E-04    0.34411E-04 10080   0.201E-03 0.112E-03
CGA:  14    -0.353883858510E+03   -0.43421E-04   -0.37693E-04 10080   0.105E-03 0.991E-04
CGA:  15    -0.353883875748E+03   -0.17237E-04   -0.17957E-04 10080   0.366E-03-0.179E-04
CGA:  16    -0.353883896165E+03   -0.20417E-04   -0.19536E-04 10080   0.446E-03-0.840E-04
CGA:  17    -0.353883903478E+03   -0.73138E-05   -0.65346E-05 10080   0.162E-03-0.149E-04
  13 F= -.35388390E+03 E0= -.35387772E+03  d E =-.748280E-03  mag=    10.0000
       N       E                     dE             d eps       ncg     rms          ort
SDA:   1    -0.353708144600E+03    0.17575E+00    0.00000E+00 10080   0.519E+00 0.000E+00
CGA:   2    -0.353767419566E+03   -0.59275E-01   -0.59225E-01 10080   0.117E+01 0.138E-02
CGA:   3    -0.353839120051E+03   -0.71700E-01   -0.71766E-01 10080   0.355E+00 0.336E-02
CGA:   4    -0.353856862457E+03   -0.17742E-01   -0.17321E-01 10080   0.152E+00-0.119E-01
CGA:   5    -0.353877156278E+03   -0.20294E-01   -0.20213E-01 10080   0.410E-01 0.109E-02
CGA:   6    -0.353878962397E+03   -0.18061E-02   -0.17759E-02 10080   0.220E-01-0.123E-02
CGA:   7    -0.353881420430E+03   -0.24580E-02   -0.25100E-02 10080   0.194E-01-0.118E-02
CGA:   8    -0.353882059360E+03   -0.63893E-03   -0.64756E-03 10080   0.244E-02 0.112E-03
CGA:   9    -0.353882490500E+03   -0.43114E-03   -0.37088E-03 10080   0.164E-02 0.761E-03
CGA:  10    -0.353882684272E+03   -0.19377E-03   -0.27112E-03 10080   0.525E-02-0.156E-02
CGA:  11    -0.353882780021E+03   -0.95749E-04   -0.14685E-03 10080   0.393E-03 0.979E-03
CGA:  12    -0.353882784084E+03   -0.40631E-05   -0.14512E-04 10080   0.274E-03 0.233E-03
CGA:  13    -0.353882831267E+03   -0.47183E-04    0.59792E-04 10080   0.222E-03 0.183E-03
CGA:  14    -0.353882837611E+03   -0.63434E-05   -0.10426E-04 10080   0.172E-03 0.153E-03
CGA:  15    -0.353882868076E+03   -0.30466E-04    0.27574E-04 10080   0.154E-03 0.134E-03
CGA:  16    -0.353882874959E+03   -0.68828E-05   -0.86755E-05 10080   0.137E-03 0.114E-03
CGA:  17    -0.353882900388E+03   -0.25429E-04    0.16364E-04 10080   0.136E-03 0.963E-04
CGA:  18    -0.353882903706E+03   -0.33184E-05   -0.58854E-05 10080   0.112E-03 0.912E-04
CGA:  19    -0.353882922111E+03   -0.18404E-04    0.22272E-04 10080   0.113E-03 0.844E-04
CGA:  20    -0.353882928294E+03   -0.61835E-05   -0.67825E-05 10080   0.123E-03 0.602E-04
CGA:  21    -0.353882924128E+03    0.41659E-05   -0.25079E-04 10080   0.222E-02-0.218E-03
CGA:  22    -0.353882969554E+03   -0.45426E-04   -0.50911E-04 10080   0.819E-04 0.919E-04
CGA:  23    -0.353882969421E+03    0.13319E-06   -0.22620E-05 10080   0.544E-04 0.509E-04
  14 F= -.35388297E+03 E0= -.35387678E+03  d E =0.934058E-03  mag=    10.0000
       N       E                     dE             d eps       ncg     rms          ort
SDA:   1    -0.353763917211E+03    0.11905E+00    0.00000E+00 10080   0.206E+01 0.000E+00
CGA:   2    -0.353815572405E+03   -0.51655E-01   -0.50961E-01 10080   0.191E+00 0.422E-02
CGA:   3    -0.353847998414E+03   -0.32426E-01   -0.32430E-01 10080   0.438E+00-0.628E-03
CGA:   4    -0.353871061458E+03   -0.23063E-01   -0.23043E-01 10080   0.525E-01 0.198E-02
CGA:   5    -0.353878605945E+03   -0.75445E-02   -0.75377E-02 10080   0.769E-01 0.199E-03
CGA:   6    -0.353881119004E+03   -0.25131E-02   -0.25558E-02 10080   0.783E-02 0.122E-02
CGA:   7    -0.353881630508E+03   -0.51150E-03   -0.56885E-03 10080   0.646E-02 0.115E-02
CGA:   8    -0.353882496143E+03   -0.86564E-03   -0.86529E-03 10080   0.269E-02-0.920E-03
CGA:   9    -0.353882569474E+03   -0.73331E-04   -0.83659E-04 10080   0.115E-02 0.126E-03
CGA:  10    -0.353882636582E+03   -0.67108E-04   -0.82457E-04 10080   0.922E-03 0.338E-03
CGA:  11    -0.353882769691E+03   -0.13311E-03   -0.13360E-03 10080   0.173E-02-0.473E-03
CGA:  12    -0.353882802459E+03   -0.32769E-04   -0.41505E-04 10080   0.147E-03 0.976E-04
CGA:  13    -0.353882804122E+03   -0.16625E-05   -0.71150E-05 10080   0.113E-03 0.894E-04
CGA:  14    -0.353882830792E+03   -0.26670E-04    0.41003E-04 10080   0.268E-03-0.678E-05
CGA:  15    -0.353882861683E+03   -0.30891E-04   -0.34358E-04 10080   0.357E-03-0.106E-03
CGA:  16    -0.353882859622E+03    0.20607E-05   -0.38164E-05 10080   0.152E-03 0.666E-04
  15 F= -.35388286E+03 E0= -.35387668E+03  d E =0.109798E-03  mag=    10.0000
       N       E                     dE             d eps       ncg     rms          ort
SDA:   1    -0.353812895574E+03    0.69966E-01    0.00000E+00 10080   0.174E+00 0.000E+00
CGA:   2    -0.353850133797E+03   -0.37238E-01   -0.38512E-01 10080   0.474E+00-0.107E-01
CGA:   3    -0.353871841567E+03   -0.21708E-01   -0.22227E-01 10080   0.643E-01 0.351E-02
CGA:   4    -0.353875212381E+03   -0.33708E-02   -0.34547E-02 10080   0.567E-01 0.243E-02
CGA:   5    -0.353880515624E+03   -0.53032E-02   -0.53120E-02 10080   0.118E-01 0.108E-02
CGA:   6    -0.353881230391E+03   -0.71477E-03   -0.64246E-03 10080   0.737E-02-0.164E-02
CGA:   7    -0.353881969686E+03   -0.73930E-03   -0.72916E-03 10080   0.332E-02 0.508E-03
CGA:   8    -0.353882065712E+03   -0.96026E-04   -0.11780E-03 10080   0.836E-03 0.348E-03
CGA:   9    -0.353882219343E+03   -0.15363E-03   -0.14525E-03 10080   0.872E-03 0.129E-03
CGA:  10    -0.353882314174E+03   -0.94831E-04   -0.88819E-04 10080   0.130E-02-0.745E-03
CGA:  11    -0.353882326685E+03   -0.12511E-04   -0.33701E-04 10080   0.174E-03 0.294E-03
CGA:  12    -0.353882325624E+03    0.10614E-05   -0.60023E-05 10080   0.112E-03 0.109E-03
CGA:  13    -0.353882348021E+03   -0.22397E-04    0.43223E-04 10080   0.111E-03 0.532E-04
CGA:  14    -0.353882356976E+03   -0.89552E-05   -0.10570E-04 10080   0.592E-04 0.660E-04
  16 F= -.35388236E+03 E0= -.35387616E+03  d E =0.502646E-03  mag=    10.0000
       N       E                     dE             d eps       ncg     rms          ort
SDA:   1    -0.353834584899E+03    0.47763E-01    0.00000E+00 10080   0.180E+00 0.000E+00
CGA:   2    -0.353844023047E+03   -0.94381E-02   -0.94383E-02 10080   0.211E+00-0.101E-02
CGA:   3    -0.353871845987E+03   -0.27823E-01   -0.27673E-01 10080   0.433E-01 0.301E-02
CGA:   4    -0.353875601726E+03   -0.37557E-02   -0.37555E-02 10080   0.543E-01-0.258E-03
CGA:   5    -0.353879805152E+03   -0.42034E-02   -0.41868E-02 10080   0.637E-02-0.196E-02
CGA:   6    -0.353880121710E+03   -0.31656E-03   -0.33441E-03 10080   0.589E-02 0.548E-03
CGA:   7    -0.353880677156E+03   -0.55545E-03   -0.55506E-03 10080   0.210E-02 0.158E-03
CGA:   8    -0.353880823941E+03   -0.14679E-03   -0.13213E-03 10080   0.160E-02-0.641E-03
CGA:   9    -0.353880923570E+03   -0.99629E-04   -0.99173E-04 10080   0.733E-03 0.743E-04
CGA:  10    -0.353880936130E+03   -0.12560E-04   -0.24911E-04 10080   0.228E-03 0.239E-03
CGA:  11    -0.353880968122E+03   -0.31992E-04   -0.30151E-04 10080   0.349E-03 0.979E-04
CGA:  12    -0.353881009562E+03   -0.41440E-04   -0.55552E-04 10080   0.118E-02-0.488E-03
CGA:  13    -0.353881025458E+03   -0.15896E-04   -0.25993E-04 10080   0.121E-03 0.160E-03
CGA:  14    -0.353881026027E+03   -0.56895E-06   -0.46412E-05 10080   0.104E-03 0.869E-04
CGA:  15    -0.353881028755E+03   -0.27278E-05   -0.19745E-04 10080   0.139E-02-0.154E-03
CGA:  16    -0.353881050008E+03   -0.21253E-04   -0.28849E-04 10080   0.293E-04 0.115E-03
CGA:  17    -0.353881049085E+03    0.92214E-06   -0.50487E-06 10080   0.209E-04 0.221E-04
  17 F= -.35388105E+03 E0= -.35387486E+03  d E =0.130789E-02  mag=    10.0000
       N       E                     dE             d eps       ncg     rms          ort
SDA:   1    -0.353857376708E+03    0.23673E-01    0.00000E+00 10080   0.695E-01 0.000E+00
CGA:   2    -0.353868885434E+03   -0.11509E-01   -0.11250E-01 10080   0.111E+00 0.284E-02
CGA:   3    -0.353874048415E+03   -0.51630E-02   -0.52175E-02 10080   0.271E-01 0.623E-03
CGA:   4    -0.353876325326E+03   -0.22769E-02   -0.22879E-02 10080   0.422E-01-0.191E-02
CGA:   5    -0.353878935292E+03   -0.26100E-02   -0.26032E-02 10080   0.498E-02-0.564E-03
CGA:   6    -0.353879180090E+03   -0.24480E-03   -0.26636E-03 10080   0.283E-02 0.926E-03
CGA:   7    -0.353879646371E+03   -0.46628E-03   -0.57848E-03 10080   0.306E-02-0.117E-02
CGA:   8    -0.353879680371E+03   -0.34000E-04   -0.36202E-04 10080   0.103E-02 0.283E-04
CGA:   9    -0.353879700180E+03   -0.19809E-04   -0.28115E-04 10080   0.996E-03 0.159E-03
CGA:  10    -0.353879758421E+03   -0.58241E-04   -0.63915E-04 10080   0.139E-02 0.284E-03
CGA:  11    -0.353879825705E+03   -0.67284E-04   -0.62689E-04 10080   0.394E-03-0.122E-03
CGA:  12    -0.353879619736E+03    0.20597E-03   -0.87537E-04 10080   0.101E-01-0.172E-02
CGA:  13    -0.353879838137E+03   -0.21840E-03   -0.28492E-03 10080   0.490E-03 0.129E-02
CGA:  14    -0.353879845681E+03   -0.75440E-05   -0.18972E-04 10080   0.288E-03 0.257E-03
CGA:  15    -0.353879894572E+03   -0.48891E-04    0.98289E-04 10080   0.197E-03 0.130E-03
CGA:  16    -0.353879910893E+03   -0.16322E-04   -0.18028E-04 10080   0.490E-04 0.128E-03
CGA:  17    -0.353879886825E+03    0.24068E-04   -0.14213E-04 10080   0.208E-02-0.119E-03
CGA:  18    -0.353879929439E+03   -0.42614E-04   -0.50503E-04 10080   0.517E-04 0.600E-04
CGA:  19    -0.353879931557E+03   -0.21180E-05   -0.20865E-05 10080   0.238E-04-0.577E-06
  18 F= -.35387993E+03 E0= -.35387374E+03  d E =0.111753E-02  mag=    10.0000
       N       E                     dE             d eps       ncg     rms          ort
SDA:   1    -0.353851733594E+03    0.28196E-01    0.00000E+00 10080   0.258E+00 0.000E+00
CGA:   2    -0.353861114360E+03   -0.93808E-02   -0.10283E-01 10080   0.971E-01-0.327E-01
CGA:   3    -0.353869337496E+03   -0.82231E-02   -0.83559E-02 10080   0.112E+00-0.597E-03
CGA:   4    -0.353874198383E+03   -0.48609E-02   -0.49501E-02 10080   0.169E-01 0.364E-02
CGA:   5    -0.353875774036E+03   -0.15757E-02   -0.15660E-02 10080   0.222E-01-0.669E-04
CGA:   6    -0.353877848365E+03   -0.20743E-02   -0.20667E-02 10080   0.338E-02-0.193E-03
CGA:   7    -0.353877995181E+03   -0.14682E-03   -0.18512E-03 10080   0.200E-02 0.255E-03
CGA:   8    -0.353878227207E+03   -0.23203E-03   -0.22436E-03 10080   0.292E-02-0.956E-04
CGA:   9    -0.353878365893E+03   -0.13869E-03   -0.12334E-03 10080   0.323E-03-0.136E-03
CGA:  10    -0.353878402241E+03   -0.36348E-04   -0.40651E-04 10080   0.328E-03 0.921E-04
CGA:  11    -0.353878455016E+03   -0.52775E-04   -0.45475E-04 10080   0.578E-03-0.109E-03
CGA:  12    -0.353878473869E+03   -0.18852E-04   -0.18713E-04 10080   0.336E-03-0.198E-05
CGA:  13    -0.353878476025E+03   -0.21566E-05   -0.10296E-04 10080   0.156E-03 0.589E-04
  19 F= -.35387848E+03 E0= -.35387228E+03  d E =0.145553E-02  mag=    10.0000
       N       E                     dE             d eps       ncg     rms          ort
SDA:   1    -0.353868537388E+03    0.99365E-02    0.00000E+00 10080   0.190E+00 0.000E+00
CGA:   2    -0.353874028860E+03   -0.54915E-02   -0.54328E-02 10080   0.150E-01 0.874E-02
CGA:   3    -0.353874961268E+03   -0.93241E-03   -0.10180E-02 10080   0.190E-01 0.903E-03
CGA:   4    -0.353877343432E+03   -0.23822E-02   -0.23826E-02 10080   0.682E-02-0.681E-05
CGA:   5    -0.353877776005E+03   -0.43257E-03   -0.36663E-03 10080   0.397E-02-0.802E-03
CGA:   6    -0.353878184300E+03   -0.40830E-03   -0.41729E-03 10080   0.554E-03 0.476E-03
CGA:   7    -0.353878210435E+03   -0.26134E-04   -0.39593E-04 10080   0.488E-03 0.183E-03
CGA:   8    -0.353878287755E+03   -0.77320E-04   -0.76339E-04 10080   0.442E-03-0.634E-04
CGA:   9    -0.353878308182E+03   -0.20427E-04   -0.13727E-04 10080   0.110E-03-0.715E-04
CGA:  10    -0.353878315841E+03   -0.76593E-05   -0.89440E-05 10080   0.863E-04 0.417E-04
CGA:  11    -0.353878328984E+03   -0.13143E-04   -0.12640E-04 10080   0.200E-03-0.256E-04
CGA:  12    -0.353878336359E+03   -0.73756E-05   -0.57063E-05 10080   0.114E-03-0.200E-04
  20 F= -.35387834E+03 E0= -.35387216E+03  d E =0.139666E-03  mag=    10.0000
       N       E                     dE             d eps       ncg     rms          ort
SDA:   1    -0.353872947677E+03    0.53813E-02    0.00000E+00 10080   0.319E-01 0.000E+00
CGA:   2    -0.353874315146E+03   -0.13675E-02   -0.13360E-02 10080   0.188E-01-0.728E-03
CGA:   3    -0.353876808568E+03   -0.24934E-02   -0.24982E-02 10080   0.232E-01-0.222E-03
CGA:   4    -0.353877672085E+03   -0.86352E-03   -0.86832E-03 10080   0.377E-02-0.253E-03
CGA:   5    -0.353878362771E+03   -0.69069E-03   -0.68939E-03 10080   0.171E-02 0.160E-04
CGA:   6    -0.353878397634E+03   -0.34862E-04   -0.65353E-04 10080   0.474E-03 0.404E-03
CGA:   7    -0.353878444188E+03   -0.46554E-04   -0.51131E-04 10080   0.430E-03 0.205E-03
CGA:   8    -0.353878510963E+03   -0.66775E-04   -0.66608E-04 10080   0.848E-03-0.445E-03
CGA:   9    -0.353878512746E+03   -0.17824E-05   -0.20857E-04 10080   0.117E-03 0.226E-03
  21 F= -.35387851E+03 E0= -.35387235E+03  d E =-.176386E-03  mag=    10.0000
       N       E                     dE             d eps       ncg     rms          ort
SDA:   1    -0.353871287135E+03    0.72238E-02    0.00000E+00 10080   0.299E-01 0.000E+00
CGA:   2    -0.353872983949E+03   -0.16968E-02   -0.17243E-02 10080   0.308E-01 0.732E-03
CGA:   3    -0.353876992634E+03   -0.40087E-02   -0.40237E-02 10080   0.246E-01-0.551E-03
CGA:   4    -0.353877842768E+03   -0.85013E-03   -0.83461E-03 10080   0.543E-02-0.115E-03
CGA:   5    -0.353878780098E+03   -0.93733E-03   -0.93790E-03 10080   0.787E-03-0.908E-05
CGA:   6    -0.353878889629E+03   -0.10953E-03   -0.21471E-03 10080   0.342E-02-0.610E-03
CGA:   7    -0.353878944203E+03   -0.54574E-04   -0.93759E-04 10080   0.269E-03 0.483E-03
CGA:   8    -0.353878943850E+03    0.35239E-06   -0.94350E-05 10080   0.136E-03 0.131E-03
CGA:   9    -0.353878956725E+03   -0.12875E-04   -0.14531E-04 10080   0.149E-03 0.564E-04
CGA:  10    -0.353878976589E+03   -0.19863E-04   -0.23722E-04 10080   0.486E-03-0.303E-03
CGA:  11    -0.353878977370E+03   -0.78161E-06   -0.11048E-04 10080   0.906E-04 0.131E-03
  22 F= -.35387898E+03 E0= -.35387282E+03  d E =-.464625E-03  mag=    10.0000
       N       E                     dE             d eps       ncg     rms          ort
SDA:   1    -0.353740994746E+03    0.13798E+00    0.00000E+00 10080   0.392E+00 0.000E+00
CGA:   2    -0.353784950530E+03   -0.43956E-01   -0.43850E-01 10080   0.100E+01 0.336E-02
CGA:   3    -0.353852469175E+03   -0.67519E-01   -0.67444E-01 10080   0.162E+00-0.224E-02
CGA:   4    -0.353863095328E+03   -0.10626E-01   -0.10575E-01 10080   0.145E+00-0.986E-03
CGA:   5    -0.353875705109E+03   -0.12610E-01   -0.12611E-01 10080   0.180E-01 0.547E-04
CGA:   6    -0.353877178946E+03   -0.14738E-02   -0.14661E-02 10080   0.278E-01-0.944E-03
CGA:   7    -0.353878822511E+03   -0.16436E-02   -0.16345E-02 10080   0.565E-02-0.381E-03
CGA:   8    -0.353878997861E+03   -0.17535E-03   -0.22426E-03 10080   0.180E-02 0.983E-03
CGA:   9    -0.353879327478E+03   -0.32962E-03   -0.31056E-03 10080   0.255E-02 0.315E-03
CGA:  10    -0.353879487678E+03   -0.16020E-03   -0.13583E-03 10080   0.847E-03-0.563E-03
CGA:  11    -0.353879531967E+03   -0.44289E-04   -0.43569E-04 10080   0.683E-03-0.373E-04
CGA:  12    -0.353879566605E+03   -0.34638E-04   -0.40271E-04 10080   0.191E-03 0.228E-03
CGA:  13    -0.353879472071E+03    0.94534E-04   -0.62205E-04 10080   0.450E-02-0.534E-03
CGA:  14    -0.353879558902E+03   -0.86832E-04   -0.12711E-03 10080   0.540E-03 0.362E-03
CGA:  15    -0.353879586737E+03   -0.27835E-04   -0.39287E-04 10080   0.539E-03 0.140E-03
CGA:  16    -0.353879661677E+03   -0.74940E-04   -0.67855E-04 10080   0.193E-03-0.159E-03
CGA:  17    -0.353879663813E+03   -0.21364E-05   -0.39463E-05 10080   0.400E-04 0.157E-04
  23 F= -.35387966E+03 E0= -.35387352E+03  d E =-.686443E-03  mag=    10.0000
       N       E                     dE             d eps       ncg     rms          ort
SDA:   1    -0.353808641776E+03    0.71020E-01    0.00000E+00 10080   0.182E+00 0.000E+00
CGA:   2    -0.353847995604E+03   -0.39354E-01   -0.39276E-01 10080   0.489E+00 0.678E-03
CGA:   3    -0.353864928288E+03   -0.16933E-01   -0.17501E-01 10080   0.637E-01-0.120E-01
CGA:   4    -0.353873271462E+03   -0.83432E-02   -0.83511E-02 10080   0.842E-01-0.227E-02
CGA:   5    -0.353876898344E+03   -0.36269E-02   -0.37390E-02 10080   0.997E-02 0.146E-02
CGA:   6    -0.353877446868E+03   -0.54852E-03   -0.58299E-03 10080   0.900E-02 0.528E-03
CGA:   7    -0.353878396435E+03   -0.94957E-03   -0.94567E-03 10080   0.271E-02-0.190E-03
CGA:   8    -0.353878558617E+03   -0.16218E-03   -0.12987E-03 10080   0.170E-02-0.461E-03
CGA:   9    -0.353878723835E+03   -0.16522E-03   -0.16530E-03 10080   0.123E-02 0.528E-04
CGA:  10    -0.353878756266E+03   -0.32431E-04   -0.44790E-04 10080   0.223E-03 0.148E-03
CGA:  11    -0.353878813763E+03   -0.57497E-04   -0.52936E-04 10080   0.144E-03 0.468E-04
CGA:  12    -0.353878803531E+03    0.10232E-04   -0.38980E-04 10080   0.357E-02-0.473E-03
CGA:  13    -0.353878858740E+03   -0.55209E-04   -0.83489E-04 10080   0.162E-03 0.272E-03
CGA:  14    -0.353878855258E+03    0.34814E-05   -0.39936E-05 10080   0.540E-04 0.770E-04
  24 F= -.35387886E+03 E0= -.35387268E+03  d E =0.808555E-03  mag=    10.0000
       N       E                     dE             d eps       ncg     rms          ort
SDA:   1    -0.353834623675E+03    0.44235E-01    0.00000E+00 10080   0.133E+00 0.000E+00
CGA:   2    -0.353848104897E+03   -0.13481E-01   -0.13547E-01 10080   0.212E+00 0.671E-02
CGA:   3    -0.353867960522E+03   -0.19856E-01   -0.19800E-01 10080   0.107E+00-0.349E-02
CGA:   4    -0.353871604158E+03   -0.36436E-02   -0.36825E-02 10080   0.273E-01-0.379E-02
CGA:   5    -0.353875656106E+03   -0.40519E-02   -0.39882E-02 10080   0.174E-01 0.135E-02
CGA:   6    -0.353876556067E+03   -0.89996E-03   -0.84521E-03 10080   0.409E-02-0.114E-02
CGA:   7    -0.353876909267E+03   -0.35320E-03   -0.35248E-03 10080   0.427E-02-0.793E-04
CGA:   8    -0.353877115316E+03   -0.20605E-03   -0.22535E-03 10080   0.132E-02 0.382E-03
CGA:   9    -0.353877204383E+03   -0.89068E-04   -0.83233E-04 10080   0.999E-03-0.142E-03
CGA:  10    -0.353877315224E+03   -0.11084E-03   -0.11324E-03 10080   0.481E-03-0.872E-04
CGA:  11    -0.353877327900E+03   -0.12677E-04   -0.18589E-04 10080   0.152E-03 0.101E-03
CGA:  12    -0.353877349113E+03   -0.21213E-04   -0.20392E-04 10080   0.256E-03 0.600E-04
CGA:  13    -0.353877386226E+03   -0.37113E-04   -0.57398E-04 10080   0.873E-03-0.327E-03
CGA:  14    -0.353877400151E+03   -0.13925E-04   -0.23157E-04 10080   0.102E-03 0.123E-03
CGA:  15    -0.353877401624E+03   -0.14737E-05   -0.46758E-05 10080   0.774E-04 0.557E-04
CGA:  16    -0.353877209609E+03    0.19202E-03   -0.10370E-03 10080   0.804E-02-0.459E-03
CGA:  17    -0.353877413155E+03   -0.20355E-03   -0.23176E-03 10080   0.140E-03 0.261E-03
CGA:  18    -0.353877412299E+03    0.85643E-06   -0.48705E-05 10080   0.608E-04 0.431E-04
  25 F= -.35387741E+03 E0= -.35387128E+03  d E =0.144296E-02  mag=    10.0000
       N       E                     dE             d eps       ncg     rms          ort
SDA:   1    -0.353863915710E+03    0.13497E-01    0.00000E+00 10080   0.912E-01 0.000E+00
CGA:   2    -0.353867113654E+03   -0.31979E-02   -0.32362E-02 10080   0.377E-01 0.388E-02
CGA:   3    -0.353872152796E+03   -0.50391E-02   -0.50800E-02 10080   0.693E-01 0.193E-02
CGA:   4    -0.353876779150E+03   -0.46264E-02   -0.44142E-02 10080   0.598E-02-0.165E-02
CGA:   5    -0.353877910695E+03   -0.11315E-02   -0.11092E-02 10080   0.239E-02 0.474E-03
CGA:   6    -0.353878126674E+03   -0.21598E-03   -0.16606E-03 10080   0.170E-02-0.627E-03
CGA:   7    -0.353878231170E+03   -0.10450E-03   -0.11185E-03 10080   0.806E-03 0.140E-03
CGA:   8    -0.353878241471E+03   -0.10301E-04   -0.27348E-04 10080   0.172E-03 0.155E-03
CGA:   9    -0.353878272005E+03   -0.30534E-04   -0.30204E-04 10080   0.320E-03 0.233E-04
CGA:  10    -0.353878297563E+03   -0.25558E-04   -0.20601E-04 10080   0.979E-04-0.653E-04
CGA:  11    -0.353878299652E+03   -0.20890E-05   -0.31675E-05 10080   0.585E-04 0.117E-04
  26 F= -.35387830E+03 E0= -.35387215E+03  d E =-.887353E-03  mag=    10.0000
       N       E                     dE             d eps       ncg     rms          ort
SDA:   1    -0.353863641238E+03    0.14656E-01    0.00000E+00 10080   0.802E-01 0.000E+00
CGA:   2    -0.353866701847E+03   -0.30606E-02   -0.30497E-02 10080   0.449E-01 0.198E-02
CGA:   3    -0.353874001145E+03   -0.72993E-02   -0.72709E-02 10080   0.663E-01 0.675E-03
CGA:   4    -0.353876805113E+03   -0.28040E-02   -0.27973E-02 10080   0.738E-02-0.976E-03
CGA:   5    -0.353877953404E+03   -0.11483E-02   -0.12343E-02 10080   0.141E-01-0.164E-02
CGA:   6    -0.353878324803E+03   -0.37140E-03   -0.42004E-03 10080   0.219E-02 0.627E-03
CGA:   7    -0.353878357881E+03   -0.33078E-04   -0.67070E-04 10080   0.946E-03 0.398E-03
CGA:   8    -0.353878427149E+03   -0.69268E-04   -0.80569E-04 10080   0.126E-02 0.289E-03
CGA:   9    -0.353878539712E+03   -0.11256E-03   -0.97118E-04 10080   0.255E-03-0.311E-03
CGA:  10    -0.353878558357E+03   -0.18645E-04   -0.17968E-04 10080   0.390E-03-0.522E-04
CGA:  11    -0.353878574548E+03   -0.16191E-04   -0.18956E-04 10080   0.123E-03 0.611E-04
CGA:  12    -0.353878579127E+03   -0.45788E-05   -0.59709E-05 10080   0.635E-04 0.221E-04
CGA:  13    -0.353878590767E+03   -0.11639E-04   -0.16710E-04 10080   0.859E-04-0.414E-04
CGA:  14    -0.353878593527E+03   -0.27603E-05   -0.30106E-05 10080   0.409E-04 0.307E-05
  27 F= -.35387859E+03 E0= -.35387244E+03  d E =-.293875E-03  mag=    10.0000
       N       E                     dE             d eps       ncg     rms          ort
SDA:   1    -0.353870326677E+03    0.82641E-02    0.00000E+00 10080   0.353E-01 0.000E+00
CGA:   2    -0.353872153206E+03   -0.18265E-02   -0.18883E-02 10080   0.302E-01 0.138E-02
CGA:   3    -0.353876032166E+03   -0.38790E-02   -0.38544E-02 10080   0.242E-01 0.102E-02
CGA:   4    -0.353877032802E+03   -0.10006E-02   -0.94376E-03 10080   0.603E-02-0.121E-02
CGA:   5    -0.353877898355E+03   -0.86555E-03   -0.90210E-03 10080   0.719E-02-0.627E-03
CGA:   6    -0.353878122692E+03   -0.22434E-03   -0.23252E-03 10080   0.873E-03 0.135E-03
CGA:   7    -0.353878171584E+03   -0.48892E-04   -0.53941E-04 10080   0.777E-03 0.135E-03
CGA:   8    -0.353878281595E+03   -0.11001E-03   -0.11784E-03 10080   0.256E-03-0.220E-03
CGA:   9    -0.353878295517E+03   -0.13922E-04   -0.12550E-04 10080   0.228E-03-0.482E-04
CGA:  10    -0.353878308133E+03   -0.12616E-04   -0.13870E-04 10080   0.802E-04 0.597E-04
CGA:  11    -0.353878317120E+03   -0.89867E-05   -0.85718E-05 10080   0.188E-03-0.415E-04
  28 F= -.35387832E+03 E0= -.35387217E+03  d E =0.276407E-03  mag=    10.0000
       N       E                     dE             d eps       ncg     rms          ort
SDA:   1    -0.353851827896E+03    0.26480E-01    0.00000E+00 10080   0.714E-01 0.000E+00
CGA:   2    -0.353865474906E+03   -0.13647E-01   -0.13241E-01 10080   0.138E+00 0.419E-02
CGA:   3    -0.353871608985E+03   -0.61341E-02   -0.60712E-02 10080   0.306E-01-0.290E-02
CGA:   4    -0.353873841553E+03   -0.22326E-02   -0.22074E-02 10080   0.340E-01-0.163E-02
CGA:   5    -0.353876423487E+03   -0.25819E-02   -0.25908E-02 10080   0.531E-02 0.770E-03
CGA:   6    -0.353876689531E+03   -0.26604E-03   -0.27404E-03 10080   0.314E-02 0.198E-03
CGA:   7    -0.353877095692E+03   -0.40616E-03   -0.42342E-03 10080   0.337E-02-0.431E-03
CGA:   8    -0.353877179347E+03   -0.83655E-04   -0.87404E-04 10080   0.398E-03 0.453E-04
CGA:   9    -0.353877208689E+03   -0.29342E-04   -0.30991E-04 10080   0.587E-03 0.143E-03
CGA:  10    -0.353877269166E+03   -0.60478E-04   -0.60066E-04 10080   0.407E-03-0.351E-04
CGA:  11    -0.353877295558E+03   -0.26391E-04   -0.23417E-04 10080   0.214E-03-0.117E-03
CGA:  12    -0.353877307626E+03   -0.12069E-04   -0.12185E-04 10080   0.139E-03 0.199E-04
CGA:  13    -0.353877318700E+03   -0.11074E-04   -0.11510E-04 10080   0.114E-03 0.437E-04
CGA:  14    -0.353877095038E+03    0.22366E-03   -0.12073E-03 10080   0.819E-02-0.669E-03
CGA:  15    -0.353877265026E+03   -0.16999E-03   -0.19718E-03 10080   0.561E-03 0.250E-03
CGA:  16    -0.353877292822E+03   -0.27796E-04   -0.41189E-04 10080   0.441E-03 0.172E-03
CGA:  17    -0.353877362839E+03   -0.70017E-04   -0.66286E-04 10080   0.386E-03-0.127E-03
CGA:  18    -0.353877367269E+03   -0.44303E-05   -0.63926E-05 10080   0.837E-04 0.157E-04
  29 F= -.35387737E+03 E0= -.35387122E+03  d E =0.949851E-03  mag=    10.0000
       N       E                     dE             d eps       ncg     rms          ort
SDA:   1    -0.353679697335E+03    0.19767E+00    0.00000E+00 10080   0.520E+00 0.000E+00
CGA:   2    -0.353795095333E+03   -0.11540E+00   -0.11503E+00 10080   0.117E+01 0.300E-02
CGA:   3    -0.353833617468E+03   -0.38522E-01   -0.39809E-01 10080   0.164E+00-0.394E-01
CGA:   4    -0.353862279773E+03   -0.28662E-01   -0.28510E-01 10080   0.143E+00 0.289E-02
CGA:   5    -0.353867681728E+03   -0.54020E-02   -0.52912E-02 10080   0.288E-01-0.397E-02
CGA:   6    -0.353870000048E+03   -0.23183E-02   -0.22886E-02 10080   0.322E-01-0.103E-02
CGA:   7    -0.353872087049E+03   -0.20870E-02   -0.21373E-02 10080   0.428E-02 0.968E-03
CGA:   8    -0.353872413241E+03   -0.32619E-03   -0.32818E-03 10080   0.630E-02 0.262E-04
CGA:   9    -0.353873020666E+03   -0.60742E-03   -0.59942E-03 10080   0.160E-02-0.321E-03
CGA:  10    -0.353873074366E+03   -0.53701E-04   -0.71382E-04 10080   0.922E-03 0.241E-03
CGA:  11    -0.353873279652E+03   -0.20529E-03   -0.20344E-03 10080   0.143E-02 0.223E-04
CGA:  12    -0.353873372678E+03   -0.93026E-04   -0.73390E-04 10080   0.601E-03-0.297E-03
CGA:  13    -0.353873429831E+03   -0.57153E-04   -0.58134E-04 10080   0.145E-02-0.164E-03
CGA:  14    -0.353873482157E+03   -0.52325E-04   -0.60557E-04 10080   0.233E-03 0.138E-03
CGA:  15    -0.353873499915E+03   -0.17758E-04   -0.18563E-04 10080   0.447E-03 0.191E-04
CGA:  16    -0.353873549744E+03   -0.49829E-04   -0.49582E-04 10080   0.206E-03-0.284E-04
CGA:  17    -0.353873553359E+03   -0.36158E-05   -0.60823E-05 10080   0.643E-04 0.307E-04
  30 F= -.35387355E+03 E0= -.35386742E+03  d E =0.381391E-02  mag=    10.0000
       N       E                     dE             d eps       ncg     rms          ort
SDA:   1    -0.353780808649E+03    0.92741E-01    0.00000E+00 10080   0.380E+00 0.000E+00
CGA:   2    -0.353805087849E+03   -0.24279E-01   -0.24238E-01 10080   0.418E+00 0.314E-03
CGA:   3    -0.353854090841E+03   -0.49003E-01   -0.49032E-01 10080   0.227E+00-0.266E-02
CGA:   4    -0.353861750161E+03   -0.76593E-02   -0.75143E-02 10080   0.609E-01 0.613E-02
CGA:   5    -0.353872639511E+03   -0.10889E-01   -0.10697E-01 10080   0.326E-01 0.267E-02
CGA:   6    -0.353874419516E+03   -0.17800E-02   -0.16196E-02 10080   0.855E-02-0.240E-02
CGA:   7    -0.353875351495E+03   -0.93198E-03   -0.92019E-03 10080   0.959E-02 0.755E-03
CGA:   8    -0.353875756629E+03   -0.40513E-03   -0.41289E-03 10080   0.206E-02 0.104E-03
CGA:   9    -0.353875991879E+03   -0.23525E-03   -0.25102E-03 10080   0.428E-02-0.734E-03
CGA:  10    -0.353876134211E+03   -0.14233E-03   -0.14762E-03 10080   0.132E-02 0.111E-03
CGA:  11    -0.353876146332E+03   -0.12121E-04   -0.37043E-04 10080   0.462E-03 0.350E-03
CGA:  12    -0.353876154697E+03   -0.83643E-05   -0.22213E-04 10080   0.474E-03 0.246E-03
CGA:  13    -0.353874741551E+03    0.14131E-02   -0.75792E-03 10080   0.559E-01-0.341E-02
CGA:  14    -0.353876226897E+03   -0.14853E-02   -0.18320E-02 10080   0.432E-03-0.562E-03
CGA:  15    -0.353876263614E+03   -0.36717E-04   -0.30947E-04 10080   0.773E-03-0.687E-04
CGA:  16    -0.353876327263E+03   -0.63649E-04   -0.58154E-04 10080   0.137E-03-0.848E-04
CGA:  17    -0.353876324273E+03    0.29897E-05   -0.26296E-05 10080   0.491E-04 0.431E-04
  31 F= -.35387632E+03 E0= -.35387018E+03  d E =-.277091E-02  mag=    10.0000
       N       E                     dE             d eps       ncg     rms          ort
SDA:   1    -0.353759903700E+03    0.11642E+00    0.00000E+00 10080   0.322E+00 0.000E+00
CGA:   2    -0.353822825959E+03   -0.62922E-01   -0.62792E-01 10080   0.686E+00 0.423E-03
CGA:   3    -0.353852069527E+03   -0.29244E-01   -0.28159E-01 10080   0.133E+00 0.234E-01
CGA:   4    -0.353860712618E+03   -0.86431E-02   -0.89231E-02 10080   0.129E+00 0.199E-02
CGA:   5    -0.353873754351E+03   -0.13042E-01   -0.13027E-01 10080   0.251E-01-0.910E-03
CGA:   6    -0.353875147774E+03   -0.13934E-02   -0.13078E-02 10080   0.142E-01-0.167E-02
CGA:   7    -0.353876822019E+03   -0.16742E-02   -0.16751E-02 10080   0.270E-02 0.896E-03
CGA:   8    -0.353877003803E+03   -0.18178E-03   -0.17528E-03 10080   0.386E-02-0.115E-03
CGA:   9    -0.353877420134E+03   -0.41633E-03   -0.41478E-03 10080   0.893E-03-0.133E-03
CGA:  10    -0.353877440389E+03   -0.20255E-04   -0.41520E-04 10080   0.584E-03 0.278E-03
CGA:  11    -0.353877527532E+03   -0.87142E-04   -0.88004E-04 10080   0.974E-03 0.172E-03
CGA:  12    -0.353877626243E+03   -0.98711E-04   -0.86175E-04 10080   0.435E-03-0.250E-03
CGA:  13    -0.353877641127E+03   -0.14884E-04   -0.18577E-04 10080   0.287E-03 0.610E-04
CGA:  14    -0.353877655917E+03   -0.14791E-04   -0.22049E-04 10080   0.199E-03 0.155E-03
CGA:  15    -0.353877706698E+03   -0.50780E-04    0.79846E-04 10080   0.470E-03-0.786E-04
CGA:  16    -0.353877727694E+03   -0.20997E-04   -0.21510E-04 10080   0.378E-03 0.140E-04
CGA:  17    -0.353877723229E+03    0.44657E-05   -0.78691E-05 10080   0.970E-04 0.136E-03
  32 F= -.35387772E+03 E0= -.35387158E+03  d E =-.139896E-02  mag=    10.0000
       N       E                     dE             d eps       ncg     rms          ort
SDA:   1    -0.353832087989E+03    0.45640E-01    0.00000E+00 10080   0.123E+00 0.000E+00
CGA:   2    -0.353855731332E+03   -0.23643E-01   -0.23424E-01 10080   0.315E+00 0.217E-02
CGA:   3    -0.353867816728E+03   -0.12085E-01   -0.12087E-01 10080   0.398E-01-0.222E-02
CGA:   4    -0.353872830666E+03   -0.50139E-02   -0.50466E-02 10080   0.689E-01-0.136E-02
CGA:   5    -0.353876099181E+03   -0.32685E-02   -0.33103E-02 10080   0.525E-02 0.622E-03
CGA:   6    -0.353876437355E+03   -0.33817E-03   -0.35869E-03 10080   0.597E-02 0.612E-03
CGA:   7    -0.353877045093E+03   -0.60774E-03   -0.60548E-03 10080   0.195E-02-0.290E-03
CGA:   8    -0.353877140878E+03   -0.95785E-04   -0.84021E-04 10080   0.925E-03-0.240E-03
CGA:   9    -0.353877238271E+03   -0.97393E-04   -0.99323E-04 10080   0.121E-02-0.754E-04
CGA:  10    -0.353877275953E+03   -0.37683E-04   -0.44546E-04 10080   0.133E-03 0.118E-03
CGA:  11    -0.353877274235E+03    0.17187E-05   -0.15237E-04 10080   0.150E-02-0.187E-03
CGA:  12    -0.353877314590E+03   -0.40356E-04   -0.47779E-04 10080   0.187E-03 0.529E-04
CGA:  13    -0.353877360369E+03   -0.45779E-04   -0.47304E-04 10080   0.932E-04-0.194E-04
CGA:  14    -0.353877359621E+03    0.74819E-06   -0.20115E-05 10080   0.204E-04 0.188E-04
  33 F= -.35387736E+03 E0= -.35387122E+03  d E =0.363608E-03  mag=    10.0000
       N       E                     dE             d eps       ncg     rms          ort
SDA:   1    -0.353858816838E+03    0.18544E-01    0.00000E+00 10080   0.645E-01 0.000E+00
CGA:   2    -0.353863939324E+03   -0.51225E-02   -0.51863E-02 10080   0.887E-01 0.128E-02
CGA:   3    -0.353871392384E+03   -0.74531E-02   -0.74842E-02 10080   0.433E-01-0.767E-04
CGA:   4    -0.353873269388E+03   -0.18770E-02   -0.18704E-02 10080   0.187E-01-0.173E-02
CGA:   5    -0.353875647833E+03   -0.23784E-02   -0.23754E-02 10080   0.118E-01-0.326E-03
CGA:   6    -0.353876019969E+03   -0.37214E-03   -0.44093E-03 10080   0.186E-02 0.758E-03
CGA:   7    -0.353876303271E+03   -0.28330E-03   -0.28355E-03 10080   0.349E-02-0.426E-04
CGA:   8    -0.353876454450E+03   -0.15118E-03   -0.13482E-03 10080   0.337E-03-0.179E-03
CGA:   9    -0.353876512183E+03   -0.57734E-04   -0.62610E-04 10080   0.112E-02-0.779E-04
CGA:  10    -0.353876539805E+03   -0.27622E-04   -0.32267E-04 10080   0.239E-03 0.465E-04
CGA:  11    -0.353876544594E+03   -0.47883E-05   -0.72252E-05 10080   0.121E-03 0.235E-04
CGA:  12    -0.353876560134E+03   -0.15540E-04   -0.15490E-04 10080   0.389E-03-0.616E-05
CGA:  13    -0.353876579401E+03   -0.19268E-04   -0.16460E-04 10080   0.143E-03-0.354E-04
CGA:  14    -0.353876582315E+03   -0.29139E-05   -0.30574E-05 10080   0.533E-04 0.117E-05
  34 F= -.35387658E+03 E0= -.35387043E+03  d E =0.777306E-03  mag=    10.0000
       N       E                     dE             d eps       ncg     rms          ort
SDA:   1    -0.353872107148E+03    0.44723E-02    0.00000E+00 10080   0.947E-01 0.000E+00
CGA:   2    -0.353874733947E+03   -0.26268E-02   -0.25653E-02 10080   0.604E-02 0.240E-02
CGA:   3    -0.353875217058E+03   -0.48311E-03   -0.48824E-03 10080   0.104E-01 0.157E-03
CGA:   4    -0.353876229700E+03   -0.10126E-02   -0.10165E-02 10080   0.196E-02 0.334E-03
CGA:   5    -0.353876444962E+03   -0.21526E-03   -0.21521E-03 10080   0.438E-02-0.102E-02
CGA:   6    -0.353876530009E+03   -0.85047E-04   -0.13266E-03 10080   0.365E-03 0.590E-03
CGA:   7    -0.353876545279E+03   -0.15271E-04   -0.23346E-04 10080   0.340E-03 0.174E-03
CGA:   8    -0.353876612366E+03   -0.67086E-04   -0.97336E-04 10080   0.359E-03-0.324E-03
CGA:   9    -0.353876619261E+03   -0.68949E-05   -0.15108E-04 10080   0.168E-03 0.129E-03
CGA:  10    -0.353876637939E+03   -0.18679E-04   -0.19674E-04 10080   0.905E-04 0.638E-04
CGA:  11    -0.353876637152E+03    0.78714E-06   -0.22015E-04 10080   0.112E-02-0.305E-03
CGA:  12    -0.353876651086E+03   -0.13934E-04   -0.28492E-04 10080   0.891E-04 0.181E-03
CGA:  13    -0.353876648813E+03    0.22731E-05   -0.21587E-05 10080   0.406E-04 0.551E-04
  35 F= -.35387665E+03 E0= -.35387051E+03  d E =-.664972E-04  mag=    10.0000
       N       E                     dE             d eps       ncg     rms          ort
SDA:   1    -0.353863264404E+03    0.13387E-01    0.00000E+00 10080   0.585E-01 0.000E+00
CGA:   2    -0.353865788348E+03   -0.25239E-02   -0.25812E-02 10080   0.508E-01 0.107E-02
CGA:   3    -0.353873618133E+03   -0.78298E-02   -0.77296E-02 10080   0.162E-01 0.173E-02
CGA:   4    -0.353874860021E+03   -0.12419E-02   -0.11696E-02 10080   0.137E-01-0.278E-02
CGA:   5    -0.353876113872E+03   -0.12539E-02   -0.12503E-02 10080   0.235E-02 0.215E-03
CGA:   6    -0.353876194463E+03   -0.80591E-04   -0.92942E-04 10080   0.133E-02 0.218E-03
CGA:   7    -0.353876367844E+03   -0.17338E-03   -0.16943E-03 10080   0.661E-03 0.160E-03
CGA:   8    -0.353876436859E+03   -0.69016E-04   -0.67036E-04 10080   0.135E-02-0.672E-03
CGA:   9    -0.353876450678E+03   -0.13819E-04   -0.35893E-04 10080   0.145E-03 0.322E-03
CGA:  10    -0.353876449242E+03    0.14357E-05   -0.46025E-05 10080   0.880E-04 0.934E-04
CGA:  11    -0.353876466276E+03   -0.17034E-04    0.33065E-04 10080   0.573E-04 0.541E-04
CGA:  12    -0.353876466808E+03   -0.53137E-06   -0.22790E-05 10080   0.398E-04 0.371E-04
CGA:  13    -0.353876473842E+03   -0.70340E-05    0.34655E-04 10080   0.381E-04 0.268E-04
  36 F= -.35387647E+03 E0= -.35387034E+03  d E =0.174971E-03  mag=    10.0000
       N       E                     dE             d eps       ncg     rms          ort
SDA:   1    -0.353873701896E+03    0.27649E-02    0.00000E+00 10080   0.307E-01 0.000E+00
CGA:   2    -0.353874594527E+03   -0.89263E-03   -0.89966E-03 10080   0.842E-02 0.196E-03
CGA:   3    -0.353875961875E+03   -0.13673E-02   -0.13897E-02 10080   0.745E-02-0.276E-03
CGA:   4    -0.353876288546E+03   -0.32667E-03   -0.32743E-03 10080   0.273E-02-0.333E-05
CGA:   5    -0.353876777195E+03   -0.48865E-03   -0.52123E-03 10080   0.111E-02-0.301E-03
CGA:   6    -0.353876787965E+03   -0.10770E-04   -0.28957E-04 10080   0.364E-03 0.310E-03
CGA:   7    -0.353876797874E+03   -0.99090E-05   -0.19312E-04 10080   0.298E-03 0.218E-03
CGA:   8    -0.353876847292E+03   -0.49418E-04    0.23893E-02 10080   0.484E-03-0.964E-04
CGA:   9    -0.353876865469E+03   -0.18177E-04   -0.18999E-04 10080   0.285E-03 0.332E-04
CGA:  10    -0.353876861506E+03    0.39635E-05   -0.52783E-05 10080   0.897E-04 0.144E-03
  37 F= -.35387686E+03 E0= -.35387074E+03  d E =-.387664E-03  mag=    10.0000
       N       E                     dE             d eps       ncg     rms          ort
SDA:   1    -0.353873473462E+03    0.33920E-02    0.00000E+00 10080   0.290E-01 0.000E+00
CGA:   2    -0.353874829290E+03   -0.13558E-02   -0.12524E-02 10080   0.889E-02-0.339E-02
CGA:   3    -0.353875934569E+03   -0.11053E-02   -0.11017E-02 10080   0.169E-01 0.332E-04
CGA:   4    -0.353876579570E+03   -0.64500E-03   -0.67127E-03 10080   0.168E-02 0.687E-03
CGA:   5    -0.353876742544E+03   -0.16297E-03   -0.27774E-03 10080   0.778E-02-0.137E-02
CGA:   6    -0.353876884855E+03   -0.14231E-03   -0.19849E-03 10080   0.401E-03 0.104E-02
CGA:   7    -0.353876883191E+03    0.16633E-05   -0.98348E-05 10080   0.159E-03 0.209E-03
CGA:   8    -0.353876896057E+03   -0.12866E-04   -0.12411E-04 10080   0.132E-03 0.104E-03
CGA:   9    -0.353876907832E+03   -0.11775E-04   -0.19232E-04 10080   0.934E-03-0.105E-03
CGA:  10    -0.353876925154E+03   -0.17322E-04   -0.21123E-04 10080   0.569E-04 0.663E-04
CGA:  11    -0.353876924356E+03    0.79761E-06   -0.14755E-05 10080   0.447E-04 0.450E-04
  38 F= -.35387692E+03 E0= -.35387079E+03  d E =-.628505E-04  mag=    10.0000
       N       E                     dE             d eps       ncg     rms          ort
SDA:   1    -0.353871947359E+03    0.49778E-02    0.00000E+00 10080   0.489E-01 0.000E+00
CGA:   2    -0.353873235424E+03   -0.12881E-02   -0.13328E-02 10080   0.111E-01 0.972E-03
CGA:   3    -0.353875375901E+03   -0.21405E-02   -0.19571E-02 10080   0.697E-02 0.177E-02
CGA:   4    -0.353875949475E+03   -0.57357E-03   -0.56164E-03 10080   0.695E-02-0.227E-02
CGA:   5    -0.353876293600E+03   -0.34413E-03   -0.34415E-03 10080   0.530E-02 0.922E-05
CGA:   6    -0.353876423449E+03   -0.12985E-03   -0.16481E-03 10080   0.674E-03 0.791E-03
CGA:   7    -0.353876464386E+03   -0.40937E-04   -0.42579E-04 10080   0.957E-03 0.922E-04
CGA:   8    -0.353876573951E+03   -0.10956E-03   -0.13057E-03 10080   0.245E-03-0.433E-03
CGA:   9    -0.353876538688E+03    0.35263E-04   -0.25432E-04 10080   0.293E-02-0.529E-03
CGA:  10    -0.353876600446E+03   -0.61758E-04   -0.77643E-04 10080   0.179E-03 0.295E-03
CGA:  11    -0.353876599911E+03    0.53490E-06   -0.49035E-05 10080   0.906E-04 0.104E-03
  39 F= -.35387660E+03 E0= -.35387047E+03  d E =0.324446E-03  mag=    10.0000
       N       E                     dE             d eps       ncg     rms          ort
SDA:   1    -0.350895152606E+03    0.29814E+01    0.00000E+00 10080   0.823E+01 0.000E+00
CGA:   2    -0.352368807967E+03   -0.14737E+01   -0.14242E+01 10080   0.161E+02 0.554E+00
CGA:   3    -0.353192549105E+03   -0.82374E+00   -0.82752E+00 10080   0.528E+01-0.649E+00
CGA:   4    -0.353434925460E+03   -0.24238E+00   -0.25768E+00 10080   0.275E+01-0.131E+00
CGA:   5    -0.353731509807E+03   -0.29658E+00   -0.29333E+00 10080   0.122E+01 0.780E-01
CGA:   6    -0.353785279642E+03   -0.53770E-01   -0.53893E-01 10080   0.507E+00-0.223E-01
CGA:   7    -0.353811778401E+03   -0.26499E-01   -0.26823E-01 10080   0.316E+00-0.906E-02
CGA:   8    -0.353837333326E+03   -0.25555E-01   -0.25466E-01 10080   0.133E+00 0.117E-01
CGA:   9    -0.353843557309E+03   -0.62240E-02   -0.62129E-02 10080   0.779E-01-0.315E-02
CGA:  10    -0.353848578274E+03   -0.50210E-02   -0.49983E-02 10080   0.600E-01-0.381E-02
CGA:  11    -0.353852835202E+03   -0.42569E-02   -0.42555E-02 10080   0.262E-01 0.348E-02
CGA:  12    -0.353854122354E+03   -0.12872E-02   -0.12965E-02 10080   0.189E-01 0.812E-04
CGA:  13    -0.353856000444E+03   -0.18781E-02   -0.19394E-02 10080   0.283E-01-0.223E-02
CGA:  14    -0.353857639139E+03   -0.16387E-02   -0.16388E-02 10080   0.957E-02-0.639E-04
CGA:  15    -0.353858020817E+03   -0.38168E-03   -0.41065E-03 10080   0.627E-02 0.947E-03
CGA:  16    -0.353858826942E+03   -0.80612E-03   -0.79532E-03 10080   0.137E-01 0.235E-03
CGA:  17    -0.353859957883E+03   -0.11309E-02   -0.11459E-02 10080   0.474E-02-0.256E-02
CGA:  18    -0.353860073433E+03   -0.11555E-03   -0.13046E-03 10080   0.221E-02 0.364E-03
CGA:  19    -0.353860207766E+03   -0.13433E-03   -0.14421E-03 10080   0.245E-02 0.809E-03
CGA:  20    -0.353860541034E+03   -0.33327E-03   -0.34543E-03 10080   0.523E-02-0.408E-03
CGA:  21    -0.353860709618E+03   -0.16858E-03   -0.14650E-03 10080   0.151E-02-0.558E-03
CGA:  22    -0.353860734237E+03   -0.24619E-04   -0.28684E-04 10080   0.712E-03 0.772E-04
CGA:  23    -0.353860750990E+03   -0.16752E-04   -0.26326E-04 10080   0.968E-03 0.280E-03
CGA:  24    -0.353860814629E+03   -0.63640E-04   -0.70116E-04 10080   0.103E-02 0.415E-03
CGA:  25    -0.353860928866E+03   -0.11424E-03   -0.13695E-03 10080   0.232E-02-0.879E-03
CGA:  26    -0.353860977994E+03   -0.49128E-04   -0.54980E-04 10080   0.189E-03 0.124E-03
CGA:  27    -0.353860987557E+03   -0.95632E-05   -0.10983E-04 10080   0.164E-03 0.134E-03
CGA:  28    -0.353860969440E+03    0.18117E-04   -0.39421E-04 10080   0.342E-02-0.333E-03
CGA:  29    -0.353861035634E+03   -0.66194E-04   -0.77583E-04 10080   0.949E-04 0.220E-03
CGA:  30    -0.353861034015E+03    0.16190E-05   -0.17460E-05 10080   0.489E-04 0.619E-04
  40 F= -.35386103E+03 E0= -.35385491E+03  d E =0.155659E-01  mag=    10.0000
       N       E                     dE             d eps       ncg     rms          ort
SDA:   1    -0.352596604514E+03    0.12644E+01    0.00000E+00 10080   0.357E+01 0.000E+00
CGA:   2    -0.353254829098E+03   -0.65822E+00   -0.65780E+00 10080   0.653E+01 0.163E-01
CGA:   3    -0.353620652991E+03   -0.36582E+00   -0.36307E+00 10080   0.957E+00-0.140E-01
CGA:   4    -0.353826553553E+03   -0.20590E+00   -0.20603E+00 10080   0.225E+00-0.138E-02
CGA:   5    -0.353841255139E+03   -0.14702E-01   -0.14822E-01 10080   0.211E+00 0.743E-02
CGA:   6    -0.353858361494E+03   -0.17106E-01   -0.17106E-01 10080   0.123E+00 0.209E-03
CGA:   7    -0.353863258766E+03   -0.48973E-02   -0.48649E-02 10080   0.241E-01-0.422E-02
CGA:   8    -0.353867212661E+03   -0.39539E-02   -0.38661E-02 10080   0.261E-01 0.923E-03
CGA:   9    -0.353868441098E+03   -0.12284E-02   -0.12388E-02 10080   0.791E-02 0.158E-03
CGA:  10    -0.353869295902E+03   -0.85480E-03   -0.88782E-03 10080   0.177E-01-0.105E-02
CGA:  11    -0.353870287750E+03   -0.99185E-03   -0.99605E-03 10080   0.410E-02 0.242E-03
CGA:  12    -0.353870466146E+03   -0.17840E-03   -0.20736E-03 10080   0.280E-02 0.965E-03
CGA:  13    -0.353871011174E+03   -0.54503E-03   -0.52935E-03 10080   0.764E-02 0.201E-03
CGA:  14    -0.353871385172E+03   -0.37400E-03   -0.35553E-03 10080   0.955E-03-0.504E-03
CGA:  15    -0.353871604985E+03   -0.21981E-03   -0.19744E-03 10080   0.245E-02 0.157E-03
CGA:  16    -0.353871720547E+03   -0.11556E-03   -0.11545E-03 10080   0.543E-03-0.174E-04
CGA:  17    -0.353871780586E+03   -0.60039E-04   -0.62198E-04 10080   0.106E-02-0.730E-04
CGA:  18    -0.353871835359E+03   -0.54773E-04   -0.55875E-04 10080   0.177E-03 0.400E-04
CGA:  19    -0.353871843581E+03   -0.82226E-05   -0.11115E-04 10080   0.127E-03 0.118E-03
CGA:  20    -0.353871870174E+03   -0.26592E-04    0.21654E-04 10080   0.139E-03 0.592E-04
CGA:  21    -0.353871884528E+03   -0.14354E-04   -0.15164E-04 10080   0.791E-04 0.874E-04
CGA:  22    -0.353871886557E+03   -0.20289E-05   -0.27894E-05 10080   0.511E-04 0.154E-04
  41 F= -.35387189E+03 E0= -.35386581E+03  d E =-.108525E-01  mag=    10.0000
       N       E                     dE             d eps       ncg     rms          ort
SDA:   1    -0.351862054576E+03    0.20098E+01    0.00000E+00 10080   0.589E+01 0.000E+00
CGA:   2    -0.352691684199E+03   -0.82963E+00   -0.81279E+00 10080   0.131E+02 0.301E+00
CGA:   3    -0.353403712395E+03   -0.71203E+00   -0.70533E+00 10080   0.236E+01-0.209E+00
CGA:   4    -0.353552342310E+03   -0.14863E+00   -0.14864E+00 10080   0.210E+01 0.615E-02
CGA:   5    -0.353766609654E+03   -0.21427E+00   -0.21462E+00 10080   0.446E+00-0.131E-01
CGA:   6    -0.353788401918E+03   -0.21792E-01   -0.22264E-01 10080   0.271E+00-0.569E-02
CGA:   7    -0.353814940103E+03   -0.26538E-01   -0.26498E-01 10080   0.240E+00 0.147E-02
CGA:   8    -0.353825388386E+03   -0.10448E-01   -0.10429E-01 10080   0.359E-01 0.114E-02
CGA:   9    -0.353830482053E+03   -0.50937E-02   -0.50902E-02 10080   0.632E-01-0.450E-04
CGA:  10    -0.353834124699E+03   -0.36426E-02   -0.36336E-02 10080   0.173E-01-0.529E-03
CGA:  11    -0.353835028648E+03   -0.90395E-03   -0.91800E-03 10080   0.130E-01 0.497E-03
CGA:  12    -0.353837135433E+03   -0.21068E-02   -0.20780E-02 10080   0.114E-01 0.375E-03
CGA:  13    -0.353837802419E+03   -0.66699E-03   -0.64651E-03 10080   0.533E-02-0.746E-03
CGA:  14    -0.353838359819E+03   -0.55740E-03   -0.55240E-03 10080   0.826E-02 0.165E-03
CGA:  15    -0.353838866907E+03   -0.50709E-03   -0.51331E-03 10080   0.309E-02 0.234E-03
CGA:  16    -0.353839158314E+03   -0.29141E-03   -0.30016E-03 10080   0.444E-02-0.796E-03
CGA:  17    -0.353839415876E+03   -0.25756E-03   -0.25843E-03 10080   0.111E-02 0.154E-03
CGA:  18    -0.353839456078E+03   -0.40202E-04   -0.50061E-04 10080   0.663E-03 0.244E-03
CGA:  19    -0.353839656582E+03   -0.20050E-03   -0.18740E-03 10080   0.378E-03 0.876E-04
CGA:  20    -0.353838129493E+03    0.15271E-02   -0.84039E-03 10080   0.619E-01-0.363E-02
CGA:  21    -0.353839678562E+03   -0.15491E-02   -0.16949E-02 10080   0.218E-02 0.420E-02
CGA:  22    -0.353839698915E+03   -0.20353E-04   -0.65166E-04 10080   0.381E-03 0.321E-03
CGA:  23    -0.353839736285E+03   -0.37370E-04   -0.45107E-04 10080   0.670E-03 0.166E-03
CGA:  24    -0.353839842050E+03   -0.10577E-03   -0.91948E-04 10080   0.668E-03-0.270E-03
CGA:  25    -0.353839850599E+03   -0.85494E-05   -0.91359E-05 10080   0.200E-03 0.343E-05
  42 F= -.35383985E+03 E0= -.35383357E+03  d E =0.320360E-01  mag=    10.0000
       N       E                     dE             d eps       ncg     rms          ort
SDA:   1    -0.352614563081E+03    0.12253E+01    0.00000E+00 10080   0.370E+01 0.000E+00
CGA:   2    -0.353179722548E+03   -0.56516E+00   -0.56282E+00 10080   0.904E+01 0.710E-01
CGA:   3    -0.353601898909E+03   -0.42218E+00   -0.43649E+00 10080   0.132E+01-0.479E+00
CGA:   4    -0.353705269909E+03   -0.10337E+00   -0.10096E+00 10080   0.162E+01 0.150E-02
CGA:   5    -0.353826345895E+03   -0.12108E+00   -0.12220E+00 10080   0.302E+00-0.639E-02
CGA:   6    -0.353840211666E+03   -0.13866E-01   -0.14288E-01 10080   0.190E+00-0.117E-01
CGA:   7    -0.353860445718E+03   -0.20234E-01   -0.20222E-01 10080   0.125E+00-0.180E-02
CGA:   8    -0.353865447564E+03   -0.50018E-02   -0.51543E-02 10080   0.242E-01 0.300E-02
CGA:   9    -0.353868828925E+03   -0.33814E-02   -0.33821E-02 10080   0.527E-01-0.115E-03
CGA:  10    -0.353871464355E+03   -0.26354E-02   -0.26259E-02 10080   0.687E-02-0.479E-03
CGA:  11    -0.353872353286E+03   -0.88893E-03   -0.88064E-03 10080   0.145E-01 0.508E-03
CGA:  12    -0.353873512801E+03   -0.11595E-02   -0.11474E-02 10080   0.613E-02-0.351E-03
CGA:  13    -0.353873861522E+03   -0.34872E-03   -0.32034E-03 10080   0.383E-02-0.526E-03
CGA:  14    -0.353874322731E+03   -0.46121E-03   -0.45548E-03 10080   0.373E-02 0.270E-03
CGA:  15    -0.353874556485E+03   -0.23375E-03   -0.23035E-03 10080   0.208E-02-0.824E-04
CGA:  16    -0.353874741462E+03   -0.18498E-03   -0.18362E-03 10080   0.212E-02-0.880E-04
CGA:  17    -0.353874863258E+03   -0.12180E-03   -0.12469E-03 10080   0.731E-03 0.551E-04
CGA:  18    -0.353874920463E+03   -0.57205E-04   -0.59369E-04 10080   0.668E-03 0.834E-04
CGA:  19    -0.353875006201E+03   -0.85738E-04   -0.86617E-04 10080   0.106E-02-0.704E-04
CGA:  20    -0.353875050602E+03   -0.44401E-04   -0.45887E-04 10080   0.191E-03 0.228E-04
CGA:  21    -0.353875064905E+03   -0.14303E-04   -0.15623E-04 10080   0.188E-03 0.615E-04
CGA:  22    -0.353875109661E+03   -0.44756E-04   -0.45501E-04 10080   0.322E-03-0.917E-05
CGA:  23    -0.353875125310E+03   -0.15649E-04   -0.14462E-04 10080   0.111E-03-0.214E-04
CGA:  24    -0.353875129853E+03   -0.45433E-05   -0.55557E-05 10080   0.939E-04 0.208E-04
  43 F= -.35387513E+03 E0= -.35386901E+03  d E =-.352793E-01  mag=    10.0000
       N       E                     dE             d eps       ncg     rms          ort
SDA:   1    -0.353828347457E+03    0.46778E-01    0.00000E+00 10080   0.151E+00 0.000E+00
CGA:   2    -0.353838389762E+03   -0.10042E-01   -0.10120E-01 10080   0.219E+00 0.853E-03
CGA:   3    -0.353862039704E+03   -0.23650E-01   -0.23641E-01 10080   0.105E+00 0.582E-03
CGA:   4    -0.353866222480E+03   -0.41828E-02   -0.41825E-02 10080   0.308E-01-0.298E-02
CGA:   5    -0.353871727973E+03   -0.55055E-02   -0.54405E-02 10080   0.855E-02 0.733E-03
CGA:   6    -0.353872149573E+03   -0.42160E-03   -0.42487E-03 10080   0.543E-02 0.483E-04
CGA:   7    -0.353872759076E+03   -0.60950E-03   -0.60805E-03 10080   0.591E-02 0.850E-04
CGA:   8    -0.353873029482E+03   -0.27041E-03   -0.25850E-03 10080   0.931E-03-0.270E-03
CGA:   9    -0.353873161130E+03   -0.13165E-03   -0.14739E-03 10080   0.273E-02-0.222E-03
CGA:  10    -0.353873257079E+03   -0.95949E-04   -0.10176E-03 10080   0.573E-03 0.116E-03
CGA:  11    -0.353873269838E+03   -0.12759E-04   -0.19428E-04 10080   0.264E-03 0.106E-03
CGA:  12    -0.353873299896E+03   -0.30057E-04   -0.29858E-04 10080   0.570E-03 0.647E-04
CGA:  13    -0.353873350145E+03   -0.50249E-04   -0.46865E-04 10080   0.953E-04-0.130E-03
CGA:  14    -0.353873357943E+03   -0.77986E-05   -0.74780E-05 10080   0.887E-04 0.303E-04
CGA:  15    -0.353873370442E+03   -0.12499E-04   -0.13113E-04 10080   0.235E-03-0.302E-04
CGA:  16    -0.353873377809E+03   -0.73669E-05   -0.56315E-05 10080   0.961E-04-0.311E-04
  44 F= -.35387338E+03 E0= -.35386725E+03  d E =0.175204E-02  mag=    10.0000
       N       E                     dE             d eps       ncg     rms          ort
SDA:   1    -0.353848405011E+03    0.24965E-01    0.00000E+00 10080   0.863E-01 0.000E+00
CGA:   2    -0.353856645622E+03   -0.82406E-02   -0.82484E-02 10080   0.148E+00-0.138E-02
CGA:   3    -0.353870600933E+03   -0.13955E-01   -0.13948E-01 10080   0.263E-01 0.806E-03
CGA:   4    -0.353872179420E+03   -0.15785E-02   -0.15852E-02 10080   0.322E-01 0.731E-04
CGA:   5    -0.353875206964E+03   -0.30275E-02   -0.30258E-02 10080   0.300E-02 0.186E-03
CGA:   6    -0.353875579265E+03   -0.37230E-03   -0.38369E-03 10080   0.673E-02-0.284E-03
CGA:   7    -0.353875869644E+03   -0.29038E-03   -0.30132E-03 10080   0.989E-03 0.272E-03
CGA:   8    -0.353875902841E+03   -0.33197E-04   -0.39819E-04 10080   0.533E-03 0.139E-03
CGA:   9    -0.353876000108E+03   -0.97267E-04   -0.97604E-04 10080   0.950E-03-0.487E-05
CGA:  10    -0.353876034947E+03   -0.34839E-04   -0.30841E-04 10080   0.163E-03-0.743E-04
CGA:  11    -0.353875971943E+03    0.63004E-04   -0.39154E-04 10080   0.366E-02-0.305E-03
CGA:  12    -0.353876054512E+03   -0.82569E-04   -0.10196E-03 10080   0.198E-03 0.154E-03
CGA:  13    -0.353876062808E+03   -0.82966E-05   -0.12944E-04 10080   0.204E-03 0.538E-04
CGA:  14    -0.353876092354E+03   -0.29546E-04   -0.28087E-04 10080   0.764E-04-0.410E-04
CGA:  15    -0.353876093670E+03   -0.13159E-05   -0.20973E-05 10080   0.228E-04 0.698E-05
  45 F= -.35387609E+03 E0= -.35386997E+03  d E =-.271586E-02  mag=    10.0000
       N       E                     dE             d eps       ncg     rms          ort
SDA:   1    -0.353872845057E+03    0.32473E-02    0.00000E+00 10080   0.347E-01 0.000E+00
CGA:   2    -0.353873898192E+03   -0.10531E-02   -0.10887E-02 10080   0.595E-02 0.101E-02
CGA:   3    -0.353874845051E+03   -0.94686E-03   -0.94165E-03 10080   0.135E-01 0.194E-03
CGA:   4    -0.353875435258E+03   -0.59021E-03   -0.58517E-03 10080   0.140E-02-0.393E-04
CGA:   5    -0.353875741010E+03   -0.30575E-03   -0.33669E-03 10080   0.199E-02-0.268E-03
CGA:   6    -0.353875775856E+03   -0.34846E-04   -0.40335E-04 10080   0.299E-03 0.462E-04
CGA:   7    -0.353875784987E+03   -0.91310E-05   -0.13513E-04 10080   0.329E-03 0.529E-04
CGA:   8    -0.353875812285E+03   -0.27298E-04   -0.28501E-04 10080   0.208E-03 0.245E-04
CGA:   9    -0.353875825633E+03   -0.13348E-04   -0.92819E-05 10080   0.615E-04-0.528E-04
CGA:  10    -0.353875829094E+03   -0.34604E-05   -0.36912E-05 10080   0.676E-04 0.641E-05
  46 F= -.35387583E+03 E0= -.35386971E+03  d E =0.264577E-03  mag=    10.0000
