       N       E                     dE             d eps       ncg     rms          ort
DAV:   1     0.250487951362E+04    0.25049E+04   -0.15702E+05 11088   0.158E+03
DAV:   2    -0.179395194116E+03   -0.26843E+04   -0.25336E+04 11088   0.426E+02
DAV:   3    -0.428654823781E+03   -0.24926E+03   -0.24349E+03 11088   0.147E+02
DAV:   4    -0.436823326820E+03   -0.81685E+01   -0.78719E+01 11088   0.271E+01
DAV:   5    -0.437255359948E+03   -0.43203E+00   -0.42458E+00 11088   0.463E+00
SDA:   6    -0.147088190522E+03    0.29017E+03   -0.42458E+00 11088   0.463E+04 0.000E+00
CGA:   7    -0.165471305552E+03   -0.18383E+02   -0.43449E+03 11088   0.153E+04-0.519E+03
CGA:   8    -0.268181241592E+03   -0.10271E+03   -0.49803E+02 11088   0.321E+04-0.551E+04
CGA:   9    -0.189208478191E+03    0.78973E+02   -0.25998E+03 11088   0.200E+04-0.901E+03
CGA:  10    -0.306867714754E+03   -0.11766E+03   -0.53038E+02 11088   0.174E+04 0.422E+04
CGA:  11    -0.307191335673E+03   -0.32362E+00   -0.12371E+03 11088   0.952E+03 0.107E+02
CGA:  12    -0.291635196821E+03    0.15556E+02   -0.57553E+02 11088   0.427E+03-0.635E+02
CGA:  13    -0.313896121636E+03   -0.22261E+02   -0.15807E+02 11088   0.117E+03 0.145E+01
CGA:  14    -0.322744908527E+03   -0.88488E+01   -0.22489E+01 11088   0.108E+03-0.203E+03
CGA:  15    -0.323339163673E+03   -0.59426E+00   -0.21029E+01 11088   0.604E+03-0.329E+03
CGA:  16    -0.313920367354E+03    0.94188E+01   -0.36516E+02 11088   0.126E+04-0.292E+03
CGA:  17    -0.318689739945E+03   -0.47694E+01   -0.30148E+02 11088   0.158E+03-0.110E+03
CGA:  18    -0.314100261619E+03    0.45895E+01   -0.51033E+01 11088   0.141E+04-0.439E+03
CGA:  19    -0.318068978089E+03   -0.39687E+01   -0.67295E+02 11088   0.146E+03-0.104E+03
CGA:  20    -0.301412154420E+03    0.16657E+02   -0.57590E+01 11088   0.306E+03-0.653E+02
CGA:  21    -0.327367380605E+03   -0.25955E+02   -0.29483E+01 11088   0.269E+03-0.400E+03
CGA:  22    -0.315779170886E+03    0.11588E+02   -0.12257E+02 11088   0.174E+03-0.501E+02
CGA:  23    -0.319143772407E+03   -0.33646E+01   -0.36469E+01 11088   0.989E+03-0.724E+02
CGA:  24    -0.308459508804E+03    0.10684E+02   -0.13391E+02 11088   0.258E+03-0.496E+03
CGA:  25    -0.317898478317E+03   -0.94390E+01   -0.50601E+01 11088   0.166E+03 0.231E+03
CGA:  26    -0.325390109114E+03   -0.74916E+01   -0.32518E+01 11088   0.169E+03 0.243E+03
CGA:  27    -0.320902969785E+03    0.44871E+01   -0.47351E+01 11088   0.734E+03-0.383E+03
CGA:  28    -0.322157292426E+03   -0.12543E+01   -0.32033E+02 11088   0.134E+03-0.885E+02
CGA:  29    -0.326537435003E+03   -0.43801E+01   -0.28668E+01 11088   0.104E+03 0.877E+01
CGA:  30    -0.328953027631E+03   -0.24156E+01   -0.17299E+01 11088   0.143E+03-0.281E+03
CGA:  31    -0.328045971951E+03    0.90706E+00   -0.42445E+01 11088   0.144E+03-0.116E+03
CGA:  32    -0.329825917715E+03   -0.17799E+01   -0.30159E+01 11088   0.174E+03-0.234E+03
CGA:  33    -0.328230372952E+03    0.15955E+01   -0.54479E+01 11088   0.120E+03-0.792E+02
CGA:  34    -0.330458149561E+03   -0.22278E+01   -0.90158E+00 11088   0.920E+02 0.100E+03
CGA:  35    -0.331327646022E+03   -0.86950E+00   -0.13495E+01 11088   0.414E+02-0.726E+02
CGA:  36    -0.331157276941E+03    0.17037E+00   -0.84666E+00 11088   0.543E+02-0.396E+02
CGA:  37    -0.331703745758E+03   -0.54647E+00   -0.61338E+00 11088   0.450E+01-0.137E+02
CGA:  38    -0.331774949507E+03   -0.71204E-01   -0.76604E-01 11088   0.258E+01-0.253E+00
CGA:  39    -0.331939373744E+03   -0.16442E+00   -0.16423E+00 11088   0.110E+02 0.129E-01
CGA:  40    -0.332185172935E+03   -0.24580E+00   -0.12359E+00 11088   0.193E+01 0.504E+01
CGA:  41    -0.332207760014E+03   -0.22587E-01   -0.40256E-01 11088   0.446E+01-0.123E+01
CGA:  42    -0.332258545503E+03   -0.50785E-01   -0.53356E-01 11088   0.141E+01-0.310E+00
CGA:  43    -0.332450712818E+03   -0.19217E+00   -0.17044E+00 11088   0.530E+01 0.316E+00
CGA:  44    -0.332550935254E+03   -0.10022E+00   -0.54993E-01 11088   0.262E+01 0.529E+01
CGA:  45    -0.332601802147E+03   -0.50867E-01   -0.43199E-01 11088   0.648E+00 0.411E+00
CGA:  46    -0.332630256691E+03   -0.28455E-01   -0.28547E-01 11088   0.125E+01-0.549E-02
CGA:  47    -0.332687008361E+03   -0.56752E-01   -0.16480E+00 11088   0.786E+01-0.130E+01
CGA:  48    -0.332845778898E+03   -0.15877E+00   -0.17170E+00 11088   0.128E+01-0.658E+00
CGA:  49    -0.332909276960E+03   -0.63498E-01   -0.63658E-01 11088   0.124E+01 0.955E-02
CGA:  50    -0.332978703286E+03   -0.69426E-01   -0.69433E-01 11088   0.636E+00 0.818E-01
CGA:  51    -0.333021704151E+03   -0.43001E-01   -0.42282E-01 11088   0.239E+00 0.439E-01
CGA:  52    -0.333055704772E+03   -0.34001E-01   -0.39508E-01 11088   0.778E+00-0.501E-01
CGA:  53    -0.333124339616E+03   -0.68635E-01   -0.82415E-01 11088   0.343E+00-0.211E+00
CGA:  54    -0.333135122701E+03   -0.10783E-01   -0.10495E-01 11088   0.168E+00-0.297E-01
CGA:  55    -0.333148201135E+03   -0.13078E-01   -0.13522E-01 11088   0.568E-01-0.197E-01
CGA:  56    -0.333152959511E+03   -0.47584E-02   -0.10635E-01 11088   0.316E+00-0.378E-01
CGA:  57    -0.333163229965E+03   -0.10270E-01   -0.10484E-01 11088   0.341E-01-0.767E-02
CGA:  58    -0.333167853210E+03   -0.46232E-02   -0.46864E-02 11088   0.307E-01-0.711E-03
CGA:  59    -0.333183376318E+03   -0.15523E-01   -0.63437E-02 11088   0.862E-01 0.729E-01
CGA:  60    -0.333190333376E+03   -0.69571E-02   -0.69562E-02 11088   0.927E-01 0.411E-02
CGA:  61    -0.333224297088E+03   -0.33964E-01   -0.29102E-01 11088   0.379E+00 0.206E-01
CGA:  62    -0.333260482887E+03   -0.36186E-01   -0.55074E-01 11088   0.134E+01-0.439E+00
CGA:  63    -0.333346738612E+03   -0.86256E-01   -0.83095E-01 11088   0.458E+00-0.335E-01
CGA:  64    -0.333393678315E+03   -0.46940E-01   -0.47767E-01 11088   0.205E+00-0.454E-01
CGA:  65    -0.333407901471E+03   -0.14223E-01   -0.14356E-01 11088   0.985E-01-0.624E-03
CGA:  66    -0.333430380221E+03   -0.22479E-01   -0.20413E-01 11088   0.714E-01 0.174E-01
CGA:  67    -0.333450984183E+03   -0.20604E-01   -0.22589E-01 11088   0.297E+00-0.704E-03
CGA:  68    -0.333483727360E+03   -0.32743E-01   -0.37665E-01 11088   0.211E+00-0.113E+00
CGA:  69    -0.333422965148E+03    0.60762E-01   -0.49273E-01 11088   0.327E+00-0.285E+00
CGA:  70    -0.333515623301E+03   -0.92658E-01   -0.86487E-01 11088   0.366E+00 0.237E-01
CGA:  71    -0.333620545897E+03   -0.10492E+00   -0.12305E+00 11088   0.311E+00-0.606E-01
CGA:  72    -0.333656284424E+03   -0.35739E-01   -0.35753E-01 11088   0.129E+00-0.173E-01
CGA:  73    -0.333678521013E+03   -0.22237E-01   -0.22597E-01 11088   0.824E-01-0.780E-02
CGA:  74    -0.333689847362E+03   -0.11326E-01   -0.11287E-01 11088   0.409E-01 0.615E-02
CGA:  75    -0.333697976721E+03   -0.81294E-02   -0.79820E-02 11088   0.332E-01 0.349E-02
CGA:  76    -0.333705242795E+03   -0.72661E-02   -0.82329E-02 11088   0.186E-01-0.111E-01
CGA:  77    -0.333706405597E+03   -0.11628E-02   -0.38360E-02 11088   0.282E-01-0.164E-01
CGA:  78    -0.333710076949E+03   -0.36714E-02   -0.38121E-02 11088   0.546E-02 0.736E-02
CGA:  79    -0.333711326560E+03   -0.12496E-02   -0.12015E-02 11088   0.257E-02 0.228E-02
CGA:  80    -0.333712379888E+03   -0.10533E-02   -0.16447E-02 11088   0.350E-02-0.199E-02
CGA:  81    -0.333712876160E+03   -0.49627E-03   -0.51653E-03 11088   0.838E-03 0.941E-03
CGA:  82    -0.333712647275E+03    0.22889E-03   -0.72416E-03 11088   0.502E-02-0.187E-02
CGA:  83    -0.333713747210E+03   -0.10999E-02   -0.11354E-02 11088   0.227E-02-0.109E-02
CGA:  84    -0.333714019765E+03   -0.27255E-03   -0.25895E-03 11088   0.447E-03-0.274E-03
CGA:  85    -0.333714063063E+03   -0.43299E-04   -0.54160E-04 11088   0.239E-03 0.196E-03
CGA:  86    -0.333714136750E+03   -0.73686E-04   -0.72196E-04 11088   0.222E-03 0.729E-04
CGA:  87    -0.333714321935E+03   -0.18519E-03    0.41078E-04 11088   0.224E-03 0.138E-03
CGA:  88    -0.333714454968E+03   -0.13303E-03    0.38849E-04 11088   0.104E-03 0.776E-04
CGA:  89    -0.333714532101E+03   -0.77133E-04    0.29861E-04 11088   0.864E-04 0.878E-04
CGA:  90    -0.333714629540E+03   -0.97439E-04   -0.14314E-05 11088   0.489E-03-0.216E-04
CGA:  91    -0.333715149230E+03   -0.51969E-03    0.62106E-04 11088   0.501E-03 0.127E-03
CGA:  92    -0.333715752231E+03   -0.60300E-03    0.29591E-03 11088   0.290E-03-0.162E-03
CGA:  93    -0.333715757626E+03   -0.53951E-05   -0.22120E-04 11088   0.116E-03 0.661E-04
   1 F= -.33371576E+03 E0= -.33371545E+03  d E =-.333716E+03  mag=     6.0000
       N       E                     dE             d eps       ncg     rms          ort
SDA:   1    -0.333745897690E+03   -0.30145E-01    0.00000E+00 11088   0.471E-02 0.000E+00
CGA:   2    -0.333747529362E+03   -0.16317E-02   -0.16350E-02 11088   0.187E-02-0.133E-03
CGA:   3    -0.333747781958E+03   -0.25260E-03   -0.29869E-03 11088   0.519E-03 0.289E-03
CGA:   4    -0.333747896945E+03   -0.11499E-03   -0.10756E-03 11088   0.206E-03-0.545E-04
CGA:   5    -0.333747933473E+03   -0.36528E-04   -0.33374E-04 11088   0.937E-04-0.244E-04
CGA:   6    -0.333747931452E+03    0.20210E-05   -0.71782E-05 11088   0.347E-04 0.426E-04
   2 F= -.33374793E+03 E0= -.33374762E+03  d E =-.321738E-01  mag=     6.0000
       N       E                     dE             d eps       ncg     rms          ort
SDA:   1    -0.333273808939E+03    0.47412E+00    0.00000E+00 11088   0.223E+01 0.000E+00
CGA:   2    -0.334068100458E+03   -0.79429E+00   -0.79483E+00 11088   0.699E+00-0.652E-02
CGA:   3    -0.334216379191E+03   -0.14828E+00   -0.14798E+00 11088   0.245E+00-0.247E-02
CGA:   4    -0.334249724600E+03   -0.33345E-01   -0.33570E-01 11088   0.621E-01 0.435E-03
CGA:   5    -0.334261794232E+03   -0.12070E-01   -0.12117E-01 11088   0.237E-01 0.653E-03
CGA:   6    -0.334266350248E+03   -0.45560E-02   -0.45152E-02 11088   0.979E-02-0.496E-03
CGA:   7    -0.334268702083E+03   -0.23518E-02   -0.23488E-02 11088   0.460E-02-0.149E-03
CGA:   8    -0.334269639770E+03   -0.93769E-03   -0.93639E-03 11088   0.218E-02-0.219E-04
CGA:   9    -0.334270115802E+03   -0.47603E-03   -0.46250E-03 11088   0.123E-02-0.278E-03
CGA:  10    -0.334270282785E+03   -0.16698E-03   -0.17103E-03 11088   0.347E-03 0.405E-04
CGA:  11    -0.334270345085E+03   -0.62300E-04   -0.65689E-04 11088   0.103E-03 0.480E-04
CGA:  12    -0.334270407892E+03   -0.62808E-04    0.22271E-03 11088   0.599E-04-0.126E-04
CGA:  13    -0.334270416129E+03   -0.82369E-05   -0.86337E-05 11088   0.269E-04 0.464E-05
CGA:  14    -0.334270424755E+03   -0.86259E-05   -0.10006E-04 11088   0.387E-04-0.140E-04
   3 F= -.33427042E+03 E0= -.33427019E+03  d E =-.522493E+00  mag=     6.0000
       N       E                     dE             d eps       ncg     rms          ort
SDA:   1    -0.332853771477E+03    0.14166E+01    0.00000E+00 11088   0.382E+01 0.000E+00
CGA:   2    -0.334155068203E+03   -0.13013E+01   -0.13013E+01 11088   0.146E+01-0.154E-02
CGA:   3    -0.334411927540E+03   -0.25686E+00   -0.25585E+00 11088   0.583E+00-0.136E-02
CGA:   4    -0.334493983154E+03   -0.82056E-01   -0.82365E-01 11088   0.131E+00-0.703E-03
CGA:   5    -0.334518449082E+03   -0.24466E-01   -0.24489E-01 11088   0.480E-01 0.525E-03
CGA:   6    -0.334527755188E+03   -0.93061E-02   -0.93061E-02 11088   0.175E-01-0.215E-05
CGA:   7    -0.334532024676E+03   -0.42695E-02   -0.42701E-02 11088   0.916E-02-0.215E-03
CGA:   8    -0.334533934043E+03   -0.19094E-02   -0.19080E-02 11088   0.414E-02-0.471E-04
CGA:   9    -0.334534754245E+03   -0.82020E-03   -0.81228E-03 11088   0.212E-02-0.183E-03
CGA:  10    -0.334535119337E+03   -0.36509E-03   -0.36454E-03 11088   0.666E-03-0.937E-05
CGA:  11    -0.334535249952E+03   -0.13062E-03   -0.13209E-03 11088   0.199E-03 0.424E-04
CGA:  12    -0.334535303515E+03   -0.53563E-04   -0.90056E-04 11088   0.474E-03-0.189E-03
CGA:  13    -0.334535335187E+03   -0.31671E-04   -0.41616E-04 11088   0.702E-04 0.652E-04
CGA:  14    -0.334535346987E+03   -0.11800E-04   -0.13118E-04 11088   0.255E-04 0.187E-04
CGA:  15    -0.334535365966E+03   -0.18979E-04    0.13595E-04 11088   0.367E-04-0.109E-04
CGA:  16    -0.334535378434E+03   -0.12468E-04    0.86114E-05 11088   0.454E-04-0.187E-04
CGA:  17    -0.334535377932E+03    0.50181E-06   -0.36066E-05 11088   0.192E-04 0.271E-04
   4 F= -.33453538E+03 E0= -.33453530E+03  d E =-.264953E+00  mag=     6.0000
       N       E                     dE             d eps       ncg     rms          ort
SDA:   1    -0.334386174590E+03    0.14920E+00    0.00000E+00 11088   0.416E+00 0.000E+00
CGA:   2    -0.334503799656E+03   -0.11763E+00   -0.11752E+00 11088   0.229E+00 0.163E-02
CGA:   3    -0.334540696761E+03   -0.36897E-01   -0.36880E-01 11088   0.718E-01-0.286E-03
CGA:   4    -0.334551419422E+03   -0.10723E-01   -0.10728E-01 11088   0.185E-01 0.463E-04
CGA:   5    -0.334554551111E+03   -0.31317E-02   -0.31383E-02 11088   0.582E-02 0.129E-03
CGA:   6    -0.334555690511E+03   -0.11394E-02   -0.11390E-02 11088   0.205E-02-0.213E-04
CGA:   7    -0.334556125190E+03   -0.43468E-03   -0.43484E-03 11088   0.835E-03 0.965E-04
CGA:   8    -0.334556329412E+03   -0.20422E-03   -0.20267E-03 11088   0.317E-03 0.884E-04
CGA:   9    -0.334556430789E+03   -0.10138E-03   -0.10565E-03 11088   0.186E-03-0.494E-04
CGA:  10    -0.334556454262E+03   -0.23473E-04   -0.25492E-04 11088   0.672E-04 0.354E-04
CGA:  11    -0.334556466222E+03   -0.11960E-04   -0.12738E-04 11088   0.208E-04 0.135E-04
CGA:  12    -0.334556469093E+03   -0.28710E-05   -0.14355E-04 11088   0.606E-04-0.320E-04
   5 F= -.33455647E+03 E0= -.33455640E+03  d E =-.210912E-01  mag=     6.0000
       N       E                     dE             d eps       ncg     rms          ort
SDA:   1    -0.334493315862E+03    0.63150E-01    0.00000E+00 11088   0.214E+00 0.000E+00
CGA:   2    -0.334538482082E+03   -0.45166E-01   -0.45179E-01 11088   0.122E+00 0.818E-03
CGA:   3    -0.334560738877E+03   -0.22257E-01   -0.22273E-01 11088   0.438E-01 0.344E-03
CGA:   4    -0.334566943652E+03   -0.62048E-02   -0.62093E-02 11088   0.968E-02 0.415E-04
CGA:   5    -0.334568572966E+03   -0.16293E-02   -0.16249E-02 11088   0.287E-02-0.901E-04
CGA:   6    -0.334569121828E+03   -0.54886E-03   -0.54696E-03 11088   0.100E-02-0.830E-04
CGA:   7    -0.334569308100E+03   -0.18627E-03   -0.18741E-03 11088   0.328E-03 0.524E-04
CGA:   8    -0.334569375001E+03   -0.66901E-04   -0.68089E-04 11088   0.115E-03 0.726E-04
CGA:   9    -0.334569410260E+03   -0.35260E-04   -0.34760E-04 11088   0.529E-04 0.139E-04
CGA:  10    -0.334569426510E+03   -0.16250E-04   -0.16378E-04 11088   0.296E-04-0.210E-05
CGA:  11    -0.334569433350E+03   -0.68398E-05   -0.10984E-04 11088   0.563E-04-0.245E-04
   6 F= -.33456943E+03 E0= -.33456937E+03  d E =-.129643E-01  mag=     6.0000
       N       E                     dE             d eps       ncg     rms          ort
SDA:   1    -0.334451168720E+03    0.11826E+00    0.00000E+00 11088   0.387E+00 0.000E+00
CGA:   2    -0.334523422179E+03   -0.72253E-01   -0.72290E-01 11088   0.199E+00 0.915E-03
CGA:   3    -0.334562118621E+03   -0.38696E-01   -0.38706E-01 11088   0.850E-01 0.385E-03
CGA:   4    -0.334574096892E+03   -0.11978E-01   -0.11988E-01 11088   0.172E-01 0.870E-04
CGA:   5    -0.334576845828E+03   -0.27489E-02   -0.27443E-02 11088   0.469E-02-0.915E-04
CGA:   6    -0.334577758742E+03   -0.91291E-03   -0.91099E-03 11088   0.164E-02-0.135E-03
CGA:   7    -0.334578069807E+03   -0.31107E-03   -0.31148E-03 11088   0.517E-03 0.288E-04
CGA:   8    -0.334578177930E+03   -0.10812E-03   -0.10829E-03 11088   0.179E-03 0.675E-04
CGA:   9    -0.334578233506E+03   -0.55576E-04   -0.56092E-04 11088   0.947E-04-0.757E-05
CGA:  10    -0.334578257423E+03   -0.23917E-04   -0.25843E-04 11088   0.845E-04-0.262E-04
CGA:  11    -0.334578270781E+03   -0.13357E-04   -0.14679E-04 11088   0.846E-04-0.533E-04
CGA:  12    -0.334578279998E+03   -0.92178E-05   -0.93053E-05 11088   0.233E-04 0.933E-06
   7 F= -.33457828E+03 E0= -.33457822E+03  d E =-.884665E-02  mag=     6.0000
       N       E                     dE             d eps       ncg     rms          ort
SDA:   1    -0.334438620122E+03    0.13965E+00    0.00000E+00 11088   0.483E+00 0.000E+00
CGA:   2    -0.334519369582E+03   -0.80749E-01   -0.80801E-01 11088   0.215E+00 0.855E-03
CGA:   3    -0.334563133982E+03   -0.43764E-01   -0.43765E-01 11088   0.106E+00 0.634E-04
CGA:   4    -0.334578273031E+03   -0.15139E-01   -0.15148E-01 11088   0.205E-01 0.695E-04
CGA:   5    -0.334581386453E+03   -0.31134E-02   -0.31159E-02 11088   0.514E-02 0.401E-04
CGA:   6    -0.334582358325E+03   -0.97187E-03   -0.97116E-03 11088   0.168E-02-0.538E-04
CGA:   7    -0.334582672274E+03   -0.31395E-03   -0.31455E-03 11088   0.461E-03 0.456E-04
CGA:   8    -0.334582767968E+03   -0.95694E-04   -0.95664E-04 11088   0.149E-03 0.460E-04
CGA:   9    -0.334582814749E+03   -0.46781E-04   -0.49075E-04 11088   0.905E-04-0.233E-04
CGA:  10    -0.334582832599E+03   -0.17849E-04   -0.18392E-04 11088   0.601E-04-0.155E-04
CGA:  11    -0.334582843593E+03   -0.10995E-04   -0.11789E-04 11088   0.503E-04-0.276E-04
CGA:  12    -0.334582849334E+03   -0.57405E-05   -0.58662E-05 11088   0.247E-04-0.206E-04
   8 F= -.33458285E+03 E0= -.33458279E+03  d E =-.456934E-02  mag=     6.0000
       N       E                     dE             d eps       ncg     rms          ort
SDA:   1    -0.333413548001E+03    0.11693E+01    0.00000E+00 11088   0.404E+01 0.000E+00
CGA:   2    -0.334070282893E+03   -0.65673E+00   -0.65746E+00 11088   0.174E+01 0.740E-02
CGA:   3    -0.334426098399E+03   -0.35582E+00   -0.35581E+00 11088   0.884E+00-0.282E-02
CGA:   4    -0.334553355192E+03   -0.12726E+00   -0.12729E+00 11088   0.171E+00-0.400E-03
CGA:   5    -0.334578707949E+03   -0.25353E-01   -0.25420E-01 11088   0.413E-01 0.120E-02
CGA:   6    -0.334586434611E+03   -0.77267E-02   -0.77315E-02 11088   0.128E-01 0.347E-03
CGA:   7    -0.334588923272E+03   -0.24887E-02   -0.24903E-02 11088   0.352E-02 0.255E-03
CGA:   8    -0.334589663113E+03   -0.73984E-03   -0.73831E-03 11088   0.112E-02 0.207E-03
CGA:   9    -0.334590000349E+03   -0.33724E-03   -0.35149E-03 11088   0.568E-03-0.147E-03
CGA:  10    -0.334590110059E+03   -0.10971E-03   -0.10895E-03 11088   0.198E-03 0.436E-04
CGA:  11    -0.334590162432E+03   -0.52374E-04   -0.52109E-04 11088   0.814E-04 0.644E-05
CGA:  12    -0.334590178417E+03   -0.15985E-04   -0.16060E-04 11088   0.407E-04 0.491E-05
CGA:  13    -0.334590187489E+03   -0.90714E-05   -0.90704E-05 11088   0.201E-04 0.117E-06
CGA:  14    -0.334590189940E+03   -0.24517E-05   -0.11851E-04 11088   0.723E-04-0.248E-04
CGA:  15    -0.334590201944E+03   -0.12004E-04   -0.10915E-04 11088   0.388E-04-0.147E-04
CGA:  16    -0.334590208255E+03   -0.63111E-05   -0.61883E-05 11088   0.905E-05-0.572E-05
   9 F= -.33459021E+03 E0= -.33459016E+03  d E =-.735892E-02  mag=     6.0000
       N       E                     dE             d eps       ncg     rms          ort
SDA:   1    -0.334041793622E+03    0.54841E+00    0.00000E+00 11088   0.188E+01 0.000E+00
CGA:   2    -0.334347549993E+03   -0.30576E+00   -0.30599E+00 11088   0.806E+00 0.266E-02
CGA:   3    -0.334511483701E+03   -0.16393E+00   -0.16392E+00 11088   0.407E+00-0.124E-02
CGA:   4    -0.334570604982E+03   -0.59121E-01   -0.59116E-01 11088   0.815E-01-0.330E-03
CGA:   5    -0.334582619215E+03   -0.12014E-01   -0.12052E-01 11088   0.195E-01 0.581E-03
CGA:   6    -0.334586227101E+03   -0.36079E-02   -0.36164E-02 11088   0.598E-02 0.385E-03
CGA:   7    -0.334587381832E+03   -0.11547E-02   -0.11590E-02 11088   0.165E-02 0.296E-03
CGA:   8    -0.334587728699E+03   -0.34687E-03   -0.34734E-03 11088   0.516E-03 0.176E-03
CGA:   9    -0.334587872858E+03   -0.14416E-03   -0.14198E-03 11088   0.205E-03 0.485E-04
CGA:  10    -0.334587918500E+03   -0.45642E-04   -0.45772E-04 11088   0.729E-04 0.635E-04
CGA:  11    -0.334587929221E+03   -0.10721E-04   -0.13745E-04 11088   0.309E-04 0.489E-04
CGA:  12    -0.334587930356E+03   -0.11351E-05   -0.33150E-05 11088   0.185E-04 0.229E-04
  10 F= -.33458793E+03 E0= -.33458787E+03  d E =0.227790E-02  mag=     6.0000
       N       E                     dE             d eps       ncg     rms          ort
SDA:   1    -0.334511729969E+03    0.76199E-01    0.00000E+00 11088   0.250E+00 0.000E+00
CGA:   2    -0.334557624942E+03   -0.45895E-01   -0.45898E-01 11088   0.127E+00 0.310E-03
CGA:   3    -0.334582343711E+03   -0.24719E-01   -0.24719E-01 11088   0.547E-01-0.312E-03
CGA:   4    -0.334590073561E+03   -0.77298E-02   -0.77298E-02 11088   0.111E-01-0.214E-04
CGA:   5    -0.334591802891E+03   -0.17293E-02   -0.17333E-02 11088   0.299E-02 0.114E-03
CGA:   6    -0.334592383379E+03   -0.58049E-03   -0.58056E-03 11088   0.992E-03-0.156E-04
CGA:   7    -0.334592587681E+03   -0.20430E-03   -0.20479E-03 11088   0.342E-03-0.252E-04
CGA:   8    -0.334592665006E+03   -0.77325E-04   -0.77769E-04 11088   0.139E-03-0.101E-04
CGA:   9    -0.334592697624E+03   -0.32618E-04   -0.32573E-04 11088   0.563E-04 0.849E-06
CGA:  10    -0.334592706957E+03   -0.93335E-05   -0.96129E-05 11088   0.222E-04 0.118E-04
  11 F= -.33459271E+03 E0= -.33459265E+03  d E =-.477660E-02  mag=     6.0000
       N       E                     dE             d eps       ncg     rms          ort
SDA:   1    -0.334583447570E+03    0.92501E-02    0.00000E+00 11088   0.297E-01 0.000E+00
CGA:   2    -0.334589069315E+03   -0.56217E-02   -0.56218E-02 11088   0.158E-01-0.102E-03
CGA:   3    -0.334592060081E+03   -0.29908E-02   -0.29909E-02 11088   0.651E-02-0.189E-03
CGA:   4    -0.334592979202E+03   -0.91912E-03   -0.91662E-03 11088   0.134E-02-0.560E-04
CGA:   5    -0.334593180504E+03   -0.20130E-03   -0.20221E-03 11088   0.353E-03 0.258E-04
CGA:   6    -0.334593242455E+03   -0.61951E-04   -0.62342E-04 11088   0.993E-04 0.335E-04
CGA:   7    -0.334593264279E+03   -0.21823E-04   -0.21684E-04 11088   0.333E-04 0.912E-05
CGA:   8    -0.334593274292E+03   -0.10013E-04   -0.13292E-04 11088   0.378E-04-0.182E-04
CGA:   9    -0.334593278720E+03   -0.44280E-05   -0.48572E-05 11088   0.579E-05 0.654E-05
  12 F= -.33459328E+03 E0= -.33459322E+03  d E =-.571762E-03  mag=     6.0000
       N       E                     dE             d eps       ncg     rms          ort
SDA:   1    -0.334495067509E+03    0.98207E-01    0.00000E+00 11088   0.309E+00 0.000E+00
CGA:   2    -0.334551313798E+03   -0.56246E-01   -0.56249E-01 11088   0.156E+00 0.197E-03
CGA:   3    -0.334581016528E+03   -0.29703E-01   -0.29703E-01 11088   0.656E-01-0.582E-03
CGA:   4    -0.334590557113E+03   -0.95406E-02   -0.95280E-02 11088   0.138E-01-0.313E-03
CGA:   5    -0.334592621073E+03   -0.20640E-02   -0.20646E-02 11088   0.348E-02 0.137E-04
CGA:   6    -0.334593243574E+03   -0.62250E-03   -0.62319E-03 11088   0.993E-03 0.109E-03
CGA:   7    -0.334593443423E+03   -0.19985E-03   -0.19928E-03 11088   0.301E-03 0.581E-04
CGA:   8    -0.334593523045E+03   -0.79622E-04   -0.81819E-04 11088   0.142E-03-0.310E-04
CGA:   9    -0.334593557292E+03   -0.34247E-04   -0.36666E-04 11088   0.712E-04-0.243E-04
CGA:  10    -0.334593573526E+03   -0.16235E-04   -0.18304E-04 11088   0.328E-04-0.178E-04
CGA:  11    -0.334593577659E+03   -0.41325E-05   -0.42769E-05 11088   0.108E-04 0.554E-05
  13 F= -.33459358E+03 E0= -.33459352E+03  d E =-.298939E-03  mag=     6.0000
       N       E                     dE             d eps       ncg     rms          ort
SDA:   1    -0.334417706399E+03    0.17587E+00    0.00000E+00 11088   0.516E+00 0.000E+00
CGA:   2    -0.334522265618E+03   -0.10456E+00   -0.10456E+00 11088   0.276E+00 0.480E-03
CGA:   3    -0.334572878352E+03   -0.50613E-01   -0.50609E-01 11088   0.102E+00-0.291E-03
CGA:   4    -0.334587401620E+03   -0.14523E-01   -0.14517E-01 11088   0.219E-01-0.162E-03
CGA:   5    -0.334590857913E+03   -0.34563E-02   -0.34523E-02 11088   0.590E-02-0.112E-03
CGA:   6    -0.334591954496E+03   -0.10966E-02   -0.10954E-02 11088   0.187E-02-0.156E-03
CGA:   7    -0.334592328441E+03   -0.37395E-03   -0.37469E-03 11088   0.624E-03-0.621E-04
CGA:   8    -0.334592480469E+03   -0.15203E-03   -0.16029E-03 11088   0.327E-03-0.116E-03
CGA:   9    -0.334592548869E+03   -0.68400E-04   -0.74022E-04 11088   0.172E-03-0.701E-04
CGA:  10    -0.334592573077E+03   -0.24209E-04   -0.55838E-04 11088   0.344E-03-0.149E-03
CGA:  11    -0.334592604431E+03   -0.31353E-04   -0.33689E-04 11088   0.532E-04 0.209E-04
CGA:  12    -0.334592617521E+03   -0.13091E-04   -0.21503E-04 11088   0.826E-04-0.483E-04
CGA:  13    -0.334592629687E+03   -0.12166E-04   -0.11726E-04 11088   0.202E-04-0.594E-05
CGA:  14    -0.334592633560E+03   -0.38724E-05   -0.37094E-05 11088   0.145E-04-0.116E-04
  14 F= -.33459263E+03 E0= -.33459259E+03  d E =0.944099E-03  mag=     6.0000
       N       E                     dE             d eps       ncg     rms          ort
SDA:   1    -0.333661513615E+03    0.93112E+00    0.00000E+00 11088   0.255E+01 0.000E+00
CGA:   2    -0.334230116207E+03   -0.56860E+00   -0.56858E+00 11088   0.150E+01 0.229E-02
CGA:   3    -0.334489273573E+03   -0.25916E+00   -0.25906E+00 11088   0.497E+00-0.179E-02
CGA:   4    -0.334559027116E+03   -0.69754E-01   -0.69751E-01 11088   0.104E+00-0.331E-03
CGA:   5    -0.334575680577E+03   -0.16653E-01   -0.16669E-01 11088   0.276E-01 0.265E-03
CGA:   6    -0.334580808628E+03   -0.51281E-02   -0.51252E-02 11088   0.853E-02-0.128E-03
CGA:   7    -0.334582545702E+03   -0.17371E-02   -0.17369E-02 11088   0.286E-02-0.471E-04
CGA:   8    -0.334583241214E+03   -0.69551E-03   -0.70118E-03 11088   0.125E-02-0.147E-03
CGA:   9    -0.334583562174E+03   -0.32096E-03   -0.32867E-03 11088   0.571E-03-0.115E-03
CGA:  10    -0.334583699570E+03   -0.13740E-03   -0.14064E-03 11088   0.239E-03-0.558E-04
CGA:  11    -0.334583739590E+03   -0.40021E-04   -0.40478E-04 11088   0.854E-04 0.161E-04
CGA:  12    -0.334583744072E+03   -0.44818E-05   -0.48297E-04 11088   0.356E-03-0.139E-03
CGA:  13    -0.334583767965E+03   -0.23893E-04   -0.33757E-04 11088   0.601E-04 0.731E-04
CGA:  14    -0.334583777381E+03   -0.94152E-05   -0.10713E-04 11088   0.186E-04 0.171E-04
CGA:  15    -0.334583789252E+03   -0.11872E-04    0.19695E-04 11088   0.197E-04-0.582E-05
CGA:  16    -0.334583791108E+03   -0.18560E-05   -0.18898E-05 11088   0.135E-04 0.332E-06
  15 F= -.33458379E+03 E0= -.33458374E+03  d E =0.884245E-02  mag=     6.0000
       N       E                     dE             d eps       ncg     rms          ort
SDA:   1    -0.334188533619E+03    0.39526E+00    0.00000E+00 11088   0.127E+01 0.000E+00
CGA:   2    -0.334420958998E+03   -0.23243E+00   -0.23250E+00 11088   0.614E+00 0.207E-02
CGA:   3    -0.334537931734E+03   -0.11697E+00   -0.11697E+00 11088   0.264E+00-0.326E-03
CGA:   4    -0.334576571599E+03   -0.38640E-01   -0.38652E-01 11088   0.593E-01 0.100E-03
CGA:   5    -0.334585696108E+03   -0.91245E-02   -0.91440E-02 11088   0.152E-01 0.384E-03
CGA:   6    -0.334588506758E+03   -0.28107E-02   -0.28134E-02 11088   0.468E-02 0.166E-03
CGA:   7    -0.334589453344E+03   -0.94659E-03   -0.94642E-03 11088   0.153E-02 0.185E-03
CGA:   8    -0.334589772199E+03   -0.31886E-03   -0.31847E-03 11088   0.515E-03 0.242E-03
CGA:   9    -0.334589907404E+03   -0.13520E-03   -0.13247E-03 11088   0.199E-03 0.121E-03
CGA:  10    -0.334589962137E+03   -0.54733E-04   -0.53630E-04 11088   0.819E-04 0.604E-04
CGA:  11    -0.334589979500E+03   -0.17363E-04   -0.18524E-04 11088   0.324E-04 0.416E-04
CGA:  12    -0.334589982909E+03   -0.34094E-05   -0.44728E-05 11088   0.161E-04 0.172E-04
  16 F= -.33458998E+03 E0= -.33458994E+03  d E =-.619180E-02  mag=     6.0000
       N       E                     dE             d eps       ncg     rms          ort
SDA:   1    -0.334507043938E+03    0.82936E-01    0.00000E+00 11088   0.235E+00 0.000E+00
CGA:   2    -0.334560975757E+03   -0.53932E-01   -0.53918E-01 11088   0.131E+00 0.257E-03
CGA:   3    -0.334583480576E+03   -0.22505E-01   -0.22505E-01 11088   0.446E-01-0.226E-04
CGA:   4    -0.334589971816E+03   -0.64912E-02   -0.64994E-02 11088   0.102E-01 0.157E-03
CGA:   5    -0.334591587028E+03   -0.16152E-02   -0.16190E-02 11088   0.276E-02 0.112E-03
CGA:   6    -0.334592118454E+03   -0.53143E-03   -0.53149E-03 11088   0.917E-03-0.565E-04
CGA:   7    -0.334592315649E+03   -0.19720E-03   -0.19847E-03 11088   0.371E-03-0.404E-04
CGA:   8    -0.334592392637E+03   -0.76988E-04   -0.76232E-04 11088   0.132E-03 0.311E-04
CGA:   9    -0.334592433503E+03   -0.40866E-04   -0.42486E-04 11088   0.690E-04-0.156E-04
CGA:  10    -0.334592448524E+03   -0.15021E-04   -0.15336E-04 11088   0.325E-04-0.575E-05
CGA:  11    -0.334592454968E+03   -0.64445E-05   -0.96421E-05 11088   0.587E-04-0.259E-04
  17 F= -.33459245E+03 E0= -.33459241E+03  d E =-.247206E-02  mag=     6.0000
       N       E                     dE             d eps       ncg     rms          ort
SDA:   1    -0.334561574133E+03    0.30874E-01    0.00000E+00 11088   0.781E-01 0.000E+00
CGA:   2    -0.334581614383E+03   -0.20040E-01   -0.20014E-01 11088   0.478E-01 0.447E-03
CGA:   3    -0.334589340097E+03   -0.77257E-02   -0.77212E-02 11088   0.134E-01-0.115E-03
CGA:   4    -0.334591181825E+03   -0.18417E-02   -0.18403E-02 11088   0.285E-02-0.260E-04
CGA:   5    -0.334591642292E+03   -0.46047E-03   -0.46117E-03 11088   0.802E-03 0.186E-04
CGA:   6    -0.334591802783E+03   -0.16049E-03   -0.16066E-03 11088   0.278E-03-0.602E-04
CGA:   7    -0.334591854458E+03   -0.51675E-04   -0.51740E-04 11088   0.932E-04-0.133E-04
CGA:   8    -0.334591874768E+03   -0.20311E-04   -0.20292E-04 11088   0.356E-04 0.557E-06
CGA:   9    -0.334591884471E+03   -0.97029E-05   -0.98336E-05 11088   0.159E-04-0.172E-05
  18 F= -.33459188E+03 E0= -.33459184E+03  d E =0.570497E-03  mag=     6.0000
       N       E                     dE             d eps       ncg     rms          ort
SDA:   1    -0.333522294750E+03    0.10696E+01    0.00000E+00 11088   0.261E+01 0.000E+00
CGA:   2    -0.334292925872E+03   -0.77063E+00   -0.77019E+00 11088   0.138E+01 0.408E-02
CGA:   3    -0.334504088218E+03   -0.21116E+00   -0.21105E+00 11088   0.404E+00-0.310E-03
CGA:   4    -0.334560727267E+03   -0.56639E-01   -0.56597E-01 11088   0.864E-01-0.716E-03
CGA:   5    -0.334574756321E+03   -0.14029E-01   -0.14025E-01 11088   0.243E-01-0.780E-04
CGA:   6    -0.334579326061E+03   -0.45697E-02   -0.45686E-02 11088   0.742E-02-0.779E-04
CGA:   7    -0.334580873832E+03   -0.15478E-02   -0.15481E-02 11088   0.278E-02-0.576E-04
CGA:   8    -0.334581507102E+03   -0.63327E-03   -0.63048E-03 11088   0.132E-02 0.108E-03
CGA:   9    -0.334581813900E+03   -0.30680E-03   -0.30664E-03 11088   0.826E-03 0.844E-05
CGA:  10    -0.334581968250E+03   -0.15435E-03   -0.15399E-03 11088   0.376E-03-0.173E-04
CGA:  11    -0.334582044987E+03   -0.76737E-04   -0.76665E-04 11088   0.110E-03 0.187E-04
CGA:  12    -0.334582078866E+03   -0.33880E-04   -0.39381E-04 11088   0.978E-04-0.401E-04
CGA:  13    -0.334582088848E+03   -0.99821E-05   -0.93480E-05 11088   0.544E-04-0.106E-04
CGA:  14    -0.334582094481E+03   -0.56325E-05   -0.27791E-04 11088   0.144E-03-0.613E-04
CGA:  15    -0.334582131140E+03   -0.36659E-04   -0.38850E-04 11088   0.755E-04-0.501E-04
CGA:  16    -0.334582134008E+03   -0.28675E-05   -0.44643E-05 11088   0.292E-04 0.116E-04
  19 F= -.33458213E+03 E0= -.33458209E+03  d E =0.975046E-02  mag=     6.0000
       N       E                     dE             d eps       ncg     rms          ort
SDA:   1    -0.325395117988E+03    0.91870E+01    0.00000E+00 11088   0.229E+02 0.000E+00
CGA:   2    -0.332088911811E+03   -0.66938E+01   -0.66849E+01 11088   0.115E+02 0.870E-01
CGA:   3    -0.333830276817E+03   -0.17414E+01   -0.17280E+01 11088   0.376E+01 0.119E-03
CGA:   4    -0.334368571902E+03   -0.53830E+00   -0.53857E+00 11088   0.741E+00-0.328E-02
CGA:   5    -0.334491782375E+03   -0.12321E+00   -0.12305E+00 11088   0.213E+00-0.222E-02
CGA:   6    -0.334531709860E+03   -0.39927E-01   -0.39958E-01 11088   0.674E-01 0.114E-02
CGA:   7    -0.334545884517E+03   -0.14175E-01   -0.14174E-01 11088   0.290E-01-0.665E-03
CGA:   8    -0.334552181170E+03   -0.62967E-02   -0.62958E-02 11088   0.159E-01 0.817E-04
CGA:   9    -0.334555354526E+03   -0.31734E-02   -0.31728E-02 11088   0.883E-02-0.336E-04
CGA:  10    -0.334557216070E+03   -0.18615E-02   -0.18622E-02 11088   0.380E-02-0.377E-03
CGA:  11    -0.334557984355E+03   -0.76828E-03   -0.76847E-03 11088   0.155E-02-0.111E-03
CGA:  12    -0.334558279168E+03   -0.29481E-03   -0.29263E-03 11088   0.709E-03-0.147E-03
CGA:  13    -0.334558416689E+03   -0.13752E-03   -0.13783E-03 11088   0.356E-03-0.550E-04
CGA:  14    -0.334558486047E+03   -0.69358E-04   -0.15173E-03 11088   0.126E-02-0.326E-03
CGA:  15    -0.334558590959E+03   -0.10491E-03   -0.11207E-03 11088   0.200E-03 0.553E-04
CGA:  16    -0.334558646686E+03   -0.55727E-04   -0.54313E-04 11088   0.665E-04 0.313E-04
CGA:  17    -0.334558692610E+03   -0.45924E-04    0.22564E-04 11088   0.688E-04 0.261E-04
CGA:  18    -0.334558741917E+03   -0.49307E-04    0.57170E-04 11088   0.478E-04 0.332E-04
CGA:  19    -0.334558785163E+03   -0.43246E-04   -0.53715E-04 11088   0.235E-03-0.221E-04
CGA:  20    -0.334558870756E+03   -0.85593E-04    0.40224E-04 11088   0.256E-03-0.299E-03
CGA:  21    -0.334559024129E+03   -0.15337E-03    0.13793E-03 11088   0.915E-04 0.503E-04
CGA:  22    -0.334559018374E+03    0.57554E-05   -0.78581E-05 11088   0.499E-04 0.788E-04
  20 F= -.33455902E+03 E0= -.33455894E+03  d E =0.231156E-01  mag=     6.0000
       N       E                     dE             d eps       ncg     rms          ort
SDA:   1    -0.315068382922E+03    0.19491E+02    0.00000E+00 11088   0.495E+02 0.000E+00
CGA:   2    -0.329401330483E+03   -0.14333E+02   -0.14320E+02 11088   0.222E+02 0.131E+00
CGA:   3    -0.332983428992E+03   -0.35821E+01   -0.35762E+01 11088   0.795E+01-0.476E-02
CGA:   4    -0.334099218920E+03   -0.11158E+01   -0.11124E+01 11088   0.157E+01 0.247E-02
CGA:   5    -0.334361571706E+03   -0.26235E+00   -0.26195E+00 11088   0.460E+00-0.419E-02
CGA:   6    -0.334447872841E+03   -0.86301E-01   -0.86419E-01 11088   0.152E+00 0.324E-02
CGA:   7    -0.334479750284E+03   -0.31877E-01   -0.31871E-01 11088   0.692E-01-0.648E-03
CGA:   8    -0.334494317922E+03   -0.14568E-01   -0.14566E-01 11088   0.396E-01-0.288E-03
CGA:   9    -0.334501774258E+03   -0.74563E-02   -0.74706E-02 11088   0.193E-01 0.540E-03
CGA:  10    -0.334506094278E+03   -0.43200E-02   -0.43212E-02 11088   0.808E-02-0.216E-03
CGA:  11    -0.334507744428E+03   -0.16501E-02   -0.16492E-02 11088   0.346E-02-0.103E-03
CGA:  12    -0.334508356115E+03   -0.61169E-03   -0.61033E-03 11088   0.132E-02-0.375E-04
CGA:  13    -0.334508636430E+03   -0.28032E-03   -0.28022E-03 11088   0.617E-03 0.521E-04
CGA:  14    -0.334508816467E+03   -0.18004E-03   -0.22802E-03 11088   0.128E-02-0.339E-03
CGA:  15    -0.334508922984E+03   -0.10652E-03   -0.11713E-03 11088   0.254E-03 0.816E-04
CGA:  16    -0.334509000481E+03   -0.77497E-04   -0.74317E-04 11088   0.137E-03 0.513E-04
CGA:  17    -0.334509087447E+03   -0.86966E-04    0.82183E-04 11088   0.162E-03 0.397E-04
CGA:  18    -0.334509207930E+03   -0.12048E-03    0.68600E-04 11088   0.114E-03 0.102E-03
CGA:  19    -0.334509210216E+03   -0.22857E-05   -0.10536E-04 11088   0.589E-04 0.662E-04
CGA:  20    -0.334509235714E+03   -0.25498E-04    0.24016E-03 11088   0.412E-04 0.437E-04
CGA:  21    -0.334509272407E+03   -0.36692E-04    0.39177E-05 11088   0.390E-04 0.333E-04
CGA:  22    -0.334509261337E+03    0.11070E-04   -0.13250E-04 11088   0.153E-02-0.635E-04
CGA:  23    -0.334509424977E+03   -0.16364E-03   -0.12495E-03 11088   0.420E-04-0.127E-03
CGA:  24    -0.334509484660E+03   -0.59682E-04    0.64815E-05 11088   0.181E-03-0.275E-04
CGA:  25    -0.334509484521E+03    0.13827E-06   -0.11830E-04 11088   0.205E-04 0.393E-04
  21 F= -.33450948E+03 E0= -.33450940E+03  d E =0.495339E-01  mag=     6.0000
       N       E                     dE             d eps       ncg     rms          ort
SDA:   1    -0.324550109012E+03    0.99594E+01    0.00000E+00 11088   0.258E+02 0.000E+00
CGA:   2    -0.331426925289E+03   -0.68768E+01   -0.68789E+01 11088   0.146E+02 0.224E-02
CGA:   3    -0.333693497097E+03   -0.22666E+01   -0.22752E+01 11088   0.425E+01-0.423E-03
CGA:   4    -0.334305061522E+03   -0.61156E+00   -0.61002E+00 11088   0.947E+00 0.699E-02
CGA:   5    -0.334454857268E+03   -0.14980E+00   -0.15018E+00 11088   0.271E+00-0.672E-03
CGA:   6    -0.334504753637E+03   -0.49896E-01   -0.49930E-01 11088   0.854E-01 0.503E-03
CGA:   7    -0.334522038779E+03   -0.17285E-01   -0.17208E-01 11088   0.349E-01-0.858E-03
CGA:   8    -0.334529247401E+03   -0.72086E-02   -0.72079E-02 11088   0.179E-01 0.133E-04
CGA:   9    -0.334532986138E+03   -0.37387E-02   -0.36961E-02 11088   0.993E-02-0.506E-03
CGA:  10    -0.334534965488E+03   -0.19794E-02   -0.19420E-02 11088   0.446E-02-0.411E-03
CGA:  11    -0.334535814551E+03   -0.84906E-03   -0.84861E-03 11088   0.164E-02-0.653E-05
CGA:  12    -0.334536177581E+03   -0.36303E-03   -0.35396E-03 11088   0.687E-03-0.137E-03
CGA:  13    -0.334536288232E+03   -0.11065E-03   -0.11282E-03 11088   0.284E-03 0.213E-04
CGA:  14    -0.334536353212E+03   -0.64979E-04   -0.65645E-04 11088   0.142E-03 0.135E-04
CGA:  15    -0.334536395893E+03   -0.42682E-04   -0.43053E-04 11088   0.162E-03-0.207E-04
CGA:  16    -0.334536413949E+03   -0.18056E-04   -0.21574E-04 11088   0.712E-04 0.300E-04
CGA:  17    -0.334536426052E+03   -0.12103E-04   -0.15252E-04 11088   0.597E-04 0.367E-04
CGA:  18    -0.334536436122E+03   -0.10070E-04   -0.98222E-05 11088   0.497E-04-0.263E-05
CGA:  19    -0.334536438802E+03   -0.26797E-05   -0.61461E-05 11088   0.216E-04 0.272E-04
  22 F= -.33453644E+03 E0= -.33453642E+03  d E =-.269543E-01  mag=     6.0000
       N       E                     dE             d eps       ncg     rms          ort
SDA:   1    -0.315207813672E+03    0.19329E+02    0.00000E+00 11088   0.431E+02 0.000E+00
CGA:   2    -0.328522701232E+03   -0.13315E+02   -0.13296E+02 11088   0.207E+02 0.212E+00
CGA:   3    -0.331566124525E+03   -0.30434E+01   -0.30111E+01 11088   0.744E+01 0.283E+00
CGA:   4    -0.332828935874E+03   -0.12628E+01   -0.12630E+01 11088   0.178E+01 0.970E-02
CGA:   5    -0.333150594793E+03   -0.32166E+00   -0.32119E+00 11088   0.628E+00-0.495E-02
CGA:   6    -0.333271763013E+03   -0.12117E+00   -0.12131E+00 11088   0.253E+00 0.302E-02
CGA:   7    -0.333329752401E+03   -0.57989E-01   -0.57984E-01 11088   0.128E+00-0.226E-02
CGA:   8    -0.333357304891E+03   -0.27552E-01   -0.27509E-01 11088   0.589E-01-0.278E-02
CGA:   9    -0.333369091478E+03   -0.11787E-01   -0.11767E-01 11088   0.259E-01-0.883E-03
CGA:  10    -0.333374540902E+03   -0.54494E-02   -0.54396E-02 11088   0.889E-02-0.645E-03
CGA:  11    -0.333376807972E+03   -0.22671E-02   -0.23676E-02 11088   0.565E-02-0.224E-02
CGA:  12    -0.333377422188E+03   -0.61422E-03   -0.61952E-03 11088   0.176E-02 0.624E-04
CGA:  13    -0.333377834335E+03   -0.41215E-03   -0.41196E-03 11088   0.874E-03 0.322E-04
CGA:  14    -0.333371815385E+03    0.60189E-02   -0.32513E-02 11088   0.605E-01-0.590E-02
CGA:  15    -0.333377147413E+03   -0.53320E-02   -0.57481E-02 11088   0.571E-02 0.278E-02
CGA:  16    -0.333378300733E+03   -0.11533E-02   -0.13025E-02 11088   0.140E-02 0.830E-03
CGA:  17    -0.333378847758E+03   -0.54703E-03   -0.45143E-03 11088   0.169E-02-0.896E-03
CGA:  18    -0.333378860113E+03   -0.12354E-04   -0.13970E-03 11088   0.228E-03 0.428E-03
CGA:  19    -0.333378832553E+03    0.27559E-04   -0.20368E-04 11088   0.127E-03 0.162E-03
CGA:  20    -0.333378847997E+03   -0.15444E-04   -0.25262E-04 11088   0.722E-04 0.634E-04
CGA:  21    -0.333378850826E+03   -0.28290E-05   -0.15659E-04 11088   0.352E-04 0.638E-04
  23 F= -.33337885E+03 E0= -.33337802E+03  d E =0.115759E+01  mag=     6.0001
       N       E                     dE             d eps       ncg     rms          ort
SDA:   1    -0.329758534604E+03    0.36203E+01    0.00000E+00 11088   0.105E+02 0.000E+00
CGA:   2    -0.333333657675E+03   -0.35751E+01   -0.35743E+01 11088   0.419E+01 0.326E-01
CGA:   3    -0.333993068979E+03   -0.65941E+00   -0.64750E+00 11088   0.163E+01 0.647E-01
CGA:   4    -0.334256510634E+03   -0.26344E+00   -0.26312E+00 11088   0.337E+00-0.272E-02
CGA:   5    -0.334320246009E+03   -0.63735E-01   -0.63663E-01 11088   0.136E+00-0.627E-03
CGA:   6    -0.334343533561E+03   -0.23288E-01   -0.23271E-01 11088   0.528E-01 0.900E-05
CGA:   7    -0.334355704883E+03   -0.12171E-01   -0.12126E-01 11088   0.248E-01-0.639E-03
CGA:   8    -0.334360887123E+03   -0.51822E-02   -0.51717E-02 11088   0.109E-01-0.795E-04
CGA:   9    -0.334363239663E+03   -0.23525E-02   -0.23423E-02 11088   0.504E-02-0.139E-03
CGA:  10    -0.334364223292E+03   -0.98363E-03   -0.96905E-03 11088   0.223E-02-0.154E-03
CGA:  11    -0.334364598284E+03   -0.37499E-03   -0.37593E-03 11088   0.735E-03 0.876E-05
CGA:  12    -0.334364773281E+03   -0.17500E-03   -0.17298E-03 11088   0.309E-03-0.477E-04
CGA:  13    -0.334364839657E+03   -0.66376E-04   -0.64834E-04 11088   0.192E-03-0.309E-04
CGA:  14    -0.334364849694E+03   -0.10038E-04   -0.97367E-04 11088   0.113E-02-0.299E-03
CGA:  15    -0.334364936705E+03   -0.87011E-04   -0.10056E-03 11088   0.150E-03 0.693E-04
CGA:  16    -0.334364978735E+03   -0.42030E-04   -0.41951E-04 11088   0.562E-04-0.581E-05
CGA:  17    -0.334365028739E+03   -0.50005E-04    0.11030E-04 11088   0.791E-04-0.184E-04
CGA:  18    -0.334365074313E+03   -0.45574E-04    0.13301E-04 11088   0.652E-04-0.381E-04
CGA:  19    -0.334365105411E+03   -0.31098E-04    0.70104E-05 11088   0.786E-04-0.172E-04
CGA:  20    -0.334365175526E+03   -0.70115E-04    0.66744E-05 11088   0.755E-04-0.418E-04
CGA:  21    -0.334365196111E+03   -0.20585E-04   -0.20188E-04 11088   0.115E-03-0.453E-04
CGA:  22    -0.334365216449E+03   -0.20339E-04   -0.15096E-04 11088   0.298E-04-0.361E-04
CGA:  23    -0.334365220571E+03   -0.41220E-05   -0.43534E-05 11088   0.523E-05 0.419E-05
  24 F= -.33436522E+03 E0= -.33436479E+03  d E =-.986370E+00  mag=     6.0000
       N       E                     dE             d eps       ncg     rms          ort
SDA:   1    -0.333560422568E+03    0.80479E+00    0.00000E+00 11088   0.223E+01 0.000E+00
CGA:   2    -0.334289102691E+03   -0.72868E+00   -0.72869E+00 11088   0.107E+01-0.714E-03
CGA:   3    -0.334439246023E+03   -0.15014E+00   -0.15067E+00 11088   0.396E+00-0.306E-03
CGA:   4    -0.334503331012E+03   -0.64085E-01   -0.63963E-01 11088   0.859E-01-0.797E-03
CGA:   5    -0.334518886183E+03   -0.15555E-01   -0.15540E-01 11088   0.296E-01-0.221E-03
CGA:   6    -0.334524510567E+03   -0.56244E-02   -0.56267E-02 11088   0.116E-01 0.545E-04
CGA:   7    -0.334527151106E+03   -0.26405E-02   -0.26346E-02 11088   0.569E-02-0.248E-03
CGA:   8    -0.334528281274E+03   -0.11302E-02   -0.11400E-02 11088   0.232E-02 0.228E-03
CGA:   9    -0.334528770517E+03   -0.48924E-03   -0.48912E-03 11088   0.123E-02-0.302E-05
CGA:  10    -0.334529012041E+03   -0.24152E-03   -0.23736E-03 11088   0.522E-03-0.798E-04
CGA:  11    -0.334529088877E+03   -0.76836E-04   -0.81251E-04 11088   0.146E-03 0.582E-04
CGA:  12    -0.334529124955E+03   -0.36079E-04   -0.36356E-04 11088   0.434E-04 0.199E-04
CGA:  13    -0.334529136801E+03   -0.11846E-04   -0.11817E-04 11088   0.184E-04 0.136E-04
CGA:  14    -0.334529143414E+03   -0.66129E-05   -0.63998E-05 11088   0.120E-04 0.781E-05
  25 F= -.33452914E+03 E0= -.33452897E+03  d E =-.163923E+00  mag=     6.0000
       N       E                     dE             d eps       ncg     rms          ort
SDA:   1    -0.334009065715E+03    0.52007E+00    0.00000E+00 11088   0.130E+01 0.000E+00
CGA:   2    -0.334396612507E+03   -0.38755E+00   -0.38756E+00 11088   0.743E+00 0.112E-03
CGA:   3    -0.334497363235E+03   -0.10075E+00   -0.10108E+00 11088   0.242E+00-0.874E-03
CGA:   4    -0.334537739072E+03   -0.40376E-01   -0.40314E-01 11088   0.606E-01-0.732E-03
CGA:   5    -0.334548203007E+03   -0.10464E-01   -0.10466E-01 11088   0.175E-01 0.264E-04
CGA:   6    -0.334551700587E+03   -0.34976E-02   -0.34954E-02 11088   0.717E-02-0.806E-04
CGA:   7    -0.334553239781E+03   -0.15392E-02   -0.15393E-02 11088   0.333E-02 0.108E-04
CGA:   8    -0.334553900586E+03   -0.66080E-03   -0.66647E-03 11088   0.141E-02 0.227E-03
CGA:   9    -0.334554191689E+03   -0.29110E-03   -0.29228E-03 11088   0.712E-03 0.397E-04
CGA:  10    -0.334554339391E+03   -0.14770E-03   -0.14710E-03 11088   0.291E-03-0.272E-04
CGA:  11    -0.334554384901E+03   -0.45511E-04   -0.47797E-04 11088   0.899E-04 0.449E-04
CGA:  12    -0.334554403798E+03   -0.18897E-04   -0.19606E-04 11088   0.271E-04 0.238E-04
CGA:  13    -0.334554409198E+03   -0.53996E-05   -0.60548E-05 11088   0.117E-04 0.162E-04
  26 F= -.33455441E+03 E0= -.33455436E+03  d E =-.252658E-01  mag=     6.0000
       N       E                     dE             d eps       ncg     rms          ort
SDA:   1    -0.334450778069E+03    0.10363E+00    0.00000E+00 11088   0.277E+00 0.000E+00
CGA:   2    -0.334525789673E+03   -0.75012E-01   -0.74898E-01 11088   0.163E+00 0.186E-02
CGA:   3    -0.334549359212E+03   -0.23570E-01   -0.23548E-01 11088   0.541E-01-0.572E-03
CGA:   4    -0.334558208783E+03   -0.88496E-02   -0.88319E-02 11088   0.143E-01-0.370E-03
CGA:   5    -0.334560583560E+03   -0.23748E-02   -0.23810E-02 11088   0.378E-02 0.154E-03
CGA:   6    -0.334561369937E+03   -0.78638E-03   -0.78651E-03 11088   0.165E-02-0.171E-03
CGA:   7    -0.334561680176E+03   -0.31024E-03   -0.31104E-03 11088   0.662E-03 0.103E-03
CGA:   8    -0.334561823607E+03   -0.14343E-03   -0.14348E-03 11088   0.259E-03 0.872E-04
CGA:   9    -0.334561892440E+03   -0.68832E-04   -0.69590E-04 11088   0.189E-03-0.229E-04
CGA:  10    -0.334561921933E+03   -0.29494E-04   -0.29129E-04 11088   0.732E-04-0.974E-05
CGA:  11    -0.334561938358E+03   -0.16425E-04   -0.16730E-04 11088   0.269E-04-0.837E-05
CGA:  12    -0.334561948929E+03   -0.10570E-04    0.32466E-04 11088   0.901E-05 0.196E-05
CGA:  13    -0.334561951302E+03   -0.23728E-05   -0.23267E-05 11088   0.502E-05 0.131E-05
  27 F= -.33456195E+03 E0= -.33456191E+03  d E =-.754210E-02  mag=     6.0000
       N       E                     dE             d eps       ncg     rms          ort
SDA:   1    -0.334535773789E+03    0.26175E-01    0.00000E+00 11088   0.733E-01 0.000E+00
CGA:   2    -0.334559405071E+03   -0.23631E-01   -0.23576E-01 11088   0.289E-01 0.452E-03
CGA:   3    -0.334564719860E+03   -0.53148E-02   -0.53179E-02 11088   0.106E-01 0.117E-03
CGA:   4    -0.334566256523E+03   -0.15367E-02   -0.15374E-02 11088   0.254E-02 0.100E-04
CGA:   5    -0.334566729802E+03   -0.47328E-03   -0.47062E-03 11088   0.974E-03-0.149E-03
CGA:   6    -0.334566901985E+03   -0.17218E-03   -0.17181E-03 11088   0.347E-03-0.251E-04
CGA:   7    -0.334566973014E+03   -0.71028E-04   -0.70820E-04 11088   0.134E-03 0.275E-04
CGA:   8    -0.334567008035E+03   -0.35021E-04   -0.65063E-04 11088   0.270E-03-0.122E-03
CGA:   9    -0.334567036127E+03   -0.28092E-04   -0.31962E-04 11088   0.344E-04 0.404E-04
CGA:  10    -0.334567056415E+03   -0.20288E-04    0.18480E-04 11088   0.145E-04-0.367E-05
CGA:  11    -0.334567067103E+03   -0.10688E-04    0.13951E-05 11088   0.918E-05-0.322E-05
CGA:  12    -0.334567075084E+03   -0.79813E-05    0.44782E-06 11088   0.525E-05-0.165E-05
  28 F= -.33456708E+03 E0= -.33456703E+03  d E =-.512378E-02  mag=     6.0000
       N       E                     dE             d eps       ncg     rms          ort
SDA:   1    -0.334553268852E+03    0.13798E-01    0.00000E+00 11088   0.365E-01 0.000E+00
CGA:   2    -0.334564423970E+03   -0.11155E-01   -0.11159E-01 11088   0.148E-01-0.497E-04
CGA:   3    -0.334567093594E+03   -0.26696E-02   -0.26807E-02 11088   0.530E-02 0.333E-03
CGA:   4    -0.334567896380E+03   -0.80279E-03   -0.79763E-03 11088   0.134E-02-0.805E-04
CGA:   5    -0.334568140365E+03   -0.24399E-03   -0.24037E-03 11088   0.514E-03-0.135E-03
CGA:   6    -0.334568219112E+03   -0.78747E-04   -0.79187E-04 11088   0.158E-03 0.119E-04
CGA:   7    -0.334568257795E+03   -0.38683E-04   -0.38893E-04 11088   0.755E-04-0.625E-05
CGA:   8    -0.334568213448E+03    0.44347E-04   -0.56732E-04 11088   0.648E-03-0.176E-03
CGA:   9    -0.334568286230E+03   -0.72782E-04   -0.79291E-04 11088   0.717E-04 0.568E-04
CGA:  10    -0.334568292727E+03   -0.64973E-05   -0.38724E-04 11088   0.363E-03-0.121E-03
CGA:  11    -0.334568323143E+03   -0.30416E-04   -0.32876E-04 11088   0.484E-04 0.160E-04
CGA:  12    -0.334568328942E+03   -0.57991E-05   -0.70081E-05 11088   0.522E-05 0.123E-04
  29 F= -.33456833E+03 E0= -.33456828E+03  d E =-.125386E-02  mag=     6.0000
       N       E                     dE             d eps       ncg     rms          ort
SDA:   1    -0.334544827406E+03    0.23496E-01    0.00000E+00 11088   0.652E-01 0.000E+00
CGA:   2    -0.334561489607E+03   -0.16662E-01   -0.16664E-01 11088   0.326E-01-0.100E-03
CGA:   3    -0.334566482705E+03   -0.49931E-02   -0.50032E-02 11088   0.130E-01 0.100E-03
CGA:   4    -0.334568428769E+03   -0.19461E-02   -0.19475E-02 11088   0.256E-02 0.175E-04
CGA:   5    -0.334568881413E+03   -0.45264E-03   -0.44772E-03 11088   0.752E-03-0.983E-04
CGA:   6    -0.334569015025E+03   -0.13361E-03   -0.13331E-03 11088   0.263E-03-0.789E-05
CGA:   7    -0.334569067778E+03   -0.52753E-04   -0.52730E-04 11088   0.120E-03-0.136E-05
CGA:   8    -0.334569099154E+03   -0.31375E-04   -0.37862E-04 11088   0.181E-03-0.658E-04
CGA:   9    -0.334569113832E+03   -0.14678E-04   -0.16163E-04 11088   0.299E-04 0.110E-04
CGA:  10    -0.334569116534E+03   -0.27027E-05   -0.17080E-04 11088   0.102E-03-0.450E-04
CGA:  11    -0.334569141144E+03   -0.24610E-04   -0.29039E-04 11088   0.154E-03-0.896E-04
CGA:  12    -0.334569145927E+03   -0.47835E-05   -0.10421E-04 11088   0.141E-04 0.335E-04
  30 F= -.33456915E+03 E0= -.33456909E+03  d E =-.816986E-03  mag=     6.0000
       N       E                     dE             d eps       ncg     rms          ort
SDA:   1    -0.334493711964E+03    0.75429E-01    0.00000E+00 11088   0.211E+00 0.000E+00
CGA:   2    -0.334548499310E+03   -0.54787E-01   -0.54819E-01 11088   0.895E-01-0.904E-03
CGA:   3    -0.334563799449E+03   -0.15300E-01   -0.15301E-01 11088   0.371E-01-0.539E-04
CGA:   4    -0.334568908927E+03   -0.51095E-02   -0.51152E-02 11088   0.730E-02 0.722E-04
CGA:   5    -0.334570101729E+03   -0.11928E-02   -0.11931E-02 11088   0.196E-02 0.396E-05
CGA:   6    -0.334570467850E+03   -0.36612E-03   -0.36639E-03 11088   0.645E-03 0.104E-04
CGA:   7    -0.334570607807E+03   -0.13996E-03   -0.14012E-03 11088   0.341E-03-0.315E-04
CGA:   8    -0.334570682728E+03   -0.74921E-04   -0.76868E-04 11088   0.279E-03-0.750E-04
CGA:   9    -0.334570719458E+03   -0.36730E-04   -0.36108E-04 11088   0.109E-03-0.134E-04
CGA:  10    -0.334570745582E+03   -0.26124E-04   -0.26491E-04 11088   0.428E-04-0.827E-05
CGA:  11    -0.334570763224E+03   -0.17642E-04    0.83526E-04 11088   0.212E-04-0.231E-05
CGA:  12    -0.334570764362E+03   -0.11380E-05   -0.19163E-05 11088   0.658E-05 0.666E-05
  31 F= -.33457076E+03 E0= -.33457071E+03  d E =-.161844E-02  mag=     6.0000
       N       E                     dE             d eps       ncg     rms          ort
SDA:   1    -0.334455308394E+03    0.11545E+00    0.00000E+00 11088   0.325E+00 0.000E+00
CGA:   2    -0.334532845575E+03   -0.77537E-01   -0.77572E-01 11088   0.163E+00-0.106E-02
CGA:   3    -0.334560082863E+03   -0.27237E-01   -0.27222E-01 11088   0.605E-01-0.512E-03
CGA:   4    -0.334568811845E+03   -0.87290E-02   -0.87410E-02 11088   0.130E-01 0.210E-03
CGA:   5    -0.334570813531E+03   -0.20017E-02   -0.20109E-02 11088   0.327E-02 0.212E-03
CGA:   6    -0.334571425493E+03   -0.61196E-03   -0.61252E-03 11088   0.104E-02 0.546E-04
CGA:   7    -0.334571648424E+03   -0.22293E-03   -0.22325E-03 11088   0.469E-03-0.190E-04
CGA:   8    -0.334571753584E+03   -0.10516E-03   -0.10722E-03 11088   0.326E-03-0.543E-04
CGA:   9    -0.334571801804E+03   -0.48221E-04   -0.48183E-04 11088   0.143E-03-0.135E-05
CGA:  10    -0.334571834828E+03   -0.33023E-04   -0.33135E-04 11088   0.535E-04-0.297E-05
CGA:  11    -0.334571849656E+03   -0.14828E-04   -0.17083E-04 11088   0.335E-04-0.175E-04
CGA:  12    -0.334571849393E+03    0.26372E-06   -0.14929E-05 11088   0.182E-04 0.128E-04
  32 F= -.33457185E+03 E0= -.33457180E+03  d E =-.108503E-02  mag=     6.0000
       N       E                     dE             d eps       ncg     rms          ort
SDA:   1    -0.334535994561E+03    0.35855E-01    0.00000E+00 11088   0.983E-01 0.000E+00
CGA:   2    -0.334559621416E+03   -0.23627E-01   -0.23632E-01 11088   0.572E-01-0.146E-03
CGA:   3    -0.334569128066E+03   -0.95066E-02   -0.95010E-02 11088   0.183E-01-0.229E-03
CGA:   4    -0.334571708280E+03   -0.25802E-02   -0.25848E-02 11088   0.409E-02 0.872E-04
CGA:   5    -0.334572342305E+03   -0.63403E-03   -0.63910E-03 11088   0.106E-02 0.152E-03
CGA:   6    -0.334572539769E+03   -0.19746E-03   -0.19798E-03 11088   0.319E-03 0.787E-04
CGA:   7    -0.334572609683E+03   -0.69914E-04   -0.69476E-04 11088   0.119E-03 0.271E-04
CGA:   8    -0.334572631754E+03   -0.22071E-04   -0.22572E-04 11088   0.452E-04 0.397E-04
CGA:   9    -0.334572637986E+03   -0.62316E-05   -0.79399E-05 11088   0.209E-04 0.310E-04
  33 F= -.33457264E+03 E0= -.33457259E+03  d E =-.788593E-03  mag=     6.0000
       N       E                     dE             d eps       ncg     rms          ort
SDA:   1    -0.334556519410E+03    0.16112E-01    0.00000E+00 11088   0.417E-01 0.000E+00
CGA:   2    -0.334567450665E+03   -0.10931E-01   -0.10900E-01 11088   0.219E-01 0.378E-03
CGA:   3    -0.334570947108E+03   -0.34964E-02   -0.34951E-02 11088   0.770E-02-0.438E-04
CGA:   4    -0.334572047788E+03   -0.11007E-02   -0.11005E-02 11088   0.163E-02-0.687E-05
CGA:   5    -0.334572301608E+03   -0.25382E-03   -0.25510E-03 11088   0.414E-03 0.507E-04
CGA:   6    -0.334572383017E+03   -0.81409E-04   -0.81276E-04 11088   0.133E-03 0.137E-04
CGA:   7    -0.334572410483E+03   -0.27466E-04   -0.27288E-04 11088   0.510E-04 0.104E-04
CGA:   8    -0.334572420103E+03   -0.96209E-05   -0.97031E-05 11088   0.209E-04 0.142E-04
  34 F= -.33457242E+03 E0= -.33457237E+03  d E =0.217882E-03  mag=     6.0000
       N       E                     dE             d eps       ncg     rms          ort
SDA:   1    -0.334563432853E+03    0.89776E-02    0.00000E+00 11088   0.220E-01 0.000E+00
CGA:   2    -0.334569993527E+03   -0.65607E-02   -0.65608E-02 11088   0.125E-01-0.612E-05
CGA:   3    -0.334571812066E+03   -0.18185E-02   -0.18173E-02 11088   0.327E-02-0.308E-04
CGA:   4    -0.334572262721E+03   -0.45065E-03   -0.45347E-03 11088   0.716E-03 0.615E-04
CGA:   5    -0.334572379654E+03   -0.11693E-03   -0.11777E-03 11088   0.189E-03 0.410E-04
CGA:   6    -0.334572418259E+03   -0.38605E-04   -0.38577E-04 11088   0.620E-04 0.224E-05
CGA:   7    -0.334572430804E+03   -0.12545E-04   -0.12504E-04 11088   0.229E-04 0.225E-05
CGA:   8    -0.334572436400E+03   -0.55962E-05   -0.55944E-05 11088   0.126E-04 0.361E-07
  35 F= -.33457244E+03 E0= -.33457239E+03  d E =-.162966E-04  mag=     6.0000
       N       E                     dE             d eps       ncg     rms          ort
SDA:   1    -0.334203865664E+03    0.36857E+00    0.00000E+00 11088   0.914E+00 0.000E+00
CGA:   2    -0.334462026302E+03   -0.25816E+00   -0.25816E+00 11088   0.576E+00-0.235E-03
CGA:   3    -0.334543711417E+03   -0.81685E-01   -0.81649E-01 11088   0.146E+00-0.341E-03
CGA:   4    -0.334564314575E+03   -0.20603E-01   -0.20617E-01 11088   0.319E-01 0.255E-03
CGA:   5    -0.334569559777E+03   -0.52452E-02   -0.52492E-02 11088   0.867E-02 0.235E-03
CGA:   6    -0.334571157100E+03   -0.15973E-02   -0.15973E-02 11088   0.256E-02 0.153E-04
CGA:   7    -0.334571670071E+03   -0.51297E-03   -0.51396E-03 11088   0.970E-03-0.518E-04
CGA:   8    -0.334571864733E+03   -0.19466E-03   -0.19476E-03 11088   0.493E-03-0.395E-05
CGA:   9    -0.334571952532E+03   -0.87800E-04   -0.87934E-04 11088   0.229E-03 0.329E-04
CGA:  10    -0.334572006590E+03   -0.54058E-04   -0.53704E-04 11088   0.882E-04 0.955E-05
CGA:  11    -0.334572029358E+03   -0.22769E-04   -0.22705E-04 11088   0.389E-04 0.982E-06
CGA:  12    -0.334572036183E+03   -0.68245E-05   -0.68445E-05 11088   0.182E-04 0.148E-05
CGA:  13    -0.334572043305E+03   -0.71221E-05    0.34098E-03 11088   0.596E-05 0.162E-05
  36 F= -.33457204E+03 E0= -.33457200E+03  d E =0.393095E-03  mag=     6.0000
       N       E                     dE             d eps       ncg     rms          ort
SDA:   1    -0.334079912557E+03    0.49212E+00    0.00000E+00 11088   0.126E+01 0.000E+00
CGA:   2    -0.334404111752E+03   -0.32420E+00   -0.32412E+00 11088   0.845E+00 0.592E-03
CGA:   3    -0.334529366100E+03   -0.12525E+00   -0.12521E+00 11088   0.223E+00-0.277E-03
CGA:   4    -0.334560376564E+03   -0.31010E-01   -0.31023E-01 11088   0.458E-01 0.108E-03
CGA:   5    -0.334567898009E+03   -0.75214E-02   -0.75268E-02 11088   0.128E-01 0.243E-03
CGA:   6    -0.334570255279E+03   -0.23573E-02   -0.23574E-02 11088   0.374E-02 0.565E-04
CGA:   7    -0.334571003881E+03   -0.74860E-03   -0.75005E-03 11088   0.140E-02-0.973E-04
CGA:   8    -0.334571266009E+03   -0.26213E-03   -0.26172E-03 11088   0.635E-03 0.689E-04
CGA:   9    -0.334571391885E+03   -0.12588E-03   -0.12574E-03 11088   0.309E-03 0.491E-04
CGA:  10    -0.334571469790E+03   -0.77905E-04   -0.78522E-04 11088   0.152E-03-0.123E-04
CGA:  11    -0.334571500069E+03   -0.30279E-04   -0.30157E-04 11088   0.675E-04 0.664E-05
CGA:  12    -0.334571516968E+03   -0.16899E-04   -0.19178E-04 11088   0.671E-04-0.275E-04
CGA:  13    -0.334571523981E+03   -0.70129E-05   -0.10514E-04 11088   0.777E-04-0.495E-04
CGA:  14    -0.334571534111E+03   -0.10130E-04   -0.10163E-04 11088   0.352E-04 0.568E-06
CGA:  15    -0.334571542602E+03   -0.84914E-05   -0.89400E-05 11088   0.131E-04-0.770E-05
  37 F= -.33457154E+03 E0= -.33457149E+03  d E =0.500703E-03  mag=     6.0000
       N       E                     dE             d eps       ncg     rms          ort
SDA:   1    -0.334290445994E+03    0.28109E+00    0.00000E+00 11088   0.707E+00 0.000E+00
CGA:   2    -0.334485959298E+03   -0.19551E+00   -0.19553E+00 11088   0.449E+00-0.393E-03
CGA:   3    -0.334549672349E+03   -0.63713E-01   -0.63741E-01 11088   0.115E+00 0.142E-03
CGA:   4    -0.334566158416E+03   -0.16486E-01   -0.16466E-01 11088   0.255E-01-0.367E-03
CGA:   5    -0.334570376617E+03   -0.42182E-02   -0.42129E-02 11088   0.704E-02-0.182E-03
CGA:   6    -0.334571629758E+03   -0.12531E-02   -0.12535E-02 11088   0.204E-02 0.261E-04
CGA:   7    -0.334572035156E+03   -0.40540E-03   -0.40553E-03 11088   0.754E-03-0.262E-04
CGA:   8    -0.334572193066E+03   -0.15791E-03   -0.15856E-03 11088   0.413E-03-0.324E-04
CGA:   9    -0.334572274962E+03   -0.81896E-04   -0.82855E-04 11088   0.268E-03-0.608E-04
CGA:  10    -0.334572324506E+03   -0.49545E-04   -0.51188E-04 11088   0.128E-03-0.567E-04
CGA:  11    -0.334572346991E+03   -0.22484E-04   -0.23269E-04 11088   0.583E-04-0.234E-04
CGA:  12    -0.334572356642E+03   -0.96516E-05   -0.97546E-05 11088   0.328E-04-0.157E-04
  38 F= -.33457236E+03 E0= -.33457231E+03  d E =-.814040E-03  mag=     6.0000
       N       E                     dE             d eps       ncg     rms          ort
SDA:   1    -0.334546985647E+03    0.25361E-01    0.00000E+00 11088   0.610E-01 0.000E+00
CGA:   2    -0.334564525028E+03   -0.17539E-01   -0.17527E-01 11088   0.354E-01 0.122E-03
CGA:   3    -0.334570026112E+03   -0.55011E-02   -0.54924E-02 11088   0.993E-02-0.201E-03
CGA:   4    -0.334571446721E+03   -0.14206E-02   -0.14219E-02 11088   0.239E-02 0.214E-04
CGA:   5    -0.334571830400E+03   -0.38368E-03   -0.38662E-03 11088   0.708E-03 0.886E-04
CGA:   6    -0.334571970839E+03   -0.14044E-03   -0.14046E-03 11088   0.233E-03 0.876E-05
CGA:   7    -0.334572026031E+03   -0.55192E-04   -0.56125E-04 11088   0.114E-03-0.208E-04
CGA:   8    -0.334572047126E+03   -0.21095E-04   -0.21001E-04 11088   0.392E-04 0.125E-04
CGA:   9    -0.334572056520E+03   -0.93933E-05   -0.92829E-05 11088   0.159E-04 0.623E-05
  39 F= -.33457206E+03 E0= -.33457201E+03  d E =0.300122E-03  mag=     6.0000
       N       E                     dE             d eps       ncg     rms          ort
SDA:   1    -0.334559697827E+03    0.12349E-01    0.00000E+00 11088   0.334E-01 0.000E+00
CGA:   2    -0.334567979860E+03   -0.82820E-02   -0.82870E-02 11088   0.233E-01-0.102E-03
CGA:   3    -0.334571374130E+03   -0.33943E-02   -0.33989E-02 11088   0.650E-02 0.949E-04
CGA:   4    -0.334572306705E+03   -0.93258E-03   -0.93711E-03 11088   0.129E-02 0.846E-04
CGA:   5    -0.334572530880E+03   -0.22417E-03   -0.22394E-03 11088   0.385E-03-0.110E-04
CGA:   6    -0.334572604229E+03   -0.73349E-04   -0.73350E-04 11088   0.128E-03-0.965E-05
CGA:   7    -0.334572630174E+03   -0.25945E-04   -0.26062E-04 11088   0.529E-04-0.725E-05
CGA:   8    -0.334572638682E+03   -0.85079E-05   -0.86828E-05 11088   0.186E-04 0.922E-05
  40 F= -.33457264E+03 E0= -.33457259E+03  d E =-.582162E-03  mag=     6.0000
       N       E                     dE             d eps       ncg     rms          ort
SDA:   1    -0.334523185960E+03    0.49444E-01    0.00000E+00 11088   0.131E+00 0.000E+00
CGA:   2    -0.334554525176E+03   -0.31339E-01   -0.31337E-01 11088   0.855E-01-0.203E-05
CGA:   3    -0.334568328304E+03   -0.13803E-01   -0.13804E-01 11088   0.239E-01 0.239E-04
CGA:   4    -0.334571555147E+03   -0.32268E-02   -0.32328E-02 11088   0.463E-02 0.980E-04
CGA:   5    -0.334572302708E+03   -0.74756E-03   -0.74934E-03 11088   0.132E-02 0.659E-04
CGA:   6    -0.334572552265E+03   -0.24956E-03   -0.24956E-03 11088   0.396E-03-0.144E-05
CGA:   7    -0.334572632120E+03   -0.79855E-04   -0.80288E-04 11088   0.155E-03-0.265E-04
CGA:   8    -0.334572655728E+03   -0.23607E-04   -0.23989E-04 11088   0.605E-04 0.175E-04
CGA:   9    -0.334572665909E+03   -0.10181E-04   -0.10677E-04 11088   0.224E-04 0.177E-04
CGA:  10    -0.334572672966E+03   -0.70577E-05   -0.68218E-05 11088   0.965E-05 0.464E-05
  41 F= -.33457267E+03 E0= -.33457263E+03  d E =-.342843E-04  mag=     6.0000
       N       E                     dE             d eps       ncg     rms          ort
SDA:   1    -0.327065963321E+03    0.75067E+01    0.00000E+00 11088   0.200E+02 0.000E+00
CGA:   2    -0.331784660052E+03   -0.47187E+01   -0.47103E+01 11088   0.128E+02 0.133E+00
CGA:   3    -0.333904200821E+03   -0.21195E+01   -0.21168E+01 11088   0.360E+01-0.257E-01
CGA:   4    -0.334393950363E+03   -0.48975E+00   -0.48986E+00 11088   0.711E+00-0.138E-02
CGA:   5    -0.334507578853E+03   -0.11363E+00   -0.11374E+00 11088   0.209E+00 0.342E-02
CGA:   6    -0.334546048228E+03   -0.38469E-01   -0.38479E-01 11088   0.628E-01 0.169E-02
CGA:   7    -0.334558240485E+03   -0.12192E-01   -0.12196E-01 11088   0.228E-01-0.105E-02
CGA:   8    -0.334562607411E+03   -0.43669E-02   -0.43624E-02 11088   0.102E-01 0.822E-03
CGA:   9    -0.334564775277E+03   -0.21679E-02   -0.21652E-02 11088   0.553E-02 0.174E-03
CGA:  10    -0.334565962840E+03   -0.11876E-02   -0.11944E-02 11088   0.277E-02-0.302E-03
CGA:  11    -0.334566431780E+03   -0.46894E-03   -0.47122E-03 11088   0.984E-03 0.203E-03
CGA:  12    -0.334566669830E+03   -0.23805E-03   -0.23706E-03 11088   0.337E-03 0.295E-04
CGA:  13    -0.334566763846E+03   -0.94016E-04   -0.13559E-03 11088   0.607E-03-0.211E-03
CGA:  14    -0.334566815959E+03   -0.52112E-04   -0.57655E-04 11088   0.129E-03 0.520E-04
CGA:  15    -0.334566846034E+03   -0.30075E-04   -0.29517E-04 11088   0.553E-04 0.378E-04
CGA:  16    -0.334566882928E+03   -0.36894E-04    0.23068E-04 11088   0.558E-04 0.244E-04
CGA:  17    -0.334566931961E+03   -0.49034E-04    0.14647E-04 11088   0.440E-04 0.420E-04
CGA:  18    -0.334566932051E+03   -0.89211E-07   -0.36669E-05 11088   0.272E-04 0.313E-04
CGA:  19    -0.334566955822E+03   -0.23771E-04   -0.23708E-04 11088   0.597E-04-0.203E-06
CGA:  20    -0.334567029320E+03   -0.73498E-04    0.38352E-05 11088   0.445E-04 0.246E-04
CGA:  21    -0.334567074603E+03   -0.45283E-04    0.11938E-04 11088   0.220E-04 0.367E-04
CGA:  22    -0.334567071971E+03    0.26316E-05   -0.83708E-06 11088   0.158E-04 0.185E-04
  42 F= -.33456707E+03 E0= -.33456703E+03  d E =0.560099E-02  mag=     6.0000
       N       E                     dE             d eps       ncg     rms          ort
SDA:   1    -0.334264247528E+03    0.30283E+00    0.00000E+00 11088   0.865E+00 0.000E+00
CGA:   2    -0.334448776985E+03   -0.18453E+00   -0.18452E+00 11088   0.505E+00 0.170E-02
CGA:   3    -0.334536675771E+03   -0.87899E-01   -0.87908E-01 11088   0.164E+00 0.291E-03
CGA:   4    -0.334559924714E+03   -0.23249E-01   -0.23219E-01 11088   0.342E-01-0.531E-03
CGA:   5    -0.334565409454E+03   -0.54847E-02   -0.54746E-02 11088   0.987E-02-0.249E-03
CGA:   6    -0.334567222759E+03   -0.18133E-02   -0.18119E-02 11088   0.292E-02-0.880E-04
CGA:   7    -0.334567792898E+03   -0.57014E-03   -0.57014E-03 11088   0.957E-03-0.168E-05
CGA:   8    -0.334567992565E+03   -0.19967E-03   -0.19899E-03 11088   0.353E-03 0.862E-04
CGA:   9    -0.334568093537E+03   -0.10097E-03   -0.10441E-03 11088   0.265E-03-0.484E-04
CGA:  10    -0.334568129883E+03   -0.36347E-04   -0.36074E-04 11088   0.118E-03-0.569E-05
CGA:  11    -0.334568155136E+03   -0.25252E-04   -0.25381E-04 11088   0.404E-04-0.747E-05
CGA:  12    -0.334568000040E+03    0.15510E-03   -0.83552E-04 11088   0.109E-02-0.190E-03
CGA:  13    -0.334568107750E+03   -0.10771E-03   -0.13673E-03 11088   0.209E-03 0.120E-03
CGA:  14    -0.334568160849E+03   -0.53099E-04   -0.48813E-04 11088   0.747E-04-0.290E-04
CGA:  15    -0.334568174764E+03   -0.13916E-04   -0.12588E-04 11088   0.355E-04-0.856E-05
CGA:  16    -0.334568177475E+03   -0.27104E-05   -0.39205E-05 11088   0.108E-04 0.557E-05
  43 F= -.33456818E+03 E0= -.33456814E+03  d E =-.110550E-02  mag=     6.0000
       N       E                     dE             d eps       ncg     rms          ort
SDA:   1    -0.333634432104E+03    0.93374E+00    0.00000E+00 11088   0.255E+01 0.000E+00
CGA:   2    -0.334210980118E+03   -0.57655E+00   -0.57701E+00 11088   0.163E+01 0.120E-02
CGA:   3    -0.334484299234E+03   -0.27332E+00   -0.27322E+00 11088   0.488E+00 0.137E-03
CGA:   4    -0.334550647994E+03   -0.66349E-01   -0.66249E-01 11088   0.926E-01-0.592E-03
CGA:   5    -0.334565361298E+03   -0.14713E-01   -0.14717E-01 11088   0.268E-01-0.284E-04
CGA:   6    -0.334570292765E+03   -0.49315E-02   -0.49370E-02 11088   0.797E-02 0.461E-04
CGA:   7    -0.334571789525E+03   -0.14968E-02   -0.14982E-02 11088   0.267E-02 0.117E-04
CGA:   8    -0.334572314351E+03   -0.52483E-03   -0.52672E-03 11088   0.128E-02 0.214E-04
CGA:   9    -0.334572575726E+03   -0.26137E-03   -0.25631E-03 11088   0.710E-03-0.592E-04
CGA:  10    -0.334572727306E+03   -0.15158E-03   -0.14782E-03 11088   0.325E-03-0.616E-04
CGA:  11    -0.334572786753E+03   -0.59447E-04   -0.59898E-04 11088   0.125E-03 0.613E-05
CGA:  12    -0.334572814307E+03   -0.27554E-04   -0.27016E-04 11088   0.580E-04-0.881E-05
CGA:  13    -0.334572822285E+03   -0.79773E-05   -0.85618E-05 11088   0.211E-04 0.525E-05
  44 F= -.33457282E+03 E0= -.33457278E+03  d E =-.464481E-02  mag=     6.0000
       N       E                     dE             d eps       ncg     rms          ort
SDA:   1    -0.334487083040E+03    0.85731E-01    0.00000E+00 11088   0.286E+00 0.000E+00
CGA:   2    -0.334534307554E+03   -0.47225E-01   -0.47263E-01 11088   0.128E+00 0.225E-03
CGA:   3    -0.334560744897E+03   -0.26437E-01   -0.26414E-01 11088   0.621E-01-0.527E-03
CGA:   4    -0.334569760929E+03   -0.90160E-02   -0.90096E-02 11088   0.124E-01-0.889E-04
CGA:   5    -0.334571538223E+03   -0.17773E-02   -0.17965E-02 11088   0.298E-02 0.182E-03
CGA:   6    -0.334572100175E+03   -0.56195E-03   -0.56553E-03 11088   0.942E-03 0.641E-04
CGA:   7    -0.334572287493E+03   -0.18732E-03   -0.18864E-03 11088   0.277E-03 0.301E-04
CGA:   8    -0.334572344919E+03   -0.57426E-04   -0.58312E-04 11088   0.896E-04 0.265E-04
CGA:   9    -0.334572371699E+03   -0.26780E-04   -0.26898E-04 11088   0.431E-04-0.309E-05
CGA:  10    -0.334572378169E+03   -0.64700E-05   -0.72171E-05 11088   0.169E-04 0.117E-04
  45 F= -.33457238E+03 E0= -.33457234E+03  d E =0.444116E-03  mag=     6.0000
       N       E                     dE             d eps       ncg     rms          ort
SDA:   1    -0.334501304020E+03    0.71068E-01    0.00000E+00 11088   0.234E+00 0.000E+00
CGA:   2    -0.334541281594E+03   -0.39978E-01   -0.39996E-01 11088   0.113E+00 0.167E-03
CGA:   3    -0.334563686687E+03   -0.22405E-01   -0.22412E-01 11088   0.505E-01 0.211E-03
CGA:   4    -0.334570927066E+03   -0.72404E-02   -0.72484E-02 11088   0.962E-02 0.701E-04
CGA:   5    -0.334572368295E+03   -0.14412E-02   -0.14426E-02 11088   0.246E-02 0.157E-04
CGA:   6    -0.334572833047E+03   -0.46475E-03   -0.46512E-03 11088   0.775E-03 0.118E-04
CGA:   7    -0.334572991352E+03   -0.15831E-03   -0.15787E-03 11088   0.251E-03-0.344E-04
CGA:   8    -0.334573035083E+03   -0.43732E-04   -0.44403E-04 11088   0.845E-04 0.228E-04
CGA:   9    -0.334573051543E+03   -0.16460E-04   -0.16901E-04 11088   0.360E-04 0.147E-04
CGA:  10    -0.334573059523E+03   -0.79800E-05   -0.80716E-05 11088   0.154E-04 0.434E-05
  46 F= -.33457306E+03 E0= -.33457302E+03  d E =-.681354E-03  mag=     6.0000
