 vasp.6.1.2 22Jul20 (build Mar 19 2021 09:51:12) complex                        
  
 executed on             LinuxIFC date 2021.07.23  19:39:46
 running on   12 total cores
 distrk:  each k-point on   12 cores,    1 groups
 distr:  one band on NCORE=   4 cores,    3 groups


--------------------------------------------------------------------------------------------------------


 INCAR:
 POTCAR:    PAW_PBE Ca_sv 06Sep2000               
 POTCAR:    PAW_PBE Ti_pv 07Sep2000               
 POTCAR:    PAW_PBE O 08Apr2002                   
 POTCAR:    PAW_PBE Ca_sv 06Sep2000               
   VRHFIN =Ca: 3s3p4s                                                                               
   LEXCH  = PE                                                                                      
   EATOM  =  1006.0909 eV,   73.9456 Ry                                                             
                                                                                                    
   TITEL  = PAW_PBE Ca_sv 06Sep2000                                                                 
   LULTRA =        F    use ultrasoft PP ?                                                          
   IUNSCR =        1    unscreen: 0-lin 1-nonlin 2-no                                               
   RPACOR =    2.000    partial core radius                                                         
   POMASS =   40.078; ZVAL   =   10.000    mass and valenz                                          
   RCORE  =    2.300    outmost cutoff radius                                                       
   RWIGS  =    2.500; RWIGS  =    1.323    wigner-seitz radius (au A)                               
   ENMAX  =  266.622; ENMIN  =  199.967 eV                                                          
   RCLOC  =    1.808    cutoff for local pot                                                        
   LCOR   =        T    correct aug charges                                                         
   LPAW   =        T    paw PP                                                                      
   EAUG   =  420.852                                                                                
   RMAX   =    2.359    core radius for proj-oper                                                   
   RAUG   =    1.300    factor for augmentation sphere                                              
   RDEP   =    2.392    radius for radial grids                                                     
   RDEPT  =    1.987    core radius for aug-charge                                                  
                                                                                                    
   Atomic configuration                                                                             
    7 entries                                                                                       
     n  l   j            E        occ.                                                              
     1  0  0.50     -3949.1705   2.0000                                                             
     2  0  0.50      -414.3434   2.0000                                                             
     2  1  1.50      -334.7047   6.0000                                                             
     3  0  0.50       -47.0896   2.0000                                                             
     4  0  0.50        -3.7663   2.0000                                                             
     3  1  1.50       -28.0061   6.0000                                                             
     3  2  1.50        -4.0817   0.0000                                                             
   Description                                                                                      
     l       E           TYP  RCUT    TYP  RCUT                                                     
     0    -47.0896403     23  2.300                                                                 
     0     -3.7663320     23  2.300                                                                 
     1    -28.0060855     23  2.300                                                                 
     1      6.8029130     23  2.300                                                                 
     2     -4.0817478     23  2.300                                                                 
     2      0.4464412     23  2.300                                                                 
  local pseudopotential read in
  partial core-charges read in
  partial kinetic energy density read in
  atomic valenz-charges read in
  non local Contribution for L=           0  read in
    real space projection operators read in
  non local Contribution for L=           0  read in
    real space projection operators read in
  non local Contribution for L=           1  read in
    real space projection operators read in
  non local Contribution for L=           1  read in
    real space projection operators read in
  non local Contribution for L=           2  read in
    real space projection operators read in
  non local Contribution for L=           2  read in
    real space projection operators read in
    PAW grid and wavefunctions read in
 
   number of l-projection  operators is LMAX  =           6
   number of lm-projection operators is LMMAX =          18
 
 POTCAR:    PAW_PBE Ti_pv 07Sep2000               
   VRHFIN =Ti: d3 s1                                                                                
   LEXCH  = PE                                                                                      
   EATOM  =  1042.5995 eV,   76.6289 Ry                                                             
                                                                                                    
   TITEL  = PAW_PBE Ti_pv 07Sep2000                                                                 
   LULTRA =        F    use ultrasoft PP ?                                                          
   IUNSCR =        1    unscreen: 0-lin 1-nonlin 2-no                                               
   RPACOR =    2.200    partial core radius                                                         
   POMASS =   47.880; ZVAL   =   10.000    mass and valenz                                          
   RCORE  =    2.500    outmost cutoff radius                                                       
   RWIGS  =    2.500; RWIGS  =    1.323    wigner-seitz radius (au A)                               
   ENMAX  =  222.335; ENMIN  =  166.751 eV                                                          
   RCLOC  =    1.701    cutoff for local pot                                                        
   LCOR   =        T    correct aug charges                                                         
   LPAW   =        T    paw PP                                                                      
   EAUG   =  482.848                                                                                
   DEXC   =    0.000                                                                                
   RMAX   =    2.564    core radius for proj-oper                                                   
   RAUG   =    1.300    factor for augmentation sphere                                              
   RDEP   =    2.538    radius for radial grids                                                     
   RDEPT  =    1.952    core radius for aug-charge                                                  
                                                                                                    
   Atomic configuration                                                                             
    8 entries                                                                                       
     n  l   j            E        occ.                                                              
     1  0  0.50     -4865.3608   2.0000                                                             
     2  0  0.50      -533.1368   2.0000                                                             
     2  1  1.50      -440.5031   6.0000                                                             
     3  0  0.50       -59.3186   2.0000                                                             
     3  1  1.50       -35.7012   6.0000                                                             
     3  2  2.50        -1.9157   3.0000                                                             
     4  0  0.50        -3.7291   1.0000                                                             
     4  3  2.50        -1.3606   0.0000                                                             
   Description                                                                                      
     l       E           TYP  RCUT    TYP  RCUT                                                     
     1    -35.7012140     23  2.300                                                                 
     1     -1.3605826     23  2.300                                                                 
     2     -1.9156996     23  2.500                                                                 
     2     -0.4063033     23  2.500                                                                 
     0     -3.7290856     23  2.500                                                                 
     0     20.4087390     23  2.500                                                                 
  local pseudopotential read in
  partial core-charges read in
  partial kinetic energy density read in
  atomic valenz-charges read in
  non local Contribution for L=           1  read in
    real space projection operators read in
  non local Contribution for L=           1  read in
    real space projection operators read in
  non local Contribution for L=           2  read in
    real space projection operators read in
  non local Contribution for L=           2  read in
    real space projection operators read in
  non local Contribution for L=           0  read in
    real space projection operators read in
  non local Contribution for L=           0  read in
    real space projection operators read in
    PAW grid and wavefunctions read in
 
   number of l-projection  operators is LMAX  =           6
   number of lm-projection operators is LMMAX =          18
 
 POTCAR:    PAW_PBE O 08Apr2002                   
   VRHFIN =O: s2p4                                                                                  
   LEXCH  = PE                                                                                      
   EATOM  =   432.3788 eV,   31.7789 Ry                                                             
                                                                                                    
   TITEL  = PAW_PBE O 08Apr2002                                                                     
   LULTRA =        F    use ultrasoft PP ?                                                          
   IUNSCR =        1    unscreen: 0-lin 1-nonlin 2-no                                               
   RPACOR =    1.200    partial core radius                                                         
   POMASS =   16.000; ZVAL   =    6.000    mass and valenz                                          
   RCORE  =    1.520    outmost cutoff radius                                                       
   RWIGS  =    1.550; RWIGS  =    0.820    wigner-seitz radius (au A)                               
   ENMAX  =  400.000; ENMIN  =  300.000 eV                                                          
   ICORE  =        2    local potential                                                             
   LCOR   =        T    correct aug charges                                                         
   LPAW   =        T    paw PP                                                                      
   EAUG   =  605.392                                                                                
   DEXC   =    0.000                                                                                
   RMAX   =    1.553    core radius for proj-oper                                                   
   RAUG   =    1.300    factor for augmentation sphere                                              
   RDEP   =    1.550    radius for radial grids                                                     
   RDEPT  =    1.329    core radius for aug-charge                                                  
                                                                                                    
   Atomic configuration                                                                             
    4 entries                                                                                       
     n  l   j            E        occ.                                                              
     1  0  0.50      -514.6923   2.0000                                                             
     2  0  0.50       -23.9615   2.0000                                                             
     2  1  0.50        -9.0305   4.0000                                                             
     3  2  1.50        -9.5241   0.0000                                                             
   Description                                                                                      
     l       E           TYP  RCUT    TYP  RCUT                                                     
     0    -23.9615318     23  1.200                                                                 
     0     -9.5240782     23  1.200                                                                 
     1     -9.0304911     23  1.520                                                                 
     1      8.1634956     23  1.520                                                                 
     2     -9.5240782      7  1.500                                                                 
  local pseudopotential read in
  partial core-charges read in
  partial kinetic energy density read in
  kinetic energy density of atom read in
  atomic valenz-charges read in
  non local Contribution for L=           0  read in
    real space projection operators read in
  non local Contribution for L=           0  read in
    real space projection operators read in
  non local Contribution for L=           1  read in
    real space projection operators read in
  non local Contribution for L=           1  read in
    real space projection operators read in
    PAW grid and wavefunctions read in
 
   number of l-projection  operators is LMAX  =           4
   number of lm-projection operators is LMMAX =           8
 
 Optimization of the real space projectors (new method)

 maximal supplied QI-value         = 16.25
 optimisation between [QCUT,QGAM] = [ 11.54, 23.24] = [ 37.28,151.24] Ry 
 Optimized for a Real-space Cutoff    1.58 Angstroem

   l    n(q)    QCUT    max X(q) W(low)/X(q) W(high)/X(q)  e(spline) 
   0     11    11.539    11.817    0.25E-04    0.22E-05    0.26E-07
   0     11    11.539     8.461    0.39E-04    0.49E-05    0.55E-07
   1     11    11.539     3.957    0.21E-05    0.44E-05    0.32E-07
   1     11    11.539     4.314    0.56E-04    0.44E-04    0.19E-06
   2     10    11.539    14.565    0.25E-03    0.21E-04    0.75E-06
   2     10    11.539    14.552    0.23E-03    0.22E-04    0.72E-06
 Optimization of the real space projectors (new method)

 maximal supplied QI-value         = 15.12
 optimisation between [QCUT,QGAM] = [ 11.64, 23.28] = [ 37.95,151.78] Ry 
 Optimized for a Real-space Cutoff    1.49 Angstroem

   l    n(q)    QCUT    max X(q) W(low)/X(q) W(high)/X(q)  e(spline) 
   1     10    11.641     4.216    0.17E-04    0.40E-04    0.50E-07
   1     10    11.641     5.422    0.66E-04    0.10E-03    0.13E-06
   2      9    11.641    72.084    0.68E-04    0.13E-03    0.50E-06
   2      9    11.641    65.965    0.66E-04    0.13E-03    0.50E-06
   0     10    11.641    41.531    0.10E-03    0.87E-04    0.31E-06
   0     10    11.641    16.290    0.75E-04    0.66E-04    0.24E-06
 Optimization of the real space projectors (new method)

 maximal supplied QI-value         = 24.76
 optimisation between [QCUT,QGAM] = [ 11.64, 23.27] = [ 37.91,151.63] Ry 
 Optimized for a Real-space Cutoff    1.14 Angstroem

   l    n(q)    QCUT    max X(q) W(low)/X(q) W(high)/X(q)  e(spline) 
   0      8    11.635    20.381    0.10E-03    0.33E-03    0.24E-06
   0      8    11.635    15.268    0.11E-03    0.35E-03    0.26E-06
   1      7    11.635     5.964    0.24E-03    0.31E-03    0.30E-06
   1      7    11.635     5.382    0.22E-03    0.25E-03    0.26E-06
  PAW_PBE Ca_sv 06Sep2000               :
 energy of atom  1       EATOM=-1006.0909
 kinetic energy error for atom=    0.0022 (will be added to EATOM!!)
  PAW_PBE Ti_pv 07Sep2000               :
 energy of atom  2       EATOM=-1042.5995
 kinetic energy error for atom=    0.0019 (will be added to EATOM!!)
  PAW_PBE O 08Apr2002                   :
 energy of atom  3       EATOM= -432.3788
 kinetic energy error for atom=    0.0208 (will be added to EATOM!!)
 
 
 POSCAR: Ca2 Ti4 O8
  positions in direct lattice
  velocities in cartesian coordinates

 METAGGA = SCAN     LMAXTAU =  6    LMIXTAU =  F

 exchange correlation table for  LEXCH =        8
   RHO(1)=    0.500       N(1)  =     2000
   RHO(2)=  100.500       N(2)  =     4000
 


--------------------------------------------------------------------------------------------------------


 ion  position               nearest neighbor table
   1  0.384  0.767  0.247-   9 2.32   9 2.32  14 2.40  14 2.40  12 2.41  12 2.41   5 3.09   3 3.14

   2  0.615  0.231  0.752-  10 2.31  10 2.31  13 2.40  13 2.40  11 2.43  11 2.44   6 3.10   4 3.16

   3  0.128  0.261  0.432-   9 1.98  11 2.05  12 2.12  12 2.13   7 2.15   7 2.16   4 2.94   1 3.14
                             4 3.17
   4  0.871  0.740  0.566-  10 2.01  12 2.04  11 2.11  11 2.12   7 2.12   7 2.12   3 2.94   2 3.16
                             3 3.17
   5  0.133  0.266  0.071-   9 1.99  13 2.03  14 2.11  14 2.11   8 2.17   8 2.17   6 3.04   1 3.09
                             6 3.15   6 3.16
   6  0.868  0.734  0.929-  10 1.96  14 2.04  13 2.11  13 2.11   8 2.18   8 2.18   5 3.04   2 3.10
                             5 3.15   5 3.16
   7  0.498  0.998  0.502-   4 2.12   4 2.12   3 2.15   3 2.16
   8  0.500  0.000  0.001-   5 2.17   5 2.17   6 2.18   6 2.18
   9  0.055  0.108  0.252-   3 1.98   5 1.99   1 2.32   1 2.32
  10  0.945  0.891  0.750-   6 1.96   4 2.01   2 2.31   2 2.31
  11  0.233  0.467  0.607-   3 2.05   4 2.11   4 2.12   2 2.43   2 2.44
  12  0.768  0.538  0.391-   4 2.04   3 2.12   3 2.13   1 2.41   1 2.41
  13  0.230  0.459  0.893-   5 2.03   6 2.11   6 2.11   2 2.40   2 2.40
  14  0.770  0.539  0.107-   6 2.04   5 2.11   5 2.11   1 2.40   1 2.40
 

IMPORTANT INFORMATION: All symmetrisations will be switched off!
NOSYMM: (Re-)initialisation of all symmetry stuff for point group C_1.


----------------------------------------------------------------------------------------

                                     Primitive cell                                     

  volume of cell :     157.5302

  direct lattice vectors                    reciprocal lattice vectors
     0.000135230 -0.000387918  3.107496918     0.099436605 -0.000358440  0.321798039
     5.027441816  0.018491030 -1.553474721     0.198908497 -0.000783981 -0.000008754
     0.039742781 10.083385952 -0.001049088    -0.000360935  0.099174460  0.000012396

  length of vectors
     3.107496945  5.262014523 10.083464327     0.336811141  0.198910043  0.099175118

  position of ions in fractional coordinates (direct lattice)
     0.384119055  0.766691770  0.247485725
     0.615214516  0.230893914  0.752376406
     0.128421336  0.261150738  0.432147505
     0.870547081  0.740165839  0.565930388
     0.133481942  0.266237911  0.070675068
     0.867933299  0.734234811  0.928721215
     0.498370064  0.998433387  0.502215402
     0.500486576  0.000034652  0.000911699
     0.054645999  0.108053533  0.251843685
     0.945363629  0.891112393  0.749972887
     0.233079295  0.466603187  0.607425564
     0.768107790  0.537763542  0.390835771
     0.229902935  0.459163979  0.892657138
     0.770326484  0.539460343  0.106801548

  ion indices of the primitive-cell ions
   primitive index   ion index
                 1           1
                 2           2
                 3           3
                 4           4
                 5           5
                 6           6
                 7           7
                 8           8
                 9           9
                10          10
                11          11
                12          12
                13          13
                14          14

----------------------------------------------------------------------------------------

 
 
 KPOINTS: K-points file                           

Automatic generation of k-mesh.
Space group operators:
 irot       det(A)        alpha          n_x          n_y          n_z        tau_x        tau_y        tau_z
    1     1.000000     0.000000     1.000000     0.000000     0.000000     0.000000     0.000000     0.000000
 
 Subroutine IBZKPT returns following result:
 ===========================================
 
 Found    155 irreducible k-points:
 
 Following reciprocal coordinates:
            Coordinates               Weight
  0.000000  0.000000  0.000000      1.000000
  0.090909 -0.000000 -0.000000      2.000000
  0.181818 -0.000000  0.000000      2.000000
  0.272727 -0.000000  0.000000      2.000000
  0.363636 -0.000000 -0.000000      2.000000
  0.454545  0.000000  0.000000      2.000000
 -0.000000  0.142857 -0.000000      2.000000
  0.090909  0.142857  0.000000      2.000000
  0.181818  0.142857  0.000000      2.000000
  0.272727  0.142857 -0.000000      2.000000
  0.363636  0.142857  0.000000      2.000000
  0.454545  0.142857  0.000000      2.000000
 -0.454545  0.142857  0.000000      2.000000
 -0.363636  0.142857  0.000000      2.000000
 -0.272727  0.142857 -0.000000      2.000000
 -0.181818  0.142857  0.000000      2.000000
 -0.090909  0.142857 -0.000000      2.000000
 -0.000000  0.285714 -0.000000      2.000000
  0.090909  0.285714  0.000000      2.000000
  0.181818  0.285714 -0.000000      2.000000
  0.272727  0.285714 -0.000000      2.000000
  0.363636  0.285714  0.000000      2.000000
  0.454545  0.285714 -0.000000      2.000000
 -0.454545  0.285714 -0.000000      2.000000
 -0.363636  0.285714  0.000000      2.000000
 -0.272727  0.285714 -0.000000      2.000000
 -0.181818  0.285714 -0.000000      2.000000
 -0.090909  0.285714  0.000000      2.000000
 -0.000000  0.428571  0.000000      2.000000
  0.090909  0.428571  0.000000      2.000000
  0.181818  0.428571 -0.000000      2.000000
  0.272727  0.428571  0.000000      2.000000
  0.363636  0.428571  0.000000      2.000000
  0.454545  0.428571 -0.000000      2.000000
 -0.454545  0.428571  0.000000      2.000000
 -0.363636  0.428571 -0.000000      2.000000
 -0.272727  0.428571  0.000000      2.000000
 -0.181818  0.428571  0.000000      2.000000
 -0.090909  0.428571 -0.000000      2.000000
  0.000000  0.000000  0.250000      2.000000
  0.090909 -0.000000  0.250000      2.000000
  0.181818 -0.000000  0.250000      2.000000
  0.272727  0.000000  0.250000      2.000000
  0.363636  0.000000  0.250000      2.000000
  0.454545  0.000000  0.250000      2.000000
 -0.454545 -0.000000  0.250000      2.000000
 -0.363636  0.000000  0.250000      2.000000
 -0.272727  0.000000  0.250000      2.000000
 -0.181818  0.000000  0.250000      2.000000
 -0.090909  0.000000  0.250000      2.000000
  0.000000  0.142857  0.250000      2.000000
  0.090909  0.142857  0.250000      2.000000
  0.181818  0.142857  0.250000      2.000000
  0.272727  0.142857  0.250000      2.000000
  0.363636  0.142857  0.250000      2.000000
  0.454545  0.142857  0.250000      2.000000
 -0.454545  0.142857  0.250000      2.000000
 -0.363636  0.142857  0.250000      2.000000
 -0.272727  0.142857  0.250000      2.000000
 -0.181818  0.142857  0.250000      2.000000
 -0.090909  0.142857  0.250000      2.000000
  0.000000  0.285714  0.250000      2.000000
  0.090909  0.285714  0.250000      2.000000
  0.181818  0.285714  0.250000      2.000000
  0.272727  0.285714  0.250000      2.000000
  0.363636  0.285714  0.250000      2.000000
  0.454545  0.285714  0.250000      2.000000
 -0.454545  0.285714  0.250000      2.000000
 -0.363636  0.285714  0.250000      2.000000
 -0.272727  0.285714  0.250000      2.000000
 -0.181818  0.285714  0.250000      2.000000
 -0.090909  0.285714  0.250000      2.000000
  0.000000  0.428571  0.250000      2.000000
  0.090909  0.428571  0.250000      2.000000
  0.181818  0.428571  0.250000      2.000000
  0.272727  0.428571  0.250000      2.000000
  0.363636  0.428571  0.250000      2.000000
  0.454545  0.428571  0.250000      2.000000
 -0.454545  0.428571  0.250000      2.000000
 -0.363636  0.428571  0.250000      2.000000
 -0.272727  0.428571  0.250000      2.000000
 -0.181818  0.428571  0.250000      2.000000
 -0.090909  0.428571  0.250000      2.000000
  0.000000 -0.428571  0.250000      2.000000
  0.090909 -0.428571  0.250000      2.000000
  0.181818 -0.428571  0.250000      2.000000
  0.272727 -0.428571  0.250000      2.000000
  0.363636 -0.428571  0.250000      2.000000
  0.454545 -0.428571  0.250000      2.000000
 -0.454545 -0.428571  0.250000      2.000000
 -0.363636 -0.428571  0.250000      2.000000
 -0.272727 -0.428571  0.250000      2.000000
 -0.181818 -0.428571  0.250000      2.000000
 -0.090909 -0.428571  0.250000      2.000000
  0.000000 -0.285714  0.250000      2.000000
  0.090909 -0.285714  0.250000      2.000000
  0.181818 -0.285714  0.250000      2.000000
  0.272727 -0.285714  0.250000      2.000000
  0.363636 -0.285714  0.250000      2.000000
  0.454545 -0.285714  0.250000      2.000000
 -0.454545 -0.285714  0.250000      2.000000
 -0.363636 -0.285714  0.250000      2.000000
 -0.272727 -0.285714  0.250000      2.000000
 -0.181818 -0.285714  0.250000      2.000000
 -0.090909 -0.285714  0.250000      2.000000
  0.000000 -0.142857  0.250000      2.000000
  0.090909 -0.142857  0.250000      2.000000
  0.181818 -0.142857  0.250000      2.000000
  0.272727 -0.142857  0.250000      2.000000
  0.363636 -0.142857  0.250000      2.000000
  0.454545 -0.142857  0.250000      2.000000
 -0.454545 -0.142857  0.250000      2.000000
 -0.363636 -0.142857  0.250000      2.000000
 -0.272727 -0.142857  0.250000      2.000000
 -0.181818 -0.142857  0.250000      2.000000
 -0.090909 -0.142857  0.250000      2.000000
  0.000000  0.000000  0.500000      1.000000
  0.090909 -0.000000  0.500000      2.000000
  0.181818 -0.000000  0.500000      2.000000
  0.272727  0.000000  0.500000      2.000000
  0.363636 -0.000000  0.500000      2.000000
  0.454545  0.000000  0.500000      2.000000
  0.000000  0.142857  0.500000      2.000000
  0.090909  0.142857  0.500000      2.000000
  0.181818  0.142857  0.500000      2.000000
  0.272727  0.142857  0.500000      2.000000
  0.363636  0.142857  0.500000      2.000000
  0.454545  0.142857  0.500000      2.000000
 -0.454545  0.142857  0.500000      2.000000
 -0.363636  0.142857  0.500000      2.000000
 -0.272727  0.142857  0.500000      2.000000
 -0.181818  0.142857  0.500000      2.000000
 -0.090909  0.142857  0.500000      2.000000
  0.000000  0.285714  0.500000      2.000000
  0.090909  0.285714  0.500000      2.000000
  0.181818  0.285714  0.500000      2.000000
  0.272727  0.285714  0.500000      2.000000
  0.363636  0.285714  0.500000      2.000000
  0.454545  0.285714  0.500000      2.000000
 -0.454545  0.285714  0.500000      2.000000
 -0.363636  0.285714  0.500000      2.000000
 -0.272727  0.285714  0.500000      2.000000
 -0.181818  0.285714  0.500000      2.000000
 -0.090909  0.285714  0.500000      2.000000
  0.000000  0.428571  0.500000      2.000000
  0.090909  0.428571  0.500000      2.000000
  0.181818  0.428571  0.500000      2.000000
  0.272727  0.428571  0.500000      2.000000
  0.363636  0.428571  0.500000      2.000000
  0.454545  0.428571  0.500000      2.000000
 -0.454545  0.428571  0.500000      2.000000
 -0.363636  0.428571  0.500000      2.000000
 -0.272727  0.428571  0.500000      2.000000
 -0.181818  0.428571  0.500000      2.000000
 -0.090909  0.428571  0.500000      2.000000
 
 Following cartesian coordinates:
            Coordinates               Weight
  0.000000  0.000000  0.000000      1.000000
  0.009040 -0.000033  0.029254      2.000000
  0.018079 -0.000065  0.058509      2.000000
  0.027119 -0.000098  0.087763      2.000000
  0.036159 -0.000130  0.117017      2.000000
  0.045198 -0.000163  0.146272      2.000000
  0.028415 -0.000112 -0.000001      2.000000
  0.037455 -0.000145  0.029253      2.000000
  0.046495 -0.000177  0.058507      2.000000
  0.055535 -0.000210  0.087762      2.000000
  0.064574 -0.000242  0.117016      2.000000
  0.073614 -0.000275  0.146271      2.000000
 -0.016783  0.000051 -0.146273      2.000000
 -0.007743  0.000018 -0.117019      2.000000
  0.001296 -0.000014 -0.087764      2.000000
  0.010336 -0.000047 -0.058510      2.000000
  0.019376 -0.000079 -0.029256      2.000000
  0.056831 -0.000224 -0.000003      2.000000
  0.065871 -0.000257  0.029252      2.000000
  0.074910 -0.000289  0.058506      2.000000
  0.083950 -0.000322  0.087761      2.000000
  0.092990 -0.000354  0.117015      2.000000
  0.102029 -0.000387  0.146269      2.000000
  0.011633 -0.000061 -0.146274      2.000000
  0.020672 -0.000094 -0.117020      2.000000
  0.029712 -0.000126 -0.087766      2.000000
  0.038752 -0.000159 -0.058511      2.000000
  0.047791 -0.000191 -0.029257      2.000000
  0.085246 -0.000336 -0.000004      2.000000
  0.094286 -0.000369  0.029251      2.000000
  0.103326 -0.000401  0.058505      2.000000
  0.112366 -0.000434  0.087759      2.000000
  0.121405 -0.000466  0.117014      2.000000
  0.130445 -0.000499  0.146268      2.000000
  0.040048 -0.000173 -0.146276      2.000000
  0.049088 -0.000206 -0.117021      2.000000
  0.058127 -0.000238 -0.087767      2.000000
  0.067167 -0.000271 -0.058512      2.000000
  0.076207 -0.000303 -0.029258      2.000000
 -0.000090  0.024794  0.000003      2.000000
  0.008949  0.024761  0.029257      2.000000
  0.017989  0.024728  0.058512      2.000000
  0.027029  0.024696  0.087766      2.000000
  0.036069  0.024663  0.117021      2.000000
  0.045108  0.024631  0.146275      2.000000
 -0.045289  0.024957 -0.146269      2.000000
 -0.036249  0.024924 -0.117014      2.000000
 -0.027209  0.024891 -0.087760      2.000000
 -0.018170  0.024859 -0.058506      2.000000
 -0.009130  0.024826 -0.029251      2.000000
  0.028325  0.024682  0.000002      2.000000
  0.037365  0.024649  0.029256      2.000000
  0.046405  0.024616  0.058511      2.000000
  0.055444  0.024584  0.087765      2.000000
  0.064484  0.024551  0.117019      2.000000
  0.073524  0.024519  0.146274      2.000000
 -0.016873  0.024845 -0.146270      2.000000
 -0.007833  0.024812 -0.117016      2.000000
  0.001206  0.024779 -0.087761      2.000000
  0.010246  0.024747 -0.058507      2.000000
  0.019286  0.024714 -0.029253      2.000000
  0.056741  0.024570  0.000001      2.000000
  0.065780  0.024537  0.029255      2.000000
  0.074820  0.024504  0.058509      2.000000
  0.083860  0.024472  0.087764      2.000000
  0.092900  0.024439  0.117018      2.000000
  0.101939  0.024407  0.146272      2.000000
  0.011542  0.024733 -0.146271      2.000000
  0.020582  0.024700 -0.117017      2.000000
  0.029622  0.024667 -0.087763      2.000000
  0.038661  0.024635 -0.058508      2.000000
  0.047701  0.024602 -0.029254      2.000000
  0.085156  0.024458 -0.000001      2.000000
  0.094196  0.024425  0.029254      2.000000
  0.103236  0.024392  0.058508      2.000000
  0.112275  0.024360  0.087762      2.000000
  0.121315  0.024327  0.117017      2.000000
  0.130355  0.024295  0.146271      2.000000
  0.039958  0.024621 -0.146272      2.000000
  0.048997  0.024588 -0.117018      2.000000
  0.058037  0.024555 -0.087764      2.000000
  0.067077  0.024523 -0.058509      2.000000
  0.076117  0.024490 -0.029255      2.000000
 -0.085337  0.025130  0.000007      2.000000
 -0.076297  0.025097  0.029261      2.000000
 -0.067257  0.025064  0.058516      2.000000
 -0.058218  0.025032  0.087770      2.000000
 -0.049178  0.024999  0.117024      2.000000
 -0.040138  0.024967  0.146279      2.000000
 -0.130535  0.025293 -0.146265      2.000000
 -0.121495  0.025260 -0.117011      2.000000
 -0.112456  0.025227 -0.087756      2.000000
 -0.103416  0.025195 -0.058502      2.000000
 -0.094376  0.025162 -0.029248      2.000000
 -0.056921  0.025018  0.000006      2.000000
 -0.047882  0.024985  0.029260      2.000000
 -0.038842  0.024952  0.058514      2.000000
 -0.029802  0.024920  0.087769      2.000000
 -0.020762  0.024887  0.117023      2.000000
 -0.011723  0.024855  0.146277      2.000000
 -0.102120  0.025181 -0.146266      2.000000
 -0.093080  0.025148 -0.117012      2.000000
 -0.084040  0.025115 -0.087758      2.000000
 -0.075001  0.025083 -0.058503      2.000000
 -0.065961  0.025050 -0.029249      2.000000
 -0.028506  0.024906  0.000004      2.000000
 -0.019466  0.024873  0.029259      2.000000
 -0.010426  0.024840  0.058513      2.000000
 -0.001387  0.024808  0.087767      2.000000
  0.007653  0.024775  0.117022      2.000000
  0.016693  0.024743  0.146276      2.000000
 -0.073704  0.025069 -0.146267      2.000000
 -0.064664  0.025036 -0.117013      2.000000
 -0.055625  0.025003 -0.087759      2.000000
 -0.046585  0.024971 -0.058504      2.000000
 -0.037545  0.024938 -0.029250      2.000000
 -0.000180  0.049587  0.000006      1.000000
  0.008859  0.049555  0.029261      2.000000
  0.017899  0.049522  0.058515      2.000000
  0.026939  0.049489  0.087769      2.000000
  0.035978  0.049457  0.117024      2.000000
  0.045018  0.049424  0.146278      2.000000
  0.028235  0.049475  0.000005      2.000000
  0.037275  0.049443  0.029259      2.000000
  0.046314  0.049410  0.058514      2.000000
  0.055354  0.049377  0.087768      2.000000
  0.064394  0.049345  0.117022      2.000000
  0.073433  0.049312  0.146277      2.000000
 -0.016963  0.049638 -0.146267      2.000000
 -0.007924  0.049606 -0.117013      2.000000
  0.001116  0.049573 -0.087758      2.000000
  0.010156  0.049540 -0.058504      2.000000
  0.019195  0.049508 -0.029249      2.000000
  0.056651  0.049363  0.000004      2.000000
  0.065690  0.049331  0.029258      2.000000
  0.074730  0.049298  0.058512      2.000000
  0.083770  0.049265  0.087767      2.000000
  0.092809  0.049233  0.117021      2.000000
  0.101849  0.049200  0.146276      2.000000
  0.011452  0.049526 -0.146268      2.000000
  0.020492  0.049494 -0.117014      2.000000
  0.029531  0.049461 -0.087759      2.000000
  0.038571  0.049428 -0.058505      2.000000
  0.047611  0.049396 -0.029251      2.000000
  0.085066  0.049251  0.000002      2.000000
  0.094106  0.049219  0.029257      2.000000
  0.103145  0.049186  0.058511      2.000000
  0.112185  0.049153  0.087766      2.000000
  0.121225  0.049121  0.117020      2.000000
  0.130264  0.049088  0.146274      2.000000
  0.039868  0.049414 -0.146269      2.000000
  0.048907  0.049382 -0.117015      2.000000
  0.057947  0.049349 -0.087761      2.000000
  0.066987  0.049316 -0.058506      2.000000
  0.076026  0.049284 -0.029252      2.000000
 


--------------------------------------------------------------------------------------------------------




 Dimension of arrays:
   k-points           NKPTS =    155   k-points in BZ     NKDIM =    155   number of bands    NBANDS=     66
   number of dos      NEDOS =    301   number of ions     NIONS =     14
   non local maximal  LDIM  =      6   non local SUM 2l+1 LMDIM =     18
   total plane-waves  NPLWV =  76800
   max r-space proj   IRMAX =   8102   max aug-charges    IRDMAX=  23457
   dimension x,y,z NGX =    24 NGY =   40 NGZ =   80
   dimension x,y,z NGXF=    48 NGYF=   80 NGZF=  160
   support grid    NGXF=    48 NGYF=   80 NGZF=  160
   ions per type =               2   4   8
   NGX,Y,Z   is equivalent  to a cutoff of  12.84, 12.64, 13.19 a.u.
   NGXF,Y,Z  is equivalent  to a cutoff of  25.68, 25.27, 26.38 a.u.

 SYSTEM =  unknown system                          
 POSCAR =  Ca2 Ti4 O8                              

 Startparameter for this run:
   NWRITE =      2    write-flag & timer
   PREC   = accura    normal or accurate (medium, high low for compatibility)
   ISTART =      0    job   : 0-new  1-cont  2-samecut
   ICHARG =      1    charge: 1-file 2-atom 10-const
   ISPIN  =      2    spin polarized calculation?
   LNONCOLLINEAR =      F non collinear calculations
   LSORBIT =      F    spin-orbit coupling
   INIWAV =      1    electr: 0-lowe 1-rand  2-diag
   LASPH  =      T    aspherical Exc in radial PAW
   METAGGA=      F    non-selfconsistent MetaGGA calc.

 Electronic Relaxation 1
   ENCUT  =  520.0 eV  38.22 Ry    6.18 a.u.   5.78  9.78 18.75*2*pi/ulx,y,z
   ENINI  =  520.0     initial cutoff
   ENAUG  =  605.4 eV  augmentation charge cutoff
   NELM   =    100;   NELMIN=  6; NELMDL= -5     # of ELM steps 
   EDIFF  = 0.1E-04   stopping-criterion for ELM
   LREAL  =      T    real-space projection
   NLSPLINE    = F    spline interpolate recip. space projectors
   LCOMPAT=      F    compatible to vasp.4.4
   GGA_COMPAT  = T    GGA compatible to vasp.4.4-vasp.4.6
   LMAXPAW     = -100 max onsite density
   LMAXMIX     =    4 max onsite mixed and CHGCAR
   VOSKOWN=      0    Vosko Wilk Nusair interpolation
   ROPT   =   -0.00025  -0.00025  -0.00025
 Ionic relaxation
   EDIFFG = -.3E-01   stopping-criterion for IOM
   NSW    =     99    number of steps for IOM
   NBLOCK =      1;   KBLOCK =     99    inner block; outer block 
   IBRION =      2    ionic relax: 0-MD 1-quasi-New 2-CG
   NFREE  =      1    steps in history (QN), initial steepest desc. (CG)
   ISIF   =      3    stress and relaxation
   IWAVPR =     11    prediction:  0-non 1-charg 2-wave 3-comb
   ISYM   =      0    0-nonsym 1-usesym 2-fastsym
   LCORR  =      T    Harris-Foulkes like correction to forces

   POTIM  = 0.5000    time-step for ionic-motion
   TEIN   =    0.0    initial temperature
   TEBEG  =    0.0;   TEEND  =   0.0 temperature during run
   SMASS  =  -3.00    Nose mass-parameter (am)
   estimated Nose-frequenzy (Omega)   =  0.10E-29 period in steps = 0.13E+47 mass=  -0.221E-27a.u.
   SCALEE = 1.0000    scale energy and forces
   NPACO  =    256;   APACO  = 16.0  distance and # of slots for P.C.
   PSTRESS=    0.0 pullay stress

  Mass of Ions in am
   POMASS =  40.08 47.88 16.00
  Ionic Valenz
   ZVAL   =  10.00 10.00  6.00
  Atomic Wigner-Seitz radii
   RWIGS  =  -1.00 -1.00 -1.00
  virtual crystal weights 
   VCA    =   1.00  1.00  1.00
   NELECT =     108.0000    total number of electrons
   NUPDOWN=      -1.0000    fix difference up-down

 DOS related values:
   EMIN   =  10.00;   EMAX   =-10.00  energy-range for DOS
   EFERMI =   0.00
   ISMEAR =     0;   SIGMA  =   0.05  broadening in eV -4-tet -1-fermi 0-gaus

 Electronic relaxation 2 (details)
   IALGO  =     38    algorithm
   LDIAG  =      T    sub-space diagonalisation (order eigenvalues)
   LSUBROT=      F    optimize rotation matrix (better conditioning)
   TURBO    =      0    0=normal 1=particle mesh
   IRESTART =      0    0=no restart 2=restart with 2 vectors
   NREBOOT  =      0    no. of reboots
   NMIN     =      0    reboot dimension
   EREF     =   0.00    reference energy to select bands
   IMIX   =      4    mixing-type and parameters
     AMIX     =   0.40;   BMIX     =  1.00
     AMIX_MAG =   1.60;   BMIX_MAG =  1.00
     AMIN     =   0.10
     WC   =   100.;   INIMIX=   1;  MIXPRE=   1;  MAXMIX= -45

 Intra band minimization:
   WEIMIN = 0.0010     energy-eigenvalue tresh-hold
   EBREAK =  0.38E-07  absolut break condition
   DEPER  =   0.30     relativ break condition  

   TIME   =   0.40     timestep for ELM

  volume/ion in A,a.u.               =      11.25        75.93
  Fermi-wavevector in a.u.,A,eV,Ry     =   1.443538  2.727891 28.351839  2.083801
  Thomas-Fermi vector in A             =   2.561934
 
 Write flags
   LWAVE        =      F    write WAVECAR
   LDOWNSAMPLE  =      F    k-point downsampling of WAVECAR
   LCHARG       =      T    write CHGCAR
   LVTOT        =      F    write LOCPOT, total local potential
   LVHAR        =      F    write LOCPOT, Hartree potential only
   LELF         =      F    write electronic localiz. function (ELF)
   LORBIT       =     11    0 simple, 1 ext, 2 COOP (PROOUT), +10 PAW based schemes


 Dipole corrections
   LMONO  =      F    monopole corrections only (constant potential shift)
   LDIPOL =      F    correct potential (dipole corrections)
   IDIPOL =      0    1-x, 2-y, 3-z, 4-all directions 
   EPSILON=  1.0000000 bulk dielectric constant

 LDA+U is selected, type is set to LDAUTYPE =  2
   angular momentum for each species LDAUL =    -1    2   -1
   U (eV)           for each species LDAUU =   0.0  2.5  0.0
   J (eV)           for each species LDAUJ =   0.0  0.0  0.0
 Exchange correlation treatment:
   GGA     =    --    GGA type
   LEXCH   =     8    internal setting for exchange type
   VOSKOWN=      0    Vosko Wilk Nusair interpolation
   LHFCALC =     F    Hartree Fock is set to
   LHFONE  =     F    Hartree Fock one center treatment
   AEXX    =    0.0000 exact exchange contribution

 Linear response parameters
   LEPSILON=     F    determine dielectric tensor
   LRPA    =     F    only Hartree local field effects (RPA)
   LNABLA  =     F    use nabla operator in PAW spheres
   LVEL    =     F    velocity operator in full k-point grid
   LINTERFAST=   F  fast interpolation
   KINTER  =     0    interpolate to denser k-point grid
   CSHIFT  =0.1000    complex shift for real part using Kramers Kronig
   OMEGAMAX=  -1.0    maximum frequency
   DEG_THRESHOLD= 0.2000000E-02 threshold for treating states as degnerate
   RTIME   =   -0.100 relaxation time in fs
  (WPLASMAI=    0.000 imaginary part of plasma frequency in eV, 0.658/RTIME)
   DFIELD  = 0.0000000 0.0000000 0.0000000 field for delta impulse in time
 
 Orbital magnetization related:
   ORBITALMAG=     F  switch on orbital magnetization
   LCHIMAG   =     F  perturbation theory with respect to B field
   DQ        =  0.001000  dq finite difference perturbation B field
   LLRAUG    =     F  two centre corrections for induced B field



--------------------------------------------------------------------------------------------------------


 conjugate gradient relaxation of ions
 charge density and potential will be updated during run
 spin polarized calculation
 Variant of blocked Davidson
 Davidson routine will perform the subspace rotation
 perform sub-space diagonalisation
    after iterative eigenvector-optimisation
 modified Broyden-mixing scheme, WC =      100.0
 initial mixing is a Kerker type mixing with AMIX =  0.4000 and BMIX =      1.0000
 Hartree-type preconditioning will be used
 using additional bands           12
 real space projection scheme for non local part
 use partial core corrections
 calculate Harris-corrections to forces 
   (improved forces if not selfconsistent)
 use gradient corrections 
 use of overlap-Matrix (Vanderbilt PP)
 Gauss-broadening in eV      SIGMA  =   0.05


--------------------------------------------------------------------------------------------------------


  energy-cutoff  :      520.00
  volume of cell :      157.53
      direct lattice vectors                 reciprocal lattice vectors
     0.000135230 -0.000387918  3.107496918     0.099436605 -0.000358440  0.321798039
     5.027441816  0.018491030 -1.553474721     0.198908497 -0.000783981 -0.000008754
     0.039742781 10.083385952 -0.001049088    -0.000360935  0.099174460  0.000012396

  length of vectors
     3.107496945  5.262014523 10.083464327     0.336811141  0.198910043  0.099175118


 
 k-points in units of 2pi/SCALE and weight: K-points file                           
   0.00000000  0.00000000  0.00000000       0.003
   0.00903969 -0.00003259  0.02925437       0.006
   0.01807938 -0.00006517  0.05850873       0.006
   0.02711907 -0.00009776  0.08776310       0.006
   0.03615877 -0.00013034  0.11701747       0.006
   0.04519846 -0.00016293  0.14627184       0.006
   0.02841550 -0.00011200 -0.00000125       0.006
   0.03745519 -0.00014458  0.02925312       0.006
   0.04649488 -0.00017717  0.05850748       0.006
   0.05553457 -0.00020975  0.08776185       0.006
   0.06457427 -0.00024234  0.11701622       0.006
   0.07361396 -0.00027492  0.14627059       0.006
  -0.01678296  0.00005093 -0.14627309       0.006
  -0.00774327  0.00001834 -0.11701872       0.006
   0.00129643 -0.00001424 -0.08776435       0.006
   0.01033612 -0.00004683 -0.05850998       0.006
   0.01937581 -0.00007941 -0.02925562       0.006
   0.05683100 -0.00022399 -0.00000250       0.006
   0.06587069 -0.00025658  0.02925187       0.006
   0.07491038 -0.00028917  0.05850623       0.006
   0.08395007 -0.00032175  0.08776060       0.006
   0.09298976 -0.00035434  0.11701497       0.006
   0.10202946 -0.00038692  0.14626933       0.006
   0.01163254 -0.00006107 -0.14627434       0.006
   0.02067223 -0.00009365 -0.11701997       0.006
   0.02971193 -0.00012624 -0.08776560       0.006
   0.03875162 -0.00015882 -0.05851124       0.006
   0.04779131 -0.00019141 -0.02925687       0.006
   0.08524650 -0.00033599 -0.00000375       0.006
   0.09428619 -0.00036858  0.02925062       0.006
   0.10332588 -0.00040116  0.05850498       0.006
   0.11236557 -0.00043375  0.08775935       0.006
   0.12140526 -0.00046633  0.11701372       0.006
   0.13044496 -0.00049892  0.14626808       0.006
   0.04004804 -0.00017306 -0.14627559       0.006
   0.04908773 -0.00020565 -0.11702122       0.006
   0.05812742 -0.00023824 -0.08776685       0.006
   0.06716712 -0.00027082 -0.05851249       0.006
   0.07620681 -0.00030341 -0.02925812       0.006
  -0.00009023  0.02479362  0.00000310       0.006
   0.00894946  0.02476103  0.02925747       0.006
   0.01798915  0.02472844  0.05851183       0.006
   0.02702884  0.02469586  0.08776620       0.006
   0.03606853  0.02466327  0.11702057       0.006
   0.04510822  0.02463069  0.14627493       0.006
  -0.04528869  0.02495654 -0.14626874       0.006
  -0.03624900  0.02492396 -0.11701437       0.006
  -0.02720931  0.02489137 -0.08776000       0.006
  -0.01816962  0.02485879 -0.05850564       0.006
  -0.00912993  0.02482620 -0.02925127       0.006
   0.02832527  0.02468162  0.00000185       0.006
   0.03736496  0.02464903  0.02925622       0.006
   0.04640465  0.02461645  0.05851058       0.006
   0.05544434  0.02458386  0.08776495       0.006
   0.06448403  0.02455128  0.11701932       0.006
   0.07352372  0.02451869  0.14627368       0.006
  -0.01687319  0.02484455 -0.14626999       0.006
  -0.00783350  0.02481196 -0.11701562       0.006
   0.00120619  0.02477937 -0.08776125       0.006
   0.01024588  0.02474679 -0.05850689       0.006
   0.01928557  0.02471420 -0.02925252       0.006
   0.05674077  0.02456962  0.00000060       0.006
   0.06578046  0.02453703  0.02925497       0.006
   0.07482015  0.02450445  0.05850933       0.006
   0.08385984  0.02447186  0.08776370       0.006
   0.09289953  0.02443928  0.11701807       0.006
   0.10193922  0.02440669  0.14627243       0.006
   0.01154231  0.02473255 -0.14627124       0.006
   0.02058200  0.02469996 -0.11701687       0.006
   0.02962169  0.02466738 -0.08776250       0.006
   0.03866138  0.02463479 -0.05850814       0.006
   0.04770107  0.02460221 -0.02925377       0.006
   0.08515627  0.02445762 -0.00000065       0.006
   0.09419596  0.02442504  0.02925371       0.006
   0.10323565  0.02439245  0.05850808       0.006
   0.11227534  0.02435987  0.08776245       0.006
   0.12131503  0.02432728  0.11701682       0.006
   0.13035472  0.02429470  0.14627118       0.006
   0.03995781  0.02462055 -0.14627249       0.006
   0.04899750  0.02458796 -0.11701812       0.006
   0.05803719  0.02455538 -0.08776375       0.006
   0.06707688  0.02452279 -0.05850939       0.006
   0.07611657  0.02449021 -0.02925502       0.006
  -0.08533673  0.02512961  0.00000685       0.006
  -0.07629704  0.02509702  0.02926122       0.006
  -0.06725735  0.02506444  0.05851558       0.006
  -0.05821766  0.02503185  0.08776995       0.006
  -0.04917797  0.02499927  0.11702432       0.006
  -0.04013828  0.02496668  0.14627869       0.006
  -0.13053519  0.02529253 -0.14626499       0.006
  -0.12149550  0.02525995 -0.11701062       0.006
  -0.11245581  0.02522736 -0.08775625       0.006
  -0.10341612  0.02519478 -0.05850188       0.006
  -0.09437642  0.02516219 -0.02924752       0.006
  -0.05692123  0.02501761  0.00000560       0.006
  -0.04788154  0.02498502  0.02925997       0.006
  -0.03884185  0.02495244  0.05851433       0.006
  -0.02980216  0.02491985  0.08776870       0.006
  -0.02076247  0.02488727  0.11702307       0.006
  -0.01172278  0.02485468  0.14627744       0.006
  -0.10211969  0.02518054 -0.14626624       0.006
  -0.09308000  0.02514795 -0.11701187       0.006
  -0.08404031  0.02511537 -0.08775750       0.006
  -0.07500062  0.02508278 -0.05850313       0.006
  -0.06596092  0.02505020 -0.02924877       0.006
  -0.02850573  0.02490561  0.00000435       0.006
  -0.01946604  0.02487303  0.02925872       0.006
  -0.01042635  0.02484044  0.05851308       0.006
  -0.00138666  0.02480786  0.08776745       0.006
   0.00765303  0.02477527  0.11702182       0.006
   0.01669272  0.02474268  0.14627619       0.006
  -0.07370419  0.02506854 -0.14626749       0.006
  -0.06466450  0.02503595 -0.11701312       0.006
  -0.05562481  0.02500337 -0.08775875       0.006
  -0.04658512  0.02497078 -0.05850438       0.006
  -0.03754542  0.02493820 -0.02925002       0.006
  -0.00018047  0.04958723  0.00000620       0.003
   0.00885922  0.04955464  0.02926057       0.006
   0.01789892  0.04952206  0.05851493       0.006
   0.02693861  0.04948947  0.08776930       0.006
   0.03597830  0.04945689  0.11702367       0.006
   0.04501799  0.04942430  0.14627803       0.006
   0.02823503  0.04947523  0.00000495       0.006
   0.03727472  0.04944265  0.02925931       0.006
   0.04631441  0.04941006  0.05851368       0.006
   0.05535411  0.04937748  0.08776805       0.006
   0.06439380  0.04934489  0.11702242       0.006
   0.07343349  0.04931231  0.14627678       0.006
  -0.01696342  0.04963816 -0.14626689       0.006
  -0.00792373  0.04960557 -0.11701252       0.006
   0.00111596  0.04957299 -0.08775815       0.006
   0.01015565  0.04954040 -0.05850379       0.006
   0.01919534  0.04950782 -0.02924942       0.006
   0.05665053  0.04936324  0.00000370       0.006
   0.06569022  0.04933065  0.02925806       0.006
   0.07472991  0.04929806  0.05851243       0.006
   0.08376961  0.04926548  0.08776680       0.006
   0.09280930  0.04923289  0.11702117       0.006
   0.10184899  0.04920031  0.14627553       0.006
   0.01145207  0.04952616 -0.14626814       0.006
   0.02049177  0.04949358 -0.11701377       0.006
   0.02953146  0.04946099 -0.08775940       0.006
   0.03857115  0.04942841 -0.05850504       0.006
   0.04761084  0.04939582 -0.02925067       0.006
   0.08506603  0.04925124  0.00000245       0.006
   0.09410572  0.04921865  0.02925681       0.006
   0.10314541  0.04918607  0.05851118       0.006
   0.11218511  0.04915348  0.08776555       0.006
   0.12122480  0.04912090  0.11701991       0.006
   0.13026449  0.04908831  0.14627428       0.006
   0.03986757  0.04941417 -0.14626939       0.006
   0.04890727  0.04938158 -0.11701502       0.006
   0.05794696  0.04934899 -0.08776066       0.006
   0.06698665  0.04931641 -0.05850629       0.006
   0.07602634  0.04928382 -0.02925192       0.006
 
 k-points in reciprocal lattice and weights: K-points file                           
   0.00000000  0.00000000  0.00000000       0.003
   0.09090909 -0.00000000 -0.00000000       0.006
   0.18181818 -0.00000000  0.00000000       0.006
   0.27272727 -0.00000000  0.00000000       0.006
   0.36363636 -0.00000000 -0.00000000       0.006
   0.45454545  0.00000000  0.00000000       0.006
  -0.00000000  0.14285714 -0.00000000       0.006
   0.09090909  0.14285714  0.00000000       0.006
   0.18181818  0.14285714  0.00000000       0.006
   0.27272727  0.14285714 -0.00000000       0.006
   0.36363636  0.14285714  0.00000000       0.006
   0.45454545  0.14285714  0.00000000       0.006
  -0.45454545  0.14285714  0.00000000       0.006
  -0.36363636  0.14285714  0.00000000       0.006
  -0.27272727  0.14285714 -0.00000000       0.006
  -0.18181818  0.14285714  0.00000000       0.006
  -0.09090909  0.14285714 -0.00000000       0.006
  -0.00000000  0.28571429 -0.00000000       0.006
   0.09090909  0.28571429  0.00000000       0.006
   0.18181818  0.28571429 -0.00000000       0.006
   0.27272727  0.28571429 -0.00000000       0.006
   0.36363636  0.28571429  0.00000000       0.006
   0.45454545  0.28571429 -0.00000000       0.006
  -0.45454545  0.28571429 -0.00000000       0.006
  -0.36363636  0.28571429  0.00000000       0.006
  -0.27272727  0.28571429 -0.00000000       0.006
  -0.18181818  0.28571429 -0.00000000       0.006
  -0.09090909  0.28571429  0.00000000       0.006
  -0.00000000  0.42857143  0.00000000       0.006
   0.09090909  0.42857143  0.00000000       0.006
   0.18181818  0.42857143 -0.00000000       0.006
   0.27272727  0.42857143  0.00000000       0.006
   0.36363636  0.42857143  0.00000000       0.006
   0.45454545  0.42857143 -0.00000000       0.006
  -0.45454545  0.42857143  0.00000000       0.006
  -0.36363636  0.42857143 -0.00000000       0.006
  -0.27272727  0.42857143  0.00000000       0.006
  -0.18181818  0.42857143  0.00000000       0.006
  -0.09090909  0.42857143 -0.00000000       0.006
   0.00000000  0.00000000  0.25000000       0.006
   0.09090909 -0.00000000  0.25000000       0.006
   0.18181818 -0.00000000  0.25000000       0.006
   0.27272727  0.00000000  0.25000000       0.006
   0.36363636  0.00000000  0.25000000       0.006
   0.45454545  0.00000000  0.25000000       0.006
  -0.45454545 -0.00000000  0.25000000       0.006
  -0.36363636  0.00000000  0.25000000       0.006
  -0.27272727  0.00000000  0.25000000       0.006
  -0.18181818  0.00000000  0.25000000       0.006
  -0.09090909  0.00000000  0.25000000       0.006
   0.00000000  0.14285714  0.25000000       0.006
   0.09090909  0.14285714  0.25000000       0.006
   0.18181818  0.14285714  0.25000000       0.006
   0.27272727  0.14285714  0.25000000       0.006
   0.36363636  0.14285714  0.25000000       0.006
   0.45454545  0.14285714  0.25000000       0.006
  -0.45454545  0.14285714  0.25000000       0.006
  -0.36363636  0.14285714  0.25000000       0.006
  -0.27272727  0.14285714  0.25000000       0.006
  -0.18181818  0.14285714  0.25000000       0.006
  -0.09090909  0.14285714  0.25000000       0.006
   0.00000000  0.28571429  0.25000000       0.006
   0.09090909  0.28571429  0.25000000       0.006
   0.18181818  0.28571429  0.25000000       0.006
   0.27272727  0.28571429  0.25000000       0.006
   0.36363636  0.28571429  0.25000000       0.006
   0.45454545  0.28571429  0.25000000       0.006
  -0.45454545  0.28571429  0.25000000       0.006
  -0.36363636  0.28571429  0.25000000       0.006
  -0.27272727  0.28571429  0.25000000       0.006
  -0.18181818  0.28571429  0.25000000       0.006
  -0.09090909  0.28571429  0.25000000       0.006
   0.00000000  0.42857143  0.25000000       0.006
   0.09090909  0.42857143  0.25000000       0.006
   0.18181818  0.42857143  0.25000000       0.006
   0.27272727  0.42857143  0.25000000       0.006
   0.36363636  0.42857143  0.25000000       0.006
   0.45454545  0.42857143  0.25000000       0.006
  -0.45454545  0.42857143  0.25000000       0.006
  -0.36363636  0.42857143  0.25000000       0.006
  -0.27272727  0.42857143  0.25000000       0.006
  -0.18181818  0.42857143  0.25000000       0.006
  -0.09090909  0.42857143  0.25000000       0.006
   0.00000000 -0.42857143  0.25000000       0.006
   0.09090909 -0.42857143  0.25000000       0.006
   0.18181818 -0.42857143  0.25000000       0.006
   0.27272727 -0.42857143  0.25000000       0.006
   0.36363636 -0.42857143  0.25000000       0.006
   0.45454545 -0.42857143  0.25000000       0.006
  -0.45454545 -0.42857143  0.25000000       0.006
  -0.36363636 -0.42857143  0.25000000       0.006
  -0.27272727 -0.42857143  0.25000000       0.006
  -0.18181818 -0.42857143  0.25000000       0.006
  -0.09090909 -0.42857143  0.25000000       0.006
   0.00000000 -0.28571429  0.25000000       0.006
   0.09090909 -0.28571429  0.25000000       0.006
   0.18181818 -0.28571429  0.25000000       0.006
   0.27272727 -0.28571429  0.25000000       0.006
   0.36363636 -0.28571429  0.25000000       0.006
   0.45454545 -0.28571429  0.25000000       0.006
  -0.45454545 -0.28571429  0.25000000       0.006
  -0.36363636 -0.28571429  0.25000000       0.006
  -0.27272727 -0.28571429  0.25000000       0.006
  -0.18181818 -0.28571429  0.25000000       0.006
  -0.09090909 -0.28571429  0.25000000       0.006
   0.00000000 -0.14285714  0.25000000       0.006
   0.09090909 -0.14285714  0.25000000       0.006
   0.18181818 -0.14285714  0.25000000       0.006
   0.27272727 -0.14285714  0.25000000       0.006
   0.36363636 -0.14285714  0.25000000       0.006
   0.45454545 -0.14285714  0.25000000       0.006
  -0.45454545 -0.14285714  0.25000000       0.006
  -0.36363636 -0.14285714  0.25000000       0.006
  -0.27272727 -0.14285714  0.25000000       0.006
  -0.18181818 -0.14285714  0.25000000       0.006
  -0.09090909 -0.14285714  0.25000000       0.006
   0.00000000  0.00000000  0.50000000       0.003
   0.09090909 -0.00000000  0.50000000       0.006
   0.18181818 -0.00000000  0.50000000       0.006
   0.27272727  0.00000000  0.50000000       0.006
   0.36363636 -0.00000000  0.50000000       0.006
   0.45454545  0.00000000  0.50000000       0.006
   0.00000000  0.14285714  0.50000000       0.006
   0.09090909  0.14285714  0.50000000       0.006
   0.18181818  0.14285714  0.50000000       0.006
   0.27272727  0.14285714  0.50000000       0.006
   0.36363636  0.14285714  0.50000000       0.006
   0.45454545  0.14285714  0.50000000       0.006
  -0.45454545  0.14285714  0.50000000       0.006
  -0.36363636  0.14285714  0.50000000       0.006
  -0.27272727  0.14285714  0.50000000       0.006
  -0.18181818  0.14285714  0.50000000       0.006
  -0.09090909  0.14285714  0.50000000       0.006
   0.00000000  0.28571429  0.50000000       0.006
   0.09090909  0.28571429  0.50000000       0.006
   0.18181818  0.28571429  0.50000000       0.006
   0.27272727  0.28571429  0.50000000       0.006
   0.36363636  0.28571429  0.50000000       0.006
   0.45454545  0.28571429  0.50000000       0.006
  -0.45454545  0.28571429  0.50000000       0.006
  -0.36363636  0.28571429  0.50000000       0.006
  -0.27272727  0.28571429  0.50000000       0.006
  -0.18181818  0.28571429  0.50000000       0.006
  -0.09090909  0.28571429  0.50000000       0.006
   0.00000000  0.42857143  0.50000000       0.006
   0.09090909  0.42857143  0.50000000       0.006
   0.18181818  0.42857143  0.50000000       0.006
   0.27272727  0.42857143  0.50000000       0.006
   0.36363636  0.42857143  0.50000000       0.006
   0.45454545  0.42857143  0.50000000       0.006
  -0.45454545  0.42857143  0.50000000       0.006
  -0.36363636  0.42857143  0.50000000       0.006
  -0.27272727  0.42857143  0.50000000       0.006
  -0.18181818  0.42857143  0.50000000       0.006
  -0.09090909  0.42857143  0.50000000       0.006
 
 position of ions in fractional coordinates (direct lattice) 
   0.38411906  0.76669177  0.24748572
   0.61521452  0.23089391  0.75237641
   0.12842134  0.26115074  0.43214751
   0.87054708  0.74016584  0.56593039
   0.13348194  0.26623791  0.07067507
   0.86793330  0.73423481  0.92872122
   0.49837006  0.99843339  0.50221540
   0.50048658  0.00003465  0.00091170
   0.05464600  0.10805353  0.25184368
   0.94536363  0.89111239  0.74997289
   0.23307930  0.46660319  0.60742556
   0.76810779  0.53776354  0.39083577
   0.22990293  0.45916398  0.89265714
   0.77032648  0.53946034  0.10680155
 
 position of ions in cartesian coordinates  (Angst):
   3.86438598  2.50952200  0.00235286
   1.19079045  7.59053249  1.55230004
   1.33011225  4.36228921 -0.00707552
   3.74375006  5.71984325  1.55479974
   1.34132248  0.71751522  0.00112672
   3.72835013  9.37789453  1.55551052
   5.03959259  5.08230046 -0.00288446
   0.00027813  0.00899951  1.55520570
   0.55324921  2.54141390  0.00168964
   4.50994956  7.57837694  1.55260720
   2.36999267  6.13344396 -0.00120031
   2.71921169  3.95059376  1.55108050
   2.34392795  9.00940768  0.00018655
   2.71645425  1.08659758  1.55563712
 


--------------------------------------------------------------------------------------------------------


 k-point   1 :   0.0000 0.0000 0.0000  plane waves:    4245
 k-point   2 :   0.0909-0.0000-0.0000  plane waves:    4238
 k-point   3 :   0.1818-0.0000 0.0000  plane waves:    4232
 k-point   4 :   0.2727-0.0000 0.0000  plane waves:    4236
 k-point   5 :   0.3636-0.0000-0.0000  plane waves:    4243
 k-point   6 :   0.4545 0.0000 0.0000  plane waves:    4248
 k-point   7 :  -0.0000 0.1429-0.0000  plane waves:    4244
 k-point   8 :   0.0909 0.1429 0.0000  plane waves:    4242
 k-point   9 :   0.1818 0.1429 0.0000  plane waves:    4236
 k-point  10 :   0.2727 0.1429-0.0000  plane waves:    4240
 k-point  11 :   0.3636 0.1429 0.0000  plane waves:    4247
 k-point  12 :   0.4545 0.1429 0.0000  plane waves:    4239
 k-point  13 :  -0.4545 0.1429 0.0000  plane waves:    4247
 k-point  14 :  -0.3636 0.1429 0.0000  plane waves:    4244
 k-point  15 :  -0.2727 0.1429-0.0000  plane waves:    4234
 k-point  16 :  -0.1818 0.1429 0.0000  plane waves:    4226
 k-point  17 :  -0.0909 0.1429-0.0000  plane waves:    4237
 k-point  18 :  -0.0000 0.2857-0.0000  plane waves:    4240
 k-point  19 :   0.0909 0.2857 0.0000  plane waves:    4243
 k-point  20 :   0.1818 0.2857-0.0000  plane waves:    4250
 k-point  21 :   0.2727 0.2857-0.0000  plane waves:    4246
 k-point  22 :   0.3636 0.2857 0.0000  plane waves:    4255
 k-point  23 :   0.4545 0.2857-0.0000  plane waves:    4232
 k-point  24 :  -0.4545 0.2857-0.0000  plane waves:    4243
 k-point  25 :  -0.3636 0.2857 0.0000  plane waves:    4239
 k-point  26 :  -0.2727 0.2857-0.0000  plane waves:    4239
 k-point  27 :  -0.1818 0.2857-0.0000  plane waves:    4233
 k-point  28 :  -0.0909 0.2857 0.0000  plane waves:    4241
 k-point  29 :  -0.0000 0.4286 0.0000  plane waves:    4255
 k-point  30 :   0.0909 0.4286 0.0000  plane waves:    4246
 k-point  31 :   0.1818 0.4286-0.0000  plane waves:    4253
 k-point  32 :   0.2727 0.4286 0.0000  plane waves:    4250
 k-point  33 :   0.3636 0.4286 0.0000  plane waves:    4249
 k-point  34 :   0.4545 0.4286-0.0000  plane waves:    4240
 k-point  35 :  -0.4545 0.4286 0.0000  plane waves:    4252
 k-point  36 :  -0.3636 0.4286-0.0000  plane waves:    4247
 k-point  37 :  -0.2727 0.4286 0.0000  plane waves:    4237
 k-point  38 :  -0.1818 0.4286 0.0000  plane waves:    4238
 k-point  39 :  -0.0909 0.4286-0.0000  plane waves:    4239
 k-point  40 :   0.0000 0.0000 0.2500  plane waves:    4241
 k-point  41 :   0.0909-0.0000 0.2500  plane waves:    4235
 k-point  42 :   0.1818-0.0000 0.2500  plane waves:    4240
 k-point  43 :   0.2727 0.0000 0.2500  plane waves:    4232
 k-point  44 :   0.3636 0.0000 0.2500  plane waves:    4239
 k-point  45 :   0.4545 0.0000 0.2500  plane waves:    4250
 k-point  46 :  -0.4545-0.0000 0.2500  plane waves:    4257
 k-point  47 :  -0.3636 0.0000 0.2500  plane waves:    4237
 k-point  48 :  -0.2727 0.0000 0.2500  plane waves:    4240
 k-point  49 :  -0.1818 0.0000 0.2500  plane waves:    4240
 k-point  50 :  -0.0909 0.0000 0.2500  plane waves:    4241
 k-point  51 :   0.0000 0.1429 0.2500  plane waves:    4242
 k-point  52 :   0.0909 0.1429 0.2500  plane waves:    4246
 k-point  53 :   0.1818 0.1429 0.2500  plane waves:    4236
 k-point  54 :   0.2727 0.1429 0.2500  plane waves:    4233
 k-point  55 :   0.3636 0.1429 0.2500  plane waves:    4240
 k-point  56 :   0.4545 0.1429 0.2500  plane waves:    4240
 k-point  57 :  -0.4545 0.1429 0.2500  plane waves:    4242
 k-point  58 :  -0.3636 0.1429 0.2500  plane waves:    4239
 k-point  59 :  -0.2727 0.1429 0.2500  plane waves:    4242
 k-point  60 :  -0.1818 0.1429 0.2500  plane waves:    4236
 k-point  61 :  -0.0909 0.1429 0.2500  plane waves:    4237
 k-point  62 :   0.0000 0.2857 0.2500  plane waves:    4233
 k-point  63 :   0.0909 0.2857 0.2500  plane waves:    4237
 k-point  64 :   0.1818 0.2857 0.2500  plane waves:    4235
 k-point  65 :   0.2727 0.2857 0.2500  plane waves:    4243
 k-point  66 :   0.3636 0.2857 0.2500  plane waves:    4238
 k-point  67 :   0.4545 0.2857 0.2500  plane waves:    4245
 k-point  68 :  -0.4545 0.2857 0.2500  plane waves:    4256
 k-point  69 :  -0.3636 0.2857 0.2500  plane waves:    4235
 k-point  70 :  -0.2727 0.2857 0.2500  plane waves:    4231
 k-point  71 :  -0.1818 0.2857 0.2500  plane waves:    4235
 k-point  72 :  -0.0909 0.2857 0.2500  plane waves:    4239
 k-point  73 :   0.0000 0.4286 0.2500  plane waves:    4249
 k-point  74 :   0.0909 0.4286 0.2500  plane waves:    4245
 k-point  75 :   0.1818 0.4286 0.2500  plane waves:    4243
 k-point  76 :   0.2727 0.4286 0.2500  plane waves:    4243
 k-point  77 :   0.3636 0.4286 0.2500  plane waves:    4244
 k-point  78 :   0.4545 0.4286 0.2500  plane waves:    4250
 k-point  79 :  -0.4545 0.4286 0.2500  plane waves:    4248
 k-point  80 :  -0.3636 0.4286 0.2500  plane waves:    4251
 k-point  81 :  -0.2727 0.4286 0.2500  plane waves:    4229
 k-point  82 :  -0.1818 0.4286 0.2500  plane waves:    4226
 k-point  83 :  -0.0909 0.4286 0.2500  plane waves:    4240
 k-point  84 :   0.0000-0.4286 0.2500  plane waves:    4244
 k-point  85 :   0.0909-0.4286 0.2500  plane waves:    4242
 k-point  86 :   0.1818-0.4286 0.2500  plane waves:    4222
 k-point  87 :   0.2727-0.4286 0.2500  plane waves:    4237
 k-point  88 :   0.3636-0.4286 0.2500  plane waves:    4246
 k-point  89 :   0.4545-0.4286 0.2500  plane waves:    4253
 k-point  90 :  -0.4545-0.4286 0.2500  plane waves:    4243
 k-point  91 :  -0.3636-0.4286 0.2500  plane waves:    4240
 k-point  92 :  -0.2727-0.4286 0.2500  plane waves:    4244
 k-point  93 :  -0.1818-0.4286 0.2500  plane waves:    4249
 k-point  94 :  -0.0909-0.4286 0.2500  plane waves:    4243
 k-point  95 :   0.0000-0.2857 0.2500  plane waves:    4256
 k-point  96 :   0.0909-0.2857 0.2500  plane waves:    4243
 k-point  97 :   0.1818-0.2857 0.2500  plane waves:    4240
 k-point  98 :   0.2727-0.2857 0.2500  plane waves:    4239
 k-point  99 :   0.3636-0.2857 0.2500  plane waves:    4239
 k-point 100 :   0.4545-0.2857 0.2500  plane waves:    4232
 k-point 101 :  -0.4545-0.2857 0.2500  plane waves:    4250
 k-point 102 :  -0.3636-0.2857 0.2500  plane waves:    4243
 k-point 103 :  -0.2727-0.2857 0.2500  plane waves:    4243
 k-point 104 :  -0.1818-0.2857 0.2500  plane waves:    4238
 k-point 105 :  -0.0909-0.2857 0.2500  plane waves:    4248
 k-point 106 :   0.0000-0.1429 0.2500  plane waves:    4235
 k-point 107 :   0.0909-0.1429 0.2500  plane waves:    4234
 k-point 108 :   0.1818-0.1429 0.2500  plane waves:    4240
 k-point 109 :   0.2727-0.1429 0.2500  plane waves:    4244
 k-point 110 :   0.3636-0.1429 0.2500  plane waves:    4242
 k-point 111 :   0.4545-0.1429 0.2500  plane waves:    4254
 k-point 112 :  -0.4545-0.1429 0.2500  plane waves:    4250
 k-point 113 :  -0.3636-0.1429 0.2500  plane waves:    4250
 k-point 114 :  -0.2727-0.1429 0.2500  plane waves:    4240
 k-point 115 :  -0.1818-0.1429 0.2500  plane waves:    4232
 k-point 116 :  -0.0909-0.1429 0.2500  plane waves:    4235
 k-point 117 :   0.0000 0.0000 0.5000  plane waves:    4236
 k-point 118 :   0.0909-0.0000 0.5000  plane waves:    4239
 k-point 119 :   0.1818-0.0000 0.5000  plane waves:    4235
 k-point 120 :   0.2727 0.0000 0.5000  plane waves:    4241
 k-point 121 :   0.3636-0.0000 0.5000  plane waves:    4240
 k-point 122 :   0.4545 0.0000 0.5000  plane waves:    4264
 k-point 123 :   0.0000 0.1429 0.5000  plane waves:    4234
 k-point 124 :   0.0909 0.1429 0.5000  plane waves:    4238
 k-point 125 :   0.1818 0.1429 0.5000  plane waves:    4235
 k-point 126 :   0.2727 0.1429 0.5000  plane waves:    4241
 k-point 127 :   0.3636 0.1429 0.5000  plane waves:    4254
 k-point 128 :   0.4545 0.1429 0.5000  plane waves:    4252
 k-point 129 :  -0.4545 0.1429 0.5000  plane waves:    4247
 k-point 130 :  -0.3636 0.1429 0.5000  plane waves:    4240
 k-point 131 :  -0.2727 0.1429 0.5000  plane waves:    4242
 k-point 132 :  -0.1818 0.1429 0.5000  plane waves:    4243
 k-point 133 :  -0.0909 0.1429 0.5000  plane waves:    4237
 k-point 134 :   0.0000 0.2857 0.5000  plane waves:    4232
 k-point 135 :   0.0909 0.2857 0.5000  plane waves:    4247
 k-point 136 :   0.1818 0.2857 0.5000  plane waves:    4230
 k-point 137 :   0.2727 0.2857 0.5000  plane waves:    4227
 k-point 138 :   0.3636 0.2857 0.5000  plane waves:    4253
 k-point 139 :   0.4545 0.2857 0.5000  plane waves:    4255
 k-point 140 :  -0.4545 0.2857 0.5000  plane waves:    4243
 k-point 141 :  -0.3636 0.2857 0.5000  plane waves:    4240
 k-point 142 :  -0.2727 0.2857 0.5000  plane waves:    4242
 k-point 143 :  -0.1818 0.2857 0.5000  plane waves:    4238
 k-point 144 :  -0.0909 0.2857 0.5000  plane waves:    4239
 k-point 145 :   0.0000 0.4286 0.5000  plane waves:    4249
 k-point 146 :   0.0909 0.4286 0.5000  plane waves:    4243
 k-point 147 :   0.1818 0.4286 0.5000  plane waves:    4236
 k-point 148 :   0.2727 0.4286 0.5000  plane waves:    4230
 k-point 149 :   0.3636 0.4286 0.5000  plane waves:    4254
 k-point 150 :   0.4545 0.4286 0.5000  plane waves:    4254
 k-point 151 :  -0.4545 0.4286 0.5000  plane waves:    4265
 k-point 152 :  -0.3636 0.4286 0.5000  plane waves:    4252
 k-point 153 :  -0.2727 0.4286 0.5000  plane waves:    4239
 k-point 154 :  -0.1818 0.4286 0.5000  plane waves:    4226
 k-point 155 :  -0.0909 0.4286 0.5000  plane waves:    4245

 maximum and minimum number of plane-waves per node :      1084     1038

 maximum number of plane-waves:      4265
 maximum index in each direction: 
   IXMAX=    6   IYMAX=   10   IZMAX=   18
   IXMIN=   -6   IYMIN=  -10   IZMIN=  -19


 real space projection operators:
  total allocation   :       7350.45 KBytes
  max/ min on nodes  :       1843.25       1833.92


 parallel 3D FFT for wavefunctions:
    minimum data exchange during FFTs selected (reduces bandwidth)
 parallel 3D FFT for charge:
    minimum data exchange during FFTs selected (reduces bandwidth)


 total amount of memory used by VASP MPI-rank0   169161. kBytes
=======================================================================

   base      :      30000. kBytes
   nonlr-proj:       4187. kBytes
   fftplans  :       2301. kBytes
   grid      :       8153. kBytes
   one-center:        124. kBytes
   wavefun   :     124396. kBytes
 
     INWAV:  cpu time    0.0000: real time    0.0000
 Broyden mixing: mesh for mixing (old mesh)
   NGX = 11   NGY = 19   NGZ = 37
  (NGX  = 48   NGY  = 80   NGZ  =160)
  gives a total of   7733 points

 initial charge density was supplied:
 number of electron     107.9999996 magnetization       3.0908971
 keeping initial charge density in first step


--------------------------------------------------------------------------------------------------------


 Maximum index for non-local projection operator         1963
 Maximum index for augmentation-charges         1722 (set IRDMAX)


--------------------------------------------------------------------------------------------------------


 First call to EWALD:  gamma=   0.328
 Maximum number of real-space cells 5x 3x 2
 Maximum number of reciprocal cells 2x 3x 5

    FEWALD:  cpu time    0.0010: real time    0.0010


--------------------------------------- Iteration      1(   1)  ---------------------------------------


    POTLOK:  cpu time    0.1739: real time    0.1739
    SETDIJ:  cpu time    1.4340: real time    1.4340
atom =   3  type =  2  l = 2
 
 onsite density matrix
 
spin component  1
 
  0.3708  0.0028  0.2983  0.0006 -0.1128
  0.0028  0.0811  0.0047 -0.0221 -0.0004
  0.2983  0.0047  0.6558  0.0009 -0.0500
  0.0006 -0.0221  0.0009  0.1431 -0.0005
 -0.1128 -0.0004 -0.0500 -0.0005  0.1453
 
spin component  2
 
  0.1226 -0.0001 -0.0472 -0.0000 -0.0534
 -0.0001  0.0687 -0.0001 -0.0267  0.0003
 -0.0472 -0.0001  0.1060 -0.0001  0.0351
 -0.0000 -0.0267 -0.0001  0.1346 -0.0002
 -0.0534  0.0003  0.0351 -0.0002  0.1042
 
 occupancies and eigenvectors
 
  o =  0.0584  v =  0.0000  0.0000  0.0000  0.0000  0.0000  0.7138 -0.0065  0.2179  0.0002  0.6655      0.0000  0.0000  0.0000  0.0000  0.0000  0.0000  0.0000  0.0000  0.0000  0.0000
  o =  0.0593  v =  0.0000  0.0000  0.0000  0.0000  0.0000 -0.0090 -0.9423 -0.0155 -0.3343  0.0055      0.0000  0.0000  0.0000  0.0000  0.0000  0.0000  0.0000  0.0000  0.0000  0.0000
  o =  0.0713  v =  0.0000  0.0000  0.0000  0.0000  0.0000  0.2264 -0.0165  0.8273 -0.0066 -0.5138      0.0000  0.0000  0.0000  0.0000  0.0000  0.0000  0.0000  0.0000  0.0000  0.0000
  o =  0.0740  v = -0.0103  0.9523 -0.0039  0.3047 -0.0118  0.0000  0.0000  0.0000  0.0000  0.0000      0.0000  0.0000  0.0000  0.0000  0.0000  0.0000  0.0000  0.0000  0.0000  0.0000
  o =  0.0838  v = -0.5381 -0.0124  0.2094 -0.0084 -0.8163  0.0000  0.0000  0.0000  0.0000  0.0000      0.0000  0.0000  0.0000  0.0000  0.0000  0.0000  0.0000  0.0000  0.0000  0.0000
  o =  0.1440  v =  0.0000  0.0000  0.0000  0.0000  0.0000  0.0041  0.3343 -0.0021 -0.9424 -0.0002      0.0000  0.0000  0.0000  0.0000  0.0000  0.0000  0.0000  0.0000  0.0000  0.0000
  o =  0.1502  v = -0.0043 -0.3048  0.0035  0.9524 -0.0015  0.0000  0.0000  0.0000  0.0000  0.0000      0.0000  0.0000  0.0000  0.0000  0.0000  0.0000  0.0000  0.0000  0.0000  0.0000
  o =  0.2031  v =  0.0000  0.0000  0.0000  0.0000  0.0000 -0.6626  0.0022  0.5175 -0.0034  0.5413      0.0000  0.0000  0.0000  0.0000  0.0000  0.0000  0.0000  0.0000  0.0000  0.0000
  o =  0.2294  v = -0.6470  0.0031  0.5181 -0.0030  0.5594  0.0000  0.0000  0.0000  0.0000  0.0000      0.0000  0.0000  0.0000  0.0000  0.0000  0.0000  0.0000  0.0000  0.0000  0.0000
  o =  0.8588  v = -0.5401 -0.0070 -0.8293 -0.0014  0.1435  0.0000  0.0000  0.0000  0.0000  0.0000      0.0000  0.0000  0.0000  0.0000  0.0000  0.0000  0.0000  0.0000  0.0000  0.0000
atom =   4  type =  2  l = 2
 
 onsite density matrix
 
spin component  1
 
  0.3342 -0.0019  0.0042 -0.0007  0.1631
 -0.0019  0.0813 -0.0007 -0.0333 -0.0021
  0.0042 -0.0007  0.1364 -0.0002  0.0966
 -0.0007 -0.0333 -0.0002  0.1599 -0.0006
  0.1631 -0.0021  0.0966 -0.0006  0.3163
 
spin component  2
 
  0.1803  0.0003  0.0526  0.0001 -0.1129
  0.0003  0.0787 -0.0000 -0.0322  0.0000
  0.0526 -0.0000  0.3001  0.0002 -0.0637
  0.0001 -0.0322  0.0002  0.1530 -0.0002
 -0.1129  0.0000 -0.0637 -0.0002  0.1631
 
 occupancies and eigenvectors
 
  o =  0.0579  v =  0.0000  0.0000  0.0000  0.0000  0.0000  0.6648 -0.0196  0.0514 -0.0060  0.7449      0.0000  0.0000  0.0000  0.0000  0.0000  0.0000  0.0000  0.0000  0.0000  0.0000
  o =  0.0666  v =  0.0000  0.0000  0.0000  0.0000  0.0000 -0.0126 -0.9367 -0.0015 -0.3495 -0.0160      0.0000  0.0000  0.0000  0.0000  0.0000  0.0000  0.0000  0.0000  0.0000  0.0000
  o =  0.0691  v =  0.0074  0.9389  0.0097  0.3440  0.0002  0.0000  0.0000  0.0000  0.0000  0.0000      0.0000  0.0000  0.0000  0.0000  0.0000  0.0000  0.0000  0.0000  0.0000  0.0000
  o =  0.0736  v = -0.3168  0.0095 -0.7887  0.0030  0.5268  0.0000  0.0000  0.0000  0.0000  0.0000      0.0000  0.0000  0.0000  0.0000  0.0000  0.0000  0.0000  0.0000  0.0000  0.0000
  o =  0.1651  v =  0.0000  0.0000  0.0000  0.0000  0.0000  0.0009  0.3495  0.0012 -0.9369  0.0008      0.0000  0.0000  0.0000  0.0000  0.0000  0.0000  0.0000  0.0000  0.0000  0.0000
  o =  0.1721  v =  0.0016 -0.3441 -0.0022  0.9389 -0.0016  0.0000  0.0000  0.0000  0.0000  0.0000      0.0000  0.0000  0.0000  0.0000  0.0000  0.0000  0.0000  0.0000  0.0000  0.0000
  o =  0.2106  v =  0.0000  0.0000  0.0000  0.0000  0.0000  0.5755  0.0014 -0.6712 -0.0001 -0.4672      0.0000  0.0000  0.0000  0.0000  0.0000  0.0000  0.0000  0.0000  0.0000  0.0000
  o =  0.2111  v =  0.6553  0.0020 -0.5836 -0.0026 -0.4796  0.0000  0.0000  0.0000  0.0000  0.0000      0.0000  0.0000  0.0000  0.0000  0.0000  0.0000  0.0000  0.0000  0.0000  0.0000
  o =  0.3750  v =  0.0000  0.0000  0.0000  0.0000  0.0000 -0.4761 -0.0002 -0.7395 -0.0011  0.4759      0.0000  0.0000  0.0000  0.0000  0.0000  0.0000  0.0000  0.0000  0.0000  0.0000
  o =  0.5023  v = -0.6857  0.0068 -0.1932  0.0020 -0.7017  0.0000  0.0000  0.0000  0.0000  0.0000      0.0000  0.0000  0.0000  0.0000  0.0000  0.0000  0.0000  0.0000  0.0000  0.0000
atom =   5  type =  2  l = 2
 
 onsite density matrix
 
spin component  1
 
  0.3888  0.0009 -0.3195 -0.0003  0.1293
  0.0009  0.0772 -0.0014  0.0197  0.0002
 -0.3195 -0.0014  0.6686  0.0003 -0.0572
 -0.0003  0.0197  0.0003  0.1455 -0.0001
  0.1293  0.0002 -0.0572 -0.0001  0.1446
 
spin component  2
 
  0.1146 -0.0000  0.0584 -0.0000  0.0495
 -0.0000  0.0686 -0.0000  0.0266 -0.0000
  0.0584 -0.0000  0.0844  0.0000  0.0474
 -0.0000  0.0266  0.0000  0.1382 -0.0001
  0.0495 -0.0000  0.0474 -0.0001  0.1010
 
 occupancies and eigenvectors
 
  o =  0.0372  v =  0.0000  0.0000  0.0000  0.0000  0.0000  0.4681 -0.0004 -0.8436  0.0005  0.2632      0.0000  0.0000  0.0000  0.0000  0.0000  0.0000  0.0000  0.0000  0.0000  0.0000
  o =  0.0581  v =  0.0000  0.0000  0.0000  0.0000  0.0000  0.6035  0.0066  0.0876 -0.0030 -0.7925      0.0000  0.0000  0.0000  0.0000  0.0000  0.0000  0.0000  0.0000  0.0000  0.0000
  o =  0.0596  v =  0.0000  0.0000  0.0000  0.0000  0.0000 -0.0040  0.9472 -0.0011 -0.3206  0.0059      0.0000  0.0000  0.0000  0.0000  0.0000  0.0000  0.0000  0.0000  0.0000  0.0000
  o =  0.0720  v =  0.0863 -0.9543  0.0318  0.2552 -0.1257  0.0000  0.0000  0.0000  0.0000  0.0000      0.0000  0.0000  0.0000  0.0000  0.0000  0.0000  0.0000  0.0000  0.0000  0.0000
  o =  0.0723  v = -0.5413 -0.1503 -0.2138  0.0408  0.7981  0.0000  0.0000  0.0000  0.0000  0.0000      0.0000  0.0000  0.0000  0.0000  0.0000  0.0000  0.0000  0.0000  0.0000  0.0000
  o =  0.1472  v =  0.0000  0.0000  0.0000  0.0000  0.0000 -0.0010 -0.3206 -0.0010 -0.9472 -0.0000      0.0000  0.0000  0.0000  0.0000  0.0000  0.0000  0.0000  0.0000  0.0000  0.0000
  o =  0.1507  v =  0.0011  0.2585  0.0008  0.9660  0.0003  0.0000  0.0000  0.0000  0.0000  0.0000      0.0000  0.0000  0.0000  0.0000  0.0000  0.0000  0.0000  0.0000  0.0000  0.0000
  o =  0.2047  v =  0.0000  0.0000  0.0000  0.0000  0.0000 -0.6455  0.0005 -0.5298  0.0011 -0.5501      0.0000  0.0000  0.0000  0.0000  0.0000  0.0000  0.0000  0.0000  0.0000  0.0000
  o =  0.2333  v =  0.6262 -0.0007  0.5343 -0.0011  0.5678  0.0000  0.0000  0.0000  0.0000  0.0000      0.0000  0.0000  0.0000  0.0000  0.0000  0.0000  0.0000  0.0000  0.0000  0.0000
  o =  0.8964  v = -0.5544 -0.0020  0.8172  0.0006 -0.1575  0.0000  0.0000  0.0000  0.0000  0.0000      0.0000  0.0000  0.0000  0.0000  0.0000  0.0000  0.0000  0.0000  0.0000  0.0000
atom =   6  type =  2  l = 2
 
 onsite density matrix
 
spin component  1
 
  0.3566  0.0013 -0.2981  0.0001  0.1475
  0.0013  0.0787 -0.0023  0.0189  0.0005
 -0.2981 -0.0023  0.6882 -0.0002 -0.0931
  0.0001  0.0189 -0.0002  0.1404 -0.0001
  0.1475  0.0005 -0.0931 -0.0001  0.1709
 
spin component  2
 
  0.1170 -0.0001  0.0590  0.0000  0.0498
[...]
     44       1.7125      1.00000
     45       1.8555      1.00000
     46       1.9499      1.00000
     47       2.0480      1.00000
     48       2.1639      1.00000
     49       2.3634      1.00000
     50       2.4165      1.00000
     51       2.7269      1.00000
     52       2.7720      1.00000
     53       5.8901      1.00000
     54       7.5998      0.00000
     55       8.2180      0.00000
     56       8.3138      0.00000
     57       8.6752      0.00000
     58       8.7018      0.00000
     59       8.9227      0.00000
     60       9.0348      0.00000
     61       9.0695      0.00000
     62       9.2689      0.00000
     63       9.3287      0.00000
     64       9.4264      0.00000
     65       9.5454      0.00000
     66       9.6124      0.00000


--------------------------------------------------------------------------------------------------------


 soft charge-density along one line, spin component           1
         0         1         2         3         4         5         6         7         8         9
 total charge-density along one line
 
 soft charge-density along one line, spin component           2
         0         1         2         3         4         5         6         7         8         9
 total charge-density along one line
 
 pseudopotential strength for first ion, spin component:           1
-17.995  -4.870  -0.001   0.000   0.011  -0.000   0.000  -0.001
 -4.870  -1.961  -0.000   0.000   0.004   0.003  -0.001  -0.014
 -0.001  -0.000 -19.022   0.000   0.000   5.921  -0.000   0.001
  0.000   0.000   0.000 -18.977  -0.000  -0.000   5.902   0.000
  0.011   0.004   0.000  -0.000 -18.988   0.001   0.000   5.904
 -0.000   0.003   5.921  -0.000   0.001   9.197  -0.001  -0.005
  0.000  -0.001  -0.000   5.902   0.000  -0.001   9.093   0.000
 -0.001  -0.014   0.001   0.000   5.904  -0.005   0.000   9.134
  0.001  -0.001  -0.006  -0.000  -0.000   0.007   0.000   0.002
  0.000  -0.000   0.001   0.000  -0.000  -0.001   0.002   0.000
  0.018  -0.010   0.000  -0.000  -0.005  -0.002  -0.000   0.008
 -0.000   0.000  -0.000   0.007   0.000   0.000  -0.015  -0.001
  0.018  -0.006   0.000  -0.000   0.021  -0.003   0.000  -0.037
  0.001  -0.001  -0.006  -0.000  -0.000   0.004   0.000   0.001
  0.000  -0.000   0.001   0.000  -0.000  -0.001   0.001   0.000
  0.019  -0.004   0.001  -0.000  -0.006  -0.002   0.000   0.007
 -0.000   0.000  -0.000   0.008   0.000   0.000  -0.008  -0.001
  0.020  -0.002   0.001  -0.000   0.024  -0.002   0.000  -0.024
 pseudopotential strength for first ion, spin component:           2
-17.996  -4.870  -0.000   0.000   0.012  -0.000   0.000  -0.001
 -4.870  -1.959  -0.000   0.000   0.004   0.002  -0.001  -0.017
 -0.000  -0.000 -19.022   0.000   0.000   5.922  -0.000   0.000
  0.000   0.000   0.000 -18.978  -0.000  -0.000   5.901   0.000
  0.012   0.004   0.000  -0.000 -18.988   0.000   0.000   5.902
 -0.000   0.002   5.922  -0.000   0.000   9.203  -0.001  -0.003
  0.000  -0.001  -0.000   5.901   0.000  -0.001   9.109   0.000
 -0.001  -0.017   0.000   0.000   5.902  -0.003   0.000   9.152
  0.001  -0.001  -0.007  -0.000   0.000   0.007   0.000   0.001
  0.000  -0.000   0.001   0.001  -0.000  -0.001   0.001   0.000
  0.017  -0.009   0.001  -0.000  -0.006  -0.002  -0.000   0.012
 -0.000   0.000  -0.000   0.006   0.000   0.000  -0.016  -0.001
  0.018  -0.005   0.001  -0.000   0.024  -0.003   0.000  -0.043
  0.001  -0.000  -0.007  -0.000   0.000   0.004   0.000   0.001
  0.000  -0.000   0.001   0.001  -0.000  -0.001   0.000   0.000
  0.019  -0.004   0.001  -0.000  -0.008  -0.001   0.000   0.009
 -0.000   0.000  -0.000   0.007   0.000   0.000  -0.008  -0.001
  0.021  -0.001   0.001  -0.000   0.027  -0.002   0.000  -0.028
 total augmentation occupancy for first ion, spin component:           1
  2.004   0.011   0.000  -0.000  -0.001   0.000  -0.000  -0.001   0.000   0.000  -0.001   0.000  -0.002  -0.000  -0.000  -0.001
  0.011   0.498   0.001  -0.000  -0.010  -0.001   0.000   0.007   0.005   0.001   0.079  -0.001   0.069  -0.003  -0.001  -0.045
  0.000   0.001   2.008   0.000   0.000   0.007  -0.000   0.000   0.012  -0.000  -0.001   0.000  -0.002  -0.005   0.000   0.000
 -0.000  -0.000   0.000   2.009  -0.000  -0.000   0.001   0.000   0.000  -0.000   0.000  -0.001   0.000  -0.000   0.000  -0.000
 -0.001  -0.010   0.000  -0.000   2.008   0.000   0.000   0.002  -0.000   0.000   0.005  -0.000  -0.022   0.000  -0.000  -0.003
  0.000  -0.001   0.007  -0.000   0.000   0.027   0.000   0.000  -0.034   0.000   0.002  -0.000   0.003   0.020  -0.000  -0.001
 -0.000   0.000  -0.000   0.001   0.000   0.000   0.040  -0.000  -0.000   0.000   0.000   0.014  -0.000   0.000  -0.000  -0.000
 -0.001   0.007   0.000   0.000   0.002   0.000  -0.000   0.035  -0.001  -0.000   0.005   0.000   0.041   0.000   0.000  -0.003
  0.000   0.005   0.012   0.000  -0.000  -0.034  -0.000  -0.001   0.317  -0.001   0.007   0.001   0.012  -0.182   0.001  -0.004
  0.000   0.001  -0.000  -0.000   0.000   0.000   0.000  -0.000  -0.001   0.394   0.000   0.012  -0.000   0.001  -0.228  -0.000
 -0.001   0.079  -0.001   0.000   0.005   0.002   0.000   0.005   0.007   0.000   0.220   0.000   0.025  -0.004  -0.000  -0.122
  0.000  -0.001   0.000  -0.001  -0.000  -0.000   0.014   0.000   0.001   0.012   0.000   0.588   0.000  -0.001  -0.007  -0.000
 -0.002   0.069  -0.002   0.000  -0.022   0.003  -0.000   0.041   0.012  -0.000   0.025   0.000   0.253  -0.007   0.000  -0.017
 -0.000  -0.003  -0.005  -0.000   0.000   0.020   0.000   0.000  -0.182   0.001  -0.004  -0.001  -0.007   0.106  -0.001   0.002
 -0.000  -0.001   0.000   0.000  -0.000  -0.000  -0.000   0.000   0.001  -0.228  -0.000  -0.007   0.000  -0.001   0.133   0.000
 -0.001  -0.045   0.000  -0.000  -0.003  -0.001  -0.000  -0.003  -0.004  -0.000  -0.122  -0.000  -0.017   0.002   0.000   0.068
  0.000   0.000  -0.000  -0.002   0.000   0.000  -0.008  -0.000  -0.001  -0.007  -0.000  -0.342  -0.000   0.000   0.004   0.000
 -0.001  -0.039   0.001   0.000   0.007  -0.001   0.000  -0.023  -0.007   0.000  -0.017  -0.000  -0.143   0.004  -0.000   0.011
 total augmentation occupancy for first ion, spin component:           2
 -0.000   0.000  -0.000  -0.000  -0.000   0.000   0.000  -0.000   0.000   0.000   0.000   0.000  -0.000   0.000  -0.000  -0.000
  0.000  -0.002   0.000   0.000  -0.000  -0.000   0.000   0.000   0.000  -0.000   0.002  -0.000   0.001  -0.000   0.000  -0.000
 -0.000   0.000  -0.000   0.000   0.000   0.000   0.000   0.000  -0.000  -0.000   0.000  -0.000  -0.000   0.000  -0.000  -0.000
 -0.000   0.000   0.000   0.000   0.000   0.000   0.000   0.000  -0.000  -0.000   0.000  -0.000   0.000  -0.000   0.000  -0.000
 -0.000  -0.000   0.000   0.000   0.000   0.000   0.000   0.000   0.000  -0.000  -0.001   0.000   0.000   0.000  -0.000   0.000
  0.000  -0.000   0.000   0.000   0.000  -0.000  -0.000   0.000   0.001  -0.000  -0.000   0.000   0.000  -0.000   0.000   0.000
  0.000   0.000   0.000   0.000   0.000  -0.000   0.000  -0.000  -0.000  -0.000   0.000  -0.000   0.000  -0.000   0.000  -0.000
 -0.000   0.000   0.000   0.000   0.000   0.000  -0.000   0.000  -0.000   0.000   0.002  -0.000  -0.002   0.000  -0.000  -0.001
  0.000   0.000  -0.000  -0.000   0.000   0.001  -0.000  -0.000   0.002   0.000  -0.002  -0.000   0.001  -0.002  -0.000   0.001
  0.000  -0.000  -0.000  -0.000  -0.000  -0.000  -0.000   0.000   0.000  -0.001   0.000  -0.000  -0.000  -0.000   0.001  -0.000
  0.000   0.002   0.000   0.000  -0.001  -0.000   0.000   0.002  -0.002   0.000   0.018  -0.000  -0.010   0.001  -0.000  -0.008
  0.000  -0.000  -0.000  -0.000   0.000   0.000  -0.000  -0.000  -0.000  -0.000  -0.000  -0.000  -0.000   0.000  -0.000   0.000
 -0.000   0.001  -0.000   0.000   0.000   0.000   0.000  -0.002   0.001  -0.000  -0.010  -0.000   0.006  -0.000   0.000   0.004
  0.000  -0.000   0.000  -0.000   0.000  -0.000  -0.000   0.000  -0.002  -0.000   0.001   0.000  -0.000   0.001   0.000  -0.000
 -0.000   0.000  -0.000   0.000  -0.000   0.000   0.000  -0.000  -0.000   0.001  -0.000  -0.000   0.000   0.000  -0.000   0.000
 -0.000  -0.000  -0.000  -0.000   0.000   0.000  -0.000  -0.001   0.001  -0.000  -0.008   0.000   0.004  -0.000   0.000   0.003
 -0.000   0.000  -0.000   0.000  -0.000  -0.000   0.000   0.000   0.000  -0.000   0.000   0.000   0.000  -0.000   0.000  -0.000
  0.000  -0.001  -0.000  -0.000   0.000  -0.000   0.000   0.001  -0.000   0.000   0.004   0.000  -0.002   0.000  -0.000  -0.002


------------------------ aborting loop because EDIFF is reached ----------------------------------------


 


 total charge     
 
# of ion       s       p       d       tot
------------------------------------------
    1        2.030   5.880   0.282   8.192
    2        2.029   5.879   0.282   8.190
    3        0.265   6.314   1.904   8.484
    4        0.275   6.324   1.875   8.474
    5        0.268   6.319   1.904   8.490
    6        0.268   6.320   1.914   8.501
    7        1.560   3.514   0.000   5.074
    8        1.557   3.512   0.000   5.069
    9        1.570   3.547   0.000   5.117
   10        1.570   3.544   0.000   5.114
   11        1.566   3.532   0.000   5.098
   12        1.565   3.535   0.000   5.100
   13        1.566   3.546   0.000   5.112
   14        1.566   3.547   0.000   5.113
--------------------------------------------------
tot         17.654  65.313   8.161  91.128
 


 magnetization (x)
 
# of ion       s       p       d       tot
------------------------------------------
    1       -0.000  -0.000   0.007   0.006
    2       -0.000   0.000   0.003   0.003
    3        0.003   0.006   0.858   0.866
    4       -0.002   0.001   0.152   0.151
    5        0.003   0.005   0.915   0.923
    6        0.003   0.005   0.924   0.933
    7       -0.000   0.003   0.000   0.002
    8        0.001   0.026   0.000   0.027
    9       -0.001  -0.023   0.000  -0.024
   10       -0.000  -0.010   0.000  -0.011
   11       -0.001  -0.021   0.000  -0.022
   12        0.000   0.011   0.000   0.012
   13       -0.000  -0.005   0.000  -0.006
   14       -0.000  -0.006   0.000  -0.006
--------------------------------------------------
tot          0.005  -0.008   2.859   2.855
 
    CHARGE:  cpu time    1.5404: real time    1.5405
    FORLOC:  cpu time    0.0055: real time    0.0055
    FORNL :  cpu time   17.1773: real time   17.1779
    STRESS:  cpu time  248.7411: real time  248.7468
    FORCOR:  cpu time    0.1529: real time    0.1529
    FORHAR:  cpu time    0.0140: real time    0.0140
    MIXING:  cpu time    0.0040: real time    0.0040
    OFIELD:  cpu time    0.0000: real time    0.0000

  FORCE on cell =-STRESS in cart. coord.  units (eV):
  Direction    XX          YY          ZZ          XY          YZ          ZX
  --------------------------------------------------------------------------------------
  Alpha Z   599.17729   599.17729   599.17729
  Ewald   -2535.02074 -2728.16709 -2456.04603   -14.80023    -0.31322    -0.86224
  Hartree   681.80175   539.39991   739.94333    -3.81635    -0.11973    -0.41490
  E(xc)    -556.36096  -556.45026  -556.19706     0.03467     0.00154    -0.00264
  Local     145.11138   487.83702     5.96687    14.18884     0.37826     1.24356
  n-local  -347.81817  -339.16153  -350.99205    -1.21496    -0.02686    -0.01770
  augment   331.49851   324.58789   333.73948     2.34760     0.03235     0.04505
  Kinetic  1681.39500  1672.52169  1684.10211     3.26074     0.03971     0.00598
  Fock        0.00000     0.00000     0.00000     0.00000     0.00000     0.00000
  -------------------------------------------------------------------------------------
  Total      -0.21594    -0.25509    -0.30607     0.00031    -0.00794    -0.00289
  in kB      -2.19271    -2.59020    -3.10788     0.00320    -0.08060    -0.02934
  external pressure =       -2.63 kB  Pullay stress =        0.00 kB


 VOLUME and BASIS-vectors are now :
 -----------------------------------------------------------------------------
  energy-cutoff  :      520.00
  volume of cell :      157.78
      direct lattice vectors                 reciprocal lattice vectors
     0.000128679 -0.000410542  3.108924587     0.099379472 -0.000355020  0.321650474
     5.030370832  0.018482441 -1.554199597     0.198792798 -0.000781478 -0.000008331
     0.039661670 10.089166396 -0.001118297    -0.000360127  0.099117634  0.000013104

  length of vectors
     3.108924617  5.265026942 10.089244415     0.336653283  0.198794335  0.099118289


 FORCES acting on ions
    electron-ion (+dipol)            ewald-force                    non-local-force                 convergence-correction
 -----------------------------------------------------------------------------------------------
   -.129E+02 -.691E+01 0.329E+00   0.137E+02 0.679E+01 -.318E+00   -.762E+00 0.120E+00 -.219E-01   0.979E-04 0.706E-04 -.512E-04
   0.520E+01 0.118E+02 -.987E-01   -.623E+01 -.115E+02 0.953E-01   0.102E+01 -.372E+00 0.579E-02   -.210E-03 -.289E-03 0.190E-04
   0.373E+02 0.451E+02 -.507E+00   -.361E+02 -.461E+02 0.496E+00   -.124E+01 0.106E+01 -.132E-01   -.343E-03 0.344E-03 0.101E-03
   -.334E+02 -.559E+02 0.664E+00   0.325E+02 0.566E+02 -.643E+00   0.840E+00 -.628E+00 -.263E-01   0.269E-03 0.941E-04 0.216E-04
   0.539E+02 -.544E+02 -.163E+00   -.530E+02 0.547E+02 0.166E+00   -.870E+00 -.270E+00 -.443E-03   -.388E-03 0.559E-04 -.663E-04
   -.506E+02 0.516E+02 0.195E+00   0.497E+02 -.521E+02 -.198E+00   0.797E+00 0.545E+00 -.204E-04   0.425E-03 -.294E-03 0.838E-04
   -.770E+01 -.297E-01 -.428E-01   0.888E+01 -.173E+00 0.434E-01   -.118E+01 0.226E+00 -.446E-02   -.119E-03 0.208E-03 -.186E-04
   0.141E+01 -.355E+00 -.737E-01   -.156E+01 0.346E+00 0.805E-01   0.141E+00 0.256E-01 -.494E-02   0.457E-04 -.918E-04 -.144E-04
   0.172E+02 -.114E+00 -.384E+00   -.191E+02 0.627E-01 0.449E+00   0.196E+01 0.594E-01 -.742E-01   0.506E-03 -.377E-04 0.192E-04
   -.153E+02 0.902E+01 0.215E+00   0.169E+02 -.100E+02 -.244E+00   -.164E+01 0.101E+01 0.311E-01   -.472E-03 -.225E-03 -.223E-04
   0.297E+02 -.107E+03 -.480E+00   -.326E+02 0.116E+03 0.550E+00   0.288E+01 -.879E+01 -.695E-01   0.279E-03 -.233E-03 -.227E-04
   -.234E+02 0.103E+03 0.404E+00   0.256E+02 -.112E+03 -.475E+00   -.217E+01 0.855E+01 0.643E-01   -.127E-03 0.409E-03 0.116E-04
   0.274E+02 0.109E+03 -.122E+00   -.297E+02 -.117E+03 0.141E+00   0.236E+01 0.831E+01 -.190E-01   0.161E-03 0.571E-04 -.208E-04
   -.284E+02 -.106E+03 0.126E+00   0.310E+02 0.114E+03 -.144E+00   -.261E+01 -.820E+01 0.191E-01   -.164E-03 -.111E-03 0.573E-05
 -----------------------------------------------------------------------------------------------
   0.445E+00 -.155E+01 0.677E-01   0.391E-13 0.711E-13 -.271E-13   -.475E+00 0.164E+01 -.114E+00   -.385E-04 -.425E-04 0.459E-04
 
 
 POSITION                                       TOTAL-FORCE (eV/Angst)
 -----------------------------------------------------------------------------------
      3.86666      2.51084      0.00219         0.003932     -0.007026     -0.008368
      1.19129      7.59465      1.55303        -0.006737     -0.015048      0.005719
      1.33101      4.36474     -0.00721         0.014130     -0.005326     -0.009052
      3.74593      5.72326      1.55542        -0.002852      0.008308     -0.007096
      1.34195      0.71766      0.00121        -0.007369     -0.014498      0.006147
      3.73041      9.38325      1.55612        -0.003509      0.001337     -0.000213
      5.04257      5.08543     -0.00292         0.006735      0.016281     -0.000657
      0.00012      0.00916      1.55599        -0.010334      0.010128      0.005141
      0.55356      2.54290      0.00159         0.005226      0.001862     -0.005699
      4.51263      7.58266      1.55334         0.007224      0.007272      0.005857
      2.37159      6.13676     -0.00118         0.016949     -0.016920      0.004696
      2.72063      3.95295      1.55168        -0.006247      0.013167     -0.004346
      2.34531      9.01454      0.00016         0.005782      0.004246      0.003872
      2.71765      1.08727      1.55640        -0.022930     -0.003781      0.003999
 -----------------------------------------------------------------------------------
    total drift:                               -0.030449      0.092503     -0.045890


--------------------------------------------------------------------------------------------------------



  FREE ENERGIE OF THE ION-ELECTRON SYSTEM (eV)
  ---------------------------------------------------
  free  energy   TOTEN  =      -172.25115927 eV

  energy  without entropy=     -172.25089341  energy(sigma->0) =     -172.25102634
 
 d Force =-0.1044266E-03[-0.110E-03,-0.991E-04]  d Energy = 0.1641442E-02-0.175E-02
 d Force = 0.1022022E+00[ 0.102E+00, 0.103E+00]  d Ewald  = 0.9844722E+01-0.974E+01


--------------------------------------------------------------------------------------------------------


    POTLOK:  cpu time    1.7782: real time    1.7782


--------------------------------------------------------------------------------------------------------




--------------------------------------------------------------------------------------------------------


  
 reached required accuracy - stopping structural energy minimisation
     LOOP+:  cpu time 1501.1694: real time 1501.2327
    4ORBIT:  cpu time    0.0000: real time    0.0000
 


 total charge     
 
# of ion       s       p       d       tot
------------------------------------------
    1        2.030   5.880   0.282   8.192
    2        2.029   5.879   0.282   8.190
    3        0.265   6.314   1.904   8.484
    4        0.275   6.324   1.875   8.474
    5        0.268   6.319   1.904   8.490
    6        0.268   6.320   1.914   8.501
    7        1.560   3.514   0.000   5.074
    8        1.557   3.512   0.000   5.069
    9        1.570   3.547   0.000   5.117
   10        1.570   3.544   0.000   5.114
   11        1.566   3.532   0.000   5.098
   12        1.565   3.535   0.000   5.100
   13        1.566   3.546   0.000   5.112
   14        1.566   3.547   0.000   5.113
--------------------------------------------------
tot         17.654  65.313   8.161  91.128
 


 magnetization (x)
 
# of ion       s       p       d       tot
------------------------------------------
    1       -0.000  -0.000   0.007   0.006
    2       -0.000   0.000   0.003   0.003
    3        0.003   0.006   0.858   0.866
    4       -0.002   0.001   0.152   0.151
    5        0.003   0.005   0.915   0.923
    6        0.003   0.005   0.924   0.933
    7       -0.000   0.003   0.000   0.002
    8        0.001   0.026   0.000   0.027
    9       -0.001  -0.023   0.000  -0.024
   10       -0.000  -0.010   0.000  -0.011
   11       -0.001  -0.021   0.000  -0.022
   12        0.000   0.011   0.000   0.012
   13       -0.000  -0.005   0.000  -0.006
   14       -0.000  -0.006   0.000  -0.006
--------------------------------------------------
tot          0.005  -0.008   2.859   2.855
 

 total amount of memory used by VASP MPI-rank0   169161. kBytes
=======================================================================

   base      :      30000. kBytes
   nonlr-proj:       4187. kBytes
   fftplans  :       2301. kBytes
   grid      :       8153. kBytes
   one-center:        124. kBytes
   wavefun   :     124396. kBytes
 
  
  
 General timing and accounting informations for this job:
 ========================================================
  
                  Total CPU time used (sec):     5433.925
                            User time (sec):     5431.761
                          System time (sec):        2.164
                         Elapsed time (sec):     5434.495
  
                   Maximum memory used (kb):      391648.
                   Average memory used (kb):           0.
  
                          Minor page faults:        51401
                          Major page faults:            0
                 Voluntary context switches:           68
