       N       E                     dE             d eps       ncg     rms          ort
DAV:   1     0.248603870601E+04    0.24860E+04   -0.15628E+05 10710   0.162E+03
DAV:   2    -0.179732568132E+03   -0.26658E+04   -0.25064E+04 10710   0.432E+02
DAV:   3    -0.435611423530E+03   -0.25588E+03   -0.25119E+03 10710   0.151E+02
DAV:   4    -0.443862370993E+03   -0.82509E+01   -0.81197E+01 10710   0.285E+01
DAV:   5    -0.444273949784E+03   -0.41158E+00   -0.41002E+00 10710   0.491E+00
SDA:   6    -0.219664228386E+03    0.22461E+03   -0.41002E+00 10710   0.165E+04 0.000E+00
CGA:   7    -0.170159394819E+03    0.49505E+02   -0.13564E+03 10710   0.236E+04-0.205E+03
CGA:   8    -0.236920078796E+03   -0.66761E+02   -0.87249E+02 10710   0.813E+03-0.963E+03
CGA:   9    -0.281626115109E+03   -0.44706E+02   -0.18843E+02 10710   0.160E+04 0.421E+03
CGA:  10    -0.214840543117E+03    0.66786E+02   -0.11249E+03 10710   0.332E+04-0.191E+04
CGA:  11    -0.183721097648E+03    0.31119E+02   -0.16715E+03 10710   0.330E+04-0.268E+04
CGA:  12    -0.219977228077E+03   -0.36256E+02   -0.16135E+03 10710   0.316E+04-0.358E+04
CGA:  13    -0.248578413520E+03   -0.28601E+02   -0.15833E+03 10710   0.105E+05-0.122E+05
CGA:  14    -0.185707163296E+03    0.62871E+02   -0.77306E+03 10710   0.640E+03-0.463E+03
CGA:  15    -0.219082494284E+03   -0.33375E+02   -0.90945E+01 10710   0.322E+04 0.405E+04
CGA:  16    -0.209036730108E+03    0.10046E+02   -0.15661E+03 10710   0.493E+04-0.446E+04
CGA:  17    -0.194581038908E+03    0.14456E+02   -0.28652E+03 10710   0.990E+03-0.848E+03
CGA:  18    -0.286564244092E+03   -0.91983E+02   -0.13641E+02 10710   0.648E+04 0.109E+05
CGA:  19    -0.302526965905E+03   -0.15963E+02   -0.38898E+03 10710   0.256E+04-0.223E+04
CGA:  20    -0.312761494259E+03   -0.10235E+02   -0.95007E+02 10710   0.199E+04 0.137E+04
CGA:  21    -0.310319307111E+03    0.24422E+01   -0.98414E+02 10710   0.164E+03-0.935E+02
CGA:  22    -0.324871058387E+03   -0.14552E+02   -0.23388E+01 10710   0.110E+03 0.328E+03
CGA:  23    -0.327898201201E+03   -0.30271E+01   -0.19014E+01 10710   0.523E+02 0.568E+02
CGA:  24    -0.329286899293E+03   -0.13887E+01   -0.79062E+00 10710   0.351E+02 0.407E+02
CGA:  25    -0.330225483593E+03   -0.93858E+00   -0.35622E+00 10710   0.543E+02 0.656E+02
CGA:  26    -0.331937516667E+03   -0.17120E+01   -0.72728E+00 10710   0.129E+02 0.348E+02
CGA:  27    -0.332152946385E+03   -0.21543E+00   -0.26568E+00 10710   0.766E+01-0.304E+01
CGA:  28    -0.332675546014E+03   -0.52260E+00   -0.58468E+00 10710   0.368E+02-0.482E+01
CGA:  29    -0.332726279093E+03   -0.50733E-01   -0.10840E+01 10710   0.244E+02-0.178E+02
CGA:  30    -0.333051316532E+03   -0.32504E+00   -0.18152E+00 10710   0.135E+02 0.988E+01
CGA:  31    -0.333293769445E+03   -0.24245E+00   -0.17304E+00 10710   0.227E+01 0.622E+01
CGA:  32    -0.333349294404E+03   -0.55525E-01   -0.61762E-01 10710   0.377E+01-0.281E+00
CGA:  33    -0.333425001321E+03   -0.75707E-01   -0.54389E-01 10710   0.822E+01 0.134E+01
CGA:  34    -0.333568073142E+03   -0.14307E+00   -0.14311E+00 10710   0.124E+02-0.790E+01
CGA:  35    -0.333787563465E+03   -0.21949E+00   -0.25089E+00 10710   0.223E+01-0.201E+01
CGA:  36    -0.333933071993E+03   -0.14551E+00   -0.14340E+00 10710   0.349E+01 0.151E+00
CGA:  37    -0.334163869886E+03   -0.23080E+00   -0.19652E+00 10710   0.264E+01 0.999E-01
CGA:  38    -0.334340557209E+03   -0.17669E+00   -0.17495E+00 10710   0.267E+01-0.156E+00
CGA:  39    -0.334439980071E+03   -0.99423E-01   -0.97116E-01 10710   0.157E+01-0.247E-01
CGA:  40    -0.334495452596E+03   -0.55473E-01   -0.54579E-01 10710   0.125E+01-0.663E-01
CGA:  41    -0.334561565235E+03   -0.66113E-01   -0.68242E-01 10710   0.108E+01 0.323E-01
CGA:  42    -0.334610645389E+03   -0.49080E-01   -0.49389E-01 10710   0.407E+00-0.831E-01
CGA:  43    -0.334654674406E+03   -0.44029E-01   -0.42420E-01 10710   0.308E+00 0.120E-01
CGA:  44    -0.334677310724E+03   -0.22636E-01   -0.22663E-01 10710   0.267E+00-0.243E-01
CGA:  45    -0.334708166762E+03   -0.30856E-01   -0.32833E-01 10710   0.203E+00-0.308E-01
CGA:  46    -0.334720915592E+03   -0.12749E-01   -0.12773E-01 10710   0.756E-01-0.293E-01
CGA:  47    -0.334718771014E+03    0.21446E-02   -0.58248E-02 10710   0.435E+00-0.770E-01
CGA:  48    -0.334739329723E+03   -0.20559E-01   -0.19909E-01 10710   0.445E-01 0.278E-01
CGA:  49    -0.334744948559E+03   -0.56188E-02   -0.56573E-02 10710   0.249E-01 0.820E-02
CGA:  50    -0.334747700174E+03   -0.27516E-02   -0.28647E-02 10710   0.165E-01 0.386E-02
CGA:  51    -0.334750799768E+03   -0.30996E-02   -0.29377E-02 10710   0.103E-01 0.504E-02
CGA:  52    -0.334751920227E+03   -0.11205E-02   -0.11737E-02 10710   0.422E-02 0.125E-02
CGA:  53    -0.334752479607E+03   -0.55938E-03   -0.56527E-03 10710   0.176E-02 0.198E-02
CGA:  54    -0.334752522255E+03   -0.42648E-04   -0.15659E-03 10710   0.123E-02 0.184E-02
CGA:  55    -0.334752507819E+03    0.14436E-04   -0.58246E-04 10710   0.927E-03 0.101E-02
CGA:  56    -0.334752484990E+03    0.22829E-04   -0.39379E-04 10710   0.803E-03 0.851E-03
CGA:  57    -0.334752462611E+03    0.22378E-04   -0.31835E-04 10710   0.719E-03 0.750E-03
CGA:  58    -0.334752441166E+03    0.21446E-04   -0.26727E-04 10710   0.655E-03 0.677E-03
CGA:  59    -0.334752420811E+03    0.20354E-04   -0.22953E-04 10710   0.604E-03 0.621E-03
CGA:  60    -0.334752401546E+03    0.19265E-04   -0.19993E-04 10710   0.563E-03 0.576E-03
CGA:  61    -0.334752383329E+03    0.18217E-04   -0.17595E-04 10710   0.527E-03 0.538E-03
CGA:  62    -0.334752366112E+03    0.17217E-04   -0.15612E-04 10710   0.497E-03 0.506E-03
CGA:  63    -0.334752349853E+03    0.16259E-04   -0.13958E-04 10710   0.471E-03 0.478E-03
CGA:  64    -0.334752334513E+03    0.15340E-04   -0.12570E-04 10710   0.449E-03 0.454E-03
CGA:  65    -0.334752320061E+03    0.14452E-04   -0.11399E-04 10710   0.429E-03 0.433E-03
CGA:  66    -0.334752306457E+03    0.13604E-04   -0.10398E-04 10710   0.411E-03 0.415E-03
CGA:  67    -0.334752293661E+03    0.12796E-04   -0.95343E-05 10710   0.395E-03 0.399E-03
CGA:  68    -0.334752281632E+03    0.12028E-04   -0.87819E-05 10710   0.381E-03 0.384E-03
CGA:  69    -0.334752270334E+03    0.11298E-04   -0.81250E-05 10710   0.368E-03 0.371E-03
CGA:  70    -0.334752259729E+03    0.10605E-04   -0.75453E-05 10710   0.357E-03 0.359E-03
CGA:  71    -0.334752249777E+03    0.99518E-05   -0.70303E-05 10710   0.346E-03 0.348E-03
   1 F= -.33475225E+03 E0= -.33474490E+03  d E =-.334752E+03  mag=    10.0000
       N       E                     dE             d eps       ncg     rms          ort
SDA:   1    -0.334731296635E+03    0.20963E-01    0.00000E+00 10710   0.623E-01 0.000E+00
CGA:   2    -0.334741701499E+03   -0.10405E-01   -0.99778E-02 10710   0.358E-01 0.440E-02
CGA:   3    -0.334746858744E+03   -0.51572E-02   -0.53765E-02 10710   0.331E-01-0.304E-02
CGA:   4    -0.334749611116E+03   -0.27524E-02   -0.27389E-02 10710   0.736E-02 0.787E-03
CGA:   5    -0.334750634002E+03   -0.10229E-02   -0.10521E-02 10710   0.299E-02-0.442E-03
CGA:   6    -0.334750926179E+03   -0.29218E-03   -0.35395E-03 10710   0.289E-02-0.124E-02
CGA:   7    -0.334751063027E+03   -0.13685E-03   -0.13739E-03 10710   0.102E-02-0.225E-03
CGA:   8    -0.334751124796E+03   -0.61769E-04   -0.62720E-04 10710   0.656E-03 0.772E-04
CGA:   9    -0.334751204895E+03   -0.80099E-04   -0.79283E-04 10710   0.363E-03 0.239E-04
CGA:  10    -0.334751219546E+03   -0.14651E-04   -0.18329E-04 10710   0.148E-03 0.117E-03
CGA:  11    -0.334751222447E+03   -0.29005E-05   -0.76484E-05 10710   0.105E-03 0.121E-03
   2 F= -.33475122E+03 E0= -.33474392E+03  d E =0.102733E-02  mag=     9.9993
       N       E                     dE             d eps       ncg     rms          ort
SDA:   1    -0.334748503275E+03    0.27163E-02    0.00000E+00 10710   0.922E-02 0.000E+00
CGA:   2    -0.334750177099E+03   -0.16738E-02   -0.17826E-02 10710   0.791E-02-0.930E-03
CGA:   3    -0.334750878028E+03   -0.70093E-03   -0.69101E-03 10710   0.372E-02 0.631E-03
CGA:   4    -0.334751378542E+03   -0.50051E-03   -0.49699E-03 10710   0.107E-02 0.845E-04
CGA:   5    -0.334751462521E+03   -0.83979E-04   -0.85992E-04 10710   0.267E-03 0.345E-03
CGA:   6    -0.334751489000E+03   -0.26479E-04   -0.27369E-04 10710   0.969E-04 0.133E-03
CGA:   7    -0.334751498931E+03   -0.99307E-05   -0.10698E-04 10710   0.521E-04 0.763E-04
   3 F= -.33475150E+03 E0= -.33474417E+03  d E =0.750846E-03  mag=     9.9993
       N       E                     dE             d eps       ncg     rms          ort
SDA:   1    -0.334751172713E+03    0.31629E-03    0.00000E+00 10710   0.110E-02 0.000E+00
CGA:   2    -0.334751401046E+03   -0.22833E-03   -0.23572E-03 10710   0.693E-03-0.566E-04
CGA:   3    -0.334751520205E+03   -0.11916E-03   -0.11628E-03 10710   0.337E-03 0.323E-04
CGA:   4    -0.334751557404E+03   -0.37199E-04   -0.37175E-04 10710   0.127E-03 0.190E-05
CGA:   5    -0.334751557851E+03   -0.44685E-06   -0.47538E-05 10710   0.489E-04 0.764E-04
CGA:   6    -0.334751557223E+03    0.62734E-06   -0.14629E-05 10710   0.261E-04 0.344E-04
   4 F= -.33475156E+03 E0= -.33474422E+03  d E =0.692554E-03  mag=     9.9993
       N       E                     dE             d eps       ncg     rms          ort
SDA:   1    -0.334750326268E+03    0.12316E-02    0.00000E+00 10710   0.398E-02 0.000E+00
CGA:   2    -0.334750953355E+03   -0.62709E-03   -0.73554E-03 10710   0.573E-02-0.108E-02
CGA:   3    -0.334751234841E+03   -0.28149E-03   -0.28928E-03 10710   0.221E-02 0.385E-03
CGA:   4    -0.334751404545E+03   -0.16970E-03   -0.17576E-03 10710   0.136E-02 0.430E-03
CGA:   5    -0.334751530335E+03   -0.12579E-03   -0.12585E-03 10710   0.288E-03 0.535E-05
CGA:   6    -0.334751552240E+03   -0.21905E-04   -0.22792E-04 10710   0.126E-03 0.102E-03
CGA:   7    -0.334751555003E+03   -0.27628E-05   -0.70962E-05 10710   0.487E-04 0.953E-04
   5 F= -.33475156E+03 E0= -.33474421E+03  d E =0.694774E-03  mag=     9.9993
       N       E                     dE             d eps       ncg     rms          ort
SDA:   1    -0.334751185005E+03    0.36724E-03    0.00000E+00 10710   0.128E-02 0.000E+00
CGA:   2    -0.334751322038E+03   -0.13703E-03   -0.12901E-03 10710   0.620E-03 0.455E-03
CGA:   3    -0.334751455819E+03   -0.13378E-03   -0.14259E-03 10710   0.631E-03-0.103E-03
CGA:   4    -0.334751486550E+03   -0.30732E-04   -0.33132E-04 10710   0.213E-03 0.947E-04
CGA:   5    -0.334751513404E+03   -0.26854E-04   -0.29466E-04 10710   0.307E-03-0.790E-04
CGA:   6    -0.334751548086E+03   -0.34682E-04    0.66969E-03 10710   0.145E-03-0.211E-03
CGA:   7    -0.334751560597E+03   -0.12511E-04   -0.12591E-04 10710   0.464E-04 0.440E-04
CGA:   8    -0.334751560771E+03   -0.17478E-06   -0.22632E-05 10710   0.219E-04 0.408E-04
   6 F= -.33475156E+03 E0= -.33474422E+03  d E =0.689005E-03  mag=     9.9993
       N       E                     dE             d eps       ncg     rms          ort
SDA:   1    -0.334751514006E+03    0.46591E-04    0.00000E+00 10710   0.232E-03 0.000E+00
CGA:   2    -0.334751521606E+03   -0.76007E-05   -0.11522E-04 10710   0.852E-04 0.112E-03
CGA:   3    -0.334751528738E+03   -0.71314E-05   -0.81717E-05 10710   0.477E-04 0.574E-04
CGA:   4    -0.334751540401E+03   -0.11664E-04    0.39443E-05 10710   0.335E-04 0.178E-04
CGA:   5    -0.334751549676E+03   -0.92747E-05   -0.17964E-04 10710   0.453E-04-0.281E-04
CGA:   6    -0.334751560886E+03   -0.11210E-04    0.81193E-05 10710   0.236E-04-0.262E-05
CGA:   7    -0.334751561521E+03   -0.63436E-06   -0.10897E-05 10710   0.586E-05 0.942E-05
   7 F= -.33475156E+03 E0= -.33474422E+03  d E =0.688256E-03  mag=     9.9993
       N       E                     dE             d eps       ncg     rms          ort
SDA:   1    -0.334746132689E+03    0.54282E-02    0.00000E+00 10710   0.179E-01 0.000E+00
CGA:   2    -0.334749161735E+03   -0.30290E-02   -0.30010E-02 10710   0.870E-02 0.362E-03
CGA:   3    -0.334750638541E+03   -0.14768E-02   -0.14469E-02 10710   0.512E-02 0.442E-03
CGA:   4    -0.334751282348E+03   -0.64381E-03   -0.66574E-03 10710   0.310E-02-0.886E-03
CGA:   5    -0.334751461546E+03   -0.17920E-03   -0.18455E-03 10710   0.564E-03 0.196E-03
CGA:   6    -0.334751530103E+03   -0.68557E-04   -0.68626E-04 10710   0.399E-03-0.447E-05
CGA:   7    -0.334751568585E+03   -0.38482E-04   -0.61765E-04 10710   0.696E-03-0.412E-03
CGA:   8    -0.334751591131E+03   -0.22546E-04   -0.31536E-04 10710   0.106E-03 0.160E-03
CGA:   9    -0.334751600517E+03   -0.93861E-05   -0.10150E-04 10710   0.527E-04 0.356E-04
CGA:  10    -0.334751593490E+03    0.70267E-05   -0.18189E-04 10710   0.406E-03-0.157E-03
CGA:  11    -0.334751602447E+03   -0.89570E-05   -0.16552E-04 10710   0.650E-04 0.117E-03
   8 F= -.33475160E+03 E0= -.33474427E+03  d E =-.409264E-04  mag=     9.9993
       N       E                     dE             d eps       ncg     rms          ort
SDA:   1    -0.334751349502E+03    0.24399E-03    0.00000E+00 10710   0.512E-02 0.000E+00
CGA:   2    -0.334751529692E+03   -0.18019E-03   -0.21424E-03 10710   0.329E-03 0.632E-03
CGA:   3    -0.334751544946E+03   -0.15254E-04   -0.22068E-04 10710   0.209E-03 0.180E-03
CGA:   4    -0.334751576745E+03   -0.31799E-04   -0.41167E-04 10710   0.622E-03-0.927E-04
CGA:   5    -0.334751585557E+03   -0.88118E-05   -0.15535E-04 10710   0.461E-03 0.120E-03
CGA:   6    -0.334751591930E+03   -0.63732E-05   -0.15867E-04 10710   0.793E-04 0.139E-03
   9 F= -.33475159E+03 E0= -.33474426E+03  d E =-.304091E-04  mag=     9.9993
       N       E                     dE             d eps       ncg     rms          ort
SDA:   1    -0.334750948101E+03    0.63746E-03    0.00000E+00 10710   0.683E-02 0.000E+00
CGA:   2    -0.334751223795E+03   -0.27569E-03   -0.31408E-03 10710   0.988E-03 0.897E-03
CGA:   3    -0.334751351016E+03   -0.12722E-03   -0.11884E-03 10710   0.822E-03 0.492E-03
CGA:   4    -0.334751492174E+03   -0.14116E-03   -0.14116E-03 10710   0.620E-03-0.245E-06
CGA:   5    -0.334751543904E+03   -0.51730E-04   -0.52638E-04 10710   0.174E-03 0.140E-03
CGA:   6    -0.334751558418E+03   -0.14514E-04   -0.48735E-04 10710   0.752E-03-0.250E-03
CGA:   7    -0.334751613272E+03   -0.54854E-04   -0.47180E-04 10710   0.150E-03-0.220E-03
CGA:   8    -0.334751612687E+03    0.58527E-06   -0.36723E-05 10710   0.595E-04 0.692E-04
  10 F= -.33475161E+03 E0= -.33474429E+03  d E =-.511662E-04  mag=     9.9993
       N       E                     dE             d eps       ncg     rms          ort
SDA:   1    -0.334749396191E+03    0.22171E-02    0.00000E+00 10710   0.974E-02 0.000E+00
CGA:   2    -0.334750345210E+03   -0.94902E-03   -0.95767E-03 10710   0.686E-02-0.100E-02
CGA:   3    -0.334750982681E+03   -0.63747E-03   -0.63004E-03 10710   0.203E-02 0.598E-03
CGA:   4    -0.334751341445E+03   -0.35876E-03   -0.35743E-03 10710   0.159E-02 0.182E-04
CGA:   5    -0.334751494065E+03   -0.15262E-03   -0.15328E-03 10710   0.752E-03-0.422E-03
CGA:   6    -0.334751538237E+03   -0.44172E-04   -0.45166E-04 10710   0.172E-03 0.809E-04
CGA:   7    -0.334751554755E+03   -0.16519E-04   -0.16507E-04 10710   0.106E-03-0.172E-05
CGA:   8    -0.334751343205E+03    0.21155E-03   -0.11395E-03 10710   0.280E-02-0.552E-03
CGA:   9    -0.334751481151E+03   -0.13795E-03   -0.16516E-03 10710   0.628E-03 0.262E-03
CGA:  10    -0.334751574591E+03   -0.93440E-04   -0.93435E-04 10710   0.770E-04-0.390E-06
CGA:  11    -0.334751580544E+03   -0.59535E-05   -0.66271E-05 10710   0.353E-04 0.876E-05
  11 F= -.33475158E+03 E0= -.33474426E+03  d E =-.190235E-04  mag=     9.9993
       N       E                     dE             d eps       ncg     rms          ort
SDA:   1    -0.334748340971E+03    0.32336E-02    0.00000E+00 10710   0.899E-02 0.000E+00
CGA:   2    -0.334750268967E+03   -0.19280E-02   -0.19595E-02 10710   0.102E-01-0.515E-03
CGA:   3    -0.334751022645E+03   -0.75368E-03   -0.78618E-03 10710   0.322E-02 0.456E-03
CGA:   4    -0.334751466309E+03   -0.44366E-03   -0.44330E-03 10710   0.947E-03-0.166E-04
CGA:   5    -0.334751552111E+03   -0.85803E-04   -0.92046E-04 10710   0.342E-03 0.110E-03
CGA:   6    -0.334751586484E+03   -0.34373E-04   -0.37087E-04 10710   0.107E-03 0.497E-04
CGA:   7    -0.334751609564E+03   -0.23080E-04   -0.24672E-04 10710   0.911E-04-0.307E-04
CGA:   8    -0.334751609986E+03   -0.42213E-06   -0.31130E-05 10710   0.453E-04 0.260E-04
  12 F= -.33475161E+03 E0= -.33474427E+03  d E =-.294416E-04  mag=     9.9994
       N       E                     dE             d eps       ncg     rms          ort
SDA:   1    -0.334750489893E+03    0.11197E-02    0.00000E+00 10710   0.875E-02 0.000E+00
CGA:   2    -0.334750899984E+03   -0.41009E-03   -0.45928E-03 10710   0.191E-02 0.713E-03
CGA:   3    -0.334751359140E+03   -0.45916E-03   -0.43960E-03 10710   0.128E-02 0.261E-03
CGA:   4    -0.334751525453E+03   -0.16631E-03   -0.15584E-03 10710   0.114E-02-0.313E-03
CGA:   5    -0.334751599783E+03   -0.74330E-04   -0.74499E-04 10710   0.262E-03 0.395E-05
CGA:   6    -0.334751610328E+03   -0.10545E-04   -0.13362E-04 10710   0.948E-04 0.331E-04
CGA:   7    -0.334751626851E+03   -0.16524E-04   -0.20931E-04 10710   0.188E-03-0.696E-04
CGA:   8    -0.334751637800E+03   -0.10949E-04   -0.11066E-04 10710   0.253E-04 0.168E-05
CGA:   9    -0.334751639346E+03   -0.15460E-05   -0.20869E-05 10710   0.680E-05 0.108E-04
  13 F= -.33475164E+03 E0= -.33474431E+03  d E =-.588017E-04  mag=     9.9993
       N       E                     dE             d eps       ncg     rms          ort
SDA:   1    -0.334751446171E+03    0.19163E-03    0.00000E+00 10710   0.568E-03 0.000E+00
CGA:   2    -0.334751543066E+03   -0.96895E-04   -0.11969E-03 10710   0.160E-02-0.268E-03
CGA:   3    -0.334751586641E+03   -0.43575E-04   -0.46479E-04 10710   0.978E-03 0.387E-04
CGA:   4    -0.334751609950E+03   -0.23309E-04   -0.33791E-04 10710   0.254E-03 0.114E-03
CGA:   5    -0.334751619220E+03   -0.92695E-05   -0.13665E-04 10710   0.175E-03 0.598E-04
CGA:   6    -0.334751632880E+03   -0.13660E-04   -0.14276E-04 10710   0.759E-04 0.117E-04
CGA:   7    -0.334751637406E+03   -0.45252E-05   -0.42267E-05 10710   0.302E-04-0.475E-05
  14 F= -.33475164E+03 E0= -.33474430E+03  d E =-.568612E-04  mag=     9.9993
       N       E                     dE             d eps       ncg     rms          ort
SDA:   1    -0.334751265720E+03    0.36716E-03    0.00000E+00 10710   0.370E-02 0.000E+00
CGA:   2    -0.334751499355E+03   -0.23363E-03   -0.21056E-03 10710   0.593E-03-0.457E-03
CGA:   3    -0.334751569124E+03   -0.69770E-04   -0.67128E-04 10710   0.226E-03 0.114E-03
CGA:   4    -0.334751608674E+03   -0.39550E-04   -0.69900E-04 10710   0.946E-03-0.199E-03
CGA:   5    -0.334751631074E+03   -0.22400E-04   -0.35760E-04 10710   0.534E-04 0.179E-03
CGA:   6    -0.334751630452E+03    0.62289E-06   -0.18987E-05 10710   0.213E-04 0.312E-04
  15 F= -.33475163E+03 E0= -.33474429E+03  d E =-.499072E-04  mag=     9.9993
       N       E                     dE             d eps       ncg     rms          ort
SDA:   1    -0.334751590459E+03    0.40616E-04    0.00000E+00 10710   0.331E-03 0.000E+00
CGA:   2    -0.334751615147E+03   -0.24689E-04   -0.24152E-04 10710   0.123E-03-0.167E-04
CGA:   3    -0.334751625790E+03   -0.10643E-04   -0.11101E-04 10710   0.357E-04 0.519E-04
CGA:   4    -0.334751632468E+03   -0.66773E-05   -0.69708E-05 10710   0.598E-04-0.859E-05
CGA:   5    -0.334751637379E+03   -0.49110E-05   -0.50886E-05 10710   0.346E-04-0.252E-04
CGA:   6    -0.334751637760E+03   -0.38184E-06   -0.53376E-06 10710   0.163E-04 0.193E-05
  16 F= -.33475164E+03 E0= -.33474430E+03  d E =-.572160E-04  mag=     9.9993
       N       E                     dE             d eps       ncg     rms          ort
SDA:   1    -0.334751618284E+03    0.19095E-04    0.00000E+00 10710   0.276E-03 0.000E+00
CGA:   2    -0.334751631202E+03   -0.12918E-04   -0.13547E-04 10710   0.154E-04 0.130E-04
CGA:   3    -0.334751634482E+03   -0.32803E-05    0.12140E-04 10710   0.956E-05 0.912E-05
CGA:   4    -0.334751636713E+03   -0.22308E-05    0.20433E-05 10710   0.691E-05 0.430E-05
CGA:   5    -0.334751638682E+03   -0.19689E-05    0.15778E-04 10710   0.288E-05 0.636E-05
CGA:   6    -0.334751639245E+03   -0.56282E-06   -0.56182E-06 10710   0.523E-05 0.132E-07
  17 F= -.33475164E+03 E0= -.33474430E+03  d E =-.587002E-04  mag=     9.9993
       N       E                     dE             d eps       ncg     rms          ort
SDA:   1    -0.334751638914E+03   -0.23180E-06    0.00000E+00 10710   0.336E-04 0.000E+00
CGA:   2    -0.334751640561E+03   -0.16470E-05   -0.17095E-05 10710   0.209E-05 0.127E-05
CGA:   3    -0.334751641080E+03   -0.51960E-06    0.48061E-06 10710   0.107E-05 0.122E-05
CGA:   4    -0.334751641536E+03   -0.45589E-06    0.44173E-07 10710   0.709E-06 0.467E-06
CGA:   5    -0.334751641771E+03   -0.23454E-06   -0.26570E-06 10710   0.269E-06-0.191E-06
CGA:   6    -0.334751641909E+03   -0.13809E-06    0.44828E-08 10710   0.159E-06-0.662E-07
  18 F= -.33475164E+03 E0= -.33474430E+03  d E =-.613643E-04  mag=     9.9993
       N       E                     dE             d eps       ncg     rms          ort
SDA:   1    -0.334751634952E+03    0.68190E-05    0.00000E+00 10710   0.207E-04 0.000E+00
CGA:   2    -0.334751642816E+03   -0.78650E-05    0.11779E-05 10710   0.278E-04-0.184E-04
CGA:   3    -0.334751642004E+03    0.81222E-06   -0.53226E-06 10710   0.998E-05 0.165E-04
CGA:   4    -0.334751641561E+03    0.44343E-06   -0.14646E-06 10710   0.527E-05 0.718E-05
CGA:   5    -0.334751641293E+03    0.26821E-06   -0.66209E-07 10710   0.337E-05 0.417E-05
CGA:   6    -0.334751641114E+03    0.17830E-06   -0.39409E-07 10710   0.242E-05 0.283E-05
  19 F= -.33475164E+03 E0= -.33474430E+03  d E =-.605699E-04  mag=     9.9993
       N       E                     dE             d eps       ncg     rms          ort
SDA:   1    -0.334751616887E+03    0.24406E-04    0.00000E+00 10710   0.169E-03 0.000E+00
CGA:   2    -0.334751406248E+03    0.21064E-03   -0.56195E-04 10710   0.685E-02-0.106E-02
CGA:   3    -0.334751645875E+03   -0.23963E-03   -0.27291E-03 10710   0.882E-04 0.694E-03
CGA:   4    -0.334751645077E+03    0.79855E-06   -0.22483E-05 10710   0.199E-04 0.450E-04
CGA:   5    -0.334751644420E+03    0.65662E-06   -0.32245E-06 10710   0.944E-05 0.137E-04
CGA:   6    -0.334751643994E+03    0.42564E-06   -0.11098E-06 10710   0.580E-05 0.742E-05
  20 F= -.33475164E+03 E0= -.33474431E+03  d E =-.634500E-04  mag=     9.9993
       N       E                     dE             d eps       ncg     rms          ort
SDA:   1    -0.334749969180E+03    0.16752E-02    0.00000E+00 10710   0.632E-02 0.000E+00
CGA:   2    -0.334750775319E+03   -0.80614E-03   -0.90731E-03 10710   0.752E-02-0.152E-02
CGA:   3    -0.334751292092E+03   -0.51677E-03   -0.51526E-03 10710   0.259E-02 0.160E-03
CGA:   4    -0.334751520980E+03   -0.22889E-03   -0.22723E-03 10710   0.150E-02 0.320E-03
CGA:   5    -0.334751666337E+03   -0.14536E-03   -0.14534E-03 10710   0.373E-03 0.366E-05
CGA:   6    -0.334751683458E+03   -0.17121E-04   -0.21097E-04 10710   0.148E-03 0.160E-03
CGA:   7    -0.334751691373E+03   -0.79151E-05   -0.10897E-04 10710   0.648E-04 0.104E-03
CGA:   8    -0.334751702036E+03   -0.10663E-04    0.53516E-04 10710   0.332E-04 0.261E-04
CGA:   9    -0.334751707315E+03   -0.52789E-05   -0.47574E-05 10710   0.138E-04 0.222E-04
  21 F= -.33475171E+03 E0= -.33474436E+03  d E =-.633209E-04  mag=     9.9993
