 vasp.6.1.2 22Jul20 (build Dec 05 2020 14:50:36) complex                        
  
 executed on         CrayXC-Intel date 2021.06.20  04:37:31
 running on   24 total cores
 distrk:  each k-point on   24 cores,    1 groups
 distr:  one band on NCORE=   4 cores,    6 groups


--------------------------------------------------------------------------------------------------------


 INCAR:
 POTCAR:    PAW_PBE Ca_sv 06Sep2000               
 POTCAR:    PAW_PBE V_pv 07Sep2000                
 POTCAR:    PAW_PBE O 08Apr2002                   
 POTCAR:    PAW_PBE Ca_sv 06Sep2000               
   VRHFIN =Ca: 3s3p4s                                                                               
   LEXCH  = PE                                                                                      
   EATOM  =  1006.0909 eV,   73.9456 Ry                                                             
                                                                                                    
   TITEL  = PAW_PBE Ca_sv 06Sep2000                                                                 
   LULTRA =        F    use ultrasoft PP ?                                                          
   IUNSCR =        1    unscreen: 0-lin 1-nonlin 2-no                                               
   RPACOR =    2.000    partial core radius                                                         
   POMASS =   40.078; ZVAL   =   10.000    mass and valenz                                          
   RCORE  =    2.300    outmost cutoff radius                                                       
   RWIGS  =    2.500; RWIGS  =    1.323    wigner-seitz radius (au A)                               
   ENMAX  =  266.622; ENMIN  =  199.967 eV                                                          
   RCLOC  =    1.808    cutoff for local pot                                                        
   LCOR   =        T    correct aug charges                                                         
   LPAW   =        T    paw PP                                                                      
   EAUG   =  420.852                                                                                
   RMAX   =    2.359    core radius for proj-oper                                                   
   RAUG   =    1.300    factor for augmentation sphere                                              
   RDEP   =    2.392    radius for radial grids                                                     
   RDEPT  =    1.987    core radius for aug-charge                                                  
                                                                                                    
   Atomic configuration                                                                             
    7 entries                                                                                       
     n  l   j            E        occ.                                                              
     1  0  0.50     -3949.1705   2.0000                                                             
     2  0  0.50      -414.3434   2.0000                                                             
     2  1  1.50      -334.7047   6.0000                                                             
     3  0  0.50       -47.0896   2.0000                                                             
     4  0  0.50        -3.7663   2.0000                                                             
     3  1  1.50       -28.0061   6.0000                                                             
     3  2  1.50        -4.0817   0.0000                                                             
   Description                                                                                      
     l       E           TYP  RCUT    TYP  RCUT                                                     
     0    -47.0896403     23  2.300                                                                 
     0     -3.7663320     23  2.300                                                                 
     1    -28.0060855     23  2.300                                                                 
     1      6.8029130     23  2.300                                                                 
     2     -4.0817478     23  2.300                                                                 
     2      0.4464412     23  2.300                                                                 
  local pseudopotential read in
  partial core-charges read in
  partial kinetic energy density read in
  atomic valenz-charges read in
  non local Contribution for L=           0  read in
    real space projection operators read in
  non local Contribution for L=           0  read in
    real space projection operators read in
  non local Contribution for L=           1  read in
    real space projection operators read in
  non local Contribution for L=           1  read in
    real space projection operators read in
  non local Contribution for L=           2  read in
    real space projection operators read in
  non local Contribution for L=           2  read in
    real space projection operators read in
    PAW grid and wavefunctions read in
 
   number of l-projection  operators is LMAX  =           6
   number of lm-projection operators is LMMAX =          18
 
 POTCAR:    PAW_PBE V_pv 07Sep2000                
   VRHFIN =V: p6 d4 s1                                                                              
   LEXCH  = PE                                                                                      
   EATOM  =  1321.6206 eV,   97.1364 Ry                                                             
                                                                                                    
   TITEL  = PAW_PBE V_pv 07Sep2000                                                                  
   LULTRA =        F    use ultrasoft PP ?                                                          
   IUNSCR =        1    unscreen: 0-lin 1-nonlin 2-no                                               
   RPACOR =    1.700    partial core radius                                                         
   POMASS =   50.941; ZVAL   =   11.000    mass and valenz                                          
   RCORE  =    2.300    outmost cutoff radius                                                       
   RWIGS  =    2.300; RWIGS  =    1.217    wigner-seitz radius (au A)                               
   ENMAX  =  263.673; ENMIN  =  197.755 eV                                                          
   RCLOC  =    1.779    cutoff for local pot                                                        
   LCOR   =        T    correct aug charges                                                         
   LPAW   =        T    paw PP                                                                      
   EAUG   =  598.473                                                                                
   DEXC   =    0.000                                                                                
   RMAX   =    2.359    core radius for proj-oper                                                   
   RAUG   =    1.300    factor for augmentation sphere                                              
   RDEP   =    2.430    radius for radial grids                                                     
   RDEPT  =    1.700    core radius for aug-charge                                                  
                                                                                                    
   Atomic configuration                                                                             
    8 entries                                                                                       
     n  l   j            E        occ.                                                              
     1  0  0.50     -5360.7193   2.0000                                                             
     2  0  0.50      -598.4546   2.0000                                                             
     2  1  1.50      -499.0155   6.0000                                                             
     3  0  0.50       -66.5711   2.0000                                                             
     3  1  1.50       -40.5282   6.0000                                                             
     3  2  2.50        -2.4291   4.0000                                                             
     4  0  0.50        -3.8743   1.0000                                                             
     4  3  2.50        -1.3606   0.0000                                                             
   Description                                                                                      
     l       E           TYP  RCUT    TYP  RCUT                                                     
     1    -40.5282431     23  2.000                                                                 
     1      5.4423304     23  2.000                                                                 
     2     -2.4290905     23  2.300                                                                 
     2     -1.0472488     23  2.300                                                                 
     0     -3.8742754     23  2.300                                                                 
     0     27.2116520     23  2.300                                                                 
  local pseudopotential read in
  partial core-charges read in
  partial kinetic energy density read in
  atomic valenz-charges read in
  non local Contribution for L=           1  read in
    real space projection operators read in
  non local Contribution for L=           1  read in
    real space projection operators read in
  non local Contribution for L=           2  read in
    real space projection operators read in
  non local Contribution for L=           2  read in
    real space projection operators read in
  non local Contribution for L=           0  read in
    real space projection operators read in
  non local Contribution for L=           0  read in
    real space projection operators read in
    PAW grid and wavefunctions read in
 
   number of l-projection  operators is LMAX  =           6
   number of lm-projection operators is LMMAX =          18
 
 POTCAR:    PAW_PBE O 08Apr2002                   
   VRHFIN =O: s2p4                                                                                  
   LEXCH  = PE                                                                                      
   EATOM  =   432.3788 eV,   31.7789 Ry                                                             
                                                                                                    
   TITEL  = PAW_PBE O 08Apr2002                                                                     
   LULTRA =        F    use ultrasoft PP ?                                                          
   IUNSCR =        1    unscreen: 0-lin 1-nonlin 2-no                                               
   RPACOR =    1.200    partial core radius                                                         
   POMASS =   16.000; ZVAL   =    6.000    mass and valenz                                          
   RCORE  =    1.520    outmost cutoff radius                                                       
   RWIGS  =    1.550; RWIGS  =    0.820    wigner-seitz radius (au A)                               
   ENMAX  =  400.000; ENMIN  =  300.000 eV                                                          
   ICORE  =        2    local potential                                                             
   LCOR   =        T    correct aug charges                                                         
   LPAW   =        T    paw PP                                                                      
   EAUG   =  605.392                                                                                
   DEXC   =    0.000                                                                                
   RMAX   =    1.553    core radius for proj-oper                                                   
   RAUG   =    1.300    factor for augmentation sphere                                              
   RDEP   =    1.550    radius for radial grids                                                     
   RDEPT  =    1.329    core radius for aug-charge                                                  
                                                                                                    
   Atomic configuration                                                                             
    4 entries                                                                                       
     n  l   j            E        occ.                                                              
     1  0  0.50      -514.6923   2.0000                                                             
     2  0  0.50       -23.9615   2.0000                                                             
     2  1  0.50        -9.0305   4.0000                                                             
     3  2  1.50        -9.5241   0.0000                                                             
   Description                                                                                      
     l       E           TYP  RCUT    TYP  RCUT                                                     
     0    -23.9615318     23  1.200                                                                 
     0     -9.5240782     23  1.200                                                                 
     1     -9.0304911     23  1.520                                                                 
     1      8.1634956     23  1.520                                                                 
     2     -9.5240782      7  1.500                                                                 
  local pseudopotential read in
  partial core-charges read in
  partial kinetic energy density read in
  kinetic energy density of atom read in
  atomic valenz-charges read in
  non local Contribution for L=           0  read in
    real space projection operators read in
  non local Contribution for L=           0  read in
    real space projection operators read in
  non local Contribution for L=           1  read in
    real space projection operators read in
  non local Contribution for L=           1  read in
    real space projection operators read in
    PAW grid and wavefunctions read in
 
   number of l-projection  operators is LMAX  =           4
   number of lm-projection operators is LMMAX =           8
 
 Optimization of the real space projectors (new method)

 maximal supplied QI-value         = 16.25
 optimisation between [QCUT,QGAM] = [ 11.54, 23.24] = [ 37.28,151.24] Ry 
 Optimized for a Real-space Cutoff    1.58 Angstroem

   l    n(q)    QCUT    max X(q) W(low)/X(q) W(high)/X(q)  e(spline) 
   0     11    11.539    11.817    0.25E-04    0.22E-05    0.26E-07
   0     11    11.539     8.461    0.39E-04    0.49E-05    0.55E-07
   1     11    11.539     3.957    0.21E-05    0.44E-05    0.32E-07
   1     11    11.539     4.314    0.56E-04    0.44E-04    0.19E-06
   2     10    11.539    14.565    0.25E-03    0.21E-04    0.75E-06
   2     10    11.539    14.552    0.23E-03    0.22E-04    0.72E-06
 Optimization of the real space projectors (new method)

 maximal supplied QI-value         = 16.25
 optimisation between [QCUT,QGAM] = [ 11.54, 23.24] = [ 37.28,151.24] Ry 
 Optimized for a Real-space Cutoff    1.53 Angstroem

   l    n(q)    QCUT    max X(q) W(low)/X(q) W(high)/X(q)  e(spline) 
   1     10    11.539     3.206    0.43E-05    0.46E-05    0.52E-07
   1     10    11.539     4.597    0.39E-04    0.25E-04    0.17E-06
   2     10    11.539    89.000    0.10E-03    0.13E-03    0.24E-06
   2     10    11.539    82.410    0.10E-03    0.13E-03    0.23E-06
   0     11    11.539    36.565    0.42E-04    0.19E-04    0.30E-06
   0     11    11.539    13.729    0.20E-04    0.13E-04    0.22E-06
 Optimization of the real space projectors (new method)

 maximal supplied QI-value         = 24.76
 optimisation between [QCUT,QGAM] = [ 11.64, 23.27] = [ 37.91,151.63] Ry 
 Optimized for a Real-space Cutoff    1.14 Angstroem

   l    n(q)    QCUT    max X(q) W(low)/X(q) W(high)/X(q)  e(spline) 
   0      8    11.635    20.381    0.10E-03    0.33E-03    0.24E-06
   0      8    11.635    15.268    0.11E-03    0.35E-03    0.26E-06
   1      7    11.635     5.964    0.24E-03    0.31E-03    0.30E-06
   1      7    11.635     5.382    0.22E-03    0.25E-03    0.26E-06
  PAW_PBE Ca_sv 06Sep2000               :
 energy of atom  1       EATOM=-1006.0909
 kinetic energy error for atom=    0.0022 (will be added to EATOM!!)
  PAW_PBE V_pv 07Sep2000                :
 energy of atom  2       EATOM=-1321.6206
 kinetic energy error for atom=    0.0054 (will be added to EATOM!!)
  PAW_PBE O 08Apr2002                   :
 energy of atom  3       EATOM= -432.3788
 kinetic energy error for atom=    0.0208 (will be added to EATOM!!)
 
 
 POSCAR: Ca4 V12 O28
  positions in direct lattice
  velocities in cartesian coordinates

 METAGGA = SCAN     LMAXTAU =  6    LMIXTAU =  F

 exchange correlation table for  LEXCH =        8
   RHO(1)=    0.500       N(1)  =     2000
   RHO(2)=  100.500       N(2)  =     4000
 


--------------------------------------------------------------------------------------------------------


 ion  position               nearest neighbor table
   1  0.582  0.250  0.195-  23 2.30  25 2.30  43 2.43  37 2.43  35 2.47  29 2.47  18 2.48
   2  0.082  0.250  0.305-  26 2.30  24 2.30  44 2.43  38 2.43  36 2.47  30 2.47  17 2.48
   3  0.418  0.750  0.805-  21 2.30  27 2.30  39 2.43  41 2.43  31 2.47  33 2.47  20 2.48
   4  0.918  0.750  0.695-  28 2.30  22 2.30  42 2.43  40 2.43  34 2.47  32 2.47  19 2.48
   5  0.791  0.250  0.704-  17 1.64  29 1.96  35 1.96  37 1.97  43 1.97
   6  0.291  0.250  0.796-  18 1.64  30 1.96  36 1.96  38 1.97  44 1.97
   7  0.209  0.750  0.296-  19 1.64  31 1.96  33 1.96  39 1.97  41 1.97
   8  0.709  0.750  0.204-  20 1.64  32 1.96  34 1.96  40 1.97  42 1.97
   9  0.686  0.521  0.712-  21 1.64  37 1.96  40 1.96  32 1.97  29 1.97
  10  0.186  0.979  0.788-  22 1.64  38 1.96  39 1.96  31 1.97  30 1.97
  11  0.314  0.021  0.288-  23 1.64  39 1.96  38 1.96  30 1.97  31 1.97
  12  0.814  0.479  0.212-  24 1.64  40 1.96  37 1.96  29 1.97  32 1.97
  13  0.314  0.479  0.288-  25 1.64  41 1.96  44 1.96  36 1.97  33 1.97
  14  0.814  0.021  0.212-  26 1.64  42 1.96  43 1.96  35 1.97  34 1.97
  15  0.686  0.979  0.712-  27 1.64  43 1.96  42 1.96  34 1.97  35 1.97
  16  0.186  0.521  0.788-  28 1.64  44 1.96  41 1.96  33 1.97  36 1.97
  17  0.947  0.250  0.690-   5 1.64   2 2.48
  18  0.447  0.250  0.810-   6 1.64   1 2.48
  19  0.053  0.750  0.310-   7 1.64   4 2.48
  20  0.553  0.750  0.190-   8 1.64   3 2.48
  21  0.537  0.566  0.731-   9 1.64   3 2.30
  22  0.037  0.934  0.769-  10 1.64   4 2.30
  23  0.463  0.066  0.268-  11 1.64   1 2.30
  24  0.963  0.434  0.232-  12 1.64   2 2.30
  25  0.463  0.434  0.268-  13 1.64   1 2.30
  26  0.963  0.066  0.232-  14 1.64   2 2.30
  27  0.537  0.934  0.731-  15 1.64   3 2.30
  28  0.037  0.566  0.769-  16 1.64   4 2.30
  29  0.722  0.380  0.471-   5 1.96  12 1.97   9 1.97   1 2.47
  30  0.222  0.120  0.029-   6 1.96  11 1.97  10 1.97   2 2.47
  31  0.278  0.880  0.529-   7 1.96  10 1.97  11 1.97   3 2.47
  32  0.778  0.620  0.971-   8 1.96   9 1.97  12 1.97   4 2.47
  33  0.278  0.620  0.529-   7 1.96  16 1.97  13 1.97   3 2.47
  34  0.778  0.880  0.971-   8 1.96  15 1.97  14 1.97   4 2.47
  35  0.722  0.120  0.471-   5 1.96  14 1.97  15 1.97   1 2.47
  36  0.222  0.380  0.029-   6 1.96  13 1.97  16 1.97   2 2.47
  37  0.728  0.380  0.946-   9 1.96  12 1.96   5 1.97   1 2.43
  38  0.228  0.120  0.554-  10 1.96  11 1.96   6 1.97   2 2.43
  39  0.272  0.880  0.054-  11 1.96  10 1.96   7 1.97   3 2.43
  40  0.772  0.620  0.446-  12 1.96   9 1.96   8 1.97   4 2.43
  41  0.272  0.620  0.054-  13 1.96  16 1.96   7 1.97   3 2.43
  42  0.772  0.880  0.446-  14 1.96  15 1.96   8 1.97   4 2.43
  43  0.728  0.120  0.946-  15 1.96  14 1.96   5 1.97   1 2.43
  44  0.228  0.380  0.554-  16 1.96  13 1.96   6 1.97   2 2.43
 

IMPORTANT INFORMATION: All symmetrisations will be switched off!
NOSYMM: (Re-)initialisation of all symmetry stuff for point group C_1.


----------------------------------------------------------------------------------------

                                     Primitive cell                                     

  volume of cell :     574.2927

  direct lattice vectors                    reciprocal lattice vectors
    10.512711189  0.000001864  0.000000649     0.095122940 -0.000000017 -0.000000006
     0.000001885 10.336917218  0.000000397    -0.000000017  0.096740641 -0.000000004
     0.000000329  0.000000192  5.284787019    -0.000000012 -0.000000007  0.189222384

  length of vectors
    10.512711189 10.336917218  5.284787019     0.095122940  0.096740641  0.189222384

  position of ions in fractional coordinates (direct lattice)
     0.581797842  0.249999981  0.195353604
     0.081797517  0.249999962  0.304646347
     0.418215162  0.749999992  0.804611349
     0.918215106  0.750000003  0.695388533
     0.791065021  0.249999981  0.703928644
     0.291065294  0.249999870  0.796071520
     0.208927819  0.750000010  0.295993938
     0.708930717  0.749999969  0.204005965
     0.685608603  0.520894974  0.712459570
     0.185605465  0.979104120  0.787540850
     0.314380103  0.020878324  0.287526626
     0.814380197  0.479121693  0.212473028
     0.314380425  0.479121510  0.287526530
     0.814380019  0.020878171  0.212473108
     0.685608432  0.979104891  0.712459532
     0.185605627  0.520896116  0.787541172
     0.947166753  0.249999976  0.689824898
     0.447166691  0.249999979  0.810174945
     0.052845564  0.749999973  0.310080705
     0.552844191  0.749999961  0.189919230
     0.536811381  0.566470782  0.731368770
     0.036813887  0.933529888  0.768631329
     0.463195066  0.066462000  0.268404000
     0.963194979  0.433537925  0.231595981
     0.463194805  0.433538007  0.268404098
     0.963195141  0.066462077  0.231595936
     0.536811523  0.933529201  0.731368790
     0.036815027  0.566471297  0.768632590
     0.721750944  0.380274914  0.471389650
     0.221751014  0.119725076  0.028610341
     0.278222667  0.880274016  0.528584911
     0.778222362  0.619725852  0.971414810
     0.278222790  0.619725935  0.528584768
     0.778222370  0.880274076  0.971414858
     0.721750960  0.119725041  0.471389608
     0.221751040  0.380274768  0.028610478
     0.727563092  0.380124458  0.946180101
     0.227563148  0.119875655  0.553819604
     0.272458826  0.880121304  0.053752504
     0.772458625  0.619878704  0.446247330
     0.272458955  0.619878634  0.053752614
     0.772458615  0.880121242  0.446247265
     0.727563092  0.119875503  0.946180150
     0.227563142  0.380124191  0.553819420

  ion indices of the primitive-cell ions
   primitive index   ion index
                 1           1
                 2           2
                 3           3
                 4           4
                 5           5
                 6           6
                 7           7
                 8           8
                 9           9
                10          10
                11          11
                12          12
                13          13
                14          14
                15          15
                16          16
                17          17
                18          18
                19          19
                20          20
                21          21
                22          22
                23          23
                24          24
                25          25
                26          26
                27          27
                28          28
                29          29
                30          30
                31          31
                32          32
                33          33
                34          34
                35          35
                36          36
                37          37
                38          38
                39          39
                40          40
                41          41
                42          42
                43          43
                44          44

----------------------------------------------------------------------------------------

 
 
 KPOINTS: K-points file                           

Automatic generation of k-mesh.
Space group operators:
 irot       det(A)        alpha          n_x          n_y          n_z        tau_x        tau_y        tau_z
    1     1.000000     0.000000     1.000000     0.000000     0.000000     0.000000     0.000000     0.000000
 
 Subroutine IBZKPT returns following result:
 ===========================================
 
 Found     58 irreducible k-points:
 
 Following reciprocal coordinates:
            Coordinates               Weight
  0.000000  0.000000  0.000000      1.000000
  0.250000  0.000000  0.000000      2.000000
  0.500000  0.000000 -0.000000      1.000000
  0.000000  0.250000  0.000000      2.000000
  0.250000  0.250000 -0.000000      2.000000
 -0.250000  0.250000  0.000000      2.000000
  0.500000  0.250000  0.000000      2.000000
  0.000000  0.500000  0.000000      1.000000
  0.250000  0.500000 -0.000000      2.000000
  0.500000  0.500000  0.000000      1.000000
  0.000000  0.000000  0.142857      2.000000
  0.250000 -0.000000  0.142857      2.000000
 -0.250000 -0.000000  0.142857      2.000000
  0.500000  0.000000  0.142857      2.000000
  0.000000  0.250000  0.142857      2.000000
 -0.000000 -0.250000  0.142857      2.000000
  0.250000  0.250000  0.142857      2.000000
 -0.250000 -0.250000  0.142857      2.000000
 -0.250000  0.250000 -0.142857      2.000000
  0.250000 -0.250000 -0.142857      2.000000
  0.500000  0.250000  0.142857      2.000000
  0.500000 -0.250000  0.142857      2.000000
  0.000000  0.500000  0.142857      2.000000
  0.250000  0.500000  0.142857      2.000000
 -0.250000  0.500000  0.142857      2.000000
  0.500000  0.500000  0.142857      2.000000
  0.000000  0.000000  0.285714      2.000000
  0.250000  0.000000  0.285714      2.000000
 -0.250000  0.000000  0.285714      2.000000
  0.500000 -0.000000  0.285714      2.000000
  0.000000  0.250000  0.285714      2.000000
  0.000000 -0.250000  0.285714      2.000000
  0.250000  0.250000  0.285714      2.000000
 -0.250000 -0.250000  0.285714      2.000000
 -0.250000  0.250000 -0.285714      2.000000
  0.250000 -0.250000 -0.285714      2.000000
  0.500000  0.250000  0.285714      2.000000
  0.500000 -0.250000  0.285714      2.000000
 -0.000000  0.500000  0.285714      2.000000
  0.250000  0.500000  0.285714      2.000000
 -0.250000  0.500000  0.285714      2.000000
  0.500000  0.500000  0.285714      2.000000
  0.000000 -0.000000  0.428571      2.000000
  0.250000  0.000000  0.428571      2.000000
 -0.250000 -0.000000  0.428571      2.000000
  0.500000  0.000000  0.428571      2.000000
  0.000000  0.250000  0.428571      2.000000
  0.000000 -0.250000  0.428571      2.000000
  0.250000  0.250000  0.428571      2.000000
 -0.250000 -0.250000  0.428571      2.000000
 -0.250000  0.250000 -0.428571      2.000000
  0.250000 -0.250000 -0.428571      2.000000
  0.500000  0.250000  0.428571      2.000000
  0.500000 -0.250000  0.428571      2.000000
  0.000000  0.500000  0.428571      2.000000
  0.250000  0.500000  0.428571      2.000000
 -0.250000  0.500000  0.428571      2.000000
  0.500000  0.500000  0.428571      2.000000
 
 Following cartesian coordinates:
            Coordinates               Weight
  0.000000  0.000000  0.000000      1.000000
  0.023781 -0.000000 -0.000000      2.000000
  0.047561 -0.000000 -0.000000      1.000000
 -0.000000  0.024185 -0.000000      2.000000
  0.023781  0.024185 -0.000000      2.000000
 -0.023781  0.024185  0.000000      2.000000
  0.047561  0.024185 -0.000000      2.000000
 -0.000000  0.048370 -0.000000      1.000000
  0.023781  0.048370 -0.000000      2.000000
  0.047561  0.048370 -0.000000      1.000000
 -0.000000 -0.000000  0.027032      2.000000
  0.023781 -0.000000  0.027032      2.000000
 -0.023781  0.000000  0.027032      2.000000
  0.047561 -0.000000  0.027032      2.000000
 -0.000000  0.024185  0.027032      2.000000
  0.000000 -0.024185  0.027032      2.000000
  0.023781  0.024185  0.027032      2.000000
 -0.023781 -0.024185  0.027032      2.000000
 -0.023781  0.024185 -0.027032      2.000000
  0.023781 -0.024185 -0.027032      2.000000
  0.047561  0.024185  0.027032      2.000000
  0.047561 -0.024185  0.027032      2.000000
 -0.000000  0.048370  0.027032      2.000000
  0.023781  0.048370  0.027032      2.000000
 -0.023781  0.048370  0.027032      2.000000
  0.047561  0.048370  0.027032      2.000000
 -0.000000 -0.000000  0.054064      2.000000
  0.023781 -0.000000  0.054064      2.000000
 -0.023781  0.000000  0.054064      2.000000
  0.047561 -0.000000  0.054064      2.000000
 -0.000000  0.024185  0.054064      2.000000
  0.000000 -0.024185  0.054064      2.000000
  0.023781  0.024185  0.054064      2.000000
 -0.023781 -0.024185  0.054064      2.000000
 -0.023781  0.024185 -0.054064      2.000000
  0.023781 -0.024185 -0.054064      2.000000
  0.047561  0.024185  0.054064      2.000000
  0.047561 -0.024185  0.054064      2.000000
 -0.000000  0.048370  0.054064      2.000000
  0.023781  0.048370  0.054064      2.000000
 -0.023781  0.048370  0.054064      2.000000
  0.047561  0.048370  0.054064      2.000000
 -0.000000 -0.000000  0.081095      2.000000
  0.023781 -0.000000  0.081095      2.000000
 -0.023781  0.000000  0.081095      2.000000
  0.047561 -0.000000  0.081095      2.000000
 -0.000000  0.024185  0.081095      2.000000
 -0.000000 -0.024185  0.081095      2.000000
  0.023781  0.024185  0.081095      2.000000
 -0.023781 -0.024185  0.081095      2.000000
 -0.023781  0.024185 -0.081095      2.000000
  0.023781 -0.024185 -0.081095      2.000000
  0.047561  0.024185  0.081095      2.000000
  0.047561 -0.024185  0.081095      2.000000
 -0.000000  0.048370  0.081095      2.000000
  0.023781  0.048370  0.081095      2.000000
 -0.023781  0.048370  0.081095      2.000000
  0.047561  0.048370  0.081095      2.000000
 


--------------------------------------------------------------------------------------------------------




 Dimension of arrays:
   k-points           NKPTS =     58   k-points in BZ     NKDIM =     58   number of bands    NBANDS=    216
   number of dos      NEDOS =    301   number of ions     NIONS =     44
   non local maximal  LDIM  =      6   non local SUM 2l+1 LMDIM =     18
   total plane-waves  NPLWV = 256000
   max r-space proj   IRMAX =   7412   max aug-charges    IRDMAX=  21465
   dimension x,y,z NGX =    80 NGY =   80 NGZ =   40
   dimension x,y,z NGXF=   160 NGYF=  160 NGZF=   80
   support grid    NGXF=   160 NGYF=  160 NGZF=   80
   ions per type =               4  12  28
   NGX,Y,Z   is equivalent  to a cutoff of  12.65, 12.87, 12.58 a.u.
   NGXF,Y,Z  is equivalent  to a cutoff of  25.30, 25.73, 25.17 a.u.

 SYSTEM =  unknown system                          
 POSCAR =  Ca4 V12 O28                             

 Startparameter for this run:
   NWRITE =      2    write-flag & timer
   PREC   = accura    normal or accurate (medium, high low for compatibility)
   ISTART =      0    job   : 0-new  1-cont  2-samecut
   ICHARG =      1    charge: 1-file 2-atom 10-const
   ISPIN  =      2    spin polarized calculation?
   LNONCOLLINEAR =      F non collinear calculations
   LSORBIT =      F    spin-orbit coupling
   INIWAV =      1    electr: 0-lowe 1-rand  2-diag
   LASPH  =      T    aspherical Exc in radial PAW
   METAGGA=      F    non-selfconsistent MetaGGA calc.

 Electronic Relaxation 1
   ENCUT  =  520.0 eV  38.22 Ry    6.18 a.u.  19.55 19.22  9.83*2*pi/ulx,y,z
   ENINI  =  520.0     initial cutoff
   ENAUG  =  605.4 eV  augmentation charge cutoff
   NELM   =    100;   NELMIN=  6; NELMDL= -5     # of ELM steps 
   EDIFF  = 0.1E-04   stopping-criterion for ELM
   LREAL  =      T    real-space projection
   NLSPLINE    = F    spline interpolate recip. space projectors
   LCOMPAT=      F    compatible to vasp.4.4
   GGA_COMPAT  = T    GGA compatible to vasp.4.4-vasp.4.6
   LMAXPAW     = -100 max onsite density
   LMAXMIX     =    4 max onsite mixed and CHGCAR
   VOSKOWN=      0    Vosko Wilk Nusair interpolation
   ROPT   =   -0.00025  -0.00025  -0.00025
 Ionic relaxation
   EDIFFG = -.3E-01   stopping-criterion for IOM
   NSW    =     99    number of steps for IOM
   NBLOCK =      1;   KBLOCK =     99    inner block; outer block 
   IBRION =      2    ionic relax: 0-MD 1-quasi-New 2-CG
   NFREE  =      1    steps in history (QN), initial steepest desc. (CG)
   ISIF   =      3    stress and relaxation
   IWAVPR =     11    prediction:  0-non 1-charg 2-wave 3-comb
   ISYM   =      0    0-nonsym 1-usesym 2-fastsym
   LCORR  =      T    Harris-Foulkes like correction to forces

   POTIM  = 0.5000    time-step for ionic-motion
   TEIN   =    0.0    initial temperature
   TEBEG  =    0.0;   TEEND  =   0.0 temperature during run
   SMASS  =  -3.00    Nose mass-parameter (am)
   estimated Nose-frequenzy (Omega)   =  0.10E-29 period in steps = 0.13E+47 mass=  -0.253E-26a.u.
   SCALEE = 1.0000    scale energy and forces
   NPACO  =    256;   APACO  = 16.0  distance and # of slots for P.C.
   PSTRESS=    0.0 pullay stress

  Mass of Ions in am
   POMASS =  40.08 50.94 16.00
  Ionic Valenz
   ZVAL   =  10.00 11.00  6.00
  Atomic Wigner-Seitz radii
   RWIGS  =  -1.00 -1.00 -1.00
  virtual crystal weights 
   VCA    =   1.00  1.00  1.00
   NELECT =     340.0000    total number of electrons
   NUPDOWN=      -1.0000    fix difference up-down

 DOS related values:
   EMIN   =  10.00;   EMAX   =-10.00  energy-range for DOS
   EFERMI =   0.00
   ISMEAR =     0;   SIGMA  =   0.05  broadening in eV -4-tet -1-fermi 0-gaus

 Electronic relaxation 2 (details)
   IALGO  =     38    algorithm
   LDIAG  =      T    sub-space diagonalisation (order eigenvalues)
   LSUBROT=      F    optimize rotation matrix (better conditioning)
   TURBO    =      0    0=normal 1=particle mesh
   IRESTART =      0    0=no restart 2=restart with 2 vectors
   NREBOOT  =      0    no. of reboots
   NMIN     =      0    reboot dimension
   EREF     =   0.00    reference energy to select bands
   IMIX   =      4    mixing-type and parameters
     AMIX     =   0.40;   BMIX     =  1.00
     AMIX_MAG =   1.60;   BMIX_MAG =  1.00
     AMIN     =   0.10
     WC   =   100.;   INIMIX=   1;  MIXPRE=   1;  MAXMIX= -45

 Intra band minimization:
   WEIMIN = 0.0010     energy-eigenvalue tresh-hold
   EBREAK =  0.12E-07  absolut break condition
   DEPER  =   0.30     relativ break condition  

   TIME   =   0.40     timestep for ELM

  volume/ion in A,a.u.               =      13.05        88.08
  Fermi-wavevector in a.u.,A,eV,Ry     =   1.374643  2.597699 25.710174  1.889644
  Thomas-Fermi vector in A             =   2.500051
 
 Write flags
   LWAVE        =      F    write WAVECAR
   LDOWNSAMPLE  =      F    k-point downsampling of WAVECAR
   LCHARG       =      T    write CHGCAR
   LVTOT        =      F    write LOCPOT, total local potential
   LVHAR        =      F    write LOCPOT, Hartree potential only
   LELF         =      F    write electronic localiz. function (ELF)
   LORBIT       =     11    0 simple, 1 ext, 2 COOP (PROOUT), +10 PAW based schemes


 Dipole corrections
   LMONO  =      F    monopole corrections only (constant potential shift)
   LDIPOL =      F    correct potential (dipole corrections)
   IDIPOL =      0    1-x, 2-y, 3-z, 4-all directions 
   EPSILON=  1.0000000 bulk dielectric constant

 LDA+U is selected, type is set to LDAUTYPE =  2
   angular momentum for each species LDAUL =    -1    2   -1
   U (eV)           for each species LDAUU =   0.0  1.0  0.0
   J (eV)           for each species LDAUJ =   0.0  0.0  0.0
 Exchange correlation treatment:
   GGA     =    --    GGA type
   LEXCH   =     8    internal setting for exchange type
   VOSKOWN=      0    Vosko Wilk Nusair interpolation
   LHFCALC =     F    Hartree Fock is set to
   LHFONE  =     F    Hartree Fock one center treatment
   AEXX    =    0.0000 exact exchange contribution

 Linear response parameters
   LEPSILON=     F    determine dielectric tensor
   LRPA    =     F    only Hartree local field effects (RPA)
   LNABLA  =     F    use nabla operator in PAW spheres
   LVEL    =     F    velocity operator in full k-point grid
   LINTERFAST=   F  fast interpolation
   KINTER  =     0    interpolate to denser k-point grid
   CSHIFT  =0.1000    complex shift for real part using Kramers Kronig
   OMEGAMAX=  -1.0    maximum frequency
   DEG_THRESHOLD= 0.2000000E-02 threshold for treating states as degnerate
   RTIME   =   -0.100 relaxation time in fs
  (WPLASMAI=    0.000 imaginary part of plasma frequency in eV, 0.658/RTIME)
   DFIELD  = 0.0000000 0.0000000 0.0000000 field for delta impulse in time
 
 Orbital magnetization related:
   ORBITALMAG=     F  switch on orbital magnetization
   LCHIMAG   =     F  perturbation theory with respect to B field
   DQ        =  0.001000  dq finite difference perturbation B field
   LLRAUG    =     F  two centre corrections for induced B field



--------------------------------------------------------------------------------------------------------


 conjugate gradient relaxation of ions
 charge density and potential will be updated during run
 spin polarized calculation
 Variant of blocked Davidson
 Davidson routine will perform the subspace rotation
 perform sub-space diagonalisation
    after iterative eigenvector-optimisation
 modified Broyden-mixing scheme, WC =      100.0
 initial mixing is a Kerker type mixing with AMIX =  0.4000 and BMIX =      1.0000
 Hartree-type preconditioning will be used
 using additional bands           46
 real space projection scheme for non local part
 use partial core corrections
 calculate Harris-corrections to forces 
   (improved forces if not selfconsistent)
 use gradient corrections 
 use of overlap-Matrix (Vanderbilt PP)
 Gauss-broadening in eV      SIGMA  =   0.05


--------------------------------------------------------------------------------------------------------


  energy-cutoff  :      520.00
  volume of cell :      574.29
      direct lattice vectors                 reciprocal lattice vectors
    10.512711189  0.000001864  0.000000649     0.095122940 -0.000000017 -0.000000006
     0.000001885 10.336917218  0.000000397    -0.000000017  0.096740641 -0.000000004
     0.000000329  0.000000192  5.284787019    -0.000000012 -0.000000007  0.189222384

  length of vectors
    10.512711189 10.336917218  5.284787019     0.095122940  0.096740641  0.189222384


 
 k-points in units of 2pi/SCALE and weight: K-points file                           
   0.00000000  0.00000000  0.00000000       0.009
   0.02378074 -0.00000000 -0.00000000       0.018
   0.04756147 -0.00000001 -0.00000000       0.009
  -0.00000000  0.02418516 -0.00000000       0.018
   0.02378073  0.02418516 -0.00000000       0.018
  -0.02378074  0.02418516  0.00000000       0.018
   0.04756147  0.02418515 -0.00000000       0.018
  -0.00000001  0.04837032 -0.00000000       0.009
   0.02378073  0.04837032 -0.00000000       0.018
   0.04756146  0.04837031 -0.00000000       0.009
  -0.00000000 -0.00000000  0.02703177       0.018
   0.02378073 -0.00000001  0.02703177       0.018
  -0.02378074  0.00000000  0.02703177       0.018
   0.04756147 -0.00000001  0.02703177       0.018
  -0.00000001  0.02418516  0.02703177       0.018
   0.00000000 -0.02418516  0.02703177       0.018
   0.02378073  0.02418515  0.02703177       0.018
  -0.02378073 -0.02418516  0.02703177       0.018
  -0.02378074  0.02418517 -0.02703177       0.018
   0.02378074 -0.02418516 -0.02703177       0.018
   0.04756146  0.02418515  0.02703177       0.018
   0.04756147 -0.02418517  0.02703177       0.018
  -0.00000001  0.04837032  0.02703177       0.018
   0.02378072  0.04837032  0.02703177       0.018
  -0.02378075  0.04837032  0.02703177       0.018
   0.04756146  0.04837031  0.02703176       0.018
  -0.00000000 -0.00000000  0.05406354       0.018
   0.02378073 -0.00000001  0.05406354       0.018
  -0.02378074  0.00000000  0.05406354       0.018
   0.04756147 -0.00000001  0.05406354       0.018
  -0.00000001  0.02418516  0.05406354       0.018
   0.00000000 -0.02418516  0.05406354       0.018
   0.02378073  0.02418515  0.05406354       0.018
  -0.02378073 -0.02418516  0.05406354       0.018
  -0.02378074  0.02418517 -0.05406354       0.018
   0.02378074 -0.02418516 -0.05406354       0.018
   0.04756146  0.02418515  0.05406353       0.018
   0.04756147 -0.02418517  0.05406354       0.018
  -0.00000001  0.04837032  0.05406354       0.018
   0.02378072  0.04837031  0.05406354       0.018
  -0.02378075  0.04837032  0.05406354       0.018
   0.04756146  0.04837031  0.05406353       0.018
  -0.00000001 -0.00000000  0.08109531       0.018
   0.02378073 -0.00000001  0.08109531       0.018
  -0.02378074  0.00000000  0.08109531       0.018
   0.04756147 -0.00000001  0.08109530       0.018
  -0.00000001  0.02418516  0.08109531       0.018
  -0.00000000 -0.02418516  0.08109531       0.018
   0.02378073  0.02418515  0.08109531       0.018
  -0.02378074 -0.02418516  0.08109531       0.018
  -0.02378073  0.02418517 -0.08109531       0.018
   0.02378074 -0.02418516 -0.08109531       0.018
   0.04756146  0.02418515  0.08109530       0.018
   0.04756147 -0.02418517  0.08109531       0.018
  -0.00000001  0.04837032  0.08109531       0.018
   0.02378072  0.04837031  0.08109530       0.018
  -0.02378075  0.04837032  0.08109531       0.018
   0.04756146  0.04837031  0.08109530       0.018
 
 k-points in reciprocal lattice and weights: K-points file                           
   0.00000000  0.00000000  0.00000000       0.009
   0.25000000  0.00000000  0.00000000       0.018
   0.50000000  0.00000000 -0.00000000       0.009
   0.00000000  0.25000000  0.00000000       0.018
   0.25000000  0.25000000 -0.00000000       0.018
  -0.25000000  0.25000000  0.00000000       0.018
   0.50000000  0.25000000  0.00000000       0.018
   0.00000000  0.50000000  0.00000000       0.009
   0.25000000  0.50000000 -0.00000000       0.018
   0.50000000  0.50000000  0.00000000       0.009
   0.00000000  0.00000000  0.14285714       0.018
   0.25000000 -0.00000000  0.14285714       0.018
  -0.25000000 -0.00000000  0.14285714       0.018
   0.50000000  0.00000000  0.14285714       0.018
   0.00000000  0.25000000  0.14285714       0.018
  -0.00000000 -0.25000000  0.14285714       0.018
   0.25000000  0.25000000  0.14285714       0.018
  -0.25000000 -0.25000000  0.14285714       0.018
  -0.25000000  0.25000000 -0.14285714       0.018
   0.25000000 -0.25000000 -0.14285714       0.018
   0.50000000  0.25000000  0.14285714       0.018
   0.50000000 -0.25000000  0.14285714       0.018
   0.00000000  0.50000000  0.14285714       0.018
   0.25000000  0.50000000  0.14285714       0.018
  -0.25000000  0.50000000  0.14285714       0.018
   0.50000000  0.50000000  0.14285714       0.018
   0.00000000  0.00000000  0.28571429       0.018
   0.25000000  0.00000000  0.28571429       0.018
  -0.25000000  0.00000000  0.28571429       0.018
   0.50000000 -0.00000000  0.28571429       0.018
   0.00000000  0.25000000  0.28571429       0.018
   0.00000000 -0.25000000  0.28571429       0.018
   0.25000000  0.25000000  0.28571429       0.018
  -0.25000000 -0.25000000  0.28571429       0.018
  -0.25000000  0.25000000 -0.28571429       0.018
   0.25000000 -0.25000000 -0.28571429       0.018
   0.50000000  0.25000000  0.28571429       0.018
   0.50000000 -0.25000000  0.28571429       0.018
  -0.00000000  0.50000000  0.28571429       0.018
   0.25000000  0.50000000  0.28571429       0.018
  -0.25000000  0.50000000  0.28571429       0.018
   0.50000000  0.50000000  0.28571429       0.018
   0.00000000 -0.00000000  0.42857143       0.018
   0.25000000  0.00000000  0.42857143       0.018
  -0.25000000 -0.00000000  0.42857143       0.018
   0.50000000  0.00000000  0.42857143       0.018
   0.00000000  0.25000000  0.42857143       0.018
   0.00000000 -0.25000000  0.42857143       0.018
   0.25000000  0.25000000  0.42857143       0.018
  -0.25000000 -0.25000000  0.42857143       0.018
  -0.25000000  0.25000000 -0.42857143       0.018
   0.25000000 -0.25000000 -0.42857143       0.018
   0.50000000  0.25000000  0.42857143       0.018
   0.50000000 -0.25000000  0.42857143       0.018
   0.00000000  0.50000000  0.42857143       0.018
   0.25000000  0.50000000  0.42857143       0.018
  -0.25000000  0.50000000  0.42857143       0.018
   0.50000000  0.50000000  0.42857143       0.018
 
 position of ions in fractional coordinates (direct lattice) 
   0.58179784  0.24999998  0.19535360
   0.08179752  0.24999996  0.30464635
   0.41821516  0.74999999  0.80461135
   0.91821511  0.75000000  0.69538853
   0.79106502  0.24999998  0.70392864
   0.29106529  0.24999987  0.79607152
   0.20892782  0.75000001  0.29599394
   0.70893072  0.74999997  0.20400596
   0.68560860  0.52089497  0.71245957
   0.18560546  0.97910412  0.78754085
   0.31438010  0.02087832  0.28752663
   0.81438020  0.47912169  0.21247303
   0.31438043  0.47912151  0.28752653
   0.81438002  0.02087817  0.21247311
   0.68560843  0.97910489  0.71245953
   0.18560563  0.52089612  0.78754117
   0.94716675  0.24999998  0.68982490
   0.44716669  0.24999998  0.81017495
   0.05284556  0.74999997  0.31008071
   0.55284419  0.74999996  0.18991923
   0.53681138  0.56647078  0.73136877
   0.03681389  0.93352989  0.76863133
   0.46319507  0.06646200  0.26840400
   0.96319498  0.43353793  0.23159598
   0.46319481  0.43353801  0.26840410
   0.96319514  0.06646208  0.23159594
   0.53681152  0.93352920  0.73136879
   0.03681503  0.56647130  0.76863259
   0.72175094  0.38027491  0.47138965
   0.22175101  0.11972508  0.02861034
   0.27822267  0.88027402  0.52858491
   0.77822236  0.61972585  0.97141481
   0.27822279  0.61972594  0.52858477
   0.77822237  0.88027408  0.97141486
   0.72175096  0.11972504  0.47138961
   0.22175104  0.38027477  0.02861048
   0.72756309  0.38012446  0.94618010
   0.22756315  0.11987566  0.55381960
   0.27245883  0.88012130  0.05375250
   0.77245862  0.61987870  0.44624733
   0.27245895  0.61987863  0.05375261
   0.77245861  0.88012124  0.44624727
   0.72756309  0.11987550  0.94618015
   0.22756314  0.38012419  0.55381942
 
 position of ions in cartesian coordinates  (Angst):
   6.11627322  2.58423023  1.03240267
   0.85991425  2.58422912  1.60999121
   4.39657689  7.75268876  4.25220018
   9.65293187  7.75268979  3.67498118
   8.31623880  2.58423072  3.72011357
   3.05988610  2.58422865  4.20706872
   2.19639934  7.75268846  1.56426536
   7.45278536  7.75268895  1.07812883
   7.20760645  5.38444964  3.76519774
   1.95121875 10.12091874  4.16198617
   3.30498737  0.21581814  1.51951719
   8.56134479  4.95264283  1.12287542
   3.30499161  4.95264002  1.51951687
   8.56134205  0.21581748  1.12287566
   7.20760552 10.12092762  3.76519772
   1.95121959  5.38446053  4.16198769
   9.95729122  2.58423095  3.64557838
   4.70093502  2.58423008  4.28160242
   0.55555166  7.75268779  1.63871082
   5.81189279  7.75268857  1.00368334
   5.64334432  5.85556272  3.86512875
   0.38701577  9.64982139  4.06205326
   4.86943617  0.68701310  1.41845830
  10.12579152  4.48144748  1.22393623
   4.86943412  4.48144741  1.41845896
  10.12579253  0.68701482  1.22393585
   5.64334651  9.64981521  3.86512901
   0.38702706  5.85556712  4.06205978
   7.58756010  3.93087174  2.49119452
   2.33120460  1.23758862  0.15119975
   2.92487638  9.09932025  2.79345921
   8.18122842  6.40605647  5.13372113
   2.92487718  6.40605631  2.79345834
   8.18122900  9.09932189  5.13372149
   7.58755978  1.23758927  2.49119419
   2.33120536  3.93086922  0.15120058
   7.64866168  3.92931659  5.00036094
   2.39230606  1.23914525  2.92681885
   2.86428263  9.09774158  0.28407106
   8.12063574  6.40763638  2.35832284
   2.86428349  6.40763464  0.28407154
   8.12063613  9.09774195  2.35832260
   7.64866120  1.23914469  5.00036109
   2.39230649  3.92931282  2.92681798
 


--------------------------------------------------------------------------------------------------------


 k-point   1 :   0.0000 0.0000 0.0000  plane waves:   15487
 k-point   2 :   0.2500 0.0000 0.0000  plane waves:   15451
 k-point   3 :   0.5000 0.0000-0.0000  plane waves:   15500
 k-point   4 :   0.0000 0.2500 0.0000  plane waves:   15464
 k-point   5 :   0.2500 0.2500-0.0000  plane waves:   15454
 k-point   6 :  -0.2500 0.2500 0.0000  plane waves:   15454
 k-point   7 :   0.5000 0.2500 0.0000  plane waves:   15446
 k-point   8 :   0.0000 0.5000 0.0000  plane waves:   15450
 k-point   9 :   0.2500 0.5000-0.0000  plane waves:   15464
 k-point  10 :   0.5000 0.5000 0.0000  plane waves:   15412
 k-point  11 :   0.0000 0.0000 0.1429  plane waves:   15437
 k-point  12 :   0.2500-0.0000 0.1429  plane waves:   15460
 k-point  13 :  -0.2500-0.0000 0.1429  plane waves:   15460
 k-point  14 :   0.5000 0.0000 0.1429  plane waves:   15456
 k-point  15 :   0.0000 0.2500 0.1429  plane waves:   15450
 k-point  16 :  -0.0000-0.2500 0.1429  plane waves:   15450
 k-point  17 :   0.2500 0.2500 0.1429  plane waves:   15450
 k-point  18 :  -0.2500-0.2500 0.1429  plane waves:   15450
 k-point  19 :  -0.2500 0.2500-0.1429  plane waves:   15450
 k-point  20 :   0.2500-0.2500-0.1429  plane waves:   15450
 k-point  21 :   0.5000 0.2500 0.1429  plane waves:   15452
 k-point  22 :   0.5000-0.2500 0.1429  plane waves:   15452
 k-point  23 :   0.0000 0.5000 0.1429  plane waves:   15444
 k-point  24 :   0.2500 0.5000 0.1429  plane waves:   15442
 k-point  25 :  -0.2500 0.5000 0.1429  plane waves:   15442
 k-point  26 :   0.5000 0.5000 0.1429  plane waves:   15444
 k-point  27 :   0.0000 0.0000 0.2857  plane waves:   15460
 k-point  28 :   0.2500 0.0000 0.2857  plane waves:   15467
 k-point  29 :  -0.2500 0.0000 0.2857  plane waves:   15467
 k-point  30 :   0.5000-0.0000 0.2857  plane waves:   15450
 k-point  31 :   0.0000 0.2500 0.2857  plane waves:   15466
 k-point  32 :   0.0000-0.2500 0.2857  plane waves:   15466
 k-point  33 :   0.2500 0.2500 0.2857  plane waves:   15469
 k-point  34 :  -0.2500-0.2500 0.2857  plane waves:   15469
 k-point  35 :  -0.2500 0.2500-0.2857  plane waves:   15469
 k-point  36 :   0.2500-0.2500-0.2857  plane waves:   15469
 k-point  37 :   0.5000 0.2500 0.2857  plane waves:   15440
 k-point  38 :   0.5000-0.2500 0.2857  plane waves:   15440
 k-point  39 :  -0.0000 0.5000 0.2857  plane waves:   15470
 k-point  40 :   0.2500 0.5000 0.2857  plane waves:   15484
 k-point  41 :  -0.2500 0.5000 0.2857  plane waves:   15484
 k-point  42 :   0.5000 0.5000 0.2857  plane waves:   15460
 k-point  43 :   0.0000-0.0000 0.4286  plane waves:   15484
 k-point  44 :   0.2500 0.0000 0.4286  plane waves:   15469
 k-point  45 :  -0.2500-0.0000 0.4286  plane waves:   15469
 k-point  46 :   0.5000 0.0000 0.4286  plane waves:   15442
 k-point  47 :   0.0000 0.2500 0.4286  plane waves:   15501
 k-point  48 :   0.0000-0.2500 0.4286  plane waves:   15501
 k-point  49 :   0.2500 0.2500 0.4286  plane waves:   15480
 k-point  50 :  -0.2500-0.2500 0.4286  plane waves:   15480
 k-point  51 :  -0.2500 0.2500-0.4286  plane waves:   15480
 k-point  52 :   0.2500-0.2500-0.4286  plane waves:   15480
 k-point  53 :   0.5000 0.2500 0.4286  plane waves:   15465
 k-point  54 :   0.5000-0.2500 0.4286  plane waves:   15465
 k-point  55 :   0.0000 0.5000 0.4286  plane waves:   15480
 k-point  56 :   0.2500 0.5000 0.4286  plane waves:   15494
 k-point  57 :  -0.2500 0.5000 0.4286  plane waves:   15494
 k-point  58 :   0.5000 0.5000 0.4286  plane waves:   15472

 maximum and minimum number of plane-waves per node :      3920     3812

 maximum number of plane-waves:     15501
 maximum index in each direction: 
   IXMAX=   19   IYMAX=   19   IZMAX=   10
   IXMIN=  -20   IYMIN=  -19   IZMIN=  -10


 real space projection operators:
  total allocation   :      19750.72 KBytes
  max/ min on nodes  :       4968.19       4925.66


 parallel 3D FFT for wavefunctions:
    minimum data exchange during FFTs selected (reduces bandwidth)
 parallel 3D FFT for charge:
    minimum data exchange during FFTs selected (reduces bandwidth)


 total amount of memory used by VASP MPI-rank0   336722. kBytes
=======================================================================

   base      :      30000. kBytes
   nonlr-proj:      11628. kBytes
   fftplans  :       4965. kBytes
   grid      :      18782. kBytes
   one-center:        342. kBytes
   wavefun   :     271005. kBytes
 
     INWAV:  cpu time    0.0000: real time    0.0000
 Broyden mixing: mesh for mixing (old mesh)
   NGX = 39   NGY = 39   NGZ = 19
  (NGX  =160   NGY  =160   NGZ  = 80)
  gives a total of  28899 points

 initial charge density was supplied:
 number of electron     340.0000061 magnetization      12.0000042
 keeping initial charge density in first step


--------------------------------------------------------------------------------------------------------


 Maximum index for non-local projection operator         1799
 Maximum index for augmentation-charges         1249 (set IRDMAX)


--------------------------------------------------------------------------------------------------------


 First call to EWALD:  gamma=   0.213
 Maximum number of real-space cells 2x 2x 4
 Maximum number of reciprocal cells 3x 3x 2

    FEWALD:  cpu time    0.0021: real time    0.0021


--------------------------------------- Iteration      1(   1)  ---------------------------------------


    POTLOK:  cpu time    0.2287: real time    0.2321
    SETDIJ:  cpu time    1.7326: real time    1.7327
atom =   5  type =  2  l = 2
 
 onsite density matrix
 
spin component  1
 
  0.2680 -0.0016  0.0000 -0.0000  0.0000
 -0.0016  0.2268 -0.0000 -0.0000  0.0000
  0.0000 -0.0000  0.8049  0.0394  0.2056
 -0.0000 -0.0000  0.0394  0.2417 -0.0013
  0.0000  0.0000  0.2056 -0.0013  0.5089
 
spin component  2
 
  0.2041  0.0009 -0.0000 -0.0000  0.0000
  0.0009  0.2208 -0.0000 -0.0000  0.0000
 -0.0000 -0.0000  0.1227  0.0024 -0.1238
 -0.0000 -0.0000  0.0024  0.1942 -0.0183
  0.0000  0.0000 -0.1238 -0.0183  0.2830
 
 occupancies and eigenvectors
 
  o =  0.0550  v =  0.0000  0.0000  0.0000  0.0000  0.0000 -0.0000  0.0000 -0.8761 -0.0479 -0.4797      0.0000  0.0000  0.0000  0.0000  0.0000  0.0000  0.0000  0.0000  0.0000  0.0000
  o =  0.1926  v =  0.0000  0.0000  0.0000  0.0000  0.0000  0.0000  0.0000 -0.0938  0.9930  0.0723      0.0000  0.0000  0.0000  0.0000  0.0000  0.0000  0.0000  0.0000  0.0000  0.0000
  o =  0.2041  v =  0.0000  0.0000  0.0000  0.0000  0.0000 -0.9987  0.0519 -0.0000  0.0000  0.0000      0.0000  0.0000  0.0000  0.0000  0.0000  0.0000  0.0000  0.0000  0.0000  0.0000
  o =  0.2208  v =  0.0000  0.0000  0.0000  0.0000  0.0000 -0.0519 -0.9987 -0.0000  0.0000  0.0000      0.0000  0.0000  0.0000  0.0000  0.0000  0.0000  0.0000  0.0000  0.0000  0.0000
  o =  0.2268  v = -0.0388 -0.9992  0.0000 -0.0000  0.0000  0.0000  0.0000  0.0000  0.0000  0.0000      0.0000  0.0000  0.0000  0.0000  0.0000  0.0000  0.0000  0.0000  0.0000  0.0000
  o =  0.2377  v =  0.0000 -0.0000 -0.0974  0.9921  0.0786  0.0000  0.0000  0.0000  0.0000  0.0000      0.0000  0.0000  0.0000  0.0000  0.0000  0.0000  0.0000  0.0000  0.0000  0.0000
  o =  0.2680  v = -0.9992  0.0388 -0.0000  0.0000  0.0000  0.0000  0.0000  0.0000  0.0000  0.0000      0.0000  0.0000  0.0000  0.0000  0.0000  0.0000  0.0000  0.0000  0.0000  0.0000
  o =  0.3522  v =  0.0000  0.0000  0.0000  0.0000  0.0000 -0.0000 -0.0000  0.4729  0.1084 -0.8744      0.0000  0.0000  0.0000  0.0000  0.0000  0.0000  0.0000  0.0000  0.0000  0.0000
  o =  0.4058  v =  0.0000  0.0000 -0.4461 -0.1141  0.8877  0.0000  0.0000  0.0000  0.0000  0.0000      0.0000  0.0000  0.0000  0.0000  0.0000  0.0000  0.0000  0.0000  0.0000  0.0000
  o =  0.9121  v =  0.0000 -0.0000  0.8897  0.0514  0.4537  0.0000  0.0000  0.0000  0.0000  0.0000      0.0000  0.0000  0.0000  0.0000  0.0000  0.0000  0.0000  0.0000  0.0000  0.0000
atom =   6  type =  2  l = 2
 
 onsite density matrix
 
spin component  1
 
  0.2680  0.0016  0.0000 -0.0000  0.0000
  0.0016  0.2268  0.0000 -0.0000  0.0000
  0.0000  0.0000  0.8049 -0.0394  0.2056
 -0.0000 -0.0000 -0.0394  0.2417  0.0013
  0.0000  0.0000  0.2056  0.0013  0.5089
 
spin component  2
 
  0.2041 -0.0009 -0.0000 -0.0000  0.0000
 -0.0009  0.2208 -0.0000  0.0000 -0.0000
 -0.0000 -0.0000  0.1227 -0.0024 -0.1238
 -0.0000  0.0000 -0.0024  0.1942  0.0183
  0.0000 -0.0000 -0.1238  0.0183  0.2830
 
 occupancies and eigenvectors
 
  o =  0.0550  v =  0.0000  0.0000  0.0000  0.0000  0.0000 -0.0000 -0.0000 -0.8761  0.0479 -0.4797      0.0000  0.0000  0.0000  0.0000  0.0000  0.0000  0.0000  0.0000  0.0000  0.0000
  o =  0.1927  v =  0.0000  0.0000  0.0000  0.0000  0.0000 -0.0000  0.0000 -0.0938 -0.9930  0.0723      0.0000  0.0000  0.0000  0.0000  0.0000  0.0000  0.0000  0.0000  0.0000  0.0000
  o =  0.2041  v =  0.0000  0.0000  0.0000  0.0000  0.0000 -0.9987 -0.0519  0.0000  0.0000  0.0000      0.0000  0.0000  0.0000  0.0000  0.0000  0.0000  0.0000  0.0000  0.0000  0.0000
  o =  0.2208  v =  0.0000  0.0000  0.0000  0.0000  0.0000  0.0519 -0.9987  0.0000 -0.0000  0.0000      0.0000  0.0000  0.0000  0.0000  0.0000  0.0000  0.0000  0.0000  0.0000  0.0000
  o =  0.2268  v = -0.0388  0.9992  0.0000  0.0000 -0.0000  0.0000  0.0000  0.0000  0.0000  0.0000      0.0000  0.0000  0.0000  0.0000  0.0000  0.0000  0.0000  0.0000  0.0000  0.0000
  o =  0.2377  v = -0.0000  0.0000 -0.0974 -0.9921  0.0786  0.0000  0.0000  0.0000  0.0000  0.0000      0.0000  0.0000  0.0000  0.0000  0.0000  0.0000  0.0000  0.0000  0.0000  0.0000
  o =  0.2680  v =  0.9992  0.0388  0.0000 -0.0000 -0.0000  0.0000  0.0000  0.0000  0.0000  0.0000      0.0000  0.0000  0.0000  0.0000  0.0000  0.0000  0.0000  0.0000  0.0000  0.0000
  o =  0.3522  v =  0.0000  0.0000  0.0000  0.0000  0.0000  0.0000  0.0000 -0.4729  0.1084  0.8744      0.0000  0.0000  0.0000  0.0000  0.0000  0.0000  0.0000  0.0000  0.0000  0.0000
  o =  0.4058  v = -0.0000  0.0000  0.4461 -0.1141 -0.8877  0.0000  0.0000  0.0000  0.0000  0.0000      0.0000  0.0000  0.0000  0.0000  0.0000  0.0000  0.0000  0.0000  0.0000  0.0000
  o =  0.9121  v =  0.0000  0.0000  0.8897 -0.0514  0.4537  0.0000  0.0000  0.0000  0.0000  0.0000      0.0000  0.0000  0.0000  0.0000  0.0000  0.0000  0.0000  0.0000  0.0000  0.0000
atom =   7  type =  2  l = 2
 
 onsite density matrix
 
spin component  1
 
  0.2676 -0.0015 -0.0000 -0.0000  0.0000
 -0.0015  0.2269 -0.0000 -0.0000  0.0000
 -0.0000 -0.0000  0.8046  0.0390  0.2059
 -0.0000 -0.0000  0.0390  0.2419 -0.0015
  0.0000  0.0000  0.2059 -0.0015  0.5097
 
spin component  2
 
  0.2042  0.0009 -0.0000 -0.0000  0.0000
  0.0009  0.2207 -0.0000 -0.0000  0.0000
 -0.0000 -0.0000  0.1228  0.0024 -0.1239
 -0.0000 -0.0000  0.0024  0.1942 -0.0183
  0.0000  0.0000 -0.1239 -0.0183  0.2831
 
 occupancies and eigenvectors
 
  o =  0.0550  v =  0.0000  0.0000  0.0000  0.0000  0.0000 -0.0000  0.0000 -0.8760 -0.0478 -0.4799      0.0000  0.0000  0.0000  0.0000  0.0000  0.0000  0.0000  0.0000  0.0000  0.0000
  o =  0.1926  v =  0.0000  0.0000  0.0000  0.0000  0.0000 -0.0000 -0.0000  0.0937 -0.9930 -0.0722      0.0000  0.0000  0.0000  0.0000  0.0000  0.0000  0.0000  0.0000  0.0000  0.0000
  o =  0.2042  v =  0.0000  0.0000  0.0000  0.0000  0.0000 -0.9986  0.0531 -0.0000  0.0000  0.0000      0.0000  0.0000  0.0000  0.0000  0.0000  0.0000  0.0000  0.0000  0.0000  0.0000
  o =  0.2208  v =  0.0000  0.0000  0.0000  0.0000  0.0000 -0.0531 -0.9986 -0.0000  0.0000  0.0000      0.0000  0.0000  0.0000  0.0000  0.0000  0.0000  0.0000  0.0000  0.0000  0.0000
  o =  0.2268  v =  0.0374  0.9993 -0.0000  0.0000 -0.0000  0.0000  0.0000  0.0000  0.0000  0.0000      0.0000  0.0000  0.0000  0.0000  0.0000  0.0000  0.0000  0.0000  0.0000  0.0000
  o =  0.2380  v =  0.0000 -0.0000 -0.0969  0.9922  0.0789  0.0000  0.0000  0.0000  0.0000  0.0000      0.0000  0.0000  0.0000  0.0000  0.0000  0.0000  0.0000  0.0000  0.0000  0.0000
  o =  0.2677  v = -0.9993  0.0374 -0.0000  0.0000  0.0000  0.0000  0.0000  0.0000  0.0000  0.0000      0.0000  0.0000  0.0000  0.0000  0.0000  0.0000  0.0000  0.0000  0.0000  0.0000
  o =  0.3524  v =  0.0000  0.0000  0.0000  0.0000  0.0000  0.0000  0.0000 -0.4731 -0.1082  0.8743      0.0000  0.0000  0.0000  0.0000  0.0000  0.0000  0.0000  0.0000  0.0000  0.0000
  o =  0.4061  v =  0.0000  0.0000 -0.4472 -0.1142  0.8871  0.0000  0.0000  0.0000  0.0000  0.0000      0.0000  0.0000  0.0000  0.0000  0.0000  0.0000  0.0000  0.0000  0.0000  0.0000
  o =  0.9122  v =  0.0000  0.0000 -0.8892 -0.0507 -0.4548  0.0000  0.0000  0.0000  0.0000  0.0000      0.0000  0.0000  0.0000  0.0000  0.0000  0.0000  0.0000  0.0000  0.0000  0.0000
atom =   8  type =  2  l = 2
 
 onsite density matrix
 
spin component  1
 
  0.2676  0.0015  0.0000 -0.0000  0.0000
  0.0015  0.2269 -0.0000  0.0000  0.0000
  0.0000 -0.0000  0.8046 -0.0390  0.2059
 -0.0000  0.0000 -0.0390  0.2419  0.0015
  0.0000  0.0000  0.2059  0.0015  0.5097
 
spin component  2
 
  0.2042 -0.0009 -0.0000 -0.0000  0.0000
 -0.0009  0.2207 -0.0000  0.0000  0.0000
 -0.0000 -0.0000  0.1228 -0.0024 -0.1239
 -0.0000  0.0000 -0.0024  0.1942  0.0183
  0.0000  0.0000 -0.1239  0.0183  0.2830
 
 occupancies and eigenvectors
 
  o =  0.0550  v =  0.0000  0.0000  0.0000  0.0000  0.0000 -0.0000  0.0000 -0.8760  0.0478 -0.4799      0.0000  0.0000  0.0000  0.0000  0.0000  0.0000  0.0000  0.0000  0.0000  0.0000
  o =  0.1926  v =  0.0000  0.0000  0.0000  0.0000  0.0000 -0.0000  0.0000 -0.0937 -0.9930  0.0722      0.0000  0.0000  0.0000  0.0000  0.0000  0.0000  0.0000  0.0000  0.0000  0.0000
  o =  0.2042  v =  0.0000  0.0000  0.0000  0.0000  0.0000 -0.9986 -0.0531  0.0000  0.0000  0.0000      0.0000  0.0000  0.0000  0.0000  0.0000  0.0000  0.0000  0.0000  0.0000  0.0000
  o =  0.2208  v =  0.0000  0.0000  0.0000  0.0000  0.0000  0.0531 -0.9986 -0.0000 -0.0000  0.0000      0.0000  0.0000  0.0000  0.0000  0.0000  0.0000  0.0000  0.0000  0.0000  0.0000
  o =  0.2268  v =  0.0374 -0.9993  0.0000  0.0000 -0.0000  0.0000  0.0000  0.0000  0.0000  0.0000      0.0000  0.0000  0.0000  0.0000  0.0000  0.0000  0.0000  0.0000  0.0000  0.0000
  o =  0.2380  v = -0.0000 -0.0000 -0.0969 -0.9922  0.0789  0.0000  0.0000  0.0000  0.0000  0.0000      0.0000  0.0000  0.0000  0.0000  0.0000  0.0000  0.0000  0.0000  0.0000  0.0000
  o =  0.2677  v = -0.9993 -0.0374  0.0000  0.0000  0.0000  0.0000  0.0000  0.0000  0.0000  0.0000      0.0000  0.0000  0.0000  0.0000  0.0000  0.0000  0.0000  0.0000  0.0000  0.0000
  o =  0.3524  v =  0.0000  0.0000  0.0000  0.0000  0.0000  0.0000  0.0000 -0.4731  0.1082  0.8743      0.0000  0.0000  0.0000  0.0000  0.0000  0.0000  0.0000  0.0000  0.0000  0.0000
  o =  0.4061  v = -0.0000 -0.0000  0.4472 -0.1142 -0.8871  0.0000  0.0000  0.0000  0.0000  0.0000      0.0000  0.0000  0.0000  0.0000  0.0000  0.0000  0.0000  0.0000  0.0000  0.0000
  o =  0.9122  v =  0.0000 -0.0000  0.8892 -0.0507  0.4548  0.0000  0.0000  0.0000  0.0000  0.0000      0.0000  0.0000  0.0000  0.0000  0.0000  0.0000  0.0000  0.0000  0.0000  0.0000
atom =   9  type =  2  l = 2
 
 onsite density matrix
 
spin component  1
 
  0.3517 -0.0036 -0.1377 -0.0046 -0.1377
 -0.0036  0.2367 -0.0045 -0.0217 -0.0001
 -0.1377 -0.0045  0.7700  0.0388  0.1795
 -0.0046 -0.0217  0.0388  0.2637  0.0031
 -0.1377 -0.0001  0.1795  0.0031  0.4485
 
spin component  2
 
  0.2242 -0.0031  0.0770  0.0100 -0.0354
 -0.0031  0.2251 -0.0014 -0.0048  0.0035
  0.0770 -0.0014  0.1313  0.0017 -0.1047
  0.0100 -0.0048  0.0017  0.2036 -0.0161
 -0.0354  0.0035 -0.1047 -0.0161  0.2457
 
 occupancies and eigenvectors
 
  o =  0.0534  v =  0.0000  0.0000  0.0000  0.0000  0.0000  0.3034  0.0054 -0.8560 -0.0550 -0.4149      0.0000  0.0000  0.0000  0.0000  0.0000  0.0000  0.0000  0.0000  0.0000  0.0000
  o =  0.1974  v =  0.0000  0.0000  0.0000  0.0000  0.0000  0.7351  0.0713 -0.0382  0.3584  0.5697      0.0000  0.0000  0.0000  0.0000  0.0000  0.0000  0.0000  0.0000  0.0000  0.0000
  o =  0.2019  v =  0.0000  0.0000  0.0000  0.0000  0.0000  0.3323 -0.1641  0.0930 -0.9084  0.1695      0.0000  0.0000  0.0000  0.0000  0.0000  0.0000  0.0000  0.0000  0.0000  0.0000
  o =  0.2239  v = -0.0838 -0.8586  0.0299 -0.5002 -0.0688  0.0000  0.0000  0.0000  0.0000  0.0000      0.0000  0.0000  0.0000  0.0000  0.0000  0.0000  0.0000  0.0000  0.0000  0.0000
  o =  0.2257  v =  0.0000  0.0000  0.0000  0.0000  0.0000 -0.0220 -0.9830 -0.0443  0.1725  0.0398      0.0000  0.0000  0.0000  0.0000  0.0000  0.0000  0.0000  0.0000  0.0000  0.0000
  o =  0.2542  v =  0.8235 -0.0735  0.0326 -0.0862  0.5550  0.0000  0.0000  0.0000  0.0000  0.0000      0.0000  0.0000  0.0000  0.0000  0.0000  0.0000  0.0000  0.0000  0.0000  0.0000
  o =  0.2722  v = -0.0080 -0.5060 -0.1033  0.8523  0.0833  0.0000  0.0000  0.0000  0.0000  0.0000      0.0000  0.0000  0.0000  0.0000  0.0000  0.0000  0.0000  0.0000  0.0000  0.0000
  o =  0.3516  v =  0.0000  0.0000  0.0000  0.0000  0.0000  0.5066 -0.0416  0.5051  0.1162 -0.6877      0.0000  0.0000  0.0000  0.0000  0.0000  0.0000  0.0000  0.0000  0.0000  0.0000
  o =  0.4079  v =  0.4659 -0.0372  0.5158  0.1141 -0.7088  0.0000  0.0000  0.0000  0.0000  0.0000      0.0000  0.0000  0.0000  0.0000  0.0000  0.0000  0.0000  0.0000  0.0000  0.0000
  o =  0.9124  v = -0.3126 -0.0059  0.8493  0.0553  0.4217  0.0000  0.0000  0.0000  0.0000  0.0000      0.0000  0.0000  0.0000  0.0000  0.0000  0.0000  0.0000  0.0000  0.0000  0.0000
atom =  10  type =  2  l = 2
 
 onsite density matrix
 
spin component  1
 
  0.3517  0.0036  0.1377 -0.0046  0.1377
  0.0036  0.2367 -0.0045  0.0217 -0.0001
  0.1377 -0.0045  0.7700 -0.0388  0.1794
 -0.0046  0.0217 -0.0388  0.2637 -0.0031
  0.1377 -0.0001  0.1794 -0.0031  0.4485
 
spin component  2
 
  0.2242  0.0031 -0.0770  0.0100  0.0354
  0.0031  0.2251 -0.0014  0.0048  0.0035
 -0.0770 -0.0014  0.1313 -0.0017 -0.1047
  0.0100  0.0048 -0.0017  0.2036  0.0161
  0.0354  0.0035 -0.1047  0.0161  0.2457
 
 occupancies and eigenvectors
 
  o =  0.0534  v =  0.0000  0.0000  0.0000  0.0000  0.0000  0.3034 -0.0054  0.8560 -0.0550  0.4149      0.0000  0.0000  0.0000  0.0000  0.0000  0.0000  0.0000  0.0000  0.0000  0.0000
  o =  0.1974  v =  0.0000  0.0000  0.0000  0.0000  0.0000  0.7351 -0.0714  0.0382  0.3585 -0.5697      0.0000  0.0000  0.0000  0.0000  0.0000  0.0000  0.0000  0.0000  0.0000  0.0000
  o =  0.2019  v =  0.0000  0.0000  0.0000  0.0000  0.0000  0.3324  0.1643 -0.0930 -0.9084 -0.1696      0.0000  0.0000  0.0000  0.0000  0.0000  0.0000  0.0000  0.0000  0.0000  0.0000
  o =  0.2239  v = -0.0839  0.8587 -0.0299 -0.5001  0.0688  0.0000  0.0000  0.0000  0.0000  0.0000      0.0000  0.0000  0.0000  0.0000  0.0000  0.0000  0.0000  0.0000  0.0000  0.0000
  o =  0.2257  v =  0.0000  0.0000  0.0000  0.0000  0.0000  0.0219 -0.9829 -0.0443 -0.1727  0.0399      0.0000  0.0000  0.0000  0.0000  0.0000  0.0000  0.0000  0.0000  0.0000  0.0000
  o =  0.2542  v =  0.8234  0.0735 -0.0326 -0.0862 -0.5550  0.0000  0.0000  0.0000  0.0000  0.0000      0.0000  0.0000  0.0000  0.0000  0.0000  0.0000  0.0000  0.0000  0.0000  0.0000
  o =  0.2722  v =  0.0080 -0.5059 -0.1033 -0.8523  0.0833  0.0000  0.0000  0.0000  0.0000  0.0000      0.0000  0.0000  0.0000  0.0000  0.0000  0.0000  0.0000  0.0000  0.0000  0.0000
  o =  0.3516  v =  0.0000  0.0000  0.0000  0.0000  0.0000  0.5066  0.0416 -0.5051  0.1162  0.6877      0.0000  0.0000  0.0000  0.0000  0.0000  0.0000  0.0000  0.0000  0.0000  0.0000
  o =  0.4080  v =  0.4659  0.0372 -0.5158  0.1141  0.7088  0.0000  0.0000  0.0000  0.0000  0.0000      0.0000  0.0000  0.0000  0.0000  0.0000  0.0000  0.0000  0.0000  0.0000  0.0000
  o =  0.9124  v = -0.3126  0.0059 -0.8493  0.0553 -0.4217  0.0000  0.0000  0.0000  0.0000  0.0000      0.0000  0.0000  0.0000  0.0000  0.0000  0.0000  0.0000  0.0000  0.0000  0.0000
atom =  11  type =  2  l = 2
 
 onsite density matrix
 
spin component  1
 
  0.3519 -0.0039  0.1385  0.0051  0.1379
 -0.0039  0.2369  0.0040  0.0219 -0.0001
  0.1385  0.0040  0.7693  0.0404  0.1793
  0.0051  0.0219  0.0404  0.2641  0.0037
  0.1379 -0.0001  0.1793  0.0037  0.4483
 
spin component  2
 
  0.2242 -0.0032 -0.0770 -0.0102  0.0354
 -0.0032  0.2251  0.0015  0.0048 -0.0035
 -0.0770  0.0015  0.1313  0.0017 -0.1046
 -0.0102  0.0048  0.0017  0.2035 -0.0163
  0.0354 -0.0035 -0.1046 -0.0163  0.2455
 
 occupancies and eigenvectors
 
  o =  0.0534  v =  0.0000  0.0000  0.0000  0.0000  0.0000  0.3034  0.0052  0.8560  0.0558  0.4149      0.0000  0.0000  0.0000  0.0000  0.0000  0.0000  0.0000  0.0000  0.0000  0.0000
  o =  0.1973  v =  0.0000  0.0000  0.0000  0.0000  0.0000 -0.7369 -0.0721 -0.0382  0.3522  0.5712      0.0000  0.0000  0.0000  0.0000  0.0000  0.0000  0.0000  0.0000  0.0000  0.0000
  o =  0.2018  v =  0.0000  0.0000  0.0000  0.0000  0.0000 -0.3279  0.1623  0.0944 -0.9110  0.1655      0.0000  0.0000  0.0000  0.0000  0.0000  0.0000  0.0000  0.0000  0.0000  0.0000
  o =  0.2238  v =  0.0875  0.8568  0.0318 -0.5023 -0.0706  0.0000  0.0000  0.0000  0.0000  0.0000      0.0000  0.0000  0.0000  0.0000  0.0000  0.0000  0.0000  0.0000  0.0000  0.0000
  o =  0.2257  v =  0.0000  0.0000  0.0000  0.0000  0.0000  0.0202  0.9832 -0.0446  0.1708  0.0418      0.0000  0.0000  0.0000  0.0000  0.0000  0.0000  0.0000  0.0000  0.0000  0.0000
  o =  0.2541  v = -0.8233  0.0743  0.0352 -0.0924  0.5539  0.0000  0.0000  0.0000  0.0000  0.0000      0.0000  0.0000  0.0000  0.0000  0.0000  0.0000  0.0000  0.0000  0.0000  0.0000
  o =  0.2726  v =  0.0042  0.5089 -0.1056  0.8499  0.0865  0.0000  0.0000  0.0000  0.0000  0.0000      0.0000  0.0000  0.0000  0.0000  0.0000  0.0000  0.0000  0.0000  0.0000  0.0000
  o =  0.3515  v =  0.0000  0.0000  0.0000  0.0000  0.0000  0.5070 -0.0422 -0.5049 -0.1174  0.6874      0.0000  0.0000  0.0000  0.0000  0.0000  0.0000  0.0000  0.0000  0.0000  0.0000
  o =  0.4075  v =  0.4646 -0.0378 -0.5161 -0.1160  0.7091  0.0000  0.0000  0.0000  0.0000  0.0000      0.0000  0.0000  0.0000  0.0000  0.0000  0.0000  0.0000  0.0000  0.0000  0.0000
  o =  0.9124  v = -0.3139 -0.0051 -0.8487 -0.0579 -0.4217  0.0000  0.0000  0.0000  0.0000  0.0000      0.0000  0.0000  0.0000  0.0000  0.0000  0.0000  0.0000  0.0000  0.0000  0.0000
atom =  12  type =  2  l = 2
 
 onsite density matrix
 
spin component  1
 
  0.3519  0.0039 -0.1385  0.0051 -0.1379
  0.0039  0.2369  0.0040 -0.0219 -0.0001
 -0.1385  0.0040  0.7693 -0.0404  0.1793
  0.0051 -0.0219 -0.0404  0.2641 -0.0037
 -0.1379 -0.0001  0.1793 -0.0037  0.4483
 
spin component  2
 
  0.2242  0.0032  0.0770 -0.0102 -0.0354
  0.0032  0.2251  0.0015 -0.0048 -0.0035
  0.0770  0.0015  0.1313 -0.0017 -0.1046
 -0.0102 -0.0048 -0.0017  0.2035  0.0163
 -0.0354 -0.0035 -0.1046  0.0163  0.2455
 
 occupancies and eigenvectors
 
  o =  0.0534  v =  0.0000  0.0000  0.0000  0.0000  0.0000  0.3034 -0.0052 -0.8560  0.0558 -0.4149      0.0000  0.0000  0.0000  0.0000  0.0000  0.0000  0.0000  0.0000  0.0000  0.0000
  o =  0.1973  v =  0.0000  0.0000  0.0000  0.0000  0.0000 -0.7369  0.0721  0.0382  0.3523 -0.5712      0.0000  0.0000  0.0000  0.0000  0.0000  0.0000  0.0000  0.0000  0.0000  0.0000
  o =  0.2018  v =  0.0000  0.0000  0.0000  0.0000  0.0000 -0.3279 -0.1622 -0.0944 -0.9109 -0.1655      0.0000  0.0000  0.0000  0.0000  0.0000  0.0000  0.0000  0.0000  0.0000  0.0000
  o =  0.2238  v =  0.0875 -0.8568 -0.0318 -0.5023  0.0706  0.0000  0.0000  0.0000  0.0000  0.0000      0.0000  0.0000  0.0000  0.0000  0.0000  0.0000  0.0000  0.0000  0.0000  0.0000
  o =  0.2257  v =  0.0000  0.0000  0.0000  0.0000  0.0000 -0.0202  0.9832 -0.0446 -0.1708  0.0418      0.0000  0.0000  0.0000  0.0000  0.0000  0.0000  0.0000  0.0000  0.0000  0.0000
  o =  0.2541  v = -0.8233 -0.0743 -0.0352 -0.0924 -0.5539  0.0000  0.0000  0.0000  0.0000  0.0000      0.0000  0.0000  0.0000  0.0000  0.0000  0.0000  0.0000  0.0000  0.0000  0.0000
  o =  0.2726  v = -0.0042  0.5089 -0.1056 -0.8499  0.0865  0.0000  0.0000  0.0000  0.0000  0.0000      0.0000  0.0000  0.0000  0.0000  0.0000  0.0000  0.0000  0.0000  0.0000  0.0000
  o =  0.3515  v =  0.0000  0.0000  0.0000  0.0000  0.0000  0.5070  0.0422  0.5049 -0.1174 -0.6874      0.0000  0.0000  0.0000  0.0000  0.0000  0.0000  0.0000  0.0000  0.0000  0.0000
  o =  0.4075  v =  0.4646  0.0378  0.5161 -0.1160 -0.7091  0.0000  0.0000  0.0000  0.0000  0.0000      0.0000  0.0000  0.0000  0.0000  0.0000  0.0000  0.0000  0.0000  0.0000  0.0000
  o =  0.9124  v = -0.3139  0.0051  0.8487 -0.0579  0.4217  0.0000  0.0000  0.0000  0.0000  0.0000      0.0000  0.0000  0.0000  0.0000  0.0000  0.0000  0.0000  0.0000  0.0000  0.0000
atom =  13  type =  2  l = 2
 
 onsite density matrix
 
spin component  1
 
  0.3519 -0.0039 -0.1385 -0.0051 -0.1379
 -0.0039  0.2369 -0.0040 -0.0219  0.0001
 -0.1385 -0.0040  0.7693  0.0404  0.1793
 -0.0051 -0.0219  0.0404  0.2641  0.0037
 -0.1379  0.0001  0.1793  0.0037  0.4483
 
spin component  2
 
  0.2242 -0.0032  0.0770  0.0102 -0.0354
 -0.0032  0.2251 -0.0015 -0.0048  0.0035
  0.0770 -0.0015  0.1313  0.0017 -0.1046
  0.0102 -0.0048  0.0017  0.2035 -0.0163
 -0.0354  0.0035 -0.1046 -0.0163  0.2455
 
 occupancies and eigenvectors
 
  o =  0.0534  v =  0.0000  0.0000  0.0000  0.0000  0.0000  0.3034  0.0052 -0.8560 -0.0558 -0.4149      0.0000  0.0000  0.0000  0.0000  0.0000  0.0000  0.0000  0.0000  0.0000  0.0000
  o =  0.1973  v =  0.0000  0.0000  0.0000  0.0000  0.0000  0.7369  0.0721 -0.0382  0.3522  0.5712      0.0000  0.0000  0.0000  0.0000  0.0000  0.0000  0.0000  0.0000  0.0000  0.0000
  o =  0.2018  v =  0.0000  0.0000  0.0000  0.0000  0.0000  0.3279 -0.1623  0.0944 -0.9110  0.1655      0.0000  0.0000  0.0000  0.0000  0.0000  0.0000  0.0000  0.0000  0.0000  0.0000
  o =  0.2238  v = -0.0875 -0.8568  0.0318 -0.5023 -0.0706  0.0000  0.0000  0.0000  0.0000  0.0000      0.0000  0.0000  0.0000  0.0000  0.0000  0.0000  0.0000  0.0000  0.0000  0.0000
  o =  0.2257  v =  0.0000  0.0000  0.0000  0.0000  0.0000 -0.0202 -0.9832 -0.0446  0.1708  0.0418      0.0000  0.0000  0.0000  0.0000  0.0000  0.0000  0.0000  0.0000  0.0000  0.0000
  o =  0.2541  v =  0.8233 -0.0743  0.0352 -0.0924  0.5539  0.0000  0.0000  0.0000  0.0000  0.0000      0.0000  0.0000  0.0000  0.0000  0.0000  0.0000  0.0000  0.0000  0.0000  0.0000
  o =  0.2726  v = -0.0042 -0.5089 -0.1056  0.8499  0.0865  0.0000  0.0000  0.0000  0.0000  0.0000      0.0000  0.0000  0.0000  0.0000  0.0000  0.0000  0.0000  0.0000  0.0000  0.0000
  o =  0.3515  v =  0.0000  0.0000  0.0000  0.0000  0.0000  0.5070 -0.0422  0.5049  0.1174 -0.6874      0.0000  0.0000  0.0000  0.0000  0.0000  0.0000  0.0000  0.0000  0.0000  0.0000
  o =  0.4075  v =  0.4646 -0.0378  0.5161  0.1160 -0.7091  0.0000  0.0000  0.0000  0.0000  0.0000      0.0000  0.0000  0.0000  0.0000  0.0000  0.0000  0.0000  0.0000  0.0000  0.0000
  o =  0.9124  v = -0.3139 -0.0051  0.8487  0.0579  0.4217  0.0000  0.0000  0.0000  0.0000  0.0000      0.0000  0.0000  0.0000  0.0000  0.0000  0.0000  0.0000  0.0000  0.0000  0.0000
atom =  14  type =  2  l = 2
 
 onsite density matrix
 
spin component  1
 
  0.3519  0.0039  0.1385 -0.0051  0.1379
  0.0039  0.2369 -0.0040  0.0219  0.0001
  0.1385 -0.0040  0.7693 -0.0404  0.1793
 -0.0051  0.0219 -0.0404  0.2641 -0.0037
  0.1379  0.0001  0.1793 -0.0037  0.4483
 
spin component  2
 
  0.2242  0.0032 -0.0770  0.0102  0.0354
  0.0032  0.2251 -0.0015  0.0048  0.0035
 -0.0770 -0.0015  0.1313 -0.0017 -0.1046
  0.0102  0.0048 -0.0017  0.2035  0.0163
  0.0354  0.0035 -0.1046  0.0163  0.2455
 
 occupancies and eigenvectors
 
  o =  0.0534  v =  0.0000  0.0000  0.0000  0.0000  0.0000  0.3034 -0.0052  0.8560 -0.0558  0.4149      0.0000  0.0000  0.0000  0.0000  0.0000  0.0000  0.0000  0.0000  0.0000  0.0000
  o =  0.1973  v =  0.0000  0.0000  0.0000  0.0000  0.0000  0.7369 -0.0721  0.0382  0.3522 -0.5712      0.0000  0.0000  0.0000  0.0000  0.0000  0.0000  0.0000  0.0000  0.0000  0.0000
  o =  0.2018  v =  0.0000  0.0000  0.0000  0.0000  0.0000  0.3279  0.1622 -0.0944 -0.9110 -0.1655      0.0000  0.0000  0.0000  0.0000  0.0000  0.0000  0.0000  0.0000  0.0000  0.0000
  o =  0.2238  v = -0.0875  0.8568 -0.0318 -0.5023  0.0706  0.0000  0.0000  0.0000  0.0000  0.0000      0.0000  0.0000  0.0000  0.0000  0.0000  0.0000  0.0000  0.0000  0.0000  0.0000
  o =  0.2257  v =  0.0000  0.0000  0.0000  0.0000  0.0000  0.0202 -0.9832 -0.0446 -0.1708  0.0418      0.0000  0.0000  0.0000  0.0000  0.0000  0.0000  0.0000  0.0000  0.0000  0.0000
  o =  0.2541  v =  0.8233  0.0743 -0.0352 -0.0924 -0.5539  0.0000  0.0000  0.0000  0.0000  0.0000      0.0000  0.0000  0.0000  0.0000  0.0000  0.0000  0.0000  0.0000  0.0000  0.0000
  o =  0.2726  v =  0.0042 -0.5089 -0.1056 -0.8499  0.0865  0.0000  0.0000  0.0000  0.0000  0.0000      0.0000  0.0000  0.0000  0.0000  0.0000  0.0000  0.0000  0.0000  0.0000  0.0000
  o =  0.3514  v =  0.0000  0.0000  0.0000  0.0000  0.0000  0.5070  0.0422 -0.5049  0.1174  0.6874      0.0000  0.0000  0.0000  0.0000  0.0000  0.0000  0.0000  0.0000  0.0000  0.0000
  o =  0.4075  v =  0.4646  0.0378 -0.5161  0.1160  0.7091  0.0000  0.0000  0.0000  0.0000  0.0000      0.0000  0.0000  0.0000  0.0000  0.0000  0.0000  0.0000  0.0000  0.0000  0.0000
  o =  0.9124  v = -0.3139  0.0051 -0.8487  0.0579 -0.4217  0.0000  0.0000  0.0000  0.0000  0.0000      0.0000  0.0000  0.0000  0.0000  0.0000  0.0000  0.0000  0.0000  0.0000  0.0000
atom =  15  type =  2  l = 2
 
 onsite density matrix
 
spin component  1
 
  0.3517 -0.0036  0.1377  0.0046  0.1377
 -0.0036  0.2367  0.0045  0.0217  0.0001
  0.1377  0.0045  0.7700  0.0388  0.1794
  0.0046  0.0217  0.0388  0.2637  0.0031
  0.1377  0.0001  0.1794  0.0031  0.4485
 
spin component  2
 
  0.2242 -0.0031 -0.0770 -0.0100  0.0354
 -0.0031  0.2251  0.0014  0.0048 -0.0035
 -0.0770  0.0014  0.1313  0.0017 -0.1047
 -0.0100  0.0048  0.0017  0.2036 -0.0161
  0.0354 -0.0035 -0.1047 -0.0161  0.2457
 
 occupancies and eigenvectors
 
  o =  0.0534  v =  0.0000  0.0000  0.0000  0.0000  0.0000  0.3034  0.0054  0.8560  0.0550  0.4149      0.0000  0.0000  0.0000  0.0000  0.0000  0.0000  0.0000  0.0000  0.0000  0.0000
  o =  0.1974  v =  0.0000  0.0000  0.0000  0.0000  0.0000 -0.7351 -0.0713 -0.0382  0.3583  0.5697      0.0000  0.0000  0.0000  0.0000  0.0000  0.0000  0.0000  0.0000  0.0000  0.0000
  o =  0.2019  v =  0.0000  0.0000  0.0000  0.0000  0.0000 -0.3322  0.1642  0.0930 -0.9085  0.1695      0.0000  0.0000  0.0000  0.0000  0.0000  0.0000  0.0000  0.0000  0.0000  0.0000
  o =  0.2239  v =  0.0838  0.8586  0.0299 -0.5001 -0.0688  0.0000  0.0000  0.0000  0.0000  0.0000      0.0000  0.0000  0.0000  0.0000  0.0000  0.0000  0.0000  0.0000  0.0000  0.0000
  o =  0.2257  v =  0.0000  0.0000  0.0000  0.0000  0.0000  0.0220  0.9830 -0.0443  0.1725  0.0399      0.0000  0.0000  0.0000  0.0000  0.0000  0.0000  0.0000  0.0000  0.0000  0.0000
  o =  0.2542  v = -0.8235  0.0735  0.0326 -0.0862  0.5550  0.0000  0.0000  0.0000  0.0000  0.0000      0.0000  0.0000  0.0000  0.0000  0.0000  0.0000  0.0000  0.0000  0.0000  0.0000
  o =  0.2722  v =  0.0080  0.5059 -0.1033  0.8523  0.0834  0.0000  0.0000  0.0000  0.0000  0.0000      0.0000  0.0000  0.0000  0.0000  0.0000  0.0000  0.0000  0.0000  0.0000  0.0000
  o =  0.3516  v =  0.0000  0.0000  0.0000  0.0000  0.0000  0.5066 -0.0416 -0.5051 -0.1162  0.6877      0.0000  0.0000  0.0000  0.0000  0.0000  0.0000  0.0000  0.0000  0.0000  0.0000
[...]
   15        0.012   0.006   1.039   1.056
   16        0.012   0.006   1.039   1.056
   17       -0.002  -0.104   0.000  -0.106
   18       -0.002  -0.104   0.000  -0.106
   19       -0.002  -0.104   0.000  -0.106
   20       -0.002  -0.104   0.000  -0.106
   21       -0.002  -0.099   0.000  -0.101
   22       -0.002  -0.099   0.000  -0.101
   23       -0.002  -0.099   0.000  -0.101
   24       -0.002  -0.099   0.000  -0.101
   25       -0.002  -0.099   0.000  -0.101
   26       -0.002  -0.099   0.000  -0.101
   27       -0.002  -0.099   0.000  -0.101
   28       -0.002  -0.099   0.000  -0.101
   29       -0.000   0.006   0.000   0.006
   30       -0.000   0.006   0.000   0.006
   31       -0.000   0.006   0.000   0.005
   32       -0.000   0.006   0.000   0.005
   33       -0.000   0.006   0.000   0.005
   34       -0.000   0.006   0.000   0.005
   35       -0.000   0.006   0.000   0.006
   36       -0.000   0.006   0.000   0.006
   37       -0.000   0.005   0.000   0.005
   38       -0.000   0.005   0.000   0.005
   39       -0.000   0.005   0.000   0.004
   40       -0.000   0.005   0.000   0.004
   41       -0.000   0.005   0.000   0.004
   42       -0.000   0.005   0.000   0.004
   43       -0.000   0.005   0.000   0.005
   44       -0.000   0.005   0.000   0.005
--------------------------------------------------
tot          0.098  -1.061  12.405  11.442
 
    CHARGE:  cpu time    2.6525: real time    2.6527
    FORLOC:  cpu time    0.0154: real time    0.0154
    FORNL :  cpu time   20.9892: real time   20.9902
    STRESS:  cpu time  534.2989: real time  534.3246
    FORCOR:  cpu time    0.2270: real time    0.2270
    FORHAR:  cpu time    0.0249: real time    0.0249
    MIXING:  cpu time    0.0043: real time    0.0043
    OFIELD:  cpu time    0.0000: real time    0.0000

  FORCE on cell =-STRESS in cart. coord.  units (eV):
  Direction    XX          YY          ZZ          XY          YZ          ZX
  --------------------------------------------------------------------------------------
  Alpha Z  1574.01930  1574.01930  1574.01930
  Ewald   -9059.73900 -5594.51606 -6016.84411    -0.00414    -0.00105     0.00993
  Hartree  1389.47833  4538.83359  4377.21145    -0.00166    -0.00060     0.00454
  E(xc)   -1861.52293 -1860.95494 -1861.22646     0.00000    -0.00000    -0.00000
  Local    2950.42215 -3827.20052 -3256.18747     0.00538     0.00163    -0.01392
  n-local -1602.86723 -1620.47566 -1621.16366    -0.00001    -0.00001    -0.00024
  augment   745.28285   803.65361   806.80965     0.00005    -0.00001    -0.00009
  Kinetic  5865.04958  5986.66018  5997.21660     0.00005    -0.00001    -0.00006
  Fock        0.00000     0.00000     0.00000     0.00000     0.00000     0.00000
  -------------------------------------------------------------------------------------
  Total       0.12305     0.01950    -0.16469    -0.00033    -0.00004     0.00016
  in kB       0.34329     0.05439    -0.45947    -0.00091    -0.00012     0.00045
  external pressure =       -0.02 kB  Pullay stress =        0.00 kB


 VOLUME and BASIS-vectors are now :
 -----------------------------------------------------------------------------
  energy-cutoff  :      520.00
  volume of cell :      574.29
      direct lattice vectors                 reciprocal lattice vectors
    10.512711189  0.000001864  0.000000649     0.095122940 -0.000000017 -0.000000006
     0.000001885 10.336917218  0.000000397    -0.000000017  0.096740641 -0.000000004
     0.000000329  0.000000192  5.284787019    -0.000000012 -0.000000007  0.189222384

  length of vectors
    10.512711189 10.336917218  5.284787019     0.095122940  0.096740641  0.189222384


 FORCES acting on ions
    electron-ion (+dipol)            ewald-force                    non-local-force                 convergence-correction
 -----------------------------------------------------------------------------------------------
   0.144E+03 -.438E-03 -.288E+02   -.143E+03 0.398E-03 0.280E+02   -.313E+00 0.295E-04 0.818E+00   0.516E-04 0.327E-05 0.108E-04
   0.144E+03 -.842E-03 0.288E+02   -.143E+03 0.841E-03 -.280E+02   -.314E+00 0.575E-05 -.818E+00   0.512E-04 -.298E-05 -.120E-04
   -.144E+03 -.289E-03 0.287E+02   0.143E+03 0.261E-03 -.279E+02   0.316E+00 0.225E-04 -.814E+00   -.470E-04 0.135E-05 -.128E-04
   -.144E+03 0.586E-03 -.287E+02   0.143E+03 -.541E-03 0.279E+02   0.317E+00 -.185E-04 0.814E+00   -.467E-04 -.156E-05 0.140E-04
   -.600E+02 -.489E-04 -.236E+02   0.573E+02 0.172E-04 0.236E+02   0.304E+01 0.101E-04 -.162E-01   0.698E-04 -.358E-06 -.887E-05
   -.600E+02 -.599E-03 0.236E+02   0.573E+02 0.668E-03 -.236E+02   0.304E+01 -.193E-04 0.162E-01   0.593E-04 -.443E-05 0.978E-05
   0.599E+02 -.124E-04 0.236E+02   -.572E+02 -.309E-04 -.235E+02   -.305E+01 0.174E-04 0.127E-01   -.563E-04 0.558E-05 0.509E-05
   0.599E+02 0.316E-03 -.236E+02   -.572E+02 -.310E-03 0.235E+02   -.305E+01 0.689E-06 -.127E-01   -.515E-04 -.174E-05 -.638E-05
   0.111E+03 -.284E+02 0.148E+02   -.109E+03 0.276E+02 -.149E+02   -.261E+01 0.839E+00 0.146E+00   -.199E-04 -.536E-04 0.473E-05
   0.111E+03 0.284E+02 -.148E+02   -.109E+03 -.276E+02 0.149E+02   -.261E+01 -.840E+00 -.146E+00   -.284E-04 0.579E-04 -.579E-05
   -.111E+03 -.286E+02 -.151E+02   0.109E+03 0.278E+02 0.152E+02   0.261E+01 0.856E+00 -.139E+00   0.173E-05 -.577E-04 0.102E-04
   -.111E+03 0.286E+02 0.151E+02   0.109E+03 -.278E+02 -.152E+02   0.261E+01 -.856E+00 0.139E+00   0.221E-04 0.563E-04 -.106E-04
   -.111E+03 0.286E+02 -.151E+02   0.109E+03 -.278E+02 0.152E+02   0.261E+01 -.856E+00 -.139E+00   0.117E-04 0.539E-04 0.916E-05
   -.111E+03 -.286E+02 0.151E+02   0.109E+03 0.278E+02 -.152E+02   0.261E+01 0.856E+00 0.139E+00   0.260E-04 -.560E-04 -.914E-05
   0.111E+03 0.284E+02 0.148E+02   -.109E+03 -.276E+02 -.149E+02   -.261E+01 -.839E+00 0.146E+00   -.198E-04 0.524E-04 0.380E-05
   0.111E+03 -.284E+02 -.148E+02   -.109E+03 0.276E+02 0.149E+02   -.261E+01 0.840E+00 -.146E+00   -.338E-04 -.538E-04 -.375E-05
   -.271E+03 -.640E-03 -.455E+02   0.294E+03 0.614E-03 0.474E+02   -.229E+02 0.330E-04 -.196E+01   -.107E-03 -.365E-06 0.547E-04
   -.271E+03 -.217E-03 0.455E+02   0.294E+03 0.237E-03 -.474E+02   -.229E+02 -.217E-04 0.196E+01   -.112E-03 -.484E-06 -.556E-04
   0.271E+03 0.216E-03 0.453E+02   -.294E+03 -.220E-03 -.473E+02   0.229E+02 0.206E-05 0.197E+01   0.114E-03 0.112E-05 -.544E-04
   0.271E+03 0.888E-04 -.453E+02   -.294E+03 -.969E-04 0.473E+02   0.229E+02 0.968E-05 -.197E+01   0.118E-03 -.421E-07 0.553E-04
   0.235E+03 -.261E+02 -.331E+01   -.257E+03 0.280E+02 0.374E+01   0.222E+02 -.191E+01 -.430E+00   0.806E-04 -.127E-03 -.261E-04
   0.235E+03 0.261E+02 0.331E+01   -.257E+03 -.280E+02 -.374E+01   0.222E+02 0.191E+01 0.430E+00   0.697E-04 0.126E-03 0.251E-04
   -.235E+03 -.261E+02 0.340E+01   0.257E+03 0.280E+02 -.385E+01   -.222E+02 -.191E+01 0.453E+00   -.106E-03 -.136E-03 0.286E-04
   -.235E+03 0.261E+02 -.340E+01   0.257E+03 -.280E+02 0.385E+01   -.222E+02 0.191E+01 -.454E+00   -.854E-04 0.131E-03 -.270E-04
   -.235E+03 0.261E+02 0.340E+01   0.257E+03 -.280E+02 -.385E+01   -.222E+02 0.191E+01 0.453E+00   -.914E-04 0.133E-03 0.274E-04
   -.235E+03 -.261E+02 -.340E+01   0.257E+03 0.280E+02 0.385E+01   -.222E+02 -.191E+01 -.453E+00   -.795E-04 -.130E-03 -.263E-04
   0.235E+03 0.261E+02 -.331E+01   -.257E+03 -.280E+02 0.374E+01   0.222E+02 0.191E+01 -.430E+00   0.787E-04 0.127E-03 -.261E-04
   0.235E+03 -.261E+02 0.331E+01   -.257E+03 0.280E+02 -.374E+01   0.222E+02 -.191E+01 0.430E+00   0.626E-04 -.124E-03 0.249E-04
   0.103E+03 0.739E+02 0.644E+02   -.110E+03 -.789E+02 -.696E+02   0.749E+01 0.510E+01 0.515E+01   0.486E-04 0.704E-04 0.638E-04
   0.103E+03 -.739E+02 -.644E+02   -.110E+03 0.789E+02 0.696E+02   0.749E+01 -.510E+01 -.515E+01   0.505E-04 -.697E-04 -.534E-04
   -.103E+03 0.739E+02 -.644E+02   0.110E+03 -.789E+02 0.696E+02   -.749E+01 0.510E+01 -.515E+01   -.433E-04 0.732E-04 -.798E-04
   -.103E+03 -.739E+02 0.644E+02   0.110E+03 0.789E+02 -.696E+02   -.749E+01 -.510E+01 0.515E+01   -.449E-04 -.662E-04 0.703E-04
   -.103E+03 -.739E+02 -.644E+02   0.110E+03 0.789E+02 0.696E+02   -.749E+01 -.510E+01 -.515E+01   -.431E-04 -.656E-04 -.773E-04
   -.103E+03 0.739E+02 0.644E+02   0.110E+03 -.789E+02 -.696E+02   -.749E+01 0.510E+01 0.515E+01   -.452E-04 0.644E-04 0.691E-04
   0.103E+03 -.739E+02 0.644E+02   -.110E+03 0.789E+02 -.696E+02   0.749E+01 -.510E+01 0.515E+01   0.489E-04 -.689E-04 0.654E-04
   0.103E+03 0.739E+02 -.644E+02   -.110E+03 -.789E+02 0.696E+02   0.749E+01 0.510E+01 -.515E+01   0.483E-04 0.638E-04 -.560E-04
   0.688E+02 0.764E+02 -.647E+02   -.743E+02 -.820E+02 0.697E+02   0.546E+01 0.562E+01 -.496E+01   0.580E-04 0.701E-04 -.646E-04
   0.688E+02 -.764E+02 0.647E+02   -.743E+02 0.820E+02 -.697E+02   0.546E+01 -.562E+01 0.496E+01   0.599E-04 -.699E-04 0.546E-04
   -.690E+02 0.764E+02 0.647E+02   0.744E+02 -.820E+02 -.696E+02   -.547E+01 0.562E+01 0.495E+01   -.527E-04 0.714E-04 0.813E-04
   -.690E+02 -.764E+02 -.647E+02   0.744E+02 0.820E+02 0.696E+02   -.547E+01 -.562E+01 -.495E+01   -.544E-04 -.639E-04 -.724E-04
   -.690E+02 -.764E+02 0.647E+02   0.744E+02 0.820E+02 -.696E+02   -.547E+01 -.562E+01 0.495E+01   -.529E-04 -.640E-04 0.791E-04
   -.690E+02 0.764E+02 -.647E+02   0.744E+02 -.820E+02 0.696E+02   -.547E+01 0.562E+01 -.495E+01   -.546E-04 0.621E-04 -.709E-04
   0.688E+02 -.764E+02 -.647E+02   -.743E+02 0.820E+02 0.697E+02   0.546E+01 -.562E+01 -.496E+01   0.577E-04 -.682E-04 -.665E-04
   0.688E+02 0.764E+02 0.647E+02   -.743E+02 -.820E+02 -.697E+02   0.546E+01 0.562E+01 0.496E+01   0.576E-04 0.629E-04 0.569E-04
 -----------------------------------------------------------------------------------------------
   -.345E-01 0.310E-03 0.270E-03   0.853E-13 -.568E-13 0.711E-13   0.389E-01 -.256E-03 -.697E-03   -.292E-04 0.547E-06 -.179E-05
 
 
 POSITION                                       TOTAL-FORCE (eV/Angst)
 -----------------------------------------------------------------------------------
      6.11627      2.58423      1.03240        -0.005650     -0.000008     -0.025497
      0.85991      2.58423      1.60999        -0.005348      0.000000      0.025522
      4.39658      7.75269      4.25220         0.005033     -0.000006      0.025892
      9.65293      7.75269      3.67498         0.005065      0.000023     -0.025897
      8.31624      2.58423      3.72011         0.003563     -0.000023     -0.000078
      3.05989      2.58423      4.20707         0.003308      0.000043      0.000020
      2.19640      7.75269      1.56427         0.001016     -0.000022      0.001615
      7.45279      7.75269      1.07813        -0.002026      0.000003     -0.001735
      7.20761      5.38445      3.76520         0.005944     -0.016601     -0.005945
      1.95122     10.12092      4.16199         0.009546      0.017730      0.005978
      3.30499      0.21582      1.51952         0.005711     -0.007589      0.007771
      8.56134      4.95264      1.12288         0.005603      0.007517     -0.007671
      3.30499      4.95264      1.51952         0.005366      0.007689      0.007810
      8.56134      0.21582      1.12288         0.005823     -0.007435     -0.007675
      7.20761     10.12093      3.76520         0.006117      0.016681     -0.005947
      1.95122      5.38446      4.16199         0.009875     -0.017877      0.005957
      9.95729      2.58423      3.64558        -0.016907      0.000006     -0.023502
      4.70094      2.58423      4.28160        -0.016653     -0.000003      0.023556
      0.55555      7.75269      1.63871         0.014082     -0.000002      0.024458
      5.81189      7.75269      1.00368         0.016273      0.000000     -0.024312
      5.64334      5.85556      3.86513        -0.009848      0.012638      0.000005
      0.38702      9.64982      4.06205        -0.012301     -0.013550     -0.000306
      4.86944      0.68701      1.41846        -0.000556      0.009492      0.001266
     10.12579      4.48145      1.22394        -0.000583     -0.009420     -0.001265
      4.86943      4.48145      1.41846        -0.000278     -0.009576      0.001247
     10.12579      0.68701      1.22394        -0.000752      0.009372     -0.001272
      5.64335      9.64982      3.86513        -0.009977     -0.012681      0.000014
      0.38703      5.85557      4.06206        -0.012646      0.013597     -0.000335
      7.58756      3.93087      2.49119        -0.009448      0.015919     -0.012676
      2.33120      1.23759      0.15120        -0.009613     -0.015963      0.012674
      2.92488      9.09932      2.79346         0.008149      0.014505      0.012021
      8.18123      6.40606      5.13372         0.008506     -0.014516     -0.011987
      2.92488      6.40606      2.79346         0.008151     -0.014496      0.012027
      8.18123      9.09932      5.13372         0.008488      0.014505     -0.011987
      7.58756      1.23759      2.49119        -0.009460     -0.015916     -0.012661
      2.33121      3.93087      0.15120        -0.009608      0.015963      0.012662
      7.64866      3.92932      5.00036        -0.000488      0.013650      0.015479
      2.39231      1.23915      2.92682        -0.000655     -0.013746     -0.015388
      2.86428      9.09774      0.28407        -0.000570      0.010279     -0.015537
      8.12064      6.40764      2.35832        -0.000260     -0.010327      0.015562
      2.86428      6.40763      0.28407        -0.000557     -0.010261     -0.015532
      8.12064      9.09774      2.35832        -0.000278      0.010311      0.015564
      7.64866      1.23914      5.00036        -0.000501     -0.013656      0.015465
      2.39231      3.92931      2.92682        -0.000654      0.013754     -0.015360
 -----------------------------------------------------------------------------------
    total drift:                                0.004344      0.000055     -0.000429


--------------------------------------------------------------------------------------------------------



  FREE ENERGIE OF THE ION-ELECTRON SYSTEM (eV)
  ---------------------------------------------------
  free  energy   TOTEN  =      -535.97242559 eV

  energy  without entropy=     -535.97242559  energy(sigma->0) =     -535.97242559
 


--------------------------------------------------------------------------------------------------------


    POTLOK:  cpu time    1.9489: real time    1.9491


--------------------------------------------------------------------------------------------------------




--------------------------------------------------------------------------------------------------------


  
 reached required accuracy - stopping structural energy minimisation
     LOOP+:  cpu time 5909.3636: real time 5909.8379
    4ORBIT:  cpu time    0.0000: real time    0.0000
 


 total charge     
 
# of ion       s       p       d       tot
------------------------------------------
    1        2.020   5.869   0.214   8.103
    2        2.020   5.869   0.214   8.103
    3        2.020   5.869   0.214   8.103
    4        2.020   5.869   0.214   8.103
    5        0.339   6.343   3.037   9.719
    6        0.339   6.343   3.037   9.719
    7        0.339   6.343   3.037   9.720
    8        0.339   6.343   3.037   9.720
    9        0.343   6.350   3.061   9.754
   10        0.343   6.350   3.062   9.754
   11        0.343   6.350   3.061   9.753
   12        0.343   6.350   3.061   9.753
   13        0.343   6.350   3.061   9.753
   14        0.343   6.350   3.061   9.753
   15        0.343   6.350   3.061   9.754
   16        0.343   6.350   3.062   9.754
   17        1.602   3.420   0.000   5.022
   18        1.602   3.420   0.000   5.022
   19        1.602   3.420   0.000   5.022
   20        1.602   3.420   0.000   5.022
   21        1.603   3.442   0.000   5.046
   22        1.603   3.442   0.000   5.046
   23        1.603   3.442   0.000   5.046
   24        1.603   3.442   0.000   5.046
   25        1.603   3.442   0.000   5.046
   26        1.603   3.442   0.000   5.046
   27        1.603   3.442   0.000   5.046
   28        1.603   3.442   0.000   5.046
   29        1.571   3.537   0.000   5.108
   30        1.571   3.537   0.000   5.108
   31        1.571   3.537   0.000   5.108
   32        1.571   3.537   0.000   5.108
   33        1.571   3.537   0.000   5.108
   34        1.571   3.537   0.000   5.108
   35        1.571   3.537   0.000   5.108
   36        1.571   3.537   0.000   5.108
   37        1.571   3.542   0.000   5.113
   38        1.571   3.542   0.000   5.113
   39        1.571   3.542   0.000   5.113
   40        1.571   3.542   0.000   5.113
   41        1.571   3.542   0.000   5.113
   42        1.571   3.542   0.000   5.113
   43        1.571   3.542   0.000   5.113
   44        1.571   3.542   0.000   5.113
--------------------------------------------------
tot         56.554 197.493  37.493 291.540
 


 magnetization (x)
 
# of ion       s       p       d       tot
------------------------------------------
    1        0.001  -0.001   0.000   0.000
    2        0.001  -0.001   0.000   0.000
    3        0.001  -0.001   0.000   0.000
    4        0.001  -0.001   0.000   0.000
    5        0.007   0.005   1.024   1.036
    6        0.007   0.005   1.024   1.036
    7        0.007   0.006   1.024   1.037
    8        0.007   0.006   1.024   1.037
    9        0.012   0.006   1.039   1.056
   10        0.012   0.006   1.039   1.056
   11        0.011   0.006   1.039   1.056
   12        0.011   0.006   1.039   1.056
   13        0.011   0.006   1.039   1.056
   14        0.011   0.006   1.039   1.056
   15        0.012   0.006   1.039   1.056
   16        0.012   0.006   1.039   1.056
   17       -0.002  -0.104   0.000  -0.106
   18       -0.002  -0.104   0.000  -0.106
   19       -0.002  -0.104   0.000  -0.106
   20       -0.002  -0.104   0.000  -0.106
   21       -0.002  -0.099   0.000  -0.101
   22       -0.002  -0.099   0.000  -0.101
   23       -0.002  -0.099   0.000  -0.101
   24       -0.002  -0.099   0.000  -0.101
   25       -0.002  -0.099   0.000  -0.101
   26       -0.002  -0.099   0.000  -0.101
   27       -0.002  -0.099   0.000  -0.101
   28       -0.002  -0.099   0.000  -0.101
   29       -0.000   0.006   0.000   0.006
   30       -0.000   0.006   0.000   0.006
   31       -0.000   0.006   0.000   0.005
   32       -0.000   0.006   0.000   0.005
   33       -0.000   0.006   0.000   0.005
   34       -0.000   0.006   0.000   0.005
   35       -0.000   0.006   0.000   0.006
   36       -0.000   0.006   0.000   0.006
   37       -0.000   0.005   0.000   0.005
   38       -0.000   0.005   0.000   0.005
   39       -0.000   0.005   0.000   0.004
   40       -0.000   0.005   0.000   0.004
   41       -0.000   0.005   0.000   0.004
   42       -0.000   0.005   0.000   0.004
   43       -0.000   0.005   0.000   0.005
   44       -0.000   0.005   0.000   0.005
--------------------------------------------------
tot          0.098  -1.061  12.405  11.442
 

 total amount of memory used by VASP MPI-rank0   336722. kBytes
=======================================================================

   base      :      30000. kBytes
   nonlr-proj:      11628. kBytes
   fftplans  :       4965. kBytes
   grid      :      18782. kBytes
   one-center:        342. kBytes
   wavefun   :     271005. kBytes
 
  
  
 General timing and accounting informations for this job:
 ========================================================
  
                  Total CPU time used (sec):     5953.731
                            User time (sec):     5938.668
                          System time (sec):       15.063
                         Elapsed time (sec):     5954.620
  
                   Maximum memory used (kb):      439304.
                   Average memory used (kb):           0.
  
                          Minor page faults:       192468
                          Major page faults:           20
                 Voluntary context switches:          799
