       N       E                     dE             d eps       ncg     rms          ort
DAV:   1     0.264939190844E+04    0.26494E+04   -0.14805E+05  6336   0.155E+03
DAV:   2    -0.265760271637E+03   -0.29152E+04   -0.28175E+04  6336   0.430E+02
DAV:   3    -0.511960078603E+03   -0.24620E+03   -0.24179E+03  6336   0.140E+02
DAV:   4    -0.522753006092E+03   -0.10793E+02   -0.10678E+02  6336   0.307E+01
DAV:   5    -0.523400967365E+03   -0.64796E+00   -0.64606E+00  6336   0.461E+00
SDA:   6    -0.348143954782E+03    0.17526E+03   -0.64606E+00  6336   0.696E+03 0.000E+00
CGA:   7    -0.393324425439E+03   -0.45180E+02   -0.58783E+02  6336   0.225E+03 0.112E+03
CGA:   8    -0.410192321784E+03   -0.16868E+02   -0.15998E+02  6336   0.958E+02-0.107E+03
CGA:   9    -0.417611718027E+03   -0.74194E+01   -0.24732E+01  6336   0.581E+02 0.613E+02
CGA:  10    -0.416576105228E+03    0.10356E+01   -0.26759E+01  6336   0.257E+03-0.247E+02
CGA:  11    -0.396368826632E+03    0.20207E+02   -0.62057E+01  6336   0.206E+03-0.480E+02
CGA:  12    -0.421415793344E+03   -0.25047E+02   -0.52892E+01  6336   0.578E+02-0.680E+02
CGA:  13    -0.421340367062E+03    0.75426E-01   -0.12544E+01  6336   0.125E+03-0.805E+02
CGA:  14    -0.419998691373E+03    0.13417E+01   -0.84885E+01  6336   0.936E+02-0.172E+02
CGA:  15    -0.421372868979E+03   -0.13742E+01   -0.35223E+01  6336   0.168E+03-0.160E+03
CGA:  16    -0.415256897033E+03    0.61160E+01   -0.93768E+01  6336   0.310E+03-0.146E+03
CGA:  17    -0.415705045919E+03   -0.44815E+00   -0.18091E+02  6336   0.104E+03-0.675E+02
CGA:  18    -0.422445599985E+03   -0.67406E+01   -0.41510E+01  6336   0.249E+02-0.316E+02
CGA:  19    -0.423375968272E+03   -0.93037E+00   -0.22242E+00  6336   0.567E+02 0.579E+02
CGA:  20    -0.424220444979E+03   -0.84448E+00   -0.14824E+01  6336   0.394E+02-0.441E+02
CGA:  21    -0.423734832512E+03    0.48561E+00   -0.13053E+01  6336   0.678E+02-0.461E+02
CGA:  22    -0.423827820474E+03   -0.92988E-01   -0.18298E+01  6336   0.631E+02-0.624E+02
CGA:  23    -0.422362736763E+03    0.14651E+01   -0.26325E+01  6336   0.643E+02-0.382E+02
CGA:  24    -0.424507414110E+03   -0.21447E+01   -0.14866E+01  6336   0.313E+02-0.737E+02
CGA:  25    -0.424307156020E+03    0.20026E+00   -0.93159E+00  6336   0.465E+02-0.367E+02
CGA:  26    -0.424090229872E+03    0.21693E+00   -0.13656E+01  6336   0.547E+02-0.459E+02
CGA:  27    -0.423365332715E+03    0.72490E+00   -0.18701E+01  6336   0.780E+02-0.563E+02
CGA:  28    -0.424392375040E+03   -0.10270E+01   -0.18364E+01  6336   0.429E+02-0.671E+02
CGA:  29    -0.424199642728E+03    0.19273E+00   -0.12611E+01  6336   0.560E+02-0.479E+02
CGA:  30    -0.423946790665E+03    0.25285E+00   -0.17082E+01  6336   0.579E+02-0.499E+02
CGA:  31    -0.423913308996E+03    0.33482E-01   -0.17028E+01  6336   0.681E+02-0.654E+02
CGA:  32    -0.423829392789E+03    0.83916E-01   -0.20581E+01  6336   0.582E+02-0.552E+02
CGA:  33    -0.424217435204E+03   -0.38804E+00   -0.15848E+01  6336   0.579E+02-0.674E+02
CGA:  34    -0.424099712880E+03    0.11772E+00   -0.17273E+01  6336   0.536E+02-0.495E+02
CGA:  35    -0.424565069776E+03   -0.46536E+00   -0.13563E+01  6336   0.423E+02-0.547E+02
CGA:  36    -0.424656962479E+03   -0.91893E-01   -0.11214E+01  6336   0.348E+02-0.366E+02
CGA:  37    -0.425042719471E+03   -0.38576E+00   -0.73880E+00  6336   0.132E+02-0.230E+02
CGA:  38    -0.425195106645E+03   -0.15239E+00   -0.24355E+00  6336   0.250E+01-0.523E+01
CGA:  39    -0.425238394682E+03   -0.43288E-01   -0.43121E-01  6336   0.306E+00 0.115E-01
CGA:  40    -0.425268468727E+03   -0.30074E-01   -0.29891E-01  6336   0.148E+01 0.258E-02
CGA:  41    -0.425402997051E+03   -0.13453E+00   -0.15514E+00  6336   0.205E+01-0.452E+00
CGA:  42    -0.425439923964E+03   -0.36927E-01   -0.47520E-01  6336   0.206E+00-0.145E+00
CGA:  43    -0.425450543746E+03   -0.10620E-01   -0.10720E-01  6336   0.928E-01-0.102E-01
CGA:  44    -0.425453839936E+03   -0.32962E-02   -0.32674E-02  6336   0.823E-01-0.158E-02
CGA:  45    -0.425461385609E+03   -0.75457E-02   -0.76013E-02  6336   0.126E+00-0.226E-02
CGA:  46    -0.425469104828E+03   -0.77192E-02   -0.77140E-02  6336   0.166E-01-0.399E-02
CGA:  47    -0.425472328121E+03   -0.32233E-02   -0.14388E-03  6336   0.155E+00-0.925E-02
CGA:  48    -0.425475916932E+03   -0.35888E-02   -0.34930E-02  6336   0.342E-01 0.843E-03
CGA:  49    -0.425478131979E+03   -0.22150E-02   -0.21850E-02  6336   0.122E-01-0.624E-02
CGA:  50    -0.425479050557E+03   -0.91858E-03   -0.90244E-03  6336   0.242E-01-0.766E-03
CGA:  51    -0.425480323511E+03   -0.12730E-02   -0.13100E-02  6336   0.183E-01-0.459E-03
CGA:  52    -0.425480958023E+03   -0.63451E-03   -0.70609E-03  6336   0.385E-02 0.199E-02
CGA:  53    -0.425479854941E+03    0.11031E-02   -0.11578E-02  6336   0.136E+00-0.553E-02
CGA:  54    -0.425483099673E+03   -0.32447E-02   -0.31603E-02  6336   0.301E-01 0.105E-01
CGA:  55    -0.425484344731E+03   -0.12451E-02   -0.13104E-02  6336   0.807E-02 0.283E-02
CGA:  56    -0.425484572181E+03   -0.22745E-03   -0.40243E-03  6336   0.304E-02 0.159E-02
CGA:  57    -0.425484680355E+03   -0.10817E-03   -0.17894E-03  6336   0.461E-02 0.639E-03
CGA:  58    -0.425485346586E+03   -0.66623E-03   -0.67611E-03  6336   0.345E-02 0.176E-03
CGA:  59    -0.425485657881E+03   -0.31129E-03   -0.24331E-03  6336   0.571E-02-0.910E-03
CGA:  60    -0.425485950685E+03   -0.29280E-03   -0.20692E-03  6336   0.861E-02 0.464E-03
CGA:  61    -0.425486493947E+03   -0.54326E-03   -0.49005E-03  6336   0.958E-02 0.140E-02
CGA:  62    -0.425486808450E+03   -0.31450E-03   -0.53388E-03  6336   0.802E-02-0.327E-02
CGA:  63    -0.425487138441E+03   -0.32999E-03   -0.20833E-03  6336   0.364E-02 0.172E-02
CGA:  64    -0.425487540738E+03   -0.40230E-03   -0.31052E-03  6336   0.925E-02-0.782E-03
CGA:  65    -0.425487958150E+03   -0.41741E-03   -0.26412E-03  6336   0.169E-01 0.157E-03
CGA:  66    -0.425488716317E+03   -0.75817E-03   -0.51042E-03  6336   0.140E-01 0.520E-02
CGA:  67    -0.425489272118E+03   -0.55580E-03   -0.53181E-03  6336   0.279E-02 0.228E-02
CGA:  68    -0.425489347341E+03   -0.75223E-04   -0.10775E-03  6336   0.178E-02 0.137E-03
CGA:  69    -0.425489521078E+03   -0.17374E-03   -0.18211E-03  6336   0.229E-02 0.560E-03
CGA:  70    -0.425489734703E+03   -0.21362E-03   -0.18310E-03  6336   0.172E-02-0.456E-03
CGA:  71    -0.425489859124E+03   -0.12442E-03   -0.97799E-04  6336   0.373E-02-0.783E-03
CGA:  72    -0.425489948428E+03   -0.89304E-04   -0.68817E-04  6336   0.182E-02-0.189E-03
CGA:  73    -0.425489967358E+03   -0.18930E-04   -0.34275E-04  6336   0.113E-02 0.225E-03
CGA:  74    -0.425490003034E+03   -0.35676E-04   -0.58068E-04  6336   0.218E-02 0.429E-03
CGA:  75    -0.425490119127E+03   -0.11609E-03   -0.13621E-03  6336   0.118E-02 0.321E-03
CGA:  76    -0.425490225552E+03   -0.10642E-03   -0.91708E-04  6336   0.123E-02-0.540E-03
CGA:  77    -0.425490248258E+03   -0.22706E-04   -0.20219E-04  6336   0.112E-02-0.187E-04
CGA:  78    -0.425490273920E+03   -0.25662E-04   -0.36832E-04  6336   0.748E-03 0.198E-03
CGA:  79    -0.425490289056E+03   -0.15136E-04   -0.26175E-04  6336   0.610E-03 0.179E-03
CGA:  80    -0.425490306450E+03   -0.17394E-04   -0.34429E-04  6336   0.830E-03 0.437E-03
CGA:  81    -0.425490317387E+03   -0.10937E-04   -0.20607E-04  6336   0.302E-03 0.168E-03
CGA:  82    -0.425490324984E+03   -0.75965E-05   -0.15043E-04  6336   0.234E-03 0.195E-03
   1 F= -.42549032E+03 E0= -.42548146E+03  d E =-.425490E+03  mag=    10.0000
       N       E                     dE             d eps       ncg     rms          ort
SDA:   1    -0.425425298975E+03    0.65018E-01    0.00000E+00  6336   0.361E+01 0.000E+00
CGA:   2    -0.425490976472E+03   -0.65677E-01   -0.62279E-01  6336   0.162E-01 0.122E+00
CGA:   3    -0.425491564282E+03   -0.58781E-03   -0.54750E-03  6336   0.759E-02-0.103E-02
CGA:   4    -0.425492040130E+03   -0.47585E-03   -0.46318E-03  6336   0.134E-01-0.245E-02
CGA:   5    -0.425492648877E+03   -0.60875E-03   -0.60871E-03  6336   0.562E-02-0.286E-04
CGA:   6    -0.425492709231E+03   -0.60354E-04   -0.11194E-03  6336   0.171E-02 0.104E-02
CGA:   7    -0.425492728061E+03   -0.18830E-04   -0.54746E-04  6336   0.126E-02 0.899E-03
CGA:   8    -0.425492809414E+03   -0.81352E-04   -0.81024E-04  6336   0.242E-02-0.298E-03
CGA:   9    -0.425492859846E+03   -0.50433E-04   -0.63748E-04  6336   0.111E-02 0.431E-03
CGA:  10    -0.425492869703E+03   -0.98567E-05   -0.24876E-04  6336   0.391E-03 0.333E-03
CGA:  11    -0.425492881171E+03   -0.11468E-04   -0.14366E-04  6336   0.190E-03 0.896E-04
CGA:  12    -0.425492914454E+03   -0.33283E-04    0.37685E-04  6336   0.683E-03-0.159E-03
CGA:  13    -0.425492925121E+03   -0.10667E-04   -0.13543E-04  6336   0.948E-04 0.710E-04
CGA:  14    -0.425492925225E+03   -0.10490E-06   -0.15597E-04  6336   0.838E-03-0.169E-03
CGA:  15    -0.425492935819E+03   -0.10593E-04   -0.19759E-04  6336   0.885E-04 0.241E-03
CGA:  16    -0.425492936029E+03   -0.20963E-06   -0.21784E-05  6336   0.329E-04 0.478E-04
   2 F= -.42549294E+03 E0= -.42548404E+03  d E =-.261104E-02  mag=    10.0000
       N       E                     dE             d eps       ncg     rms          ort
SDA:   1    -0.425486916215E+03    0.60196E-02    0.00000E+00  6336   0.340E-01 0.000E+00
CGA:   2    -0.425490300197E+03   -0.33840E-02   -0.32436E-02  6336   0.774E-01 0.376E-02
CGA:   3    -0.425495551804E+03   -0.52516E-02   -0.52534E-02  6336   0.528E-01-0.277E-02
CGA:   4    -0.425497446337E+03   -0.18945E-02   -0.18769E-02  6336   0.729E-02-0.700E-03
CGA:   5    -0.425498284984E+03   -0.83865E-03   -0.79545E-03  6336   0.123E-01 0.824E-03
CGA:   6    -0.425498665646E+03   -0.38066E-03   -0.43183E-03  6336   0.146E-02 0.165E-02
CGA:   7    -0.425497744954E+03    0.92069E-03   -0.51691E-03  6336   0.632E-01-0.473E-02
CGA:   8    -0.425498758530E+03   -0.10136E-02   -0.11512E-02  6336   0.387E-02 0.180E-02
CGA:   9    -0.425498876503E+03   -0.11797E-03   -0.18866E-03  6336   0.962E-03 0.132E-02
CGA:  10    -0.425498909907E+03   -0.33404E-04   -0.48108E-04  6336   0.751E-03 0.223E-03
CGA:  11    -0.425498942968E+03   -0.33060E-04   -0.47310E-04  6336   0.387E-03 0.297E-03
CGA:  12    -0.425498723526E+03    0.21944E-03   -0.18301E-03  6336   0.991E-02-0.166E-02
CGA:  13    -0.425498941011E+03   -0.21749E-03   -0.21330E-03  6336   0.175E-02-0.196E-03
CGA:  14    -0.425498984075E+03   -0.43064E-04   -0.85064E-04  6336   0.505E-03 0.785E-03
CGA:  15    -0.425498997127E+03   -0.13053E-04   -0.34207E-04  6336   0.452E-03 0.386E-03
CGA:  16    -0.425499041599E+03   -0.44472E-04   -0.37766E-04  6336   0.247E-02-0.439E-03
CGA:  17    -0.425499064502E+03   -0.22903E-04   -0.41305E-04  6336   0.120E-03 0.222E-03
CGA:  18    -0.425499063552E+03    0.94972E-06   -0.42288E-05  6336   0.127E-03 0.836E-04
   3 F= -.42549906E+03 E0= -.42549018E+03  d E =-.612752E-02  mag=    10.0000
       N       E                     dE             d eps       ncg     rms          ort
SDA:   1    -0.425414977337E+03    0.84087E-01    0.00000E+00  6336   0.172E+01 0.000E+00
CGA:   2    -0.425448107873E+03   -0.33131E-01   -0.31820E-01  6336   0.144E+00 0.659E-01
CGA:   3    -0.425476246017E+03   -0.28138E-01   -0.28807E-01  6336   0.496E+00-0.638E-02
CGA:   4    -0.425489931774E+03   -0.13686E-01   -0.13970E-01  6336   0.147E+00-0.139E-01
CGA:   5    -0.425494823049E+03   -0.48913E-02   -0.47438E-02  6336   0.435E-01 0.160E-01
CGA:   6    -0.425497223971E+03   -0.24009E-02   -0.25478E-02  6336   0.691E-01 0.459E-02
CGA:   7    -0.425500905299E+03   -0.36813E-02   -0.37300E-02  6336   0.168E-01 0.150E-02
CGA:   8    -0.425501977443E+03   -0.10721E-02   -0.96558E-03  6336   0.233E-01-0.430E-02
CGA:   9    -0.425502574622E+03   -0.59718E-03   -0.50851E-03  6336   0.813E-02-0.172E-02
CGA:  10    -0.425502713242E+03   -0.13862E-03   -0.19098E-03  6336   0.622E-02 0.100E-02
CGA:  11    -0.425502880842E+03   -0.16760E-03   -0.24129E-03  6336   0.468E-02 0.185E-02
CGA:  12    -0.425503037325E+03   -0.15648E-03   -0.19185E-03  6336   0.331E-02 0.827E-03
CGA:  13    -0.425503153047E+03   -0.11572E-03   -0.13060E-03  6336   0.133E-02 0.378E-03
CGA:  14    -0.425503213415E+03   -0.60369E-04   -0.56990E-04  6336   0.183E-02-0.108E-03
CGA:  15    -0.425503298566E+03   -0.85151E-04   -0.19713E-03  6336   0.358E-02-0.226E-02
CGA:  16    -0.425503382704E+03   -0.84137E-04   -0.10985E-03  6336   0.158E-02 0.634E-03
CGA:  17    -0.425503389553E+03   -0.68494E-05   -0.46354E-04  6336   0.468E-03 0.922E-03
CGA:  18    -0.425503395063E+03   -0.55096E-05   -0.14434E-04  6336   0.339E-03 0.249E-03
CGA:  19    -0.425503426178E+03   -0.31115E-04   -0.34537E-04  6336   0.150E-02-0.946E-04
CGA:  20    -0.425503451178E+03   -0.25000E-04   -0.35732E-04  6336   0.104E-02 0.319E-03
CGA:  21    -0.425503458653E+03   -0.74751E-05   -0.18068E-04  6336   0.100E-03 0.206E-03
CGA:  22    -0.425503462840E+03   -0.41863E-05   -0.11761E-04  6336   0.126E-02-0.215E-03
CGA:  23    -0.425503499216E+03   -0.36376E-04   -0.26989E-04  6336   0.112E-03-0.231E-03
CGA:  24    -0.425503497064E+03    0.21522E-05   -0.12080E-05  6336   0.601E-04 0.689E-04
   4 F= -.42550350E+03 E0= -.42549466E+03  d E =-.443351E-02  mag=    10.0000
       N       E                     dE             d eps       ncg     rms          ort
SDA:   1    -0.425500532848E+03    0.29664E-02    0.00000E+00  6336   0.313E-01 0.000E+00
CGA:   2    -0.425501448625E+03   -0.91578E-03   -0.84174E-03  6336   0.151E-01-0.273E-02
CGA:   3    -0.425503741115E+03   -0.22925E-02   -0.35736E-02  6336   0.248E-01-0.629E-02
CGA:   4    -0.425504055898E+03   -0.31478E-03   -0.32955E-03  6336   0.940E-02 0.138E-03
CGA:   5    -0.425504306458E+03   -0.25056E-03   -0.32198E-03  6336   0.708E-02 0.248E-02
CGA:   6    -0.425504452742E+03   -0.14628E-03   -0.23046E-03  6336   0.275E-02 0.238E-02
CGA:   7    -0.425504648923E+03   -0.19618E-03   -0.20012E-03  6336   0.372E-02 0.659E-03
CGA:   8    -0.425504861499E+03   -0.21258E-03   -0.19492E-03  6336   0.167E-02-0.993E-03
CGA:   9    -0.425504908139E+03   -0.46641E-04   -0.42350E-04  6336   0.494E-03-0.171E-03
CGA:  10    -0.425504930733E+03   -0.22593E-04   -0.22424E-04  6336   0.709E-03-0.230E-04
CGA:  11    -0.425504750394E+03    0.18034E-03   -0.15599E-03  6336   0.628E-02-0.195E-02
CGA:  12    -0.425504851384E+03   -0.10099E-03   -0.14431E-03  6336   0.173E-02 0.104E-02
CGA:  13    -0.425504900300E+03   -0.48916E-04   -0.72123E-04  6336   0.693E-03 0.835E-03
CGA:  14    -0.425504922547E+03   -0.22247E-04   -0.32579E-04  6336   0.489E-03 0.332E-03
CGA:  15    -0.425504942544E+03   -0.19997E-04   -0.28063E-04  6336   0.282E-03 0.361E-03
CGA:  16    -0.425504991663E+03   -0.49119E-04    0.18630E-04  6336   0.345E-03-0.228E-04
CGA:  17    -0.425505063294E+03   -0.71631E-04    0.10816E-04  6336   0.353E-03-0.150E-03
CGA:  18    -0.425505068704E+03   -0.54097E-05   -0.72983E-05  6336   0.202E-03 0.803E-04
   5 F= -.42550507E+03 E0= -.42549621E+03  d E =-.157164E-02  mag=    10.0000
       N       E                     dE             d eps       ncg     rms          ort
SDA:   1    -0.424518677542E+03    0.98639E+00    0.00000E+00  6336   0.304E+01 0.000E+00
CGA:   2    -0.424816874928E+03   -0.29820E+00   -0.29447E+00  6336   0.820E+01 0.885E-01
CGA:   3    -0.425261169181E+03   -0.44429E+00   -0.43965E+00  6336   0.166E+01-0.293E+00
CGA:   4    -0.425362077791E+03   -0.10091E+00   -0.10027E+00  6336   0.149E+01 0.913E-01
CGA:   5    -0.425429961381E+03   -0.67884E-01   -0.67012E-01  6336   0.723E+00 0.271E-01
CGA:   6    -0.425479185387E+03   -0.49224E-01   -0.49116E-01  6336   0.388E+00-0.623E-03
CGA:   7    -0.425497838870E+03   -0.18653E-01   -0.18689E-01  6336   0.138E+00 0.748E-03
CGA:   8    -0.425502745847E+03   -0.49070E-02   -0.49214E-02  6336   0.716E-01-0.196E-02
CGA:   9    -0.425510743988E+03   -0.79981E-02   -0.76405E-02  6336   0.252E-01 0.688E-02
CGA:  10    -0.425511678301E+03   -0.93431E-03   -0.92400E-03  6336   0.150E-01-0.701E-03
CGA:  11    -0.425513345277E+03   -0.16670E-02   -0.15448E-02  6336   0.895E-02 0.252E-02
CGA:  12    -0.425513992894E+03   -0.64762E-03   -0.65559E-03  6336   0.151E-01-0.313E-02
CGA:  13    -0.425514508097E+03   -0.51520E-03   -0.50248E-03  6336   0.911E-02-0.138E-02
CGA:  14    -0.425514695649E+03   -0.18755E-03   -0.23049E-03  6336   0.432E-02 0.138E-02
CGA:  15    -0.425514796221E+03   -0.10057E-03   -0.12915E-03  6336   0.194E-02 0.906E-03
CGA:  16    -0.425514961273E+03   -0.16505E-03   -0.15948E-03  6336   0.534E-02 0.491E-03
CGA:  17    -0.425515284766E+03   -0.32349E-03   -0.32970E-03  6336   0.175E-02 0.778E-03
CGA:  18    -0.425515404438E+03   -0.11967E-03   -0.13104E-03  6336   0.554E-02-0.133E-02
CGA:  19    -0.425515538567E+03   -0.13413E-03   -0.11775E-03  6336   0.728E-03-0.513E-03
CGA:  20    -0.425515591693E+03   -0.53126E-04   -0.49338E-04  6336   0.609E-03 0.196E-03
CGA:  21    -0.425515680932E+03   -0.89239E-04    0.90455E-03  6336   0.331E-03 0.324E-03
CGA:  22    -0.425515682174E+03   -0.12420E-05   -0.66917E-05  6336   0.181E-03 0.150E-03
   6 F= -.42551568E+03 E0= -.42550673E+03  d E =-.106135E-01  mag=    10.0000
       N       E                     dE             d eps       ncg     rms          ort
SDA:   1    -0.425395095426E+03    0.12059E+00    0.00000E+00  6336   0.138E+01 0.000E+00
CGA:   2    -0.425424853859E+03   -0.29758E-01   -0.28800E-01  6336   0.287E+00 0.399E-01
CGA:   3    -0.425482190537E+03   -0.57337E-01   -0.58170E-01  6336   0.472E+00-0.414E-02
CGA:   4    -0.425499964083E+03   -0.17774E-01   -0.17780E-01  6336   0.194E+00 0.344E-02
CGA:   5    -0.425505910083E+03   -0.59460E-02   -0.60732E-02  6336   0.953E-01 0.698E-02
CGA:   6    -0.425516449374E+03   -0.10539E-01   -0.10652E-01  6336   0.959E-01-0.223E-02
CGA:   7    -0.425518434331E+03   -0.19850E-02   -0.19533E-02  6336   0.145E-01-0.147E-02
CGA:   8    -0.425519301658E+03   -0.86733E-03   -0.85689E-03  6336   0.120E-01 0.440E-02
CGA:   9    -0.425519819624E+03   -0.51797E-03   -0.57088E-03  6336   0.832E-02 0.249E-02
CGA:  10    -0.425520690344E+03   -0.87072E-03   -0.97291E-03  6336   0.682E-02-0.254E-02
CGA:  11    -0.425520876213E+03   -0.18587E-03   -0.18322E-03  6336   0.185E-02-0.113E-03
CGA:  12    -0.425520986243E+03   -0.11003E-03   -0.11037E-03  6336   0.248E-02-0.107E-03
CGA:  13    -0.425520819682E+03    0.16656E-03   -0.56585E-03  6336   0.912E-02-0.396E-02
CGA:  14    -0.425521045234E+03   -0.22555E-03   -0.28705E-03  6336   0.412E-02 0.185E-02
CGA:  15    -0.425521184540E+03   -0.13931E-03   -0.17925E-03  6336   0.104E-02 0.142E-02
CGA:  16    -0.425521261256E+03   -0.76716E-04   -0.80449E-04  6336   0.110E-02 0.575E-03
CGA:  17    -0.425521322041E+03   -0.60785E-04   -0.55053E-04  6336   0.186E-02-0.439E-03
CGA:  18    -0.425521488346E+03   -0.16631E-03    0.18645E-03  6336   0.158E-02-0.307E-03
CGA:  19    -0.425521524283E+03   -0.35936E-04   -0.33468E-04  6336   0.100E-02-0.761E-04
CGA:  20    -0.425521518043E+03    0.62399E-05   -0.17712E-04  6336   0.651E-03 0.571E-03
   7 F= -.42552152E+03 E0= -.42551255E+03  d E =-.583587E-02  mag=    10.0000
       N       E                     dE             d eps       ncg     rms          ort
SDA:   1    -0.425485171050E+03    0.36353E-01    0.00000E+00  6336   0.225E+00 0.000E+00
CGA:   2    -0.425494421452E+03   -0.92504E-02   -0.92137E-02  6336   0.181E+00-0.110E-01
CGA:   3    -0.425504118480E+03   -0.96970E-02   -0.97003E-02  6336   0.106E+00-0.719E-02
CGA:   4    -0.425514078288E+03   -0.99598E-02   -0.10050E-01  6336   0.962E-01-0.222E-02
CGA:   5    -0.425517200345E+03   -0.31221E-02   -0.32966E-02  6336   0.239E-01 0.918E-02
CGA:   6    -0.425518048048E+03   -0.84770E-03   -0.90795E-03  6336   0.898E-02 0.267E-02
CGA:   7    -0.425519858122E+03   -0.18101E-02   -0.20063E-02  6336   0.364E-02-0.135E-02
CGA:   8    -0.425520047647E+03   -0.18952E-03   -0.17136E-03  6336   0.712E-02-0.245E-02
CGA:   9    -0.425520148155E+03   -0.10051E-03   -0.13216E-03  6336   0.975E-03 0.682E-03
CGA:  10    -0.425520218284E+03   -0.70129E-04   -0.68413E-04  6336   0.103E-02 0.462E-03
CGA:  11    -0.425520316087E+03   -0.97804E-04   -0.10051E-03  6336   0.210E-02-0.477E-03
CGA:  12    -0.425520336144E+03   -0.20057E-04   -0.19428E-04  6336   0.134E-02-0.153E-04
CGA:  13    -0.425520342751E+03   -0.66076E-05   -0.13485E-04  6336   0.291E-03 0.138E-03
   8 F= -.42552034E+03 E0= -.42551140E+03  d E =0.117529E-02  mag=    10.0000
       N       E                     dE             d eps       ncg     rms          ort
SDA:   1    -0.425507498061E+03    0.12838E-01    0.00000E+00  6336   0.559E-01 0.000E+00
CGA:   2    -0.425510966873E+03   -0.34688E-02   -0.35223E-02  6336   0.103E+00-0.608E-02
CGA:   3    -0.425515966839E+03   -0.50000E-02   -0.50003E-02  6336   0.392E-01-0.824E-03
CGA:   4    -0.425517479424E+03   -0.15126E-02   -0.15646E-02  6336   0.169E-01 0.457E-02
CGA:   5    -0.425518464484E+03   -0.98506E-03   -0.98666E-03  6336   0.245E-01 0.109E-02
CGA:   6    -0.425520048529E+03   -0.15840E-02   -0.15796E-02  6336   0.405E-02 0.625E-03
CGA:   7    -0.425520292061E+03   -0.24353E-03   -0.27149E-03  6336   0.997E-02-0.244E-02
CGA:   8    -0.425520508224E+03   -0.21616E-03   -0.20451E-03  6336   0.115E-02-0.474E-03
CGA:   9    -0.425520558038E+03   -0.49814E-04   -0.52398E-04  6336   0.538E-03 0.500E-03
CGA:  10    -0.425520496572E+03    0.61466E-04   -0.64674E-04  6336   0.313E-02-0.111E-02
CGA:  11    -0.425520593399E+03   -0.96827E-04   -0.11407E-03  6336   0.131E-02 0.302E-03
CGA:  12    -0.425520649262E+03   -0.55863E-04   -0.69519E-04  6336   0.103E-02 0.305E-03
CGA:  13    -0.425520761394E+03   -0.11213E-03   -0.10994E-03  6336   0.575E-03-0.556E-03
CGA:  14    -0.425520757781E+03    0.36131E-05   -0.10186E-04  6336   0.106E-03 0.191E-03
   9 F= -.42552076E+03 E0= -.42551182E+03  d E =-.415029E-03  mag=    10.0000
       N       E                     dE             d eps       ncg     rms          ort
SDA:   1    -0.424638694732E+03    0.88207E+00    0.00000E+00  6336   0.374E+01 0.000E+00
CGA:   2    -0.424815887353E+03   -0.17719E+00   -0.18241E+00  6336   0.533E+01-0.102E+00
CGA:   3    -0.425255943692E+03   -0.44006E+00   -0.44025E+00  6336   0.109E+01-0.275E-01
CGA:   4    -0.425389367927E+03   -0.13342E+00   -0.13861E+00  6336   0.202E+01-0.974E-01
CGA:   5    -0.425479623874E+03   -0.90256E-01   -0.94271E-01  6336   0.174E+00-0.273E-01
CGA:   6    -0.425491040293E+03   -0.11416E-01   -0.11404E-01  6336   0.263E+00-0.128E-02
CGA:   7    -0.425504895628E+03   -0.13855E-01   -0.13841E-01  6336   0.122E+00-0.170E-02
CGA:   8    -0.425509049412E+03   -0.41538E-02   -0.41269E-02  6336   0.188E-01 0.630E-02
CGA:   9    -0.425512068044E+03   -0.30186E-02   -0.34420E-02  6336   0.376E-01-0.425E-02
CGA:  10    -0.425513349669E+03   -0.12816E-02   -0.12304E-02  6336   0.139E-01-0.176E-02
CGA:  11    -0.425513832105E+03   -0.48244E-03   -0.54649E-03  6336   0.741E-02 0.196E-02
CGA:  12    -0.425514020785E+03   -0.18868E-03   -0.29349E-03  6336   0.357E-02 0.255E-02
CGA:  13    -0.425514197363E+03   -0.17658E-03   -0.22070E-03  6336   0.390E-02 0.147E-02
CGA:  14    -0.425514727599E+03   -0.53024E-03   -0.54479E-03  6336   0.402E-02-0.604E-03
CGA:  15    -0.425514891917E+03   -0.16432E-03   -0.11417E-03  6336   0.121E-02-0.121E-02
CGA:  16    -0.425513110541E+03    0.17814E-02   -0.99566E-03  6336   0.702E-01-0.537E-02
CGA:  17    -0.425514974090E+03   -0.18635E-02   -0.18399E-02  6336   0.572E-02 0.122E-01
CGA:  18    -0.425515076370E+03   -0.10228E-03   -0.17207E-03  6336   0.132E-02 0.770E-03
CGA:  19    -0.425515115888E+03   -0.39519E-04   -0.83628E-04  6336   0.113E-02 0.658E-03
CGA:  20    -0.425515246027E+03   -0.13014E-03   -0.13362E-03  6336   0.125E-02 0.821E-04
CGA:  21    -0.425515378167E+03   -0.13214E-03   -0.10904E-03  6336   0.205E-02-0.623E-03
CGA:  22    -0.425515406373E+03   -0.28206E-04   -0.39964E-04  6336   0.219E-03 0.106E-03
CGA:  23    -0.425515431384E+03   -0.25012E-04   -0.23017E-04  6336   0.525E-03-0.165E-03
CGA:  24    -0.425515463573E+03   -0.32189E-04   -0.23893E-04  6336   0.130E-03-0.131E-03
CGA:  25    -0.425515459465E+03    0.41088E-05   -0.23732E-05  6336   0.762E-04 0.774E-04
  10 F= -.42551546E+03 E0= -.42550648E+03  d E =0.529832E-02  mag=    10.0000
       N       E                     dE             d eps       ncg     rms          ort
SDA:   1    -0.425112660894E+03    0.40280E+00    0.00000E+00  6336   0.192E+01 0.000E+00
CGA:   2    -0.425196069297E+03   -0.83408E-01   -0.79165E-01  6336   0.211E+01 0.455E-01
CGA:   3    -0.425389336506E+03   -0.19327E+00   -0.19308E+00  6336   0.852E+00-0.220E-01
CGA:   4    -0.425439938252E+03   -0.50602E-01   -0.44878E-01  6336   0.441E+00 0.659E-01
CGA:   5    -0.425496055857E+03   -0.56118E-01   -0.55944E-01  6336   0.581E+00 0.597E-02
CGA:   6    -0.425511665101E+03   -0.15609E-01   -0.14899E-01  6336   0.685E-01 0.248E-01
CGA:   7    -0.425519004610E+03   -0.73395E-02   -0.74180E-02  6336   0.756E-01-0.756E-02
CGA:   8    -0.425522238581E+03   -0.32340E-02   -0.32756E-02  6336   0.438E-01 0.186E-02
CGA:   9    -0.425523540246E+03   -0.13017E-02   -0.15298E-02  6336   0.199E-01 0.535E-02
CGA:  10    -0.425524378068E+03   -0.83782E-03   -0.93951E-03  6336   0.520E-02 0.313E-02
CGA:  11    -0.425524759843E+03   -0.38178E-03   -0.36370E-03  6336   0.119E-01-0.760E-03
CGA:  12    -0.425525377411E+03   -0.61757E-03   -0.59433E-03  6336   0.115E-01-0.923E-03
CGA:  13    -0.425525580306E+03   -0.20290E-03   -0.22201E-03  6336   0.382E-02 0.288E-03
CGA:  14    -0.425525659765E+03   -0.79458E-04   -0.88811E-04  6336   0.151E-02 0.237E-03
CGA:  15    -0.425525733932E+03   -0.74168E-04   -0.65385E-04  6336   0.275E-02-0.248E-03
CGA:  16    -0.425525917076E+03   -0.18314E-03   -0.19424E-03  6336   0.789E-02-0.119E-02
CGA:  17    -0.425525985564E+03   -0.68488E-04   -0.52483E-04  6336   0.430E-02-0.246E-03
CGA:  18    -0.425526026049E+03   -0.40485E-04   -0.45558E-04  6336   0.180E-02 0.957E-04
CGA:  19    -0.425526036243E+03   -0.10193E-04   -0.24338E-04  6336   0.138E-02 0.263E-03
CGA:  20    -0.425526037968E+03   -0.17251E-05   -0.22017E-04  6336   0.108E-02 0.405E-03
CGA:  21    -0.425526034366E+03    0.36017E-05   -0.18138E-04  6336   0.785E-03 0.437E-03
CGA:  22    -0.425526028149E+03    0.62166E-05   -0.15029E-04  6336   0.753E-03 0.446E-03
CGA:  23    -0.425526059300E+03   -0.31150E-04   -0.32682E-04  6336   0.543E-03 0.981E-04
CGA:  24    -0.425526133320E+03   -0.74020E-04    0.47946E-03  6336   0.519E-03 0.115E-03
CGA:  25    -0.425526025076E+03    0.10824E-03   -0.15685E-03  6336   0.665E-02-0.139E-02
CGA:  26    -0.425526147534E+03   -0.12246E-03   -0.15561E-03  6336   0.900E-03 0.723E-03
CGA:  27    -0.425526142616E+03    0.49180E-05   -0.17819E-04  6336   0.307E-03 0.482E-03
  11 F= -.42552614E+03 E0= -.42551719E+03  d E =-.106832E-01  mag=    10.0000
       N       E                     dE             d eps       ncg     rms          ort
SDA:   1    -0.425449929489E+03    0.76218E-01    0.00000E+00  6336   0.325E+00 0.000E+00
CGA:   2    -0.425469771189E+03   -0.19842E-01   -0.19841E-01  6336   0.569E+00-0.109E-01
CGA:   3    -0.425503028444E+03   -0.33257E-01   -0.33244E-01  6336   0.199E+00-0.170E-01
CGA:   4    -0.425513611663E+03   -0.10583E-01   -0.10570E-01  6336   0.975E-01 0.767E-02
CGA:   5    -0.425524178778E+03   -0.10567E-01   -0.10318E-01  6336   0.516E-01 0.646E-02
CGA:   6    -0.425527248185E+03   -0.30694E-02   -0.30171E-02  6336   0.604E-01-0.688E-02
CGA:   7    -0.425529180560E+03   -0.19324E-02   -0.18545E-02  6336   0.877E-02-0.306E-02
CGA:   8    -0.425529515487E+03   -0.33493E-03   -0.37535E-03  6336   0.781E-02 0.255E-02
CGA:   9    -0.425529906628E+03   -0.39114E-03   -0.42846E-03  6336   0.359E-02 0.208E-02
CGA:  10    -0.425530161758E+03   -0.25513E-03   -0.25580E-03  6336   0.174E-02 0.208E-03
CGA:  11    -0.425530048726E+03    0.11303E-03   -0.46832E-03  6336   0.925E-02-0.293E-02
CGA:  12    -0.425530240299E+03   -0.19157E-03   -0.23619E-03  6336   0.305E-02 0.109E-02
CGA:  13    -0.425530355147E+03   -0.11485E-03   -0.13984E-03  6336   0.998E-03 0.995E-03
CGA:  14    -0.425530404002E+03   -0.48854E-04   -0.58694E-04  6336   0.865E-03 0.461E-03
CGA:  15    -0.425530460977E+03   -0.56976E-04   -0.60846E-04  6336   0.525E-03 0.233E-03
CGA:  16    -0.425530567611E+03   -0.10663E-03    0.83078E-04  6336   0.952E-04-0.903E-04
CGA:  17    -0.425530567409E+03    0.20201E-06   -0.19956E-05  6336   0.690E-04 0.572E-04
  12 F= -.42553057E+03 E0= -.42552158E+03  d E =-.442479E-02  mag=    10.0000
       N       E                     dE             d eps       ncg     rms          ort
SDA:   1    -0.424567570792E+03    0.96300E+00    0.00000E+00  6336   0.250E+01 0.000E+00
CGA:   2    -0.425265576079E+03   -0.69801E+00   -0.70278E+00  6336   0.353E+01-0.142E-01
CGA:   3    -0.425357448978E+03   -0.91873E-01   -0.96187E-01  6336   0.128E+01-0.124E+00
CGA:   4    -0.425423853873E+03   -0.66405E-01   -0.65233E-01  6336   0.105E+01 0.137E-02
CGA:   5    -0.425505274843E+03   -0.81421E-01   -0.81143E-01  6336   0.731E+00 0.173E-01
CGA:   6    -0.425521851963E+03   -0.16577E-01   -0.16037E-01  6336   0.876E-01 0.285E-01
CGA:   7    -0.425531351755E+03   -0.94998E-02   -0.95244E-02  6336   0.132E+00-0.320E-03
CGA:   8    -0.425536866013E+03   -0.55143E-02   -0.53954E-02  6336   0.792E-01-0.439E-02
CGA:   9    -0.425539528313E+03   -0.26623E-02   -0.26866E-02  6336   0.171E-01 0.604E-03
CGA:  10    -0.425540447459E+03   -0.91915E-03   -0.96146E-03  6336   0.120E-01 0.483E-02
CGA:  11    -0.425541078339E+03   -0.63088E-03   -0.65669E-03  6336   0.120E-01 0.104E-02
CGA:  12    -0.425542469040E+03   -0.13907E-02   -0.14559E-02  6336   0.313E-02-0.135E-02
CGA:  13    -0.425542847371E+03   -0.37833E-03    0.26219E-02  6336   0.223E-02 0.552E-03
CGA:  14    -0.425543214797E+03   -0.36743E-03   -0.59898E-03  6336   0.909E-02-0.141E-02
CGA:  15    -0.425543503659E+03   -0.28886E-03   -0.31167E-03  6336   0.287E-02 0.632E-03
CGA:  16    -0.425543528391E+03   -0.24733E-04   -0.71735E-04  6336   0.714E-03 0.101E-02
CGA:  17    -0.425543524096E+03    0.42951E-05   -0.21891E-04  6336   0.540E-03 0.563E-03
CGA:  18    -0.425543566541E+03   -0.42445E-04   -0.42638E-04  6336   0.161E-02-0.190E-04
CGA:  19    -0.425543686261E+03   -0.11972E-03   -0.11623E-03  6336   0.929E-03 0.483E-03
CGA:  20    -0.425543757469E+03   -0.71208E-04   -0.67162E-04  6336   0.129E-02-0.324E-03
CGA:  21    -0.425543810538E+03   -0.53070E-04   -0.45296E-04  6336   0.218E-02-0.567E-03
CGA:  22    -0.425543843302E+03   -0.32763E-04   -0.40219E-04  6336   0.207E-02 0.217E-03
CGA:  23    -0.425543858641E+03   -0.15340E-04   -0.40284E-04  6336   0.381E-03 0.539E-03
CGA:  24    -0.425543859818E+03   -0.11767E-05   -0.91305E-05  6336   0.295E-03 0.181E-03
CGA:  25    -0.425543884814E+03   -0.24996E-04   -0.25392E-04  6336   0.828E-03 0.174E-03
CGA:  26    -0.425543929361E+03   -0.44547E-04   -0.32655E-04  6336   0.983E-03-0.571E-03
CGA:  27    -0.425543936006E+03   -0.66453E-05   -0.15459E-04  6336   0.126E-03 0.198E-03
  13 F= -.42554394E+03 E0= -.42553487E+03  d E =-.133686E-01  mag=    10.0000
       N       E                     dE             d eps       ncg     rms          ort
SDA:   1    -0.420772431945E+03    0.47715E+01    0.00000E+00  6336   0.122E+02 0.000E+00
CGA:   2    -0.423995109121E+03   -0.32227E+01   -0.30389E+01  6336   0.171E+02 0.118E+01
CGA:   3    -0.424637897817E+03   -0.64279E+00   -0.51835E+00  6336   0.425E+01 0.110E+01
CGA:   4    -0.425102511609E+03   -0.46461E+00   -0.43300E+00  6336   0.431E+01 0.770E+00
CGA:   5    -0.425308912852E+03   -0.20640E+00   -0.21507E+00  6336   0.451E+01-0.397E-01
CGA:   6    -0.425426386826E+03   -0.11747E+00   -0.92465E-01  6336   0.137E+01 0.103E+01
CGA:   7    -0.425461239328E+03   -0.34853E-01   -0.35306E-01  6336   0.790E+00 0.140E-01
CGA:   8    -0.425492010559E+03   -0.30771E-01   -0.30788E-01  6336   0.871E+00 0.130E-01
CGA:   9    -0.425509735394E+03   -0.17725E-01   -0.17678E-01  6336   0.379E+00 0.391E-02
CGA:  10    -0.425523874650E+03   -0.14139E-01   -0.14258E-01  6336   0.552E+00-0.306E-02
CGA:  11    -0.425538017330E+03   -0.14143E-01   -0.13932E-01  6336   0.269E+00 0.587E-02
CGA:  12    -0.425543947482E+03   -0.59302E-02   -0.56240E-02  6336   0.147E+00 0.623E-03
CGA:  13    -0.425548402807E+03   -0.44553E-02   -0.44366E-02  6336   0.988E-01-0.129E-01
CGA:  14    -0.425550463410E+03   -0.20606E-02   -0.19587E-02  6336   0.609E-01-0.394E-02
CGA:  15    -0.425552996320E+03   -0.25329E-02   -0.25689E-02  6336   0.946E-01 0.567E-02
CGA:  16    -0.425555228396E+03   -0.22321E-02   -0.24341E-02  6336   0.310E-01 0.850E-02
CGA:  17    -0.425556238942E+03   -0.10105E-02   -0.10045E-02  6336   0.319E-01-0.294E-03
CGA:  18    -0.425557780540E+03   -0.15416E-02   -0.15522E-02  6336   0.352E-01-0.688E-02
CGA:  19    -0.425558672272E+03   -0.89173E-03   -0.83788E-03  6336   0.359E-01-0.335E-02
CGA:  20    -0.425559672318E+03   -0.10000E-02   -0.10147E-02  6336   0.187E-01 0.147E-02
CGA:  21    -0.425559978365E+03   -0.30605E-03   -0.35465E-03  6336   0.750E-02 0.154E-02
CGA:  22    -0.425560365520E+03   -0.38715E-03   -0.38406E-03  6336   0.163E-01 0.108E-02
CGA:  23    -0.425561141168E+03   -0.77565E-03   -0.77675E-03  6336   0.117E-01 0.328E-03
CGA:  24    -0.425561576902E+03   -0.43573E-03   -0.43552E-03  6336   0.141E-01-0.106E-03
CGA:  25    -0.425562063999E+03   -0.48710E-03   -0.48694E-03  6336   0.700E-02 0.536E-05
CGA:  26    -0.425562300857E+03   -0.23686E-03   -0.21434E-03  6336   0.620E-02-0.174E-02
CGA:  27    -0.425561000514E+03    0.13003E-02   -0.78045E-03  6336   0.594E-01-0.163E-01
CGA:  28    -0.425562740273E+03   -0.17398E-02   -0.18514E-02  6336   0.565E-02 0.876E-02
CGA:  29    -0.425562865263E+03   -0.12499E-03   -0.18224E-03  6336   0.258E-02 0.292E-02
CGA:  30    -0.425562999082E+03   -0.13382E-03   -0.13106E-03  6336   0.166E-02 0.809E-03
CGA:  31    -0.425563058953E+03   -0.59871E-04   -0.74814E-04  6336   0.102E-02 0.114E-02
CGA:  32    -0.425563160518E+03   -0.10157E-03   -0.11728E-03  6336   0.389E-02-0.230E-03
CGA:  33    -0.425563346244E+03   -0.18573E-03   -0.19610E-03  6336   0.478E-02-0.703E-03
CGA:  34    -0.425563546243E+03   -0.20000E-03   -0.20027E-03  6336   0.242E-02-0.155E-02
CGA:  35    -0.425563568381E+03   -0.22138E-04   -0.30812E-04  6336   0.120E-02 0.266E-03
CGA:  36    -0.425563567622E+03    0.75918E-06   -0.22416E-04  6336   0.897E-03 0.715E-03
CGA:  37    -0.425563572090E+03   -0.44682E-05   -0.18377E-04  6336   0.476E-03 0.510E-03
CGA:  38    -0.425563584903E+03   -0.12813E-04   -0.16925E-04  6336   0.352E-03 0.380E-03
CGA:  39    -0.425563609454E+03   -0.24551E-04   -0.20937E-04  6336   0.315E-03 0.264E-03
CGA:  40    -0.425563631719E+03   -0.22265E-04   -0.39746E-04  6336   0.281E-02-0.223E-03
CGA:  41    -0.425563671001E+03   -0.39282E-04   -0.46816E-04  6336   0.145E-03 0.210E-03
CGA:  42    -0.425563691954E+03   -0.20953E-04   -0.19113E-04  6336   0.806E-03 0.237E-04
CGA:  43    -0.425563759414E+03   -0.67459E-04   -0.17653E-03  6336   0.153E-02-0.818E-03
CGA:  44    -0.425563774709E+03   -0.15295E-04   -0.29747E-04  6336   0.424E-03 0.354E-03
CGA:  45    -0.425563785451E+03   -0.10742E-04   -0.18213E-04  6336   0.478E-03 0.333E-03
CGA:  46    -0.425563803756E+03   -0.18305E-04   -0.50448E-04  6336   0.459E-02-0.659E-03
CGA:  47    -0.425563863575E+03   -0.59818E-04   -0.75978E-04  6336   0.199E-03 0.355E-03
CGA:  48    -0.425563866201E+03   -0.26258E-05   -0.62547E-05  6336   0.183E-03 0.132E-03
CGA:  49    -0.425563723219E+03    0.14298E-03   -0.77682E-04  6336   0.151E-01-0.700E-03
CGA:  50    -0.425563950238E+03   -0.22702E-03   -0.25287E-03  6336   0.468E-04 0.291E-03
CGA:  51    -0.425563950888E+03   -0.65029E-06   -0.22075E-05  6336   0.621E-04 0.308E-04
CGA:  52    -0.425563951579E+03   -0.69138E-06   -0.10202E-04  6336   0.156E-02-0.137E-03
CGA:  53    -0.425563969591E+03   -0.18011E-04   -0.25739E-04  6336   0.408E-04 0.882E-04
CGA:  54    -0.425563971938E+03   -0.23472E-05   -0.29062E-05  6336   0.996E-04 0.212E-04
  14 F= -.42556397E+03 E0= -.42555484E+03  d E =-.200359E-01  mag=    10.0000
       N       E                     dE             d eps       ncg     rms          ort
SDA:   1    -0.423048080414E+03    0.25159E+01    0.00000E+00  6336   0.667E+01 0.000E+00
CGA:   2    -0.424728185622E+03   -0.16801E+01   -0.16697E+01  6336   0.140E+02 0.926E-01
CGA:   3    -0.425060145421E+03   -0.33196E+00   -0.41392E+00  6336   0.440E+01-0.357E+01
CGA:   4    -0.425329371783E+03   -0.26923E+00   -0.27151E+00  6336   0.301E+01 0.577E-01
CGA:   5    -0.425452874656E+03   -0.12350E+00   -0.11591E+00  6336   0.112E+01 0.980E-01
CGA:   6    -0.425524915880E+03   -0.72041E-01   -0.71789E-01  6336   0.917E+00-0.950E-02
CGA:   7    -0.425564431518E+03   -0.39516E-01   -0.40311E-01  6336   0.242E+00 0.320E-02
CGA:   8    -0.425574677557E+03   -0.10246E-01   -0.10471E-01  6336   0.158E+00-0.372E-02
CGA:   9    -0.425587011231E+03   -0.12334E-01   -0.12337E-01  6336   0.117E+00 0.102E-02
CGA:  10    -0.425591321457E+03   -0.43102E-02   -0.42579E-02  6336   0.375E-01-0.202E-02
CGA:  11    -0.425593791235E+03   -0.24698E-02   -0.25078E-02  6336   0.376E-01 0.246E-02
CGA:  12    -0.425596116648E+03   -0.23254E-02   -0.23175E-02  6336   0.260E-01-0.662E-03
CGA:  13    -0.425597314377E+03   -0.11977E-02   -0.12064E-02  6336   0.110E-01 0.315E-03
CGA:  14    -0.425598092606E+03   -0.77823E-03   -0.76723E-03  6336   0.162E-01-0.117E-02
CGA:  15    -0.425598988210E+03   -0.89560E-03   -0.90374E-03  6336   0.519E-02 0.487E-03
CGA:  16    -0.425599324465E+03   -0.33626E-03   -0.33269E-03  6336   0.817E-02-0.264E-03
CGA:  17    -0.425599854394E+03   -0.52993E-03   -0.53988E-03  6336   0.307E-02 0.141E-02
CGA:  18    -0.425600154594E+03   -0.30020E-03   -0.30064E-03  6336   0.447E-02-0.608E-04
CGA:  19    -0.425600501926E+03   -0.34733E-03   -0.35040E-03  6336   0.643E-02-0.982E-03
CGA:  20    -0.425600727601E+03   -0.22567E-03   -0.18965E-03  6336   0.221E-02-0.956E-03
CGA:  21    -0.425600765563E+03   -0.37962E-04   -0.73424E-04  6336   0.123E-02 0.100E-02
CGA:  22    -0.425600771774E+03   -0.62109E-05   -0.46337E-04  6336   0.661E-03 0.862E-03
CGA:  23    -0.425600716807E+03    0.54967E-04   -0.70741E-04  6336   0.230E-01-0.986E-03
CGA:  24    -0.425601043570E+03   -0.32676E-03   -0.39615E-03  6336   0.432E-03 0.326E-03
CGA:  25    -0.425601044098E+03   -0.52857E-06   -0.14343E-04  6336   0.182E-03 0.155E-03
CGA:  26    -0.425601061102E+03   -0.17004E-04   -0.20379E-04  6336   0.409E-03 0.914E-04
CGA:  27    -0.425601083117E+03   -0.22015E-04   -0.15171E-04  6336   0.261E-03-0.867E-04
CGA:  28    -0.425601069702E+03    0.13415E-04   -0.46381E-04  6336   0.620E-02-0.535E-03
CGA:  29    -0.425601138761E+03   -0.69059E-04   -0.11498E-03  6336   0.386E-03 0.414E-03
CGA:  30    -0.425601136460E+03    0.23015E-05   -0.88165E-05  6336   0.804E-04 0.124E-03
  15 F= -.42560114E+03 E0= -.42559195E+03  d E =-.371645E-01  mag=    10.0000
       N       E                     dE             d eps       ncg     rms          ort
SDA:   1    -0.425121646480E+03    0.47949E+00    0.00000E+00  6336   0.144E+01 0.000E+00
CGA:   2    -0.425301742002E+03   -0.18010E+00   -0.18297E+00  6336   0.350E+01-0.860E-01
CGA:   3    -0.425471460962E+03   -0.16972E+00   -0.16940E+00  6336   0.116E+01-0.322E-01
CGA:   4    -0.425513213100E+03   -0.41752E-01   -0.40751E-01  6336   0.616E+00 0.191E-01
CGA:   5    -0.425567698324E+03   -0.54485E-01   -0.54243E-01  6336   0.369E+00 0.284E-02
CGA:   6    -0.425584651800E+03   -0.16953E-01   -0.16677E-01  6336   0.161E+00 0.599E-02
CGA:   7    -0.425593269798E+03   -0.86180E-02   -0.85247E-02  6336   0.916E-01-0.141E-01
CGA:   8    -0.425596502839E+03   -0.32330E-02   -0.30280E-02  6336   0.399E-01-0.162E-02
CGA:   9    -0.425600376072E+03   -0.38732E-02   -0.38526E-02  6336   0.157E-01 0.344E-02
CGA:  10    -0.425600901496E+03   -0.52542E-03   -0.62128E-03  6336   0.692E-02 0.197E-02
CGA:  11    -0.425601568045E+03   -0.66655E-03   -0.66279E-03  6336   0.155E-01-0.987E-03
CGA:  12    -0.425602282937E+03   -0.71489E-03   -0.66097E-03  6336   0.456E-02-0.137E-02
CGA:  13    -0.425602416063E+03   -0.13313E-03   -0.15379E-03  6336   0.284E-02 0.424E-03
CGA:  14    -0.425602481837E+03   -0.65775E-04   -0.10758E-03  6336   0.180E-02 0.873E-03
CGA:  15    -0.425602522382E+03   -0.40545E-04   -0.85685E-04  6336   0.127E-02 0.101E-02
CGA:  16    -0.425602589021E+03   -0.66639E-04   -0.20028E-03  6336   0.131E-01-0.170E-02
CGA:  17    -0.425602836784E+03   -0.24776E-03   -0.24702E-03  6336   0.104E-02-0.227E-03
CGA:  18    -0.425602834298E+03    0.24866E-05   -0.28548E-04  6336   0.405E-03 0.604E-03
CGA:  19    -0.425602831246E+03    0.30513E-05   -0.11233E-04  6336   0.289E-03 0.287E-03
CGA:  20    -0.425602843064E+03   -0.11817E-04   -0.15879E-04  6336   0.287E-03 0.200E-03
CGA:  21    -0.425602850398E+03   -0.73341E-05   -0.11474E-04  6336   0.336E-03 0.120E-03
CGA:  22    -0.425602991703E+03   -0.14131E-03   -0.12004E-03  6336   0.365E-03 0.116E-03
CGA:  23    -0.425602997825E+03   -0.61222E-05   -0.13508E-04  6336   0.156E-03 0.135E-03
CGA:  24    -0.425603082948E+03   -0.85123E-04   -0.80870E-04  6336   0.376E-03 0.110E-04
CGA:  25    -0.425603082509E+03    0.43931E-06   -0.75646E-05  6336   0.591E-04 0.103E-03
  16 F= -.42560308E+03 E0= -.42559389E+03  d E =-.194605E-02  mag=    10.0000
       N       E                     dE             d eps       ncg     rms          ort
SDA:   1    -0.424585851792E+03    0.10172E+01    0.00000E+00  6336   0.277E+01 0.000E+00
CGA:   2    -0.425049953240E+03   -0.46410E+00   -0.45296E+00  6336   0.962E+01 0.147E+00
CGA:   3    -0.425400977790E+03   -0.35102E+00   -0.34124E+00  6336   0.105E+01-0.309E-01
CGA:   4    -0.425515333646E+03   -0.11436E+00   -0.11313E+00  6336   0.163E+01 0.331E-01
CGA:   5    -0.425570836564E+03   -0.55503E-01   -0.54237E-01  6336   0.380E+00 0.305E-01
CGA:   6    -0.425597556443E+03   -0.26720E-01   -0.26789E-01  6336   0.199E+00 0.119E-01
CGA:   7    -0.425603436598E+03   -0.58802E-02   -0.61656E-02  6336   0.731E-01 0.784E-02
CGA:   8    -0.425614030806E+03   -0.10594E-01   -0.10901E-01  6336   0.566E-01-0.501E-02
CGA:   9    -0.425615261798E+03   -0.12310E-02   -0.12651E-02  6336   0.128E-01 0.121E-02
CGA:  10    -0.425616617771E+03   -0.13560E-02   -0.13209E-02  6336   0.106E-01 0.195E-02
CGA:  11    -0.425617480624E+03   -0.86285E-03   -0.87333E-03  6336   0.843E-02 0.962E-03
CGA:  12    -0.425618054399E+03   -0.57377E-03   -0.53482E-03  6336   0.102E-01-0.157E-02
CGA:  13    -0.425618509637E+03   -0.45524E-03   -0.34344E-03  6336   0.355E-02-0.288E-02
CGA:  14    -0.425618667563E+03   -0.15793E-03   -0.17105E-03  6336   0.215E-02 0.107E-02
CGA:  15    -0.425618721312E+03   -0.53750E-04   -0.93458E-04  6336   0.152E-02 0.876E-03
CGA:  16    -0.425618918965E+03   -0.19765E-03   -0.18963E-03  6336   0.112E-02 0.663E-03
CGA:  17    -0.425617824796E+03    0.10942E-02   -0.63199E-03  6336   0.171E-01-0.466E-02
CGA:  18    -0.425618430463E+03   -0.60567E-03   -0.77704E-03  6336   0.101E-01 0.294E-02
CGA:  19    -0.425618741609E+03   -0.31115E-03   -0.40759E-03  6336   0.331E-02 0.102E-02
CGA:  20    -0.425619225223E+03   -0.48361E-03   -0.48349E-03  6336   0.366E-02 0.600E-04
CGA:  21    -0.425619397103E+03   -0.17188E-03   -0.12350E-03  6336   0.105E-02-0.539E-03
CGA:  22    -0.425619455795E+03   -0.58693E-04   -0.39002E-04  6336   0.411E-03-0.242E-03
CGA:  23    -0.425619536859E+03   -0.81064E-04    0.37397E-03  6336   0.207E-02-0.320E-03
CGA:  24    -0.425619542008E+03   -0.51482E-05   -0.34958E-04  6336   0.212E-03 0.276E-03
  17 F= -.42561954E+03 E0= -.42561025E+03  d E =-.164595E-01  mag=    10.0000
       N       E                     dE             d eps       ncg     rms          ort
SDA:   1    -0.424725574073E+03    0.89396E+00    0.00000E+00  6336   0.258E+01 0.000E+00
CGA:   2    -0.425244117604E+03   -0.51854E+00   -0.52124E+00  6336   0.762E+01-0.290E-01
CGA:   3    -0.425413631887E+03   -0.16951E+00   -0.22853E+00  6336   0.182E+01-0.193E+01
CGA:   4    -0.425494294742E+03   -0.80663E-01   -0.80629E-01  6336   0.129E+01 0.144E-01
CGA:   5    -0.425565861367E+03   -0.71567E-01   -0.73874E-01  6336   0.913E+00-0.209E-01
CGA:   6    -0.425605826856E+03   -0.39965E-01   -0.39998E-01  6336   0.292E+00 0.606E-02
CGA:   7    -0.425619668655E+03   -0.13842E-01   -0.13824E-01  6336   0.164E+00-0.982E-02
CGA:   8    -0.425627536373E+03   -0.78677E-02   -0.78373E-02  6336   0.804E-01 0.811E-03
CGA:   9    -0.425632139362E+03   -0.46030E-02   -0.46516E-02  6336   0.592E-01 0.382E-03
CGA:  10    -0.425634450868E+03   -0.23115E-02   -0.24961E-02  6336   0.158E-01 0.385E-02
CGA:  11    -0.425635578565E+03   -0.11277E-02   -0.11249E-02  6336   0.239E-01-0.257E-03
CGA:  12    -0.425637089624E+03   -0.15111E-02   -0.15232E-02  6336   0.649E-02 0.401E-03
CGA:  13    -0.425637492108E+03   -0.40248E-03   -0.35093E-03  6336   0.948E-02-0.140E-02
CGA:  14    -0.425638271697E+03   -0.77959E-03   -0.81189E-03  6336   0.581E-02-0.159E-02
CGA:  15    -0.425638417831E+03   -0.14613E-03   -0.19387E-03  6336   0.261E-02 0.961E-03
CGA:  16    -0.425638521810E+03   -0.10398E-03   -0.15331E-03  6336   0.197E-02 0.137E-02
CGA:  17    -0.425638365413E+03    0.15640E-03   -0.48343E-03  6336   0.412E-01-0.398E-02
CGA:  18    -0.425639066362E+03   -0.70095E-03   -0.85539E-03  6336   0.390E-02 0.270E-02
CGA:  19    -0.425639107975E+03   -0.41613E-04   -0.93904E-04  6336   0.579E-03 0.842E-03
CGA:  20    -0.425639108530E+03   -0.55521E-06   -0.20438E-04  6336   0.590E-03 0.346E-03
CGA:  21    -0.425639140651E+03   -0.32121E-04   -0.34377E-04  6336   0.103E-02 0.873E-04
CGA:  22    -0.425639317136E+03   -0.17648E-03   -0.17371E-03  6336   0.340E-02 0.412E-04
CGA:  23    -0.425639457829E+03   -0.14069E-03   -0.17008E-03  6336   0.674E-03 0.787E-03
CGA:  24    -0.425639530206E+03   -0.72377E-04   -0.95849E-04  6336   0.243E-02-0.732E-03
CGA:  25    -0.425639630109E+03   -0.99904E-04   -0.89636E-04  6336   0.345E-03-0.239E-03
CGA:  26    -0.425639622968E+03    0.71411E-05   -0.61425E-05  6336   0.189E-03 0.211E-03
  18 F= -.42563962E+03 E0= -.42563038E+03  d E =-.200810E-01  mag=    10.0000
       N       E                     dE             d eps       ncg     rms          ort
SDA:   1    -0.422024852115E+03    0.36148E+01    0.00000E+00  6336   0.999E+01 0.000E+00
CGA:   2    -0.424070417822E+03   -0.20456E+01   -0.19141E+01  6336   0.202E+02 0.128E+01
CGA:   3    -0.424848271150E+03   -0.77785E+00   -0.70773E+00  6336   0.462E+01-0.138E+01
CGA:   4    -0.425214841285E+03   -0.36657E+00   -0.36613E+00  6336   0.506E+01 0.277E-01
CGA:   5    -0.425463606077E+03   -0.24876E+00   -0.25180E+00  6336   0.298E+01-0.562E-01
CGA:   6    -0.425562517525E+03   -0.98911E-01   -0.10422E+00  6336   0.656E+00-0.843E-01
CGA:   7    -0.425609047983E+03   -0.46530E-01   -0.46553E-01  6336   0.522E+00 0.242E-02
CGA:   8    -0.425631357435E+03   -0.22309E-01   -0.22710E-01  6336   0.326E+00-0.425E-02
CGA:   9    -0.425646105334E+03   -0.14748E-01   -0.14885E-01  6336   0.929E-01 0.685E-02
CGA:  10    -0.425653492690E+03   -0.73874E-02   -0.74236E-02  6336   0.112E+00-0.835E-02
CGA:  11    -0.425657853119E+03   -0.43604E-02   -0.43606E-02  6336   0.622E-01 0.320E-03
CGA:  12    -0.425660807082E+03   -0.29540E-02   -0.30387E-02  6336   0.190E-01 0.444E-02
CGA:  13    -0.425663122748E+03   -0.23157E-02   -0.22799E-02  6336   0.246E-01 0.908E-03
CGA:  14    -0.425664598102E+03   -0.14754E-02   -0.14698E-02  6336   0.306E-01-0.615E-03
CGA:  15    -0.425666104150E+03   -0.15060E-02   -0.15006E-02  6336   0.114E-01-0.362E-03
CGA:  16    -0.425667143418E+03   -0.10393E-02   -0.15307E-02  6336   0.339E-01-0.761E-02
CGA:  17    -0.425668009402E+03   -0.86598E-03   -0.99672E-03  6336   0.466E-02 0.517E-02
CGA:  18    -0.425668207618E+03   -0.19822E-03   -0.24588E-03  6336   0.472E-02 0.183E-02
CGA:  19    -0.425668662690E+03   -0.45507E-03   -0.45724E-03  6336   0.347E-02 0.194E-02
CGA:  20    -0.425668882085E+03   -0.21940E-03   -0.11530E-02  6336   0.265E-01-0.561E-02
CGA:  21    -0.425669488155E+03   -0.60607E-03   -0.70662E-03  6336   0.391E-02 0.315E-02
CGA:  22    -0.425669614044E+03   -0.12589E-03   -0.15386E-03  6336   0.290E-02 0.679E-03
CGA:  23    -0.425670062826E+03   -0.44878E-03   -0.42667E-03  6336   0.164E-02 0.431E-03
CGA:  24    -0.425670207804E+03   -0.14498E-03   -0.14565E-03  6336   0.480E-02-0.181E-02
CGA:  25    -0.425670297277E+03   -0.89473E-04   -0.10651E-03  6336   0.805E-03 0.281E-03
CGA:  26    -0.425670307876E+03   -0.10599E-04   -0.24762E-04  6336   0.412E-03 0.318E-03
CGA:  27    -0.425670367635E+03   -0.59759E-04   -0.56309E-04  6336   0.160E-02 0.130E-03
CGA:  28    -0.425670511888E+03   -0.14425E-03   -0.13970E-03  6336   0.749E-03-0.675E-03
CGA:  29    -0.425670546309E+03   -0.34421E-04   -0.78894E-04  6336   0.276E-02-0.410E-03
CGA:  30    -0.425670633788E+03   -0.87478E-04   -0.10268E-03  6336   0.119E-02 0.389E-03
CGA:  31    -0.425670734501E+03   -0.10071E-03   -0.10076E-03  6336   0.212E-02 0.209E-04
CGA:  32    -0.425670888898E+03   -0.15440E-03   -0.14278E-03  6336   0.651E-03-0.119E-02
CGA:  33    -0.425670886360E+03    0.25376E-05   -0.11226E-04  6336   0.206E-03 0.234E-03
  19 F= -.42567089E+03 E0= -.42566158E+03  d E =-.312634E-01  mag=    10.0000
       N       E                     dE             d eps       ncg     rms          ort
SDA:   1    -0.418949081842E+03    0.67218E+01    0.00000E+00  6336   0.177E+02 0.000E+00
CGA:   2    -0.423712771051E+03   -0.47637E+01   -0.46828E+01  6336   0.203E+02 0.549E+00
CGA:   3    -0.424323565825E+03   -0.61079E+00   -0.68034E+00  6336   0.113E+02-0.535E+01
CGA:   4    -0.425128072251E+03   -0.80451E+00   -0.82204E+00  6336   0.678E+01-0.582E+00
CGA:   5    -0.425434702932E+03   -0.30663E+00   -0.27605E+00  6336   0.195E+01 0.449E+00
CGA:   6    -0.425503892344E+03   -0.69189E-01   -0.72161E-01  6336   0.138E+01-0.549E-01
CGA:   7    -0.425632051993E+03   -0.12816E+00   -0.12707E+00  6336   0.537E+00 0.308E-01
CGA:   8    -0.425648246442E+03   -0.16194E-01   -0.17504E-01  6336   0.362E+00-0.123E-01
CGA:   9    -0.425662621775E+03   -0.14375E-01   -0.14178E-01  6336   0.146E+00 0.309E-01
CGA:  10    -0.425671313935E+03   -0.86922E-02   -0.87166E-02  6336   0.206E+00 0.818E-03
CGA:  11    -0.425680618687E+03   -0.93048E-02   -0.91545E-02  6336   0.155E+00-0.726E-02
CGA:  12    -0.425688091757E+03   -0.74731E-02   -0.74291E-02  6336   0.365E-01-0.117E-02
CGA:  13    -0.425689029334E+03   -0.93758E-03   -0.96641E-03  6336   0.244E-01 0.474E-03
CGA:  14    -0.425694031729E+03   -0.50024E-02   -0.54566E-02  6336   0.648E-01-0.292E-02
CGA:  15    -0.425695206097E+03   -0.11744E-02   -0.12103E-02  6336   0.156E-01-0.807E-03
CGA:  16    -0.425695663634E+03   -0.45754E-03   -0.50947E-03  6336   0.111E-01 0.183E-02
CGA:  17    -0.425696274365E+03   -0.61073E-03   -0.63110E-03  6336   0.232E-01 0.104E-02
CGA:  18    -0.425698716464E+03   -0.24421E-02   -0.25692E-02  6336   0.277E-01-0.392E-02
CGA:  19    -0.425699116471E+03   -0.40001E-03   -0.35388E-03  6336   0.514E-02-0.953E-03
CGA:  20    -0.425699226484E+03   -0.11001E-03   -0.12797E-03  6336   0.633E-02 0.400E-03
CGA:  21    -0.425699470224E+03   -0.24374E-03   -0.29570E-03  6336   0.832E-02 0.246E-02
CGA:  22    -0.425699697441E+03   -0.22722E-03   -0.29932E-03  6336   0.475E-02 0.190E-02
CGA:  23    -0.425700268927E+03   -0.57149E-03   -0.65151E-03  6336   0.113E-01-0.162E-02
CGA:  24    -0.425700426966E+03   -0.15804E-03   -0.10424E-03  6336   0.355E-02-0.111E-02
CGA:  25    -0.425700502461E+03   -0.75495E-04   -0.47689E-04  6336   0.202E-02-0.602E-03
CGA:  26    -0.425700589653E+03   -0.87192E-04   -0.78525E-04  6336   0.656E-02-0.660E-03
CGA:  27    -0.425700684171E+03   -0.94518E-04   -0.91815E-04  6336   0.833E-02-0.559E-04
CGA:  28    -0.425700782122E+03   -0.97951E-04   -0.12947E-03  6336   0.527E-02 0.761E-03
CGA:  29    -0.425700841530E+03   -0.59409E-04   -0.94206E-04  6336   0.366E-02 0.937E-03
CGA:  30    -0.425700895262E+03   -0.53732E-04   -0.67707E-04  6336   0.164E-02 0.435E-03
CGA:  31    -0.425700955042E+03   -0.59779E-04   -0.42914E-04  6336   0.178E-02-0.616E-03
SDA:  32    -0.425701080294E+03   -0.12525E-03    0.22178E-03  6336   0.592E-02-0.133E-02
CGA:  33    -0.425701165428E+03   -0.85134E-04   -0.10544E-03  6336   0.673E-03 0.625E-03
CGA:  34    -0.425701171545E+03   -0.61165E-05   -0.17454E-04  6336   0.414E-03 0.459E-03
  20 F= -.42570117E+03 E0= -.42569188E+03  d E =-.302852E-01  mag=    10.0000
       N       E                     dE             d eps       ncg     rms          ort
SDA:   1    -0.413486365850E+03    0.12215E+02    0.00000E+00  6336   0.321E+02 0.000E+00
CGA:   2    -0.421723010382E+03   -0.82366E+01   -0.17011E+00  6336   0.471E+02-0.328E+01
CGA:   3    -0.422571700427E+03   -0.84869E+00   -0.14408E+01  6336   0.470E+02-0.212E+02
CGA:   4    -0.423240188673E+03   -0.66849E+00   -0.45523E+00  6336   0.290E+02 0.785E+01
CGA:   5    -0.423893262143E+03   -0.65307E+00   -0.80359E+00  6336   0.256E+02-0.349E+01
CGA:   6    -0.424192509808E+03   -0.29925E+00   -0.71617E+00  6336   0.297E+02-0.835E+01
CGA:   7    -0.424806929679E+03   -0.61442E+00   -0.58019E+00  6336   0.190E+02 0.111E+01
CGA:   8    -0.425080962169E+03   -0.27403E+00   -0.31908E+00  6336   0.678E+01-0.589E+01
CGA:   9    -0.425172145479E+03   -0.91183E-01   -0.76923E-01  6336   0.451E+01 0.896E+00
CGA:  10    -0.425246559194E+03   -0.74414E-01   -0.74887E-01  6336   0.208E+01-0.130E+00
CGA:  11    -0.425310776288E+03   -0.64217E-01   -0.69171E-01  6336   0.429E+01-0.567E-01
CGA:  12    -0.425442897482E+03   -0.13212E+00   -0.12563E+00  6336   0.433E+01 0.168E+00
CGA:  13    -0.425512493086E+03   -0.69596E-01   -0.66618E-01  6336   0.161E+01 0.170E+00
CGA:  14    -0.425538819132E+03   -0.26326E-01   -0.26499E-01  6336   0.924E+00-0.508E-01
CGA:  15    -0.425557576190E+03   -0.18757E-01   -0.23553E-01  6336   0.643E+00-0.131E+00
CGA:  16    -0.425570180841E+03   -0.12605E-01   -0.12859E-01  6336   0.465E+00-0.309E-01
CGA:  17    -0.425597326392E+03   -0.27146E-01   -0.27073E-01  6336   0.877E+00 0.108E-01
CGA:  18    -0.425615253875E+03   -0.17927E-01   -0.17613E-01  6336   0.235E+00 0.620E-01
CGA:  19    -0.425620907538E+03   -0.56537E-02   -0.57602E-02  6336   0.167E+00 0.140E-04
CGA:  20    -0.425627200521E+03   -0.62930E-02   -0.63103E-02  6336   0.141E+00-0.111E-01
CGA:  21    -0.425631444817E+03   -0.42443E-02   -0.40465E-02  6336   0.125E+00-0.128E-01
CGA:  22    -0.425636278341E+03   -0.48335E-02   -0.48502E-02  6336   0.950E-01 0.139E-02
CGA:  23    -0.425638255255E+03   -0.19769E-02   -0.21979E-02  6336   0.434E-01 0.981E-02
CGA:  24    -0.425639439482E+03   -0.11842E-02   -0.12863E-02  6336   0.234E-01 0.645E-02
CGA:  25    -0.425640536742E+03   -0.10973E-02   -0.10830E-02  6336   0.415E-01-0.281E-02
CGA:  26    -0.425642961965E+03   -0.24252E-02   -0.30290E-02  6336   0.109E+00-0.160E-01
CGA:  27    -0.425643836066E+03   -0.87410E-03   -0.80977E-03  6336   0.487E-01-0.174E-02
CGA:  28    -0.425644240280E+03   -0.40421E-03   -0.50460E-03  6336   0.203E-01 0.321E-02
CGA:  29    -0.425644385056E+03   -0.14478E-03   -0.27891E-03  6336   0.171E-01 0.502E-02
CGA:  30    -0.425644527452E+03   -0.14240E-03   -0.29176E-03  6336   0.136E-01 0.620E-02
CGA:  31    -0.425644678033E+03   -0.15058E-03   -0.25582E-03  6336   0.102E-01 0.398E-02
SDA:  32    -0.425644933789E+03   -0.25576E-03   -0.28722E-03  6336   0.196E-01 0.163E-02
CGA:  33    -0.425645762070E+03   -0.82828E-03   -0.86389E-03  6336   0.192E-01-0.661E-02
CGA:  34    -0.425645811651E+03   -0.49581E-04   -0.13846E-02  6336   0.735E-01-0.188E-01
CGA:  35    -0.425647288501E+03   -0.14768E-02   -0.16846E-02  6336   0.142E-01 0.132E-01
CGA:  36    -0.425647530752E+03   -0.24225E-03   -0.35330E-03  6336   0.281E-02 0.585E-02
CGA:  37    -0.425647568905E+03   -0.38154E-04   -0.72571E-04  6336   0.147E-02 0.156E-02
CGA:  38    -0.425647884452E+03   -0.31555E-03   -0.22726E-03  6336   0.419E-02 0.763E-03
CGA:  39    -0.425648011234E+03   -0.12678E-03   -0.11423E-03  6336   0.212E-02-0.748E-03
CGA:  40    -0.425648380282E+03   -0.36905E-03   -0.26504E-03  6336   0.238E-02 0.963E-03
CGA:  41    -0.425648638432E+03   -0.25815E-03   -0.48694E-03  6336   0.176E-01-0.250E-02
CGA:  42    -0.425648975414E+03   -0.33698E-03   -0.39554E-03  6336   0.115E-02 0.226E-02
CGA:  43    -0.425649011044E+03   -0.35630E-04   -0.39418E-04  6336   0.749E-03 0.172E-03
CGA:  44    -0.425649343256E+03   -0.33221E-03   -0.28319E-04  6336   0.904E-02 0.802E-05
CGA:  45    -0.425649879214E+03   -0.53596E-03   -0.50053E-03  6336   0.505E-02-0.102E-02
CGA:  46    -0.425649979647E+03   -0.10043E-03   -0.10068E-03  6336   0.130E-02-0.351E-04
CGA:  47    -0.425649982286E+03   -0.26381E-05   -0.29248E-04  6336   0.908E-03 0.417E-03
CGA:  48    -0.425649975098E+03    0.71872E-05   -0.30045E-04  6336   0.790E-03 0.626E-03
CGA:  49    -0.425650047593E+03   -0.72494E-04   -0.81063E-04  6336   0.260E-02-0.420E-03
CGA:  50    -0.425650119737E+03   -0.72144E-04   -0.65882E-04  6336   0.504E-03-0.117E-03
CGA:  51    -0.425650115035E+03    0.47018E-05   -0.10247E-04  6336   0.228E-03 0.254E-03
  21 F= -.42565012E+03 E0= -.42564068E+03  d E =0.510565E-01  mag=    10.0000
       N       E                     dE             d eps       ncg     rms          ort
SDA:   1    -0.419968245670E+03    0.56819E+01    0.00000E+00  6336   0.160E+02 0.000E+00
CGA:   2    -0.421979367546E+03   -0.20111E+01   -0.19344E+01  6336   0.470E+02 0.182E+01
CGA:   3    -0.424395242600E+03   -0.24159E+01   -0.24417E+01  6336   0.979E+01-0.318E+01
CGA:   4    -0.424812695953E+03   -0.41745E+00   -0.40272E+00  6336   0.717E+01-0.150E+00
CGA:   5    -0.425402164808E+03   -0.58947E+00   -0.58964E+00  6336   0.467E+01-0.272E-01
CGA:   6    -0.425542873871E+03   -0.14071E+00   -0.14474E+00  6336   0.109E+01-0.127E+00
CGA:   7    -0.425608783232E+03   -0.65909E-01   -0.66494E-01  6336   0.960E+00 0.238E-01
CGA:   8    -0.425658256123E+03   -0.49473E-01   -0.49173E-01  6336   0.487E+00 0.818E-03
CGA:   9    -0.425682989436E+03   -0.24733E-01   -0.24527E-01  6336   0.243E+00-0.203E-01
CGA:  10    -0.425692729810E+03   -0.97404E-02   -0.96896E-02  6336   0.104E+00-0.236E-02
CGA:  11    -0.425700461201E+03   -0.77314E-02   -0.77284E-02  6336   0.136E+00-0.512E-03
CGA:  12    -0.425706857452E+03   -0.63963E-02   -0.64569E-02  6336   0.369E-01 0.361E-02
CGA:  13    -0.425709031351E+03   -0.21739E-02   -0.21323E-02  6336   0.490E-01-0.389E-02
CGA:  14    -0.425712654991E+03   -0.36236E-02   -0.36787E-02  6336   0.253E-01-0.336E-02
CGA:  15    -0.425713619148E+03   -0.96416E-03   -0.97240E-03  6336   0.166E-01 0.862E-04
CGA:  16    -0.425714578220E+03   -0.95907E-03   -0.98508E-03  6336   0.861E-02 0.361E-02
CGA:  17    -0.425716058689E+03   -0.14805E-02   -0.18696E-02  6336   0.562E-01-0.350E-02
CGA:  18    -0.425716817864E+03   -0.75917E-03   -0.67244E-03  6336   0.311E-01-0.164E-02
CGA:  19    -0.425717179146E+03   -0.36128E-03   -0.34945E-03  6336   0.660E-02 0.224E-03
CGA:  20    -0.425717293028E+03   -0.11388E-03   -0.12299E-03  6336   0.635E-02 0.204E-03
CGA:  21    -0.425717523471E+03   -0.23044E-03   -0.24335E-03  6336   0.127E-01 0.504E-03
CGA:  22    -0.425717851934E+03   -0.32846E-03   -0.35423E-03  6336   0.121E-01 0.729E-03
CGA:  23    -0.425718151296E+03   -0.29936E-03   -0.32502E-03  6336   0.116E-01 0.691E-03
CGA:  24    -0.425718392221E+03   -0.24092E-03   -0.24638E-03  6336   0.527E-02 0.273E-03
CGA:  25    -0.425718548852E+03   -0.15663E-03   -0.11681E-03  6336   0.364E-02-0.114E-02
CGA:  26    -0.425717202835E+03    0.13460E-02   -0.49349E-03  6336   0.657E-01-0.153E-01
CGA:  27    -0.425718656749E+03   -0.14539E-02   -0.16798E-02  6336   0.155E-01 0.565E-02
CGA:  28    -0.425718901017E+03   -0.24427E-03   -0.40001E-03  6336   0.278E-02 0.501E-02
CGA:  29    -0.425718935802E+03   -0.34785E-04   -0.83794E-04  6336   0.140E-02 0.146E-02
CGA:  30    -0.425719028132E+03   -0.92330E-04   -0.95217E-04  6336   0.351E-02-0.248E-03
CGA:  31    -0.425719166573E+03   -0.13844E-03   -0.14413E-03  6336   0.240E-02 0.851E-03
CGA:  32    -0.425719218158E+03   -0.51585E-04   -0.71730E-04  6336   0.881E-03 0.624E-03
CGA:  33    -0.425719264289E+03   -0.46131E-04   -0.43957E-04  6336   0.514E-03-0.141E-03
CGA:  34    -0.425719344694E+03   -0.80405E-04    0.15987E-04  6336   0.465E-03 0.106E-03
CGA:  35    -0.425719373736E+03   -0.29042E-04   -0.28491E-04  6336   0.747E-03-0.185E-03
CGA:  36    -0.425719373293E+03    0.44287E-06   -0.92056E-05  6336   0.783E-03 0.290E-03
CGA:  37    -0.425719370944E+03    0.23494E-05   -0.16863E-04  6336   0.214E-03 0.523E-03
  22 F= -.42571937E+03 E0= -.42571000E+03  d E =-.692559E-01  mag=    10.0000
       N       E                     dE             d eps       ncg     rms          ort
SDA:   1    -0.425283272712E+03    0.43610E+00    0.00000E+00  6336   0.113E+01 0.000E+00
CGA:   2    -0.425529880897E+03   -0.24661E+00   -0.23396E+00  6336   0.218E+01 0.106E+00
CGA:   3    -0.425629008375E+03   -0.99127E-01   -0.97675E-01  6336   0.109E+01 0.906E-02
CGA:   4    -0.425657462806E+03   -0.28454E-01   -0.28353E-01  6336   0.333E+00 0.185E-01
CGA:   5    -0.425682590645E+03   -0.25128E-01   -0.25319E-01  6336   0.709E+00-0.108E-01
CGA:   6    -0.425704838616E+03   -0.22248E-01   -0.21990E-01  6336   0.175E+00-0.999E-03
CGA:   7    -0.425711023348E+03   -0.61847E-02   -0.61282E-02  6336   0.584E-01 0.880E-02
CGA:   8    -0.425712531180E+03   -0.15078E-02   -0.15281E-02  6336   0.265E-01-0.280E-03
CGA:   9    -0.425715486470E+03   -0.29553E-02   -0.39625E-02  6336   0.899E-01-0.100E-01
CGA:  10    -0.425716379622E+03   -0.89315E-03   -0.89535E-03  6336   0.351E-01 0.113E-03
CGA:  11    -0.425716776193E+03   -0.39657E-03   -0.49911E-03  6336   0.143E-01 0.282E-02
CGA:  12    -0.425716932768E+03   -0.15657E-03   -0.24443E-03  6336   0.775E-02 0.305E-02
CGA:  13    -0.425717033672E+03   -0.10090E-03   -0.15629E-03  6336   0.538E-02 0.166E-02
CGA:  14    -0.425717215625E+03   -0.18195E-03   -0.20142E-03  6336   0.109E-01 0.104E-02
CGA:  15    -0.425717638501E+03   -0.42288E-03   -0.43463E-03  6336   0.126E-01 0.826E-03
CGA:  16    -0.425717846925E+03   -0.20842E-03   -0.20211E-03  6336   0.341E-02-0.201E-03
CGA:  17    -0.425717956623E+03   -0.10970E-03   -0.82352E-04  6336   0.371E-02-0.130E-02
CGA:  18    -0.425717640925E+03    0.31570E-03   -0.23592E-03  6336   0.204E-01-0.934E-02
CGA:  19    -0.425718134232E+03   -0.49331E-03   -0.54769E-03  6336   0.701E-02 0.267E-02
CGA:  20    -0.425718259599E+03   -0.12537E-03   -0.19234E-03  6336   0.154E-02 0.321E-02
CGA:  21    -0.425718270267E+03   -0.10667E-04   -0.40874E-04  6336   0.873E-03 0.112E-02
CGA:  22    -0.425718361730E+03   -0.91463E-04   -0.77196E-04  6336   0.153E-02 0.319E-03
CGA:  23    -0.425718464303E+03   -0.10257E-03   -0.10173E-03  6336   0.742E-03 0.346E-03
CGA:  24    -0.425717545630E+03    0.91867E-03   -0.49447E-03  6336   0.575E-01-0.467E-02
CGA:  25    -0.425718425162E+03   -0.87953E-03   -0.98330E-03  6336   0.143E-02 0.979E-03
CGA:  26    -0.425718440079E+03   -0.14917E-04   -0.45915E-04  6336   0.661E-03 0.638E-03
CGA:  27    -0.425718477651E+03   -0.37572E-04   -0.50105E-04  6336   0.842E-03 0.476E-03
CGA:  28    -0.425718542727E+03   -0.65076E-04   -0.64329E-04  6336   0.299E-02-0.803E-03
CGA:  29    -0.425718589986E+03   -0.47259E-04   -0.58723E-04  6336   0.347E-03 0.169E-03
CGA:  30    -0.425718587465E+03    0.25218E-05   -0.82296E-05  6336   0.187E-03 0.208E-03
CGA:  31    -0.425718601599E+03   -0.14135E-04   -0.13923E-04  6336   0.318E-03 0.789E-04
CGA:  32    -0.425718642064E+03   -0.40465E-04   -0.42113E-04  6336   0.705E-03-0.802E-04
CGA:  33    -0.425718651041E+03   -0.89771E-05   -0.12505E-04  6336   0.178E-03 0.703E-04
  23 F= -.42571865E+03 E0= -.42570931E+03  d E =0.719902E-03  mag=    10.0000
       N       E                     dE             d eps       ncg     rms          ort
SDA:   1    -0.425598434022E+03    0.12021E+00    0.00000E+00  6336   0.345E+00 0.000E+00
CGA:   2    -0.425663949412E+03   -0.65515E-01   -0.65881E-01  6336   0.121E+01-0.337E-02
CGA:   3    -0.425695467320E+03   -0.31518E-01   -0.31527E-01  6336   0.113E+00 0.697E-02
CGA:   4    -0.425711462697E+03   -0.15995E-01   -0.16162E-01  6336   0.167E+00-0.211E-02
CGA:   5    -0.425718913221E+03   -0.74505E-02   -0.74412E-02  6336   0.559E-01-0.545E-02
CGA:   6    -0.425720393432E+03   -0.14802E-02   -0.16195E-02  6336   0.226E-01 0.474E-02
CGA:   7    -0.425721225202E+03   -0.83177E-03   -0.99168E-03  6336   0.691E-02 0.577E-02
CGA:   8    -0.425721900627E+03   -0.67542E-03   -0.67236E-03  6336   0.173E-01 0.361E-03
CGA:   9    -0.425722597457E+03   -0.69683E-03   -0.67735E-03  6336   0.268E-02-0.593E-03
CGA:  10    -0.425722720499E+03   -0.12304E-03   -0.97538E-04  6336   0.325E-02-0.833E-03
CGA:  11    -0.425722767232E+03   -0.46733E-04   -0.29753E-03  6336   0.153E-01-0.379E-02
CGA:  12    -0.425723030851E+03   -0.26362E-03   -0.37559E-03  6336   0.132E-02 0.314E-02
CGA:  13    -0.425723024919E+03    0.59329E-05   -0.30750E-04  6336   0.561E-03 0.765E-03
CGA:  14    -0.425723034257E+03   -0.93384E-05   -0.20890E-04  6336   0.336E-03 0.410E-03
CGA:  15    -0.425723060699E+03   -0.26442E-04   -0.24339E-04  6336   0.218E-03 0.255E-03
CGA:  16    -0.425723097361E+03   -0.36661E-04    0.23397E-04  6336   0.186E-03 0.170E-03
CGA:  17    -0.425723105061E+03   -0.77008E-05   -0.90490E-05  6336   0.237E-03 0.844E-04
CGA:  18    -0.425723143795E+03   -0.38734E-04   -0.93490E-04  6336   0.233E-02-0.266E-03
CGA:  19    -0.425723177636E+03   -0.33841E-04   -0.39339E-04  6336   0.108E-03 0.888E-04
CGA:  20    -0.425723201192E+03   -0.23556E-04    0.83248E-05  6336   0.123E-03 0.654E-04
CGA:  21    -0.425723202553E+03   -0.13617E-05   -0.30825E-05  6336   0.678E-04 0.366E-04
  24 F= -.42572320E+03 E0= -.42571388E+03  d E =-.455151E-02  mag=    10.0000
       N       E                     dE             d eps       ncg     rms          ort
SDA:   1    -0.424968465890E+03    0.75474E+00    0.00000E+00  6336   0.220E+01 0.000E+00
CGA:   2    -0.425236169401E+03   -0.26770E+00   -0.25888E+00  6336   0.681E+01 0.162E+00
CGA:   3    -0.425564661206E+03   -0.32849E+00   -0.32362E+00  6336   0.940E+00-0.102E-01
CGA:   4    -0.425616341745E+03   -0.51681E-01   -0.51762E-01  6336   0.984E+00-0.177E-01
CGA:   5    -0.425685672055E+03   -0.69330E-01   -0.69419E-01  6336   0.838E+00-0.141E-01
CGA:   6    -0.425712542886E+03   -0.26871E-01   -0.27517E-01  6336   0.101E+00 0.269E-02
CGA:   7    -0.425717518858E+03   -0.49760E-02   -0.50892E-02  6336   0.882E-01 0.839E-02
CGA:   8    -0.425722775092E+03   -0.52562E-02   -0.52931E-02  6336   0.503E-01 0.384E-02
CGA:   9    -0.425726608870E+03   -0.38338E-02   -0.38503E-02  6336   0.400E-01-0.201E-02
CGA:  10    -0.425727923691E+03   -0.13148E-02   -0.12199E-02  6336   0.870E-02-0.332E-02
CGA:  11    -0.425728648704E+03   -0.72501E-03   -0.72379E-03  6336   0.156E-01 0.170E-04
CGA:  12    -0.425729449210E+03   -0.80051E-03   -0.81150E-03  6336   0.585E-02 0.753E-03
CGA:  13    -0.425729642603E+03   -0.19339E-03   -0.22216E-03  6336   0.230E-02 0.101E-02
CGA:  14    -0.425729412015E+03    0.23059E-03   -0.26704E-03  6336   0.677E-01-0.404E-02
CGA:  15    -0.425730488851E+03   -0.10768E-02   -0.11645E-02  6336   0.302E-02 0.170E-02
CGA:  16    -0.425730593913E+03   -0.10506E-03   -0.16486E-03  6336   0.146E-02 0.114E-02
CGA:  17    -0.425730669761E+03   -0.75848E-04   -0.10422E-03  6336   0.199E-02 0.510E-03
CGA:  18    -0.425730822504E+03   -0.15274E-03   -0.17049E-03  6336   0.960E-03 0.434E-03
CGA:  19    -0.425725228702E+03    0.55938E-02   -0.32149E-02  6336   0.125E+00-0.110E-01
CGA:  20    -0.425728734236E+03   -0.35055E-02   -0.32197E-02  6336   0.253E-01 0.353E-01
CGA:  21    -0.425729500067E+03   -0.76583E-03   -0.10070E-02  6336   0.934E-02 0.599E-02
CGA:  22    -0.425729909077E+03   -0.40901E-03   -0.51710E-03  6336   0.590E-02 0.194E-02
CGA:  23    -0.425730491427E+03   -0.58235E-03   -0.54273E-03  6336   0.124E-01-0.509E-03
CGA:  24    -0.425731044837E+03   -0.55341E-03   -0.43867E-03  6336   0.519E-02-0.106E-02
CGA:  25    -0.425731147232E+03   -0.10239E-03   -0.92456E-04  6336   0.106E-02 0.432E-04
CGA:  26    -0.425731160245E+03   -0.13013E-04   -0.21432E-04  6336   0.480E-03 0.882E-04
CGA:  27    -0.425731186091E+03   -0.25846E-04   -0.27615E-04  6336   0.119E-02 0.221E-04
CGA:  28    -0.425731288944E+03   -0.10285E-03   -0.80347E-04  6336   0.155E-02-0.312E-03
CGA:  29    -0.425731322658E+03   -0.33715E-04   -0.21369E-04  6336   0.673E-03-0.116E-03
CGA:  30    -0.425731324610E+03   -0.19521E-05   -0.93465E-05  6336   0.303E-03 0.709E-04
  25 F= -.42573132E+03 E0= -.42572199E+03  d E =-.812206E-02  mag=    10.0000
       N       E                     dE             d eps       ncg     rms          ort
SDA:   1    -0.423165020534E+03    0.25663E+01    0.00000E+00  6336   0.702E+01 0.000E+00
CGA:   2    -0.423996616651E+03   -0.83160E+00   -0.82997E+00  6336   0.228E+02 0.384E+00
CGA:   3    -0.425250000321E+03   -0.12534E+01   -0.11876E+01  6336   0.366E+01-0.364E+00
CGA:   4    -0.425411529486E+03   -0.16153E+00   -0.18797E+00  6336   0.343E+01-0.254E+00
CGA:   5    -0.425558804701E+03   -0.14728E+00   -0.12046E+00  6336   0.112E+01 0.643E+00
CGA:   6    -0.425653338514E+03   -0.94534E-01   -0.10029E+00  6336   0.119E+01 0.114E-02
CGA:   7    -0.425695847879E+03   -0.42509E-01   -0.45045E-01  6336   0.655E+00-0.630E-01
CGA:   8    -0.425713848194E+03   -0.18000E-01   -0.15934E-01  6336   0.122E+00 0.975E-01
CGA:   9    -0.425719072407E+03   -0.52242E-02   -0.54493E-02  6336   0.154E+00 0.109E-01
CGA:  10    -0.425725511815E+03   -0.64394E-02   -0.61891E-02  6336   0.939E-01 0.208E-01
CGA:  11    -0.425729003279E+03   -0.34915E-02   -0.33653E-02  6336   0.105E+00-0.282E-02
CGA:  12    -0.425734801062E+03   -0.57978E-02   -0.55998E-02  6336   0.878E-01-0.101E-01
CGA:  13    -0.425736071991E+03   -0.12709E-02   -0.12402E-02  6336   0.183E-01-0.620E-03
CGA:  14    -0.425736406458E+03   -0.33447E-03   -0.45581E-03  6336   0.185E-01 0.228E-02
CGA:  15    -0.425736947500E+03   -0.54104E-03   -0.71014E-03  6336   0.186E-01 0.425E-02
CGA:  16    -0.425737623469E+03   -0.67597E-03   -0.73981E-03  6336   0.190E-01 0.141E-02
CGA:  17    -0.425738493389E+03   -0.86992E-03   -0.81914E-03  6336   0.171E-01-0.186E-02
CGA:  18    -0.425739006045E+03   -0.51266E-03   -0.41982E-03  6336   0.131E-01-0.188E-02
CGA:  19    -0.425739443062E+03   -0.43702E-03   -0.36703E-03  6336   0.682E-02-0.195E-02
CGA:  20    -0.425739573792E+03   -0.13073E-03   -0.11181E-03  6336   0.356E-02-0.432E-03
CGA:  21    -0.425739755040E+03   -0.18125E-03   -0.18497E-03  6336   0.109E-01 0.294E-03
CGA:  22    -0.425740280323E+03   -0.52528E-03   -0.55458E-03  6336   0.489E-02 0.157E-02
CGA:  23    -0.425740408168E+03   -0.12784E-03   -0.12087E-03  6336   0.196E-02-0.169E-03
CGA:  24    -0.425740681749E+03   -0.27358E-03    0.44478E-03  6336   0.160E-02 0.311E-03
CGA:  25    -0.425740773162E+03   -0.91413E-04   -0.76980E-04  6336   0.254E-02-0.670E-03
CGA:  26    -0.425740838112E+03   -0.64949E-04   -0.69746E-04  6336   0.385E-02 0.313E-03
CGA:  27    -0.425740886971E+03   -0.48859E-04   -0.80232E-04  6336   0.556E-03 0.719E-03
CGA:  28    -0.425740887976E+03   -0.10049E-05   -0.13914E-04  6336   0.399E-03 0.339E-03
CGA:  29    -0.425740898095E+03   -0.10120E-04   -0.13865E-04  6336   0.328E-03 0.163E-03
CGA:  30    -0.425740908067E+03   -0.99720E-05   -0.16823E-04  6336   0.212E-03 0.342E-03
CGA:  31    -0.425740917917E+03   -0.98498E-05   -0.43314E-04  6336   0.340E-02-0.227E-03
CGA:  32    -0.425740988756E+03   -0.70839E-04   -0.64338E-04  6336   0.199E-03-0.171E-03
CGA:  33    -0.425740988354E+03    0.40150E-06   -0.42764E-05  6336   0.104E-03 0.123E-03
  26 F= -.42574099E+03 E0= -.42573170E+03  d E =-.966374E-02  mag=    10.0000
       N       E                     dE             d eps       ncg     rms          ort
SDA:   1    -0.424716931078E+03    0.10241E+01    0.00000E+00  6336   0.265E+01 0.000E+00
CGA:   2    -0.425166390565E+03   -0.44946E+00   -0.45359E+00  6336   0.111E+02-0.225E-01
CGA:   3    -0.425527409921E+03   -0.36102E+00   -0.36655E+00  6336   0.182E+01-0.194E+00
CGA:   4    -0.425607329008E+03   -0.79919E-01   -0.74111E-01  6336   0.666E+00 0.203E-01
CGA:   5    -0.425710841861E+03   -0.10351E+00   -0.10503E+00  6336   0.233E+00-0.131E-01
CGA:   6    -0.425721146854E+03   -0.10305E-01   -0.10473E-01  6336   0.212E+00 0.840E-02
CGA:   7    -0.425728172590E+03   -0.70257E-02   -0.70216E-02  6336   0.430E-01 0.208E-01
CGA:   8    -0.425733844612E+03   -0.56720E-02   -0.58623E-02  6336   0.135E+00-0.316E-02
CGA:   9    -0.425737113166E+03   -0.32686E-02   -0.30750E-02  6336   0.140E-01-0.579E-02
CGA:  10    -0.425737639166E+03   -0.52600E-03   -0.47911E-03  6336   0.192E-01-0.174E-02
CGA:  11    -0.425739044415E+03   -0.14052E-02   -0.14426E-02  6336   0.276E-01-0.160E-02
CGA:  12    -0.425739554091E+03   -0.50968E-03   -0.58545E-03  6336   0.986E-02 0.187E-02
CGA:  13    -0.425739724802E+03   -0.17071E-03   -0.22174E-03  6336   0.290E-02 0.161E-02
CGA:  14    -0.425739822910E+03   -0.98108E-04   -0.10276E-03  6336   0.367E-02 0.147E-03
CGA:  15    -0.425740153954E+03   -0.33104E-03   -0.64634E-03  6336   0.260E-01-0.287E-02
CGA:  16    -0.425740649301E+03   -0.49535E-03   -0.49578E-03  6336   0.201E-02 0.199E-03
CGA:  17    -0.425740758267E+03   -0.10897E-03   -0.10659E-03  6336   0.153E-02-0.281E-03
CGA:  18    -0.425740799159E+03   -0.40893E-04   -0.55980E-04  6336   0.801E-03 0.834E-03
CGA:  19    -0.425740828685E+03   -0.29525E-04   -0.32590E-04  6336   0.388E-03 0.166E-03
CGA:  20    -0.425740903695E+03   -0.75010E-04    0.37697E-04  6336   0.402E-03 0.293E-03
CGA:  21    -0.425740931234E+03   -0.27539E-04   -0.29873E-04  6336   0.105E-02-0.151E-03
CGA:  22    -0.425740969660E+03   -0.38426E-04   -0.38392E-04  6336   0.179E-02-0.319E-04
CGA:  23    -0.425741019505E+03   -0.49845E-04   -0.60837E-04  6336   0.120E-02 0.448E-03
CGA:  24    -0.425741053179E+03   -0.33674E-04   -0.39547E-04  6336   0.376E-03 0.191E-03
CGA:  25    -0.425741145489E+03   -0.92311E-04    0.14201E-04  6336   0.393E-03 0.108E-03
CGA:  26    -0.425741239829E+03   -0.94340E-04    0.22259E-04  6336   0.908E-03-0.267E-03
CGA:  27    -0.425741234773E+03    0.50561E-05   -0.12289E-04  6336   0.257E-03 0.401E-03
  27 F= -.42574123E+03 E0= -.42573193E+03  d E =-.246419E-03  mag=    10.0000
       N       E                     dE             d eps       ncg     rms          ort
SDA:   1    -0.424635737781E+03    0.11055E+01    0.00000E+00  6336   0.276E+01 0.000E+00
CGA:   2    -0.425466787593E+03   -0.83105E+00   -0.19414E-01  6336   0.178E+01-0.270E+00
CGA:   3    -0.425597245627E+03   -0.13046E+00   -0.11981E+00  6336   0.139E+01-0.412E-01
CGA:   4    -0.425651767868E+03   -0.54522E-01   -0.44779E-01  6336   0.581E+00 0.270E+00
CGA:   5    -0.425694976238E+03   -0.43208E-01   -0.44840E-01  6336   0.615E+00-0.120E-01
CGA:   6    -0.425722318291E+03   -0.27342E-01   -0.27931E-01  6336   0.212E+00-0.162E-01
CGA:   7    -0.425727229101E+03   -0.49108E-02   -0.46840E-02  6336   0.648E-01 0.216E-01
CGA:   8    -0.425730628353E+03   -0.33993E-02   -0.36103E-02  6336   0.893E-01 0.924E-02
CGA:   9    -0.425734550058E+03   -0.39217E-02   -0.40442E-02  6336   0.575E-01 0.875E-02
CGA:  10    -0.425736978688E+03   -0.24286E-02   -0.23593E-02  6336   0.351E-01-0.521E-02
CGA:  11    -0.425738786613E+03   -0.18079E-02   -0.16878E-02  6336   0.238E-01-0.615E-02
CGA:  12    -0.425739239908E+03   -0.45329E-03   -0.46475E-03  6336   0.865E-02 0.366E-03
CGA:  13    -0.425739465935E+03   -0.22603E-03   -0.30562E-03  6336   0.938E-02 0.217E-02
CGA:  14    -0.425739941323E+03   -0.47539E-03   -0.54797E-03  6336   0.868E-02 0.288E-02
CGA:  15    -0.425740383062E+03   -0.44174E-03   -0.44367E-03  6336   0.328E-02-0.112E-05
CGA:  16    -0.425740459301E+03   -0.76239E-04   -0.50367E-03  6336   0.235E-01-0.505E-02
CGA:  17    -0.425740857859E+03   -0.39856E-03   -0.47278E-03  6336   0.298E-02 0.873E-03
CGA:  18    -0.425740879509E+03   -0.21650E-04   -0.80923E-04  6336   0.115E-02 0.136E-02
CGA:  19    -0.425740897372E+03   -0.17863E-04   -0.50993E-04  6336   0.107E-02 0.867E-03
CGA:  20    -0.425740943013E+03   -0.45641E-04   -0.12999E-03  6336   0.113E-01-0.157E-02
CGA:  21    -0.425741090771E+03   -0.14776E-03   -0.19274E-03  6336   0.603E-03 0.776E-03
CGA:  22    -0.425741089977E+03    0.79403E-06   -0.14052E-04  6336   0.312E-03 0.332E-03
CGA:  23    -0.425741115130E+03   -0.25154E-04   -0.23906E-04  6336   0.663E-03 0.105E-03
CGA:  24    -0.425741174335E+03   -0.59205E-04   -0.58859E-04  6336   0.337E-03 0.302E-03
CGA:  25    -0.425740340560E+03    0.83377E-03   -0.45001E-03  6336   0.569E-01-0.288E-02
CGA:  26    -0.425741210987E+03   -0.87043E-03   -0.99563E-03  6336   0.151E-02 0.103E-03
CGA:  27    -0.425741217011E+03   -0.60238E-05   -0.40880E-04  6336   0.371E-03 0.426E-03
CGA:  28    -0.425741225532E+03   -0.85208E-05   -0.23486E-04  6336   0.494E-03 0.247E-03
CGA:  29    -0.425741276077E+03   -0.50546E-04   -0.39998E-04  6336   0.183E-02-0.413E-03
CGA:  30    -0.425741301062E+03   -0.24985E-04   -0.36497E-04  6336   0.236E-03 0.117E-03
CGA:  31    -0.425741297319E+03    0.37432E-05   -0.63474E-05  6336   0.136E-03 0.134E-03
CGA:  32    -0.425741318197E+03   -0.20878E-04   -0.27676E-04  6336   0.138E-02-0.650E-04
CGA:  33    -0.425741339080E+03   -0.20883E-04   -0.16194E-04  6336   0.126E-02-0.586E-04
CGA:  34    -0.425741352966E+03   -0.13886E-04   -0.15209E-04  6336   0.253E-03 0.410E-05
CGA:  35    -0.425741350969E+03    0.19970E-05   -0.28712E-05  6336   0.112E-03 0.584E-04
  28 F= -.42574135E+03 E0= -.42573202E+03  d E =-.116196E-03  mag=    10.0000
       N       E                     dE             d eps       ncg     rms          ort
SDA:   1    -0.425587302120E+03    0.15405E+00    0.00000E+00  6336   0.516E+00 0.000E+00
CGA:   2    -0.425615604051E+03   -0.28302E-01   -0.28320E-01  6336   0.981E+00-0.689E-02
CGA:   3    -0.425706738953E+03   -0.91135E-01   -0.91153E-01  6336   0.296E+00 0.161E-03
CGA:   4    -0.425720297547E+03   -0.13559E-01   -0.12789E-01  6336   0.105E+00 0.141E-01
CGA:   5    -0.425735014621E+03   -0.14717E-01   -0.15368E-01  6336   0.112E+00-0.114E-01
CGA:   6    -0.425737466888E+03   -0.24523E-02   -0.25634E-02  6336   0.414E-01 0.238E-02
CGA:   7    -0.425739124045E+03   -0.16572E-02   -0.18363E-02  6336   0.119E-01 0.745E-02
CGA:   8    -0.425739522661E+03   -0.39862E-03   -0.44847E-03  6336   0.103E-01 0.900E-03
CGA:   9    -0.425740487956E+03   -0.96529E-03   -0.95980E-03  6336   0.645E-02 0.663E-03
CGA:  10    -0.425740807981E+03   -0.32003E-03   -0.28169E-03  6336   0.515E-02-0.103E-02
CGA:  11    -0.425741057657E+03   -0.24968E-03   -0.18089E-03  6336   0.227E-02-0.203E-02
CGA:  12    -0.425740974491E+03    0.83167E-04   -0.35968E-03  6336   0.134E-01-0.236E-02
CGA:  13    -0.425741214755E+03   -0.24026E-03   -0.34584E-03  6336   0.112E-02 0.254E-02
CGA:  14    -0.425741213625E+03    0.11304E-05   -0.35867E-04  6336   0.694E-03 0.686E-03
CGA:  15    -0.425741299143E+03   -0.85519E-04   -0.81060E-04  6336   0.965E-03 0.119E-03
CGA:  16    -0.425741345874E+03   -0.46731E-04   -0.58483E-04  6336   0.232E-03 0.406E-03
CGA:  17    -0.425741402925E+03   -0.57052E-04    0.14548E-03  6336   0.456E-03-0.206E-04
CGA:  18    -0.425741482773E+03   -0.79847E-04    0.78088E-04  6336   0.107E-02-0.597E-03
CGA:  19    -0.425741477282E+03    0.54910E-05   -0.19778E-04  6336   0.329E-03 0.421E-03
  29 F= -.42574148E+03 E0= -.42573216E+03  d E =-.126313E-03  mag=    10.0000
[...]
CGA:  11    -0.425709382984E+03   -0.12527E-02   -0.13079E-02  6336   0.375E-02 0.200E-02
CGA:  12    -0.425709662189E+03   -0.27920E-03   -0.26472E-03  6336   0.102E-01-0.889E-03
CGA:  13    -0.425710237432E+03   -0.57524E-03   -0.53353E-03  6336   0.108E-01-0.333E-02
CGA:  14    -0.425710372930E+03   -0.13550E-03   -0.15164E-03  6336   0.750E-02 0.210E-03
CGA:  15    -0.425710467320E+03   -0.94391E-04   -0.19841E-03  6336   0.494E-02 0.222E-02
CGA:  16    -0.425710488884E+03   -0.21564E-04   -0.10792E-03  6336   0.125E-02 0.168E-02
CGA:  17    -0.425710502927E+03   -0.14043E-04   -0.41532E-04  6336   0.144E-02 0.587E-03
CGA:  18    -0.425710612709E+03   -0.10978E-03   -0.11907E-03  6336   0.259E-02 0.690E-03
CGA:  19    -0.425710785991E+03   -0.17328E-03   -0.16401E-03  6336   0.303E-02-0.363E-03
CGA:  20    -0.425710921733E+03   -0.13574E-03   -0.10143E-03  6336   0.143E-02-0.118E-02
CGA:  21    -0.425710959836E+03   -0.38103E-04   -0.16277E-04  6336   0.682E-03-0.458E-03
CGA:  22    -0.425711045508E+03   -0.85672E-04    0.33779E-04  6336   0.202E-02-0.386E-03
CGA:  23    -0.425711079137E+03   -0.33629E-04   -0.45258E-04  6336   0.678E-03 0.265E-03
CGA:  24    -0.425711082664E+03   -0.35277E-05   -0.21994E-04  6336   0.470E-03 0.557E-03
CGA:  25    -0.425711091383E+03   -0.87182E-05   -0.14524E-04  6336   0.371E-03 0.196E-03
CGA:  26    -0.425711129189E+03   -0.37806E-04   -0.35049E-04  6336   0.193E-03 0.352E-03
CGA:  27    -0.425710827118E+03    0.30207E-03   -0.16300E-03  6336   0.261E-01-0.118E-02
CGA:  28    -0.425711211637E+03   -0.38452E-03   -0.43155E-03  6336   0.122E-03 0.527E-03
CGA:  29    -0.425711204736E+03    0.69019E-05   -0.16436E-05  6336   0.817E-04 0.951E-04
  90 F= -.42571120E+03 E0= -.42570236E+03  d E =0.146735E-01  mag=    10.0000
       N       E                     dE             d eps       ncg     rms          ort
SDA:   1    -0.425346408396E+03    0.36480E+00    0.00000E+00  6336   0.121E+01 0.000E+00
CGA:   2    -0.425443821343E+03   -0.97413E-01   -0.97473E-01  6336   0.306E+01-0.138E-01
CGA:   3    -0.425616681485E+03   -0.17286E+00   -0.17029E+00  6336   0.896E+00-0.114E-02
CGA:   4    -0.425657595992E+03   -0.40915E-01   -0.33904E-01  6336   0.222E+00 0.154E+00
CGA:   5    -0.425692464803E+03   -0.34869E-01   -0.34684E-01  6336   0.480E+00 0.506E-02
CGA:   6    -0.425709772388E+03   -0.17308E-01   -0.17512E-01  6336   0.622E-01-0.197E-01
CGA:   7    -0.425712809848E+03   -0.30375E-02   -0.29031E-02  6336   0.608E-01-0.525E-02
CGA:   8    -0.425717186892E+03   -0.43770E-02   -0.43584E-02  6336   0.426E-01-0.236E-02
CGA:   9    -0.425718148397E+03   -0.96151E-03   -0.11236E-02  6336   0.856E-02 0.411E-02
CGA:  10    -0.425718433152E+03   -0.28475E-03   -0.39911E-03  6336   0.587E-02 0.299E-02
CGA:  11    -0.425718821882E+03   -0.38873E-03   -0.42440E-03  6336   0.478E-02 0.138E-02
CGA:  12    -0.425719260373E+03   -0.43849E-03   -0.43135E-03  6336   0.892E-02-0.104E-02
CGA:  13    -0.425719557165E+03   -0.29679E-03   -0.23858E-03  6336   0.365E-02-0.131E-02
CGA:  14    -0.425719628518E+03   -0.71353E-04   -0.65402E-04  6336   0.164E-02-0.927E-04
CGA:  15    -0.425719675923E+03   -0.47405E-04   -0.52043E-04  6336   0.180E-02 0.125E-03
CGA:  16    -0.425719818531E+03   -0.14261E-03   -0.14300E-03  6336   0.525E-02-0.288E-03
CGA:  17    -0.425719983398E+03   -0.16487E-03   -0.13043E-03  6336   0.276E-02-0.803E-03
CGA:  18    -0.425720028344E+03   -0.44946E-04   -0.37824E-04  6336   0.115E-02-0.137E-03
CGA:  19    -0.425720034047E+03   -0.57034E-05   -0.19630E-04  6336   0.925E-03 0.291E-03
CGA:  20    -0.425720026256E+03    0.77911E-05   -0.18045E-04  6336   0.657E-03 0.538E-03
CGA:  21    -0.425720033043E+03   -0.67863E-05   -0.19083E-04  6336   0.392E-03 0.366E-03
CGA:  22    -0.425720086284E+03   -0.53241E-04   -0.52511E-04  6336   0.168E-02 0.848E-05
CGA:  23    -0.425720152942E+03   -0.66658E-04   -0.70759E-04  6336   0.813E-04 0.172E-03
CGA:  24    -0.425720179358E+03   -0.26416E-04    0.21517E-05  6336   0.941E-04 0.481E-04
CGA:  25    -0.425720183904E+03   -0.45458E-05   -0.42023E-05  6336   0.161E-03-0.189E-04
CGA:  26    -0.425720200937E+03   -0.17034E-04   -0.14324E-04  6336   0.194E-03 0.556E-04
CGA:  27    -0.425720210652E+03   -0.97150E-05   -0.83248E-05  6336   0.146E-03-0.438E-04
  91 F= -.42572021E+03 E0= -.42571125E+03  d E =-.900592E-02  mag=    10.0000
       N       E                     dE             d eps       ncg     rms          ort
SDA:   1    -0.424794785420E+03    0.92542E+00    0.00000E+00  6336   0.239E+01 0.000E+00
CGA:   2    -0.425123089884E+03   -0.32830E+00   -0.32900E+00  6336   0.107E+02 0.119E-02
CGA:   3    -0.425580792253E+03   -0.45770E+00   -0.45672E+00  6336   0.593E+00-0.538E-01
CGA:   4    -0.425681368843E+03   -0.10058E+00   -0.10072E+00  6336   0.681E+00-0.182E-02
CGA:   5    -0.425705987107E+03   -0.24618E-01   -0.25448E-01  6336   0.173E+00-0.234E-01
CGA:   6    -0.425711877253E+03   -0.58901E-02   -0.59839E-02  6336   0.104E+00 0.619E-02
CGA:   7    -0.425718475396E+03   -0.65981E-02   -0.66650E-02  6336   0.372E-01 0.125E-01
CGA:   8    -0.425724075270E+03   -0.55999E-02   -0.63866E-02  6336   0.175E-01-0.883E-02
CGA:   9    -0.425724678818E+03   -0.60355E-03   -0.63391E-03  6336   0.172E-01 0.119E-02
CGA:  10    -0.425725383174E+03   -0.70436E-03   -0.79124E-03  6336   0.434E-02 0.352E-02
CGA:  11    -0.425726280805E+03   -0.89763E-03   -0.10013E-02  6336   0.579E-02-0.851E-03
CGA:  12    -0.425726440442E+03   -0.15964E-03   -0.12061E-03  6336   0.204E-02-0.781E-03
CGA:  13    -0.425726745805E+03   -0.30536E-03    0.34058E-03  6336   0.230E-02 0.339E-03
CGA:  14    -0.425726994883E+03   -0.24908E-03   -0.25892E-03  6336   0.574E-02-0.426E-03
CGA:  15    -0.425727085521E+03   -0.90638E-04   -0.10918E-03  6336   0.197E-02 0.360E-03
CGA:  16    -0.425727115505E+03   -0.29984E-04   -0.41914E-04  6336   0.114E-02 0.236E-03
CGA:  17    -0.425727144249E+03   -0.28743E-04   -0.37723E-04  6336   0.855E-03 0.238E-03
CGA:  18    -0.425727157703E+03   -0.13455E-04   -0.24174E-04  6336   0.706E-03 0.245E-03
CGA:  19    -0.425727171146E+03   -0.13443E-04   -0.28818E-04  6336   0.918E-03 0.465E-03
CGA:  20    -0.425727200885E+03   -0.29739E-04   -0.26464E-04  6336   0.498E-03-0.993E-04
CGA:  21    -0.425727275826E+03   -0.74941E-04    0.36448E-04  6336   0.226E-03 0.108E-03
CGA:  22    -0.425727309785E+03   -0.33960E-04    0.10431E-02  6336   0.217E-03 0.137E-03
CGA:  23    -0.425727305911E+03    0.38744E-05   -0.27548E-05  6336   0.113E-03 0.136E-03
  92 F= -.42572731E+03 E0= -.42571849E+03  d E =-.709526E-02  mag=    10.0000
       N       E                     dE             d eps       ncg     rms          ort
SDA:   1    -0.425503536674E+03    0.22377E+00    0.00000E+00  6336   0.576E+00 0.000E+00
CGA:   2    -0.425656254495E+03   -0.15272E+00   -0.15630E+00  6336   0.570E+00-0.104E-01
CGA:   3    -0.425685992435E+03   -0.29738E-01   -0.29009E-01  6336   0.296E+00 0.168E-01
CGA:   4    -0.425700287269E+03   -0.14295E-01   -0.14431E-01  6336   0.234E+00 0.115E-01
CGA:   5    -0.425710815405E+03   -0.10528E-01   -0.10525E-01  6336   0.122E+00-0.243E-03
CGA:   6    -0.425721107823E+03   -0.10292E-01   -0.10510E-01  6336   0.308E-01-0.111E-01
CGA:   7    -0.425721893227E+03   -0.78540E-03   -0.84285E-03  6336   0.166E-01 0.159E-02
CGA:   8    -0.425722716235E+03   -0.82301E-03   -0.88017E-03  6336   0.120E-01 0.442E-02
CGA:   9    -0.425723645727E+03   -0.92949E-03   -0.92977E-03  6336   0.722E-02 0.150E-03
CGA:  10    -0.425723976715E+03   -0.33099E-03   -0.29994E-03  6336   0.717E-02-0.144E-02
CGA:  11    -0.425724285085E+03   -0.30837E-03   -0.29625E-03  6336   0.177E-02-0.116E-02
CGA:  12    -0.425724329713E+03   -0.44629E-04   -0.52709E-04  6336   0.184E-02 0.307E-03
CGA:  13    -0.425724441501E+03   -0.11179E-03   -0.11672E-03  6336   0.627E-03 0.801E-03
CGA:  14    -0.425724473433E+03   -0.31931E-04   -0.37732E-04  6336   0.607E-03 0.321E-03
CGA:  15    -0.425724495578E+03   -0.22145E-04   -0.19878E-04  6336   0.517E-03-0.897E-04
CGA:  16    -0.425724562738E+03   -0.67160E-04    0.39455E-04  6336   0.252E-03 0.258E-03
CGA:  17    -0.425724564078E+03   -0.13408E-05   -0.52757E-05  6336   0.131E-03 0.106E-03
  93 F= -.42572456E+03 E0= -.42571571E+03  d E =0.274183E-02  mag=    10.0000
       N       E                     dE             d eps       ncg     rms          ort
SDA:   1    -0.425682381620E+03    0.42181E-01    0.00000E+00  6336   0.235E+00 0.000E+00
CGA:   2    -0.425688974753E+03   -0.65931E-02   -0.65046E-02  6336   0.142E+00-0.530E-02
CGA:   3    -0.425714005818E+03   -0.25031E-01   -0.26033E-01  6336   0.121E+00-0.731E-02
CGA:   4    -0.425718197593E+03   -0.41918E-02   -0.42522E-02  6336   0.229E-01 0.104E-01
CGA:   5    -0.425720294214E+03   -0.20966E-02   -0.19774E-02  6336   0.264E-01 0.568E-02
CGA:   6    -0.425722008947E+03   -0.17147E-02   -0.16925E-02  6336   0.153E-01-0.288E-02
CGA:   7    -0.425722619685E+03   -0.61074E-03   -0.56669E-03  6336   0.822E-02-0.250E-02
CGA:   8    -0.425723004039E+03   -0.38435E-03   -0.37915E-03  6336   0.341E-02-0.173E-02
CGA:   9    -0.425723274579E+03   -0.27054E-03   -0.28046E-03  6336   0.465E-02-0.221E-03
CGA:  10    -0.425723385699E+03   -0.11112E-03   -0.11729E-03  6336   0.665E-03 0.163E-03
CGA:  11    -0.425723389801E+03   -0.41019E-05   -0.19239E-04  6336   0.391E-03 0.495E-03
CGA:  12    -0.425723410027E+03   -0.20226E-04   -0.21045E-04  6336   0.350E-03 0.258E-03
CGA:  13    -0.425723431858E+03   -0.21831E-04   -0.22422E-04  6336   0.982E-03-0.846E-04
CGA:  14    -0.425723470927E+03   -0.39069E-04   -0.39951E-04  6336   0.803E-03 0.244E-03
CGA:  15    -0.425723477685E+03   -0.67572E-05   -0.15363E-04  6336   0.614E-04 0.202E-03
  94 F= -.42572348E+03 E0= -.42571458E+03  d E =0.108639E-02  mag=    10.0000
       N       E                     dE             d eps       ncg     rms          ort
SDA:   1    -0.425713938212E+03    0.95327E-02    0.00000E+00  6336   0.323E-01 0.000E+00
CGA:   2    -0.425715351724E+03   -0.14135E-02   -0.14185E-02  6336   0.465E-01 0.481E-03
CGA:   3    -0.425721312788E+03   -0.59611E-02   -0.60188E-02  6336   0.118E-01-0.798E-03
CGA:   4    -0.425721753275E+03   -0.44049E-03   -0.47331E-03  6336   0.464E-02 0.231E-02
CGA:   5    -0.425722613975E+03   -0.86070E-03   -0.96417E-03  6336   0.452E-02-0.874E-03
CGA:   6    -0.425722720131E+03   -0.10616E-03   -0.91226E-04  6336   0.128E-02-0.422E-03
CGA:   7    -0.425722803148E+03   -0.83017E-04   -0.93177E-04  6336   0.237E-02-0.481E-03
CGA:   8    -0.425722834709E+03   -0.31561E-04   -0.44916E-04  6336   0.169E-02 0.444E-03
CGA:   9    -0.425722856551E+03   -0.21842E-04   -0.40083E-04  6336   0.370E-03 0.485E-03
CGA:  10    -0.425722878507E+03   -0.21956E-04   -0.20237E-04  6336   0.403E-03-0.114E-03
CGA:  11    -0.425722942001E+03   -0.63494E-04    0.77689E-05  6336   0.653E-03-0.211E-03
CGA:  12    -0.425722959490E+03   -0.17489E-04   -0.20616E-04  6336   0.111E-03 0.129E-03
CGA:  13    -0.425722956354E+03    0.31362E-05   -0.14990E-05  6336   0.775E-04 0.106E-03
  95 F= -.42572296E+03 E0= -.42571406E+03  d E =0.521331E-03  mag=    10.0000
       N       E                     dE             d eps       ncg     rms          ort
SDA:   1    -0.425632954589E+03    0.90005E-01    0.00000E+00  6336   0.217E+00 0.000E+00
CGA:   2    -0.425692877866E+03   -0.59923E-01   -0.70651E-03  6336   0.395E+00-0.353E-01
CGA:   3    -0.425701495136E+03   -0.86173E-02   -0.86708E-02  6336   0.176E+00 0.961E-02
CGA:   4    -0.425710757955E+03   -0.92628E-02   -0.88865E-02  6336   0.681E-01 0.181E-01
CGA:   5    -0.425713318376E+03   -0.25604E-02   -0.27252E-02  6336   0.674E-01 0.149E-02
CGA:   6    -0.425717479876E+03   -0.41615E-02   -0.41690E-02  6336   0.312E-01 0.381E-03
CGA:   7    -0.425718779276E+03   -0.12994E-02   -0.11024E-02  6336   0.150E-01-0.431E-02
CGA:   8    -0.425719378470E+03   -0.59919E-03   -0.45594E-03  6336   0.883E-02-0.323E-02
CGA:   9    -0.425720059319E+03   -0.68085E-03   -0.68142E-03  6336   0.588E-02-0.120E-04
CGA:  10    -0.425720180596E+03   -0.12128E-03   -0.16202E-03  6336   0.276E-02 0.794E-03
CGA:  11    -0.425720269584E+03   -0.88988E-04   -0.11978E-03  6336   0.905E-03 0.836E-03
CGA:  12    -0.425720308270E+03   -0.38686E-04   -0.49529E-04  6336   0.122E-02 0.322E-03
CGA:  13    -0.425720392005E+03   -0.83734E-04   -0.92181E-04  6336   0.478E-03 0.474E-03
CGA:  14    -0.425718377559E+03    0.20144E-02   -0.10915E-02  6336   0.937E-01-0.587E-02
CGA:  15    -0.425719983529E+03   -0.16060E-02   -0.18863E-02  6336   0.985E-02-0.628E-02
CGA:  16    -0.425720155713E+03   -0.17218E-03   -0.32607E-03  6336   0.185E-02 0.203E-02
CGA:  17    -0.425720249605E+03   -0.93892E-04   -0.13393E-03  6336   0.930E-03 0.683E-03
CGA:  18    -0.425720475930E+03   -0.22633E-03   -0.27364E-03  6336   0.214E-02-0.496E-03
CGA:  19    -0.425720511652E+03   -0.35722E-04   -0.43420E-04  6336   0.301E-03 0.638E-04
CGA:  20    -0.425720546805E+03   -0.35153E-04   -0.29458E-04  6336   0.670E-03-0.236E-03
CGA:  21    -0.425720579186E+03   -0.32381E-04   -0.24410E-04  6336   0.152E-03-0.103E-03
CGA:  22    -0.425720577312E+03    0.18748E-05   -0.26039E-05  6336   0.544E-04 0.476E-04
  96 F= -.42572058E+03 E0= -.42571171E+03  d E =0.237904E-02  mag=    10.0000
       N       E                     dE             d eps       ncg     rms          ort
SDA:   1    -0.425689885147E+03    0.30694E-01    0.00000E+00  6336   0.131E+00 0.000E+00
CGA:   2    -0.425695512316E+03   -0.56272E-02   -0.54159E-02  6336   0.147E+00-0.444E-02
CGA:   3    -0.425709659105E+03   -0.14147E-01   -0.14143E-01  6336   0.191E+00-0.402E-02
CGA:   4    -0.425718002182E+03   -0.83431E-02   -0.81074E-02  6336   0.144E-01 0.115E-01
CGA:   5    -0.425719414367E+03   -0.14122E-02   -0.14221E-02  6336   0.230E-01 0.203E-02
CGA:   6    -0.425720796364E+03   -0.13820E-02   -0.13268E-02  6336   0.922E-02-0.120E-02
CGA:   7    -0.425721059361E+03   -0.26300E-03   -0.23609E-03  6336   0.182E-02-0.382E-03
CGA:   8    -0.425721343292E+03   -0.28393E-03   -0.27111E-03  6336   0.932E-03 0.201E-03
CGA:   9    -0.425721378437E+03   -0.35146E-04   -0.36251E-04  6336   0.552E-03 0.158E-04
CGA:  10    -0.425721413424E+03   -0.34987E-04   -0.35090E-04  6336   0.439E-03 0.339E-05
CGA:  11    -0.425721417592E+03   -0.41678E-05   -0.15647E-04  6336   0.105E-03 0.208E-03
  97 F= -.42572142E+03 E0= -.42571254E+03  d E =-.840281E-03  mag=    10.0000
       N       E                     dE             d eps       ncg     rms          ort
SDA:   1    -0.425375576213E+03    0.34584E+00    0.00000E+00  6336   0.120E+01 0.000E+00
CGA:   2    -0.425437832430E+03   -0.62256E-01   -0.63813E-01  6336   0.211E+01-0.302E-02
CGA:   3    -0.425622324258E+03   -0.18449E+00   -0.18449E+00  6336   0.166E+01 0.308E-02
CGA:   4    -0.425678027209E+03   -0.55703E-01   -0.67619E-01  6336   0.321E+00-0.178E+00
CGA:   5    -0.425691760908E+03   -0.13734E-01   -0.13909E-01  6336   0.404E+00 0.220E-02
CGA:   6    -0.425713220176E+03   -0.21459E-01   -0.21540E-01  6336   0.134E+00 0.583E-02
CGA:   7    -0.425720418177E+03   -0.71980E-02   -0.72766E-02  6336   0.314E-01-0.601E-02
CGA:   8    -0.425722277703E+03   -0.18595E-02   -0.19146E-02  6336   0.257E-01 0.397E-02
CGA:   9    -0.425723388913E+03   -0.11112E-02   -0.11477E-02  6336   0.180E-01 0.585E-03
CGA:  10    -0.425724772268E+03   -0.13834E-02   -0.13822E-02  6336   0.616E-02-0.122E-02
CGA:  11    -0.425724987382E+03   -0.21511E-03   -0.24737E-03  6336   0.209E-02 0.101E-02
CGA:  12    -0.425725107330E+03   -0.11995E-03   -0.13057E-03  6336   0.273E-02 0.510E-03
CGA:  13    -0.425725491457E+03   -0.38413E-03   -0.46650E-03  6336   0.318E-02-0.129E-02
CGA:  14    -0.425725511022E+03   -0.19565E-04   -0.24262E-04  6336   0.104E-02 0.676E-04
CGA:  15    -0.425725516849E+03   -0.58273E-05   -0.15784E-04  6336   0.668E-03 0.165E-03
CGA:  16    -0.425725529594E+03   -0.12745E-04   -0.23739E-04  6336   0.123E-02 0.278E-03
CGA:  17    -0.425725597529E+03   -0.67936E-04   -0.74787E-04  6336   0.144E-02 0.269E-03
CGA:  18    -0.425725700389E+03   -0.10286E-03   -0.90887E-04  6336   0.183E-02-0.792E-03
CGA:  19    -0.425725729777E+03   -0.29389E-04   -0.33269E-04  6336   0.191E-03 0.741E-04
CGA:  20    -0.425725759639E+03   -0.29861E-04   -0.30500E-04  6336   0.486E-03-0.674E-05
CGA:  21    -0.425725766051E+03   -0.64125E-05   -0.13307E-04  6336   0.203E-03 0.172E-03
  98 F= -.42572577E+03 E0= -.42571689E+03  d E =-.434846E-02  mag=    10.0000
       N       E                     dE             d eps       ncg     rms          ort
SDA:   1    -0.425637410171E+03    0.88349E-01    0.00000E+00  6336   0.243E+00 0.000E+00
CGA:   2    -0.425693905655E+03   -0.56495E-01   -0.55254E-01  6336   0.282E+00 0.686E-02
CGA:   3    -0.425705197400E+03   -0.11292E-01   -0.11370E-01  6336   0.206E+00-0.636E-02
CGA:   4    -0.425716101609E+03   -0.10904E-01   -0.10838E-01  6336   0.110E+00-0.608E-02
CGA:   5    -0.425722952950E+03   -0.68513E-02   -0.68213E-02  6336   0.550E-01-0.712E-02
CGA:   6    -0.425725264246E+03   -0.23113E-02   -0.24487E-02  6336   0.171E-01 0.727E-02
CGA:   7    -0.425725737187E+03   -0.47294E-03   -0.56932E-03  6336   0.627E-02 0.232E-02
CGA:   8    -0.425726624106E+03   -0.88692E-03   -0.80784E-03  6336   0.347E-02 0.168E-02
CGA:   9    -0.425726939117E+03   -0.31501E-03   -0.42272E-03  6336   0.157E-01-0.393E-02
CGA:  10    -0.425727151085E+03   -0.21197E-03   -0.27681E-03  6336   0.115E-02 0.112E-02
CGA:  11    -0.425727150318E+03    0.76700E-06   -0.27678E-04  6336   0.558E-03 0.641E-03
CGA:  12    -0.425727173074E+03   -0.22756E-04   -0.27065E-04  6336   0.594E-03 0.255E-03
CGA:  13    -0.425727210028E+03   -0.36954E-04   -0.43300E-04  6336   0.251E-03 0.439E-03
CGA:  14    -0.425727261798E+03   -0.51770E-04    0.12960E-04  6336   0.419E-03 0.639E-04
CGA:  15    -0.425727332259E+03   -0.70461E-04    0.32067E-03  6336   0.317E-03 0.153E-03
CGA:  16    -0.425727341865E+03   -0.96056E-05   -0.16640E-04  6336   0.128E-03 0.278E-03
  99 F= -.42572734E+03 E0= -.42571845E+03  d E =-.157581E-02  mag=    10.0000
       N       E                     dE             d eps       ncg     rms          ort
SDA:   1    -0.425597383167E+03    0.12995E+00    0.00000E+00  6336   0.361E+00 0.000E+00
CGA:   2    -0.425641176294E+03   -0.43793E-01   -0.43549E-01  6336   0.114E+01 0.343E-02
CGA:   3    -0.425692195849E+03   -0.51020E-01   -0.50640E-01  6336   0.346E+00-0.497E-02
CGA:   4    -0.425708258568E+03   -0.16063E-01   -0.16185E-01  6336   0.126E+00-0.418E-03
CGA:   5    -0.425716269051E+03   -0.80105E-02   -0.79871E-02  6336   0.626E-01 0.148E-01
CGA:   6    -0.425719912226E+03   -0.36432E-02   -0.36512E-02  6336   0.716E-01 0.309E-03
CGA:   7    -0.425723948140E+03   -0.40359E-02   -0.39976E-02  6336   0.114E-01-0.688E-02
CGA:   8    -0.425724504771E+03   -0.55663E-03   -0.53848E-03  6336   0.115E-01-0.214E-02
CGA:   9    -0.425724980639E+03   -0.47587E-03   -0.48702E-03  6336   0.659E-02 0.134E-02
CGA:  10    -0.425725207021E+03   -0.22638E-03   -0.26254E-03  6336   0.119E-02 0.158E-02
CGA:  11    -0.425725391604E+03   -0.18458E-03    0.69093E-03  6336   0.115E-02 0.642E-03
CGA:  12    -0.425725443023E+03   -0.51419E-04   -0.45743E-04  6336   0.132E-02-0.305E-03
CGA:  13    -0.425725555719E+03   -0.11270E-03    0.90165E-02  6336   0.106E-02 0.329E-03
CGA:  14    -0.425725588145E+03   -0.32426E-04   -0.41185E-04  6336   0.525E-03 0.327E-03
CGA:  15    -0.425725590183E+03   -0.20390E-05   -0.13551E-04  6336   0.151E-03 0.315E-03
CGA:  16    -0.425725588319E+03    0.18640E-05   -0.23148E-04  6336   0.266E-02-0.257E-03
CGA:  17    -0.425725633849E+03   -0.45529E-04   -0.46680E-04  6336   0.105E-03-0.182E-06
CGA:  18    -0.425725632414E+03    0.14351E-05   -0.17791E-05  6336   0.710E-04 0.797E-04
 100 F= -.42572563E+03 E0= -.42571676E+03  d E =0.170945E-02  mag=    10.0000
