       N       E                     dE             d eps       ncg     rms          rms(c)
DAV:   1     0.252022804346E+04    0.25202E+04   -0.13465E+05 35792   0.160E+03
DAV:   2    -0.205167985269E+03   -0.27254E+04   -0.25235E+04 36280   0.448E+02
DAV:   3    -0.482584649191E+03   -0.27742E+03   -0.27107E+03 36776   0.156E+02
DAV:   4    -0.490931527074E+03   -0.83469E+01   -0.81872E+01 38312   0.270E+01
DAV:   5    -0.491253736059E+03   -0.32221E+00   -0.31918E+00 44368   0.453E+00    0.803E+00
DAV:   6    -0.413103838179E+03    0.78150E+02   -0.22586E+01 37168   0.144E+01    0.986E+00
DAV:   7    -0.413037454684E+03    0.66383E-01   -0.61787E-01 40096   0.263E+00    0.420E+00
DAV:   8    -0.412943644114E+03    0.93811E-01   -0.10859E-01 37744   0.896E-01    0.293E+00
DAV:   9    -0.412913330571E+03    0.30314E-01   -0.22751E-02 38616   0.434E-01    0.225E+00
DAV:  10    -0.412890227141E+03    0.23103E-01   -0.24315E-02 37424   0.453E-01    0.150E+00
DAV:  11    -0.412882866182E+03    0.73610E-02   -0.51934E-03 38624   0.206E-01    0.119E+00
DAV:  12    -0.412881262175E+03    0.16040E-02   -0.29739E-04 40488   0.518E-02    0.112E+00
DAV:  13    -0.412879437282E+03    0.18249E-02   -0.55754E-04 37416   0.713E-02    0.100E+00
DAV:  14    -0.412874279796E+03    0.51575E-02   -0.96397E-03 37216   0.293E-01    0.524E-01
DAV:  15    -0.412874021282E+03    0.25851E-03   -0.24881E-04 40824   0.469E-02    0.503E-01
DAV:  16    -0.412873087957E+03    0.93333E-03   -0.17194E-03 37240   0.125E-01    0.304E-01
DAV:  17    -0.412872795281E+03    0.29268E-03   -0.12929E-03 37832   0.105E-01    0.138E-01
DAV:  18    -0.412872836945E+03   -0.41664E-04   -0.33989E-04 38200   0.538E-02    0.528E-02
DAV:  19    -0.412872868856E+03   -0.31911E-04   -0.39498E-05 30136   0.179E-02    0.260E-02
DAV:  20    -0.412872875581E+03   -0.67248E-05   -0.29890E-06 19320   0.537E-03
   1 F= -.41287288E+03 E0= -.41287288E+03  d E =-.412873E+03  mag=    18.0000
