unknown system                          
           1
     0.000000    0.000003    6.302467
     5.199985    6.460974    3.151213
    -5.199985    6.460974    3.151213
   Cr   P    O 
     6     6    24
Direct configuration=     1
   1.00000000  0.50000614  0.49999386
   0.50000000  0.00000450  0.99999550
   0.88381135  0.61575518  0.11614393
   0.11618865  0.88385606  0.38424482
   0.88383243  0.11615233  0.61574958
   0.11616757  0.38425042  0.88384768
   0.16776163  0.24995336  0.24990937
   0.83223837  0.75009063  0.75004665
   0.67669437  0.82335300  0.32344682
   0.32330562  0.67655318  0.17664700
   0.67667939  0.32342812  0.82337075
   0.32332061  0.17662925  0.67657188
   0.02346596  0.37276496  0.12704447
   0.97653404  0.87295553  0.62723504
   0.97644896  0.62724355  0.87294061
   0.02355104  0.12705939  0.37275645
   0.79402907  0.62919591  0.35212106
   0.20597093  0.64787894  0.37080409
   0.72451944  0.12932005  0.85187926
   0.27548056  0.14812074  0.87067995
   0.20602204  0.37076185  0.64789214
   0.79397796  0.35210787  0.62923815
   0.27546034  0.87063736  0.14813630
   0.72453966  0.85186370  0.12936264
   0.80874740  0.91161851  0.36013653
   0.19125261  0.63986347  0.08838149
   0.41969801  0.41187487  0.86019948
   0.58030199  0.13980052  0.58812513
   0.19122482  0.08837806  0.63990485
   0.80877518  0.36009515  0.91162193
   0.58029105  0.58811836  0.13984226
   0.41970895  0.86015774  0.41188164
   0.19313710  0.34944901  0.34937409
   0.80686290  0.65062591  0.65055100
   0.60768099  0.84947816  0.84940178
   0.39231901  0.15059822  0.15052184
