       N       E                     dE             d eps       ncg     rms          ort
DAV:   1     0.254804228108E+04    0.25480E+04   -0.15762E+05 10710   0.165E+03
DAV:   2    -0.172164159702E+03   -0.27202E+04   -0.25530E+04 10710   0.444E+02
DAV:   3    -0.434347841518E+03   -0.26218E+03   -0.25693E+03 10710   0.156E+02
DAV:   4    -0.443166037097E+03   -0.88182E+01   -0.86584E+01 10710   0.293E+01
DAV:   5    -0.443572501057E+03   -0.40646E+00   -0.40441E+00 10710   0.505E+00
SDA:   6    -0.235841158427E+03    0.20773E+03   -0.40441E+00 10710   0.750E+03 0.000E+00
CGA:   7    -0.276439927470E+03   -0.40599E+02   -0.46604E+02 10710   0.839E+03 0.219E+02
CGA:   8    -0.304758387436E+03   -0.28318E+02   -0.46621E+02 10710   0.916E+03-0.205E+03
CGA:   9    -0.271968336862E+03    0.32790E+02   -0.28788E+02 10710   0.452E+03-0.486E+03
CGA:  10    -0.297186893186E+03   -0.25219E+02   -0.21963E+02 10710   0.417E+03-0.789E+02
CGA:  11    -0.314791285509E+03   -0.17604E+02   -0.13863E+02 10710   0.196E+03-0.434E+02
CGA:  12    -0.326577762383E+03   -0.11786E+02   -0.52468E+01 10710   0.106E+03 0.211E+03
CGA:  13    -0.326185028425E+03    0.39273E+00   -0.66377E+01 10710   0.439E+03-0.101E+02
CGA:  14    -0.304334782875E+03    0.21850E+02   -0.20500E+02 10710   0.385E+03-0.376E+02
CGA:  15    -0.328955493516E+03   -0.24621E+02   -0.12876E+02 10710   0.513E+02-0.442E+02
CGA:  16    -0.330346911452E+03   -0.13914E+01   -0.86090E+00 10710   0.187E+02 0.234E+02
CGA:  17    -0.331091080191E+03   -0.74417E+00   -0.49040E+00 10710   0.104E+02 0.149E+02
CGA:  18    -0.333257989278E+03   -0.21669E+01   -0.23168E+01 10710   0.122E+02-0.172E+01
CGA:  19    -0.333475222618E+03   -0.21723E+00   -0.12466E+00 10710   0.695E+01 0.759E+01
CGA:  20    -0.333749116651E+03   -0.27389E+00   -0.27568E+00 10710   0.195E+01 0.194E+00
CGA:  21    -0.334183403806E+03   -0.43429E+00   -0.62215E+00 10710   0.143E+02-0.152E+01
CGA:  22    -0.334397742852E+03   -0.21434E+00   -0.30948E+00 10710   0.595E+01-0.570E+01
CGA:  23    -0.334621565863E+03   -0.22382E+00   -0.27372E+00 10710   0.494E+01-0.199E+00
CGA:  24    -0.334772056506E+03   -0.15049E+00   -0.15690E+00 10710   0.110E+01-0.207E+00
CGA:  25    -0.334839107813E+03   -0.67051E-01   -0.58016E-01 10710   0.109E+01 0.891E-01
CGA:  26    -0.334970419240E+03   -0.13131E+00   -0.79997E-01 10710   0.671E+00 0.706E+00
CGA:  27    -0.334988863832E+03   -0.18445E-01   -0.22376E-01 10710   0.719E+00-0.129E+00
CGA:  28    -0.334973636114E+03    0.15228E-01   -0.32138E-01 10710   0.691E+01-0.994E+00
CGA:  29    -0.335509196095E+03   -0.53556E+00   -0.42044E+00 10710   0.166E+01 0.135E+01
CGA:  30    -0.335705186367E+03   -0.19599E+00   -0.18939E+00 10710   0.695E+00-0.473E-01
CGA:  31    -0.335872636083E+03   -0.16745E+00   -0.15401E+00 10710   0.626E+00 0.258E+00
CGA:  32    -0.335012031334E+03    0.86060E+00   -0.63891E+00 10710   0.977E+01-0.200E+01
CGA:  33    -0.336294937482E+03   -0.12829E+01   -0.12661E+01 10710   0.577E+00-0.854E-01
CGA:  34    -0.336448586507E+03   -0.15365E+00   -0.15266E+00 10710   0.163E+00 0.248E-01
CGA:  35    -0.336493572658E+03   -0.44986E-01   -0.44255E-01 10710   0.716E-01 0.170E-01
CGA:  36    -0.336509899824E+03   -0.16327E-01   -0.16463E-01 10710   0.215E-01 0.115E-01
CGA:  37    -0.336515724459E+03   -0.58246E-02   -0.57244E-02 10710   0.700E-02 0.111E-01
CGA:  38    -0.336517629186E+03   -0.19047E-02   -0.17642E-02 10710   0.471E-02 0.450E-02
CGA:  39    -0.336518556772E+03   -0.92759E-03   -0.97537E-03 10710   0.377E-02 0.317E-02
CGA:  40    -0.336519225905E+03   -0.66913E-03   -0.73547E-03 10710   0.308E-02 0.255E-02
CGA:  41    -0.336519594300E+03   -0.36840E-03   -0.50004E-03 10710   0.245E-02 0.229E-02
CGA:  42    -0.336519978803E+03   -0.38450E-03   -0.45148E-03 10710   0.206E-02 0.204E-02
CGA:  43    -0.336520164959E+03   -0.18616E-03   -0.30630E-03 10710   0.175E-02 0.181E-02
CGA:  44    -0.336520356882E+03   -0.19192E-03   -0.27785E-03 10710   0.152E-02 0.161E-02
CGA:  45    -0.336520462369E+03   -0.10549E-03   -0.20846E-03 10710   0.135E-02 0.142E-02
CGA:  46    -0.336520553707E+03   -0.91338E-04   -0.18191E-03 10710   0.121E-02 0.127E-02
CGA:  47    -0.336520611671E+03   -0.57964E-04   -0.14856E-03 10710   0.109E-02 0.114E-02
CGA:  48    -0.336520654377E+03   -0.42706E-04   -0.12724E-03 10710   0.988E-03 0.104E-02
CGA:  49    -0.336520681639E+03   -0.27262E-04   -0.10780E-03 10710   0.903E-03 0.945E-03
CGA:  50    -0.336520698860E+03   -0.17221E-04   -0.92815E-04 10710   0.830E-03 0.866E-03
CGA:  51    -0.336520707958E+03   -0.90984E-05   -0.80166E-04 10710   0.766E-03 0.797E-03
CGA:  52    -0.336520711172E+03   -0.32134E-05   -0.69800E-04 10710   0.711E-03 0.738E-03
CGA:  53    -0.336520709909E+03    0.12628E-05   -0.61105E-04 10710   0.663E-03 0.687E-03
CGA:  54    -0.336520705338E+03    0.45710E-05   -0.53806E-04 10710   0.620E-03 0.641E-03
CGA:  55    -0.336520698320E+03    0.70182E-05   -0.47625E-04 10710   0.583E-03 0.601E-03
CGA:  56    -0.336520689522E+03    0.87976E-05   -0.42362E-04 10710   0.549E-03 0.566E-03
CGA:  57    -0.336520679453E+03    0.10069E-04   -0.37851E-04 10710   0.520E-03 0.534E-03
CGA:  58    -0.336520668503E+03    0.10950E-04   -0.33962E-04 10710   0.493E-03 0.506E-03
CGA:  59    -0.336520656971E+03    0.11531E-04   -0.30592E-04 10710   0.469E-03 0.481E-03
CGA:  60    -0.336520645090E+03    0.11881E-04   -0.27656E-04 10710   0.447E-03 0.458E-03
CGA:  61    -0.336520633036E+03    0.12054E-04   -0.25086E-04 10710   0.428E-03 0.437E-03
CGA:  62    -0.336520620945E+03    0.12091E-04   -0.22826E-04 10710   0.410E-03 0.419E-03
CGA:  63    -0.336520608921E+03    0.12025E-04   -0.20831E-04 10710   0.394E-03 0.402E-03
CGA:  64    -0.336520597042E+03    0.11879E-04   -0.19062E-04 10710   0.379E-03 0.386E-03
CGA:  65    -0.336520585367E+03    0.11674E-04   -0.17488E-04 10710   0.365E-03 0.372E-03
CGA:  66    -0.336520573942E+03    0.11426E-04   -0.16082E-04 10710   0.353E-03 0.359E-03
CGA:  67    -0.336520562796E+03    0.11146E-04   -0.14822E-04 10710   0.342E-03 0.347E-03
CGA:  68    -0.336520551954E+03    0.10842E-04   -0.13690E-04 10710   0.331E-03 0.336E-03
CGA:  69    -0.336520541429E+03    0.10525E-04   -0.12669E-04 10710   0.321E-03 0.326E-03
CGA:  70    -0.336520531228E+03    0.10200E-04   -0.11746E-04 10710   0.312E-03 0.317E-03
CGA:  71    -0.336520521358E+03    0.98705E-05   -0.10909E-04 10710   0.304E-03 0.308E-03
CGA:  72    -0.336520511820E+03    0.95374E-05   -0.10149E-04 10710   0.296E-03 0.300E-03
   1 F= -.33652051E+03 E0= -.33652051E+03  d E =-.336521E+03  mag=     6.0000
       N       E                     dE             d eps       ncg     rms          ort
SDA:   1    -0.336256535765E+03    0.26399E+00    0.00000E+00 10710   0.101E+01 0.000E+00
CGA:   2    -0.336402133923E+03   -0.14560E+00   -0.14530E+00 10710   0.363E+00 0.517E-02
CGA:   3    -0.336477648387E+03   -0.75514E-01   -0.75540E-01 10710   0.212E+00-0.410E-03
CGA:   4    -0.336510611983E+03   -0.32964E-01   -0.32970E-01 10710   0.501E-01-0.199E-03
CGA:   5    -0.336517599264E+03   -0.69873E-02   -0.69693E-02 10710   0.108E-01 0.485E-03
CGA:   6    -0.336519619203E+03   -0.20199E-02   -0.20159E-02 10710   0.324E-02 0.458E-04
CGA:   7    -0.336520246791E+03   -0.62759E-03   -0.61222E-03 10710   0.901E-03 0.192E-03
CGA:   8    -0.336520386336E+03   -0.13954E-03   -0.13088E-03 10710   0.270E-03 0.361E-03
CGA:   9    -0.336520419967E+03   -0.33631E-04   -0.37173E-04 10710   0.136E-03 0.220E-03
CGA:  10    -0.336520431822E+03   -0.11855E-04   -0.13427E-04 10710   0.890E-04 0.105E-03
CGA:  11    -0.336520435087E+03   -0.32653E-05   -0.64653E-05 10710   0.737E-04 0.798E-04
   2 F= -.33652044E+03 E0= -.33652044E+03  d E =0.767332E-04  mag=     6.0000
       N       E                     dE             d eps       ncg     rms          ort
SDA:   1    -0.336431282953E+03    0.89149E-01    0.00000E+00 10710   0.342E+00 0.000E+00
CGA:   2    -0.336480778235E+03   -0.49495E-01   -0.49443E-01 10710   0.123E+00 0.128E-02
CGA:   3    -0.336506377090E+03   -0.25599E-01   -0.25551E-01 10710   0.714E-01 0.440E-03
CGA:   4    -0.336517485246E+03   -0.11108E-01   -0.11088E-01 10710   0.166E-01 0.484E-03
CGA:   5    -0.336519750067E+03   -0.22648E-02   -0.22530E-02 10710   0.341E-02 0.642E-03
CGA:   6    -0.336520345829E+03   -0.59576E-03   -0.57354E-03 10710   0.887E-03 0.502E-03
CGA:   7    -0.336520510105E+03   -0.16428E-03   -0.15441E-03 10710   0.260E-03 0.311E-03
CGA:   8    -0.336520552089E+03   -0.41984E-04   -0.42200E-04 10710   0.102E-03 0.169E-03
CGA:   9    -0.336520561935E+03   -0.98462E-05   -0.10929E-04 10710   0.602E-04 0.724E-04
   3 F= -.33652056E+03 E0= -.33652056E+03  d E =-.501150E-04  mag=     6.0000
       N       E                     dE             d eps       ncg     rms          ort
SDA:   1    -0.336505283226E+03    0.15269E-01    0.00000E+00 10710   0.587E-01 0.000E+00
CGA:   2    -0.336513774451E+03   -0.84912E-02   -0.84882E-02 10710   0.211E-01 0.869E-04
CGA:   3    -0.336518146198E+03   -0.43717E-02   -0.43812E-02 10710   0.124E-01-0.119E-03
CGA:   4    -0.336520043154E+03   -0.18970E-02   -0.18999E-02 10710   0.285E-02-0.102E-03
CGA:   5    -0.336520447188E+03   -0.40403E-03   -0.40575E-03 10710   0.653E-03-0.978E-04
CGA:   6    -0.336520572151E+03   -0.12496E-03   -0.13685E-03 10710   0.282E-03-0.132E-03
CGA:   7    -0.336520616202E+03   -0.44051E-04   -0.51463E-04 10710   0.121E-03-0.761E-04
CGA:   8    -0.336520630052E+03   -0.13850E-04   -0.13645E-04 10710   0.321E-04 0.111E-04
CGA:   9    -0.336520635450E+03   -0.53984E-05   -0.52737E-05 10710   0.121E-04 0.925E-05
   4 F= -.33652064E+03 E0= -.33652064E+03  d E =-.123630E-03  mag=     6.0000
       N       E                     dE             d eps       ncg     rms          ort
SDA:   1    -0.336419202082E+03    0.10143E+00    0.00000E+00 10710   0.385E+00 0.000E+00
CGA:   2    -0.336474705121E+03   -0.55503E-01   -0.55507E-01 10710   0.142E+00 0.117E-02
CGA:   3    -0.336504127045E+03   -0.29422E-01   -0.29415E-01 10710   0.830E-01 0.405E-04
CGA:   4    -0.336516939725E+03   -0.12813E-01   -0.12812E-01 10710   0.190E-01 0.883E-04
CGA:   5    -0.336519532423E+03   -0.25927E-02   -0.25955E-02 10710   0.403E-02 0.208E-03
CGA:   6    -0.336520285795E+03   -0.75337E-03   -0.75007E-03 10710   0.120E-02 0.928E-04
CGA:   7    -0.336520520592E+03   -0.23480E-03   -0.23159E-03 10710   0.330E-03 0.852E-04
CGA:   8    -0.336520576628E+03   -0.56037E-04   -0.55599E-04 10710   0.920E-04 0.102E-03
CGA:   9    -0.336520591938E+03   -0.15309E-04   -0.16309E-04 10710   0.395E-04 0.567E-04
CGA:  10    -0.336520597881E+03   -0.59431E-05   -0.59713E-05 10710   0.202E-04 0.235E-04
   5 F= -.33652060E+03 E0= -.33652060E+03  d E =0.375697E-04  mag=     6.0000
       N       E                     dE             d eps       ncg     rms          ort
SDA:   1    -0.336488681979E+03    0.31910E-01    0.00000E+00 10710   0.122E+00 0.000E+00
CGA:   2    -0.336506362944E+03   -0.17681E-01   -0.17682E-01 10710   0.451E-01 0.130E-03
CGA:   3    -0.336515735125E+03   -0.93722E-02   -0.93790E-02 10710   0.264E-01-0.138E-03
CGA:   4    -0.336519809628E+03   -0.40745E-02   -0.40749E-02 10710   0.600E-02-0.133E-03
CGA:   5    -0.336520629770E+03   -0.82014E-03   -0.82047E-03 10710   0.126E-02 0.208E-04
CGA:   6    -0.336520864555E+03   -0.23478E-03   -0.23424E-03 10710   0.378E-03 0.156E-04
CGA:   7    -0.336520944772E+03   -0.80217E-04   -0.81725E-04 10710   0.126E-03-0.249E-04
CGA:   8    -0.336520971581E+03   -0.26809E-04   -0.30697E-04 10710   0.656E-04-0.367E-04
CGA:   9    -0.336520980405E+03   -0.88246E-05   -0.16924E-04 10710   0.664E-04-0.399E-04
CGA:  10    -0.336520991174E+03   -0.10769E-04   -0.10733E-04 10710   0.130E-04-0.372E-05
CGA:  11    -0.336520964420E+03    0.26754E-04   -0.14616E-04 10710   0.206E-03-0.447E-04
CGA:  12    -0.336520992332E+03   -0.27912E-04   -0.30120E-04 10710   0.251E-04 0.133E-04
CGA:  13    -0.336520947679E+03    0.44653E-04   -0.29608E-04 10710   0.375E-03-0.924E-04
CGA:  14    -0.336520980330E+03   -0.32651E-04   -0.47926E-04 10710   0.781E-04 0.712E-04
CGA:  15    -0.336521006511E+03   -0.26181E-04   -0.25220E-04 10710   0.103E-04-0.158E-04
CGA:  16    -0.336521003164E+03    0.33479E-05   -0.64570E-05 10710   0.873E-04-0.215E-04
   6 F= -.33652100E+03 E0= -.33652100E+03  d E =-.367713E-03  mag=     6.0000
       N       E                     dE             d eps       ncg     rms          ort
SDA:   1    -0.336514403075E+03    0.66034E-02    0.00000E+00 10710   0.224E-01 0.000E+00
CGA:   2    -0.336518368159E+03   -0.39651E-02   -0.39667E-02 10710   0.107E-01 0.244E-05
CGA:   3    -0.336520324879E+03   -0.19567E-02   -0.19641E-02 10710   0.468E-02 0.464E-04
CGA:   4    -0.336520983531E+03   -0.65865E-03   -0.67422E-03 10710   0.114E-02 0.847E-04
CGA:   5    -0.336521133317E+03   -0.14979E-03   -0.16426E-03 10710   0.273E-03 0.832E-04
CGA:   6    -0.336521168028E+03   -0.34711E-04   -0.44445E-04 10710   0.708E-04 0.629E-04
CGA:   7    -0.336521172295E+03   -0.42671E-05   -0.10903E-04 10710   0.266E-04 0.382E-04
   7 F= -.33652117E+03 E0= -.33652117E+03  d E =-.169132E-03  mag=     6.0000
       N       E                     dE             d eps       ncg     rms          ort
SDA:   1    -0.336521054167E+03    0.11386E-03    0.00000E+00 10710   0.246E-03 0.000E+00
CGA:   2    -0.336521100738E+03   -0.46571E-04   -0.45422E-04 10710   0.129E-03-0.118E-04
CGA:   3    -0.336521123739E+03   -0.23001E-04   -0.22861E-04 10710   0.456E-04-0.157E-05
CGA:   4    -0.336521129479E+03   -0.57399E-05   -0.60695E-05 10710   0.792E-05 0.238E-05
CGA:   5    -0.336521131552E+03   -0.20733E-05   -0.19694E-05 10710   0.602E-05-0.354E-05
CGA:   6    -0.336521132283E+03   -0.73106E-06   -0.61939E-06 10710   0.291E-05-0.143E-05
   8 F= -.33652113E+03 E0= -.33652113E+03  d E =-.129119E-03  mag=     6.0000
       N       E                     dE             d eps       ncg     rms          ort
SDA:   1    -0.336517360480E+03    0.37711E-02    0.00000E+00 10710   0.125E-01 0.000E+00
CGA:   2    -0.336519599075E+03   -0.22386E-02   -0.22358E-02 10710   0.623E-02-0.430E-04
CGA:   3    -0.336520796021E+03   -0.11969E-02   -0.11911E-02 10710   0.269E-02-0.107E-03
CGA:   4    -0.336521156243E+03   -0.36022E-03   -0.36608E-03 10710   0.583E-03 0.545E-04
CGA:   5    -0.336521224531E+03   -0.68289E-04   -0.77393E-04 10710   0.129E-03 0.834E-04
CGA:   6    -0.336521240550E+03   -0.16018E-04   -0.20272E-04 10710   0.377E-04 0.444E-04
CGA:   7    -0.336521243922E+03   -0.33721E-05   -0.58856E-05 10710   0.148E-04 0.223E-04
   9 F= -.33652124E+03 E0= -.33652124E+03  d E =-.111639E-03  mag=     6.0000
       N       E                     dE             d eps       ncg     rms          ort
SDA:   1    -0.336520021291E+03    0.12193E-02    0.00000E+00 10710   0.392E-02 0.000E+00
CGA:   2    -0.336520730896E+03   -0.70960E-03   -0.70862E-03 10710   0.197E-02-0.269E-04
CGA:   3    -0.336521112460E+03   -0.38156E-03   -0.37978E-03 10710   0.917E-03-0.777E-04
CGA:   4    -0.336521226758E+03   -0.11430E-03   -0.11737E-03 10710   0.199E-03 0.368E-04
CGA:   5    -0.336521244794E+03   -0.18036E-04   -0.23341E-04 10710   0.447E-04 0.535E-04
CGA:   6    -0.336521247240E+03   -0.24453E-05   -0.54492E-05 10710   0.179E-04 0.271E-04
  10 F= -.33652125E+03 E0= -.33652125E+03  d E =-.114957E-03  mag=     6.0000
       N       E                     dE             d eps       ncg     rms          ort
SDA:   1    -0.336519294277E+03    0.19505E-02    0.00000E+00 10710   0.577E-02 0.000E+00
CGA:   2    -0.336520562201E+03   -0.12679E-02   -0.12676E-02 10710   0.342E-02 0.105E-04
CGA:   3    -0.336521150584E+03   -0.58838E-03   -0.58780E-03 10710   0.111E-02-0.228E-04
CGA:   4    -0.336521286988E+03   -0.13640E-03   -0.14295E-03 10710   0.221E-03 0.985E-04
CGA:   5    -0.336521309633E+03   -0.22645E-04   -0.27899E-04 10710   0.539E-04 0.679E-04
CGA:   6    -0.336521314621E+03   -0.49880E-05   -0.75798E-05 10710   0.211E-04 0.318E-04
  11 F= -.33652131E+03 E0= -.33652131E+03  d E =-.673818E-04  mag=     6.0000
