       N       E                     dE             d eps       ncg     rms          rms(c)
DAV:   1     0.255687422709E+04    0.25569E+04   -0.12679E+05 40456   0.159E+03
DAV:   2    -0.110981183563E+02   -0.25680E+04   -0.23588E+04 41136   0.437E+02
DAV:   3    -0.304473383646E+03   -0.29338E+03   -0.28816E+03 42968   0.162E+02
DAV:   4    -0.313505052843E+03   -0.90317E+01   -0.89414E+01 50272   0.287E+01
DAV:   5    -0.313861286523E+03   -0.35623E+00   -0.35568E+00 58520   0.448E+00    0.838E+01
DAV:   6    -0.287765370141E+03    0.26096E+02   -0.31583E+02 50920   0.778E+01    0.117E+02
DAV:   7    -0.268228992960E+03    0.19536E+02   -0.17934E+02 42112   0.117E+02    0.358E+01
DAV:   8    -0.261707885811E+03    0.65211E+01   -0.21811E+01 50328   0.217E+01    0.134E+01
DAV:   9    -0.260824109337E+03    0.88378E+00   -0.38804E+00 51144   0.947E+00    0.437E+00
DAV:  10    -0.260913499790E+03   -0.89390E-01   -0.98422E-01 44128   0.366E+00    0.275E+00
DAV:  11    -0.260907476384E+03    0.60234E-02   -0.76710E-02 43408   0.197E+00    0.179E+00
DAV:  12    -0.260905610172E+03    0.18662E-02   -0.45154E-02 51664   0.146E+00    0.115E+00
DAV:  13    -0.260906200412E+03   -0.59024E-03   -0.28029E-02 45408   0.109E+00    0.482E-01
DAV:  14    -0.260905316887E+03    0.88353E-03   -0.59883E-03 46456   0.496E-01    0.224E-01
DAV:  15    -0.260905595141E+03   -0.27825E-03   -0.26677E-03 44856   0.182E-01    0.114E-01
DAV:  16    -0.260905653719E+03   -0.58578E-04   -0.32541E-04 46576   0.121E-01    0.840E-02
DAV:  17    -0.260905669905E+03   -0.16186E-04   -0.13198E-04 48632   0.675E-02    0.316E-02
DAV:  18    -0.260905689702E+03   -0.19797E-04   -0.39280E-05 34832   0.349E-02    0.213E-02
DAV:  19    -0.260905696939E+03   -0.72377E-05   -0.12338E-05 27128   0.220E-02
   1 F= -.26090570E+03 E0= -.26090570E+03  d E =-.260906E+03  mag=    12.0006
