       N       E                     dE             d eps       ncg     rms          ort
DAV:   1     0.246734055470E+04    0.24673E+04   -0.13852E+05 10080   0.163E+03
DAV:   2    -0.198643095217E+03   -0.26660E+04   -0.24631E+04 10080   0.437E+02
DAV:   3    -0.487686386490E+03   -0.28904E+03   -0.28425E+03 10080   0.162E+02
DAV:   4    -0.496484634640E+03   -0.87982E+01   -0.87048E+01 10080   0.278E+01
DAV:   5    -0.496823891937E+03   -0.33926E+00   -0.33851E+00 10080   0.439E+00
SDA:   6    -0.238453069541E+03    0.25837E+03   -0.33851E+00 10080   0.776E+03 0.000E+00
CGA:   7    -0.346297387239E+03   -0.10784E+03   -0.10916E+03 10080   0.884E+02 0.702E+01
CGA:   8    -0.364005355848E+03   -0.17708E+02   -0.17713E+02 10080   0.324E+02-0.168E+01
CGA:   9    -0.370750197087E+03   -0.67448E+01   -0.67480E+01 10080   0.153E+02 0.321E-02
CGA:  10    -0.373768034927E+03   -0.30178E+01   -0.30180E+01 10080   0.457E+01 0.148E+00
CGA:  11    -0.374720539001E+03   -0.95250E+00   -0.95242E+00 10080   0.129E+01 0.186E-02
CGA:  12    -0.375008302601E+03   -0.28776E+00   -0.28831E+00 10080   0.432E+00-0.218E-01
CGA:  13    -0.375116640431E+03   -0.10834E+00   -0.10977E+00 10080   0.167E+00-0.245E-01
CGA:  14    -0.375158935969E+03   -0.42296E-01   -0.42937E-01 10080   0.635E-01-0.940E-02
CGA:  15    -0.375174534720E+03   -0.15599E-01   -0.15619E-01 10080   0.223E-01-0.467E-03
CGA:  16    -0.375180645907E+03   -0.61112E-02   -0.61748E-02 10080   0.780E-02-0.922E-03
CGA:  17    -0.375182737418E+03   -0.20915E-02   -0.20733E-02 10080   0.264E-02 0.294E-03
CGA:  18    -0.375183530656E+03   -0.79324E-03   -0.79015E-03 10080   0.874E-03 0.522E-04
CGA:  19    -0.375181186196E+03    0.23445E-02   -0.12831E-02 10080   0.104E-01-0.305E-02
CGA:  20    -0.375183683194E+03   -0.24970E-02   -0.26268E-02 10080   0.159E-02 0.878E-03
CGA:  21    -0.375184429253E+03   -0.74606E-03   -0.93683E-03 10080   0.194E-02-0.126E-02
CGA:  22    -0.375184477422E+03   -0.48170E-04   -0.23783E-03 10080   0.329E-03 0.688E-03
CGA:  23    -0.375184456234E+03    0.21189E-04   -0.43279E-04 10080   0.128E-03 0.223E-03
CGA:  24    -0.375184507806E+03   -0.51573E-04   -0.51532E-04 10080   0.197E-04 0.136E-05
CGA:  25    -0.375184502761E+03    0.50453E-05   -0.77149E-06 10080   0.153E-04 0.174E-04
   1 F= -.37518450E+03 E0= -.37518450E+03  d E =-.375185E+03  mag=    12.0000
       N       E                     dE             d eps       ncg     rms          ort
SDA:   1    -0.375212383964E+03   -0.27876E-01    0.00000E+00 10080   0.696E-02 0.000E+00
CGA:   2    -0.375214096373E+03   -0.17124E-02   -0.17090E-02 10080   0.180E-02-0.386E-04
CGA:   3    -0.375214530618E+03   -0.43424E-03   -0.43521E-03 10080   0.614E-03 0.105E-04
CGA:   4    -0.375214723869E+03   -0.19325E-03   -0.17379E-03 10080   0.602E-03-0.392E-03
CGA:   5    -0.375214751374E+03   -0.27505E-04   -0.53945E-04 10080   0.575E-04 0.110E-03
CGA:   6    -0.375214747654E+03    0.37199E-05   -0.53866E-05 10080   0.275E-04 0.384E-04
   2 F= -.37521475E+03 E0= -.37521475E+03  d E =-.302449E-01  mag=    12.0000
       N       E                     dE             d eps       ncg     rms          ort
SDA:   1    -0.370089732302E+03    0.51250E+01    0.00000E+00 10080   0.188E+02 0.000E+00
CGA:   2    -0.374781950856E+03   -0.46922E+01   -0.46945E+01 10080   0.457E+01-0.214E-02
CGA:   3    -0.375981427483E+03   -0.11995E+01   -0.11991E+01 10080   0.140E+01-0.153E-01
CGA:   4    -0.376234952822E+03   -0.25353E+00   -0.25190E+00 10080   0.366E+00-0.108E-01
CGA:   5    -0.376306053118E+03   -0.71100E-01   -0.71083E-01 10080   0.107E+00-0.392E-03
CGA:   6    -0.376330289128E+03   -0.24236E-01   -0.24317E-01 10080   0.450E-01 0.137E-02
CGA:   7    -0.376343894092E+03   -0.13605E-01   -0.13649E-01 10080   0.220E-01-0.227E-02
CGA:   8    -0.376349889639E+03   -0.59955E-02   -0.59993E-02 10080   0.874E-02-0.553E-03
CGA:   9    -0.376351983595E+03   -0.20940E-02   -0.21114E-02 10080   0.255E-02 0.518E-03
CGA:  10    -0.376352856049E+03   -0.87245E-03   -0.88520E-03 10080   0.104E-02-0.266E-03
CGA:  11    -0.376353074332E+03   -0.21828E-03   -0.22545E-03 10080   0.326E-03 0.176E-03
CGA:  12    -0.376353186033E+03   -0.11170E-03   -0.11130E-03 10080   0.145E-03 0.336E-04
CGA:  13    -0.376352395580E+03    0.79045E-03   -0.42592E-03 10080   0.353E-02-0.699E-03
CGA:  14    -0.376352942187E+03   -0.54661E-03   -0.69524E-03 10080   0.508E-03 0.472E-03
CGA:  15    -0.376353208724E+03   -0.26654E-03   -0.25524E-03 10080   0.356E-03-0.212E-03
CGA:  16    -0.376353209425E+03   -0.70143E-06   -0.29300E-04 10080   0.187E-03 0.813E-04
CGA:  17    -0.376353207668E+03    0.17568E-05   -0.27851E-04 10080   0.743E-04 0.834E-04
CGA:  18    -0.376353227837E+03   -0.20169E-04   -0.22303E-04 10080   0.368E-04 0.843E-05
CGA:  19    -0.376353295766E+03   -0.67928E-04    0.10584E-04 10080   0.781E-04-0.506E-04
CGA:  20    -0.376353283760E+03    0.12005E-04   -0.63186E-05 10080   0.337E-04 0.503E-04
CGA:  21    -0.376353278028E+03    0.57317E-05   -0.27479E-05 10080   0.181E-04 0.245E-04
   3 F= -.37635328E+03 E0= -.37635328E+03  d E =-.113853E+01  mag=    12.0000
       N       E                     dE             d eps       ncg     rms          ort
SDA:   1    -0.371227771929E+03    0.51255E+01    0.00000E+00 10080   0.180E+02 0.000E+00
CGA:   2    -0.375486864273E+03   -0.42591E+01   -0.42766E+01 10080   0.409E+01 0.119E-01
CGA:   3    -0.376594192086E+03   -0.11073E+01   -0.11050E+01 10080   0.117E+01-0.105E-01
CGA:   4    -0.376813528597E+03   -0.21934E+00   -0.21776E+00 10080   0.326E+00-0.678E-02
CGA:   5    -0.376874402878E+03   -0.60874E-01   -0.61074E-01 10080   0.891E-01 0.901E-03
CGA:   6    -0.376895223350E+03   -0.20820E-01   -0.21059E-01 10080   0.397E-01 0.184E-02
CGA:   7    -0.376907275609E+03   -0.12052E-01   -0.11967E-01 10080   0.202E-01-0.144E-02
CGA:   8    -0.376913114731E+03   -0.58391E-02   -0.58130E-02 10080   0.834E-02-0.473E-03
CGA:   9    -0.376915177428E+03   -0.20627E-02   -0.20940E-02 10080   0.252E-02 0.339E-03
CGA:  10    -0.376916013590E+03   -0.83616E-03   -0.83009E-03 10080   0.921E-03-0.211E-03
CGA:  11    -0.376916176974E+03   -0.16338E-03   -0.18878E-03 10080   0.274E-03 0.212E-03
CGA:  12    -0.376916256091E+03   -0.79117E-04   -0.84647E-04 10080   0.112E-03 0.642E-04
CGA:  13    -0.376915943529E+03    0.31256E-03   -0.20519E-03 10080   0.171E-02-0.451E-03
CGA:  14    -0.376916151325E+03   -0.20780E-03   -0.30370E-03 10080   0.282E-03 0.449E-03
CGA:  15    -0.376916273169E+03   -0.12184E-03   -0.12021E-03 10080   0.110E-03-0.383E-04
CGA:  16    -0.376916130683E+03    0.14249E-03   -0.11846E-03 10080   0.982E-03-0.299E-03
CGA:  17    -0.376916243196E+03   -0.11251E-03   -0.17809E-03 10080   0.151E-03 0.273E-03
CGA:  18    -0.376916316698E+03   -0.73502E-04   -0.71757E-04 10080   0.761E-04-0.465E-04
CGA:  19    -0.376916338572E+03   -0.21874E-04   -0.22576E-04 10080   0.370E-04-0.332E-04
CGA:  20    -0.376916335234E+03    0.33377E-05   -0.16192E-05 10080   0.285E-04 0.150E-04
   4 F= -.37691634E+03 E0= -.37691634E+03  d E =-.563057E+00  mag=    12.0000
       N       E                     dE             d eps       ncg     rms          ort
SDA:   1    -0.373291014514E+03    0.36253E+01    0.00000E+00 10080   0.120E+02 0.000E+00
CGA:   2    -0.376167750988E+03   -0.28767E+01   -0.28841E+01 10080   0.286E+01 0.545E-03
CGA:   3    -0.376930769337E+03   -0.76302E+00   -0.76266E+00 10080   0.783E+00 0.150E-02
CGA:   4    -0.377075313224E+03   -0.14454E+00   -0.14420E+00 10080   0.218E+00-0.234E-02
CGA:   5    -0.377115387482E+03   -0.40074E-01   -0.40191E-01 10080   0.571E-01 0.548E-03
CGA:   6    -0.377128781899E+03   -0.13394E-01   -0.13541E-01 10080   0.255E-01 0.135E-02
CGA:   7    -0.377136210103E+03   -0.74282E-02   -0.74267E-02 10080   0.127E-01-0.243E-04
CGA:   8    -0.377139985943E+03   -0.37758E-02   -0.37881E-02 10080   0.535E-02 0.292E-03
CGA:   9    -0.377141399652E+03   -0.14137E-02   -0.14405E-02 10080   0.165E-02 0.363E-03
CGA:  10    -0.377141970251E+03   -0.57060E-03   -0.56879E-03 10080   0.613E-03-0.167E-03
CGA:  11    -0.377142085980E+03   -0.11573E-03   -0.12700E-03 10080   0.169E-03 0.110E-03
CGA:  12    -0.377142137670E+03   -0.51690E-04   -0.53299E-04 10080   0.669E-04 0.265E-04
CGA:  13    -0.377142047464E+03    0.90206E-04   -0.95230E-04 10080   0.687E-03-0.205E-03
CGA:  14    -0.377142124689E+03   -0.77225E-04   -0.11528E-03 10080   0.107E-03 0.188E-03
CGA:  15    -0.377142168565E+03   -0.43876E-04   -0.43110E-04 10080   0.393E-04-0.178E-04
CGA:  16    -0.377142197018E+03   -0.28453E-04    0.27457E-04 10080   0.188E-04-0.112E-04
CGA:  17    -0.377142194920E+03    0.20977E-05   -0.89619E-06 10080   0.137E-04 0.103E-04
   5 F= -.37714219E+03 E0= -.37714219E+03  d E =-.225860E+00  mag=    12.0000
       N       E                     dE             d eps       ncg     rms          ort
SDA:   1    -0.372696446968E+03    0.44458E+01    0.00000E+00 10080   0.129E+02 0.000E+00
CGA:   2    -0.376103282508E+03   -0.34068E+01   -0.34086E+01 10080   0.369E+01-0.739E-02
CGA:   3    -0.376991835848E+03   -0.88855E+00   -0.88934E+00 10080   0.103E+01 0.107E-01
CGA:   4    -0.377167543478E+03   -0.17571E+00   -0.17580E+00 10080   0.244E+00-0.132E-04
CGA:   5    -0.377213335424E+03   -0.45792E-01   -0.45838E-01 10080   0.645E-01 0.197E-03
CGA:   6    -0.377227339562E+03   -0.14004E-01   -0.14114E-01 10080   0.245E-01 0.124E-02
CGA:   7    -0.377234312897E+03   -0.69733E-02   -0.69776E-02 10080   0.117E-01 0.183E-03
CGA:   8    -0.377237803993E+03   -0.34911E-02   -0.34929E-02 10080   0.547E-02 0.320E-03
CGA:   9    -0.377239282681E+03   -0.14787E-02   -0.14985E-02 10080   0.176E-02 0.558E-03
CGA:  10    -0.377239913949E+03   -0.63127E-03   -0.63542E-03 10080   0.690E-03-0.147E-03
CGA:  11    -0.377240090890E+03   -0.17694E-03   -0.17736E-03 10080   0.208E-03 0.199E-04
CGA:  12    -0.377240156092E+03   -0.65202E-04   -0.65155E-04 10080   0.739E-04 0.117E-04
CGA:  13    -0.377240174133E+03   -0.18041E-04   -0.58916E-04 10080   0.190E-03-0.901E-04
CGA:  14    -0.377240195939E+03   -0.21806E-04   -0.31211E-04 10080   0.276E-04 0.589E-04
CGA:  15    -0.377240208448E+03   -0.12509E-04   -0.16087E-04 10080   0.310E-04-0.278E-04
CGA:  16    -0.377240217944E+03   -0.94960E-05   -0.93568E-05 10080   0.351E-05-0.685E-05
   6 F= -.37724022E+03 E0= -.37724022E+03  d E =-.980230E-01  mag=    12.0000
       N       E                     dE             d eps       ncg     rms          ort
SDA:   1    -0.364579618109E+03    0.12661E+02    0.00000E+00 10080   0.320E+02 0.000E+00
CGA:   2    -0.374187943561E+03   -0.96083E+01   -0.96086E+01 10080   0.119E+02-0.827E-02
CGA:   3    -0.376531324820E+03   -0.23434E+01   -0.23482E+01 10080   0.309E+01 0.254E-01
CGA:   4    -0.377057191554E+03   -0.52587E+00   -0.52663E+00 10080   0.672E+00 0.375E-02
CGA:   5    -0.377180384643E+03   -0.12319E+00   -0.12314E+00 10080   0.187E+00-0.631E-03
CGA:   6    -0.377219771901E+03   -0.39387E-01   -0.39518E-01 10080   0.561E-01 0.163E-02
CGA:   7    -0.377234408775E+03   -0.14637E-01   -0.14647E-01 10080   0.238E-01 0.345E-03
CGA:   8    -0.377241122385E+03   -0.67136E-02   -0.67123E-02 10080   0.108E-01-0.275E-03
CGA:   9    -0.377244082586E+03   -0.29602E-02   -0.29649E-02 10080   0.363E-02 0.708E-03
CGA:  10    -0.377245279694E+03   -0.11971E-02   -0.11966E-02 10080   0.133E-02 0.184E-04
CGA:  11    -0.377245733797E+03   -0.45410E-03   -0.46779E-03 10080   0.626E-03-0.210E-03
CGA:  12    -0.377245846597E+03   -0.11280E-03   -0.12079E-03 10080   0.213E-03 0.133E-03
CGA:  13    -0.377245912686E+03   -0.66088E-04   -0.67069E-04 10080   0.955E-04 0.367E-04
CGA:  14    -0.377245881555E+03    0.31131E-04   -0.10696E-03 10080   0.550E-03-0.206E-03
CGA:  15    -0.377245941867E+03   -0.60312E-04   -0.87277E-04 10080   0.945E-04 0.169E-03
CGA:  16    -0.377245975168E+03   -0.33302E-04   -0.33192E-04 10080   0.265E-04-0.266E-05
CGA:  17    -0.377246005725E+03   -0.30557E-04    0.43168E-05 10080   0.119E-04-0.772E-05
CGA:  18    -0.377246004312E+03    0.14139E-05   -0.38245E-06 10080   0.903E-05 0.683E-05
   7 F= -.37724600E+03 E0= -.37724600E+03  d E =-.578637E-02  mag=    12.0000
       N       E                     dE             d eps       ncg     rms          ort
SDA:   1    -0.373567920734E+03    0.36781E+01    0.00000E+00 10080   0.898E+01 0.000E+00
CGA:   2    -0.376631240942E+03   -0.30633E+01   -0.30644E+01 10080   0.279E+01-0.205E-01
CGA:   3    -0.377193738024E+03   -0.56250E+00   -0.56384E+00 10080   0.705E+00 0.146E-01
CGA:   4    -0.377316287042E+03   -0.12255E+00   -0.12253E+00 10080   0.151E+00 0.434E-03
CGA:   5    -0.377345246569E+03   -0.28960E-01   -0.28886E-01 10080   0.464E-01-0.875E-03
CGA:   6    -0.377354380561E+03   -0.91340E-02   -0.92083E-02 10080   0.135E-01 0.103E-02
CGA:   7    -0.377357925805E+03   -0.35452E-02   -0.35524E-02 10080   0.526E-02 0.700E-03
CGA:   8    -0.377359423037E+03   -0.14972E-02   -0.14968E-02 10080   0.238E-02 0.135E-03
CGA:   9    -0.377360000653E+03   -0.57762E-03   -0.58817E-03 10080   0.688E-03 0.404E-03
CGA:  10    -0.377360215339E+03   -0.21469E-03   -0.21464E-03 10080   0.237E-03 0.904E-04
CGA:  11    -0.377360309363E+03   -0.94023E-04   -0.10418E-03 10080   0.168E-03-0.828E-04
CGA:  12    -0.377360310256E+03   -0.89327E-06   -0.11431E-04 10080   0.100E-03 0.628E-04
CGA:  13    -0.377360309190E+03    0.10658E-05   -0.11619E-04 10080   0.409E-04 0.707E-04
   8 F= -.37736031E+03 E0= -.37736031E+03  d E =-.114305E+00  mag=    12.0000
       N       E                     dE             d eps       ncg     rms          ort
SDA:   1    -0.376648448736E+03    0.71186E+00    0.00000E+00 10080   0.213E+01 0.000E+00
CGA:   2    -0.377217286952E+03   -0.56884E+00   -0.56881E+00 10080   0.637E+00 0.467E-03
CGA:   3    -0.377364443252E+03   -0.14716E+00   -0.14713E+00 10080   0.209E+00-0.129E-02
CGA:   4    -0.377398919499E+03   -0.34476E-01   -0.34545E-01 10080   0.474E-01 0.657E-03
CGA:   5    -0.377408033655E+03   -0.91142E-02   -0.91150E-02 10080   0.133E-01 0.902E-06
CGA:   6    -0.377411103426E+03   -0.30698E-02   -0.30609E-02 10080   0.546E-02-0.554E-03
CGA:   7    -0.377412543723E+03   -0.14403E-02   -0.14444E-02 10080   0.251E-02-0.130E-03
CGA:   8    -0.377413239571E+03   -0.69585E-03   -0.69684E-03 10080   0.108E-02-0.270E-04
CGA:   9    -0.377413590456E+03   -0.35089E-03   -0.37905E-03 10080   0.596E-03-0.265E-03
CGA:  10    -0.377413697894E+03   -0.10744E-03   -0.10762E-03 10080   0.171E-03 0.123E-04
CGA:  11    -0.377413741862E+03   -0.43968E-04   -0.43978E-04 10080   0.586E-04 0.956E-05
CGA:  12    -0.377413762645E+03   -0.20782E-04   -0.26277E-04 10080   0.568E-04-0.320E-04
CGA:  13    -0.377413765324E+03   -0.26791E-05   -0.66336E-05 10080   0.154E-04 0.273E-04
   9 F= -.37741377E+03 E0= -.37741377E+03  d E =-.534561E-01  mag=    12.0000
       N       E                     dE             d eps       ncg     rms          ort
SDA:   1    -0.376354484058E+03    0.10593E+01    0.00000E+00 10080   0.263E+01 0.000E+00
CGA:   2    -0.377235731425E+03   -0.88125E+00   -0.88247E+00 10080   0.786E+00-0.141E-01
CGA:   3    -0.377399866451E+03   -0.16414E+00   -0.16444E+00 10080   0.178E+00 0.718E-02
CGA:   4    -0.377429612688E+03   -0.29746E-01   -0.29782E-01 10080   0.417E-01 0.438E-03
CGA:   5    -0.377437646377E+03   -0.80337E-02   -0.80192E-02 10080   0.116E-01-0.277E-03
CGA:   6    -0.377439910997E+03   -0.22646E-02   -0.22745E-02 10080   0.337E-02 0.217E-03
CGA:   7    -0.377440790590E+03   -0.87959E-03   -0.87857E-03 10080   0.132E-02 0.624E-04
CGA:   8    -0.377441157929E+03   -0.36734E-03   -0.36504E-03 10080   0.581E-03 0.744E-04
CGA:   9    -0.377441296342E+03   -0.13841E-03   -0.14053E-03 10080   0.183E-03 0.159E-03
CGA:  10    -0.377441358137E+03   -0.61795E-04   -0.60949E-04 10080   0.707E-04 0.412E-04
CGA:  11    -0.377441389072E+03   -0.30935E-04   -0.32984E-04 10080   0.478E-04-0.148E-04
CGA:  12    -0.377441389929E+03   -0.85686E-06   -0.41133E-05 10080   0.285E-04 0.232E-04
  10 F= -.37744139E+03 E0= -.37744139E+03  d E =-.276246E-01  mag=    12.0000
       N       E                     dE             d eps       ncg     rms          ort
SDA:   1    -0.367575696172E+03    0.98657E+01    0.00000E+00 10080   0.237E+02 0.000E+00
CGA:   2    -0.375644667203E+03   -0.80690E+01   -0.80749E+01 10080   0.714E+01-0.524E-01
CGA:   3    -0.377109366090E+03   -0.14647E+01   -0.14663E+01 10080   0.159E+01 0.359E-01
CGA:   4    -0.377378604674E+03   -0.26924E+00   -0.26879E+00 10080   0.368E+00-0.515E-02
CGA:   5    -0.377448887243E+03   -0.70283E-01   -0.70208E-01 10080   0.107E+00-0.175E-02
CGA:   6    -0.377469521765E+03   -0.20635E-01   -0.20730E-01 10080   0.298E-01 0.250E-02
CGA:   7    -0.377477791923E+03   -0.82702E-02   -0.82997E-02 10080   0.131E-01-0.708E-03
CGA:   8    -0.377481470113E+03   -0.36782E-02   -0.37122E-02 10080   0.644E-02-0.593E-03
CGA:   9    -0.377482990725E+03   -0.15206E-02   -0.15127E-02 10080   0.190E-02 0.772E-03
CGA:  10    -0.377483659646E+03   -0.66892E-03   -0.68490E-03 10080   0.827E-03-0.187E-03
CGA:  11    -0.377483895103E+03   -0.23546E-03   -0.25868E-03 10080   0.427E-03-0.218E-03
CGA:  12    -0.377483946669E+03   -0.51566E-04   -0.58312E-04 10080   0.180E-03 0.112E-03
CGA:  13    -0.377483981859E+03   -0.35190E-04   -0.39661E-04 10080   0.742E-04 0.653E-04
CGA:  14    -0.377484012601E+03   -0.30743E-04   -0.56511E-04 10080   0.151E-03-0.809E-04
CGA:  15    -0.377484027385E+03   -0.14784E-04   -0.22200E-04 10080   0.347E-04 0.686E-04
CGA:  16    -0.377484034532E+03   -0.71468E-05   -0.83363E-05 10080   0.750E-05 0.140E-04
  11 F= -.37748403E+03 E0= -.37748403E+03  d E =-.426446E-01  mag=    12.0000
       N       E                     dE             d eps       ncg     rms          ort
SDA:   1    -0.360374565311E+03    0.17109E+02    0.00000E+00 10080   0.417E+02 0.000E+00
CGA:   2    -0.374111151657E+03   -0.13737E+02   -0.13734E+02 10080   0.129E+02 0.107E-01
CGA:   3    -0.376782884013E+03   -0.26717E+01   -0.26749E+01 10080   0.302E+01 0.443E-01
CGA:   4    -0.377303240030E+03   -0.52036E+00   -0.51891E+00 10080   0.658E+00-0.114E-01
CGA:   5    -0.377429873993E+03   -0.12663E+00   -0.12651E+00 10080   0.199E+00-0.243E-02
CGA:   6    -0.377469413409E+03   -0.39539E-01   -0.39680E-01 10080   0.582E-01 0.332E-02
CGA:   7    -0.377485962206E+03   -0.16549E-01   -0.16642E-01 10080   0.268E-01-0.222E-02
CGA:   8    -0.377493511320E+03   -0.75491E-02   -0.76535E-02 10080   0.137E-01-0.186E-02
CGA:   9    -0.377496827265E+03   -0.33159E-02   -0.33064E-02 10080   0.406E-02 0.652E-03
CGA:  10    -0.377498167947E+03   -0.13407E-02   -0.13873E-02 10080   0.172E-02-0.573E-03
CGA:  11    -0.377498599029E+03   -0.43108E-03   -0.43953E-03 10080   0.612E-03-0.176E-03
CGA:  12    -0.377498737040E+03   -0.13801E-03   -0.13804E-03 10080   0.228E-03 0.122E-03
CGA:  13    -0.377498829877E+03   -0.92837E-04   -0.93519E-04 10080   0.138E-03-0.785E-05
CGA:  14    -0.377498861749E+03   -0.31872E-04   -0.32388E-04 10080   0.634E-04 0.424E-04
CGA:  15    -0.377498868802E+03   -0.70525E-05   -0.11838E-04 10080   0.261E-04 0.425E-04
  12 F= -.37749887E+03 E0= -.37749887E+03  d E =-.148343E-01  mag=    12.0000
       N       E                     dE             d eps       ncg     rms          ort
SDA:   1    -0.373275428659E+03    0.42234E+01    0.00000E+00 10080   0.102E+02 0.000E+00
CGA:   2    -0.376625097648E+03   -0.33497E+01   -0.33486E+01 10080   0.365E+01 0.104E-01
CGA:   3    -0.377317849919E+03   -0.69275E+00   -0.69239E+00 10080   0.900E+00-0.418E-02
CGA:   4    -0.377477357136E+03   -0.15951E+00   -0.15927E+00 10080   0.201E+00-0.370E-02
CGA:   5    -0.377513356434E+03   -0.35999E-01   -0.35954E-01 10080   0.603E-01-0.792E-03
CGA:   6    -0.377526007550E+03   -0.12651E-01   -0.12653E-01 10080   0.174E-01 0.625E-04
CGA:   7    -0.377530661795E+03   -0.46542E-02   -0.46739E-02 10080   0.771E-02-0.667E-03
CGA:   8    -0.377532712903E+03   -0.20511E-02   -0.20760E-02 10080   0.347E-02-0.630E-03
CGA:   9    -0.377533645021E+03   -0.93212E-03   -0.95043E-03 10080   0.123E-02-0.328E-03
CGA:  10    -0.377534000523E+03   -0.35550E-03   -0.39426E-03 10080   0.568E-03-0.357E-03
CGA:  11    -0.377534109502E+03   -0.10898E-03   -0.10993E-03 10080   0.168E-03-0.442E-04
CGA:  12    -0.377534163029E+03   -0.53528E-04   -0.57187E-04 10080   0.894E-04-0.314E-04
CGA:  13    -0.377534189051E+03   -0.26022E-04   -0.28043E-04 10080   0.513E-04-0.159E-04
CGA:  14    -0.377534192234E+03   -0.31830E-05   -0.59909E-05 10080   0.250E-04 0.230E-04
  13 F= -.37753419E+03 E0= -.37753419E+03  d E =-.353234E-01  mag=    12.0000
       N       E                     dE             d eps       ncg     rms          ort
SDA:   1    -0.376845199587E+03    0.68899E+00    0.00000E+00 10080   0.169E+01 0.000E+00
CGA:   2    -0.377406863508E+03   -0.56166E+00   -0.56167E+00 10080   0.557E+00-0.712E-03
CGA:   3    -0.377513876560E+03   -0.10701E+00   -0.10710E+00 10080   0.152E+00 0.896E-03
CGA:   4    -0.377542453356E+03   -0.28577E-01   -0.28491E-01 10080   0.317E-01-0.143E-02
CGA:   5    -0.377548190539E+03   -0.57372E-02   -0.57256E-02 10080   0.980E-02-0.175E-03
CGA:   6    -0.377550161784E+03   -0.19712E-02   -0.19822E-02 10080   0.274E-02 0.258E-03
CGA:   7    -0.377550955528E+03   -0.79374E-03   -0.79708E-03 10080   0.130E-02-0.825E-04
CGA:   8    -0.377551329272E+03   -0.37374E-03   -0.39086E-03 10080   0.729E-03-0.267E-03
CGA:   9    -0.377551472131E+03   -0.14286E-03   -0.14285E-03 10080   0.204E-03-0.458E-05
CGA:  10    -0.377551517186E+03   -0.45054E-04   -0.45626E-04 10080   0.638E-04 0.247E-04
CGA:  11    -0.377551540362E+03   -0.23176E-04   -0.29654E-04 10080   0.587E-04-0.387E-04
CGA:  12    -0.377551548419E+03   -0.80573E-05   -0.94182E-05 10080   0.918E-05 0.143E-04
CGA:  13    -0.377551542714E+03    0.57051E-05   -0.10657E-04 10080   0.667E-04-0.240E-04
CGA:  14    -0.377551557933E+03   -0.15219E-04   -0.15511E-04 10080   0.430E-05 0.558E-05
CGA:  15    -0.377551557858E+03    0.75543E-07   -0.47562E-06 10080   0.188E-05 0.306E-05
  14 F= -.37755156E+03 E0= -.37755156E+03  d E =-.173656E-01  mag=    12.0000
       N       E                     dE             d eps       ncg     rms          ort
SDA:   1    -0.377131372681E+03    0.42019E+00    0.00000E+00 10080   0.104E+01 0.000E+00
CGA:   2    -0.377482891489E+03   -0.35152E+00   -0.35178E+00 10080   0.303E+00-0.373E-02
CGA:   3    -0.377547800498E+03   -0.64909E-01   -0.65018E-01 10080   0.642E-01 0.201E-02
CGA:   4    -0.377558618411E+03   -0.10818E-01   -0.10838E-01 10080   0.156E-01 0.175E-03
CGA:   5    -0.377561592899E+03   -0.29745E-02   -0.29782E-02 10080   0.414E-02 0.483E-04
CGA:   6    -0.377562414845E+03   -0.82195E-03   -0.82847E-03 10080   0.126E-02 0.111E-03
CGA:   7    -0.377562744425E+03   -0.32958E-03   -0.32958E-03 10080   0.492E-03 0.404E-04
CGA:   8    -0.377562877593E+03   -0.13317E-03   -0.13270E-03 10080   0.208E-03 0.694E-04
CGA:   9    -0.377562929419E+03   -0.51826E-04   -0.53763E-04 10080   0.708E-04 0.692E-04
CGA:  10    -0.377562953716E+03   -0.24296E-04   -0.24224E-04 10080   0.285E-04 0.222E-04
CGA:  11    -0.377562963904E+03   -0.10188E-04   -0.10058E-04 10080   0.119E-04 0.856E-05
CGA:  12    -0.377562965262E+03   -0.13583E-05   -0.23299E-05 10080   0.620E-05 0.939E-05
  15 F= -.37756297E+03 E0= -.37756297E+03  d E =-.114074E-01  mag=    12.0000
       N       E                     dE             d eps       ncg     rms          ort
SDA:   1    -0.376381739532E+03    0.11812E+01    0.00000E+00 10080   0.284E+01 0.000E+00
CGA:   2    -0.377353848755E+03   -0.97211E+00   -0.97266E+00 10080   0.872E+00-0.638E-02
CGA:   3    -0.377531864865E+03   -0.17802E+00   -0.17818E+00 10080   0.191E+00 0.333E-02
CGA:   4    -0.377563005506E+03   -0.31141E-01   -0.31147E-01 10080   0.453E-01 0.622E-04
CGA:   5    -0.377571732662E+03   -0.87272E-02   -0.87195E-02 10080   0.121E-01-0.159E-03
CGA:   6    -0.377574134822E+03   -0.24022E-02   -0.24098E-02 10080   0.350E-02 0.181E-03
CGA:   7    -0.377575056908E+03   -0.92209E-03   -0.92294E-03 10080   0.145E-02-0.412E-04
CGA:   8    -0.377575463746E+03   -0.40684E-03   -0.40620E-03 10080   0.674E-03 0.146E-04
CGA:   9    -0.377575635894E+03   -0.17215E-03   -0.17103E-03 10080   0.217E-03 0.123E-03
CGA:  10    -0.377575718806E+03   -0.82912E-04   -0.83513E-04 10080   0.969E-04-0.729E-05
CGA:  11    -0.377575749502E+03   -0.30696E-04   -0.31970E-04 10080   0.459E-04-0.135E-04
CGA:  12    -0.377575755449E+03   -0.59476E-05   -0.71302E-05 10080   0.193E-04 0.166E-04
  16 F= -.37757576E+03 E0= -.37757576E+03  d E =-.127902E-01  mag=    12.0000
       N       E                     dE             d eps       ncg     rms          ort
SDA:   1    -0.358006430824E+03    0.19569E+02    0.00000E+00 10080   0.467E+02 0.000E+00
CGA:   2    -0.373625260172E+03   -0.15619E+02   -0.15621E+02 10080   0.158E+02-0.205E-01
CGA:   3    -0.376614828582E+03   -0.29896E+01   -0.29944E+01 10080   0.361E+01 0.405E-01
CGA:   4    -0.377249132998E+03   -0.63430E+00   -0.63322E+00 10080   0.793E+00-0.111E-01
CGA:   5    -0.377398699899E+03   -0.14957E+00   -0.14933E+00 10080   0.247E+00-0.436E-02
CGA:   6    -0.377448166393E+03   -0.49466E-01   -0.49575E-01 10080   0.683E-01 0.278E-02
CGA:   7    -0.377467342981E+03   -0.19177E-01   -0.19269E-01 10080   0.316E-01-0.223E-02
CGA:   8    -0.377476104766E+03   -0.87618E-02   -0.89010E-02 10080   0.159E-01-0.268E-02
CGA:   9    -0.377480026482E+03   -0.39217E-02   -0.39123E-02 10080   0.495E-02 0.348E-03
CGA:  10    -0.377481604376E+03   -0.15779E-02   -0.16308E-02 10080   0.199E-02-0.668E-03
CGA:  11    -0.377482153351E+03   -0.54897E-03   -0.59882E-03 10080   0.927E-03-0.499E-03
CGA:  12    -0.377482330119E+03   -0.17677E-03   -0.17657E-03 10080   0.343E-03 0.126E-03
CGA:  13    -0.377482450101E+03   -0.11998E-03   -0.11974E-03 10080   0.181E-03 0.395E-05
CGA:  14    -0.377482505949E+03   -0.55848E-04   -0.54826E-04 10080   0.781E-04 0.225E-04
CGA:  15    -0.377482509200E+03   -0.32510E-05   -0.10631E-04 10080   0.400E-04 0.541E-04
  17 F= -.37748251E+03 E0= -.37748251E+03  d E =0.932462E-01  mag=    12.0000
       N       E                     dE             d eps       ncg     rms          ort
SDA:   1    -0.373664615859E+03    0.38179E+01    0.00000E+00 10080   0.942E+01 0.000E+00
CGA:   2    -0.376796818135E+03   -0.31322E+01   -0.31313E+01 10080   0.319E+01 0.688E-02
CGA:   3    -0.377413285242E+03   -0.61647E+00   -0.61687E+00 10080   0.775E+00 0.382E-02
CGA:   4    -0.377546437644E+03   -0.13315E+00   -0.13294E+00 10080   0.172E+00-0.269E-02
CGA:   5    -0.377578295898E+03   -0.31858E-01   -0.31789E-01 10080   0.502E-01-0.121E-02
CGA:   6    -0.377588397801E+03   -0.10102E-01   -0.10111E-01 10080   0.140E-01 0.226E-03
CGA:   7    -0.377592145400E+03   -0.37476E-02   -0.37559E-02 10080   0.590E-02-0.287E-03
CGA:   8    -0.377593831244E+03   -0.16858E-02   -0.17266E-02 10080   0.311E-02-0.681E-03
CGA:   9    -0.377594643859E+03   -0.81262E-03   -0.83323E-03 10080   0.117E-02-0.336E-03
CGA:  10    -0.377594973988E+03   -0.33013E-03   -0.35755E-03 10080   0.494E-03-0.280E-03
CGA:  11    -0.377595090654E+03   -0.11667E-03   -0.12568E-03 10080   0.200E-03-0.107E-03
CGA:  12    -0.377595136789E+03   -0.46134E-04   -0.45564E-04 10080   0.713E-04 0.159E-04
CGA:  13    -0.377595164582E+03   -0.27793E-04   -0.27989E-04 10080   0.386E-04-0.187E-05
CGA:  14    -0.377595169574E+03   -0.49929E-05   -0.65901E-05 10080   0.169E-04 0.185E-04
  18 F= -.37759517E+03 E0= -.37759517E+03  d E =-.112660E+00  mag=    12.0000
       N       E                     dE             d eps       ncg     rms          ort
SDA:   1    -0.377410241792E+03    0.18492E+00    0.00000E+00 10080   0.447E+00 0.000E+00
CGA:   2    -0.377557413780E+03   -0.14717E+00   -0.14697E+00 10080   0.166E+00 0.245E-02
CGA:   3    -0.377588465259E+03   -0.31051E-01   -0.31067E-01 10080   0.410E-01 0.154E-03
CGA:   4    -0.377595725205E+03   -0.72599E-02   -0.72665E-02 10080   0.952E-02 0.841E-04
CGA:   5    -0.377597484936E+03   -0.17597E-02   -0.17518E-02 10080   0.276E-02-0.126E-03
CGA:   6    -0.377598098284E+03   -0.61335E-03   -0.60986E-03 10080   0.917E-03-0.179E-03
CGA:   7    -0.377598292575E+03   -0.19429E-03   -0.19524E-03 10080   0.301E-03 0.624E-04
CGA:   8    -0.377598373311E+03   -0.80736E-04   -0.80507E-04 10080   0.115E-03 0.274E-04
CGA:   9    -0.377598288708E+03    0.84603E-04   -0.12350E-03 10080   0.955E-03-0.282E-03
CGA:  10    -0.377598417187E+03   -0.12848E-03   -0.14515E-03 10080   0.103E-03 0.131E-03
CGA:  11    -0.377598451191E+03   -0.34004E-04   -0.34028E-04 10080   0.298E-04-0.145E-05
CGA:  12    -0.377598447913E+03    0.32786E-05   -0.23594E-04 10080   0.132E-03-0.509E-04
CGA:  13    -0.377598460448E+03   -0.12535E-04   -0.18806E-04 10080   0.180E-04 0.396E-04
CGA:  14    -0.377598463054E+03   -0.26059E-05   -0.36308E-05 10080   0.536E-05 0.744E-05
  19 F= -.37759846E+03 E0= -.37759846E+03  d E =-.329348E-02  mag=    12.0000
       N       E                     dE             d eps       ncg     rms          ort
SDA:   1    -0.377559752561E+03    0.38708E-01    0.00000E+00 10080   0.968E-01 0.000E+00
CGA:   2    -0.377592670900E+03   -0.32918E-01   -0.32942E-01 10080   0.349E-01-0.758E-03
CGA:   3    -0.377598995051E+03   -0.63242E-02   -0.63395E-02 10080   0.802E-02 0.111E-03
CGA:   4    -0.377600393616E+03   -0.13986E-02   -0.13978E-02 10080   0.177E-02-0.737E-05
CGA:   5    -0.377600724780E+03   -0.33116E-03   -0.33167E-03 10080   0.511E-03 0.435E-05
CGA:   6    -0.377600822374E+03   -0.97595E-04   -0.99541E-04 10080   0.133E-03 0.198E-04
CGA:   7    -0.377600866608E+03   -0.44234E-04   -0.45742E-04 10080   0.893E-04-0.335E-04
CGA:   8    -0.377600883129E+03   -0.16521E-04   -0.16241E-04 10080   0.366E-04-0.607E-05
CGA:   9    -0.377600887365E+03   -0.42358E-05   -0.56983E-05 10080   0.136E-04 0.122E-04
  20 F= -.37760089E+03 E0= -.37760089E+03  d E =-.242431E-02  mag=    12.0000
       N       E                     dE             d eps       ncg     rms          ort
SDA:   1    -0.377537887991E+03    0.62995E-01    0.00000E+00 10080   0.153E+00 0.000E+00
CGA:   2    -0.377591259832E+03   -0.53372E-01   -0.53387E-01 10080   0.483E-01-0.231E-03
CGA:   3    -0.377600475232E+03   -0.92154E-02   -0.91903E-02 10080   0.124E-01-0.301E-03
CGA:   4    -0.377602526993E+03   -0.20518E-02   -0.20442E-02 10080   0.273E-02-0.720E-04
CGA:   5    -0.377603037619E+03   -0.51063E-03   -0.51038E-03 10080   0.733E-03-0.363E-05
CGA:   6    -0.377603197590E+03   -0.15997E-03   -0.15753E-03 10080   0.239E-03-0.496E-04
CGA:   7    -0.377603266332E+03   -0.68743E-04   -0.79916E-04 10080   0.224E-03-0.116E-03
CGA:   8    -0.377603297601E+03   -0.31269E-04   -0.31897E-04 10080   0.118E-03-0.647E-04
CGA:   9    -0.377603319059E+03   -0.21458E-04   -0.21299E-04 10080   0.524E-04-0.121E-04
CGA:  10    -0.377603332046E+03   -0.12986E-04   -0.13136E-04 10080   0.274E-04-0.116E-04
CGA:  11    -0.377603337369E+03   -0.53232E-05   -0.53047E-05 10080   0.116E-04-0.102E-05
  21 F= -.37760334E+03 E0= -.37760334E+03  d E =-.245000E-02  mag=    12.0000
       N       E                     dE             d eps       ncg     rms          ort
SDA:   1    -0.373683891660E+03    0.39194E+01    0.00000E+00 10080   0.920E+01 0.000E+00
CGA:   2    -0.376916785584E+03   -0.32329E+01   -0.32338E+01 10080   0.274E+01-0.105E-01
CGA:   3    -0.377464247316E+03   -0.54746E+00   -0.54809E+00 10080   0.625E+00 0.555E-02
CGA:   4    -0.377568599585E+03   -0.10435E+00   -0.10413E+00 10080   0.144E+00-0.193E-02
CGA:   5    -0.377596600821E+03   -0.28001E-01   -0.27934E-01 10080   0.398E-01-0.104E-02
CGA:   6    -0.377604406353E+03   -0.78055E-02   -0.78262E-02 10080   0.112E-01 0.341E-03
CGA:   7    -0.377607529901E+03   -0.31235E-02   -0.31426E-02 10080   0.512E-02-0.755E-03
CGA:   8    -0.377608955989E+03   -0.14261E-02   -0.14590E-02 10080   0.269E-02-0.638E-03
CGA:   9    -0.377609583383E+03   -0.62739E-03   -0.62736E-03 10080   0.867E-03 0.405E-05
CGA:  10    -0.377609876773E+03   -0.29339E-03   -0.33669E-03 10080   0.525E-03-0.332E-03
CGA:  11    -0.377609969205E+03   -0.92432E-04   -0.94797E-04 10080   0.216E-03-0.833E-04
CGA:  12    -0.377610016966E+03   -0.47761E-04   -0.47787E-04 10080   0.924E-04 0.101E-04
CGA:  13    -0.377610049550E+03   -0.32584E-04   -0.34029E-04 10080   0.566E-04-0.168E-04
CGA:  14    -0.377610055214E+03   -0.56642E-05   -0.77761E-05 10080   0.297E-04 0.208E-04
  22 F= -.37761006E+03 E0= -.37761006E+03  d E =-.671785E-02  mag=    12.0000
       N       E                     dE             d eps       ncg     rms          ort
SDA:   1    -0.375175865928E+03    0.24342E+01    0.00000E+00 10080   0.579E+01 0.000E+00
CGA:   2    -0.377135161820E+03   -0.19593E+01   -0.19600E+01 10080   0.189E+01-0.101E-01
CGA:   3    -0.377512090743E+03   -0.37693E+00   -0.37731E+00 10080   0.424E+00 0.471E-02
CGA:   4    -0.377583579263E+03   -0.71489E-01   -0.71375E-01 10080   0.952E-01-0.132E-02
CGA:   5    -0.377601849925E+03   -0.18271E-01   -0.18244E-01 10080   0.278E-01-0.450E-03
CGA:   6    -0.377607238814E+03   -0.53889E-02   -0.54182E-02 10080   0.768E-02 0.527E-03
CGA:   7    -0.377609403703E+03   -0.21649E-02   -0.21752E-02 10080   0.346E-02-0.343E-03
CGA:   8    -0.377610380346E+03   -0.97664E-03   -0.99311E-03 10080   0.179E-02-0.321E-03
CGA:   9    -0.377610777762E+03   -0.39742E-03   -0.39866E-03 10080   0.551E-03 0.181E-03
CGA:  10    -0.377610963815E+03   -0.18605E-03   -0.18822E-03 10080   0.231E-03-0.369E-04
CGA:  11    -0.377611035257E+03   -0.71443E-04   -0.92924E-04 10080   0.209E-03-0.122E-03
CGA:  12    -0.377611057510E+03   -0.22253E-04   -0.30471E-04 10080   0.406E-04 0.697E-04
CGA:  13    -0.377611067063E+03   -0.95523E-05   -0.10522E-04 10080   0.194E-04 0.153E-04
CGA:  14    -0.377610962945E+03    0.10412E-03   -0.56401E-04 10080   0.448E-03-0.110E-03
CGA:  15    -0.377611031962E+03   -0.69017E-04   -0.97696E-04 10080   0.726E-04 0.117E-03
CGA:  16    -0.377610846421E+03    0.18554E-03   -0.12686E-03 10080   0.115E-02-0.334E-03
CGA:  17    -0.377610951904E+03   -0.10548E-03   -0.21241E-03 10080   0.243E-03 0.341E-03
CGA:  18    -0.377611070745E+03   -0.11884E-03   -0.10845E-03 10080   0.382E-04-0.751E-04
CGA:  19    -0.377611108062E+03   -0.37318E-04    0.12865E-04 10080   0.166E-04-0.919E-05
CGA:  20    -0.377611103894E+03    0.41683E-05   -0.45328E-06 10080   0.125E-04 0.105E-04
  23 F= -.37761110E+03 E0= -.37761110E+03  d E =-.104868E-02  mag=    12.0000
       N       E                     dE             d eps       ncg     rms          ort
SDA:   1    -0.373824246191E+03    0.37869E+01    0.00000E+00 10080   0.896E+01 0.000E+00
CGA:   2    -0.376908033261E+03   -0.30838E+01   -0.30838E+01 10080   0.282E+01-0.346E-02
CGA:   3    -0.377469074732E+03   -0.56104E+00   -0.56249E+00 10080   0.630E+00 0.171E-02
CGA:   4    -0.377575258896E+03   -0.10618E+00   -0.10555E+00 10080   0.144E+00-0.171E-02
CGA:   5    -0.377603031966E+03   -0.27773E-01   -0.27636E-01 10080   0.414E-01-0.634E-03
CGA:   6    -0.377611056015E+03   -0.80240E-02   -0.81049E-02 10080   0.117E-01 0.389E-03
CGA:   7    -0.377614304510E+03   -0.32485E-02   -0.32089E-02 10080   0.514E-02-0.355E-03
CGA:   8    -0.377615853599E+03   -0.15491E-02   -0.15127E-02 10080   0.274E-02-0.487E-03
CGA:   9    -0.377616579322E+03   -0.72572E-03   -0.71824E-03 10080   0.994E-03-0.874E-04
CGA:  10    -0.377616910679E+03   -0.33136E-03   -0.32549E-03 10080   0.410E-03-0.184E-03
CGA:  11    -0.377617015841E+03   -0.10516E-03   -0.10290E-03 10080   0.149E-03-0.373E-04
CGA:  12    -0.377617058291E+03   -0.42450E-04   -0.42848E-04 10080   0.602E-04 0.786E-05
CGA:  13    -0.377617084514E+03   -0.26223E-04   -0.26623E-04 10080   0.370E-04-0.710E-05
CGA:  14    -0.377617085370E+03   -0.85609E-06   -0.48252E-05 10080   0.180E-04 0.182E-04
  24 F= -.37761709E+03 E0= -.37761709E+03  d E =-.598148E-02  mag=    12.0000
       N       E                     dE             d eps       ncg     rms          ort
SDA:   1    -0.373800126179E+03    0.38170E+01    0.00000E+00 10080   0.898E+01 0.000E+00
CGA:   2    -0.376854001339E+03   -0.30539E+01   -0.30539E+01 10080   0.300E+01 0.234E-02
CGA:   3    -0.377438402734E+03   -0.58440E+00   -0.58491E+00 10080   0.677E+00 0.135E-02
CGA:   4    -0.377551468457E+03   -0.11307E+00   -0.11269E+00 10080   0.153E+00-0.226E-02
CGA:   5    -0.377580746583E+03   -0.29278E-01   -0.29173E-01 10080   0.443E-01-0.802E-03
CGA:   6    -0.377589478824E+03   -0.87322E-02   -0.87689E-02 10080   0.123E-01 0.287E-03
CGA:   7    -0.377592817138E+03   -0.33383E-02   -0.33243E-02 10080   0.529E-02-0.306E-03
CGA:   8    -0.377594406741E+03   -0.15896E-02   -0.15873E-02 10080   0.284E-02-0.536E-03
CGA:   9    -0.377595185947E+03   -0.77921E-03   -0.77737E-03 10080   0.113E-02-0.242E-03
CGA:  10    -0.377595532566E+03   -0.34662E-03   -0.35459E-03 10080   0.474E-03-0.245E-03
CGA:  11    -0.377595647307E+03   -0.11474E-03   -0.11455E-03 10080   0.170E-03-0.464E-04
CGA:  12    -0.377595702568E+03   -0.55261E-04   -0.55829E-04 10080   0.795E-04-0.110E-04
CGA:  13    -0.377595730614E+03   -0.28046E-04   -0.28054E-04 10080   0.353E-04-0.223E-06
CGA:  14    -0.377595732961E+03   -0.23474E-05   -0.55079E-05 10080   0.152E-04 0.195E-04
  25 F= -.37759573E+03 E0= -.37759573E+03  d E =0.213524E-01  mag=    12.0000
       N       E                     dE             d eps       ncg     rms          ort
SDA:   1    -0.374782106807E+03    0.28136E+01    0.00000E+00 10080   0.672E+01 0.000E+00
CGA:   2    -0.377077120141E+03   -0.22950E+01   -0.22954E+01 10080   0.219E+01-0.115E-01
CGA:   3    -0.377506916640E+03   -0.42980E+00   -0.43060E+00 10080   0.490E+00 0.387E-02
CGA:   4    -0.377588316906E+03   -0.81400E-01   -0.81231E-01 10080   0.113E+00-0.103E-02
CGA:   5    -0.377609892578E+03   -0.21576E-01   -0.21516E-01 10080   0.318E-01-0.593E-03
CGA:   6    -0.377616125190E+03   -0.62326E-02   -0.62710E-02 10080   0.882E-02 0.415E-03
CGA:   7    -0.377618565344E+03   -0.24402E-02   -0.24358E-02 10080   0.397E-02-0.404E-03
CGA:   8    -0.377619697801E+03   -0.11325E-02   -0.11392E-02 10080   0.203E-02-0.373E-03
CGA:   9    -0.377620170324E+03   -0.47252E-03   -0.47626E-03 10080   0.655E-03 0.151E-03
CGA:  10    -0.377620404900E+03   -0.23458E-03   -0.24107E-03 10080   0.305E-03-0.108E-03
CGA:  11    -0.377620490679E+03   -0.85779E-04   -0.91846E-04 10080   0.164E-03-0.810E-04
CGA:  12    -0.377620513558E+03   -0.22879E-04   -0.25556E-04 10080   0.678E-04 0.345E-04
CGA:  13    -0.377620531091E+03   -0.17533E-04   -0.18396E-04 10080   0.295E-04 0.140E-04
CGA:  14    -0.377620541764E+03   -0.10673E-04   -0.22665E-04 10080   0.584E-04-0.340E-04
CGA:  15    -0.377620542233E+03   -0.46914E-06   -0.67608E-05 10080   0.205E-04 0.341E-04
  26 F= -.37762054E+03 E0= -.37762054E+03  d E =-.248093E-01  mag=    12.0000
       N       E                     dE             d eps       ncg     rms          ort
SDA:   1    -0.377419035471E+03    0.20151E+00    0.00000E+00 10080   0.472E+00 0.000E+00
CGA:   2    -0.377574452238E+03   -0.15542E+00   -0.15541E+00 10080   0.174E+00 0.193E-04
CGA:   3    -0.377607423731E+03   -0.32971E-01   -0.32962E-01 10080   0.443E-01-0.188E-03
CGA:   4    -0.377614939922E+03   -0.75162E-02   -0.75465E-02 10080   0.101E-01 0.258E-03
CGA:   5    -0.377616832633E+03   -0.18927E-02   -0.19016E-02 10080   0.289E-02 0.961E-04
CGA:   6    -0.377617457676E+03   -0.62504E-03   -0.62324E-03 10080   0.933E-03-0.313E-04
CGA:   7    -0.377617685779E+03   -0.22810E-03   -0.22855E-03 10080   0.352E-03 0.205E-04
CGA:   8    -0.377617770685E+03   -0.84906E-04   -0.86307E-04 10080   0.122E-03 0.486E-04
CGA:   9    -0.377617808363E+03   -0.37677E-04   -0.37595E-04 10080   0.440E-04 0.177E-04
CGA:  10    -0.377617823613E+03   -0.15250E-04   -0.15151E-04 10080   0.172E-04 0.300E-05
CGA:  11    -0.377617828327E+03   -0.47140E-05   -0.47469E-05 10080   0.565E-05 0.325E-05
  27 F= -.37761783E+03 E0= -.37761783E+03  d E =0.271391E-02  mag=    12.0000
       N       E                     dE             d eps       ncg     rms          ort
SDA:   1    -0.377441017488E+03    0.17681E+00    0.00000E+00 10080   0.424E+00 0.000E+00
CGA:   2    -0.377585595315E+03   -0.14458E+00   -0.14456E+00 10080   0.146E+00 0.128E-03
CGA:   3    -0.377613652949E+03   -0.28058E-01   -0.28079E-01 10080   0.343E-01 0.220E-03
CGA:   4    -0.377619507479E+03   -0.58545E-02   -0.58183E-02 10080   0.803E-02-0.377E-03
CGA:   5    -0.377621027975E+03   -0.15205E-02   -0.15118E-02 10080   0.235E-02-0.122E-03
CGA:   6    -0.377621481942E+03   -0.45397E-03   -0.45642E-03 10080   0.642E-03 0.389E-04
CGA:   7    -0.377621661645E+03   -0.17970E-03   -0.18055E-03 10080   0.290E-03-0.417E-04
CGA:   8    -0.377621749011E+03   -0.87366E-04   -0.98487E-04 10080   0.228E-03-0.105E-03
CGA:   9    -0.377621788637E+03   -0.39625E-04   -0.40196E-04 10080   0.891E-04-0.414E-04
CGA:  10    -0.377621807402E+03   -0.18766E-04   -0.18739E-04 10080   0.335E-04-0.439E-05
CGA:  11    -0.377621816238E+03   -0.88353E-05   -0.88799E-05 10080   0.156E-04-0.281E-05
  28 F= -.37762182E+03 E0= -.37762182E+03  d E =-.398791E-02  mag=    12.0000
       N       E                     dE             d eps       ncg     rms          ort
SDA:   1    -0.377607376905E+03    0.14430E-01    0.00000E+00 10080   0.354E-01 0.000E+00
CGA:   2    -0.377619377550E+03   -0.12001E-01   -0.12001E-01 10080   0.130E-01-0.689E-05
CGA:   3    -0.377621690233E+03   -0.23127E-02   -0.23249E-02 10080   0.306E-02 0.136E-03
CGA:   4    -0.377622202896E+03   -0.51266E-03   -0.51351E-03 10080   0.670E-03 0.818E-05
CGA:   5    -0.377622330409E+03   -0.12751E-03   -0.12695E-03 10080   0.182E-03-0.852E-05
CGA:   6    -0.377622369759E+03   -0.39350E-04   -0.39078E-04 10080   0.564E-04-0.750E-05
CGA:   7    -0.377622383380E+03   -0.13621E-04   -0.13622E-04 10080   0.232E-04-0.482E-05
CGA:   8    -0.377622389991E+03   -0.66109E-05   -0.71198E-05 10080   0.150E-04-0.609E-05
CGA:   9    -0.377622359687E+03    0.30304E-04   -0.13683E-04 10080   0.213E-03-0.448E-04
CGA:  10    -0.377622389779E+03   -0.30092E-04   -0.32259E-04 10080   0.225E-04 0.141E-04
CGA:  11    -0.377622395855E+03   -0.60756E-05   -0.62267E-05 10080   0.642E-05 0.403E-05
  29 F= -.37762240E+03 E0= -.37762240E+03  d E =-.579617E-03  mag=    12.0000
       N       E                     dE             d eps       ncg     rms          ort
SDA:   1    -0.369526904252E+03    0.80955E+01    0.00000E+00 10080   0.192E+02 0.000E+00
CGA:   2    -0.376031510741E+03   -0.65046E+01   -0.65049E+01 10080   0.643E+01-0.103E-01
CGA:   3    -0.377244350737E+03   -0.12128E+01   -0.12150E+01 10080   0.155E+01 0.101E-01
CGA:   4    -0.377501192114E+03   -0.25684E+00   -0.25653E+00 10080   0.338E+00-0.302E-02
CGA:   5    -0.377565075648E+03   -0.63884E-01   -0.63675E-01 10080   0.996E-01-0.215E-02
CGA:   6    -0.377585341073E+03   -0.20265E-01   -0.20322E-01 10080   0.283E-01 0.702E-03
CGA:   7    -0.377592749562E+03   -0.74085E-02   -0.73973E-02 10080   0.120E-01-0.552E-03
CGA:   8    -0.377596350428E+03   -0.36009E-02   -0.36410E-02 10080   0.650E-02-0.125E-02
CGA:   9    -0.377597991224E+03   -0.16408E-02   -0.16411E-02 10080   0.221E-02-0.163E-03
CGA:  10    -0.377598688352E+03   -0.69713E-03   -0.71459E-03 10080   0.878E-03-0.343E-03
CGA:  11    -0.377598942511E+03   -0.25416E-03   -0.27728E-03 10080   0.456E-03-0.254E-03
CGA:  12    -0.377599024142E+03   -0.81631E-04   -0.83087E-04 10080   0.170E-03 0.467E-04
CGA:  13    -0.377599084502E+03   -0.60360E-04   -0.60722E-04 10080   0.939E-04-0.939E-05
CGA:  14    -0.377599114085E+03   -0.29583E-04   -0.29817E-04 10080   0.429E-04-0.492E-05
CGA:  15    -0.377599114288E+03   -0.20318E-06   -0.46469E-05 10080   0.233E-04 0.252E-04
  30 F= -.37759911E+03 E0= -.37759911E+03  d E =0.232816E-01  mag=    12.0000
       N       E                     dE             d eps       ncg     rms          ort
SDA:   1    -0.374310739423E+03    0.32884E+01    0.00000E+00 10080   0.773E+01 0.000E+00
CGA:   2    -0.376970664785E+03   -0.26599E+01   -0.26606E+01 10080   0.265E+01-0.935E-02
CGA:   3    -0.377467146394E+03   -0.49648E+00   -0.49715E+00 10080   0.609E+00 0.179E-02
CGA:   4    -0.377570717443E+03   -0.10357E+00   -0.10318E+00 10080   0.132E+00-0.345E-02
CGA:   5    -0.377596291938E+03   -0.25574E-01   -0.25513E-01 10080   0.397E-01-0.826E-03
CGA:   6    -0.377604005726E+03   -0.77138E-02   -0.77731E-02 10080   0.106E-01 0.879E-03
CGA:   7    -0.377606927866E+03   -0.29221E-02   -0.29256E-02 10080   0.464E-02-0.364E-03
CGA:   8    -0.377608296794E+03   -0.13689E-02   -0.14094E-02 10080   0.270E-02-0.752E-03
CGA:   9    -0.377608875189E+03   -0.57839E-03   -0.57872E-03 10080   0.846E-03 0.433E-04
CGA:  10    -0.377609129683E+03   -0.25449E-03   -0.25685E-03 10080   0.330E-03-0.661E-04
CGA:  11    -0.377609227158E+03   -0.97475E-04   -0.13788E-03 10080   0.347E-03-0.214E-03
CGA:  12    -0.377609263981E+03   -0.36823E-04   -0.50564E-04 10080   0.602E-04 0.107E-03
CGA:  13    -0.377609278420E+03   -0.14439E-04   -0.15775E-04 10080   0.273E-04 0.198E-04
CGA:  14    -0.377609108691E+03    0.16973E-03   -0.91576E-04 10080   0.737E-03-0.164E-03
CGA:  15    -0.377609208732E+03   -0.10004E-03   -0.14953E-03 10080   0.132E-03 0.177E-03
CGA:  16    -0.377609286903E+03   -0.78171E-04   -0.85449E-04 10080   0.159E-03-0.138E-03
CGA:  17    -0.377609283945E+03    0.29584E-05   -0.20661E-04 10080   0.392E-04 0.693E-04
  31 F= -.37760928E+03 E0= -.37760928E+03  d E =-.101697E-01  mag=    12.0000
       N       E                     dE             d eps       ncg     rms          ort
SDA:   1    -0.376432639834E+03    0.11766E+01    0.00000E+00 10080   0.285E+01 0.000E+00
CGA:   2    -0.377366107220E+03   -0.93347E+00   -0.93345E+00 10080   0.105E+01-0.129E-02
CGA:   3    -0.377559159927E+03   -0.19305E+00   -0.19311E+00 10080   0.268E+00 0.875E-04
CGA:   4    -0.377604041542E+03   -0.44882E-01   -0.44866E-01 10080   0.591E-01-0.546E-04
CGA:   5    -0.377615110741E+03   -0.11069E-01   -0.11029E-01 10080   0.162E-01-0.194E-03
CGA:   6    -0.377618516668E+03   -0.34059E-02   -0.33939E-02 10080   0.494E-02-0.668E-04
CGA:   7    -0.377619728107E+03   -0.12114E-02   -0.12072E-02 10080   0.189E-02-0.300E-04
CGA:   8    -0.377620266568E+03   -0.53846E-03   -0.53357E-03 10080   0.826E-03-0.506E-04
CGA:   9    -0.377620504707E+03   -0.23814E-03   -0.23660E-03 10080   0.306E-03-0.189E-04
CGA:  10    -0.377620600068E+03   -0.95361E-04   -0.93811E-04 10080   0.107E-03-0.271E-04
CGA:  11    -0.377620632353E+03   -0.32285E-04   -0.31780E-04 10080   0.377E-04-0.115E-04
CGA:  12    -0.377620639274E+03   -0.69207E-05   -0.80687E-05 10080   0.124E-04 0.904E-05
  32 F= -.37762064E+03 E0= -.37762064E+03  d E =-.113553E-01  mag=    12.0000
       N       E                     dE             d eps       ncg     rms          ort
SDA:   1    -0.377303464589E+03    0.31717E+00    0.00000E+00 10080   0.809E+00 0.000E+00
CGA:   2    -0.377534950288E+03   -0.23149E+00   -0.23157E+00 10080   0.352E+00 0.912E-03
CGA:   3    -0.377599853648E+03   -0.64903E-01   -0.64886E-01 10080   0.925E-01 0.884E-05
CGA:   4    -0.377615960502E+03   -0.16107E-01   -0.16155E-01 10080   0.221E-01 0.269E-03
CGA:   5    -0.377619962035E+03   -0.40015E-02   -0.40328E-02 10080   0.565E-02 0.199E-03
CGA:   6    -0.377621174710E+03   -0.12127E-02   -0.12116E-02 10080   0.177E-02-0.106E-04
CGA:   7    -0.377621599358E+03   -0.42465E-03   -0.42859E-03 10080   0.639E-03 0.509E-04
CGA:   8    -0.377621747395E+03   -0.14804E-03   -0.15499E-03 10080   0.213E-03 0.862E-04
CGA:   9    -0.377621816382E+03   -0.68987E-04   -0.69451E-04 10080   0.817E-04 0.181E-04
CGA:  10    -0.377621838735E+03   -0.22353E-04   -0.23073E-04 10080   0.269E-04 0.142E-04
CGA:  11    -0.377621843474E+03   -0.47391E-05   -0.61713E-05 10080   0.930E-05 0.126E-04
  33 F= -.37762184E+03 E0= -.37762184E+03  d E =-.120420E-02  mag=    12.0000
       N       E                     dE             d eps       ncg     rms          ort
SDA:   1    -0.377216158284E+03    0.40568E+00    0.00000E+00 10080   0.948E+00 0.000E+00
CGA:   2    -0.377549167087E+03   -0.33301E+00   -0.33302E+00 10080   0.302E+00-0.254E-03
CGA:   3    -0.377607558160E+03   -0.58391E-01   -0.58426E-01 10080   0.694E-01 0.188E-03
CGA:   4    -0.377619040999E+03   -0.11483E-01   -0.11415E-01 10080   0.157E-01-0.536E-03
CGA:   5    -0.377622062551E+03   -0.30216E-02   -0.30171E-02 10080   0.450E-02-0.493E-04
CGA:   6    -0.377622914135E+03   -0.85158E-03   -0.86803E-03 10080   0.121E-02 0.181E-03
CGA:   7    -0.377623249553E+03   -0.33542E-03   -0.33504E-03 10080   0.531E-03-0.277E-04
CGA:   8    -0.377623413763E+03   -0.16421E-03   -0.16780E-03 10080   0.316E-03-0.796E-04
CGA:   9    -0.377623478585E+03   -0.64822E-04   -0.65622E-04 10080   0.101E-03 0.221E-04
CGA:  10    -0.377623508348E+03   -0.29763E-04   -0.29768E-04 10080   0.375E-04 0.136E-05
CGA:  11    -0.377623521497E+03   -0.13149E-04   -0.16809E-04 10080   0.384E-04-0.225E-04
CGA:  12    -0.377623525310E+03   -0.38137E-05   -0.55634E-05 10080   0.702E-05 0.123E-04
  34 F= -.37762353E+03 E0= -.37762353E+03  d E =-.168184E-02  mag=    12.0000
       N       E                     dE             d eps       ncg     rms          ort
SDA:   1    -0.374888115316E+03    0.27354E+01    0.00000E+00 10080   0.640E+01 0.000E+00
CGA:   2    -0.377109686343E+03   -0.22216E+01   -0.22215E+01 10080   0.198E+01-0.261E-03
CGA:   3    -0.377508601452E+03   -0.39892E+00   -0.39915E+00 10080   0.430E+00 0.989E-03
CGA:   4    -0.377579414899E+03   -0.70813E-01   -0.70469E-01 10080   0.990E-01-0.293E-02
CGA:   5    -0.377598520610E+03   -0.19106E-01   -0.19066E-01 10080   0.284E-01-0.512E-03
CGA:   6    -0.377603922824E+03   -0.54022E-02   -0.54596E-02 10080   0.776E-02 0.757E-03
CGA:   7    -0.377606059351E+03   -0.21365E-02   -0.21375E-02 10080   0.343E-02-0.253E-03
CGA:   8    -0.377607101417E+03   -0.10421E-02   -0.10691E-02 10080   0.205E-02-0.467E-03
CGA:   9    -0.377607566566E+03   -0.46515E-03   -0.46540E-03 10080   0.680E-03 0.609E-04
CGA:  10    -0.377607788484E+03   -0.22192E-03   -0.22769E-03 10080   0.296E-03-0.996E-04
CGA:  11    -0.377607873318E+03   -0.84835E-04   -0.95460E-04 10080   0.179E-03-0.991E-04
CGA:  12    -0.377607894407E+03   -0.21088E-04   -0.23750E-04 10080   0.796E-04 0.349E-04
CGA:  13    -0.377607910309E+03   -0.15902E-04   -0.17878E-04 10080   0.333E-04 0.235E-04
CGA:  14    -0.377607925937E+03   -0.15628E-04   -0.17869E-04 10080   0.303E-04-0.154E-04
CGA:  15    -0.377607925452E+03    0.48476E-06   -0.12829E-05 10080   0.240E-04 0.900E-05
  35 F= -.37760793E+03 E0= -.37760793E+03  d E =0.155999E-01  mag=    12.0000
       N       E                     dE             d eps       ncg     rms          ort
SDA:   1    -0.349461493848E+03    0.28146E+02    0.00000E+00 10080   0.686E+02 0.000E+00
CGA:   2    -0.368287771786E+03   -0.18826E+02   -0.18817E+02 10080   0.314E+02 0.297E+00
CGA:   3    -0.374273440837E+03   -0.59857E+01   -0.59791E+01 10080   0.811E+01-0.130E-01
CGA:   4    -0.375701933932E+03   -0.14285E+01   -0.14283E+01 10080   0.211E+01-0.448E-02
CGA:   5    -0.376087128417E+03   -0.38519E+00   -0.38584E+00 10080   0.531E+00 0.690E-02
CGA:   6    -0.376199402527E+03   -0.11227E+00   -0.11236E+00 10080   0.168E+00 0.222E-02
CGA:   7    -0.376241592928E+03   -0.42190E-01   -0.42190E-01 10080   0.654E-01-0.403E-04
CGA:   8    -0.376258309694E+03   -0.16717E-01   -0.16705E-01 10080   0.228E-01 0.104E-02
CGA:   9    -0.376264942807E+03   -0.66331E-02   -0.66349E-02 10080   0.782E-02-0.433E-04
CGA:  10    -0.376267178720E+03   -0.22359E-02   -0.22331E-02 10080   0.244E-02 0.702E-04
CGA:  11    -0.376267818838E+03   -0.64012E-03   -0.63714E-03 10080   0.632E-03 0.313E-03
CGA:  12    -0.376268056136E+03   -0.23730E-03   -0.24088E-03 10080   0.264E-03-0.409E-04
CGA:  13    -0.376268112854E+03   -0.56718E-04   -0.58060E-04 10080   0.943E-04 0.698E-04
CGA:  14    -0.376268140354E+03   -0.27500E-04   -0.28131E-04 10080   0.421E-04 0.369E-04
CGA:  15    -0.376268160988E+03   -0.20634E-04   -0.20254E-04 10080   0.265E-04 0.396E-05
CGA:  16    -0.376268162958E+03   -0.19703E-05   -0.40590E-05 10080   0.169E-04 0.178E-04
  36 F= -.37626816E+03 E0= -.37626816E+03  d E =0.133976E+01  mag=    12.0000
       N       E                     dE             d eps       ncg     rms          ort
SDA:   1    -0.372714743902E+03    0.35534E+01    0.00000E+00 10080   0.110E+02 0.000E+00
CGA:   2    -0.376192581829E+03   -0.34778E+01   -0.34779E+01 10080   0.437E+01-0.411E-02
CGA:   3    -0.376986421129E+03   -0.79384E+00   -0.79396E+00 10080   0.121E+01 0.432E-02
CGA:   4    -0.377207012307E+03   -0.22059E+00   -0.22076E+00 10080   0.315E+00 0.193E-02
CGA:   5    -0.377264203174E+03   -0.57191E-01   -0.57219E-01 10080   0.830E-01 0.225E-03
CGA:   6    -0.377282372066E+03   -0.18169E-01   -0.18170E-01 10080   0.294E-01 0.600E-04
CGA:   7    -0.377289891742E+03   -0.75197E-02   -0.75135E-02 10080   0.114E-01 0.380E-03
CGA:   8    -0.377292864744E+03   -0.29730E-02   -0.29680E-02 10080   0.415E-02 0.303E-03
CGA:   9    -0.377294032539E+03   -0.11678E-02   -0.11641E-02 10080   0.131E-02 0.115E-03
CGA:  10    -0.377294414913E+03   -0.38237E-03   -0.38073E-03 10080   0.394E-03 0.392E-04
CGA:  11    -0.377294539803E+03   -0.12489E-03   -0.12618E-03 10080   0.134E-03-0.197E-04
CGA:  12    -0.377294573080E+03   -0.33277E-04   -0.33012E-04 10080   0.416E-04 0.216E-04
CGA:  13    -0.377294585622E+03   -0.12542E-04   -0.12416E-04 10080   0.172E-04 0.139E-04
CGA:  14    -0.377294594183E+03   -0.85606E-05   -0.83054E-05 10080   0.106E-04 0.226E-05
  37 F= -.37729459E+03 E0= -.37729459E+03  d E =-.102643E+01  mag=    12.0000
       N       E                     dE             d eps       ncg     rms          ort
SDA:   1    -0.375324464067E+03    0.19701E+01    0.00000E+00 10080   0.556E+01 0.000E+00
CGA:   2    -0.376944067313E+03   -0.16196E+01   -0.16193E+01 10080   0.245E+01 0.544E-02
CGA:   3    -0.377393937460E+03   -0.44987E+00   -0.44996E+00 10080   0.678E+00 0.733E-03
CGA:   4    -0.377514779628E+03   -0.12084E+00   -0.12098E+00 10080   0.175E+00 0.162E-02
CGA:   5    -0.377546879123E+03   -0.32099E-01   -0.32154E-01 10080   0.442E-01 0.759E-03
CGA:   6    -0.377556384806E+03   -0.95057E-02   -0.94984E-02 10080   0.151E-01-0.245E-03
CGA:   7    -0.377560131452E+03   -0.37466E-02   -0.37449E-02 10080   0.572E-02 0.258E-03
CGA:   8    -0.377561566941E+03   -0.14355E-02   -0.14343E-02 10080   0.192E-02 0.421E-03
CGA:   9    -0.377562174353E+03   -0.60741E-03   -0.60810E-03 10080   0.704E-03-0.137E-04
CGA:  10    -0.377562365327E+03   -0.19097E-03   -0.19003E-03 10080   0.211E-03 0.372E-04
CGA:  11    -0.377562426615E+03   -0.61288E-04   -0.60772E-04 10080   0.586E-04 0.197E-04
CGA:  12    -0.377562449275E+03   -0.22660E-04   -0.23640E-04 10080   0.292E-04-0.818E-05
CGA:  13    -0.377562451349E+03   -0.20736E-05   -0.36514E-05 10080   0.147E-04 0.144E-04
  38 F= -.37756245E+03 E0= -.37756245E+03  d E =-.267857E+00  mag=    12.0000
       N       E                     dE             d eps       ncg     rms          ort
SDA:   1    -0.377327209031E+03    0.23524E+00    0.00000E+00 10080   0.749E+00 0.000E+00
CGA:   2    -0.377516551237E+03   -0.18934E+00   -0.18931E+00 10080   0.347E+00 0.298E-02
CGA:   3    -0.377584382321E+03   -0.67831E-01   -0.67855E-01 10080   0.100E+00 0.322E-03
CGA:   4    -0.377601831923E+03   -0.17450E-01   -0.17486E-01 10080   0.249E-01 0.520E-03
CGA:   5    -0.377606395078E+03   -0.45632E-02   -0.45799E-02 10080   0.617E-02 0.298E-03
CGA:   6    -0.377607723192E+03   -0.13281E-02   -0.13250E-02 10080   0.193E-02-0.134E-03
CGA:   7    -0.377608165240E+03   -0.44205E-03   -0.44205E-03 10080   0.673E-03 0.732E-04
CGA:   8    -0.377608307186E+03   -0.14195E-03   -0.14578E-03 10080   0.195E-03 0.149E-03
CGA:   9    -0.377608372860E+03   -0.65674E-04   -0.64656E-04 10080   0.804E-04 0.264E-04
CGA:  10    -0.377608402301E+03   -0.29442E-04   -0.30388E-04 10080   0.438E-04-0.967E-05
CGA:  11    -0.377608407339E+03   -0.50377E-05   -0.62302E-05 10080   0.167E-04 0.153E-04
  39 F= -.37760841E+03 E0= -.37760841E+03  d E =-.459560E-01  mag=    12.0000
       N       E                     dE             d eps       ncg     rms          ort
SDA:   1    -0.377198660975E+03    0.40974E+00    0.00000E+00 10080   0.120E+01 0.000E+00
CGA:   2    -0.377487648015E+03   -0.28899E+00   -0.28893E+00 10080   0.553E+00 0.515E-02
CGA:   3    -0.377598881530E+03   -0.11123E+00   -0.11122E+00 10080   0.164E+00-0.542E-03
CGA:   4    -0.377627211015E+03   -0.28329E-01   -0.28333E-01 10080   0.400E-01 0.381E-04
CGA:   5    -0.377634518580E+03   -0.73076E-02   -0.73220E-02 10080   0.991E-02 0.321E-03
CGA:   6    -0.377636614861E+03   -0.20963E-02   -0.20942E-02 10080   0.293E-02-0.141E-03
CGA:   7    -0.377637297188E+03   -0.68233E-03   -0.68172E-03 10080   0.104E-02 0.497E-04
CGA:   8    -0.377637529842E+03   -0.23265E-03   -0.23331E-03 10080   0.298E-03 0.156E-03
CGA:   9    -0.377637633447E+03   -0.10360E-03   -0.10385E-03 10080   0.130E-03-0.316E-05
CGA:  10    -0.377637673031E+03   -0.39584E-04   -0.40886E-04 10080   0.586E-04-0.147E-04
CGA:  11    -0.377637682556E+03   -0.95253E-05   -0.10123E-04 10080   0.183E-04 0.158E-04
  40 F= -.37763768E+03 E0= -.37763768E+03  d E =-.292752E-01  mag=    12.0000
       N       E                     dE             d eps       ncg     rms          ort
SDA:   1    -0.377591495739E+03    0.46177E-01    0.00000E+00 10080   0.135E+00 0.000E+00
CGA:   2    -0.377623744670E+03   -0.32249E-01   -0.32240E-01 10080   0.617E-01 0.837E-03
CGA:   3    -0.377636341884E+03   -0.12597E-01   -0.12593E-01 10080   0.182E-01-0.183E-03
CGA:   4    -0.377639528210E+03   -0.31863E-02   -0.31769E-02 10080   0.444E-02-0.179E-03
CGA:   5    -0.377640342455E+03   -0.81425E-03   -0.81315E-03 10080   0.112E-02-0.280E-04
CGA:   6    -0.377640573403E+03   -0.23095E-03   -0.23074E-03 10080   0.324E-03-0.133E-04
CGA:   7    -0.377640649412E+03   -0.76009E-04   -0.75995E-04 10080   0.117E-03 0.924E-06
CGA:   8    -0.377640679590E+03   -0.30178E-04   -0.30214E-04 10080   0.402E-04-0.110E-05
CGA:   9    -0.377640692141E+03   -0.12551E-04   -0.17404E-04 10080   0.419E-04-0.229E-04
CGA:  10    -0.377640697920E+03   -0.57795E-05   -0.62994E-05 10080   0.520E-05 0.610E-05
  41 F= -.37764070E+03 E0= -.37764070E+03  d E =-.301536E-02  mag=    12.0000
       N       E                     dE             d eps       ncg     rms          ort
SDA:   1    -0.377546082399E+03    0.94610E-01    0.00000E+00 10080   0.253E+00 0.000E+00
CGA:   2    -0.377606527013E+03   -0.60445E-01   -0.60439E-01 10080   0.113E+00 0.120E-02
CGA:   3    -0.377629770877E+03   -0.23244E-01   -0.23232E-01 10080   0.342E-01-0.461E-03
CGA:   4    -0.377635712400E+03   -0.59415E-02   -0.59113E-02 10080   0.828E-02-0.512E-03
CGA:   5    -0.377637207216E+03   -0.14948E-02   -0.14893E-02 10080   0.213E-02-0.117E-03
CGA:   6    -0.377637632996E+03   -0.42578E-03   -0.42615E-03 10080   0.587E-03 0.146E-04
CGA:   7    -0.377637775716E+03   -0.14272E-03   -0.14277E-03 10080   0.219E-03-0.353E-05
CGA:   8    -0.377637838121E+03   -0.62405E-04   -0.64922E-04 10080   0.104E-03-0.355E-04
CGA:   9    -0.377637864536E+03   -0.26414E-04   -0.30204E-04 10080   0.603E-04-0.326E-04
CGA:  10    -0.377637875202E+03   -0.10667E-04   -0.10747E-04 10080   0.199E-04-0.341E-05
CGA:  11    -0.377637880022E+03   -0.48194E-05   -0.47873E-05 10080   0.714E-05 0.186E-05
  42 F= -.37763788E+03 E0= -.37763788E+03  d E =0.281790E-02  mag=    12.0000
       N       E                     dE             d eps       ncg     rms          ort
SDA:   1    -0.377620278161E+03    0.17597E-01    0.00000E+00 10080   0.382E-01 0.000E+00
CGA:   2    -0.377630684597E+03   -0.10406E-01   -0.10389E-01 10080   0.130E-01 0.609E-03
CGA:   3    -0.377633625176E+03   -0.29406E-02   -0.29368E-02 10080   0.392E-02-0.166E-03
CGA:   4    -0.377634280765E+03   -0.65559E-03   -0.63636E-03 10080   0.916E-03-0.241E-03
CGA:   5    -0.377634440639E+03   -0.15987E-03   -0.15744E-03 10080   0.265E-03-0.426E-04
CGA:   6    -0.377634482379E+03   -0.41739E-04   -0.43571E-04 10080   0.686E-04 0.281E-04
CGA:   7    -0.377634503001E+03   -0.20622E-04   -0.20690E-04 10080   0.377E-04-0.182E-05
CGA:   8    -0.377634470072E+03    0.32929E-04   -0.35345E-04 10080   0.374E-03-0.941E-04
CGA:   9    -0.377634518739E+03   -0.48667E-04   -0.53278E-04 10080   0.397E-04 0.353E-04
CGA:  10    -0.377634528399E+03   -0.96598E-05   -0.10002E-04 10080   0.995E-05 0.957E-05
  43 F= -.37763453E+03 E0= -.37763453E+03  d E =0.335162E-02  mag=    12.0000
       N       E                     dE             d eps       ncg     rms          ort
SDA:   1    -0.377417995414E+03    0.21652E+00    0.00000E+00 10080   0.537E+00 0.000E+00
CGA:   2    -0.377570279752E+03   -0.15228E+00   -0.15224E+00 10080   0.173E+00 0.315E-02
CGA:   3    -0.377610168660E+03   -0.39889E-01   -0.39859E-01 10080   0.457E-01-0.735E-03
CGA:   4    -0.377617263734E+03   -0.70951E-02   -0.70228E-02 10080   0.101E-01-0.646E-03
CGA:   5    -0.377619202108E+03   -0.19384E-02   -0.19289E-02 10080   0.270E-02-0.137E-03
CGA:   6    -0.377619730336E+03   -0.52823E-03   -0.53420E-03 10080   0.834E-03 0.984E-04
CGA:   7    -0.377619965689E+03   -0.23535E-03   -0.23507E-03 10080   0.396E-03 0.195E-04
CGA:   8    -0.377620103323E+03   -0.13763E-03   -0.14226E-03 10080   0.277E-03-0.497E-04
CGA:   9    -0.377620173320E+03   -0.69997E-04   -0.70054E-04 10080   0.109E-03-0.215E-05
CGA:  10    -0.377620204386E+03   -0.31066E-04   -0.31088E-04 10080   0.377E-04-0.100E-05
CGA:  11    -0.377620217447E+03   -0.13061E-04   -0.14453E-04 10080   0.232E-04-0.114E-04
CGA:  12    -0.377620221173E+03   -0.37255E-05   -0.38021E-05 10080   0.940E-05 0.212E-05
  44 F= -.37762022E+03 E0= -.37762022E+03  d E =0.143072E-01  mag=    12.0000
       N       E                     dE             d eps       ncg     rms          ort
SDA:   1    -0.377346229852E+03    0.27399E+00    0.00000E+00 10080   0.692E+00 0.000E+00
CGA:   2    -0.377538208304E+03   -0.19198E+00   -0.19192E+00 10080   0.216E+00 0.495E-02
CGA:   3    -0.377590431566E+03   -0.52223E-01   -0.52188E-01 10080   0.519E-01-0.138E-02
CGA:   4    -0.377598658355E+03   -0.82268E-02   -0.81570E-02 10080   0.121E-01-0.666E-03
CGA:   5    -0.377600960666E+03   -0.23023E-02   -0.22931E-02 10080   0.331E-02-0.136E-03
CGA:   6    -0.377601617523E+03   -0.65686E-03   -0.66089E-03 10080   0.109E-02 0.724E-04
CGA:   7    -0.377601909082E+03   -0.29156E-03   -0.29120E-03 10080   0.501E-03 0.419E-04
CGA:   8    -0.377602074512E+03   -0.16543E-03   -0.16593E-03 10080   0.297E-03-0.776E-05
CGA:   9    -0.377602167475E+03   -0.92963E-04   -0.93448E-04 10080   0.134E-03-0.788E-05
CGA:  10    -0.377602207232E+03   -0.39757E-04   -0.40169E-04 10080   0.475E-04-0.880E-05
CGA:  11    -0.377602221625E+03   -0.14393E-04   -0.14700E-04 10080   0.183E-04-0.453E-05
CGA:  12    -0.377602226193E+03   -0.45678E-05   -0.45463E-05 10080   0.621E-05 0.257E-05
  45 F= -.37760223E+03 E0= -.37760223E+03  d E =0.179950E-01  mag=    12.0000
       N       E                     dE             d eps       ncg     rms          ort
SDA:   1    -0.377548311896E+03    0.53910E-01    0.00000E+00 10080   0.129E+00 0.000E+00
CGA:   2    -0.377581591808E+03   -0.33280E-01   -0.33295E-01 10080   0.411E-01 0.221E-02
CGA:   3    -0.377591563525E+03   -0.99717E-02   -0.99584E-02 10080   0.124E-01-0.515E-03
CGA:   4    -0.377593516948E+03   -0.19534E-02   -0.19204E-02 10080   0.262E-02-0.316E-03
CGA:   5    -0.377594006511E+03   -0.48956E-03   -0.48559E-03 10080   0.762E-03-0.590E-04
CGA:   6    -0.377594151375E+03   -0.14486E-03   -0.14627E-03 10080   0.229E-03 0.240E-04
CGA:   7    -0.377594209271E+03   -0.57896E-04   -0.58048E-04 10080   0.959E-04 0.250E-04
CGA:   8    -0.377594238870E+03   -0.29600E-04   -0.29264E-04 10080   0.484E-04 0.140E-04
CGA:   9    -0.377594256260E+03   -0.17389E-04   -0.17076E-04 10080   0.240E-04 0.564E-05
CGA:  10    -0.377594264333E+03   -0.80735E-05   -0.79776E-05 10080   0.920E-05 0.227E-05
  46 F= -.37759426E+03 E0= -.37759426E+03  d E =0.796186E-02  mag=    12.0000
       N       E                     dE             d eps       ncg     rms          ort
SDA:   1    -0.377511735284E+03    0.82521E-01    0.00000E+00 10080   0.202E+00 0.000E+00
CGA:   2    -0.377564689688E+03   -0.52954E-01   -0.52945E-01 10080   0.605E-01 0.310E-02
CGA:   3    -0.377580203590E+03   -0.15514E-01   -0.15509E-01 10080   0.157E-01-0.718E-03
CGA:   4    -0.377582692622E+03   -0.24890E-02   -0.24552E-02 10080   0.369E-02-0.342E-03
CGA:   5    -0.377583391354E+03   -0.69873E-03   -0.69435E-03 10080   0.998E-03-0.721E-04
CGA:   6    -0.377583590080E+03   -0.19873E-03   -0.20065E-03 10080   0.331E-03 0.419E-04
CGA:   7    -0.377583677960E+03   -0.87881E-04   -0.87664E-04 10080   0.146E-03 0.393E-04
CGA:   8    -0.377583727455E+03   -0.49495E-04   -0.48640E-04 10080   0.803E-04 0.176E-04
CGA:   9    -0.377583755698E+03   -0.28243E-04   -0.27768E-04 10080   0.367E-04 0.822E-05
CGA:  10    -0.377583768349E+03   -0.12651E-04   -0.12638E-04 10080   0.141E-04 0.218E-06
CGA:  11    -0.377583773038E+03   -0.46891E-05   -0.47807E-05 10080   0.554E-05-0.113E-05
  47 F= -.37758377E+03 E0= -.37758377E+03  d E =0.104913E-01  mag=    12.0000
       N       E                     dE             d eps       ncg     rms          ort
SDA:   1    -0.376783812235E+03    0.79996E+00    0.00000E+00 10080   0.213E+01 0.000E+00
CGA:   2    -0.377353058544E+03   -0.56925E+00   -0.56915E+00 10080   0.624E+00 0.114E-01
CGA:   3    -0.377515415216E+03   -0.16236E+00   -0.16235E+00 10080   0.127E+00-0.240E-02
CGA:   4    -0.377537076814E+03   -0.21662E-01   -0.21513E-01 10080   0.329E-01-0.168E-02
CGA:   5    -0.377543221964E+03   -0.61451E-02   -0.61329E-02 10080   0.851E-02-0.186E-03
CGA:   6    -0.377545022757E+03   -0.18008E-02   -0.18109E-02 10080   0.323E-02 0.262E-03
CGA:   7    -0.377545960519E+03   -0.93776E-03   -0.93880E-03 10080   0.169E-02-0.336E-04
CGA:   8    -0.377546502105E+03   -0.54159E-03   -0.54223E-03 10080   0.956E-03-0.914E-05
CGA:   9    -0.377546786383E+03   -0.28428E-03   -0.28352E-03 10080   0.369E-03 0.178E-04
CGA:  10    -0.377546912508E+03   -0.12613E-03   -0.13594E-03 10080   0.185E-03-0.942E-04
CGA:  11    -0.377546941074E+03   -0.28566E-04   -0.29796E-04 10080   0.598E-04 0.263E-04
CGA:  12    -0.377546954277E+03   -0.13203E-04   -0.13969E-04 10080   0.227E-04 0.136E-04
CGA:  13    -0.377546964211E+03   -0.99339E-05   -0.11455E-04 10080   0.194E-04-0.997E-05
  48 F= -.37754696E+03 E0= -.37754696E+03  d E =0.368088E-01  mag=    12.0000
       N       E                     dE             d eps       ncg     rms          ort
SDA:   1    -0.361542503092E+03    0.16004E+02    0.00000E+00 10080   0.452E+02 0.000E+00
CGA:   2    -0.373276810079E+03   -0.11734E+02   -0.11732E+02 10080   0.132E+02 0.262E+00
CGA:   3    -0.376614333224E+03   -0.33375E+01   -0.33376E+01 10080   0.308E+01-0.135E-02
CGA:   4    -0.377148921456E+03   -0.53459E+00   -0.53266E+00 10080   0.662E+00-0.201E-01
CGA:   5    -0.377281897362E+03   -0.13298E+00   -0.13299E+00 10080   0.199E+00-0.380E-04
CGA:   6    -0.377323297949E+03   -0.41401E-01   -0.41500E-01 10080   0.741E-01 0.238E-02
CGA:   7    -0.377345133050E+03   -0.21835E-01   -0.21954E-01 10080   0.381E-01-0.265E-02
CGA:   8    -0.377356625099E+03   -0.11492E-01   -0.11544E-01 10080   0.195E-01-0.802E-03
CGA:   9    -0.377362347076E+03   -0.57220E-02   -0.57316E-02 10080   0.750E-02-0.204E-03
CGA:  10    -0.377364699227E+03   -0.23522E-02   -0.24351E-02 10080   0.317E-02-0.114E-02
CGA:  11    -0.377365391805E+03   -0.69258E-03   -0.69296E-03 10080   0.101E-02 0.349E-03
CGA:  12    -0.377365761592E+03   -0.36979E-03   -0.36964E-03 10080   0.495E-03 0.152E-05
CGA:  13    -0.377365940480E+03   -0.17889E-03   -0.18394E-03 10080   0.247E-03-0.468E-04
CGA:  14    -0.377365953270E+03   -0.12790E-04   -0.29640E-04 10080   0.117E-03 0.124E-03
CGA:  15    -0.377365967567E+03   -0.14296E-04   -0.19773E-04 10080   0.363E-04 0.592E-04
CGA:  16    -0.377365982678E+03   -0.15111E-04   -0.13873E-04 10080   0.822E-05 0.983E-05
CGA:  17    -0.377365981295E+03    0.13825E-05   -0.58115E-06 10080   0.717E-05 0.947E-05
  49 F= -.37736598E+03 E0= -.37736598E+03  d E =0.180983E+00  mag=    12.0000
       N       E                     dE             d eps       ncg     rms          ort
SDA:   1    -0.376607112949E+03    0.75887E+00    0.00000E+00 10080   0.189E+01 0.000E+00
CGA:   2    -0.377138653459E+03   -0.53154E+00   -0.53158E+00 10080   0.878E+00-0.179E-02
CGA:   3    -0.377305838188E+03   -0.16718E+00   -0.16709E+00 10080   0.223E+00-0.129E-02
CGA:   4    -0.377345785508E+03   -0.39947E-01   -0.40003E-01 10080   0.548E-01 0.832E-03
CGA:   5    -0.377355253660E+03   -0.94682E-02   -0.95131E-02 10080   0.139E-01 0.666E-03
CGA:   6    -0.377358306587E+03   -0.30529E-02   -0.30528E-02 10080   0.431E-02-0.110E-04
CGA:   7    -0.377359450604E+03   -0.11440E-02   -0.11511E-02 10080   0.193E-02-0.216E-03
CGA:   8    -0.377359877315E+03   -0.42671E-03   -0.42702E-03 10080   0.626E-03 0.997E-04
CGA:   9    -0.377360055550E+03   -0.17824E-03   -0.17671E-03 10080   0.209E-03 0.470E-04
CGA:  10    -0.377360129329E+03   -0.73778E-04   -0.10389E-03 10080   0.243E-03-0.134E-03
CGA:  11    -0.377360157794E+03   -0.28465E-04   -0.34702E-04 10080   0.308E-04 0.590E-04
CGA:  12    -0.377360167259E+03   -0.94651E-05   -0.94580E-05 10080   0.136E-04 0.209E-05
  50 F= -.37736017E+03 E0= -.37736017E+03  d E =0.581404E-02  mag=    12.0000
       N       E                     dE             d eps       ncg     rms          ort
SDA:   1    -0.372538190876E+03    0.48220E+01    0.00000E+00 10080   0.138E+02 0.000E+00
CGA:   2    -0.376217196655E+03   -0.36790E+01   -0.36779E+01 10080   0.417E+01 0.107E-01
CGA:   3    -0.377251323024E+03   -0.10341E+01   -0.10341E+01 10080   0.969E+00 0.113E-01
CGA:   4    -0.377410401747E+03   -0.15908E+00   -0.15890E+00 10080   0.227E+00-0.104E-02
CGA:   5    -0.377453964016E+03   -0.43562E-01   -0.43557E-01 10080   0.630E-01-0.159E-03
CGA:   6    -0.377467274437E+03   -0.13310E-01   -0.13317E-01 10080   0.235E-01 0.200E-03
CGA:   7    -0.377474080163E+03   -0.68057E-02   -0.68919E-02 10080   0.125E-01-0.156E-02
CGA:   8    -0.377477761450E+03   -0.36813E-02   -0.37493E-02 10080   0.718E-02-0.846E-03
CGA:   9    -0.377479632856E+03   -0.18714E-02   -0.18704E-02 10080   0.257E-02 0.285E-04
CGA:  10    -0.377480451422E+03   -0.81857E-03   -0.85141E-03 10080   0.109E-02-0.391E-03
CGA:  11    -0.377480687317E+03   -0.23590E-03   -0.23538E-03 10080   0.343E-03 0.856E-04
CGA:  12    -0.377480785541E+03   -0.98223E-04   -0.97379E-04 10080   0.135E-03 0.634E-04
CGA:  13    -0.377480842327E+03   -0.56786E-04   -0.57604E-04 10080   0.751E-04-0.754E-05
CGA:  14    -0.377480845664E+03   -0.33369E-05   -0.88705E-05 10080   0.395E-04 0.422E-04
  51 F= -.37748085E+03 E0= -.37748085E+03  d E =-.120678E+00  mag=    12.0000
       N       E                     dE             d eps       ncg     rms          ort
SDA:   1    -0.377137817065E+03    0.34303E+00    0.00000E+00 10080   0.859E+00 0.000E+00
CGA:   2    -0.377378922081E+03   -0.24111E+00   -0.24080E+00 10080   0.263E+00 0.770E-02
CGA:   3    -0.377445227774E+03   -0.66306E-01   -0.66316E-01 10080   0.528E-01-0.214E-02
CGA:   4    -0.377454159318E+03   -0.89315E-02   -0.88414E-02 10080   0.135E-01-0.119E-02
CGA:   5    -0.377456699266E+03   -0.25399E-02   -0.25351E-02 10080   0.341E-02-0.972E-04
CGA:   6    -0.377457370208E+03   -0.67094E-03   -0.67998E-03 10080   0.115E-02 0.233E-03
CGA:   7    -0.377457704869E+03   -0.33466E-03   -0.33393E-03 10080   0.556E-03 0.208E-04
CGA:   8    -0.377457887605E+03   -0.18274E-03   -0.18294E-03 10080   0.323E-03-0.243E-05
CGA:   9    -0.377457975551E+03   -0.87946E-04   -0.86915E-04 10080   0.117E-03 0.380E-04
CGA:  10    -0.377458021845E+03   -0.46294E-04   -0.57387E-04 10080   0.104E-03-0.571E-04
CGA:  11    -0.377458030846E+03   -0.90012E-05   -0.94074E-05 10080   0.544E-04 0.527E-05
  52 F= -.37745803E+03 E0= -.37745803E+03  d E =0.228148E-01  mag=    12.0000
       N       E                     dE             d eps       ncg     rms          ort
SDA:   1    -0.376722298201E+03    0.73572E+00    0.00000E+00 10080   0.188E+01 0.000E+00
CGA:   2    -0.377254176790E+03   -0.53188E+00   -0.53142E+00 10080   0.581E+00 0.110E-01
CGA:   3    -0.377398965156E+03   -0.14479E+00   -0.14479E+00 10080   0.118E+00-0.334E-02
CGA:   4    -0.377418471938E+03   -0.19507E-01   -0.19357E-01 10080   0.301E-01-0.183E-02
CGA:   5    -0.377424062453E+03   -0.55905E-02   -0.55833E-02 10080   0.773E-02-0.137E-03
CGA:   6    -0.377425623672E+03   -0.15612E-02   -0.15721E-02 10080   0.264E-02 0.302E-03
CGA:   7    -0.377426390988E+03   -0.76732E-03   -0.76980E-03 10080   0.135E-02-0.584E-04
CGA:   8    -0.377426813658E+03   -0.42267E-03   -0.42882E-03 10080   0.814E-03-0.726E-04
CGA:   9    -0.377427039766E+03   -0.22611E-03   -0.22565E-03 10080   0.311E-03 0.948E-05
CGA:  10    -0.377427143582E+03   -0.10382E-03   -0.11149E-03 10080   0.152E-03-0.715E-04
CGA:  11    -0.377427170926E+03   -0.27344E-04   -0.27599E-04 10080   0.491E-04 0.150E-04
CGA:  12    -0.377427183179E+03   -0.12253E-04   -0.12438E-04 10080   0.195E-04 0.888E-05
CGA:  13    -0.377427191396E+03   -0.82170E-05   -0.87789E-05 10080   0.132E-04-0.435E-05
  53 F= -.37742719E+03 E0= -.37742719E+03  d E =0.308395E-01  mag=    12.0000
       N       E                     dE             d eps       ncg     rms          ort
SDA:   1    -0.373784675051E+03    0.36425E+01    0.00000E+00 10080   0.953E+01 0.000E+00
CGA:   2    -0.376377163704E+03   -0.25925E+01   -0.25915E+01 10080   0.350E+01 0.312E-01
CGA:   3    -0.377124661019E+03   -0.74750E+00   -0.74718E+00 10080   0.101E+01-0.786E-02
CGA:   4    -0.377284953798E+03   -0.16029E+00   -0.15998E+00 10080   0.205E+00-0.440E-02
CGA:   5    -0.377322775374E+03   -0.37822E-01   -0.37782E-01 10080   0.585E-01-0.750E-03
CGA:   6    -0.377334828128E+03   -0.12053E-01   -0.12059E-01 10080   0.177E-01 0.179E-03
CGA:   7    -0.377339360041E+03   -0.45319E-02   -0.45299E-02 10080   0.761E-02 0.119E-03
CGA:   8    -0.377341578574E+03   -0.22185E-02   -0.22255E-02 10080   0.376E-02-0.140E-03
CGA:   9    -0.377342783132E+03   -0.12046E-02   -0.12301E-02 10080   0.183E-02-0.282E-03
CGA:  10    -0.377343284490E+03   -0.50136E-03   -0.50357E-03 10080   0.630E-03-0.449E-04
CGA:  11    -0.377343486080E+03   -0.20159E-03   -0.20460E-03 10080   0.251E-03-0.367E-04
CGA:  12    -0.377343569924E+03   -0.83844E-04   -0.85792E-04 10080   0.116E-03-0.180E-04
CGA:  13    -0.377343598530E+03   -0.28606E-04   -0.28476E-04 10080   0.399E-04 0.281E-04
CGA:  14    -0.377343609789E+03   -0.11258E-04   -0.11640E-04 10080   0.142E-04 0.152E-04
CGA:  15    -0.377343613017E+03   -0.32278E-05   -0.37985E-05 10080   0.574E-05 0.885E-05
  54 F= -.37734361E+03 E0= -.37734361E+03  d E =0.835784E-01  mag=    12.0000
       N       E                     dE             d eps       ncg     rms          ort
SDA:   1    -0.376437417320E+03    0.90619E+00    0.00000E+00 10080   0.257E+01 0.000E+00
CGA:   2    -0.377141034639E+03   -0.70362E+00   -0.70380E+00 10080   0.923E+00-0.986E-02
CGA:   3    -0.377339746038E+03   -0.19871E+00   -0.19881E+00 10080   0.262E+00 0.256E-02
CGA:   4    -0.377382341319E+03   -0.42595E-01   -0.42749E-01 10080   0.543E-01 0.170E-02
CGA:   5    -0.377392520724E+03   -0.10179E-01   -0.10192E-01 10080   0.157E-01 0.196E-03
CGA:   6    -0.377395859232E+03   -0.33385E-02   -0.33330E-02 10080   0.505E-02-0.179E-03
CGA:   7    -0.377397252885E+03   -0.13937E-02   -0.14054E-02 10080   0.247E-02-0.287E-03
CGA:   8    -0.377397895276E+03   -0.64239E-03   -0.64479E-03 10080   0.113E-02-0.714E-04
CGA:   9    -0.377398221524E+03   -0.32625E-03   -0.32667E-03 10080   0.450E-03-0.787E-05
CGA:  10    -0.377398374952E+03   -0.15343E-03   -0.17124E-03 10080   0.271E-03-0.131E-03
CGA:  11    -0.377398424265E+03   -0.49313E-04   -0.49288E-04 10080   0.957E-04 0.847E-05
CGA:  12    -0.377398450476E+03   -0.26211E-04   -0.26147E-04 10080   0.404E-04 0.585E-05
CGA:  13    -0.377398465671E+03   -0.15196E-04   -0.19728E-04 10080   0.406E-04-0.221E-04
CGA:  14    -0.377398469527E+03   -0.38557E-05   -0.58384E-05 10080   0.884E-05 0.164E-04
  55 F= -.37739847E+03 E0= -.37739847E+03  d E =-.548565E-01  mag=    12.0000
       N       E                     dE             d eps       ncg     rms          ort
SDA:   1    -0.377318128042E+03    0.80338E-01    0.00000E+00 10080   0.227E+00 0.000E+00
CGA:   2    -0.377374547437E+03   -0.56419E-01   -0.56412E-01 10080   0.106E+00-0.144E-02
CGA:   3    -0.377395516010E+03   -0.20969E-01   -0.20943E-01 10080   0.301E-01-0.513E-03
CGA:   4    -0.377400838153E+03   -0.53221E-02   -0.53129E-02 10080   0.771E-02-0.129E-03
CGA:   5    -0.377402228727E+03   -0.13906E-02   -0.13863E-02 10080   0.196E-02-0.646E-04
CGA:   6    -0.377402628378E+03   -0.39965E-03   -0.39912E-03 10080   0.577E-03-0.146E-04
CGA:   7    -0.377402778861E+03   -0.15048E-03   -0.15165E-03 10080   0.261E-03-0.506E-04
CGA:   8    -0.377402849678E+03   -0.70817E-04   -0.81611E-04 10080   0.189E-03-0.109E-03
CGA:   9    -0.377402875317E+03   -0.25638E-04   -0.25340E-04 10080   0.640E-04-0.161E-04
CGA:  10    -0.377402884935E+03   -0.96181E-05   -0.10471E-04 10080   0.253E-04 0.125E-04
  56 F= -.37740288E+03 E0= -.37740288E+03  d E =-.441541E-02  mag=    12.0000
       N       E                     dE             d eps       ncg     rms          ort
SDA:   1    -0.377329310252E+03    0.73565E-01    0.00000E+00 10080   0.177E+00 0.000E+00
CGA:   2    -0.377376966024E+03   -0.47656E-01   -0.47550E-01 10080   0.561E-01 0.379E-02
CGA:   3    -0.377390563070E+03   -0.13597E-01   -0.13592E-01 10080   0.157E-01-0.828E-03
CGA:   4    -0.377393035010E+03   -0.24719E-02   -0.24408E-02 10080   0.338E-02-0.372E-03
CGA:   5    -0.377393664362E+03   -0.62935E-03   -0.62762E-03 10080   0.946E-03-0.366E-04
CGA:   6    -0.377393840547E+03   -0.17619E-03   -0.17834E-03 10080   0.283E-03 0.470E-04
CGA:   7    -0.377393903504E+03   -0.62957E-04   -0.63995E-04 10080   0.106E-03 0.574E-04
CGA:   8    -0.377393932523E+03   -0.29018E-04   -0.29141E-04 10080   0.502E-04 0.349E-04
CGA:   9    -0.377393952883E+03   -0.20360E-04   -0.19626E-04 10080   0.291E-04 0.120E-04
CGA:  10    -0.377393962918E+03   -0.10035E-04   -0.98077E-05 10080   0.118E-04 0.629E-05
CGA:  11    -0.377393966024E+03   -0.31057E-05   -0.31809E-05 10080   0.425E-05 0.454E-05
  57 F= -.37739397E+03 E0= -.37739397E+03  d E =0.891891E-02  mag=    12.0000
       N       E                     dE             d eps       ncg     rms          ort
SDA:   1    -0.377319463006E+03    0.74500E-01    0.00000E+00 10080   0.164E+00 0.000E+00
CGA:   2    -0.377371047000E+03   -0.51584E-01   -0.51385E-01 10080   0.534E-01 0.298E-02
CGA:   3    -0.377383067707E+03   -0.12021E-01   -0.11985E-01 10080   0.130E-01-0.118E-02
CGA:   4    -0.377385107550E+03   -0.20398E-02   -0.20048E-02 10080   0.293E-02-0.385E-03
CGA:   5    -0.377385661794E+03   -0.55424E-03   -0.55323E-03 10080   0.757E-03-0.207E-04
CGA:   6    -0.377385807804E+03   -0.14601E-03   -0.14745E-03 10080   0.218E-03 0.313E-04
CGA:   7    -0.377385864515E+03   -0.56711E-04   -0.56587E-04 10080   0.891E-04 0.130E-04
CGA:   8    -0.377385896173E+03   -0.31658E-04   -0.33117E-04 10080   0.635E-04-0.132E-04
CGA:   9    -0.377385914185E+03   -0.18012E-04   -0.21647E-04 10080   0.451E-04-0.236E-04
CGA:  10    -0.377385920940E+03   -0.67551E-05   -0.67148E-05 10080   0.161E-04-0.241E-05
  58 F= -.37738592E+03 E0= -.37738592E+03  d E =0.804508E-02  mag=    12.0000
       N       E                     dE             d eps       ncg     rms          ort
SDA:   1    -0.376773720101E+03    0.61219E+00    0.00000E+00 10080   0.148E+01 0.000E+00
CGA:   2    -0.377222261260E+03   -0.44854E+00   -0.44812E+00 10080   0.499E+00 0.792E-02
CGA:   3    -0.377332082826E+03   -0.10982E+00   -0.10971E+00 10080   0.120E+00-0.342E-02
CGA:   4    -0.377350997693E+03   -0.18915E-01   -0.18748E-01 10080   0.259E-01-0.172E-02
CGA:   5    -0.377356005135E+03   -0.50074E-02   -0.49982E-02 10080   0.712E-02-0.176E-03
CGA:   6    -0.377357382560E+03   -0.13774E-02   -0.13874E-02 10080   0.207E-02 0.197E-03
CGA:   7    -0.377357972582E+03   -0.59002E-03   -0.59279E-03 10080   0.984E-03-0.799E-04
CGA:   8    -0.377358271741E+03   -0.29916E-03   -0.30802E-03 10080   0.602E-03-0.111E-03
CGA:   9    -0.377358433936E+03   -0.16220E-03   -0.16500E-03 10080   0.254E-03-0.472E-04
CGA:  10    -0.377358512063E+03   -0.78127E-04   -0.86847E-04 10080   0.134E-03-0.736E-04
CGA:  11    -0.377358535767E+03   -0.23704E-04   -0.23746E-04 10080   0.450E-04 0.483E-05
CGA:  12    -0.377358547833E+03   -0.12066E-04   -0.12063E-04 10080   0.194E-04 0.447E-05
CGA:  13    -0.377358553754E+03   -0.59215E-05   -0.58658E-05 10080   0.883E-05 0.328E-05
  59 F= -.37735855E+03 E0= -.37735855E+03  d E =0.273672E-01  mag=    12.0000
       N       E                     dE             d eps       ncg     rms          ort
SDA:   1    -0.375951265723E+03    0.14073E+01    0.00000E+00 10080   0.363E+01 0.000E+00
CGA:   2    -0.376973129518E+03   -0.10219E+01   -0.10214E+01 10080   0.120E+01 0.139E-01
CGA:   3    -0.377249678301E+03   -0.27655E+00   -0.27646E+00 10080   0.300E+00-0.427E-02
CGA:   4    -0.377296756278E+03   -0.47078E-01   -0.46802E-01 10080   0.638E-01-0.297E-02
CGA:   5    -0.377309180017E+03   -0.12424E-01   -0.12398E-01 10080   0.178E-01-0.507E-03
CGA:   6    -0.377312673226E+03   -0.34932E-02   -0.35109E-02 10080   0.554E-02 0.383E-03
CGA:   7    -0.377314228795E+03   -0.15556E-02   -0.15575E-02 10080   0.260E-02-0.590E-04
CGA:   8    -0.377315051471E+03   -0.82268E-03   -0.83865E-03 10080   0.158E-02-0.194E-03
CGA:   9    -0.377315490835E+03   -0.43936E-03   -0.44038E-03 10080   0.630E-03-0.194E-04
CGA:  10    -0.377315692626E+03   -0.20179E-03   -0.21029E-03 10080   0.271E-03-0.978E-04
CGA:  11    -0.377315759311E+03   -0.66685E-04   -0.66703E-04 10080   0.903E-04-0.599E-06
CGA:  12    -0.377315785681E+03   -0.26370E-04   -0.26057E-04 10080   0.346E-04 0.971E-05
CGA:  13    -0.377315797395E+03   -0.11714E-04   -0.11443E-04 10080   0.138E-04 0.677E-05
CGA:  14    -0.377315798905E+03   -0.15103E-05   -0.25242E-05 10080   0.625E-05 0.942E-05
  60 F= -.37731580E+03 E0= -.37731580E+03  d E =0.427548E-01  mag=    12.0000
       N       E                     dE             d eps       ncg     rms          ort
SDA:   1    -0.376931449998E+03    0.38435E+00    0.00000E+00 10080   0.101E+01 0.000E+00
CGA:   2    -0.377191623270E+03   -0.26017E+00   -0.26014E+00 10080   0.416E+00 0.497E-02
CGA:   3    -0.377273450302E+03   -0.81827E-01   -0.81846E-01 10080   0.124E+00 0.244E-03
CGA:   4    -0.377295379278E+03   -0.21929E-01   -0.21908E-01 10080   0.300E-01-0.325E-03
CGA:   5    -0.377300882640E+03   -0.55034E-02   -0.54944E-02 10080   0.777E-02-0.156E-03
CGA:   6    -0.377302466081E+03   -0.15834E-02   -0.15864E-02 10080   0.231E-02 0.791E-04
CGA:   7    -0.377302994341E+03   -0.52826E-03   -0.53127E-03 10080   0.774E-03 0.239E-03
CGA:   8    -0.377303204785E+03   -0.21044E-03   -0.20976E-03 10080   0.282E-03 0.117E-03
CGA:   9    -0.377303305176E+03   -0.10039E-03   -0.99462E-04 10080   0.127E-03 0.139E-04
CGA:  10    -0.377303333246E+03   -0.28070E-04   -0.29025E-04 10080   0.415E-04 0.387E-04
CGA:  11    -0.377303342410E+03   -0.91638E-05   -0.10289E-04 10080   0.167E-04 0.215E-04
CGA:  12    -0.377303350001E+03   -0.75907E-05   -0.10069E-04 10080   0.267E-04-0.681E-05
  61 F= -.37730335E+03 E0= -.37730335E+03  d E =0.124489E-01  mag=    12.0000
       N       E                     dE             d eps       ncg     rms          ort
SDA:   1    -0.376619257737E+03    0.68408E+00    0.00000E+00 10080   0.195E+01 0.000E+00
CGA:   2    -0.377164845148E+03   -0.54559E+00   -0.54588E+00 10080   0.612E+00-0.115E-01
CGA:   3    -0.377311396470E+03   -0.14655E+00   -0.14659E+00 10080   0.135E+00 0.317E-02
CGA:   4    -0.377332941234E+03   -0.21545E-01   -0.21615E-01 10080   0.325E-01 0.764E-03
CGA:   5    -0.377339182357E+03   -0.62411E-02   -0.62520E-02 10080   0.855E-02 0.193E-03
CGA:   6    -0.377341071073E+03   -0.18887E-02   -0.18846E-02 10080   0.319E-02-0.172E-03
CGA:   7    -0.377342007527E+03   -0.93645E-03   -0.96808E-03 10080   0.184E-02-0.469E-03
CGA:   8    -0.377342477037E+03   -0.46951E-03   -0.47768E-03 10080   0.948E-03-0.138E-03
CGA:   9    -0.377342727743E+03   -0.25071E-03   -0.25102E-03 10080   0.335E-03-0.842E-05
CGA:  10    -0.377342835653E+03   -0.10791E-03   -0.11410E-03 10080   0.155E-03-0.665E-04
CGA:  11    -0.377342862392E+03   -0.26739E-04   -0.27577E-04 10080   0.505E-04 0.252E-04
CGA:  12    -0.377342876912E+03   -0.14520E-04   -0.14559E-04 10080   0.220E-04 0.686E-05
CGA:  13    -0.377342885741E+03   -0.88292E-05   -0.13049E-04 10080   0.295E-04-0.158E-04
  62 F= -.37734289E+03 E0= -.37734289E+03  d E =-.395357E-01  mag=    12.0000
       N       E                     dE             d eps       ncg     rms          ort
SDA:   1    -0.377296799972E+03    0.46077E-01    0.00000E+00 10080   0.107E+00 0.000E+00
CGA:   2    -0.377324554326E+03   -0.27754E-01   -0.27750E-01 10080   0.335E-01 0.223E-02
CGA:   3    -0.377332875870E+03   -0.83215E-02   -0.83080E-02 10080   0.104E-01-0.889E-03
CGA:   4    -0.377334529042E+03   -0.16532E-02   -0.16042E-02 10080   0.225E-02-0.497E-03
CGA:   5    -0.377334937594E+03   -0.40855E-03   -0.40524E-03 10080   0.616E-03-0.528E-04
CGA:   6    -0.377335049797E+03   -0.11220E-03   -0.11467E-03 10080   0.179E-03 0.418E-04
CGA:   7    -0.377335109469E+03   -0.59673E-04   -0.62387E-04 10080   0.120E-03-0.341E-04
CGA:   8    -0.377335140126E+03   -0.30656E-04   -0.36914E-04 10080   0.106E-03-0.482E-04
CGA:   9    -0.377335158139E+03   -0.18013E-04   -0.19034E-04 10080   0.526E-04-0.239E-04
CGA:  10    -0.377335169558E+03   -0.11419E-04   -0.11646E-04 10080   0.245E-04-0.847E-05
CGA:  11    -0.377335173457E+03   -0.38991E-05   -0.41288E-05 10080   0.101E-04 0.384E-05
  63 F= -.37733517E+03 E0= -.37733517E+03  d E =0.771228E-02  mag=    12.0000
       N       E                     dE             d eps       ncg     rms          ort
SDA:   1    -0.377329612542E+03    0.55570E-02    0.00000E+00 10080   0.148E-01 0.000E+00
CGA:   2    -0.377334097456E+03   -0.44849E-02   -0.44711E-02 10080   0.578E-02 0.272E-03
CGA:   3    -0.377335186720E+03   -0.10893E-02   -0.10894E-02 10080   0.149E-02-0.422E-06
CGA:   4    -0.377335445391E+03   -0.25867E-03   -0.25998E-03 10080   0.351E-03 0.167E-04
CGA:   5    -0.377335511561E+03   -0.66170E-04   -0.65267E-04 10080   0.101E-03-0.142E-04
CGA:   6    -0.377335535897E+03   -0.24336E-04   -0.24509E-04 10080   0.485E-04-0.252E-04
CGA:   7    -0.377335542921E+03   -0.70246E-05   -0.71073E-05 10080   0.139E-04 0.164E-05
  64 F= -.37733554E+03 E0= -.37733554E+03  d E =-.369464E-03  mag=    12.0000
       N       E                     dE             d eps       ncg     rms          ort
SDA:   1    -0.377330713097E+03    0.48228E-02    0.00000E+00 10080   0.989E-02 0.000E+00
CGA:   2    -0.377333247677E+03   -0.25346E-02   -0.25235E-02 10080   0.339E-02 0.738E-03
CGA:   3    -0.377334052197E+03   -0.80452E-03   -0.80317E-03 10080   0.120E-02-0.676E-04
CGA:   4    -0.377334245634E+03   -0.19344E-03   -0.18910E-03 10080   0.278E-03-0.549E-04
CGA:   5    -0.377334297485E+03   -0.51851E-04   -0.50764E-04 10080   0.823E-04-0.242E-04
CGA:   6    -0.377334316589E+03   -0.19104E-04   -0.19864E-04 10080   0.429E-04-0.249E-04
CGA:   7    -0.377334320856E+03   -0.42666E-05   -0.47594E-05 10080   0.135E-04 0.645E-05
  65 F= -.37733432E+03 E0= -.37733432E+03  d E =0.122207E-02  mag=    12.0000
