       N       E                     dE             d eps       ncg     rms          ort
DAV:   1     0.274807001319E+04    0.27481E+04   -0.14584E+05  6336   0.164E+03
DAV:   2    -0.111611855495E+03   -0.28597E+04   -0.26509E+04  6336   0.430E+02
DAV:   3    -0.453925759269E+03   -0.34231E+03   -0.33599E+03  6336   0.170E+02
DAV:   4    -0.468466525756E+03   -0.14541E+02   -0.14188E+02  6336   0.327E+01
DAV:   5    -0.469423675358E+03   -0.95715E+00   -0.94493E+00  6336   0.608E+00
SDA:   6    -0.248323530527E+03    0.22110E+03   -0.94493E+00  6336   0.610E+03 0.000E+00
CGA:   7    -0.338115267326E+03   -0.89792E+02   -0.77090E+02  6336   0.122E+03-0.980E+02
CGA:   8    -0.352561554248E+03   -0.14446E+02   -0.14312E+02  6336   0.141E+03-0.536E+01
CGA:   9    -0.347817527888E+03    0.47440E+01   -0.64768E+01  6336   0.524E+03-0.137E+03
CGA:  10    -0.322872297436E+03    0.24945E+02   -0.38036E+02  6336   0.312E+03-0.123E+03
CGA:  11    -0.355331851564E+03   -0.32460E+02   -0.70397E+01  6336   0.259E+03-0.453E+02
CGA:  12    -0.326081972065E+03    0.29250E+02   -0.98750E+01  6336   0.335E+03-0.140E+03
CGA:  13    -0.353753035903E+03   -0.27671E+02   -0.10085E+02  6336   0.297E+03 0.625E+03
CGA:  14    -0.318914613495E+03    0.34838E+02   -0.14522E+02  6336   0.828E+03-0.187E+03
CGA:  15    -0.331580116284E+03   -0.12666E+02   -0.39766E+02  6336   0.821E+03-0.250E+03
CGA:  16    -0.311050209070E+03    0.20530E+02   -0.40201E+02  6336   0.622E+03-0.971E+02
CGA:  17    -0.330237106632E+03   -0.19187E+02   -0.17950E+02  6336   0.420E+03-0.325E+03
CGA:  18    -0.334562129067E+03   -0.43250E+01   -0.24371E+02  6336   0.283E+03-0.201E+03
CGA:  19    -0.339924562453E+03   -0.53624E+01   -0.35724E+01  6336   0.149E+03 0.304E+02
CGA:  20    -0.353649527238E+03   -0.13725E+02   -0.29159E+01  6336   0.448E+03 0.803E+03
CGA:  21    -0.332574855864E+03    0.21075E+02   -0.18124E+02  6336   0.133E+04-0.676E+03
CGA:  22    -0.337730055678E+03   -0.51552E+01   -0.73372E+02  6336   0.142E+03-0.116E+03
CGA:  23    -0.344734635248E+03   -0.70046E+01   -0.35149E+01  6336   0.107E+03 0.121E+03
CGA:  24    -0.358349597623E+03   -0.13615E+02   -0.21259E+01  6336   0.157E+03 0.375E+03
CGA:  25    -0.357785896778E+03    0.56370E+00   -0.39133E+01  6336   0.411E+03-0.344E+03
CGA:  26    -0.347896637193E+03    0.98893E+01   -0.17358E+02  6336   0.188E+03-0.852E+02
CGA:  27    -0.360424759884E+03   -0.12528E+02   -0.31899E+01  6336   0.106E+03-0.397E+03
CGA:  28    -0.358095525966E+03    0.23292E+01   -0.29345E+01  6336   0.408E+03-0.217E+03
CGA:  29    -0.338402973229E+03    0.19693E+02   -0.12023E+02  6336   0.176E+04-0.712E+03
CGA:  30    -0.342785985543E+03   -0.43830E+01   -0.72951E+02  6336   0.153E+03-0.142E+03
CGA:  31    -0.347487604213E+03   -0.47016E+01   -0.25966E+01  6336   0.808E+02 0.878E+02
CGA:  32    -0.350456572850E+03   -0.29690E+01   -0.85744E+00  6336   0.331E+03 0.371E+03
CGA:  33    -0.341389261909E+03    0.90673E+01   -0.73989E+01  6336   0.225E+04-0.167E+04
CGA:  34    -0.345159976323E+03   -0.37707E+01   -0.82244E+02  6336   0.901E+02-0.855E+02
CGA:  35    -0.347767274110E+03   -0.26073E+01   -0.89861E+00  6336   0.132E+03 0.139E+03
CGA:  36    -0.350762282198E+03   -0.29950E+01   -0.15971E+01  6336   0.278E+03 0.313E+03
CGA:  37    -0.359907987476E+03   -0.91457E+01   -0.46779E+01  6336   0.308E+03-0.661E+03
CGA:  38    -0.356616600124E+03    0.32914E+01   -0.79430E+01  6336   0.463E+03-0.268E+03
CGA:  39    -0.357079431500E+03   -0.46283E+00   -0.87435E+01  6336   0.830E+03-0.792E+03
CGA:  40    -0.352034931085E+03    0.50445E+01   -0.23390E+02  6336   0.385E+03-0.257E+03
CGA:  41    -0.361877064323E+03   -0.98421E+01   -0.37800E+01  6336   0.806E+02 0.214E+03
CGA:  42    -0.362671596067E+03   -0.79453E+00   -0.65295E+00  6336   0.625E+01 0.164E+02
CGA:  43    -0.362768411470E+03   -0.96815E-01   -0.10376E+00  6336   0.510E+01-0.363E+00
CGA:  44    -0.363032333742E+03   -0.26392E+00   -0.26141E+00  6336   0.527E+01 0.150E+01
CGA:  45    -0.363270204054E+03   -0.23787E+00   -0.28721E+00  6336   0.567E+00 0.132E+01
CGA:  46    -0.363393857496E+03   -0.12365E+00   -0.10090E+00  6336   0.245E+00 0.224E+00
CGA:  47    -0.363475759023E+03   -0.81902E-01   -0.64770E-01  6336   0.101E+00 0.127E+00
CGA:  48    -0.363506020089E+03   -0.30261E-01   -0.27355E-01  6336   0.650E-01 0.149E-01
CGA:  49    -0.363545301416E+03   -0.39281E-01   -0.33799E-02  6336   0.140E-01 0.478E-02
CGA:  50    -0.363549672800E+03   -0.43714E-02   -0.42202E-02  6336   0.646E-02 0.104E-02
CGA:  51    -0.363552803315E+03   -0.31305E-02   -0.14910E-03  6336   0.226E-01-0.430E-02
CGA:  52    -0.363556583388E+03   -0.37801E-02   -0.38705E-02  6336   0.511E-02 0.984E-03
CGA:  53    -0.363559038174E+03   -0.24548E-02   -0.26340E-02  6336   0.847E-02-0.759E-03
CGA:  54    -0.363562074440E+03   -0.30363E-02   -0.41722E-02  6336   0.207E-01-0.369E-02
CGA:  55    -0.363566506980E+03   -0.44325E-02   -0.60321E-02  6336   0.322E-01-0.748E-02
CGA:  56    -0.363570475708E+03   -0.39687E-02   -0.35669E-02  6336   0.237E-01-0.237E-02
CGA:  57    -0.363576091284E+03   -0.56156E-02   -0.55003E-02  6336   0.268E-01-0.267E-02
CGA:  58    -0.363582083818E+03   -0.59925E-02   -0.58020E-02  6336   0.226E-01-0.389E-02
CGA:  59    -0.363586300228E+03   -0.42164E-02   -0.39329E-02  6336   0.177E-01-0.331E-02
CGA:  60    -0.363589811060E+03   -0.35108E-02   -0.33656E-02  6336   0.147E-01-0.251E-02
CGA:  61    -0.363592278044E+03   -0.24670E-02   -0.23683E-02  6336   0.104E-01-0.106E-02
CGA:  62    -0.363594326881E+03   -0.20488E-02   -0.20247E-02  6336   0.943E-02-0.343E-03
CGA:  63    -0.363596465301E+03   -0.21384E-02   -0.21327E-02  6336   0.903E-02-0.103E-03
CGA:  64    -0.363598358092E+03   -0.18928E-02   -0.19170E-02  6336   0.803E-02 0.507E-03
CGA:  65    -0.363599945081E+03   -0.15870E-02   -0.16829E-02  6336   0.655E-02 0.145E-02
CGA:  66    -0.363601158092E+03   -0.12130E-02   -0.13732E-02  6336   0.450E-02 0.189E-02
CGA:  67    -0.363602066503E+03   -0.90841E-03   -0.10344E-02  6336   0.312E-02 0.157E-02
CGA:  68    -0.363602848202E+03   -0.78170E-03   -0.83174E-03  6336   0.203E-02 0.880E-03
CGA:  69    -0.363603465830E+03   -0.61763E-03   -0.61925E-03  6336   0.163E-02 0.115E-03
CGA:  70    -0.363603956190E+03   -0.49036E-03   -0.49366E-03  6336   0.191E-02-0.927E-04
CGA:  71    -0.363604365520E+03   -0.40933E-03   -0.41057E-03  6336   0.193E-02 0.486E-04
CGA:  72    -0.363604825589E+03   -0.46007E-03   -0.46200E-03  6336   0.193E-02 0.920E-04
CGA:  73    -0.363605358954E+03   -0.53336E-03   -0.53416E-03  6336   0.193E-02-0.105E-03
CGA:  74    -0.363605847222E+03   -0.48827E-03   -0.49192E-03  6336   0.213E-02-0.252E-03
CGA:  75    -0.363606268655E+03   -0.42143E-03   -0.42154E-03  6336   0.212E-02-0.193E-04
CGA:  76    -0.363606640750E+03   -0.37209E-03   -0.38871E-03  6336   0.162E-02 0.267E-03
CGA:  77    -0.363606958584E+03   -0.31783E-03   -0.33598E-03  6336   0.121E-02 0.304E-03
CGA:  78    -0.363607253869E+03   -0.29528E-03   -0.29905E-03  6336   0.872E-03 0.119E-03
CGA:  79    -0.363607471750E+03   -0.21788E-03   -0.21728E-03  6336   0.727E-03-0.300E-04
CGA:  80    -0.363607602241E+03   -0.13049E-03   -0.13505E-03  6336   0.664E-03 0.952E-04
CGA:  81    -0.363607706750E+03   -0.10451E-03   -0.12225E-03  6336   0.543E-03 0.233E-03
SDA:  82    -0.363607810628E+03   -0.10388E-03   -0.12290E-03  6336   0.474E-03 0.280E-03
CGA:  83    -0.363607803229E+03    0.73993E-05   -0.11522E-03  6336   0.266E-02-0.561E-03
CGA:  84    -0.363608305506E+03   -0.50228E-03   -0.56557E-03  6336   0.391E-03 0.298E-03
CGA:  85    -0.363608524470E+03   -0.21896E-03   -0.23709E-03  6336   0.275E-03-0.137E-03
CGA:  86    -0.363608595738E+03   -0.71268E-04   -0.71917E-04  6336   0.225E-03 0.380E-04
CGA:  87    -0.363608691737E+03   -0.96000E-04   -0.99232E-04  6336   0.154E-03 0.105E-03
CGA:  88    -0.363608823988E+03   -0.13225E-03   -0.12910E-03  6336   0.189E-03 0.199E-04
CGA:  89    -0.363609004531E+03   -0.18054E-03   -0.18292E-03  6336   0.356E-03-0.626E-05
CGA:  90    -0.363609184903E+03   -0.18037E-03   -0.19701E-03  6336   0.725E-03-0.100E-03
CGA:  91    -0.363609281377E+03   -0.96474E-04   -0.10273E-03  6336   0.795E-03-0.761E-04
CGA:  92    -0.363609410979E+03   -0.12960E-03   -0.13073E-03  6336   0.561E-03-0.166E-03
CGA:  93    -0.363609483768E+03   -0.72789E-04   -0.78007E-04  6336   0.346E-03-0.103E-03
CGA:  94    -0.363609530788E+03   -0.47020E-04   -0.55050E-04  6336   0.259E-03-0.127E-04
CGA:  95    -0.363609568554E+03   -0.37766E-04   -0.50033E-04  6336   0.211E-03 0.499E-04
CGA:  96    -0.363609613934E+03   -0.45380E-04   -0.55261E-04  6336   0.210E-03 0.538E-04
CGA:  97    -0.363609663004E+03   -0.49070E-04   -0.58409E-04  6336   0.318E-03 0.872E-04
CGA:  98    -0.363609620476E+03    0.42528E-04   -0.52346E-04  6336   0.722E-03 0.221E-03
CGA:  99    -0.363609774132E+03   -0.15366E-03   -0.19189E-03  6336   0.275E-03 0.232E-03
CGA: 100    -0.363609914927E+03   -0.14079E-03   -0.13952E-03  6336   0.957E-04 0.160E-04
CGA: 101    -0.363209107879E+03    0.40081E+00   -0.14111E-03  6336   0.373E+01-0.228E+02
CGA: 102    -0.363607208055E+03   -0.39810E+00   -0.88068E+00  6336   0.106E-01-0.826E-02
CGA: 103    -0.363609984578E+03   -0.27765E-02   -0.24872E-02  6336   0.845E-03-0.179E-02
CGA: 104    -0.363610099611E+03   -0.11503E-03   -0.16183E-03  6336   0.176E-03 0.282E-03
CGA: 105    -0.363610121223E+03   -0.21612E-04   -0.45652E-04  6336   0.108E-03 0.124E-03
CGA: 106    -0.363610220224E+03   -0.99001E-04    0.93082E-04  6336   0.642E-04 0.542E-04
CGA: 107    -0.363610220685E+03   -0.46083E-06   -0.10686E-04  6336   0.445E-04 0.486E-04
CGA: 108    -0.363610263837E+03   -0.43153E-04   -0.32582E-04  6336   0.268E-04 0.288E-04
CGA: 109    -0.363610299410E+03   -0.35572E-04    0.70691E-05  6336   0.251E-04 0.222E-04
CGA: 110    -0.363610300110E+03   -0.70019E-06   -0.49188E-05  6336   0.224E-04 0.224E-04
CGA: 111    -0.363610319917E+03   -0.19807E-04    0.23319E-04  6336   0.212E-04 0.216E-04
CGA: 112    -0.363610404102E+03   -0.84185E-04   -0.12951E-03  6336   0.285E-04 0.168E-04
CGA: 113    -0.363610486308E+03   -0.82206E-04    0.87630E-05  6336   0.113E-03-0.128E-04
CGA: 114    -0.363610603810E+03   -0.11750E-03    0.56192E-04  6336   0.408E-03 0.228E-04
CGA: 115    -0.363610666220E+03   -0.62410E-04   -0.13900E-03  6336   0.343E-03 0.210E-03
CGA: 116    -0.363610670497E+03   -0.42773E-05   -0.11743E-03  6336   0.395E-03 0.649E-04
CGA: 117    -0.363610203131E+03    0.46737E-03   -0.93706E-04  6336   0.398E-02 0.536E-03
CGA: 118    -0.363610535682E+03   -0.33255E-03   -0.12799E-02  6336   0.897E-03 0.206E-03
CGA: 119    -0.363610417414E+03    0.11827E-03   -0.25219E-03  6336   0.136E-02 0.401E-03
CGA: 120    -0.363608708207E+03    0.17092E-02   -0.27644E-03  6336   0.440E-02 0.201E-02
CGA: 121    -0.363609784441E+03   -0.10762E-02   -0.14923E-02  6336   0.147E-02 0.782E-03
CGA: 122    -0.363610507986E+03   -0.72354E-03   -0.77047E-03  6336   0.292E-03 0.159E-03
CGA: 123    -0.363610789468E+03   -0.28148E-03   -0.36401E-03  6336   0.307E-03-0.204E-03
CGA: 124    -0.363610904627E+03   -0.11516E-03   -0.10707E-03  6336   0.264E-03-0.479E-04
CGA: 125    -0.363610960482E+03   -0.55855E-04   -0.70861E-04  6336   0.142E-03 0.857E-04
CGA: 126    -0.363611000720E+03   -0.40238E-04   -0.51960E-04  6336   0.119E-03 0.362E-04
CGA: 127    -0.363611078410E+03   -0.77690E-04   -0.77217E-04  6336   0.165E-03-0.111E-04
CGA: 128    -0.363611121572E+03   -0.43162E-04   -0.48746E-04  6336   0.206E-03 0.497E-04
CGA: 129    -0.363611175780E+03   -0.54208E-04   -0.79163E-04  6336   0.217E-03 0.129E-03
CGA: 130    -0.363611339440E+03   -0.16366E-03   -0.16576E-03  6336   0.470E-03 0.825E-06
CGA: 131    -0.363611397626E+03   -0.58186E-04   -0.10294E-03  6336   0.657E-03 0.245E-03
CGA: 132    -0.363611471159E+03   -0.73533E-04   -0.17714E-03  6336   0.199E-03 0.542E-04
CGA: 133    -0.363611528012E+03   -0.56853E-04   -0.76468E-04  6336   0.123E-03 0.670E-04
CGA: 134    -0.363611600340E+03   -0.72328E-04   -0.75836E-04  6336   0.802E-04 0.564E-04
CGA: 135    -0.363611702740E+03   -0.10240E-03   -0.86433E-04  6336   0.130E-03 0.622E-04
CGA: 136    -0.363611768541E+03   -0.65800E-04   -0.65839E-04  6336   0.269E-03-0.555E-04
CGA: 137    -0.363611850541E+03   -0.82000E-04   -0.82356E-04  6336   0.434E-03-0.103E-05
CGA: 138    -0.363611910449E+03   -0.59908E-04   -0.96246E-04  6336   0.374E-03 0.107E-03
CGA: 139    -0.363611893105E+03    0.17344E-04   -0.90535E-04  6336   0.687E-03 0.315E-03
CGA: 140    -0.363612009619E+03   -0.11651E-03   -0.15886E-03  6336   0.522E-03 0.219E-03
CGA: 141    -0.363611501539E+03    0.50808E-03   -0.70703E-04  6336   0.212E-02 0.419E-03
CGA: 142    -0.363611145196E+03    0.35634E-03   -0.36372E-03  6336   0.390E-02 0.115E-02
CGA: 143    -0.363610720446E+03    0.42475E-03   -0.74287E-03  6336   0.495E-02 0.152E-02
CGA: 144    -0.363608497124E+03    0.22233E-02   -0.87890E-03  6336   0.125E-01 0.665E-02
CGA: 145    -0.363609695595E+03   -0.11985E-02   -0.27888E-02  6336   0.957E-02 0.398E-02
CGA: 146    -0.363609616357E+03    0.79238E-04   -0.23022E-02  6336   0.676E-02 0.482E-02
CGA: 147    -0.363610726338E+03   -0.11100E-02   -0.16434E-02  6336   0.284E-02 0.219E-02
CGA: 148    -0.363611856031E+03   -0.11297E-02   -0.12111E-02  6336   0.105E-02 0.332E-03
CGA: 149    -0.363612145190E+03   -0.28916E-03   -0.33251E-03  6336   0.319E-03 0.989E-04
CGA: 150    -0.363612349266E+03   -0.20408E-03   -0.19264E-03  6336   0.109E-03 0.434E-04
CGA: 151    -0.363612428563E+03   -0.79297E-04   -0.73003E-04  6336   0.635E-04 0.208E-04
CGA: 152    -0.363612506728E+03   -0.78165E-04    0.46742E-04  6336   0.829E-04 0.479E-04
CGA: 153    -0.363612508841E+03   -0.21125E-05   -0.13358E-04  6336   0.607E-04 0.487E-04
CGA: 154    -0.363612577329E+03   -0.68489E-04    0.23939E-04  6336   0.719E-04 0.443E-04
CGA: 155    -0.363612576758E+03    0.57156E-06   -0.10045E-04  6336   0.465E-04 0.440E-04
CGA: 156    -0.363612624067E+03   -0.47309E-04    0.22600E-04  6336   0.429E-04 0.431E-04
CGA: 157    -0.363612643378E+03   -0.19311E-04   -0.17777E-04  6336   0.487E-04 0.333E-04
CGA: 158    -0.363612710364E+03   -0.66987E-04    0.10569E-04  6336   0.762E-04 0.119E-04
CGA: 159    -0.363612783723E+03   -0.73359E-04    0.41141E-03  6336   0.462E-04 0.832E-04
CGA: 160    -0.363612782296E+03    0.14272E-05   -0.60935E-05  6336   0.308E-04 0.316E-04
CGA: 161    -0.363612809588E+03   -0.27292E-04    0.23562E-04  6336   0.307E-04 0.301E-04
CGA: 162    -0.363612840729E+03   -0.31141E-04    0.13294E-04  6336   0.308E-04 0.295E-04
CGA: 163    -0.363612864348E+03   -0.23619E-04    0.79244E-04  6336   0.311E-04 0.291E-04
CGA: 164    -0.363612902269E+03   -0.37920E-04    0.79982E-05  6336   0.332E-04 0.278E-04
CGA: 165    -0.363612912428E+03   -0.10159E-04   -0.10928E-04  6336   0.362E-04 0.253E-04
CGA: 166    -0.363612965477E+03   -0.53049E-04    0.61685E-05  6336   0.482E-04 0.192E-04
CGA: 167    -0.363612963088E+03    0.23886E-05   -0.56775E-05  6336   0.304E-04 0.319E-04
CGA: 168    -0.363612985348E+03   -0.22259E-04    0.85123E-04  6336   0.320E-04 0.286E-04
CGA: 169    -0.363613021359E+03   -0.36011E-04    0.87718E-05  6336   0.359E-04 0.260E-04
CGA: 170    -0.363613037380E+03   -0.16021E-04   -0.14574E-04  6336   0.510E-04 0.230E-04
CGA: 171    -0.363613090060E+03   -0.52680E-04    0.18384E-04  6336   0.671E-04 0.160E-04
CGA: 172    -0.363613153394E+03   -0.63334E-04    0.50012E-03  6336   0.477E-04 0.647E-04
CGA: 173    -0.363613156251E+03   -0.28563E-05   -0.86100E-05  6336   0.295E-04 0.274E-04
   1 F= -.36361316E+03 E0= -.36361316E+03  d E =-.363613E+03  mag=    16.0000
       N       E                     dE             d eps       ncg     rms          ort
SDA:   1    -0.363613450243E+03   -0.29685E-03    0.00000E+00  6336   0.198E-02 0.000E+00
CGA:   2    -0.363614036492E+03   -0.58625E-03   -0.58878E-03  6336   0.932E-03 0.593E-04
CGA:   3    -0.363614210785E+03   -0.17429E-03   -0.17082E-03  6336   0.356E-03-0.219E-04
CGA:   4    -0.363614290603E+03   -0.79817E-04   -0.73390E-04  6336   0.158E-03-0.544E-04
CGA:   5    -0.363614336725E+03   -0.46122E-04   -0.54626E-04  6336   0.338E-03-0.103E-03
CGA:   6    -0.363614380702E+03   -0.43977E-04   -0.43525E-04  6336   0.791E-04-0.239E-05
CGA:   7    -0.363614414738E+03   -0.34036E-04   -0.36003E-04  6336   0.120E-03-0.143E-04
CGA:   8    -0.363613960108E+03    0.45463E-03   -0.22354E-03  6336   0.357E-02-0.445E-03
CGA:   9    -0.363614636972E+03   -0.67686E-03   -0.64935E-03  6336   0.833E-03-0.933E-04
CGA:  10    -0.363614907580E+03   -0.27061E-03   -0.26146E-03  6336   0.321E-03-0.430E-04
CGA:  11    -0.363614988496E+03   -0.80916E-04   -0.80525E-04  6336   0.689E-04-0.188E-05
CGA:  12    -0.363615033517E+03   -0.45021E-04   -0.52706E-04  6336   0.177E-03-0.341E-04
CGA:  13    -0.363615030373E+03    0.31439E-05   -0.11351E-03  6336   0.111E-02-0.151E-03
CGA:  14    -0.363615480834E+03   -0.45046E-03   -0.41375E-03  6336   0.349E-03-0.166E-03
CGA:  15    -0.363615526258E+03   -0.45424E-04   -0.69601E-04  6336   0.102E-03 0.699E-04
CGA:  16    -0.363615574210E+03   -0.47952E-04   -0.49648E-04  6336   0.961E-04 0.112E-04
CGA:  17    -0.363615292679E+03    0.28153E-03   -0.24148E-03  6336   0.255E-02-0.300E-03
CGA:  18    -0.363615785949E+03   -0.49327E-03   -0.58430E-03  6336   0.422E-03 0.218E-03
CGA:  19    -0.363616062729E+03   -0.27678E-03   -0.26746E-03  6336   0.576E-03-0.258E-03
CGA:  20    -0.363616109524E+03   -0.46795E-04   -0.10790E-03  6336   0.106E-03 0.141E-03
CGA:  21    -0.363616148940E+03   -0.39417E-04   -0.44807E-04  6336   0.723E-04 0.210E-04
CGA:  22    -0.363616266980E+03   -0.11804E-03    0.15223E-03  6336   0.172E-03 0.215E-04
CGA:  23    -0.363615173961E+03    0.10930E-02   -0.55201E-03  6336   0.582E-02-0.637E-03
CGA:  24    -0.363614360539E+03    0.81342E-03   -0.17533E-02  6336   0.152E-01 0.205E-02
CGA:  25    -0.363536446401E+03    0.77914E-01   -0.19345E-02  6336   0.593E+00 0.115E-01
CGA:  26    -0.362847861483E+03    0.68858E+00   -0.15287E+00  6336   0.313E+01 0.158E+00
CGA:  27    -0.361620779189E+03    0.12271E+01   -0.11668E+01  6336   0.636E+01 0.864E+00
CGA:  28    -0.359286312648E+03    0.23345E+01   -0.26524E+01  6336   0.115E+02 0.811E+00
CGA:  29    -0.354283477944E+03    0.50028E+01   -0.42690E+01  6336   0.128E+02 0.118E+01
CGA:  30    -0.353217902784E+03    0.10656E+01   -0.51494E+01  6336   0.106E+02 0.212E+01
CGA:  31    -0.355876890119E+03   -0.26590E+01   -0.46066E+01  6336   0.922E+01 0.313E+01
CGA:  32    -0.357594516223E+03   -0.17176E+01   -0.41176E+01  6336   0.857E+01 0.317E+01
CGA:  33    -0.358875785563E+03   -0.12813E+01   -0.38519E+01  6336   0.589E+01 0.206E+01
CGA:  34    -0.360597893092E+03   -0.17221E+01   -0.23335E+01  6336   0.278E+01 0.149E+01
CGA:  35    -0.361354586985E+03   -0.75669E+00   -0.12365E+01  6336   0.195E+01 0.651E+00
CGA:  36    -0.361736540301E+03   -0.38195E+00   -0.87207E+00  6336   0.185E+01 0.899E+00
CGA:  37    -0.361925199810E+03   -0.18866E+00   -0.95338E+00  6336   0.140E+01 0.755E+00
CGA:  38    -0.362128827072E+03   -0.20363E+00   -0.68972E+00  6336   0.963E+00 0.608E+00
CGA:  39    -0.362397253038E+03   -0.26843E+00   -0.50617E+00  6336   0.783E+00 0.352E+00
CGA:  40    -0.362605778066E+03   -0.20853E+00   -0.36751E+00  6336   0.666E+00 0.254E+00
CGA:  41    -0.362736162546E+03   -0.13038E+00   -0.27274E+00  6336   0.575E+00 0.193E+00
CGA:  42    -0.362819332500E+03   -0.83170E-01   -0.21165E+00  6336   0.537E+00 0.148E+00
CGA:  43    -0.362859565840E+03   -0.40233E-01   -0.17224E+00  6336   0.536E+00 0.141E+00
CGA:  44    -0.362844915977E+03    0.14650E-01   -0.14941E+00  6336   0.566E+00 0.188E+00
CGA:  45    -0.362734087415E+03    0.11083E+00   -0.14822E+00  6336   0.663E+00 0.350E+00
CGA:  46    -0.363373690724E+03   -0.63960E+00   -0.73768E+00  6336   0.458E+00-0.176E+00
CGA:  47    -0.363485363804E+03   -0.11167E+00   -0.12165E+00  6336   0.216E+00 0.755E-02
CGA:  48    -0.363552477448E+03   -0.67114E-01   -0.72363E-01  6336   0.668E-01 0.553E-02
CGA:  49    -0.363580338386E+03   -0.27861E-01   -0.28081E-01  6336   0.438E-01-0.156E-03
CGA:  50    -0.363598373910E+03   -0.18036E-01   -0.18047E-01  6336   0.284E-01 0.105E-03
CGA:  51    -0.363609852669E+03   -0.11479E-01   -0.11556E-01  6336   0.118E-01 0.100E-03
CGA:  52    -0.363613974130E+03   -0.41215E-02   -0.41135E-02  6336   0.508E-02-0.121E-03
CGA:  53    -0.363615667516E+03   -0.16934E-02   -0.16942E-02  6336   0.219E-02 0.244E-04
CGA:  54    -0.363616556047E+03   -0.88853E-03   -0.89162E-03  6336   0.124E-02 0.361E-04
CGA:  55    -0.363617033688E+03   -0.47764E-03   -0.47661E-03  6336   0.734E-03-0.739E-05
CGA:  56    -0.363617305028E+03   -0.27134E-03   -0.27114E-03  6336   0.339E-03 0.556E-07
CGA:  57    -0.363617430777E+03   -0.12575E-03   -0.12533E-03  6336   0.182E-03-0.230E-05
CGA:  58    -0.363617497585E+03   -0.66808E-04   -0.65272E-04  6336   0.964E-04-0.116E-04
CGA:  59    -0.363617535315E+03   -0.37730E-04   -0.37634E-04  6336   0.621E-04-0.127E-05
CGA:  60    -0.363617557986E+03   -0.22670E-04   -0.22899E-04  6336   0.409E-04 0.229E-05
CGA:  61    -0.363617577624E+03   -0.19639E-04   -0.19519E-04  6336   0.253E-04-0.783E-05
CGA:  62    -0.363617588128E+03   -0.10504E-04   -0.11029E-04  6336   0.204E-04-0.818E-05
CGA:  63    -0.363617592776E+03   -0.46481E-05   -0.45628E-05  6336   0.143E-04-0.566E-06
   2 F= -.36361759E+03 E0= -.36361759E+03  d E =-.443653E-02  mag=    16.0000
       N       E                     dE             d eps       ncg     rms          ort
SDA:   1    -0.363608728992E+03    0.88591E-02    0.00000E+00  6336   0.283E-01 0.000E+00
CGA:   2    -0.363616708332E+03   -0.79793E-02   -0.80135E-02  6336   0.151E-01 0.177E-03
CGA:   3    -0.363619107080E+03   -0.23987E-02   -0.24056E-02  6336   0.417E-02 0.229E-04
CGA:   4    -0.363619861081E+03   -0.75400E-03   -0.73960E-03  6336   0.102E-02-0.547E-04
CGA:   5    -0.363620073190E+03   -0.21211E-03   -0.19914E-03  6336   0.331E-03-0.556E-04
CGA:   6    -0.363620147054E+03   -0.73863E-04   -0.67774E-04  6336   0.121E-03-0.301E-04
CGA:   7    -0.363620172029E+03   -0.24976E-04   -0.25199E-04  6336   0.426E-04 0.123E-05
CGA:   8    -0.363620180126E+03   -0.80967E-05   -0.93340E-05  6336   0.132E-04 0.673E-05
   3 F= -.36362018E+03 E0= -.36362018E+03  d E =-.258735E-02  mag=    16.0000
       N       E                     dE             d eps       ncg     rms          ort
SDA:   1    -0.363595520292E+03    0.24652E-01    0.00000E+00  6336   0.678E-01 0.000E+00
CGA:   2    -0.363613122961E+03   -0.17603E-01   -0.17646E-01  6336   0.405E-01 0.292E-03
CGA:   3    -0.363619469409E+03   -0.63464E-02   -0.63636E-02  6336   0.964E-02 0.722E-04
CGA:   4    -0.363621188474E+03   -0.17191E-02   -0.17028E-02  6336   0.235E-02-0.828E-04
CGA:   5    -0.363621645899E+03   -0.45742E-03   -0.44167E-03  6336   0.696E-03-0.899E-04
CGA:   6    -0.363621794523E+03   -0.14862E-03   -0.14076E-03  6336   0.242E-03-0.536E-04
CGA:   7    -0.363621845289E+03   -0.50766E-04   -0.50385E-04  6336   0.841E-04-0.311E-05
CGA:   8    -0.363621863196E+03   -0.17907E-04   -0.19020E-04  6336   0.278E-04 0.965E-05
CGA:   9    -0.363621875506E+03   -0.12309E-04   -0.15103E-04  6336   0.400E-04-0.187E-04
CGA:  10    -0.363621883208E+03   -0.77023E-05   -0.75795E-05  6336   0.594E-05-0.795E-06
   4 F= -.36362188E+03 E0= -.36362188E+03  d E =-.170308E-02  mag=    16.0000
       N       E                     dE             d eps       ncg     rms          ort
SDA:   1    -0.363599438443E+03    0.22437E-01    0.00000E+00  6336   0.606E-01 0.000E+00
CGA:   2    -0.363615106921E+03   -0.15668E-01   -0.15701E-01  6336   0.360E-01 0.205E-03
CGA:   3    -0.363620732285E+03   -0.56254E-02   -0.56453E-02  6336   0.775E-02 0.811E-04
CGA:   4    -0.363622145412E+03   -0.14131E-02   -0.14039E-02  6336   0.201E-02-0.469E-04
CGA:   5    -0.363622529793E+03   -0.38438E-03   -0.37213E-03  6336   0.551E-03-0.664E-04
CGA:   6    -0.363622639713E+03   -0.10992E-03   -0.10384E-03  6336   0.195E-03-0.363E-04
CGA:   7    -0.363622680510E+03   -0.40797E-04   -0.39889E-04  6336   0.648E-04-0.672E-05
CGA:   8    -0.363622696206E+03   -0.15696E-04   -0.16005E-04  6336   0.241E-04 0.334E-05
CGA:   9    -0.363622705657E+03   -0.94511E-05   -0.14976E-04  6336   0.533E-04-0.223E-04
   5 F= -.36362271E+03 E0= -.36362271E+03  d E =-.822449E-03  mag=    16.0000
       N       E                     dE             d eps       ncg     rms          ort
SDA:   1    -0.363264579944E+03    0.35812E+00    0.00000E+00  6336   0.946E+00 0.000E+00
CGA:   2    -0.363497239710E+03   -0.23266E+00   -0.23275E+00  6336   0.581E+00 0.254E-03
CGA:   3    -0.363589745567E+03   -0.92506E-01   -0.92541E-01  6336   0.134E+00 0.126E-03
CGA:   4    -0.363612056137E+03   -0.22311E-01   -0.22340E-01  6336   0.323E-01 0.169E-03
CGA:   5    -0.363617873689E+03   -0.58176E-02   -0.58497E-02  6336   0.848E-02 0.211E-03
CGA:   6    -0.363619544358E+03   -0.16707E-02   -0.16771E-02  6336   0.247E-02 0.490E-04
CGA:   7    -0.363620130158E+03   -0.58580E-03   -0.58152E-03  6336   0.894E-03-0.564E-04
CGA:   8    -0.363620356362E+03   -0.22620E-03   -0.22675E-03  6336   0.355E-03 0.112E-04
CGA:   9    -0.363620453582E+03   -0.97220E-04   -0.98240E-04  6336   0.138E-03 0.317E-04
CGA:  10    -0.363620501537E+03   -0.47955E-04   -0.47846E-04  6336   0.674E-04 0.748E-05
CGA:  11    -0.363620527907E+03   -0.26370E-04   -0.26418E-04  6336   0.454E-04-0.749E-06
CGA:  12    -0.363620379102E+03    0.14880E-03   -0.81783E-04  6336   0.993E-03-0.140E-03
CGA:  13    -0.363620581883E+03   -0.20278E-03   -0.21637E-03  6336   0.140E-03 0.394E-04
CGA:  14    -0.363620640998E+03   -0.59116E-04   -0.56357E-04  6336   0.590E-04-0.178E-04
CGA:  15    -0.363620654078E+03   -0.13080E-04   -0.16347E-04  6336   0.218E-04 0.150E-04
CGA:  16    -0.363620247662E+03    0.40642E-03   -0.21924E-03  6336   0.176E-02-0.178E-03
CGA:  17    -0.363620585432E+03   -0.33777E-03   -0.43147E-03  6336   0.214E-03 0.130E-03
CGA:  18    -0.363620728146E+03   -0.14271E-03   -0.94066E-04  6336   0.161E-03-0.950E-04
CGA:  19    -0.363620719388E+03    0.87580E-05   -0.14851E-04  6336   0.832E-04 0.323E-04
CGA:  20    -0.363620706361E+03    0.13027E-04   -0.12994E-04  6336   0.357E-04 0.356E-04
CGA:  21    -0.363620710944E+03   -0.45830E-05   -0.10708E-04  6336   0.192E-04 0.996E-05
CGA:  22    -0.363620754274E+03   -0.43330E-04    0.87772E-04  6336   0.199E-03-0.738E-04
CGA:  23    -0.363620737704E+03    0.16570E-04   -0.27675E-04  6336   0.360E-04 0.675E-04
CGA:  24    -0.363620730927E+03    0.67769E-05   -0.64981E-05  6336   0.142E-04 0.212E-04
   6 F= -.36362073E+03 E0= -.36362073E+03  d E =0.197473E-02  mag=    16.0000
       N       E                     dE             d eps       ncg     rms          ort
SDA:   1    -0.363262145481E+03    0.35859E+00    0.00000E+00  6336   0.894E+00 0.000E+00
CGA:   2    -0.363503537211E+03   -0.24139E+00   -0.24182E+00  6336   0.504E+00 0.262E-03
CGA:   3    -0.363582450282E+03   -0.78913E-01   -0.78957E-01  6336   0.128E+00 0.850E-03
CGA:   4    -0.363604354325E+03   -0.21904E-01   -0.21850E-01  6336   0.293E-01-0.766E-04
CGA:   5    -0.363609694185E+03   -0.53399E-02   -0.52788E-02  6336   0.808E-02-0.137E-03
CGA:   6    -0.363611394915E+03   -0.17007E-02   -0.16655E-02  6336   0.255E-02-0.865E-04
CGA:   7    -0.363611975131E+03   -0.58022E-03   -0.57973E-03  6336   0.894E-03-0.212E-05
CGA:   8    -0.363612200691E+03   -0.22556E-03   -0.23297E-03  6336   0.359E-03 0.224E-04
CGA:   9    -0.363612321334E+03   -0.12064E-03   -0.11636E-03  6336   0.161E-03-0.168E-04
CGA:  10    -0.363612379838E+03   -0.58504E-04   -0.52878E-04  6336   0.841E-04-0.260E-04
CGA:  11    -0.363612403409E+03   -0.23571E-04   -0.22533E-04  6336   0.365E-04-0.457E-05
CGA:  12    -0.363612419862E+03   -0.16454E-04   -0.16100E-04  6336   0.352E-04-0.499E-05
CGA:  13    -0.363612437494E+03   -0.17632E-04   -0.17923E-04  6336   0.441E-04-0.532E-05
CGA:  14    -0.363612461803E+03   -0.24309E-04   -0.29603E-04  6336   0.783E-04-0.214E-04
CGA:  15    -0.363612478425E+03   -0.16622E-04   -0.15261E-04  6336   0.616E-04-0.913E-05
CGA:  16    -0.363612500300E+03   -0.21875E-04   -0.20442E-04  6336   0.458E-04-0.958E-05
CGA:  17    -0.363612521634E+03   -0.21334E-04   -0.29534E-04  6336   0.944E-04-0.366E-04
CGA:  18    -0.363612544439E+03   -0.22805E-04   -0.26871E-04  6336   0.161E-04 0.156E-04
CGA:  19    -0.363612556200E+03   -0.11761E-04   -0.13551E-04  6336   0.306E-04-0.937E-05
CGA:  20    -0.363612553626E+03    0.25741E-05   -0.37324E-05  6336   0.985E-05 0.150E-04
   7 F= -.36361255E+03 E0= -.36361255E+03  d E =0.817730E-02  mag=    16.0000
       N       E                     dE             d eps       ncg     rms          ort
SDA:   1    -0.363575862239E+03    0.36694E-01    0.00000E+00  6336   0.106E+00 0.000E+00
CGA:   2    -0.363602742482E+03   -0.26880E-01   -0.26916E-01  6336   0.647E-01 0.100E-03
CGA:   3    -0.363613421439E+03   -0.10679E-01   -0.10645E-01  6336   0.174E-01-0.120E-03
CGA:   4    -0.363616404872E+03   -0.29834E-02   -0.29608E-02  6336   0.417E-02-0.801E-04
CGA:   5    -0.363617200124E+03   -0.79525E-03   -0.78556E-03  6336   0.127E-02-0.375E-04
CGA:   6    -0.363617457926E+03   -0.25780E-03   -0.25664E-03  6336   0.401E-03-0.531E-05
CGA:   7    -0.363617546254E+03   -0.88328E-04   -0.91814E-04  6336   0.147E-03 0.172E-04
CGA:   8    -0.363617583732E+03   -0.37478E-04   -0.38695E-04  6336   0.528E-04 0.716E-05
CGA:   9    -0.363617602971E+03   -0.19239E-04   -0.18673E-04  6336   0.279E-04-0.751E-05
CGA:  10    -0.363617610746E+03   -0.77757E-05   -0.73450E-05  6336   0.122E-04-0.423E-05
   8 F= -.36361761E+03 E0= -.36361761E+03  d E =-.505712E-02  mag=    16.0000
       N       E                     dE             d eps       ncg     rms          ort
SDA:   1    -0.363598189507E+03    0.19413E-01    0.00000E+00  6336   0.490E-01 0.000E+00
CGA:   2    -0.363611174758E+03   -0.12985E-01   -0.12958E-01  6336   0.305E-01-0.225E-03
CGA:   3    -0.363615978874E+03   -0.48041E-02   -0.47674E-02  6336   0.716E-02-0.164E-03
CGA:   4    -0.363617140659E+03   -0.11618E-02   -0.11702E-02  6336   0.158E-02 0.377E-04
CGA:   5    -0.363617406784E+03   -0.26613E-03   -0.27801E-03  6336   0.403E-03 0.608E-04
CGA:   6    -0.363617481965E+03   -0.75181E-04   -0.80769E-04  6336   0.116E-03 0.336E-04
CGA:   7    -0.363617510105E+03   -0.28140E-04   -0.28877E-04  6336   0.425E-04 0.603E-05
CGA:   8    -0.363617524114E+03   -0.14009E-04   -0.13867E-04  6336   0.242E-04-0.416E-05
CGA:   9    -0.363617527869E+03   -0.37551E-05   -0.45244E-05  6336   0.897E-05 0.566E-05
   9 F= -.36361753E+03 E0= -.36361753E+03  d E =0.828776E-04  mag=    16.0000
       N       E                     dE             d eps       ncg     rms          ort
SDA:   1    -0.363416685109E+03    0.20084E+00    0.00000E+00  6336   0.522E+00 0.000E+00
CGA:   2    -0.363544747813E+03   -0.12806E+00   -0.12802E+00  6336   0.324E+00-0.855E-03
CGA:   3    -0.363597766327E+03   -0.53019E-01   -0.52895E-01  6336   0.797E-01-0.872E-03
CGA:   4    -0.363610826333E+03   -0.13060E-01   -0.13091E-01  6336   0.176E-01 0.197E-03
CGA:   5    -0.363613874980E+03   -0.30486E-02   -0.31039E-02  6336   0.464E-02 0.409E-03
CGA:   6    -0.363614778715E+03   -0.90374E-03   -0.92920E-03  6336   0.135E-02 0.238E-03
CGA:   7    -0.363615103793E+03   -0.32508E-03   -0.32632E-03  6336   0.472E-03 0.182E-04
CGA:   8    -0.363615242132E+03   -0.13834E-03   -0.13819E-03  6336   0.228E-03-0.316E-04
CGA:   9    -0.363615289752E+03   -0.47620E-04   -0.49676E-04  6336   0.758E-04 0.343E-04
CGA:  10    -0.363615306958E+03   -0.17206E-04   -0.18952E-04  6336   0.286E-04 0.240E-04
CGA:  11    -0.363615319469E+03   -0.12511E-04   -0.12632E-04  6336   0.183E-04-0.245E-05
CGA:  12    -0.363615323486E+03   -0.40171E-05   -0.10868E-04  6336   0.398E-04-0.189E-04
CGA:  13    -0.363615335162E+03   -0.11676E-04   -0.11622E-04  6336   0.132E-04-0.366E-05
CGA:  14    -0.363615337475E+03   -0.23130E-05   -0.26831E-05  6336   0.375E-05 0.451E-05
CGA:  15    -0.363615310528E+03    0.26948E-04   -0.14534E-04  6336   0.172E-03-0.226E-04
CGA:  16    -0.363615344742E+03   -0.34215E-04   -0.36624E-04  6336   0.988E-05 0.709E-05
CGA:  17    -0.363615345689E+03   -0.94673E-06   -0.24077E-05  6336   0.355E-05 0.486E-05
  10 F= -.36361535E+03 E0= -.36361535E+03  d E =0.218218E-02  mag=    16.0000
       N       E                     dE             d eps       ncg     rms          ort
SDA:   1    -0.362771537159E+03    0.84381E+00    0.00000E+00  6336   0.206E+01 0.000E+00
CGA:   2    -0.363357880579E+03   -0.58634E+00   -0.58692E+00  6336   0.118E+01 0.108E-02
CGA:   3    -0.363539419241E+03   -0.18154E+00   -0.18142E+00  6336   0.281E+00 0.135E-02
CGA:   4    -0.363586386671E+03   -0.46967E-01   -0.46858E-01  6336   0.612E-01-0.377E-03
CGA:   5    -0.363597506623E+03   -0.11120E-01   -0.11023E-01  6336   0.170E-01-0.367E-03
CGA:   6    -0.363601043729E+03   -0.35371E-02   -0.34851E-02  6336   0.523E-02-0.218E-03
CGA:   7    -0.363602199589E+03   -0.11559E-02   -0.11609E-02  6336   0.179E-02 0.214E-04
CGA:   8    -0.363602678241E+03   -0.47865E-03   -0.48464E-03  6336   0.763E-03 0.367E-04
CGA:   9    -0.363602945923E+03   -0.26768E-03   -0.26069E-03  6336   0.390E-03-0.810E-04
CGA:  10    -0.363603074209E+03   -0.12829E-03   -0.12288E-03  6336   0.203E-03-0.841E-04
CGA:  11    -0.363603124948E+03   -0.50739E-04   -0.49005E-04  6336   0.831E-04-0.165E-04
CGA:  12    -0.363603155048E+03   -0.30100E-04   -0.30050E-04  6336   0.584E-04-0.342E-05
CGA:  13    -0.363603185681E+03   -0.30633E-04   -0.33159E-04  6336   0.757E-04-0.140E-04
CGA:  14    -0.363603211798E+03   -0.26117E-04   -0.46807E-04  6336   0.151E-03-0.531E-04
CGA:  15    -0.363603252381E+03   -0.40583E-04   -0.42709E-04  6336   0.360E-04 0.138E-04
CGA:  16    -0.363603224289E+03    0.28092E-04   -0.60497E-04  6336   0.324E-03-0.800E-04
CGA:  17    -0.363603284690E+03   -0.60401E-04   -0.72381E-04  6336   0.566E-04 0.457E-04
CGA:  18    -0.363603315014E+03   -0.30324E-04   -0.30254E-04  6336   0.417E-04-0.221E-04
CGA:  19    -0.363603313491E+03    0.15232E-05   -0.30316E-05  6336   0.247E-04 0.129E-04
  11 F= -.36360331E+03 E0= -.36360331E+03  d E =0.120322E-01  mag=    16.0000
       N       E                     dE             d eps       ncg     rms          ort
SDA:   1    -0.363489356142E+03    0.11396E+00    0.00000E+00  6336   0.321E+00 0.000E+00
CGA:   2    -0.363566658708E+03   -0.77303E-01   -0.77368E-01  6336   0.193E+00 0.161E-03
CGA:   3    -0.363598588694E+03   -0.31930E-01   -0.31979E-01  6336   0.504E-01 0.142E-03
CGA:   4    -0.363607075330E+03   -0.84866E-02   -0.84880E-02  6336   0.117E-01-0.602E-06
CGA:   5    -0.363609195969E+03   -0.21206E-02   -0.21404E-02  6336   0.326E-02 0.859E-04
CGA:   6    -0.363609848031E+03   -0.65206E-03   -0.66124E-03  6336   0.100E-02 0.471E-04
CGA:   7    -0.363610094231E+03   -0.24620E-03   -0.24416E-03  6336   0.385E-03-0.149E-04
CGA:   8    -0.363610190174E+03   -0.95942E-04   -0.96775E-04  6336   0.146E-03 0.692E-05
CGA:   9    -0.363610227718E+03   -0.37545E-04   -0.39155E-04  6336   0.514E-04 0.155E-04
CGA:  10    -0.363610240475E+03   -0.12757E-04   -0.14128E-04  6336   0.190E-04 0.120E-04
CGA:  11    -0.363610244985E+03   -0.45101E-05   -0.55057E-05  6336   0.851E-05 0.812E-05
  12 F= -.36361024E+03 E0= -.36361024E+03  d E =-.693149E-02  mag=    16.0000
       N       E                     dE             d eps       ncg     rms          ort
SDA:   1    -0.363595609307E+03    0.14631E-01    0.00000E+00  6336   0.413E-01 0.000E+00
CGA:   2    -0.363607438790E+03   -0.11829E-01   -0.11797E-01  6336   0.218E-01-0.522E-03
CGA:   3    -0.363610809946E+03   -0.33712E-02   -0.33653E-02  6336   0.619E-02-0.343E-04
CGA:   4    -0.363611845178E+03   -0.10352E-02   -0.10610E-02  6336   0.136E-02 0.156E-03
CGA:   5    -0.363612040470E+03   -0.19529E-03   -0.22292E-03  6336   0.330E-03 0.165E-03
CGA:   6    -0.363612090903E+03   -0.50433E-04   -0.64320E-04  6336   0.110E-03 0.953E-04
CGA:   7    -0.363612120594E+03   -0.29691E-04   -0.31831E-04  6336   0.508E-04 0.244E-04
CGA:   8    -0.363612140708E+03   -0.20114E-04   -0.20300E-04  6336   0.398E-04-0.948E-05
CGA:   9    -0.363612142510E+03   -0.18023E-05   -0.42492E-05  6336   0.211E-04 0.138E-04
  13 F= -.36361214E+03 E0= -.36361214E+03  d E =-.189753E-02  mag=    16.0000
       N       E                     dE             d eps       ncg     rms          ort
SDA:   1    -0.363587324568E+03    0.24816E-01    0.00000E+00  6336   0.645E-01 0.000E+00
CGA:   2    -0.363604760779E+03   -0.17436E-01   -0.17420E-01  6336   0.369E-01-0.858E-03
CGA:   3    -0.363610445670E+03   -0.56849E-02   -0.56771E-02  6336   0.973E-02-0.679E-04
CGA:   4    -0.363612084024E+03   -0.16384E-02   -0.16684E-02  6336   0.226E-02 0.271E-03
CGA:   5    -0.363612430021E+03   -0.34600E-03   -0.37564E-03  6336   0.533E-03 0.258E-03
CGA:   6    -0.363612518503E+03   -0.88481E-04   -0.10245E-03  6336   0.170E-03 0.142E-03
CGA:   7    -0.363612566516E+03   -0.48014E-04   -0.49162E-04  6336   0.762E-04 0.307E-04
CGA:   8    -0.363612595544E+03   -0.29027E-04   -0.30636E-04  6336   0.629E-04-0.211E-04
CGA:   9    -0.363612597940E+03   -0.23966E-05   -0.53219E-05  6336   0.343E-04 0.194E-04
  14 F= -.36361260E+03 E0= -.36361260E+03  d E =-.455430E-03  mag=    16.0000
       N       E                     dE             d eps       ncg     rms          ort
SDA:   1    -0.363537890849E+03    0.74705E-01    0.00000E+00  6336   0.178E+00 0.000E+00
CGA:   2    -0.363590981799E+03   -0.53091E-01   -0.53083E-01  6336   0.101E+00 0.125E-03
CGA:   3    -0.363605915382E+03   -0.14934E-01   -0.14946E-01  6336   0.221E-01 0.105E-03
CGA:   4    -0.363609653007E+03   -0.37376E-02   -0.37330E-02  6336   0.521E-02-0.613E-04
CGA:   5    -0.363610623981E+03   -0.97097E-03   -0.96734E-03  6336   0.144E-02-0.638E-04
CGA:   6    -0.363610905239E+03   -0.28126E-03   -0.28118E-03  6336   0.419E-03-0.211E-05
CGA:   7    -0.363611001376E+03   -0.96136E-04   -0.96188E-04  6336   0.147E-03 0.534E-05
CGA:   8    -0.363611039514E+03   -0.38138E-04   -0.38008E-04  6336   0.574E-04 0.782E-05
CGA:   9    -0.363611058404E+03   -0.18889E-04   -0.18914E-04  6336   0.262E-04-0.352E-06
CGA:  10    -0.363611066053E+03   -0.76498E-05   -0.14749E-04  6336   0.466E-04-0.220E-04
  15 F= -.36361107E+03 E0= -.36361107E+03  d E =0.153189E-02  mag=    16.0000
       N       E                     dE             d eps       ncg     rms          ort
SDA:   1    -0.363474009841E+03    0.13705E+00    0.00000E+00  6336   0.324E+00 0.000E+00
CGA:   2    -0.363576689337E+03   -0.10268E+00   -0.10261E+00  6336   0.152E+00 0.106E-02
CGA:   3    -0.363600128946E+03   -0.23440E-01   -0.23432E-01  6336   0.400E-01-0.999E-04
CGA:   4    -0.363606906056E+03   -0.67771E-02   -0.67549E-02  6336   0.896E-02-0.273E-03
CGA:   5    -0.363608611935E+03   -0.17059E-02   -0.16918E-02  6336   0.272E-02-0.245E-03
CGA:   6    -0.363609159555E+03   -0.54762E-03   -0.54331E-03  6336   0.859E-03-0.108E-03
CGA:   7    -0.363609348544E+03   -0.18899E-03   -0.18923E-03  6336   0.300E-03 0.173E-04
CGA:   8    -0.363609424607E+03   -0.76063E-04   -0.75924E-04  6336   0.112E-03 0.249E-04
CGA:   9    -0.363609467066E+03   -0.42458E-04   -0.45907E-04  6336   0.737E-04-0.255E-04
CGA:  10    -0.363609484731E+03   -0.17666E-04   -0.20141E-04  6336   0.421E-04-0.238E-04
CGA:  11    -0.363609490511E+03   -0.57794E-05   -0.59778E-05  6336   0.171E-04 0.436E-05
  16 F= -.36360949E+03 E0= -.36360949E+03  d E =0.157554E-02  mag=    16.0000
       N       E                     dE             d eps       ncg     rms          ort
SDA:   1    -0.363552395096E+03    0.57090E-01    0.00000E+00  6336   0.144E+00 0.000E+00
CGA:   2    -0.363594066807E+03   -0.41672E-01   -0.41687E-01  6336   0.806E-01-0.397E-03
CGA:   3    -0.363606530896E+03   -0.12464E-01   -0.12451E-01  6336   0.197E-01-0.160E-03
CGA:   4    -0.363609842931E+03   -0.33120E-02   -0.33239E-02  6336   0.451E-02 0.150E-03
CGA:   5    -0.363610646652E+03   -0.80372E-03   -0.81362E-03  6336   0.122E-02 0.156E-03
CGA:   6    -0.363610898810E+03   -0.25216E-03   -0.25432E-03  6336   0.381E-03 0.575E-04
CGA:   7    -0.363611003277E+03   -0.10447E-03   -0.10501E-03  6336   0.176E-03-0.209E-04
CGA:   8    -0.363611050051E+03   -0.46774E-04   -0.47542E-04  6336   0.830E-04-0.160E-04
CGA:   9    -0.363611066627E+03   -0.16576E-04   -0.16851E-04  6336   0.276E-04 0.159E-04
CGA:  10    -0.363611073080E+03   -0.64531E-05   -0.68015E-05  6336   0.121E-04 0.106E-04
  17 F= -.36361107E+03 E0= -.36361107E+03  d E =-.158257E-02  mag=    16.0000
       N       E                     dE             d eps       ncg     rms          ort
SDA:   1    -0.363603510804E+03    0.75558E-02    0.00000E+00  6336   0.204E-01 0.000E+00
CGA:   2    -0.363608637320E+03   -0.51265E-02   -0.51241E-02  6336   0.110E-01 0.419E-03
CGA:   3    -0.363610441695E+03   -0.18044E-02   -0.18134E-02  6336   0.300E-02 0.103E-03
CGA:   4    -0.363611019755E+03   -0.57806E-03   -0.56986E-03  6336   0.864E-03-0.154E-03
CGA:   5    -0.363611195881E+03   -0.17613E-03   -0.17108E-03  6336   0.346E-03-0.167E-03
CGA:   6    -0.363611256982E+03   -0.61100E-04   -0.59555E-04  6336   0.133E-03-0.646E-04
CGA:   7    -0.363611274279E+03   -0.17298E-04   -0.18709E-04  6336   0.389E-04 0.225E-04
CGA:   8    -0.363611278324E+03   -0.40445E-05   -0.60804E-05  6336   0.172E-04 0.205E-04
  18 F= -.36361128E+03 E0= -.36361128E+03  d E =-.205244E-03  mag=    16.0000
       N       E                     dE             d eps       ncg     rms          ort
SDA:   1    -0.363602089468E+03    0.91848E-02    0.00000E+00  6336   0.210E-01 0.000E+00
CGA:   2    -0.363609217489E+03   -0.71280E-02   -0.71069E-02  6336   0.858E-02 0.195E-03
CGA:   3    -0.363610513764E+03   -0.12963E-02   -0.12943E-02  6336   0.229E-02-0.238E-04
CGA:   4    -0.363610902448E+03   -0.38868E-03   -0.38436E-03  6336   0.527E-03-0.672E-04
CGA:   5    -0.363611005516E+03   -0.10307E-03   -0.10100E-03  6336   0.185E-03-0.640E-04
CGA:   6    -0.363611037331E+03   -0.31814E-04   -0.31314E-04  6336   0.525E-04-0.141E-04
CGA:   7    -0.363611045630E+03   -0.82991E-05   -0.87619E-05  6336   0.155E-04 0.101E-04
  19 F= -.36361105E+03 E0= -.36361105E+03  d E =0.232694E-03  mag=    16.0000
       N       E                     dE             d eps       ncg     rms          ort
SDA:   1    -0.362425367801E+03    0.11857E+01    0.00000E+00  6336   0.278E+01 0.000E+00
CGA:   2    -0.363318257061E+03   -0.89289E+00   -0.89254E+00  6336   0.144E+01 0.297E-02
CGA:   3    -0.363528170040E+03   -0.20991E+00   -0.20989E+00  6336   0.329E+00-0.331E-03
CGA:   4    -0.363583098088E+03   -0.54928E-01   -0.54894E-01  6336   0.729E-01-0.629E-03
CGA:   5    -0.363596363397E+03   -0.13265E-01   -0.13258E-01  6336   0.203E-01-0.209E-03
CGA:   6    -0.363600395853E+03   -0.40325E-02   -0.40330E-02  6336   0.583E-02 0.209E-04
CGA:   7    -0.363601726673E+03   -0.13308E-02   -0.13305E-02  6336   0.206E-02 0.324E-04
CGA:   8    -0.363602286435E+03   -0.55976E-03   -0.55766E-03  6336   0.867E-03 0.408E-04
CGA:   9    -0.363602550821E+03   -0.26439E-03   -0.26417E-03  6336   0.350E-03 0.273E-05
CGA:  10    -0.363602661911E+03   -0.11109E-03   -0.11569E-03  6336   0.147E-03-0.440E-04
CGA:  11    -0.363602696363E+03   -0.34452E-04   -0.34273E-04  6336   0.466E-04 0.482E-05
CGA:  12    -0.363602715099E+03   -0.18736E-04   -0.20143E-04  6336   0.388E-04-0.759E-05
CGA:  13    -0.363602730399E+03   -0.15300E-04   -0.24103E-04  6336   0.845E-04-0.178E-04
CGA:  14    -0.363602748666E+03   -0.18267E-04   -0.21145E-04  6336   0.969E-04-0.154E-04
CGA:  15    -0.363602779238E+03   -0.30572E-04   -0.35507E-04  6336   0.969E-04-0.296E-04
CGA:  16    -0.363602804565E+03   -0.25327E-04   -0.32974E-04  6336   0.950E-04-0.386E-04
CGA:  17    -0.363602825921E+03   -0.21357E-04   -0.26764E-04  6336   0.997E-04-0.330E-04
CGA:  18    -0.363602841965E+03   -0.16044E-04   -0.45382E-04  6336   0.181E-03-0.781E-04
CGA:  19    -0.363602895583E+03   -0.53617E-04   -0.54343E-04  6336   0.374E-04 0.315E-04
CGA:  20    -0.363602869209E+03    0.26374E-04   -0.68633E-04  6336   0.334E-03-0.766E-04
CGA:  21    -0.363602907060E+03   -0.37852E-04   -0.58965E-04  6336   0.698E-04 0.102E-03
CGA:  22    -0.363602937650E+03   -0.30590E-04   -0.30385E-04  6336   0.286E-04-0.515E-05
CGA:  23    -0.363602594757E+03    0.34289E-03   -0.18566E-03  6336   0.161E-02-0.200E-03
CGA:  24    -0.363602844766E+03   -0.25001E-03   -0.32440E-03  6336   0.178E-03 0.156E-03
CGA:  25    -0.363602962606E+03   -0.11784E-03   -0.11048E-03  6336   0.173E-03-0.843E-04
CGA:  26    -0.363602963528E+03   -0.92205E-06   -0.12272E-04  6336   0.846E-04 0.220E-04
CGA:  27    -0.363602959079E+03    0.44483E-05   -0.10175E-04  6336   0.304E-04 0.282E-04
  20 F= -.36360296E+03 E0= -.36360296E+03  d E =0.808655E-02  mag=    16.0000
       N       E                     dE             d eps       ncg     rms          ort
SDA:   1    -0.360818942406E+03    0.27840E+01    0.00000E+00  6336   0.677E+01 0.000E+00
CGA:   2    -0.362910948250E+03   -0.20920E+01   -0.20937E+01  6336   0.319E+01 0.358E-02
CGA:   3    -0.363395846047E+03   -0.48490E+00   -0.48426E+00  6336   0.805E+00 0.211E-01
CGA:   4    -0.363533273285E+03   -0.13743E+00   -0.13724E+00  6336   0.183E+00 0.240E-03
CGA:   5    -0.363567099993E+03   -0.33827E-01   -0.33835E-01  6336   0.517E-01 0.288E-04
CGA:   6    -0.363577296543E+03   -0.10197E-01   -0.10255E-01  6336   0.156E-01 0.225E-03
CGA:   7    -0.363581017477E+03   -0.37209E-02   -0.37477E-02  6336   0.601E-02 0.738E-04
CGA:   8    -0.363582574440E+03   -0.15570E-02   -0.15794E-02  6336   0.251E-02 0.201E-03
CGA:   9    -0.363583298150E+03   -0.72371E-03   -0.74398E-03  6336   0.112E-02 0.160E-03
CGA:  10    -0.363583604825E+03   -0.30668E-03   -0.32304E-03  6336   0.468E-03-0.376E-05
CGA:  11    -0.363583735800E+03   -0.13097E-03   -0.13229E-03  6336   0.234E-03 0.136E-04
CGA:  12    -0.363583791922E+03   -0.56122E-04   -0.60662E-04  6336   0.148E-03 0.354E-05
CGA:  13    -0.363583839567E+03   -0.47645E-04   -0.49281E-04  6336   0.112E-03 0.198E-04
CGA:  14    -0.363583889627E+03   -0.50060E-04   -0.50916E-04  6336   0.974E-04 0.362E-04
CGA:  15    -0.363583943304E+03   -0.53677E-04   -0.53933E-04  6336   0.815E-04 0.435E-04
CGA:  16    -0.363583997000E+03   -0.53696E-04   -0.52820E-04  6336   0.670E-04 0.345E-04
CGA:  17    -0.363584035789E+03   -0.38788E-04   -0.39305E-04  6336   0.550E-04 0.373E-04
CGA:  18    -0.363584061697E+03   -0.25909E-04   -0.25568E-04  6336   0.303E-04 0.823E-05
CGA:  19    -0.363584085357E+03   -0.23660E-04   -0.21095E-04  6336   0.266E-04 0.142E-04
CGA:  20    -0.363584113662E+03   -0.28304E-04   -0.25855E-04  6336   0.285E-04 0.102E-04
CGA:  21    -0.363584126940E+03   -0.13278E-04   -0.14704E-04  6336   0.220E-04 0.186E-04
CGA:  22    -0.363584133231E+03   -0.62919E-05   -0.32035E-04  6336   0.189E-03-0.247E-04
CGA:  23    -0.363584147054E+03   -0.13822E-04   -0.29127E-04  6336   0.362E-04 0.368E-04
CGA:  24    -0.363584143320E+03    0.37333E-05   -0.74439E-05  6336   0.550E-04 0.175E-04
  21 F= -.36358414E+03 E0= -.36358414E+03  d E =0.188158E-01  mag=    16.0000
       N       E                     dE             d eps       ncg     rms          ort
SDA:   1    -0.360971561199E+03    0.26126E+01    0.00000E+00  6336   0.646E+01 0.000E+00
CGA:   2    -0.362913089239E+03   -0.19415E+01   -0.19426E+01  6336   0.348E+01 0.115E-02
CGA:   3    -0.363427469143E+03   -0.51438E+00   -0.51421E+00  6336   0.791E+00 0.824E-02
CGA:   4    -0.363561516284E+03   -0.13405E+00   -0.13404E+00  6336   0.182E+00 0.319E-03
CGA:   5    -0.363594238705E+03   -0.32722E-01   -0.32795E-01  6336   0.488E-01 0.235E-03
CGA:   6    -0.363604029077E+03   -0.97904E-02   -0.97889E-02  6336   0.143E-01-0.194E-04
CGA:   7    -0.363607326813E+03   -0.32977E-02   -0.32954E-02  6336   0.503E-02-0.176E-04
CGA:   8    -0.363608659922E+03   -0.13331E-02   -0.13401E-02  6336   0.207E-02 0.612E-04
CGA:   9    -0.363609284969E+03   -0.62505E-03   -0.62417E-03  6336   0.818E-03-0.118E-04
CGA:  10    -0.363609513496E+03   -0.22853E-03   -0.23017E-03  6336   0.262E-03 0.188E-04
CGA:  11    -0.363609584821E+03   -0.71325E-04   -0.73166E-04  6336   0.800E-04 0.197E-04
CGA:  12    -0.363609619011E+03   -0.34190E-04   -0.34543E-04  6336   0.552E-04-0.879E-05
CGA:  13    -0.363609636753E+03   -0.17742E-04   -0.17758E-04  6336   0.368E-04 0.974E-05
CGA:  14    -0.363609657472E+03   -0.20719E-04   -0.20296E-04  6336   0.340E-04 0.394E-05
CGA:  15    -0.363609677218E+03   -0.19745E-04   -0.19582E-04  6336   0.333E-04 0.937E-06
CGA:  16    -0.363609688828E+03   -0.11611E-04   -0.11909E-04  6336   0.212E-04 0.104E-04
CGA:  17    -0.363609702713E+03   -0.13885E-04   -0.24199E-04  6336   0.759E-04-0.213E-04
CGA:  18    -0.363609722522E+03   -0.19809E-04   -0.20815E-04  6336   0.109E-04 0.803E-05
CGA:  19    -0.363609734262E+03   -0.11739E-04    0.96566E-05  6336   0.675E-05 0.466E-05
CGA:  20    -0.363609739743E+03   -0.54814E-05   -0.49225E-05  6336   0.698E-05 0.472E-05
  22 F= -.36360974E+03 E0= -.36360974E+03  d E =-.255964E-01  mag=    16.0000
       N       E                     dE             d eps       ncg     rms          ort
SDA:   1    -0.362523030626E+03    0.10867E+01    0.00000E+00  6336   0.256E+01 0.000E+00
CGA:   2    -0.363269231953E+03   -0.74620E+00   -0.74625E+00  6336   0.122E+01-0.668E-03
CGA:   3    -0.363466301512E+03   -0.19707E+00   -0.19715E+00  6336   0.363E+00 0.428E-03
CGA:   4    -0.363529656707E+03   -0.63355E-01   -0.63490E-01  6336   0.876E-01 0.657E-03
CGA:   5    -0.363546235147E+03   -0.16578E-01   -0.16660E-01  6336   0.267E-01 0.428E-03
CGA:   6    -0.363551791121E+03   -0.55560E-02   -0.55619E-02  6336   0.914E-02 0.329E-04
CGA:   7    -0.363554182523E+03   -0.23914E-02   -0.23836E-02  6336   0.397E-02-0.843E-04
CGA:   8    -0.363555192810E+03   -0.10103E-02   -0.10109E-02  6336   0.150E-02 0.562E-05
CGA:   9    -0.363555629484E+03   -0.43667E-03   -0.43814E-03  6336   0.562E-03 0.268E-04
CGA:  10    -0.363555794825E+03   -0.16534E-03   -0.16619E-03  6336   0.230E-03 0.159E-04
CGA:  11    -0.363555882729E+03   -0.87904E-04   -0.88147E-04  6336   0.148E-03-0.802E-05
CGA:  12    -0.363555963124E+03   -0.80395E-04   -0.10677E-03  6336   0.346E-03-0.662E-04
CGA:  13    -0.363556047048E+03   -0.83923E-04   -0.92258E-04  6336   0.466E-03-0.751E-04
CGA:  14    -0.363556203693E+03   -0.15665E-03   -0.16558E-03  6336   0.532E-03-0.119E-03
CGA:  15    -0.363556373342E+03   -0.16965E-03   -0.19928E-03  6336   0.586E-03-0.226E-03
CGA:  16    -0.363556487855E+03   -0.11451E-03   -0.10843E-03  6336   0.411E-03-0.983E-04
CGA:  17    -0.363556584370E+03   -0.96514E-04   -0.92556E-04  6336   0.234E-03-0.328E-04
CGA:  18    -0.363556652230E+03   -0.67860E-04   -0.67265E-04  6336   0.174E-03-0.869E-05
CGA:  19    -0.363556692204E+03   -0.39974E-04   -0.43175E-04  6336   0.117E-03 0.298E-04
CGA:  20    -0.363556720548E+03   -0.28343E-04   -0.32730E-04  6336   0.705E-04 0.353E-04
CGA:  21    -0.363556741290E+03   -0.20742E-04   -0.23200E-04  6336   0.437E-04 0.238E-04
CGA:  22    -0.363556751390E+03   -0.10100E-04   -0.12960E-04  6336   0.269E-04 0.221E-04
CGA:  23    -0.363556757617E+03   -0.62273E-05   -0.72743E-05  6336   0.122E-04 0.141E-04
CGA:  24    -0.363556772290E+03   -0.14673E-04   -0.11782E-04  6336   0.154E-04 0.466E-05
CGA:  25    -0.363556770814E+03    0.14759E-05   -0.26686E-05  6336   0.877E-05 0.168E-04
  23 F= -.36355677E+03 E0= -.36355677E+03  d E =0.529689E-01  mag=    16.0000
       N       E                     dE             d eps       ncg     rms          ort
SDA:   1    -0.362643116182E+03    0.91366E+00    0.00000E+00  6336   0.238E+01 0.000E+00
CGA:   2    -0.363358592907E+03   -0.71548E+00   -0.71559E+00  6336   0.111E+01 0.191E-02
CGA:   3    -0.363534224602E+03   -0.17563E+00   -0.17558E+00  6336   0.319E+00-0.623E-04
CGA:   4    -0.363589353406E+03   -0.55129E-01   -0.55025E-01  6336   0.752E-01-0.753E-03
CGA:   5    -0.363603665710E+03   -0.14312E-01   -0.14280E-01  6336   0.228E-01-0.258E-03
CGA:   6    -0.363608285348E+03   -0.46196E-02   -0.46251E-02  6336   0.755E-02 0.409E-04
CGA:   7    -0.363610187199E+03   -0.19019E-02   -0.19080E-02  6336   0.313E-02 0.958E-04
CGA:   8    -0.363611009329E+03   -0.82213E-03   -0.82481E-03  6336   0.125E-02 0.514E-04
CGA:   9    -0.363611401458E+03   -0.39213E-03   -0.39212E-03  6336   0.530E-03-0.169E-04
CGA:  10    -0.363611568831E+03   -0.16737E-03   -0.16772E-03  6336   0.258E-03-0.319E-04
CGA:  11    -0.363611650833E+03   -0.82002E-04   -0.81637E-04  6336   0.144E-03 0.141E-04
CGA:  12    -0.363611724782E+03   -0.73949E-04   -0.70972E-04  6336   0.148E-03 0.197E-04
CGA:  13    -0.363611829945E+03   -0.10516E-03   -0.99201E-04  6336   0.191E-03 0.234E-04
CGA:  14    -0.363611955815E+03   -0.12587E-03   -0.11607E-03  6336   0.161E-03 0.499E-04
CGA:  15    -0.363612069623E+03   -0.11381E-03   -0.10959E-03  6336   0.137E-03 0.192E-04
CGA:  16    -0.363612143638E+03   -0.74015E-04   -0.71412E-04  6336   0.882E-04 0.222E-04
CGA:  17    -0.363612200288E+03   -0.56650E-04   -0.56920E-04  6336   0.733E-04-0.206E-05
CGA:  18    -0.363612229011E+03   -0.28723E-04   -0.28194E-04  6336   0.412E-04 0.192E-04
CGA:  19    -0.363612247902E+03   -0.18891E-04   -0.18948E-04  6336   0.199E-04 0.113E-04
CGA:  20    -0.363612256721E+03   -0.88187E-05   -0.89631E-05  6336   0.101E-04 0.878E-05
  24 F= -.36361226E+03 E0= -.36361226E+03  d E =-.554859E-01  mag=    16.0000
       N       E                     dE             d eps       ncg     rms          ort
SDA:   1    -0.363602557824E+03    0.96901E-02    0.00000E+00  6336   0.260E-01 0.000E+00
CGA:   2    -0.363609592421E+03   -0.70346E-02   -0.70338E-02  6336   0.159E-01-0.188E-04
CGA:   3    -0.363612033499E+03   -0.24411E-02   -0.24407E-02  6336   0.348E-02-0.594E-05
CGA:   4    -0.363612601010E+03   -0.56751E-03   -0.57238E-03  6336   0.795E-03 0.258E-04
CGA:   5    -0.363612733422E+03   -0.13241E-03   -0.13784E-03  6336   0.200E-03 0.324E-04
CGA:   6    -0.363612772888E+03   -0.39466E-04   -0.40710E-04  6336   0.568E-04 0.916E-05
CGA:   7    -0.363612786928E+03   -0.14041E-04   -0.14028E-04  6336   0.216E-04-0.160E-06
CGA:   8    -0.363612791691E+03   -0.47632E-05   -0.50734E-05  6336   0.865E-05 0.372E-05
  25 F= -.36361279E+03 E0= -.36361279E+03  d E =-.534971E-03  mag=    16.0000
       N       E                     dE             d eps       ncg     rms          ort
SDA:   1    -0.363370508145E+03    0.24228E+00    0.00000E+00  6336   0.716E+00 0.000E+00
CGA:   2    -0.363516797925E+03   -0.14629E+00   -0.14648E+00  6336   0.390E+00 0.121E-02
CGA:   3    -0.363587879352E+03   -0.71081E-01   -0.71146E-01  6336   0.113E+00 0.200E-03
CGA:   4    -0.363606769480E+03   -0.18890E-01   -0.18888E-01  6336   0.259E-01-0.682E-04
CGA:   5    -0.363611392962E+03   -0.46235E-02   -0.46445E-02  6336   0.696E-02 0.173E-03
CGA:   6    -0.363612770930E+03   -0.13780E-02   -0.13842E-02  6336   0.192E-02 0.656E-04
CGA:   7    -0.363613213956E+03   -0.44303E-03   -0.44158E-03  6336   0.669E-03-0.283E-04
CGA:   8    -0.363613384275E+03   -0.17032E-03   -0.17038E-03  6336   0.265E-03 0.294E-05
CGA:   9    -0.363613455949E+03   -0.71674E-04   -0.71822E-04  6336   0.104E-03 0.188E-04
CGA:  10    -0.363613484858E+03   -0.28910E-04   -0.29204E-04  6336   0.413E-04 0.212E-04
CGA:  11    -0.363613497286E+03   -0.12428E-04   -0.12697E-04  6336   0.166E-04 0.129E-04
CGA:  12    -0.363613505717E+03   -0.84307E-05   -0.85570E-05  6336   0.137E-04-0.107E-05
  26 F= -.36361351E+03 E0= -.36361351E+03  d E =-.714025E-03  mag=    16.0000
       N       E                     dE             d eps       ncg     rms          ort
SDA:   1    -0.363487181576E+03    0.12632E+00    0.00000E+00  6336   0.315E+00 0.000E+00
CGA:   2    -0.363578218046E+03   -0.91036E-01   -0.91030E-01  6336   0.180E+00 0.815E-03
CGA:   3    -0.363605335994E+03   -0.27118E-01   -0.27101E-01  6336   0.404E-01-0.147E-03
CGA:   4    -0.363612198445E+03   -0.68625E-02   -0.68276E-02  6336   0.934E-02-0.335E-03
CGA:   5    -0.363613898927E+03   -0.17005E-02   -0.16860E-02  6336   0.254E-02-0.166E-03
CGA:   6    -0.363614397214E+03   -0.49829E-03   -0.49719E-03  6336   0.743E-03-0.172E-04
CGA:   7    -0.363614555477E+03   -0.15826E-03   -0.15978E-03  6336   0.241E-03 0.326E-04
CGA:   8    -0.363614619627E+03   -0.64150E-04   -0.64233E-04  6336   0.967E-04 0.177E-04
CGA:   9    -0.363614654754E+03   -0.35127E-04   -0.36378E-04  6336   0.561E-04-0.139E-04
CGA:  10    -0.363614670242E+03   -0.15488E-04   -0.16779E-04  6336   0.295E-04-0.153E-04
CGA:  11    -0.363614674488E+03   -0.42457E-05   -0.44612E-05  6336   0.105E-04 0.353E-05
  27 F= -.36361467E+03 E0= -.36361467E+03  d E =-.116877E-02  mag=    16.0000
       N       E                     dE             d eps       ncg     rms          ort
SDA:   1    -0.363567080442E+03    0.47590E-01    0.00000E+00  6336   0.146E+00 0.000E+00
CGA:   2    -0.363595326720E+03   -0.28246E-01   -0.28290E-01  6336   0.770E-01 0.563E-03
CGA:   3    -0.363609718133E+03   -0.14391E-01   -0.14410E-01  6336   0.229E-01 0.191E-03
CGA:   4    -0.363613637397E+03   -0.39193E-02   -0.39033E-02  6336   0.566E-02-0.202E-03
CGA:   5    -0.363614697744E+03   -0.10603E-02   -0.10488E-02  6336   0.160E-02-0.186E-03
CGA:   6    -0.363615010225E+03   -0.31248E-03   -0.30933E-03  6336   0.458E-03-0.695E-04
CGA:   7    -0.363615099223E+03   -0.88998E-04   -0.89871E-04  6336   0.133E-03 0.220E-04
CGA:   8    -0.363615128839E+03   -0.29615E-04   -0.30217E-04  6336   0.433E-04 0.239E-04
CGA:   9    -0.363615144977E+03   -0.16138E-04   -0.16316E-04  6336   0.243E-04-0.233E-05
CGA:  10    -0.363615152158E+03   -0.71815E-05   -0.11141E-04  6336   0.329E-04-0.166E-04
  28 F= -.36361515E+03 E0= -.36361515E+03  d E =-.477670E-03  mag=    16.0000
       N       E                     dE             d eps       ncg     rms          ort
SDA:   1    -0.363579049774E+03    0.36095E-01    0.00000E+00  6336   0.879E-01 0.000E+00
CGA:   2    -0.363606829263E+03   -0.27779E-01   -0.27778E-01  6336   0.420E-01-0.931E-05
CGA:   3    -0.363613324794E+03   -0.64955E-02   -0.64843E-02  6336   0.104E-01-0.121E-03
CGA:   4    -0.363615001554E+03   -0.16768E-02   -0.16794E-02  6336   0.220E-02 0.276E-04
CGA:   5    -0.363615385924E+03   -0.38437E-03   -0.39028E-03  6336   0.593E-03 0.856E-04
CGA:   6    -0.363615501803E+03   -0.11588E-03   -0.11775E-03  6336   0.159E-03 0.363E-04
CGA:   7    -0.363615546019E+03   -0.44216E-04   -0.44483E-04  6336   0.747E-04-0.112E-04
CGA:   8    -0.363615564661E+03   -0.18642E-04   -0.18656E-04  6336   0.324E-04-0.496E-06
CGA:   9    -0.363615571021E+03   -0.63594E-05   -0.66996E-05  6336   0.114E-04 0.990E-05
  29 F= -.36361557E+03 E0= -.36361557E+03  d E =-.418862E-03  mag=    16.0000
       N       E                     dE             d eps       ncg     rms          ort
SDA:   1    -0.363435853128E+03    0.17971E+00    0.00000E+00  6336   0.442E+00 0.000E+00
CGA:   2    -0.363570069614E+03   -0.13422E+00   -0.13415E+00  6336   0.217E+00 0.770E-03
CGA:   3    -0.363604665519E+03   -0.34596E-01   -0.34591E-01  6336   0.545E-01-0.112E-03
CGA:   4    -0.363613535181E+03   -0.88697E-02   -0.88646E-02  6336   0.111E-01-0.856E-04
CGA:   5    -0.363615574961E+03   -0.20398E-02   -0.20465E-02  6336   0.320E-02 0.133E-03
CGA:   6    -0.363616200310E+03   -0.62535E-03   -0.62889E-03  6336   0.876E-03 0.934E-04
CGA:   7    -0.363616421931E+03   -0.22162E-03   -0.22154E-03  6336   0.370E-03 0.473E-05
CGA:   8    -0.363616524755E+03   -0.10282E-03   -0.10225E-03  6336   0.168E-03 0.128E-04
CGA:   9    -0.363616571606E+03   -0.46851E-04   -0.45889E-04  6336   0.648E-04 0.305E-04
CGA:  10    -0.363616592000E+03   -0.20394E-04   -0.19962E-04  6336   0.255E-04 0.163E-04
CGA:  11    -0.363616602595E+03   -0.10595E-04   -0.10346E-04  6336   0.140E-04 0.278E-05
CGA:  12    -0.363616609504E+03   -0.69090E-05   -0.74701E-05  6336   0.139E-04-0.235E-05
  30 F= -.36361661E+03 E0= -.36361661E+03  d E =-.103848E-02  mag=    16.0000
       N       E                     dE             d eps       ncg     rms          ort
SDA:   1    -0.363398787027E+03    0.21782E+00    0.00000E+00  6336   0.545E+00 0.000E+00
CGA:   2    -0.363562183346E+03   -0.16340E+00   -0.16330E+00  6336   0.262E+00 0.196E-02
CGA:   3    -0.363603604843E+03   -0.41421E-01   -0.41426E-01  6336   0.685E-01-0.247E-05
CGA:   4    -0.363614805735E+03   -0.11201E-01   -0.11159E-01  6336   0.142E-01-0.495E-03
CGA:   5    -0.363617459406E+03   -0.26537E-02   -0.26400E-02  6336   0.418E-02-0.228E-03
CGA:   6    -0.363618260123E+03   -0.80072E-03   -0.80041E-03  6336   0.114E-02-0.800E-05
CGA:   7    -0.363618520629E+03   -0.26051E-03   -0.26120E-03  6336   0.428E-03 0.516E-04
CGA:   8    -0.363618649205E+03   -0.12858E-03   -0.12806E-03  6336   0.207E-03 0.115E-04
CGA:   9    -0.363618724806E+03   -0.75601E-04   -0.79848E-04  6336   0.136E-03-0.326E-04
CGA:  10    -0.363618758906E+03   -0.34100E-04   -0.34597E-04  6336   0.559E-04-0.964E-05
CGA:  11    -0.363618773216E+03   -0.14310E-04   -0.14215E-04  6336   0.230E-04 0.462E-05
CGA:  12    -0.363618782526E+03   -0.93102E-05   -0.91500E-05  6336   0.172E-04 0.140E-05
  31 F= -.36361878E+03 E0= -.36361878E+03  d E =-.217302E-02  mag=    16.0000
       N       E                     dE             d eps       ncg     rms          ort
SDA:   1    -0.363225867128E+03    0.39291E+00    0.00000E+00  6336   0.987E+00 0.000E+00
CGA:   2    -0.363499262060E+03   -0.27339E+00   -0.27339E+00  6336   0.535E+00 0.252E-02
CGA:   3    -0.363582853737E+03   -0.83592E-01   -0.83588E-01  6336   0.133E+00-0.262E-04
CGA:   4    -0.363606162669E+03   -0.23309E-01   -0.23243E-01  6336   0.321E-01-0.730E-03
CGA:   5    -0.363611970297E+03   -0.58076E-02   -0.57762E-02  6336   0.889E-02-0.393E-03
CGA:   6    -0.363613796802E+03   -0.18265E-02   -0.18204E-02  6336   0.285E-02-0.120E-03
CGA:   7    -0.363614438557E+03   -0.64175E-03   -0.64359E-03  6336   0.101E-02 0.637E-04
CGA:   8    -0.363614706840E+03   -0.26828E-03   -0.26812E-03  6336   0.399E-03 0.501E-04
CGA:   9    -0.363614842902E+03   -0.13606E-03   -0.14016E-03  6336   0.200E-03-0.520E-04
CGA:  10    -0.363614894105E+03   -0.51203E-04   -0.52291E-04  6336   0.757E-04-0.264E-04
CGA:  11    -0.363614910328E+03   -0.16223E-04   -0.16291E-04  6336   0.222E-04 0.484E-05
CGA:  12    -0.363614916134E+03   -0.58067E-05   -0.58768E-05  6336   0.104E-04 0.578E-05
  32 F= -.36361492E+03 E0= -.36361492E+03  d E =0.386639E-02  mag=    16.0000
       N       E                     dE             d eps       ncg     rms          ort
SDA:   1    -0.363496193979E+03    0.11872E+00    0.00000E+00  6336   0.323E+00 0.000E+00
CGA:   2    -0.363578699354E+03   -0.82505E-01   -0.82501E-01  6336   0.181E+00-0.110E-02
CGA:   3    -0.363607914414E+03   -0.29215E-01   -0.29189E-01  6336   0.478E-01-0.335E-03
CGA:   4    -0.363616233179E+03   -0.83188E-02   -0.83556E-02  6336   0.119E-01 0.441E-03
CGA:   5    -0.363618279569E+03   -0.20464E-02   -0.20821E-02  6336   0.304E-02 0.458E-03
CGA:   6    -0.363618908833E+03   -0.62926E-03   -0.63798E-03  6336   0.975E-03 0.192E-03
CGA:   7    -0.363619178254E+03   -0.26942E-03   -0.27002E-03  6336   0.437E-03-0.392E-04
CGA:   8    -0.363619293192E+03   -0.11494E-03   -0.11570E-03  6336   0.186E-03-0.255E-04
CGA:   9    -0.363619329276E+03   -0.36084E-04   -0.37362E-04  6336   0.550E-04 0.373E-04
CGA:  10    -0.363619339470E+03   -0.10194E-04   -0.11782E-04  6336   0.199E-04 0.235E-04
CGA:  11    -0.363619344973E+03   -0.55022E-05   -0.58145E-05  6336   0.800E-05 0.828E-05
  33 F= -.36361934E+03 E0= -.36361934E+03  d E =-.442884E-02  mag=    16.0000
       N       E                     dE             d eps       ncg     rms          ort
SDA:   1    -0.363575734045E+03    0.43605E-01    0.00000E+00  6336   0.105E+00 0.000E+00
CGA:   2    -0.363610821366E+03   -0.35087E-01   -0.35059E-01  6336   0.392E-01 0.390E-03
CGA:   3    -0.363617465810E+03   -0.66444E-02   -0.66356E-02  6336   0.109E-01-0.938E-04
CGA:   4    -0.363619164534E+03   -0.16987E-02   -0.16884E-02  6336   0.226E-02-0.968E-04
CGA:   5    -0.363619595079E+03   -0.43055E-03   -0.42981E-03  6336   0.675E-03-0.113E-04
CGA:   6    -0.363619719539E+03   -0.12446E-03   -0.12516E-03  6336   0.181E-03 0.977E-05
CGA:   7    -0.363619764660E+03   -0.45121E-04   -0.45160E-04  6336   0.731E-04 0.571E-05
CGA:   8    -0.363619786454E+03   -0.21794E-04   -0.21770E-04  6336   0.370E-04 0.658E-06
CGA:   9    -0.363619798838E+03   -0.12384E-04   -0.12476E-04  6336   0.187E-04-0.117E-05
CGA:  10    -0.363619804461E+03   -0.56226E-05   -0.56392E-05  6336   0.819E-05-0.320E-06
  34 F= -.36361980E+03 E0= -.36361980E+03  d E =-.459488E-03  mag=    16.0000
       N       E                     dE             d eps       ncg     rms          ort
SDA:   1    -0.363267651489E+03    0.35215E+00    0.00000E+00  6336   0.828E+00 0.000E+00
CGA:   2    -0.363543910846E+03   -0.27626E+00   -0.27617E+00  6336   0.352E+00 0.141E-02
CGA:   3    -0.363597685714E+03   -0.53775E-01   -0.53747E-01  6336   0.923E-01-0.261E-03
CGA:   4    -0.363612938259E+03   -0.15253E-01   -0.15211E-01  6336   0.195E-01-0.397E-03
CGA:   5    -0.363616544431E+03   -0.36062E-02   -0.35898E-02  6336   0.560E-02-0.203E-03
CGA:   6    -0.363617643453E+03   -0.10990E-02   -0.10955E-02  6336   0.159E-02-0.558E-04
CGA:   7    -0.363617994849E+03   -0.35140E-03   -0.35339E-03  6336   0.547E-03 0.579E-04
CGA:   8    -0.363618147910E+03   -0.15306E-03   -0.15273E-03  6336   0.233E-03 0.278E-04
CGA:   9    -0.363618233031E+03   -0.85121E-04   -0.89925E-04  6336   0.141E-03-0.438E-04
CGA:  10    -0.363618261598E+03   -0.28567E-04   -0.28594E-04  6336   0.446E-04 0.183E-05
CGA:  11    -0.363618271108E+03   -0.95096E-05   -0.98475E-05  6336   0.147E-04 0.751E-05
  35 F= -.36361827E+03 E0= -.36361827E+03  d E =0.153335E-02  mag=    16.0000
       N       E                     dE             d eps       ncg     rms          ort
SDA:   1    -0.362161988514E+03    0.14563E+01    0.00000E+00  6336   0.359E+01 0.000E+00
CGA:   2    -0.363198082829E+03   -0.10361E+01   -0.10360E+01  6336   0.201E+01 0.203E-02
CGA:   3    -0.363502187148E+03   -0.30410E+00   -0.30405E+00  6336   0.464E+00-0.340E-03
CGA:   4    -0.363579886546E+03   -0.77699E-01   -0.77693E-01  6336   0.105E+00-0.566E-04
CGA:   5    -0.363598493967E+03   -0.18607E-01   -0.18646E-01  6336   0.277E-01 0.506E-03
CGA:   6    -0.363604055360E+03   -0.55614E-02   -0.55749E-02  6336   0.809E-02 0.272E-03
CGA:   7    -0.363605925596E+03   -0.18702E-02   -0.18708E-02  6336   0.284E-02 0.334E-04
CGA:   8    -0.363606686670E+03   -0.76107E-03   -0.75923E-03  6336   0.117E-02 0.840E-04
CGA:   9    -0.363607027620E+03   -0.34095E-03   -0.33788E-03  6336   0.440E-03 0.881E-04
CGA:  10    -0.363607163540E+03   -0.13592E-03   -0.13453E-03  6336   0.156E-03 0.373E-04
CGA:  11    -0.363607209953E+03   -0.46413E-04   -0.45868E-04  6336   0.556E-04 0.260E-04
CGA:  12    -0.363607231124E+03   -0.21171E-04   -0.20304E-04  6336   0.315E-04 0.138E-04
CGA:  13    -0.363607242880E+03   -0.11757E-04   -0.11169E-04  6336   0.223E-04 0.193E-04
CGA:  14    -0.363607248350E+03   -0.54700E-05   -0.55463E-05  6336   0.122E-04 0.126E-04
  36 F= -.36360725E+03 E0= -.36360725E+03  d E =0.110228E-01  mag=    16.0000
       N       E                     dE             d eps       ncg     rms          ort
SDA:   1    -0.363029937470E+03    0.57731E+00    0.00000E+00  6336   0.139E+01 0.000E+00
CGA:   2    -0.363459162203E+03   -0.42922E+00   -0.42936E+00  6336   0.660E+00-0.304E-02
CGA:   3    -0.363563270163E+03   -0.10411E+00   -0.10410E+00  6336   0.183E+00-0.169E-03
CGA:   4    -0.363593904367E+03   -0.30634E-01   -0.30731E-01  6336   0.387E-01 0.104E-02
CGA:   5    -0.363600906447E+03   -0.70021E-02   -0.70673E-02  6336   0.111E-01 0.907E-03
CGA:   6    -0.363603211682E+03   -0.23052E-02   -0.23217E-02  6336   0.351E-02 0.365E-03
CGA:   7    -0.363604144547E+03   -0.93287E-03   -0.93423E-03  6336   0.153E-02-0.128E-03
CGA:   8    -0.363604548689E+03   -0.40414E-03   -0.40553E-03  6336   0.655E-03-0.524E-04
CGA:   9    -0.363604695385E+03   -0.14670E-03   -0.14823E-03  6336   0.194E-03 0.104E-03
CGA:  10    -0.363604747208E+03   -0.51823E-04   -0.52485E-04  6336   0.657E-04 0.443E-04
CGA:  11    -0.363604776014E+03   -0.28806E-04   -0.33170E-04  6336   0.544E-04-0.267E-04
CGA:  12    -0.363604776459E+03   -0.44535E-06   -0.19395E-04  6336   0.965E-04-0.548E-04
CGA:  13    -0.363604807103E+03   -0.30644E-04   -0.31456E-04  6336   0.390E-04-0.154E-04
CGA:  14    -0.363604813242E+03   -0.61393E-05   -0.68212E-05  6336   0.875E-05 0.101E-04
CGA:  15    -0.363604735140E+03    0.78102E-04   -0.42084E-04  6336   0.448E-03-0.668E-04
CGA:  16    -0.363604827761E+03   -0.92621E-04   -0.95148E-04  6336   0.181E-04 0.883E-05
CGA:  17    -0.363604827381E+03    0.38065E-06   -0.29478E-05  6336   0.707E-05 0.103E-04
  37 F= -.36360483E+03 E0= -.36360483E+03  d E =0.242097E-02  mag=    16.0000
       N       E                     dE             d eps       ncg     rms          ort
SDA:   1    -0.363208124527E+03    0.39670E+00    0.00000E+00  6336   0.109E+01 0.000E+00
CGA:   2    -0.363477160889E+03   -0.26904E+00   -0.26971E+00  6336   0.602E+00 0.223E-02
CGA:   3    -0.363575322025E+03   -0.98161E-01   -0.98328E-01  6336   0.167E+00 0.784E-03
CGA:   4    -0.363604602832E+03   -0.29281E-01   -0.29116E-01  6336   0.401E-01-0.656E-03
CGA:   5    -0.363611922420E+03   -0.73196E-02   -0.71763E-02  6336   0.110E-01-0.584E-03
CGA:   6    -0.363614275628E+03   -0.23532E-02   -0.22863E-02  6336   0.370E-02-0.324E-03
CGA:   7    -0.363615107358E+03   -0.83173E-03   -0.83265E-03  6336   0.133E-02 0.389E-05
CGA:   8    -0.363615435003E+03   -0.32764E-03   -0.33754E-03  6336   0.496E-03 0.668E-04
CGA:   9    -0.363615614875E+03   -0.17987E-03   -0.17605E-03  6336   0.254E-03-0.685E-04
CGA:  10    -0.363615689734E+03   -0.74859E-04   -0.71608E-04  6336   0.113E-03-0.512E-04
CGA:  11    -0.363615713490E+03   -0.23755E-04   -0.23655E-04  6336   0.352E-04-0.832E-06
CGA:  12    -0.363615721480E+03   -0.79904E-05   -0.87947E-05  6336   0.147E-04 0.620E-05
  38 F= -.36361572E+03 E0= -.36361572E+03  d E =-.108941E-01  mag=    16.0000
       N       E                     dE             d eps       ncg     rms          ort
SDA:   1    -0.363356747831E+03    0.25897E+00    0.00000E+00  6336   0.609E+00 0.000E+00
CGA:   2    -0.363558261977E+03   -0.20151E+00   -0.20155E+00  6336   0.273E+00 0.796E-03
CGA:   3    -0.363599311551E+03   -0.41050E-01   -0.41018E-01  6336   0.685E-01-0.186E-03
CGA:   4    -0.363610734464E+03   -0.11423E-01   -0.11380E-01  6336   0.148E-01-0.235E-03
CGA:   5    -0.363613492799E+03   -0.27583E-02   -0.27395E-02  6336   0.423E-02-0.119E-03
CGA:   6    -0.363614340858E+03   -0.84806E-03   -0.84164E-03  6336   0.123E-02-0.473E-04
CGA:   7    -0.363614612210E+03   -0.27135E-03   -0.27466E-03  6336   0.432E-03 0.309E-04
CGA:   8    -0.363614728891E+03   -0.11668E-03   -0.11800E-03  6336   0.179E-03 0.217E-04
CGA:   9    -0.363614793513E+03   -0.64622E-04   -0.65170E-04  6336   0.951E-04-0.236E-04
CGA:  10    -0.363614814271E+03   -0.20758E-04   -0.20999E-04  6336   0.286E-04 0.339E-05
CGA:  11    -0.363614820329E+03   -0.60573E-05   -0.65999E-05  6336   0.881E-05 0.548E-05
  39 F= -.36361482E+03 E0= -.36361482E+03  d E =0.901151E-03  mag=    16.0000
       N       E                     dE             d eps       ncg     rms          ort
SDA:   1    -0.363333613743E+03    0.28120E+00    0.00000E+00  6336   0.720E+00 0.000E+00
CGA:   2    -0.363514087243E+03   -0.18047E+00   -0.18044E+00  6336   0.426E+00-0.936E-03
CGA:   3    -0.363583638020E+03   -0.69551E-01   -0.69444E-01  6336   0.110E+00-0.754E-03
CGA:   4    -0.363601968934E+03   -0.18331E-01   -0.18376E-01  6336   0.253E-01 0.320E-03
CGA:   5    -0.363606353872E+03   -0.43849E-02   -0.44542E-02  6336   0.665E-02 0.570E-03
CGA:   6    -0.363607700412E+03   -0.13465E-02   -0.13665E-02  6336   0.201E-02 0.224E-03
CGA:   7    -0.363608207939E+03   -0.50753E-03   -0.50543E-03  6336   0.781E-03-0.517E-04
CGA:   8    -0.363608415915E+03   -0.20798E-03   -0.20765E-03  6336   0.328E-03-0.339E-04
CGA:   9    -0.363608491974E+03   -0.76059E-04   -0.77451E-04  6336   0.104E-03 0.398E-04
CGA:  10    -0.363608516106E+03   -0.24132E-04   -0.25852E-04  6336   0.349E-04 0.298E-04
CGA:  11    -0.363608529584E+03   -0.13478E-04   -0.13426E-04  6336   0.163E-04 0.239E-05
CGA:  12    -0.363608539490E+03   -0.99064E-05    0.10219E-03  6336   0.780E-05 0.277E-05
  40 F= -.36360854E+03 E0= -.36360854E+03  d E =0.628084E-02  mag=    16.0000
       N       E                     dE             d eps       ncg     rms          ort
SDA:   1    -0.363402442913E+03    0.20609E+00    0.00000E+00  6336   0.511E+00 0.000E+00
CGA:   2    -0.363558154915E+03   -0.15571E+00   -0.15570E+00  6336   0.267E+00 0.332E-03
CGA:   3    -0.363598196418E+03   -0.40042E-01   -0.40065E-01  6336   0.647E-01 0.132E-03
CGA:   4    -0.363609076989E+03   -0.10881E-01   -0.10876E-01  6336   0.145E-01-0.587E-04
CGA:   5    -0.363611740500E+03   -0.26635E-02   -0.26595E-02  6336   0.410E-02-0.501E-04
CGA:   6    -0.363612567039E+03   -0.82654E-03   -0.82583E-03  6336   0.121E-02-0.125E-04
CGA:   7    -0.363612850519E+03   -0.28348E-03   -0.28339E-03  6336   0.444E-03-0.355E-05
CGA:   8    -0.363612968993E+03   -0.11847E-03   -0.11845E-03  6336   0.181E-03 0.269E-05
CGA:   9    -0.363613024300E+03   -0.55307E-04   -0.55597E-04  6336   0.725E-04-0.628E-05
CGA:  10    -0.363613046585E+03   -0.22285E-04   -0.23108E-04  6336   0.301E-04-0.121E-04
CGA:  11    -0.363613053169E+03   -0.65843E-05   -0.65843E-05  6336   0.838E-05-0.164E-07
  41 F= -.36361305E+03 E0= -.36361305E+03  d E =-.451368E-02  mag=    16.0000
       N       E                     dE             d eps       ncg     rms          ort
SDA:   1    -0.363526262690E+03    0.86784E-01    0.00000E+00  6336   0.236E+00 0.000E+00
CGA:   2    -0.363581603380E+03   -0.55341E-01   -0.55428E-01  6336   0.124E+00 0.201E-02
CGA:   3    -0.363602236401E+03   -0.20633E-01   -0.20709E-01  6336   0.368E-01 0.667E-03
CGA:   4    -0.363609113294E+03   -0.68769E-02   -0.68330E-02  6336   0.100E-01-0.540E-03
CGA:   5    -0.363611015565E+03   -0.19023E-02   -0.18518E-02  6336   0.298E-02-0.666E-03
CGA:   6    -0.363611646546E+03   -0.63098E-03   -0.61714E-03  6336   0.117E-02-0.361E-03
CGA:   7    -0.363611867861E+03   -0.22131E-03   -0.22233E-03  6336   0.372E-03 0.242E-04
CGA:   8    -0.363611940138E+03   -0.72278E-04   -0.76879E-04  6336   0.115E-03 0.851E-04
CGA:   9    -0.363611981914E+03   -0.41776E-04   -0.41924E-04  6336   0.641E-04-0.355E-05
CGA:  10    -0.363611981313E+03    0.60181E-06   -0.41598E-04  6336   0.232E-03-0.102E-03
CGA:  11    -0.363612012473E+03   -0.31161E-04   -0.35312E-04  6336   0.291E-04 0.334E-04
CGA:  12    -0.363612018712E+03   -0.62383E-05   -0.69429E-05  6336   0.994E-05 0.114E-04
  42 F= -.36361202E+03 E0= -.36361202E+03  d E =0.103446E-02  mag=    16.0000
       N       E                     dE             d eps       ncg     rms          ort
SDA:   1    -0.363524536195E+03    0.87476E-01    0.00000E+00  6336   0.230E+00 0.000E+00
CGA:   2    -0.363583603414E+03   -0.59067E-01   -0.59057E-01  6336   0.138E+00-0.933E-03
CGA:   3    -0.363605529381E+03   -0.21926E-01   -0.21881E-01  6336   0.338E-01-0.457E-03
CGA:   4    -0.363611181699E+03   -0.56523E-02   -0.56815E-02  6336   0.784E-02 0.303E-03
CGA:   5    -0.363612501744E+03   -0.13200E-02   -0.13559E-02  6336   0.194E-02 0.412E-03
CGA:   6    -0.363612884277E+03   -0.38253E-03   -0.39408E-03  6336   0.568E-03 0.192E-03
CGA:   7    -0.363613040510E+03   -0.15623E-03   -0.15623E-03  6336   0.234E-03-0.902E-05
CGA:   8    -0.363613105195E+03   -0.64685E-04   -0.65264E-04  6336   0.108E-03-0.178E-04
CGA:   9    -0.363613122304E+03   -0.17109E-04   -0.18929E-04  6336   0.344E-04 0.294E-04
CGA:  10    -0.363613126203E+03   -0.38993E-05   -0.61095E-05  6336   0.138E-04 0.202E-04
  43 F= -.36361313E+03 E0= -.36361313E+03  d E =-.110749E-02  mag=    16.0000
       N       E                     dE             d eps       ncg     rms          ort
SDA:   1    -0.363524624520E+03    0.88498E-01    0.00000E+00  6336   0.209E+00 0.000E+00
CGA:   2    -0.363593952567E+03   -0.69328E-01   -0.69378E-01  6336   0.783E-01-0.630E-03
CGA:   3    -0.363607189292E+03   -0.13237E-01   -0.13237E-01  6336   0.226E-01-0.400E-05
CGA:   4    -0.363610602787E+03   -0.34135E-02   -0.34317E-02  6336   0.436E-02 0.189E-03
CGA:   5    -0.363611434157E+03   -0.83137E-03   -0.83628E-03  6336   0.123E-02 0.974E-04
CGA:   6    -0.363611684973E+03   -0.25082E-03   -0.25016E-03  6336   0.366E-03-0.177E-04
CGA:   7    -0.363611777213E+03   -0.92240E-04   -0.92653E-04  6336   0.161E-03-0.196E-04
CGA:   8    -0.363611817730E+03   -0.40517E-04   -0.40460E-04  6336   0.690E-04 0.191E-05
CGA:   9    -0.363611837965E+03   -0.20235E-04   -0.19974E-04  6336   0.265E-04 0.546E-05
CGA:  10    -0.363611846473E+03   -0.85081E-05   -0.84319E-05  6336   0.100E-04 0.139E-05
  44 F= -.36361185E+03 E0= -.36361185E+03  d E =0.127973E-02  mag=    16.0000
       N       E                     dE             d eps       ncg     rms          ort
SDA:   1    -0.362785726415E+03    0.82611E+00    0.00000E+00  6336   0.196E+01 0.000E+00
CGA:   2    -0.363418351114E+03   -0.63262E+00   -0.63264E+00  6336   0.817E+00-0.782E-03
CGA:   3    -0.363551233533E+03   -0.13288E+00   -0.13285E+00  6336   0.225E+00-0.312E-03
CGA:   4    -0.363587365051E+03   -0.36132E-01   -0.36163E-01  6336   0.438E-01 0.215E-03
CGA:   5    -0.363595609261E+03   -0.82442E-02   -0.82673E-02  6336   0.126E-01 0.274E-03
CGA:   6    -0.363598133817E+03   -0.25246E-02   -0.25259E-02  6336   0.359E-02 0.164E-04
CGA:   7    -0.363599000416E+03   -0.86660E-03   -0.86610E-03  6336   0.139E-02-0.245E-04
CGA:   8    -0.363599368940E+03   -0.36852E-03   -0.36824E-03  6336   0.584E-03 0.429E-04
CGA:   9    -0.363599540751E+03   -0.17181E-03   -0.17085E-03  6336   0.216E-03 0.426E-04
CGA:  10    -0.363599609504E+03   -0.68753E-04   -0.68403E-04  6336   0.758E-04 0.104E-04
CGA:  11    -0.363599637021E+03   -0.27517E-04   -0.29123E-04  6336   0.397E-04-0.157E-04
CGA:  12    -0.363599648332E+03   -0.11311E-04   -0.11941E-04  6336   0.216E-04-0.571E-05
CGA:  13    -0.363599652780E+03   -0.44476E-05   -0.45998E-05  6336   0.941E-05 0.595E-05
  45 F= -.36359965E+03 E0= -.36359965E+03  d E =0.121937E-01  mag=    16.0000
       N       E                     dE             d eps       ncg     rms          ort
SDA:   1    -0.363234164291E+03    0.36548E+00    0.00000E+00  6336   0.861E+00 0.000E+00
CGA:   2    -0.363520882803E+03   -0.28672E+00   -0.28659E+00  6336   0.325E+00 0.203E-02
CGA:   3    -0.363576126921E+03   -0.55244E-01   -0.55217E-01  6336   0.994E-01-0.302E-03
CGA:   4    -0.363591996933E+03   -0.15870E-01   -0.15811E-01  6336   0.207E-01-0.550E-03
CGA:   5    -0.363596164982E+03   -0.41680E-02   -0.41433E-02  6336   0.661E-02-0.396E-03
CGA:   6    -0.363597466678E+03   -0.13017E-02   -0.12961E-02  6336   0.213E-02-0.932E-04
CGA:   7    -0.363597965570E+03   -0.49889E-03   -0.50030E-03  6336   0.777E-03 0.713E-04
CGA:   8    -0.363598176162E+03   -0.21059E-03   -0.21043E-03  6336   0.326E-03 0.320E-04
CGA:   9    -0.363598287529E+03   -0.11137E-03   -0.11466E-03  6336   0.159E-03-0.411E-04
CGA:  10    -0.363598327139E+03   -0.39610E-04   -0.39844E-04  6336   0.567E-04-0.900E-05
CGA:  11    -0.363598340169E+03   -0.13031E-04   -0.13169E-04  6336   0.198E-04 0.843E-05
CGA:  12    -0.363598346073E+03   -0.59035E-05   -0.59153E-05  6336   0.118E-04 0.761E-05
  46 F= -.36359835E+03 E0= -.36359835E+03  d E =0.130671E-02  mag=    16.0000
       N       E                     dE             d eps       ncg     rms          ort
SDA:   1    -0.363067475983E+03    0.53086E+00    0.00000E+00  6336   0.131E+01 0.000E+00
CGA:   2    -0.363476284968E+03   -0.40881E+00   -0.40872E+00  6336   0.594E+00 0.140E-02
CGA:   3    -0.363570126599E+03   -0.93842E-01   -0.93859E-01  6336   0.159E+00 0.669E-04
CGA:   4    -0.363596360399E+03   -0.26234E-01   -0.26213E-01  6336   0.323E-01-0.258E-03
CGA:   5    -0.363602410598E+03   -0.60502E-02   -0.60406E-02  6336   0.947E-02-0.150E-03
CGA:   6    -0.363604291258E+03   -0.18807E-02   -0.18824E-02  6336   0.271E-02 0.305E-04
CGA:   7    -0.363604928327E+03   -0.63707E-03   -0.63782E-03  6336   0.101E-02 0.545E-04
CGA:   8    -0.363605218841E+03   -0.29051E-03   -0.29098E-03  6336   0.459E-03-0.131E-04
CGA:   9    -0.363605361370E+03   -0.14253E-03   -0.14516E-03  6336   0.202E-03-0.371E-04
CGA:  10    -0.363605415388E+03   -0.54017E-04   -0.54381E-04  6336   0.659E-04-0.910E-05
CGA:  11    -0.363605429720E+03   -0.14332E-04   -0.14602E-04  6336   0.191E-04 0.118E-04
CGA:  12    -0.363605434836E+03   -0.51161E-05   -0.52559E-05  6336   0.907E-05 0.709E-05
  47 F= -.36360543E+03 E0= -.36360543E+03  d E =-.708876E-02  mag=    16.0000
       N       E                     dE             d eps       ncg     rms          ort
SDA:   1    -0.363515870212E+03    0.89560E-01    0.00000E+00  6336   0.221E+00 0.000E+00
CGA:   2    -0.363581805652E+03   -0.65935E-01   -0.66004E-01  6336   0.104E+00-0.165E-02
CGA:   3    -0.363598683224E+03   -0.16878E-01   -0.16852E-01  6336   0.311E-01-0.289E-03
CGA:   4    -0.363603804460E+03   -0.51212E-02   -0.51620E-02  6336   0.651E-02 0.460E-03
CGA:   5    -0.363604926989E+03   -0.11225E-02   -0.11563E-02  6336   0.180E-02 0.455E-03
CGA:   6    -0.363605303996E+03   -0.37701E-03   -0.38527E-03  6336   0.579E-03 0.182E-03
CGA:   7    -0.363605480189E+03   -0.17619E-03   -0.17722E-03  6336   0.297E-03-0.297E-04
CGA:   8    -0.363605552625E+03   -0.72435E-04   -0.72453E-04  6336   0.120E-03-0.145E-05
CGA:   9    -0.363605573352E+03   -0.20727E-04   -0.22785E-04  6336   0.399E-04 0.380E-04
CGA:  10    -0.363605579621E+03   -0.62689E-05   -0.81690E-05  6336   0.156E-04 0.217E-04
  48 F= -.36360558E+03 E0= -.36360558E+03  d E =-.144785E-03  mag=    16.0000
       N       E                     dE             d eps       ncg     rms          ort
SDA:   1    -0.363539353677E+03    0.66220E-01    0.00000E+00  6336   0.154E+00 0.000E+00
CGA:   2    -0.363590707764E+03   -0.51354E-01   -0.51307E-01  6336   0.629E-01 0.565E-03
CGA:   3    -0.363600644156E+03   -0.99364E-02   -0.99270E-02  6336   0.171E-01-0.102E-03
CGA:   4    -0.363603436981E+03   -0.27928E-02   -0.27777E-02  6336   0.350E-02-0.172E-03
CGA:   5    -0.363604111054E+03   -0.67407E-03   -0.66766E-03  6336   0.107E-02-0.118E-03
CGA:   6    -0.363604320963E+03   -0.20991E-03   -0.20772E-03  6336   0.311E-03-0.508E-04
CGA:   7    -0.363604384760E+03   -0.63797E-04   -0.64161E-04  6336   0.102E-03 0.138E-04
CGA:   8    -0.363604411026E+03   -0.26266E-04   -0.26200E-04  6336   0.391E-04 0.129E-04
CGA:   9    -0.363604427143E+03   -0.16118E-04   -0.19067E-04  6336   0.377E-04-0.154E-04
CGA:  10    -0.363604432116E+03   -0.49722E-05   -0.49050E-05  6336   0.169E-04-0.187E-05
  49 F= -.36360443E+03 E0= -.36360443E+03  d E =0.114751E-02  mag=    16.0000
       N       E                     dE             d eps       ncg     rms          ort
SDA:   1    -0.363585631641E+03    0.18796E-01    0.00000E+00  6336   0.466E-01 0.000E+00
CGA:   2    -0.363598741152E+03   -0.13110E-01   -0.13106E-01  6336   0.238E-01 0.826E-04
CGA:   3    -0.363602557214E+03   -0.38161E-02   -0.38137E-02  6336   0.625E-02-0.319E-04
CGA:   4    -0.363603611835E+03   -0.10546E-02   -0.10521E-02  6336   0.133E-02-0.354E-04
CGA:   5    -0.363603867217E+03   -0.25538E-03   -0.25252E-03  6336   0.409E-03-0.587E-04
CGA:   6    -0.363603954342E+03   -0.87125E-04   -0.86306E-04  6336   0.144E-03-0.507E-04
CGA:   7    -0.363603980647E+03   -0.26305E-04   -0.26395E-04  6336   0.459E-04 0.334E-05
CGA:   8    -0.363603990838E+03   -0.10191E-04   -0.10320E-04  6336   0.158E-04 0.861E-05
CGA:   9    -0.363603997371E+03   -0.65333E-05   -0.86300E-05  6336   0.221E-04-0.929E-05
  50 F= -.36360400E+03 E0= -.36360400E+03  d E =0.434744E-03  mag=    16.0000
       N       E                     dE             d eps       ncg     rms          ort
SDA:   1    -0.363576997488E+03    0.26993E-01    0.00000E+00  6336   0.615E-01 0.000E+00
CGA:   2    -0.363596563838E+03   -0.19566E-01   -0.19561E-01  6336   0.322E-01 0.536E-04
CGA:   3    -0.363601330997E+03   -0.47672E-02   -0.47518E-02  6336   0.713E-02-0.159E-03
CGA:   4    -0.363602516599E+03   -0.11856E-02   -0.11808E-02  6336   0.158E-02-0.661E-04
CGA:   5    -0.363602800403E+03   -0.28380E-03   -0.28343E-03  6336   0.440E-03-0.701E-05
CGA:   6    -0.363602889697E+03   -0.89293E-04   -0.88994E-04  6336   0.124E-03-0.985E-05
CGA:   7    -0.363602914776E+03   -0.25079E-04   -0.25250E-04  6336   0.382E-04 0.724E-05
CGA:   8    -0.363602924425E+03   -0.96489E-05   -0.96065E-05  6336   0.145E-04 0.665E-05
  51 F= -.36360292E+03 E0= -.36360292E+03  d E =0.107295E-02  mag=    16.0000
       N       E                     dE             d eps       ncg     rms          ort
SDA:   1    -0.363528938308E+03    0.73976E-01    0.00000E+00  6336   0.178E+00 0.000E+00
CGA:   2    -0.363582293337E+03   -0.53355E-01   -0.53399E-01  6336   0.938E-01-0.740E-03
CGA:   3    -0.363596606317E+03   -0.14313E-01   -0.14302E-01  6336   0.233E-01-0.148E-03
CGA:   4    -0.363600490333E+03   -0.38840E-02   -0.38970E-02  6336   0.494E-02 0.186E-03
CGA:   5    -0.363601339429E+03   -0.84910E-03   -0.86379E-03  6336   0.132E-02 0.248E-03
CGA:   6    -0.363601601876E+03   -0.26245E-03   -0.26747E-03  6336   0.380E-03 0.137E-03
CGA:   7    -0.363601705838E+03   -0.10396E-03   -0.10390E-03  6336   0.159E-03 0.318E-05
CGA:   8    -0.363601751782E+03   -0.45945E-04   -0.46353E-04  6336   0.779E-04-0.681E-05
CGA:   9    -0.363601764941E+03   -0.13159E-04   -0.14190E-04  6336   0.267E-04 0.248E-04
CGA:  10    -0.363601768719E+03   -0.37779E-05   -0.51321E-05  6336   0.112E-04 0.161E-04
  52 F= -.36360177E+03 E0= -.36360177E+03  d E =0.115571E-02  mag=    16.0000
       N       E                     dE             d eps       ncg     rms          ort
SDA:   1    -0.363590657345E+03    0.11108E-01    0.00000E+00  6336   0.294E-01 0.000E+00
CGA:   2    -0.363598483220E+03   -0.78259E-02   -0.78131E-02  6336   0.153E-01 0.433E-03
CGA:   3    -0.363601019463E+03   -0.25362E-02   -0.25441E-02  6336   0.440E-02 0.102E-03
CGA:   4    -0.363601824581E+03   -0.80512E-03   -0.79997E-03  6336   0.105E-02-0.973E-04
CGA:   5    -0.363602035511E+03   -0.21093E-03   -0.20603E-03  6336   0.402E-03-0.158E-03
CGA:   6    -0.363602116240E+03   -0.80730E-04   -0.81672E-04  6336   0.191E-03-0.105E-03
CGA:   7    -0.363602142568E+03   -0.26328E-04   -0.26592E-04  6336   0.532E-04 0.619E-05
CGA:   8    -0.363602148672E+03   -0.61035E-05   -0.79004E-05  6336   0.198E-04 0.213E-04
  53 F= -.36360215E+03 E0= -.36360215E+03  d E =-.379952E-03  mag=    16.0000
       N       E                     dE             d eps       ncg     rms          ort
SDA:   1    -0.363583389722E+03    0.18753E-01    0.00000E+00  6336   0.415E-01 0.000E+00
CGA:   2    -0.363597210578E+03   -0.13821E-01   -0.13797E-01  6336   0.187E-01 0.208E-03
CGA:   3    -0.363600065066E+03   -0.28545E-02   -0.28452E-02  6336   0.455E-02-0.127E-03
CGA:   4    -0.363600829043E+03   -0.76398E-03   -0.75931E-03  6336   0.980E-03-0.872E-04
CGA:   5    -0.363601014142E+03   -0.18510E-03   -0.18348E-03  6336   0.307E-03-0.572E-04
CGA:   6    -0.363601075120E+03   -0.60978E-04   -0.60730E-04  6336   0.957E-04-0.332E-04
CGA:   7    -0.363601090322E+03   -0.15202E-04   -0.15590E-04  6336   0.260E-04 0.111E-04
CGA:   8    -0.363601095704E+03   -0.53818E-05   -0.55813E-05  6336   0.100E-04 0.863E-05
  54 F= -.36360110E+03 E0= -.36360110E+03  d E =0.105297E-02  mag=    16.0000
