       N       E                     dE             d eps       ncg     rms          rms(c)
DAV:   1     0.231344231222E+04    0.23134E+04   -0.12014E+05 39984   0.147E+03
DAV:   2    -0.927879170056E+02   -0.24062E+04   -0.23217E+04 42688   0.401E+02
DAV:   3    -0.316376655024E+03   -0.22359E+03   -0.21959E+03 45024   0.139E+02
DAV:   4    -0.324742023938E+03   -0.83654E+01   -0.82354E+01 55256   0.303E+01
DAV:   5    -0.325152485622E+03   -0.41046E+00   -0.40870E+00 62296   0.487E+00    0.837E+01
DAV:   6    -0.291915742350E+03    0.33237E+02   -0.41234E+02 53544   0.641E+01    0.792E+01
DAV:   7    -0.290913189671E+03    0.10026E+01   -0.21712E+02 56312   0.126E+02    0.437E+01
DAV:   8    -0.278946255086E+03    0.11967E+02   -0.96442E+01 55432   0.338E+01    0.327E+01
DAV:   9    -0.277381969719E+03    0.15643E+01   -0.14566E+02 54104   0.198E+01    0.272E+01
DAV:  10    -0.273167041978E+03    0.42149E+01   -0.70886E+01 53576   0.166E+01    0.252E+01
DAV:  11    -0.271957007468E+03    0.12100E+01   -0.52801E+01 54304   0.117E+01    0.252E+01
DAV:  12    -0.269912190650E+03    0.20448E+01   -0.44324E+01 55120   0.125E+01    0.199E+01
DAV:  13    -0.269507253693E+03    0.40494E+00   -0.33767E+00 54000   0.405E+00    0.168E+01
DAV:  14    -0.269424661303E+03    0.82592E-01   -0.30294E-01 51920   0.176E+00    0.152E+01
DAV:  15    -0.269463911611E+03   -0.39250E-01   -0.24314E-01 54648   0.723E-01    0.159E+01
DAV:  16    -0.269411302481E+03    0.52609E-01   -0.80234E-02 49352   0.828E-01    0.157E+01
DAV:  17    -0.269322612425E+03    0.88690E-01   -0.23505E-01 53416   0.158E+00    0.136E+01
DAV:  18    -0.269281186253E+03    0.41426E-01   -0.23411E-01 53472   0.130E+00    0.125E+01
DAV:  19    -0.269328377300E+03   -0.47191E-01   -0.37984E-01 54352   0.172E+00    0.120E+01
DAV:  20    -0.268858983112E+03    0.46939E+00   -0.48057E-01 53560   0.317E+00    0.771E+00
DAV:  21    -0.268934827226E+03   -0.75844E-01   -0.12571E+00 54384   0.149E+00    0.985E+00
DAV:  22    -0.268952607772E+03   -0.17781E-01   -0.31571E-02 40424   0.717E-01    0.102E+01
DAV:  23    -0.268973466676E+03   -0.20859E-01   -0.22499E-02 53424   0.382E-01    0.110E+01
DAV:  24    -0.268966097854E+03    0.73688E-02   -0.20215E-02 54152   0.377E-01    0.103E+01
DAV:  25    -0.268970756523E+03   -0.46587E-02   -0.25542E-02 54256   0.452E-01    0.899E+00
DAV:  26    -0.268990099299E+03   -0.19343E-01   -0.55135E-02 54112   0.864E-01    0.753E+00
DAV:  27    -0.269009490366E+03   -0.19391E-01   -0.36864E-01 54592   0.152E+00    0.667E+00
DAV:  28    -0.269038341066E+03   -0.28851E-01   -0.30570E-01 52360   0.184E+00    0.933E+00
DAV:  29    -0.268950953038E+03    0.87388E-01   -0.83881E-02 53000   0.102E+00    0.963E+00
DAV:  30    -0.268892173715E+03    0.58779E-01   -0.81501E-02 53104   0.846E-01    0.749E+00
DAV:  31    -0.268943960456E+03   -0.51787E-01   -0.17315E-01 52632   0.123E+00    0.420E+00
DAV:  32    -0.268976640716E+03   -0.32680E-01   -0.69129E-02 54424   0.738E-01    0.344E+00
DAV:  33    -0.268984369336E+03   -0.77286E-02   -0.59145E-03 47312   0.281E-01    0.345E+00
DAV:  34    -0.268979929567E+03    0.44398E-02   -0.65749E-03 52928   0.315E-01    0.370E+00
DAV:  35    -0.268979103059E+03    0.82651E-03   -0.23061E-03 54184   0.149E-01    0.401E+00
DAV:  36    -0.268991078797E+03   -0.11976E-01   -0.65871E-02 51520   0.853E-01    0.237E+00
DAV:  37    -0.269009166438E+03   -0.18088E-01   -0.30305E-02 54576   0.677E-01    0.185E+00
DAV:  38    -0.269011138665E+03   -0.19722E-02   -0.25303E-02 53144   0.474E-01    0.825E-01
DAV:  39    -0.269014500359E+03   -0.33617E-02   -0.61469E-03 50160   0.290E-01    0.673E-01
DAV:  40    -0.269014668849E+03   -0.16849E-03   -0.16220E-03 53472   0.154E-01    0.660E-01
DAV:  41    -0.269014904265E+03   -0.23542E-03   -0.15307E-03 53664   0.155E-01    0.575E-01
DAV:  42    -0.269014997211E+03   -0.92946E-04   -0.13197E-03 53696   0.111E-01    0.389E-01
DAV:  43    -0.269014936746E+03    0.60464E-04   -0.25190E-03 52624   0.126E-01    0.287E-01
DAV:  44    -0.269015308524E+03   -0.37178E-03   -0.14439E-03 52072   0.139E-01    0.276E-01
DAV:  45    -0.269015450461E+03   -0.14194E-03   -0.87659E-04 51088   0.761E-02    0.268E-01
DAV:  46    -0.269015403844E+03    0.46617E-04   -0.24436E-04 47536   0.611E-02    0.206E-01
DAV:  47    -0.269015440698E+03   -0.36853E-04   -0.20576E-04 48968   0.482E-02    0.238E-01
DAV:  48    -0.269015472461E+03   -0.31764E-04   -0.14866E-04 34816   0.426E-02    0.177E-01
DAV:  49    -0.269015469050E+03    0.34119E-05   -0.20169E-04 51000   0.531E-02    0.966E-02
DAV:  50    -0.269015474748E+03   -0.56983E-05   -0.48840E-05 29144   0.204E-02
   1 F= -.26901547E+03 E0= -.26900553E+03  d E =-.269015E+03  mag=     3.9989
       N       E                     dE             d eps       ncg     rms          rms(c)
DAV:   1    -0.269024290311E+03   -0.88213E-02   -0.45864E-03 41800   0.287E-01    0.562E-02
DAV:   2    -0.269024556622E+03   -0.26631E-03   -0.21226E-03 53520   0.103E-01    0.387E-01
DAV:   3    -0.269024282939E+03    0.27368E-03   -0.12311E-03 48696   0.793E-02    0.897E-02
DAV:   4    -0.269024308751E+03   -0.25812E-04   -0.10002E-04 29408   0.249E-02    0.524E-02
DAV:   5    -0.269024310603E+03   -0.18519E-05   -0.18256E-05 25576   0.160E-02
   2 F= -.26902431E+03 E0= -.26901438E+03  d E =-.883585E-02  mag=     4.0000
       N       E                     dE             d eps       ncg     rms          rms(c)
DAV:   1    -0.269228576664E+03   -0.20427E+00   -0.33886E+00 39816   0.782E+00    0.937E-01
DAV:   2    -0.269278652993E+03   -0.50076E-01   -0.42142E-01 50984   0.185E+00    0.500E+00
DAV:   3    -0.269239698081E+03    0.38955E-01   -0.29958E-01 54072   0.117E+00    0.104E+00
DAV:   4    -0.269250012731E+03   -0.10315E-01   -0.62766E-02 55752   0.525E-01    0.202E+00
DAV:   5    -0.269242886351E+03    0.71264E-02   -0.39965E-02 55344   0.444E-01    0.580E-01
DAV:   6    -0.269244167654E+03   -0.12813E-02   -0.10368E-02 53664   0.219E-01    0.709E-01
DAV:   7    -0.269243528911E+03    0.63874E-03   -0.37737E-03 56096   0.192E-01    0.187E-01
DAV:   8    -0.269243638902E+03   -0.10999E-03   -0.44200E-04 56344   0.951E-02    0.140E-01
DAV:   9    -0.269243632593E+03    0.63096E-05   -0.13648E-04 41784   0.452E-02    0.102E-01
DAV:  10    -0.269243629093E+03    0.35001E-05   -0.67370E-05 34664   0.304E-02
   3 F= -.26924363E+03 E0= -.26923369E+03  d E =-.219318E+00  mag=     4.0000
       N       E                     dE             d eps       ncg     rms          rms(c)
DAV:   1    -0.269530737184E+03   -0.28710E+00   -0.46009E+01 39312   0.286E+01    0.342E+00
DAV:   2    -0.270415804414E+03   -0.88507E+00   -0.59984E+00 51120   0.722E+00    0.185E+01
DAV:   3    -0.269744781680E+03    0.67102E+00   -0.38885E+00 53816   0.452E+00    0.336E+00
DAV:   4    -0.269870863375E+03   -0.12608E+00   -0.84614E-01 56520   0.180E+00    0.685E+00
DAV:   5    -0.269785395166E+03    0.85468E-01   -0.37833E-01 54712   0.148E+00    0.189E+00
DAV:   6    -0.269806085762E+03   -0.20691E-01   -0.21332E-01 54136   0.910E-01    0.320E+00
DAV:   7    -0.269790688189E+03    0.15398E-01   -0.73214E-02 56416   0.765E-01    0.707E-01
DAV:   8    -0.269793417727E+03   -0.27295E-02   -0.70052E-03 54688   0.351E-01    0.523E-01
DAV:   9    -0.269793434670E+03   -0.16943E-04   -0.37208E-03 54128   0.207E-01    0.483E-01
DAV:  10    -0.269793063364E+03    0.37131E-03   -0.13624E-03 55616   0.156E-01    0.282E-01
DAV:  11    -0.269793232846E+03   -0.16948E-03   -0.31190E-03 55280   0.129E-01    0.416E-01
DAV:  12    -0.269793101202E+03    0.13164E-03   -0.12372E-03 54464   0.995E-02    0.110E-01
DAV:  13    -0.269793175423E+03   -0.74221E-04   -0.32640E-04 51504   0.493E-02    0.904E-02
DAV:  14    -0.269793185907E+03   -0.10484E-04   -0.18099E-04 34160   0.380E-02    0.885E-02
DAV:  15    -0.269793186135E+03   -0.22810E-06   -0.71816E-05 30320   0.241E-02
   4 F= -.26979319E+03 E0= -.26978309E+03  d E =-.549557E+00  mag=     4.0000
       N       E                     dE             d eps       ncg     rms          rms(c)
DAV:   1    -0.269885979665E+03   -0.92794E-01   -0.18497E+01 40320   0.173E+01    0.179E+00
DAV:   2    -0.270124641088E+03   -0.23866E+00   -0.19643E+00 49656   0.411E+00    0.104E+01
DAV:   3    -0.269966642028E+03    0.15800E+00   -0.13966E+00 54872   0.226E+00    0.212E+00
DAV:   4    -0.270003307571E+03   -0.36666E-01   -0.24227E-01 53512   0.997E-01    0.373E+00
DAV:   5    -0.269979828645E+03    0.23479E-01   -0.11977E-01 55224   0.799E-01    0.871E-01
DAV:   6    -0.269992256428E+03   -0.12428E-01   -0.80697E-02 55048   0.574E-01    0.281E+00
DAV:   7    -0.269979849603E+03    0.12407E-01   -0.50795E-02 55752   0.571E-01    0.427E-01
DAV:   8    -0.269982012430E+03   -0.21628E-02   -0.30803E-03 54320   0.247E-01    0.370E-01
DAV:   9    -0.269981955349E+03    0.57081E-04   -0.12159E-03 55232   0.124E-01    0.264E-01
DAV:  10    -0.269981852858E+03    0.10249E-03   -0.56502E-04 53984   0.818E-02    0.172E-01
DAV:  11    -0.269981871241E+03   -0.18384E-04   -0.70875E-04 53024   0.671E-02    0.119E-01
DAV:  12    -0.269981908666E+03   -0.37425E-04   -0.26172E-04 34648   0.403E-02    0.695E-02
DAV:  13    -0.269981919568E+03   -0.10902E-04   -0.65449E-05 35392   0.268E-02    0.509E-02
DAV:  14    -0.269981916398E+03    0.31702E-05   -0.29886E-05 30168   0.200E-02
   5 F= -.26998192E+03 E0= -.26997172E+03  d E =-.188730E+00  mag=     4.0000
       N       E                     dE             d eps       ncg     rms          rms(c)
DAV:   1    -0.269971632763E+03    0.10287E-01   -0.20907E+01 39312   0.188E+01    0.173E+00
DAV:   2    -0.270164583494E+03   -0.19295E+00   -0.18770E+00 45368   0.410E+00    0.710E+00
DAV:   3    -0.270085854641E+03    0.78729E-01   -0.76799E-01 54488   0.184E+00    0.176E+00
DAV:   4    -0.270124902626E+03   -0.39048E-01   -0.31616E-01 55072   0.105E+00    0.520E+00
DAV:   5    -0.270084317132E+03    0.40585E-01   -0.23163E-01 54456   0.930E-01    0.125E+00
DAV:   6    -0.270093148020E+03   -0.88309E-02   -0.58732E-02 54200   0.484E-01    0.186E+00
DAV:   7    -0.270087982044E+03    0.51660E-02   -0.24872E-02 57016   0.417E-01    0.392E-01
DAV:   8    -0.270088983048E+03   -0.10010E-02   -0.25374E-03 52696   0.154E-01    0.326E-01
DAV:   9    -0.270088916865E+03    0.66183E-04   -0.12354E-03 55880   0.900E-02    0.205E-01
DAV:  10    -0.270088905820E+03    0.11045E-04   -0.46102E-04 52400   0.719E-02    0.134E-01
DAV:  11    -0.270088906836E+03   -0.10163E-05   -0.39577E-04 49976   0.580E-02    0.718E-02
DAV:  12    -0.270088932445E+03   -0.25608E-04   -0.11679E-04 32960   0.466E-02    0.645E-02
DAV:  13    -0.270088936734E+03   -0.42891E-05   -0.90246E-05 38984   0.363E-02
   6 F= -.27008894E+03 E0= -.27007868E+03  d E =-.107020E+00  mag=     4.0000
       N       E                     dE             d eps       ncg     rms          rms(c)
DAV:   1    -0.269980997858E+03    0.10793E+00   -0.30839E+01 39312   0.236E+01    0.186E+00
DAV:   2    -0.270170405539E+03   -0.18941E+00   -0.20286E+00 41328   0.443E+00    0.463E+00
DAV:   3    -0.270144722911E+03    0.25683E-01   -0.59246E-01 53512   0.177E+00    0.255E+00
DAV:   4    -0.270163757675E+03   -0.19035E-01   -0.28773E-01 55912   0.107E+00    0.475E+00
DAV:   5    -0.270129425440E+03    0.34332E-01   -0.22738E-01 54216   0.907E-01    0.105E+00
DAV:   6    -0.270141072760E+03   -0.11647E-01   -0.71941E-02 53224   0.522E-01    0.239E+00
DAV:   7    -0.270131890586E+03    0.91822E-02   -0.46465E-02 53616   0.505E-01    0.413E-01
DAV:   8    -0.270133623095E+03   -0.17325E-02   -0.28423E-03 55328   0.232E-01    0.277E-01
DAV:   9    -0.270133657988E+03   -0.34893E-04   -0.15667E-03 54824   0.137E-01    0.195E-01
DAV:  10    -0.270133690652E+03   -0.32664E-04   -0.58723E-04 53648   0.783E-02    0.162E-01
DAV:  11    -0.270133676688E+03    0.13964E-04   -0.39124E-04 50296   0.591E-02    0.115E-01
DAV:  12    -0.270133670459E+03    0.62284E-05   -0.19100E-04 35064   0.416E-02    0.847E-02
DAV:  13    -0.270133683420E+03   -0.12961E-04   -0.22692E-04 41544   0.365E-02    0.643E-02
DAV:  14    -0.270133697287E+03   -0.13867E-04   -0.86213E-05 29024   0.275E-02    0.424E-02
DAV:  15    -0.270133701713E+03   -0.44260E-05   -0.22622E-05 25648   0.145E-02
   7 F= -.27013370E+03 E0= -.27012338E+03  d E =-.447650E-01  mag=     4.0000
       N       E                     dE             d eps       ncg     rms          rms(c)
DAV:   1    -0.269845433189E+03    0.28826E+00   -0.65985E+01 40320   0.338E+01    0.244E+00
DAV:   2    -0.270187131539E+03   -0.34170E+00   -0.36281E+00 40320   0.624E+00    0.586E+00
DAV:   3    -0.270149366871E+03    0.37765E-01   -0.97333E-01 53448   0.220E+00    0.331E+00
DAV:   4    -0.270168321045E+03   -0.18954E-01   -0.37930E-01 55608   0.130E+00    0.545E+00
DAV:   5    -0.270124906438E+03    0.43415E-01   -0.30792E-01 54760   0.107E+00    0.123E+00
DAV:   6    -0.270149666999E+03   -0.24761E-01   -0.15239E-01 53840   0.783E-01    0.377E+00
DAV:   7    -0.270125265106E+03    0.24402E-01   -0.10686E-01 54960   0.767E-01    0.579E-01
DAV:   8    -0.270129573638E+03   -0.43085E-02   -0.64430E-03 52608   0.296E-01    0.425E-01
DAV:   9    -0.270129732100E+03   -0.15846E-03   -0.35159E-03 56744   0.192E-01    0.293E-01
DAV:  10    -0.270129826214E+03   -0.94114E-04   -0.13121E-03 54192   0.130E-01    0.224E-01
DAV:  11    -0.270129832992E+03   -0.67784E-05   -0.87087E-04 54176   0.927E-02    0.181E-01
DAV:  12    -0.270129823146E+03    0.98467E-05   -0.40848E-04 52168   0.664E-02    0.131E-01
DAV:  13    -0.270129815250E+03    0.78957E-05   -0.41702E-04 49320   0.550E-02    0.974E-02
DAV:  14    -0.270129849965E+03   -0.34716E-04   -0.22618E-04 33656   0.420E-02    0.581E-02
DAV:  15    -0.270129868073E+03   -0.18108E-04   -0.86977E-05 30280   0.263E-02    0.555E-02
DAV:  16    -0.270129871038E+03   -0.29653E-05   -0.24663E-05 27048   0.166E-02
   8 F= -.27012987E+03 E0= -.27011966E+03  d E =0.383067E-02  mag=     4.0000
       N       E                     dE             d eps       ncg     rms          rms(c)
DAV:   1    -0.270147050373E+03   -0.17182E-01   -0.54554E+00 40320   0.934E+00    0.900E-01
DAV:   2    -0.270172325998E+03   -0.25276E-01   -0.29151E-01 40392   0.179E+00    0.137E+00
DAV:   3    -0.270171992141E+03    0.33386E-03   -0.73479E-02 56936   0.691E-01    0.132E+00
DAV:   4    -0.270168243273E+03    0.37489E-02   -0.20143E-02 52544   0.404E-01    0.401E-01
DAV:   5    -0.270170453995E+03   -0.22107E-02   -0.20441E-02 56360   0.283E-01    0.136E+00
DAV:   6    -0.270167391154E+03    0.30628E-02   -0.14304E-02 53600   0.280E-01    0.207E-01
DAV:   7    -0.270167827743E+03   -0.43659E-03   -0.11414E-03 53720   0.153E-01    0.157E-01
DAV:   8    -0.270168139531E+03   -0.31179E-03   -0.26762E-03 54096   0.102E-01    0.471E-01
DAV:   9    -0.270167831359E+03    0.30817E-03   -0.13468E-03 52472   0.813E-02    0.139E-01
DAV:  10    -0.270167890674E+03   -0.59316E-04   -0.52216E-05 30448   0.236E-02    0.122E-01
DAV:  11    -0.270167884713E+03    0.59610E-05   -0.67147E-05 30872   0.254E-02
   9 F= -.27016788E+03 E0= -.27015770E+03  d E =-.380137E-01  mag=     4.0000
       N       E                     dE             d eps       ncg     rms          rms(c)
DAV:   1    -0.270174313148E+03   -0.64225E-02   -0.27360E+00 39312   0.603E+00    0.616E-01
DAV:   2    -0.270186794406E+03   -0.12481E-01   -0.13561E-01 43992   0.121E+00    0.157E+00
DAV:   3    -0.270183575930E+03    0.32185E-02   -0.52527E-02 56680   0.500E-01    0.833E-01
DAV:   4    -0.270185438078E+03   -0.18621E-02   -0.26640E-02 52976   0.350E-01    0.129E+00
DAV:   5    -0.270182404947E+03    0.30331E-02   -0.19444E-02 54752   0.298E-01    0.285E-01
DAV:   6    -0.270183645784E+03   -0.12408E-02   -0.79715E-03 55408   0.189E-01    0.912E-01
DAV:   7    -0.270182289743E+03    0.13560E-02   -0.58971E-03 54048   0.185E-01    0.136E-01
DAV:   8    -0.270182486130E+03   -0.19639E-03   -0.32413E-04 53984   0.959E-02    0.841E-02
DAV:   9    -0.270182510129E+03   -0.23999E-04   -0.31423E-04 44864   0.432E-02    0.729E-02
DAV:  10    -0.270182525281E+03   -0.15152E-04   -0.87934E-05 31384   0.239E-02    0.633E-02
DAV:  11    -0.270182526207E+03   -0.92661E-06   -0.42876E-05 29400   0.207E-02
  10 F= -.27018253E+03 E0= -.27017234E+03  d E =-.146415E-01  mag=     4.0000
       N       E                     dE             d eps       ncg     rms          rms(c)
DAV:   1    -0.270167458056E+03    0.15067E-01   -0.10459E+01 40320   0.112E+01    0.640E-01
DAV:   2    -0.270195944576E+03   -0.28487E-01   -0.30337E-01 41912   0.185E+00    0.103E+00
DAV:   3    -0.270197611890E+03   -0.16673E-02   -0.57358E-02 57384   0.511E-01    0.153E+00
DAV:   4    -0.270193602683E+03    0.40092E-02   -0.19508E-02 54800   0.346E-01    0.542E-01
DAV:   5    -0.270193977095E+03   -0.37441E-03   -0.79432E-03 54504   0.201E-01    0.601E-01
DAV:   6    -0.270193826552E+03    0.15054E-03   -0.68004E-03 54376   0.214E-01    0.709E-01
DAV:   7    -0.270192997925E+03    0.82863E-03   -0.74206E-03 54216   0.206E-01    0.333E-01
DAV:   8    -0.270192805000E+03    0.19293E-03   -0.12336E-03 54352   0.159E-01    0.127E-01
DAV:   9    -0.270193040337E+03   -0.23534E-03   -0.13187E-03 53728   0.815E-02    0.164E-01
DAV:  10    -0.270193089208E+03   -0.48871E-04   -0.19130E-04 42096   0.456E-02    0.170E-01
DAV:  11    -0.270193086765E+03    0.24432E-05   -0.94424E-05 38480   0.355E-02
  11 F= -.27019309E+03 E0= -.27018292E+03  d E =-.105606E-01  mag=     4.0000
       N       E                     dE             d eps       ncg     rms          rms(c)
DAV:   1    -0.269993371650E+03    0.19972E+00   -0.79041E+01 40320   0.316E+01    0.193E+00
DAV:   2    -0.270223077414E+03   -0.22971E+00   -0.24391E+00 40360   0.524E+00    0.248E+00
DAV:   3    -0.270246726101E+03   -0.23649E-01   -0.45881E-01 54256   0.168E+00    0.467E+00
DAV:   4    -0.270206750498E+03    0.39976E-01   -0.19137E-01 54424   0.106E+00    0.170E+00
DAV:   5    -0.270209346840E+03   -0.25963E-02   -0.63867E-02 54912   0.513E-01    0.145E+00
DAV:   6    -0.270204085748E+03    0.52611E-02   -0.24732E-02 54288   0.517E-01    0.657E-01
DAV:   7    -0.270210444926E+03   -0.63592E-02   -0.62434E-02 53824   0.522E-01    0.214E+00
DAV:   8    -0.270202565103E+03    0.78798E-02   -0.33288E-02 53488   0.469E-01    0.389E-01
DAV:   9    -0.270204483189E+03   -0.19181E-02   -0.33524E-03 52048   0.191E-01    0.323E-01
DAV:  10    -0.270204622666E+03   -0.13948E-03   -0.66300E-04 53920   0.879E-02    0.313E-01
DAV:  11    -0.270204565181E+03    0.57484E-04   -0.23519E-04 50568   0.513E-02    0.277E-01
DAV:  12    -0.270204419652E+03    0.14553E-03   -0.48969E-04 52072   0.845E-02    0.138E-01
DAV:  13    -0.270204467824E+03   -0.48172E-04   -0.39230E-04 53832   0.572E-02    0.869E-02
DAV:  14    -0.270204505883E+03   -0.38059E-04   -0.16564E-04 34400   0.396E-02    0.110E-01
DAV:  15    -0.270204498840E+03    0.70432E-05   -0.84202E-05 32784   0.272E-02
  12 F= -.27020450E+03 E0= -.27019436E+03  d E =-.114121E-01  mag=     4.0000
       N       E                     dE             d eps       ncg     rms          rms(c)
DAV:   1    -0.270156102113E+03    0.48404E-01   -0.20252E+01 39312   0.177E+01    0.122E+00
DAV:   2    -0.270238631656E+03   -0.82530E-01   -0.85207E-01 40504   0.310E+00    0.285E+00
DAV:   3    -0.270230564870E+03    0.80668E-02   -0.21793E-01 54352   0.103E+00    0.182E+00
DAV:   4    -0.270230729452E+03   -0.16458E-03   -0.68490E-02 53936   0.611E-01    0.196E+00
DAV:   5    -0.270224722222E+03    0.60072E-02   -0.44539E-02 54544   0.455E-01    0.552E-01
DAV:   6    -0.270226514184E+03   -0.17920E-02   -0.15301E-02 54584   0.350E-01    0.118E+00
DAV:   7    -0.270224388140E+03    0.21260E-02   -0.19205E-02 54176   0.313E-01    0.502E-01
DAV:   8    -0.270224302528E+03    0.85611E-04   -0.24157E-03 54176   0.213E-01    0.228E-01
DAV:   9    -0.270224470333E+03   -0.16781E-03   -0.17738E-03 54504   0.106E-01    0.165E-01
DAV:  10    -0.270224570537E+03   -0.10020E-03   -0.31085E-04 46440   0.527E-02    0.160E-01
DAV:  11    -0.270224563001E+03    0.75363E-05   -0.17041E-04 48952   0.456E-02    0.137E-01
DAV:  12    -0.270224520618E+03    0.42383E-04   -0.15546E-04 35704   0.475E-02    0.473E-02
DAV:  13    -0.270224545491E+03   -0.24873E-04   -0.13095E-04 41048   0.282E-02    0.543E-02
DAV:  14    -0.270224549932E+03   -0.44416E-05   -0.56965E-05 29432   0.279E-02
  13 F= -.27022455E+03 E0= -.27021441E+03  d E =-.200511E-01  mag=     4.0000
       N       E                     dE             d eps       ncg     rms          rms(c)
DAV:   1    -0.270194732670E+03    0.29813E-01   -0.14397E+01 40320   0.132E+01    0.981E-01
DAV:   2    -0.270233110339E+03   -0.38378E-01   -0.41983E-01 41792   0.223E+00    0.862E-01
DAV:   3    -0.270242334454E+03   -0.92241E-02   -0.10393E-01 54168   0.741E-01    0.274E+00
DAV:   4    -0.270229177077E+03    0.13157E-01   -0.65295E-02 54264   0.572E-01    0.591E-01
DAV:   5    -0.270231707135E+03   -0.25301E-02   -0.16101E-02 53800   0.288E-01    0.991E-01
DAV:   6    -0.270230309124E+03    0.13980E-02   -0.11783E-02 54456   0.291E-01    0.650E-01
DAV:   7    -0.270230570494E+03   -0.26137E-03   -0.14001E-02 54368   0.256E-01    0.733E-01
DAV:   8    -0.270229706754E+03    0.86374E-03   -0.44237E-03 53328   0.217E-01    0.227E-01
DAV:   9    -0.270229954760E+03   -0.24801E-03   -0.98911E-04 54224   0.921E-02    0.175E-01
DAV:  10    -0.270230000272E+03   -0.45511E-04   -0.14281E-04 41512   0.376E-02    0.188E-01
DAV:  11    -0.270229976039E+03    0.24232E-04   -0.30017E-05 29744   0.192E-02    0.180E-01
DAV:  12    -0.270229965248E+03    0.10792E-04   -0.64007E-05 34880   0.340E-02    0.130E-01
DAV:  13    -0.270229952450E+03    0.12798E-04   -0.17367E-04 48304   0.497E-02    0.490E-02
DAV:  14    -0.270229965500E+03   -0.13050E-04   -0.54608E-05 31352   0.246E-02    0.676E-02
DAV:  15    -0.270229969274E+03   -0.37740E-05   -0.22620E-05 27024   0.186E-02
  14 F= -.27022997E+03 E0= -.27021986E+03  d E =-.541934E-02  mag=     4.0000
       N       E                     dE             d eps       ncg     rms          rms(c)
DAV:   1    -0.270232527542E+03   -0.25620E-02   -0.64409E-01 39312   0.316E+00    0.398E-01
DAV:   2    -0.270235489749E+03   -0.29622E-02   -0.32635E-02 45456   0.634E-01    0.700E-01
DAV:   3    -0.270235824880E+03   -0.33513E-03   -0.21617E-02 54320   0.314E-01    0.913E-01
DAV:   4    -0.270234681946E+03    0.11429E-02   -0.71239E-03 54232   0.206E-01    0.347E-01
DAV:   5    -0.270234740741E+03   -0.58796E-04   -0.27092E-03 54600   0.115E-01    0.253E-01
DAV:   6    -0.270234795789E+03   -0.55048E-04   -0.14844E-03 54384   0.103E-01    0.316E-01
DAV:   7    -0.270234655934E+03    0.13986E-03   -0.13719E-03 53384   0.868E-02    0.122E-01
DAV:   8    -0.270234654788E+03    0.11454E-05   -0.15122E-04 46600   0.521E-02    0.610E-02
DAV:   9    -0.270234658137E+03   -0.33491E-05   -0.55711E-05 28944   0.213E-02
  15 F= -.27023466E+03 E0= -.27022457E+03  d E =-.468886E-02  mag=     4.0000
       N       E                     dE             d eps       ncg     rms          rms(c)
DAV:   1    -0.270233006293E+03    0.16485E-02   -0.17960E+00 39312   0.503E+00    0.297E-01
DAV:   2    -0.270238845001E+03   -0.58387E-02   -0.62335E-02 40416   0.840E-01    0.429E-01
DAV:   3    -0.270239339669E+03   -0.49467E-03   -0.12094E-02 54568   0.252E-01    0.713E-01
DAV:   4    -0.270238471086E+03    0.86858E-03   -0.49577E-03 55344   0.169E-01    0.287E-01
DAV:   5    -0.270238471066E+03    0.19802E-07   -0.14477E-03 54248   0.861E-02    0.170E-01
DAV:   6    -0.270238580989E+03   -0.10992E-03   -0.15345E-03 54384   0.976E-02    0.388E-01
DAV:   7    -0.270238331587E+03    0.24940E-03   -0.16787E-03 54040   0.935E-02    0.107E-01
DAV:   8    -0.270238377273E+03   -0.45686E-04   -0.19855E-04 43856   0.538E-02    0.574E-02
DAV:   9    -0.270238396522E+03   -0.19249E-04   -0.96684E-05 31248   0.284E-02    0.653E-02
DAV:  10    -0.270238398935E+03   -0.24130E-05   -0.15805E-05 24080   0.158E-02
  16 F= -.27023840E+03 E0= -.27022832E+03  d E =-.374080E-02  mag=     4.0000
       N       E                     dE             d eps       ncg     rms          rms(c)
DAV:   1    -0.269857989221E+03    0.38041E+00   -0.81140E+01 40320   0.349E+01    0.376E+00
DAV:   2    -0.270188226552E+03   -0.33024E+00   -0.35085E+00 43944   0.641E+00    0.645E+00
DAV:   3    -0.270245915591E+03   -0.57689E-01   -0.23234E+00 53776   0.323E+00    0.872E+00
DAV:   4    -0.270187489862E+03    0.58426E-01   -0.11438E+00 54168   0.205E+00    0.760E+00
DAV:   5    -0.270106687246E+03    0.80803E-01   -0.52208E-01 54584   0.149E+00    0.195E+00
DAV:   6    -0.270140863785E+03   -0.34177E-01   -0.23086E-01 54408   0.952E-01    0.398E+00
DAV:   7    -0.270114199839E+03    0.26664E-01   -0.12164E-01 54056   0.894E-01    0.775E-01
DAV:   8    -0.270120103863E+03   -0.59040E-02   -0.16682E-02 52864   0.425E-01    0.738E-01
DAV:   9    -0.270120853547E+03   -0.74968E-03   -0.91899E-03 54568   0.305E-01    0.682E-01
DAV:  10    -0.270120632758E+03    0.22079E-03   -0.21913E-03 53824   0.169E-01    0.494E-01
DAV:  11    -0.270120383789E+03    0.24897E-03   -0.30317E-03 54496   0.170E-01    0.393E-01
DAV:  12    -0.270120105470E+03    0.27832E-03   -0.18884E-03 53920   0.147E-01    0.221E-01
DAV:  13    -0.270120304685E+03   -0.19921E-03   -0.13681E-03 53512   0.907E-02    0.186E-01
DAV:  14    -0.270120370557E+03   -0.65872E-04   -0.39650E-04 52048   0.616E-02    0.162E-01
DAV:  15    -0.270120376642E+03   -0.60849E-05   -0.17011E-04 40312   0.401E-02    0.107E-01
DAV:  16    -0.270120378329E+03   -0.16868E-05   -0.74730E-05 36520   0.290E-02
  17 F= -.27012038E+03 E0= -.27011053E+03  d E =0.118021E+00  mag=     4.0000
       N       E                     dE             d eps       ncg     rms          rms(c)
DAV:   1    -0.270210543130E+03   -0.90166E-01   -0.51124E+00 39816   0.829E+00    0.186E+00
DAV:   2    -0.270236430010E+03   -0.25887E-01   -0.30963E-01 47040   0.185E+00    0.288E+00
DAV:   3    -0.270258794147E+03   -0.22364E-01   -0.52614E-01 53520   0.143E+00    0.497E+00
DAV:   4    -0.270219026494E+03    0.39768E-01   -0.17524E-01 54240   0.939E-01    0.109E+00
DAV:   5    -0.270224726331E+03   -0.56998E-02   -0.28812E-02 53224   0.391E-01    0.964E-01
DAV:   6    -0.270225246442E+03   -0.52011E-03   -0.18528E-02 54432   0.315E-01    0.939E-01
DAV:   7    -0.270223980092E+03    0.12664E-02   -0.12925E-02 54152   0.264E-01    0.355E-01
DAV:   8    -0.270224331999E+03   -0.35191E-03   -0.23688E-03 54344   0.129E-01    0.363E-01
DAV:   9    -0.270224307811E+03    0.24188E-04   -0.69897E-04 53792   0.750E-02    0.274E-01
DAV:  10    -0.270224302492E+03    0.53188E-05   -0.17594E-04 38056   0.457E-02    0.256E-01
DAV:  11    -0.270224255270E+03    0.47222E-04   -0.30153E-04 51040   0.709E-02    0.202E-01
DAV:  12    -0.270224210168E+03    0.45103E-04   -0.41204E-04 50912   0.636E-02    0.797E-02
DAV:  13    -0.270224255899E+03   -0.45731E-04   -0.12387E-04 35312   0.371E-02    0.902E-02
DAV:  14    -0.270224260278E+03   -0.43799E-05   -0.84082E-05 33928   0.328E-02
  18 F= -.27022426E+03 E0= -.27021444E+03  d E =-.103882E+00  mag=     4.0000
       N       E                     dE             d eps       ncg     rms          rms(c)
DAV:   1    -0.270231087687E+03   -0.68318E-02   -0.10876E-01 41024   0.122E+00    0.259E-01
DAV:   2    -0.270231482874E+03   -0.39519E-03   -0.54695E-03 46256   0.269E-01    0.265E-01
DAV:   3    -0.270232302865E+03   -0.81999E-03   -0.97492E-03 53760   0.194E-01    0.824E-01
DAV:   4    -0.270231197184E+03    0.11057E-02   -0.53156E-03 54504   0.151E-01    0.169E-01
DAV:   5    -0.270231356471E+03   -0.15929E-03   -0.50683E-04 41240   0.548E-02    0.841E-02
DAV:   6    -0.270231389320E+03   -0.32849E-04   -0.27876E-04 42328   0.433E-02    0.146E-01
DAV:   7    -0.270231360000E+03    0.29320E-04   -0.25017E-04 32880   0.378E-02    0.612E-02
DAV:   8    -0.270231363481E+03   -0.34814E-05   -0.49686E-05 27816   0.238E-02
  19 F= -.27023136E+03 E0= -.27022155E+03  d E =-.710320E-02  mag=     4.0000
       N       E                     dE             d eps       ncg     rms          rms(c)
DAV:   1    -0.270239375644E+03   -0.80156E-02   -0.23227E+00 40320   0.564E+00    0.110E+00
DAV:   2    -0.270247730091E+03   -0.83544E-02   -0.11296E-01 46592   0.122E+00    0.111E+00
DAV:   3    -0.270260251700E+03   -0.12522E-01   -0.14412E-01 53696   0.858E-01    0.320E+00
DAV:   4    -0.270245450832E+03    0.14801E-01   -0.10869E-01 54224   0.649E-01    0.134E+00
DAV:   5    -0.270244689122E+03    0.76171E-03   -0.18522E-02 53792   0.318E-01    0.236E-01
DAV:   6    -0.270245352505E+03   -0.66338E-03   -0.24576E-03 52864   0.144E-01    0.385E-01
DAV:   7    -0.270245358008E+03   -0.55026E-05   -0.40336E-03 53872   0.138E-01    0.399E-01
DAV:   8    -0.270245181973E+03    0.17603E-03   -0.11339E-03 53936   0.897E-02    0.121E-01
DAV:   9    -0.270245242198E+03   -0.60225E-04   -0.31116E-04 49152   0.498E-02    0.114E-01
DAV:  10    -0.270245249390E+03   -0.71921E-05   -0.63953E-05 31304   0.306E-02
  20 F= -.27024525E+03 E0= -.27023551E+03  d E =-.138859E-01  mag=     4.0000
       N       E                     dE             d eps       ncg     rms          rms(c)
DAV:   1    -0.270245257112E+03   -0.14914E-04   -0.26785E-02 42288   0.592E-01    0.142E-01
DAV:   2    -0.270245702982E+03   -0.44587E-03   -0.39682E-03 53160   0.180E-01    0.472E-01
DAV:   3    -0.270245309560E+03    0.39342E-03   -0.40563E-03 53080   0.149E-01    0.175E-01
DAV:   4    -0.270245460400E+03   -0.15084E-03   -0.14811E-03 44600   0.758E-02    0.323E-01
DAV:   5    -0.270245274833E+03    0.18557E-03   -0.85840E-04 38816   0.655E-02    0.440E-02
DAV:   6    -0.270245318182E+03   -0.43350E-04   -0.10882E-04 32744   0.280E-02    0.100E-01
DAV:   7    -0.270245307975E+03    0.10207E-04   -0.12730E-04 30008   0.279E-02    0.520E-02
DAV:   8    -0.270245311401E+03   -0.34255E-05   -0.20307E-05 25312   0.169E-02
  21 F= -.27024531E+03 E0= -.27023550E+03  d E =-.620106E-04  mag=     4.0000
       N       E                     dE             d eps       ncg     rms          rms(c)
DAV:   1    -0.270245577646E+03   -0.26967E-03   -0.42058E-02 41136   0.781E-01    0.965E-02
DAV:   2    -0.270245773328E+03   -0.19568E-03   -0.21421E-03 46600   0.157E-01    0.200E-01
DAV:   3    -0.270245750233E+03    0.23095E-04   -0.12806E-03 53480   0.793E-02    0.180E-01
DAV:   4    -0.270245742640E+03    0.75938E-05   -0.49647E-04 34792   0.498E-02    0.156E-01
DAV:   5    -0.270245698672E+03    0.43968E-04   -0.22699E-04 33552   0.392E-02    0.407E-02
DAV:   6    -0.270245709687E+03   -0.11015E-04   -0.81348E-05 34616   0.228E-02    0.772E-02
DAV:   7    -0.270245703247E+03    0.64395E-05   -0.92716E-05 27976   0.238E-02
  22 F= -.27024570E+03 E0= -.27023590E+03  d E =-.391846E-03  mag=     4.0000
       N       E                     dE             d eps       ncg     rms          rms(c)
DAV:   1    -0.270245089883E+03    0.61980E-03   -0.35614E-01 40320   0.229E+00    0.188E-01
DAV:   2    -0.270246488286E+03   -0.13984E-02   -0.15142E-02 43472   0.421E-01    0.395E-01
DAV:   3    -0.270246330489E+03    0.15780E-03   -0.44096E-03 55936   0.168E-01    0.278E-01
DAV:   4    -0.270246321948E+03    0.85415E-05   -0.16601E-03 54328   0.948E-02    0.329E-01
DAV:   5    -0.270246144993E+03    0.17696E-03   -0.89756E-04 49568   0.681E-02    0.639E-02
DAV:   6    -0.270246153879E+03   -0.88863E-05   -0.13870E-04 45992   0.436E-02    0.427E-02
DAV:   7    -0.270246190192E+03   -0.36313E-04   -0.27050E-04 34552   0.361E-02    0.160E-01
DAV:   8    -0.270246151128E+03    0.39064E-04   -0.22595E-04 31776   0.350E-02    0.426E-02
DAV:   9    -0.270246161345E+03   -0.10217E-04   -0.13677E-05 24608   0.151E-02    0.363E-02
DAV:  10    -0.270246161593E+03   -0.24783E-06   -0.42974E-06 22176   0.841E-03
  23 F= -.27024616E+03 E0= -.27023635E+03  d E =-.458346E-03  mag=     4.0000
       N       E                     dE             d eps       ncg     rms          rms(c)
DAV:   1    -0.270242077294E+03    0.40841E-02   -0.11053E+00 40320   0.402E+00    0.243E-01
DAV:   2    -0.270246237224E+03   -0.41599E-02   -0.44031E-02 42336   0.699E-01    0.650E-01
DAV:   3    -0.270245656035E+03    0.58119E-03   -0.73301E-03 55784   0.211E-01    0.285E-01
DAV:   4    -0.270245819583E+03   -0.16355E-03   -0.31701E-03 54272   0.126E-01    0.432E-01
DAV:   5    -0.270245473468E+03    0.34612E-03   -0.17311E-03 54632   0.979E-02    0.126E-01
DAV:   6    -0.270245573528E+03   -0.10006E-03   -0.10296E-03 54808   0.794E-02    0.323E-01
DAV:   7    -0.270245406718E+03    0.16681E-03   -0.10212E-03 53840   0.715E-02    0.113E-01
DAV:   8    -0.270245429887E+03   -0.23170E-04   -0.20047E-04 36184   0.425E-02    0.488E-02
DAV:   9    -0.270245457592E+03   -0.27705E-04   -0.90047E-05 30592   0.232E-02    0.642E-02
DAV:  10    -0.270245458798E+03   -0.12058E-05   -0.17209E-05 24480   0.160E-02
  24 F= -.27024546E+03 E0= -.27023561E+03  d E =0.702795E-03  mag=     4.0000
       N       E                     dE             d eps       ncg     rms          rms(c)
DAV:   1    -0.270233240215E+03    0.12217E-01   -0.30380E+00 40320   0.637E+00    0.362E-01
DAV:   2    -0.270242362733E+03   -0.91225E-02   -0.98380E-02 41504   0.105E+00    0.571E-01
DAV:   3    -0.270242957869E+03   -0.59514E-03   -0.15955E-02 54736   0.299E-01    0.870E-01
DAV:   4    -0.270241677899E+03    0.12800E-02   -0.64077E-03 54960   0.195E-01    0.289E-01
DAV:   5    -0.270241784618E+03   -0.10672E-03   -0.21475E-03 54624   0.110E-01    0.253E-01
DAV:   6    -0.270241559029E+03    0.22559E-03   -0.97431E-04 52144   0.117E-01    0.153E-01
DAV:   7    -0.270241706566E+03   -0.14754E-03   -0.12259E-03 54176   0.801E-02    0.343E-01
DAV:   8    -0.270241517882E+03    0.18868E-03   -0.11446E-03 49008   0.704E-02    0.643E-02
DAV:   9    -0.270241576028E+03   -0.58146E-04   -0.12884E-04 32800   0.331E-02    0.633E-02
DAV:  10    -0.270241582873E+03   -0.68448E-05   -0.31368E-05 26912   0.234E-02
  25 F= -.27024158E+03 E0= -.27023168E+03  d E =0.387593E-02  mag=     4.0000
       N       E                     dE             d eps       ncg     rms          rms(c)
DAV:   1    -0.270203073397E+03    0.38503E-01   -0.10371E+01 40320   0.112E+01    0.745E-01
DAV:   2    -0.270231711498E+03   -0.28638E-01   -0.30746E-01 41872   0.182E+00    0.110E+00
DAV:   3    -0.270234695209E+03   -0.29837E-02   -0.69169E-02 54544   0.566E-01    0.186E+00
DAV:   4    -0.270228723296E+03    0.59719E-02   -0.28299E-02 54560   0.390E-01    0.403E-01
DAV:   5    -0.270230840867E+03   -0.21176E-02   -0.14114E-02 54536   0.244E-01    0.109E+00
DAV:   6    -0.270228648376E+03    0.21925E-02   -0.59550E-03 54368   0.242E-01    0.365E-01
DAV:   7    -0.270229390449E+03   -0.74207E-03   -0.55422E-03 54024   0.177E-01    0.619E-01
DAV:   8    -0.270228774445E+03    0.61600E-03   -0.47150E-03 54048   0.160E-01    0.159E-01
DAV:   9    -0.270228975258E+03   -0.20081E-03   -0.80467E-04 52968   0.742E-02    0.149E-01
DAV:  10    -0.270228989978E+03   -0.14720E-04   -0.11489E-04 35656   0.440E-02    0.121E-01
DAV:  11    -0.270228997996E+03   -0.80173E-05   -0.17622E-04 48088   0.424E-02    0.968E-02
DAV:  12    -0.270228981212E+03    0.16783E-04   -0.90694E-05 33720   0.343E-02    0.425E-02
DAV:  13    -0.270228988501E+03   -0.72888E-05   -0.62298E-05 35784   0.228E-02
  26 F= -.27022899E+03 E0= -.27021899E+03  d E =0.125944E-01  mag=     4.0000
       N       E                     dE             d eps       ncg     rms          rms(c)
DAV:   1    -0.270231069288E+03   -0.20881E-02   -0.61102E-01 40320   0.325E+00    0.303E-01
DAV:   2    -0.270233790314E+03   -0.27210E-02   -0.29767E-02 42336   0.576E-01    0.359E-01
DAV:   3    -0.270234200139E+03   -0.40983E-03   -0.86232E-03 56448   0.204E-01    0.647E-01
DAV:   4    -0.270233606084E+03    0.59406E-03   -0.48869E-03 54192   0.154E-01    0.341E-01
DAV:   5    -0.270233487089E+03    0.11900E-03   -0.14803E-03 54008   0.890E-02    0.107E-01
DAV:   6    -0.270233578657E+03   -0.91568E-04   -0.88701E-04 54392   0.744E-02    0.301E-01
DAV:   7    -0.270233439692E+03    0.13897E-03   -0.99492E-04 51544   0.678E-02    0.102E-01
DAV:   8    -0.270233461737E+03   -0.22045E-04   -0.85706E-05 30976   0.366E-02    0.449E-02
DAV:   9    -0.270233472448E+03   -0.10711E-04   -0.47996E-05 26344   0.230E-02    0.465E-02
DAV:  10    -0.270233473741E+03   -0.12930E-05   -0.93610E-06 22880   0.126E-02
  27 F= -.27023347E+03 E0= -.27022350E+03  d E =-.448524E-02  mag=     4.0000
       N       E                     dE             d eps       ncg     rms          rms(c)
DAV:   1    -0.270233151372E+03    0.32108E-03   -0.32615E-01 40320   0.223E+00    0.194E-01
DAV:   2    -0.270234568452E+03   -0.14171E-02   -0.14808E-02 43296   0.396E-01    0.517E-01
DAV:   3    -0.270234337999E+03    0.23045E-03   -0.65653E-03 55296   0.176E-01    0.359E-01
DAV:   4    -0.270234218822E+03    0.11918E-03   -0.13039E-03 54000   0.923E-02    0.183E-01
DAV:   5    -0.270234187880E+03    0.30942E-04   -0.56671E-04 42080   0.565E-02    0.906E-02
DAV:   6    -0.270234241388E+03   -0.53508E-04   -0.50688E-04 49024   0.533E-02    0.220E-01
DAV:   7    -0.270234158102E+03    0.83286E-04   -0.42088E-04 35448   0.478E-02    0.409E-02
DAV:   8    -0.270234173922E+03   -0.15820E-04   -0.28510E-05 27864   0.221E-02    0.397E-02
DAV:   9    -0.270234173981E+03   -0.58222E-07   -0.12594E-05 22856   0.142E-02
  28 F= -.27023417E+03 E0= -.27022423E+03  d E =-.700239E-03  mag=     4.0000
       N       E                     dE             d eps       ncg     rms          rms(c)
DAV:   1    -0.270207965521E+03    0.26208E-01   -0.77299E+00 40320   0.977E+00    0.511E-01
DAV:   2    -0.270228863015E+03   -0.20897E-01   -0.22336E-01 41384   0.157E+00    0.603E-01
DAV:   3    -0.270231546279E+03   -0.26833E-02   -0.33110E-02 54704   0.448E-01    0.153E+00
DAV:   4    -0.270227473822E+03    0.40725E-02   -0.17331E-02 55104   0.327E-01    0.391E-01
DAV:   5    -0.270228046419E+03   -0.57260E-03   -0.49306E-03 53968   0.163E-01    0.389E-01
DAV:   6    -0.270228366670E+03   -0.32025E-03   -0.80052E-03 54704   0.209E-01    0.777E-01
DAV:   7    -0.270227386851E+03    0.97982E-03   -0.59673E-03 54480   0.168E-01    0.100E-01
DAV:   8    -0.270227556154E+03   -0.16930E-03   -0.22808E-04 50808   0.674E-02    0.852E-02
DAV:   9    -0.270227574448E+03   -0.18294E-04   -0.19197E-04 47208   0.380E-02    0.788E-02
DAV:  10    -0.270227577058E+03   -0.26101E-05   -0.32768E-05 27624   0.188E-02
  29 F= -.27022758E+03 E0= -.27021766E+03  d E =0.659692E-02  mag=     4.0000
       N       E                     dE             d eps       ncg     rms          rms(c)
DAV:   1    -0.269789164140E+03    0.43841E+00   -0.73560E+01 39816   0.307E+01    0.387E+00
DAV:   2    -0.270047110644E+03   -0.25795E+00   -0.29231E+00 43024   0.569E+00    0.369E+00
DAV:   3    -0.270167567014E+03   -0.12046E+00   -0.16827E+00 55472   0.270E+00    0.102E+01
DAV:   4    -0.270029132271E+03    0.13843E+00   -0.13174E+00 55024   0.212E+00    0.542E+00
DAV:   5    -0.270006280478E+03    0.22852E-01   -0.34356E-01 52920   0.119E+00    0.153E+00
DAV:   6    -0.270014416387E+03   -0.81359E-02   -0.78184E-02 55568   0.766E-01    0.240E+00
DAV:   7    -0.270007841353E+03    0.65750E-02   -0.96564E-02 54032   0.706E-01    0.175E+00
DAV:   8    -0.270005732682E+03    0.21087E-02   -0.32566E-02 54192   0.583E-01    0.651E-01
DAV:   9    -0.270009426780E+03   -0.36941E-02   -0.19467E-02 53792   0.398E-01    0.734E-01
DAV:  10    -0.270010016626E+03   -0.58985E-03   -0.33782E-03 53808   0.209E-01    0.666E-01
DAV:  11    -0.270009773716E+03    0.24291E-03   -0.35657E-03 54064   0.183E-01    0.480E-01
DAV:  12    -0.270009537074E+03    0.23664E-03   -0.18921E-03 54656   0.149E-01    0.279E-01
DAV:  13    -0.270009520561E+03    0.16512E-04   -0.94424E-04 54016   0.111E-01    0.157E-01
DAV:  14    -0.270009649411E+03   -0.12885E-03   -0.72504E-04 52792   0.681E-02    0.139E-01
DAV:  15    -0.270009683873E+03   -0.34462E-04   -0.20356E-04 41248   0.441E-02    0.117E-01
DAV:  16    -0.270009684729E+03   -0.85589E-06   -0.62214E-05 35952   0.283E-02
  30 F= -.27000968E+03 E0= -.26999983E+03  d E =0.217892E+00  mag=     4.0000
       N       E                     dE             d eps       ncg     rms          rms(c)
DAV:   1    -0.270130308266E+03   -0.12062E+00   -0.28659E+00 39376   0.618E+00    0.145E+00
DAV:   2    -0.270148623192E+03   -0.18315E-01   -0.19661E-01 46312   0.141E+00    0.211E+00
DAV:   3    -0.270159100126E+03   -0.10477E-01   -0.25873E-01 53672   0.108E+00    0.343E+00
DAV:   4    -0.270141247526E+03    0.17853E-01   -0.10758E-01 53840   0.741E-01    0.140E+00
DAV:   5    -0.270140636793E+03    0.61073E-03   -0.32423E-02 53000   0.415E-01    0.616E-01
DAV:   6    -0.270140248417E+03    0.38838E-03   -0.55642E-03 54600   0.238E-01    0.380E-01
DAV:   7    -0.270143024286E+03   -0.27759E-02   -0.21512E-02 54440   0.281E-01    0.145E+00
DAV:   8    -0.270139921066E+03    0.31032E-02   -0.13928E-02 52592   0.272E-01    0.289E-01
DAV:   9    -0.270140884767E+03   -0.96370E-03   -0.14807E-03 51648   0.123E-01    0.253E-01
DAV:  10    -0.270140928605E+03   -0.43837E-04   -0.37693E-04 54104   0.720E-02    0.211E-01
DAV:  11    -0.270140904444E+03    0.24161E-04   -0.30028E-04 53192   0.689E-02    0.145E-01
DAV:  12    -0.270140890125E+03    0.14318E-04   -0.24168E-04 49632   0.550E-02    0.968E-02
DAV:  13    -0.270140896153E+03   -0.60280E-05   -0.93929E-05 33288   0.313E-02
  31 F= -.27014090E+03 E0= -.27013111E+03  d E =-.131211E+00  mag=     4.0000
       N       E                     dE             d eps       ncg     rms          rms(c)
DAV:   1    -0.270166097592E+03   -0.25207E-01   -0.27989E-01 39600   0.199E+00    0.445E-01
DAV:   2    -0.270167795329E+03   -0.16977E-02   -0.18583E-02 45496   0.445E-01    0.605E-01
DAV:   3    -0.270168900690E+03   -0.11054E-02   -0.19325E-02 53800   0.310E-01    0.111E+00
DAV:   4    -0.270166888001E+03    0.20127E-02   -0.79691E-03 53184   0.219E-01    0.246E-01
DAV:   5    -0.270167288035E+03   -0.40003E-03   -0.20701E-03 53248   0.982E-02    0.350E-01
DAV:   6    -0.270167105991E+03    0.18204E-03   -0.16898E-03 54408   0.978E-02    0.220E-01
DAV:   7    -0.270167158144E+03   -0.52153E-04   -0.19417E-03 53192   0.991E-02    0.257E-01
DAV:   8    -0.270167139097E+03    0.19047E-04   -0.10076E-03 43640   0.681E-02    0.117E-01
DAV:   9    -0.270167189422E+03   -0.50325E-04   -0.14561E-04 33624   0.365E-02    0.942E-02
DAV:  10    -0.270167186240E+03    0.31814E-05   -0.40521E-05 33408   0.260E-02
  32 F= -.27016719E+03 E0= -.27015742E+03  d E =-.262901E-01  mag=     4.0000
       N       E                     dE             d eps       ncg     rms          rms(c)
DAV:   1    -0.270182697895E+03   -0.15508E-01   -0.81059E+00 40352   0.109E+01    0.214E+00
DAV:   2    -0.270222293378E+03   -0.39595E-01   -0.47985E-01 44240   0.234E+00    0.205E+00
DAV:   3    -0.270273141813E+03   -0.50848E-01   -0.43699E-01 54280   0.152E+00    0.661E+00
DAV:   4    -0.270206319205E+03    0.66823E-01   -0.39813E-01 53896   0.125E+00    0.127E+00
DAV:   5    -0.270215649890E+03   -0.93307E-02   -0.53027E-02 53016   0.523E-01    0.125E+00
DAV:   6    -0.270214562248E+03    0.10876E-02   -0.26618E-02 54288   0.409E-01    0.120E+00
DAV:   7    -0.270213383483E+03    0.11788E-02   -0.33257E-02 53664   0.387E-01    0.906E-01
DAV:   8    -0.270212961443E+03    0.42204E-03   -0.89177E-03 54352   0.245E-01    0.314E-01
DAV:   9    -0.270213794444E+03   -0.83300E-03   -0.30992E-03 53104   0.146E-01    0.320E-01
DAV:  10    -0.270213870498E+03   -0.76054E-04   -0.58416E-04 53080   0.929E-02    0.271E-01
DAV:  11    -0.270213779748E+03    0.90750E-04   -0.63139E-04 54200   0.108E-01    0.140E-01
DAV:  12    -0.270213779653E+03    0.94300E-07   -0.27811E-04 54256   0.696E-02    0.120E-01
DAV:  13    -0.270213783292E+03   -0.36385E-05   -0.10313E-04 38200   0.334E-02    0.874E-02
DAV:  14    -0.270213796563E+03   -0.13271E-04   -0.59483E-05 32648   0.331E-02    0.452E-02
DAV:  15    -0.270213799726E+03   -0.31632E-05   -0.43652E-05 31720   0.242E-02
  33 F= -.27021380E+03 E0= -.27020423E+03  d E =-.466135E-01  mag=     4.0000
       N       E                     dE             d eps       ncg     rms          rms(c)
DAV:   1    -0.270219971160E+03   -0.61746E-02   -0.34506E-01 40360   0.213E+00    0.492E-01
DAV:   2    -0.270221721694E+03   -0.17505E-02   -0.20147E-02 46952   0.473E-01    0.559E-01
DAV:   3    -0.270223905314E+03   -0.21836E-02   -0.30342E-02 53784   0.364E-01    0.137E+00
DAV:   4    -0.270220824533E+03    0.30808E-02   -0.14581E-02 54008   0.268E-01    0.373E-01
DAV:   5    -0.270221130061E+03   -0.30553E-03   -0.26782E-03 53440   0.129E-01    0.233E-01
DAV:   6    -0.270221227217E+03   -0.97156E-04   -0.16531E-03 53896   0.970E-02    0.382E-01
DAV:   7    -0.270221020992E+03    0.20623E-03   -0.18770E-03 54160   0.931E-02    0.161E-01
DAV:   8    -0.270221090810E+03   -0.69818E-04   -0.63587E-04 46424   0.609E-02    0.100E-01
DAV:   9    -0.270221134991E+03   -0.44181E-04   -0.13398E-04 33400   0.372E-02    0.987E-02
DAV:  10    -0.270221127556E+03    0.74351E-05   -0.17811E-05 26288   0.179E-02
  34 F= -.27022113E+03 E0= -.27021152E+03  d E =-.732783E-02  mag=     4.0000
       N       E                     dE             d eps       ncg     rms          rms(c)
DAV:   1    -0.270224400713E+03   -0.32657E-02   -0.10817E-01 40560   0.128E+00    0.164E-01
DAV:   2    -0.270224987242E+03   -0.58653E-03   -0.62267E-03 45688   0.249E-01    0.349E-01
DAV:   3    -0.270224848876E+03    0.13837E-03   -0.24496E-03 55144   0.117E-01    0.229E-01
DAV:   4    -0.270224842938E+03    0.59386E-05   -0.75625E-04 52000   0.708E-02    0.205E-01
DAV:   5    -0.270224764314E+03    0.78624E-04   -0.51814E-04 36912   0.571E-02    0.776E-02
DAV:   6    -0.270224768716E+03   -0.44017E-05   -0.21818E-04 52464   0.468E-02    0.983E-02
DAV:   7    -0.270224797512E+03   -0.28796E-04   -0.48496E-04 33248   0.427E-02    0.158E-01
DAV:   8    -0.270224774883E+03    0.22629E-04   -0.15427E-04 30904   0.347E-02    0.599E-02
DAV:   9    -0.270224780752E+03   -0.58685E-05   -0.12568E-05 23560   0.152E-02
  35 F= -.27022478E+03 E0= -.27021514E+03  d E =-.365320E-02  mag=     4.0000
       N       E                     dE             d eps       ncg     rms          rms(c)
DAV:   1    -0.270229077573E+03   -0.43027E-02   -0.67012E-01 40320   0.319E+00    0.315E-01
DAV:   2    -0.270232476078E+03   -0.33985E-02   -0.36346E-02 47784   0.600E-01    0.801E-01
DAV:   3    -0.270231748922E+03    0.72716E-03   -0.16227E-02 54528   0.309E-01    0.555E-01
DAV:   4    -0.270231902171E+03   -0.15325E-03   -0.70117E-03 53848   0.174E-01    0.608E-01
DAV:   5    -0.270231215043E+03    0.68713E-03   -0.35312E-03 54376   0.142E-01    0.111E-01
DAV:   6    -0.270231348501E+03   -0.13346E-03   -0.81902E-04 53944   0.780E-02    0.271E-01
DAV:   7    -0.270231247182E+03    0.10132E-03   -0.86060E-04 51560   0.669E-02    0.109E-01
DAV:   8    -0.270231270789E+03   -0.23606E-04   -0.13028E-04 31248   0.368E-02    0.507E-02
DAV:   9    -0.270231279354E+03   -0.85649E-05   -0.41734E-05 27672   0.233E-02
  36 F= -.27023128E+03 E0= -.27022159E+03  d E =-.649860E-02  mag=     4.0000
       N       E                     dE             d eps       ncg     rms          rms(c)
DAV:   1    -0.270232248811E+03   -0.97802E-03   -0.13870E-01 40464   0.140E+00    0.119E-01
DAV:   2    -0.270232716021E+03   -0.46721E-03   -0.53467E-03 42624   0.244E-01    0.200E-01
DAV:   3    -0.270232720705E+03   -0.46839E-05   -0.16636E-03 54280   0.923E-02    0.222E-01
DAV:   4    -0.270232677687E+03    0.43018E-04   -0.79059E-04 46736   0.623E-02    0.178E-01
DAV:   5    -0.270232626905E+03    0.50782E-04   -0.36871E-04 34496   0.451E-02    0.464E-02
DAV:   6    -0.270232632961E+03   -0.60561E-05   -0.13427E-04 43216   0.331E-02    0.548E-02
DAV:   7    -0.270232640667E+03   -0.77057E-05   -0.10454E-04 29424   0.252E-02    0.849E-02
DAV:   8    -0.270232632044E+03    0.86231E-05   -0.48417E-05 25632   0.205E-02
  37 F= -.27023263E+03 E0= -.27022290E+03  d E =-.135269E-02  mag=     4.0000
       N       E                     dE             d eps       ncg     rms          rms(c)
DAV:   1    -0.270228741093E+03    0.38996E-02   -0.14329E+00 40320   0.435E+00    0.293E-01
DAV:   2    -0.270233176028E+03   -0.44349E-02   -0.48920E-02 41888   0.734E-01    0.499E-01
DAV:   3    -0.270233289514E+03   -0.11349E-03   -0.10509E-02 55216   0.262E-01    0.587E-01
DAV:   4    -0.270232902430E+03    0.38708E-03   -0.48409E-03 55104   0.159E-01    0.459E-01
DAV:   5    -0.270232594084E+03    0.30835E-03   -0.25471E-03 54616   0.115E-01    0.137E-01
DAV:   6    -0.270232539786E+03    0.54298E-04   -0.47428E-04 48680   0.816E-02    0.101E-01
DAV:   7    -0.270232653411E+03   -0.11362E-03   -0.95694E-04 51848   0.655E-02    0.284E-01
DAV:   8    -0.270232523805E+03    0.12961E-03   -0.66301E-04 35704   0.566E-02    0.489E-02
DAV:   9    -0.270232558571E+03   -0.34765E-04   -0.57731E-05 31664   0.241E-02    0.557E-02
DAV:  10    -0.270232559405E+03   -0.83449E-06   -0.14954E-05 24008   0.148E-02
  38 F= -.27023256E+03 E0= -.27022276E+03  d E =0.726386E-04  mag=     4.0000
       N       E                     dE             d eps       ncg     rms          rms(c)
DAV:   1    -0.270228091506E+03    0.44671E-02   -0.46906E-01 40320   0.240E+00    0.172E-01
DAV:   2    -0.270229530106E+03   -0.14386E-02   -0.15564E-02 40320   0.405E-01    0.272E-01
DAV:   3    -0.270229620162E+03   -0.90056E-04   -0.36212E-03 54416   0.132E-01    0.370E-01
DAV:   4    -0.270229420892E+03    0.19927E-03   -0.15835E-03 54112   0.904E-02    0.173E-01
DAV:   5    -0.270229401649E+03    0.19242E-04   -0.56175E-04 36744   0.557E-02    0.925E-02
DAV:   6    -0.270229380236E+03    0.21413E-04   -0.15454E-04 49504   0.438E-02    0.607E-02
DAV:   7    -0.270229407933E+03   -0.27697E-04   -0.25999E-04 32888   0.378E-02    0.162E-01
DAV:   8    -0.270229366411E+03    0.41522E-04   -0.17133E-04 31320   0.352E-02    0.328E-02
DAV:   9    -0.270229377053E+03   -0.10642E-04   -0.39967E-05 25960   0.195E-02    0.248E-02
DAV:  10    -0.270229380156E+03   -0.31031E-05   -0.11225E-05 22192   0.130E-02
  39 F= -.27022938E+03 E0= -.27021954E+03  d E =0.317925E-02  mag=     4.0000
       N       E                     dE             d eps       ncg     rms          rms(c)
DAV:   1    -0.270170564802E+03    0.58812E-01   -0.13976E+01 39448   0.129E+01    0.728E-01
DAV:   2    -0.270210247298E+03   -0.39682E-01   -0.42924E-01 40312   0.211E+00    0.101E+00
DAV:   3    -0.270213828348E+03   -0.35810E-02   -0.59280E-02 55416   0.578E-01    0.195E+00
DAV:   4    -0.270207238457E+03    0.65899E-02   -0.29107E-02 54504   0.398E-01    0.351E-01
DAV:   5    -0.270210232357E+03   -0.29939E-02   -0.18492E-02 54064   0.306E-01    0.131E+00
DAV:   6    -0.270207157899E+03    0.30745E-02   -0.15463E-02 54368   0.294E-01    0.478E-01
DAV:   7    -0.270207613845E+03   -0.45595E-03   -0.74111E-03 53768   0.195E-01    0.502E-01
DAV:   8    -0.270207332869E+03    0.28098E-03   -0.30364E-03 54768   0.131E-01    0.161E-01
DAV:   9    -0.270207515575E+03   -0.18271E-03   -0.63481E-04 52904   0.576E-02    0.172E-01
DAV:  10    -0.270207526734E+03   -0.11159E-04   -0.85847E-05 34752   0.372E-02    0.158E-01
DAV:  11    -0.270207520417E+03    0.63176E-05   -0.73190E-05 37632   0.295E-02
  40 F= -.27020752E+03 E0= -.27019756E+03  d E =0.218597E-01  mag=     4.0000
       N       E                     dE             d eps       ncg     rms          rms(c)
DAV:   1    -0.269751284220E+03    0.45624E+00   -0.13090E+02 40320   0.393E+01    0.228E+00
DAV:   2    -0.270146009756E+03   -0.39473E+00   -0.42452E+00 40128   0.651E+00    0.253E+00
DAV:   3    -0.270198540223E+03   -0.52530E-01   -0.69284E-01 54648   0.185E+00    0.669E+00
DAV:   4    -0.270120514215E+03    0.78026E-01   -0.38062E-01 54928   0.137E+00    0.141E+00
DAV:   5    -0.270134902346E+03   -0.14388E-01   -0.92088E-02 54512   0.696E-01    0.244E+00
DAV:   6    -0.270130534813E+03    0.43675E-02   -0.95349E-02 54864   0.823E-01    0.252E+00
DAV:   7    -0.270122758628E+03    0.77762E-02   -0.10769E-01 54280   0.710E-01    0.123E+00
DAV:   8    -0.270122251696E+03    0.50693E-03   -0.11254E-02 52488   0.416E-01    0.453E-01
DAV:   9    -0.270122779401E+03   -0.52770E-03   -0.56144E-03 54944   0.211E-01    0.306E-01
DAV:  10    -0.270123079899E+03   -0.30050E-03   -0.94735E-04 52144   0.980E-02    0.331E-01
DAV:  11    -0.270123042855E+03    0.37044E-04   -0.36778E-04 53976   0.569E-02    0.289E-01
DAV:  12    -0.270122930480E+03    0.11237E-03   -0.46469E-04 52312   0.814E-02    0.167E-01
DAV:  13    -0.270122919069E+03    0.11411E-04   -0.46602E-04 53752   0.856E-02    0.954E-02
DAV:  14    -0.270122976858E+03   -0.57790E-04   -0.32457E-04 50864   0.486E-02    0.163E-01
DAV:  15    -0.270122961387E+03    0.15471E-04   -0.11185E-04 36960   0.421E-02    0.793E-02
DAV:  16    -0.270122964935E+03   -0.35481E-05   -0.85704E-05 40248   0.289E-02
  41 F= -.27012296E+03 E0= -.27011278E+03  d E =0.845555E-01  mag=     4.0000
       N       E                     dE             d eps       ncg     rms          rms(c)
DAV:   1    -0.270124967537E+03   -0.20062E-02   -0.93386E+00 38440   0.104E+01    0.111E+00
DAV:   2    -0.270154736238E+03   -0.29769E-01   -0.32636E-01 42128   0.186E+00    0.144E+00
DAV:   3    -0.270160689295E+03   -0.59531E-02   -0.12392E-01 54648   0.747E-01    0.251E+00
DAV:   4    -0.270150048858E+03    0.10640E-01   -0.34052E-02 54096   0.514E-01    0.751E-01
DAV:   5    -0.270151041903E+03   -0.99304E-03   -0.12986E-02 54320   0.269E-01    0.674E-01
DAV:   6    -0.270151410209E+03   -0.36831E-03   -0.15597E-02 54376   0.286E-01    0.106E+00
DAV:   7    -0.270150051146E+03    0.13591E-02   -0.20823E-02 54568   0.282E-01    0.560E-01
DAV:   8    -0.270150217555E+03   -0.16641E-03   -0.40210E-03 52112   0.169E-01    0.306E-01
DAV:   9    -0.270150364448E+03   -0.14689E-03   -0.81127E-04 54160   0.879E-02    0.231E-01
DAV:  10    -0.270150378703E+03   -0.14255E-04   -0.11266E-04 39024   0.447E-02    0.221E-01
DAV:  11    -0.270150373231E+03    0.54722E-05   -0.24758E-04 51472   0.625E-02    0.194E-01
DAV:  12    -0.270150325821E+03    0.47409E-04   -0.22433E-04 36608   0.423E-02    0.502E-02
DAV:  13    -0.270150354323E+03   -0.28501E-04   -0.12485E-04 38008   0.277E-02    0.491E-02
DAV:  14    -0.270150356815E+03   -0.24928E-05   -0.15285E-05 24024   0.163E-02
  42 F= -.27015036E+03 E0= -.27014024E+03  d E =-.273919E-01  mag=     4.0000
       N       E                     dE             d eps       ncg     rms          rms(c)
DAV:   1    -0.270155685460E+03   -0.53311E-02   -0.32241E-01 40320   0.211E+00    0.436E-01
DAV:   2    -0.270157576502E+03   -0.18910E-02   -0.19848E-02 47424   0.466E-01    0.704E-01
DAV:   3    -0.270158150236E+03   -0.57373E-03   -0.21127E-02 53776   0.309E-01    0.100E+00
DAV:   4    -0.270156667998E+03    0.14822E-02   -0.61099E-03 52352   0.207E-01    0.320E-01
DAV:   5    -0.270156839827E+03   -0.17183E-03   -0.29739E-03 53880   0.130E-01    0.289E-01
DAV:   6    -0.270156727314E+03    0.11251E-03   -0.13198E-03 53496   0.104E-01    0.192E-01
DAV:   7    -0.270156793508E+03   -0.66194E-04   -0.15847E-03 49824   0.771E-02    0.275E-01
DAV:   8    -0.270156699925E+03    0.93583E-04   -0.81008E-04 47536   0.694E-02    0.951E-02
DAV:   9    -0.270156733337E+03   -0.33412E-04   -0.86633E-05 30912   0.258E-02    0.880E-02
DAV:  10    -0.270156730796E+03    0.25406E-05   -0.14209E-05 25608   0.130E-02
  43 F= -.27015673E+03 E0= -.27014661E+03  d E =-.637398E-02  mag=     4.0000
       N       E                     dE             d eps       ncg     rms          rms(c)
DAV:   1    -0.270148383700E+03    0.83496E-02   -0.12552E+00 40320   0.378E+00    0.225E-01
DAV:   2    -0.270151876123E+03   -0.34924E-02   -0.36039E-02 41256   0.605E-01    0.549E-01
DAV:   3    -0.270151610971E+03    0.26515E-03   -0.66251E-03 54016   0.191E-01    0.375E-01
DAV:   4    -0.270151468464E+03    0.14251E-03   -0.16941E-03 53672   0.106E-01    0.228E-01
DAV:   5    -0.270151399077E+03    0.69387E-04   -0.99762E-04 53176   0.765E-02    0.110E-01
DAV:   6    -0.270151373479E+03    0.25597E-04   -0.42541E-04 51288   0.622E-02    0.157E-01
DAV:   7    -0.270151343642E+03    0.29837E-04   -0.33344E-04 43816   0.416E-02    0.623E-02
DAV:   8    -0.270151350707E+03   -0.70648E-05   -0.49254E-05 27624   0.242E-02
  44 F= -.27015135E+03 E0= -.27014118E+03  d E =0.538009E-02  mag=     4.0000
       N       E                     dE             d eps       ncg     rms          rms(c)
DAV:   1    -0.269220998033E+03    0.93035E+00   -0.17431E+02 40320   0.519E+01    0.527E+00
DAV:   2    -0.269989083678E+03   -0.76809E+00   -0.81314E+00 42368   0.959E+00    0.831E+00
DAV:   3    -0.270042790394E+03   -0.53707E-01   -0.32572E+00 55328   0.394E+00    0.934E+00
DAV:   4    -0.269915072529E+03    0.12772E+00   -0.11188E+00 54440   0.241E+00    0.676E+00
DAV:   5    -0.269861190574E+03    0.53882E-01   -0.49172E-01 54416   0.136E+00    0.201E+00
DAV:   6    -0.269871354172E+03   -0.10164E-01   -0.11376E-01 55184   0.883E-01    0.218E+00
DAV:   7    -0.269876279751E+03   -0.49256E-02   -0.13573E-01 53584   0.949E-01    0.271E+00
DAV:   8    -0.269864668971E+03    0.11611E-01   -0.56624E-02 54208   0.659E-01    0.155E+00
DAV:   9    -0.269861640520E+03    0.30285E-02   -0.24628E-02 54328   0.399E-01    0.763E-01
DAV:  10    -0.269861914629E+03   -0.27411E-03   -0.82409E-03 53664   0.344E-01    0.510E-01
DAV:  11    -0.269863656426E+03   -0.17418E-02   -0.10458E-02 53368   0.275E-01    0.463E-01
DAV:  12    -0.269864133367E+03   -0.47694E-03   -0.23595E-03 53256   0.197E-01    0.381E-01
DAV:  13    -0.269864172468E+03   -0.39100E-04   -0.10902E-03 54016   0.129E-01    0.270E-01
DAV:  14    -0.269864090725E+03    0.81743E-04   -0.11526E-03 53856   0.125E-01    0.178E-01
DAV:  15    -0.269864125099E+03   -0.34374E-04   -0.35751E-04 52200   0.711E-02    0.123E-01
DAV:  16    -0.269864174851E+03   -0.49752E-04   -0.41135E-04 45632   0.556E-02    0.688E-02
DAV:  17    -0.269864207066E+03   -0.32215E-04   -0.10826E-04 33472   0.326E-02    0.634E-02
DAV:  18    -0.269864210257E+03   -0.31915E-05   -0.23764E-05 27296   0.159E-02
  45 F= -.26986421E+03 E0= -.26985494E+03  d E =0.287140E+00  mag=     4.0000
       N       E                     dE             d eps       ncg     rms          rms(c)
DAV:   1    -0.269916149540E+03   -0.51942E-01   -0.46007E+01 40320   0.270E+01    0.521E+00
DAV:   2    -0.270177053845E+03   -0.26090E+00   -0.29950E+00 46400   0.594E+00    0.692E+00
DAV:   3    -0.270324460001E+03   -0.14741E+00   -0.34196E+00 54008   0.366E+00    0.103E+01
DAV:   4    -0.270171063334E+03    0.15340E+00   -0.14463E+00 54080   0.257E+00    0.881E+00
DAV:   5    -0.270081040089E+03    0.90023E-01   -0.68101E-01 54088   0.150E+00    0.250E+00
DAV:   6    -0.270084134283E+03   -0.30942E-02   -0.52819E-02 54416   0.119E+00    0.156E+00
DAV:   7    -0.270094757559E+03   -0.10623E-01   -0.15043E-01 54384   0.109E+00    0.290E+00
DAV:   8    -0.270088102061E+03    0.66555E-02   -0.21397E-01 53936   0.985E-01    0.233E+00
DAV:   9    -0.270085682382E+03    0.24197E-02   -0.38967E-02 53296   0.522E-01    0.110E+00
DAV:  10    -0.270087667874E+03   -0.19855E-02   -0.64232E-03 53400   0.206E-01    0.103E+00
DAV:  11    -0.270088538952E+03   -0.87108E-03   -0.49177E-03 54032   0.208E-01    0.122E+00
DAV:  12    -0.270087227928E+03    0.13110E-02   -0.41721E-03 54000   0.264E-01    0.898E-01
DAV:  13    -0.270086585502E+03    0.64243E-03   -0.80994E-03 53736   0.256E-01    0.337E-01
DAV:  14    -0.270087304424E+03   -0.71892E-03   -0.11859E-03 46672   0.123E-01    0.304E-01
DAV:  15    -0.270087422713E+03   -0.11829E-03   -0.11201E-03 53928   0.110E-01    0.199E-01
DAV:  16    -0.270087432943E+03   -0.10229E-04   -0.41767E-04 53568   0.746E-02    0.826E-02
DAV:  17    -0.270087440238E+03   -0.72958E-05   -0.13791E-04 40688   0.392E-02    0.699E-02
DAV:  18    -0.270087445917E+03   -0.56790E-05   -0.69001E-05 33528   0.267E-02
  46 F= -.27008745E+03 E0= -.27007767E+03  d E =-.223236E+00  mag=     4.0000
       N       E                     dE             d eps       ncg     rms          rms(c)
DAV:   1    -0.270136436237E+03   -0.48996E-01   -0.29279E+00 40320   0.644E+00    0.137E+00
DAV:   2    -0.270151308448E+03   -0.14872E-01   -0.17465E-01 47824   0.148E+00    0.160E+00
DAV:   3    -0.270167686425E+03   -0.16378E-01   -0.19240E-01 54112   0.966E-01    0.405E+00
DAV:   4    -0.270143146459E+03    0.24540E-01   -0.12403E-01 52184   0.755E-01    0.918E-01
DAV:   5    -0.270148115445E+03   -0.49690E-02   -0.38262E-02 52888   0.393E-01    0.124E+00
DAV:   6    -0.270145704294E+03    0.24112E-02   -0.14133E-02 54120   0.340E-01    0.367E-01
DAV:   7    -0.270146635430E+03   -0.93114E-03   -0.98621E-03 54272   0.247E-01    0.679E-01
DAV:   8    -0.270145685337E+03    0.95009E-03   -0.55072E-03 54256   0.209E-01    0.195E-01
DAV:   9    -0.270145868191E+03   -0.18285E-03   -0.67562E-04 52520   0.672E-02    0.158E-01
DAV:  10    -0.270145885096E+03   -0.16905E-04   -0.15786E-04 34648   0.354E-02    0.138E-01
DAV:  11    -0.270145878840E+03    0.62561E-05   -0.21134E-04 40456   0.371E-02    0.105E-01
DAV:  12    -0.270145882836E+03   -0.39965E-05   -0.72121E-05 32616   0.263E-02
  47 F= -.27014588E+03 E0= -.27013615E+03  d E =-.584369E-01  mag=     4.0000
       N       E                     dE             d eps       ncg     rms          rms(c)
DAV:   1    -0.270128692660E+03    0.17186E-01   -0.38423E+00 40320   0.717E+00    0.138E+00
DAV:   2    -0.270144902663E+03   -0.16210E-01   -0.19274E-01 46832   0.154E+00    0.136E+00
DAV:   3    -0.270165520246E+03   -0.20618E-01   -0.19026E-01 54336   0.969E-01    0.439E+00
DAV:   4    -0.270136408984E+03    0.29111E-01   -0.14303E-01 52160   0.775E-01    0.465E-01
DAV:   5    -0.270142886850E+03   -0.64779E-02   -0.21963E-02 52464   0.402E-01    0.116E+00
DAV:   6    -0.270140334148E+03    0.25527E-02   -0.18923E-02 54168   0.341E-01    0.311E-01
DAV:   7    -0.270140668818E+03   -0.33467E-03   -0.28727E-03 54264   0.196E-01    0.423E-01
DAV:   8    -0.270140611956E+03    0.56862E-04   -0.43965E-03 54360   0.134E-01    0.397E-01
DAV:   9    -0.270140587345E+03    0.24612E-04   -0.11296E-03 52904   0.839E-02    0.192E-01
DAV:  10    -0.270140616454E+03   -0.29110E-04   -0.87462E-05 32760   0.289E-02    0.178E-01
DAV:  11    -0.270140609969E+03    0.64855E-05   -0.64179E-05 31904   0.260E-02
  48 F= -.27014061E+03 E0= -.27013079E+03  d E =0.527287E-02  mag=     4.0000
       N       E                     dE             d eps       ncg     rms          rms(c)
DAV:   1    -0.270150051061E+03   -0.94346E-02   -0.64969E-01 40320   0.307E+00    0.680E-01
DAV:   2    -0.270158389650E+03   -0.83386E-02   -0.71652E-02 49800   0.796E-01    0.210E+00
DAV:   3    -0.270152527199E+03    0.58625E-02   -0.63429E-02 52760   0.561E-01    0.100E+00
DAV:   4    -0.270154048811E+03   -0.15216E-02   -0.18474E-02 52152   0.329E-01    0.111E+00
DAV:   5    -0.270152024346E+03    0.20245E-02   -0.15780E-02 53856   0.266E-01    0.362E-01
DAV:   6    -0.270152578940E+03   -0.55459E-03   -0.48366E-03 52816   0.175E-01    0.516E-01
DAV:   7    -0.270152046714E+03    0.53223E-03   -0.36830E-03 53784   0.153E-01    0.185E-01
DAV:   8    -0.270152039904E+03    0.68102E-05   -0.53119E-04 54392   0.898E-02    0.948E-02
DAV:   9    -0.270152109424E+03   -0.69521E-04   -0.48318E-04 38392   0.492E-02    0.894E-02
DAV:  10    -0.270152137440E+03   -0.28016E-04   -0.14998E-04 34848   0.315E-02    0.756E-02
DAV:  11    -0.270152142338E+03   -0.48983E-05   -0.68037E-05 33152   0.253E-02
  49 F= -.27015214E+03 E0= -.27014232E+03  d E =-.115324E-01  mag=     4.0000
       N       E                     dE             d eps       ncg     rms          rms(c)
DAV:   1    -0.270150345305E+03    0.17921E-02   -0.34463E-01 39312   0.248E+00    0.196E-01
DAV:   2    -0.270152025487E+03   -0.16802E-02   -0.18925E-02 41864   0.451E-01    0.265E-01
DAV:   3    -0.270152210406E+03   -0.18492E-03   -0.40984E-03 55152   0.140E-01    0.441E-01
DAV:   4    -0.270151939937E+03    0.27047E-03   -0.22179E-03 54728   0.102E-01    0.208E-01
DAV:   5    -0.270151923045E+03    0.16891E-04   -0.67163E-04 40032   0.605E-02    0.123E-01
DAV:   6    -0.270152007293E+03   -0.84248E-04   -0.73062E-04 47392   0.632E-02    0.266E-01
DAV:   7    -0.270151877303E+03    0.12999E-03   -0.67966E-04 50064   0.653E-02    0.887E-02
DAV:   8    -0.270151883297E+03   -0.59941E-05   -0.92044E-05 30712   0.305E-02
  50 F= -.27015188E+03 E0= -.27014197E+03  d E =0.259041E-03  mag=     4.0000
       N       E                     dE             d eps       ncg     rms          rms(c)
DAV:   1    -0.270120627620E+03    0.31250E-01   -0.59020E+00 40320   0.991E+00    0.666E-01
DAV:   2    -0.270145742274E+03   -0.25115E-01   -0.28331E-01 41184   0.175E+00    0.864E-01
DAV:   3    -0.270147990257E+03   -0.22480E-02   -0.47218E-02 56312   0.480E-01    0.146E+00
DAV:   4    -0.270144642735E+03    0.33475E-02   -0.24586E-02 55008   0.360E-01    0.660E-01
DAV:   5    -0.270144486598E+03    0.15614E-03   -0.70329E-03 54248   0.199E-01    0.401E-01
DAV:   6    -0.270144057926E+03    0.42867E-03   -0.39765E-03 55712   0.199E-01    0.423E-01
DAV:   7    -0.270144337734E+03   -0.27981E-03   -0.59274E-03 53960   0.160E-01    0.639E-01
DAV:   8    -0.270143763417E+03    0.57432E-03   -0.28715E-03 53768   0.137E-01    0.110E-01
DAV:   9    -0.270144054450E+03   -0.29103E-03   -0.72624E-04 49904   0.549E-02    0.151E-01
DAV:  10    -0.270144082579E+03   -0.28129E-04   -0.13833E-04 39976   0.394E-02    0.135E-01
DAV:  11    -0.270144083084E+03   -0.50455E-06   -0.53319E-05 35472   0.258E-02
  51 F= -.27014408E+03 E0= -.27013411E+03  d E =0.780021E-02  mag=     4.0000
       N       E                     dE             d eps       ncg     rms          rms(c)
DAV:   1    -0.270123841264E+03    0.20241E-01   -0.31398E+00 40320   0.696E+00    0.435E-01
DAV:   2    -0.270136201304E+03   -0.12360E-01   -0.13593E-01 40456   0.121E+00    0.815E-01
DAV:   3    -0.270136039691E+03    0.16161E-03   -0.20822E-02 56184   0.319E-01    0.741E-01
DAV:   4    -0.270135202657E+03    0.83703E-03   -0.56791E-03 54080   0.193E-01    0.356E-01
DAV:   5    -0.270135427070E+03   -0.22441E-03   -0.42782E-03 54816   0.135E-01    0.512E-01
DAV:   6    -0.270134967520E+03    0.45955E-03   -0.20560E-03 55512   0.145E-01    0.220E-01
DAV:   7    -0.270135101284E+03   -0.13376E-03   -0.18434E-03 53952   0.110E-01    0.305E-01
DAV:   8    -0.270134937034E+03    0.16425E-03   -0.89000E-04 53592   0.841E-02    0.827E-02
DAV:   9    -0.270134965324E+03   -0.28289E-04   -0.31154E-04 47704   0.465E-02    0.806E-02
DAV:  10    -0.270134977312E+03   -0.11988E-04   -0.64497E-05 29288   0.268E-02    0.639E-02
DAV:  11    -0.270134978525E+03   -0.12135E-05   -0.29263E-05 26448   0.180E-02
  52 F= -.27013498E+03 E0= -.27012496E+03  d E =0.910456E-02  mag=     4.0000
       N       E                     dE             d eps       ncg     rms          rms(c)
DAV:   1    -0.270086953019E+03    0.48024E-01   -0.94456E+00 40320   0.114E+01    0.730E-01
DAV:   2    -0.270118639190E+03   -0.31686E-01   -0.34589E-01 40328   0.193E+00    0.107E+00
DAV:   3    -0.270121005788E+03   -0.23666E-02   -0.49853E-02 55520   0.535E-01    0.174E+00
DAV:   4    -0.270116283957E+03    0.47218E-02   -0.22916E-02 54720   0.366E-01    0.582E-01
DAV:   5    -0.270116985050E+03   -0.70109E-03   -0.86116E-03 54264   0.220E-01    0.682E-01
DAV:   6    -0.270117038849E+03   -0.53799E-04   -0.10707E-02 54408   0.228E-01    0.896E-01
DAV:   7    -0.270115787965E+03    0.12509E-02   -0.14588E-02 55328   0.248E-01    0.514E-01
DAV:   8    -0.270115613696E+03    0.17427E-03   -0.41947E-03 53160   0.155E-01    0.179E-01
DAV:   9    -0.270115983754E+03   -0.37006E-03   -0.12607E-03 54824   0.814E-02    0.226E-01
DAV:  10    -0.270116014516E+03   -0.30761E-04   -0.28595E-04 51944   0.660E-02    0.194E-01
DAV:  11    -0.270116019016E+03   -0.44998E-05   -0.17452E-04 47160   0.540E-02    0.128E-01
DAV:  12    -0.270116011954E+03    0.70616E-05   -0.14066E-04 49184   0.556E-02    0.551E-02
DAV:  13    -0.270116018780E+03   -0.68262E-05   -0.51407E-05 34040   0.297E-02
  53 F= -.27011602E+03 E0= -.27010576E+03  d E =0.189597E-01  mag=     4.0000
       N       E                     dE             d eps       ncg     rms          rms(c)
DAV:   1    -0.270115341474E+03    0.67048E-03   -0.44644E-01 39312   0.241E+00    0.222E-01
DAV:   2    -0.270116761465E+03   -0.14200E-02   -0.15319E-02 42440   0.408E-01    0.290E-01
DAV:   3    -0.270117215378E+03   -0.45391E-03   -0.68922E-03 54224   0.178E-01    0.670E-01
DAV:   4    -0.270116565675E+03    0.64970E-03   -0.34288E-03 53264   0.128E-01    0.241E-01
DAV:   5    -0.270116586183E+03   -0.20508E-04   -0.73216E-04 48792   0.691E-02    0.842E-02
DAV:   6    -0.270116579955E+03    0.62286E-05   -0.14674E-04 49448   0.461E-02    0.770E-02
DAV:   7    -0.270116616745E+03   -0.36790E-04   -0.46035E-04 34152   0.446E-02    0.192E-01
DAV:   8    -0.270116553290E+03    0.63455E-04   -0.27973E-04 32632   0.449E-02    0.343E-02
DAV:   9    -0.270116572365E+03   -0.19075E-04   -0.73460E-05 28304   0.232E-02    0.369E-02
DAV:  10    -0.270116578818E+03   -0.64534E-05   -0.19535E-05 23720   0.142E-02
  54 F= -.27011658E+03 E0= -.27010629E+03  d E =-.560038E-03  mag=     4.0000
       N       E                     dE             d eps       ncg     rms          rms(c)
DAV:   1    -0.270119943876E+03   -0.33715E-02   -0.23554E-01 40336   0.195E+00    0.138E-01
DAV:   2    -0.270120850268E+03   -0.90639E-03   -0.10226E-02 41592   0.336E-01    0.128E-01
DAV:   3    -0.270121048211E+03   -0.19794E-03   -0.17069E-03 54480   0.966E-02    0.408E-01
DAV:   4    -0.270120773002E+03    0.27521E-03   -0.10344E-03 50072   0.760E-02    0.919E-02
DAV:   5    -0.270120848604E+03   -0.75601E-04   -0.38504E-04 33304   0.399E-02    0.191E-01
DAV:   6    -0.270120784854E+03    0.63749E-04   -0.20042E-04 41656   0.404E-02    0.848E-02
DAV:   7    -0.270120824500E+03   -0.39645E-04   -0.41150E-04 34328   0.480E-02    0.172E-01
DAV:   8    -0.270120771097E+03    0.53402E-04   -0.37811E-04 33696   0.498E-02    0.543E-02
DAV:   9    -0.270120798831E+03   -0.27734E-04   -0.89764E-05 28864   0.230E-02    0.615E-02
DAV:  10    -0.270120799451E+03   -0.61966E-06   -0.11578E-05 23616   0.150E-02
  55 F= -.27012080E+03 E0= -.27011053E+03  d E =-.422063E-02  mag=     4.0000
       N       E                     dE             d eps       ncg     rms          rms(c)
DAV:   1    -0.270119595167E+03    0.12037E-02   -0.32853E-01 40320   0.213E+00    0.153E-01
DAV:   2    -0.270120677897E+03   -0.10827E-02   -0.11430E-02 42344   0.351E-01    0.296E-01
DAV:   3    -0.270120737491E+03   -0.59594E-04   -0.31140E-03 54200   0.126E-01    0.372E-01
DAV:   4    -0.270120521748E+03    0.21574E-03   -0.78959E-04 51040   0.743E-02    0.949E-02
DAV:   5    -0.270120565928E+03   -0.44181E-04   -0.32340E-04 34976   0.373E-02    0.148E-01
DAV:   6    -0.270120517631E+03    0.48298E-04   -0.28041E-04 50640   0.492E-02    0.423E-02
DAV:   7    -0.270120543474E+03   -0.25843E-04   -0.19052E-04 33032   0.333E-02    0.105E-01
DAV:   8    -0.270120527279E+03    0.16195E-04   -0.12836E-04 30880   0.323E-02    0.508E-02
DAV:   9    -0.270120531115E+03   -0.38359E-05   -0.18240E-05 22632   0.123E-02
  56 F= -.27012053E+03 E0= -.27011028E+03  d E =0.268335E-03  mag=     4.0000
       N       E                     dE             d eps       ncg     rms          rms(c)
DAV:   1    -0.270093569782E+03    0.26957E-01   -0.37296E+00 40320   0.719E+00    0.524E-01
DAV:   2    -0.270108451484E+03   -0.14882E-01   -0.15360E-01 40544   0.123E+00    0.146E+00
DAV:   3    -0.270106553623E+03    0.18979E-02   -0.45486E-02 54552   0.473E-01    0.970E-01
DAV:   4    -0.270105580118E+03    0.97351E-03   -0.75344E-03 52072   0.232E-01    0.405E-01
DAV:   5    -0.270105698674E+03   -0.11856E-03   -0.40249E-03 54360   0.139E-01    0.421E-01
DAV:   6    -0.270105456990E+03    0.24168E-03   -0.18629E-03 54384   0.132E-01    0.283E-01
DAV:   7    -0.270105410188E+03    0.46803E-04   -0.22652E-03 54720   0.114E-01    0.254E-01
DAV:   8    -0.270105295199E+03    0.11499E-03   -0.59443E-04 54144   0.863E-02    0.108E-01
DAV:   9    -0.270105335357E+03   -0.40158E-04   -0.45695E-04 38112   0.517E-02    0.844E-02
DAV:  10    -0.270105373899E+03   -0.38542E-04   -0.11322E-04 32272   0.347E-02    0.848E-02
DAV:  11    -0.270105376184E+03   -0.22846E-05   -0.42807E-05 31536   0.234E-02
  57 F= -.27010538E+03 E0= -.27009501E+03  d E =0.151549E-01  mag=     4.0000
       N       E                     dE             d eps       ncg     rms          rms(c)
DAV:   1    -0.270013751238E+03    0.91623E-01   -0.16860E+01 40312   0.153E+01    0.110E+00
DAV:   2    -0.270072493077E+03   -0.58742E-01   -0.64329E-01 40280   0.253E+00    0.129E+00
DAV:   3    -0.270084157214E+03   -0.11664E-01   -0.13994E-01 54800   0.846E-01    0.331E+00
DAV:   4    -0.270066536264E+03    0.17621E-01   -0.81378E-02 54656   0.622E-01    0.605E-01
DAV:   5    -0.270071189286E+03   -0.46530E-02   -0.27538E-02 53240   0.316E-01    0.144E+00
DAV:   6    -0.270067544466E+03    0.36448E-02   -0.12541E-02 55680   0.319E-01    0.347E-01
DAV:   7    -0.270067796362E+03   -0.25190E-03   -0.15361E-03 54136   0.189E-01    0.220E-01
DAV:   8    -0.270068413256E+03   -0.61689E-03   -0.46182E-03 53880   0.159E-01    0.458E-01
DAV:   9    -0.270068225134E+03    0.18812E-03   -0.31578E-03 53032   0.132E-01    0.283E-01
DAV:  10    -0.270068279874E+03   -0.54740E-04   -0.38272E-04 50552   0.684E-02    0.221E-01
DAV:  11    -0.270068314692E+03   -0.34818E-04   -0.24539E-04 53592   0.574E-02    0.172E-01
DAV:  12    -0.270068290785E+03    0.23907E-04   -0.19287E-04 50864   0.623E-02    0.844E-02
DAV:  13    -0.270068291664E+03   -0.87860E-06   -0.10450E-04 45792   0.372E-02    0.534E-02
DAV:  14    -0.270068298715E+03   -0.70514E-05   -0.36939E-05 28856   0.214E-02
  58 F= -.27006830E+03 E0= -.27005782E+03  d E =0.370775E-01  mag=     4.0000
       N       E                     dE             d eps       ncg     rms          rms(c)
DAV:   1    -0.270062561569E+03    0.57301E-02   -0.16183E+00 40352   0.522E+00    0.645E-01
DAV:   2    -0.270070491667E+03   -0.79301E-02   -0.86552E-02 42464   0.986E-01    0.106E+00
DAV:   3    -0.270071590307E+03   -0.10986E-02   -0.50936E-02 54584   0.464E-01    0.143E+00
DAV:   4    -0.270068755450E+03    0.28349E-02   -0.21624E-02 54568   0.311E-01    0.607E-01
DAV:   5    -0.270068728697E+03    0.26752E-04   -0.50998E-03 54104   0.160E-01    0.315E-01
DAV:   6    -0.270069036899E+03   -0.30820E-03   -0.32519E-03 54416   0.136E-01    0.501E-01
DAV:   7    -0.270068522525E+03    0.51437E-03   -0.23931E-03 54432   0.126E-01    0.143E-01
DAV:   8    -0.270068541906E+03   -0.19381E-04   -0.21203E-04 51928   0.538E-02    0.998E-02
DAV:   9    -0.270068569302E+03   -0.27397E-04   -0.37126E-04 34904   0.421E-02    0.708E-02
DAV:  10    -0.270068607727E+03   -0.38424E-04   -0.16106E-04 33736   0.396E-02    0.701E-02
DAV:  11    -0.270068615326E+03   -0.75989E-05   -0.58838E-05 34600   0.301E-02
  59 F= -.27006862E+03 E0= -.27005821E+03  d E =-.316610E-03  mag=     4.0000
       N       E                     dE             d eps       ncg     rms          rms(c)
DAV:   1    -0.270074244550E+03   -0.56368E-02   -0.15519E+00 40320   0.468E+00    0.402E-01
DAV:   2    -0.270079374976E+03   -0.51304E-02   -0.56862E-02 42176   0.788E-01    0.404E-01
DAV:   3    -0.270081697082E+03   -0.23221E-02   -0.23083E-02 54504   0.314E-01    0.145E+00
DAV:   4    -0.270078361590E+03    0.33355E-02   -0.13919E-02 53768   0.247E-01    0.172E-01
DAV:   5    -0.270079292036E+03   -0.93045E-03   -0.29789E-03 53384   0.121E-01    0.477E-01
DAV:   6    -0.270078941469E+03    0.35057E-03   -0.22990E-03 54840   0.112E-01    0.200E-01
DAV:   7    -0.270078981417E+03   -0.39948E-04   -0.10896E-03 53264   0.796E-02    0.168E-01
DAV:   8    -0.270078964396E+03    0.17021E-04   -0.34661E-04 36504   0.503E-02    0.978E-02
DAV:   9    -0.270078979450E+03   -0.15054E-04   -0.10189E-04 32792   0.291E-02    0.786E-02
DAV:  10    -0.270078980643E+03   -0.11932E-05   -0.17314E-05 24248   0.167E-02
  60 F= -.27007898E+03 E0= -.27006854E+03  d E =-.103653E-01  mag=     4.0000
       N       E                     dE             d eps       ncg     rms          rms(c)
DAV:   1    -0.270066457081E+03    0.12522E-01   -0.10966E+00 39312   0.385E+00    0.258E-01
DAV:   2    -0.270070594613E+03   -0.41375E-02   -0.43327E-02 40704   0.645E-01    0.650E-01
DAV:   3    -0.270070233100E+03    0.36151E-03   -0.78432E-03 55568   0.221E-01    0.443E-01
DAV:   4    -0.270070075208E+03    0.15789E-03   -0.20090E-03 53616   0.116E-01    0.307E-01
DAV:   5    -0.270069979976E+03    0.95232E-04   -0.14156E-03 53816   0.768E-02    0.160E-01
DAV:   6    -0.270070030477E+03   -0.50501E-04   -0.93598E-04 53280   0.772E-02    0.250E-01
DAV:   7    -0.270069895173E+03    0.13530E-03   -0.84197E-04 52368   0.706E-02    0.765E-02
DAV:   8    -0.270069912236E+03   -0.17063E-04   -0.15535E-04 32120   0.327E-02    0.683E-02
DAV:   9    -0.270069932047E+03   -0.19810E-04   -0.12350E-04 29832   0.254E-02    0.611E-02
DAV:  10    -0.270069936364E+03   -0.43172E-05   -0.29281E-05 29152   0.212E-02
  61 F= -.27006994E+03 E0= -.27005945E+03  d E =0.904428E-02  mag=     4.0000
       N       E                     dE             d eps       ncg     rms          rms(c)
DAV:   1    -0.270054210960E+03    0.15721E-01   -0.20111E+00 40320   0.514E+00    0.341E-01
DAV:   2    -0.270060743347E+03   -0.65324E-02   -0.69870E-02 40712   0.846E-01    0.640E-01
DAV:   3    -0.270061146562E+03   -0.40321E-03   -0.16110E-02 54760   0.291E-01    0.885E-01
DAV:   4    -0.270060214789E+03    0.93177E-03   -0.69957E-03 53856   0.191E-01    0.438E-01
DAV:   5    -0.270060061281E+03    0.15351E-03   -0.28513E-03 53512   0.128E-01    0.160E-01
DAV:   6    -0.270060483737E+03   -0.42246E-03   -0.33612E-03 53936   0.118E-01    0.564E-01
DAV:   7    -0.270059908894E+03    0.57484E-03   -0.26830E-03 55216   0.115E-01    0.652E-02
DAV:   8    -0.270060010941E+03   -0.10205E-03   -0.99043E-05 41496   0.388E-02    0.372E-02
DAV:   9    -0.270060018587E+03   -0.76459E-05   -0.34680E-05 26936   0.190E-02
  62 F= -.27006002E+03 E0= -.27004951E+03  d E =0.991778E-02  mag=     4.0000
       N       E                     dE             d eps       ncg     rms          rms(c)
DAV:   1    -0.269906055882E+03    0.15396E+00   -0.42753E+01 40320   0.228E+01    0.140E+00
DAV:   2    -0.270028224893E+03   -0.12217E+00   -0.13082E+00 40632   0.370E+00    0.172E+00
DAV:   3    -0.270046342105E+03   -0.18117E-01   -0.23464E-01 54408   0.120E+00    0.410E+00
DAV:   4    -0.270019450040E+03    0.26892E-01   -0.13031E-01 55112   0.830E-01    0.140E+00
DAV:   5    -0.270020727851E+03   -0.12778E-02   -0.37892E-02 53744   0.448E-01    0.862E-01
DAV:   6    -0.270024334476E+03   -0.36066E-02   -0.46637E-02 54488   0.466E-01    0.204E+00
DAV:   7    -0.270017430281E+03    0.69042E-02   -0.39931E-02 53760   0.422E-01    0.378E-01
DAV:   8    -0.270018504047E+03   -0.10738E-02   -0.28782E-03 52712   0.252E-01    0.285E-01
DAV:   9    -0.270018817026E+03   -0.31298E-03   -0.28987E-03 54144   0.146E-01    0.250E-01
DAV:  10    -0.270018986603E+03   -0.16958E-03   -0.75704E-04 53304   0.837E-02    0.233E-01
DAV:  11    -0.270019014412E+03   -0.27809E-04   -0.39088E-04 53872   0.592E-02    0.201E-01
DAV:  12    -0.270018962577E+03    0.51835E-04   -0.28394E-04 51408   0.642E-02    0.122E-01
DAV:  13    -0.270018971643E+03   -0.90661E-05   -0.23500E-04 49640   0.532E-02    0.809E-02
DAV:  14    -0.270019015283E+03   -0.43640E-04   -0.13900E-04 32736   0.344E-02    0.631E-02
DAV:  15    -0.270019018945E+03   -0.36613E-05   -0.38499E-05 29864   0.239E-02
  63 F= -.27001902E+03 E0= -.27000841E+03  d E =0.409996E-01  mag=     4.0000
       N       E                     dE             d eps       ncg     rms          rms(c)
DAV:   1    -0.270020467029E+03   -0.14517E-02   -0.42268E+00 40320   0.862E+00    0.936E-01
DAV:   2    -0.270044128671E+03   -0.23662E-01   -0.24489E-01 42576   0.157E+00    0.201E+00
DAV:   3    -0.270043648517E+03    0.48015E-03   -0.13381E-01 53592   0.799E-01    0.212E+00
DAV:   4    -0.270040821493E+03    0.28270E-02   -0.51204E-02 52992   0.505E-01    0.147E+00
DAV:   5    -0.270037598880E+03    0.32226E-02   -0.22276E-02 54320   0.357E-01    0.508E-01
DAV:   6    -0.270038707033E+03   -0.11082E-02   -0.88646E-03 54264   0.198E-01    0.823E-01
DAV:   7    -0.270037507723E+03    0.11993E-02   -0.47175E-03 53792   0.184E-01    0.294E-01
DAV:   8    -0.270037539352E+03   -0.31629E-04   -0.14255E-03 54520   0.131E-01    0.153E-01
DAV:   9    -0.270037836730E+03   -0.29738E-03   -0.15647E-03 53392   0.102E-01    0.216E-01
DAV:  10    -0.270037900441E+03   -0.63710E-04   -0.33115E-04 47816   0.610E-02    0.179E-01
DAV:  11    -0.270037907071E+03   -0.66309E-05   -0.18867E-04 44760   0.465E-02    0.131E-01
DAV:  12    -0.270037901190E+03    0.58816E-05   -0.15680E-04 47512   0.511E-02    0.738E-02
DAV:  13    -0.270037901847E+03   -0.65753E-06   -0.88074E-05 36960   0.343E-02
  64 F= -.27003790E+03 E0= -.27002724E+03  d E =-.188829E-01  mag=     4.0000
       N       E                     dE             d eps       ncg     rms          rms(c)
DAV:   1    -0.270041581109E+03   -0.36799E-02   -0.15968E+00 40320   0.420E+00    0.514E-01
DAV:   2    -0.270049326623E+03   -0.77455E-02   -0.71411E-02 46392   0.778E-01    0.169E+00
DAV:   3    -0.270046395152E+03    0.29315E-02   -0.50643E-02 52656   0.486E-01    0.105E+00
DAV:   4    -0.270045393336E+03    0.10018E-02   -0.72482E-03 49760   0.221E-01    0.245E-01
DAV:   5    -0.270045732051E+03   -0.33872E-03   -0.25545E-03 54416   0.117E-01    0.397E-01
DAV:   6    -0.270045512935E+03    0.21912E-03   -0.19415E-03 54472   0.105E-01    0.295E-01
DAV:   7    -0.270045451051E+03    0.61884E-04   -0.15033E-03 53616   0.897E-02    0.222E-01
DAV:   8    -0.270045409973E+03    0.41079E-04   -0.70110E-04 49616   0.644E-02    0.101E-01
DAV:   9    -0.270045475345E+03   -0.65372E-04   -0.25518E-04 32096   0.349E-02    0.846E-02
DAV:  10    -0.270045484458E+03   -0.91135E-05   -0.72762E-05 33160   0.287E-02
  65 F= -.27004548E+03 E0= -.27003487E+03  d E =-.758261E-02  mag=     4.0000
       N       E                     dE             d eps       ncg     rms          rms(c)
DAV:   1    -0.270043171472E+03    0.23039E-02   -0.12893E-01 40320   0.134E+00    0.137E-01
DAV:   2    -0.270044151390E+03   -0.97992E-03   -0.82959E-03 47288   0.259E-01    0.697E-01
DAV:   3    -0.270043459207E+03    0.69218E-03   -0.55199E-03 51944   0.153E-01    0.182E-01
DAV:   4    -0.270043579272E+03   -0.12006E-03   -0.20974E-04 38720   0.533E-02    0.127E-01
DAV:   5    -0.270043564590E+03    0.14681E-04   -0.18974E-04 31456   0.319E-02    0.115E-01
DAV:   6    -0.270043557901E+03    0.66888E-05   -0.15476E-04 32552   0.332E-02    0.122E-01
DAV:   7    -0.270043538245E+03    0.19656E-04   -0.25053E-04 32600   0.406E-02    0.810E-02
DAV:   8    -0.270043541832E+03   -0.35866E-05   -0.15633E-04 31192   0.333E-02    0.531E-02
DAV:   9    -0.270043553549E+03   -0.11717E-04   -0.41319E-05 28176   0.239E-02    0.444E-02
DAV:  10    -0.270043553344E+03    0.20497E-06   -0.10834E-05 23712   0.112E-02
  66 F= -.27004355E+03 E0= -.27003293E+03  d E =0.193111E-02  mag=     4.0000
       N       E                     dE             d eps       ncg     rms          rms(c)
DAV:   1    -0.270032158597E+03    0.11395E-01   -0.16693E+00 40320   0.457E+00    0.250E-01
DAV:   2    -0.270036809062E+03   -0.46505E-02   -0.49821E-02 40296   0.731E-01    0.298E-01
DAV:   3    -0.270037365604E+03   -0.55654E-03   -0.75938E-03 54840   0.209E-01    0.691E-01
DAV:   4    -0.270036533964E+03    0.83164E-03   -0.40128E-03 54960   0.147E-01    0.214E-01
DAV:   5    -0.270036606911E+03   -0.72947E-04   -0.10227E-03 52728   0.782E-02    0.169E-01
DAV:   6    -0.270036577686E+03    0.29225E-04   -0.86294E-04 54248   0.771E-02    0.260E-01
DAV:   7    -0.270036492673E+03    0.85013E-04   -0.88302E-04 50088   0.589E-02    0.128E-01
DAV:   8    -0.270036479601E+03    0.13072E-04   -0.11447E-04 38480   0.406E-02    0.580E-02
DAV:   9    -0.270036499136E+03   -0.19535E-04   -0.18760E-04 34392   0.277E-02    0.577E-02
DAV:  10    -0.270036514194E+03   -0.15059E-04   -0.61612E-05 30536   0.303E-02    0.569E-02
DAV:  11    -0.270036516809E+03   -0.26144E-05   -0.26889E-05 26824   0.210E-02
  67 F= -.27003652E+03 E0= -.27002587E+03  d E =0.703653E-02  mag=     4.0000
       N       E                     dE             d eps       ncg     rms          rms(c)
DAV:   1    -0.269799117131E+03    0.23740E+00   -0.66435E+01 40320   0.287E+01    0.167E+00
DAV:   2    -0.269995103169E+03   -0.19599E+00   -0.20906E+00 39880   0.466E+00    0.215E+00
DAV:   3    -0.270020530190E+03   -0.25427E-01   -0.44102E-01 54592   0.137E+00    0.486E+00
DAV:   4    -0.269981794815E+03    0.38735E-01   -0.18158E-01 55552   0.956E-01    0.158E+00
DAV:   5    -0.269985225774E+03   -0.34310E-02   -0.38775E-02 54680   0.447E-01    0.126E+00
DAV:   6    -0.269984232684E+03    0.99309E-03   -0.26040E-02 54216   0.475E-01    0.121E+00
DAV:   7    -0.269982430262E+03    0.18024E-02   -0.33275E-02 54168   0.430E-01    0.992E-01
DAV:   8    -0.269980364708E+03    0.20656E-02   -0.92215E-03 54232   0.358E-01    0.433E-01
DAV:   9    -0.269981351478E+03   -0.98677E-03   -0.10833E-02 54600   0.241E-01    0.411E-01
DAV:  10    -0.269982070886E+03   -0.71941E-03   -0.27110E-03 52624   0.155E-01    0.412E-01
DAV:  11    -0.269982196577E+03   -0.12569E-03   -0.10349E-03 54280   0.104E-01    0.382E-01
DAV:  12    -0.269982112420E+03    0.84157E-04   -0.86235E-04 54064   0.109E-01    0.198E-01
DAV:  13    -0.269982124385E+03   -0.11965E-04   -0.47809E-04 54160   0.918E-02    0.898E-02
DAV:  14    -0.269982182995E+03   -0.58609E-04   -0.28828E-04 52464   0.554E-02    0.140E-01
DAV:  15    -0.269982152313E+03    0.30682E-04   -0.13014E-04 33560   0.363E-02    0.506E-02
DAV:  16    -0.269982162857E+03   -0.10544E-04   -0.63160E-05 32904   0.215E-02    0.229E-02
DAV:  17    -0.269982166467E+03   -0.36097E-05   -0.93102E-06 23224   0.139E-02
  68 F= -.26998217E+03 E0= -.26997145E+03  d E =0.543503E-01  mag=     4.0000
       N       E                     dE             d eps       ncg     rms          rms(c)
DAV:   1    -0.269980862689E+03    0.13002E-02   -0.17754E+00 40320   0.529E+00    0.936E-01
DAV:   2    -0.269990673305E+03   -0.98106E-02   -0.10752E-01 47208   0.117E+00    0.135E+00
DAV:   3    -0.269994897731E+03   -0.42244E-02   -0.10738E-01 53240   0.621E-01    0.233E+00
DAV:   4    -0.269987046133E+03    0.78516E-02   -0.36935E-02 53576   0.494E-01    0.669E-01
DAV:   5    -0.269988310751E+03   -0.12646E-02   -0.16807E-02 53192   0.304E-01    0.761E-01
DAV:   6    -0.269987131017E+03    0.11797E-02   -0.64327E-03 54312   0.254E-01    0.203E-01
DAV:   7    -0.269987258365E+03   -0.12735E-03   -0.17482E-03 54408   0.139E-01    0.350E-01
DAV:   8    -0.269987221069E+03    0.37296E-04   -0.27425E-03 53848   0.111E-01    0.302E-01
DAV:   9    -0.269987206841E+03    0.14228E-04   -0.91062E-04 44560   0.676E-02    0.129E-01
DAV:  10    -0.269987234573E+03   -0.27731E-04   -0.93204E-05 34112   0.312E-02    0.116E-01
DAV:  11    -0.269987225045E+03    0.95274E-05   -0.16509E-04 40520   0.378E-02    0.836E-02
DAV:  12    -0.269987234292E+03   -0.92467E-05   -0.82758E-05 30848   0.223E-02
  69 F= -.26998723E+03 E0= -.26997650E+03  d E =-.506782E-02  mag=     4.0000
       N       E                     dE             d eps       ncg     rms          rms(c)
DAV:   1    -0.269981731273E+03    0.54938E-02   -0.10616E+01 39312   0.113E+01    0.764E-01
DAV:   2    -0.270012889450E+03   -0.31158E-01   -0.33004E-01 40424   0.187E+00    0.117E+00
DAV:   3    -0.270017383227E+03   -0.44938E-02   -0.73398E-02 54264   0.614E-01    0.234E+00
DAV:   4    -0.270009538674E+03    0.78446E-02   -0.35374E-02 54704   0.425E-01    0.667E-01
DAV:   5    -0.270010813615E+03   -0.12749E-02   -0.11776E-02 52904   0.229E-01    0.720E-01
DAV:   6    -0.270010543054E+03    0.27056E-03   -0.81403E-03 54432   0.232E-01    0.639E-01
DAV:   7    -0.270009956727E+03    0.58633E-03   -0.77216E-03 54104   0.201E-01    0.381E-01
DAV:   8    -0.270009645832E+03    0.31089E-03   -0.12567E-03 54360   0.154E-01    0.202E-01
DAV:   9    -0.270009797444E+03   -0.15161E-03   -0.19342E-03 54272   0.920E-02    0.168E-01
DAV:  10    -0.270009953466E+03   -0.15602E-03   -0.59540E-04 50240   0.673E-02    0.165E-01
DAV:  11    -0.270009985723E+03   -0.32257E-04   -0.21244E-04 48344   0.466E-02    0.146E-01
DAV:  12    -0.270009987986E+03   -0.22628E-05   -0.11733E-04 39264   0.439E-02    0.104E-01
DAV:  13    -0.270009988758E+03   -0.77210E-06   -0.10157E-04 46072   0.410E-02    0.708E-02
DAV:  14    -0.270009996819E+03   -0.80610E-05   -0.47263E-05 30704   0.234E-02
  70 F= -.27001000E+03 E0= -.26999928E+03  d E =-.227625E-01  mag=     4.0000
       N       E                     dE             d eps       ncg     rms          rms(c)
DAV:   1    -0.270013155697E+03   -0.31669E-02   -0.30687E+00 39312   0.622E+00    0.368E-01
DAV:   2    -0.270023013907E+03   -0.98582E-02   -0.10413E-01 40408   0.101E+00    0.900E-01
DAV:   3    -0.270022680770E+03    0.33314E-03   -0.22244E-02 54128   0.324E-01    0.774E-01
DAV:   4    -0.270022020385E+03    0.66038E-03   -0.49689E-03 54416   0.186E-01    0.378E-01
DAV:   5    -0.270021884992E+03    0.13539E-03   -0.24793E-03 54256   0.123E-01    0.211E-01
DAV:   6    -0.270021975929E+03   -0.90937E-04   -0.21199E-03 56120   0.119E-01    0.441E-01
DAV:   7    -0.270021664910E+03    0.31102E-03   -0.22909E-03 54408   0.103E-01    0.123E-01
DAV:   8    -0.270021725063E+03   -0.60153E-04   -0.23294E-04 40424   0.488E-02    0.803E-02
DAV:   9    -0.270021751267E+03   -0.26204E-04   -0.17041E-04 33216   0.308E-02    0.687E-02
DAV:  10    -0.270021761860E+03   -0.10593E-04   -0.38923E-05 29296   0.226E-02    0.679E-02
DAV:  11    -0.270021764217E+03   -0.23575E-05   -0.23668E-05 26432   0.175E-02
  71 F= -.27002176E+03 E0= -.27001105E+03  d E =-.117674E-01  mag=     4.0000
       N       E                     dE             d eps       ncg     rms          rms(c)
DAV:   1    -0.270003331437E+03    0.18430E-01   -0.10603E+01 39312   0.119E+01    0.104E+00
DAV:   2    -0.270043589813E+03   -0.40258E-01   -0.42211E-01 41552   0.204E+00    0.188E+00
DAV:   3    -0.270048287757E+03   -0.46979E-02   -0.14235E-01 54072   0.860E-01    0.272E+00
DAV:   4    -0.270040103026E+03    0.81847E-02   -0.65702E-02 53904   0.555E-01    0.167E+00
DAV:   5    -0.270037683818E+03    0.24192E-02   -0.29780E-02 53240   0.340E-01    0.519E-01
DAV:   6    -0.270039844824E+03   -0.21610E-02   -0.15027E-02 54432   0.295E-01    0.107E+00
DAV:   7    -0.270037455597E+03    0.23892E-02   -0.15000E-02 55816   0.287E-01    0.292E-01
DAV:   8    -0.270037819877E+03   -0.36428E-03   -0.17850E-03 54216   0.123E-01    0.273E-01
DAV:   9    -0.270037977619E+03   -0.15774E-03   -0.12120E-03 53456   0.897E-02    0.229E-01
DAV:  10    -0.270038020254E+03   -0.42634E-04   -0.26401E-04 46632   0.555E-02    0.205E-01
DAV:  11    -0.270038035039E+03   -0.14786E-04   -0.29478E-04 50872   0.552E-02    0.188E-01
DAV:  12    -0.270038013321E+03    0.21718E-04   -0.13034E-04 35664   0.394E-02    0.117E-01
DAV:  13    -0.270038015311E+03   -0.19894E-05   -0.11713E-04 44680   0.356E-02    0.607E-02
DAV:  14    -0.270038021774E+03   -0.64637E-05   -0.56628E-05 30304   0.240E-02
  72 F= -.27003802E+03 E0= -.27002746E+03  d E =-.162576E-01  mag=     4.0000
       N       E                     dE             d eps       ncg     rms          rms(c)
DAV:   1    -0.269990903433E+03    0.47112E-01   -0.99936E+00 39312   0.115E+01    0.988E-01
DAV:   2    -0.270028775185E+03   -0.37872E-01   -0.39363E-01 41464   0.198E+00    0.186E+00
DAV:   3    -0.270031381913E+03   -0.26067E-02   -0.11526E-01 53968   0.821E-01    0.243E+00
DAV:   4    -0.270023379635E+03    0.80023E-02   -0.43506E-02 53296   0.507E-01    0.101E+00
DAV:   5    -0.270023439297E+03   -0.59662E-04   -0.17698E-02 53360   0.278E-01    0.608E-01
DAV:   6    -0.270024691161E+03   -0.12519E-02   -0.15396E-02 53736   0.262E-01    0.997E-01
DAV:   7    -0.270022573150E+03    0.21180E-02   -0.10534E-02 56056   0.252E-01    0.249E-01
DAV:   8    -0.270022748195E+03   -0.17505E-03   -0.11727E-03 54112   0.124E-01    0.129E-01
DAV:   9    -0.270023007955E+03   -0.25976E-03   -0.13240E-03 54464   0.834E-02    0.181E-01
DAV:  10    -0.270023073929E+03   -0.65974E-04   -0.22634E-04 41120   0.508E-02    0.179E-01
DAV:  11    -0.270023069878E+03    0.40503E-05   -0.82096E-05 38184   0.339E-02
  73 F= -.27002307E+03 E0= -.27001235E+03  d E =0.149519E-01  mag=     4.0000
       N       E                     dE             d eps       ncg     rms          rms(c)
DAV:   1    -0.270018237409E+03    0.48365E-02   -0.30308E-01 40320   0.206E+00    0.253E-01
DAV:   2    -0.270019675138E+03   -0.14377E-02   -0.14874E-02 44664   0.398E-01    0.646E-01
DAV:   3    -0.270019408536E+03    0.26660E-03   -0.91844E-03 54232   0.206E-01    0.521E-01
DAV:   4    -0.270019091428E+03    0.31711E-03   -0.18883E-03 52232   0.109E-01    0.125E-01
DAV:   5    -0.270019220643E+03   -0.12921E-03   -0.10628E-03 50936   0.758E-02    0.249E-01
DAV:   6    -0.270019139775E+03    0.80868E-04   -0.83652E-04 51520   0.704E-02    0.160E-01
DAV:   7    -0.270019127025E+03    0.12750E-04   -0.40680E-04 33800   0.447E-02    0.101E-01
DAV:   8    -0.270019133469E+03   -0.64438E-05   -0.14308E-04 32448   0.341E-02    0.767E-02
DAV:   9    -0.270019132203E+03    0.12660E-05   -0.20598E-05 26224   0.158E-02
  74 F= -.27001913E+03 E0= -.27000843E+03  d E =0.393768E-02  mag=     4.0000
       N       E                     dE             d eps       ncg     rms          rms(c)
DAV:   1    -0.270016848700E+03    0.22848E-02   -0.16307E-01 40320   0.142E+00    0.138E-01
DAV:   2    -0.270017374855E+03   -0.52616E-03   -0.57468E-03 43736   0.249E-01    0.230E-01
DAV:   3    -0.270017373578E+03    0.12777E-05   -0.18464E-03 53968   0.973E-02    0.253E-01
DAV:   4    -0.270017343563E+03    0.30014E-04   -0.11992E-03 45048   0.705E-02    0.238E-01
DAV:   5    -0.270017257324E+03    0.86239E-04   -0.61715E-04 34368   0.552E-02    0.893E-02
DAV:   6    -0.270017307487E+03   -0.50163E-04   -0.38173E-04 35072   0.443E-02    0.201E-01
DAV:   7    -0.270017241839E+03    0.65648E-04   -0.40141E-04 43272   0.516E-02    0.629E-02
DAV:   8    -0.270017265513E+03   -0.23674E-04   -0.11276E-04 31472   0.324E-02    0.567E-02
DAV:   9    -0.270017273936E+03   -0.84230E-05   -0.55085E-05 28504   0.250E-02
  75 F= -.27001727E+03 E0= -.27000655E+03  d E =0.185827E-02  mag=     4.0000
