       N       E                     dE             d eps       ncg     rms          ort
DAV:   1     0.247740428391E+04    0.24774E+04   -0.15708E+05 11088   0.158E+03
DAV:   2    -0.184737417126E+03   -0.26621E+04   -0.25173E+04 11088   0.422E+02
DAV:   3    -0.429905289311E+03   -0.24517E+03   -0.23965E+03 11088   0.145E+02
DAV:   4    -0.437753852510E+03   -0.78486E+01   -0.75831E+01 11088   0.267E+01
DAV:   5    -0.438162066452E+03   -0.40821E+00   -0.40125E+00 11088   0.450E+00
SDA:   6    -0.145991941378E+03    0.29217E+03   -0.40125E+00 11088   0.414E+04 0.000E+00
CGA:   7    -0.204311203049E+03   -0.58319E+02   -0.35488E+03 11088   0.635E+04-0.181E+04
CGA:   8    -0.165708046662E+03    0.38603E+02   -0.23898E+03 11088   0.746E+04-0.531E+04
CGA:   9    -0.144157806599E+03    0.21550E+02   -0.63112E+03 11088   0.329E+04-0.238E+04
CGA:  10    -0.281961307376E+03   -0.13780E+03   -0.13378E+03 11088   0.758E+03-0.166E+04
CGA:  11    -0.207621010973E+03    0.74340E+02   -0.40683E+02 11088   0.129E+04-0.744E+03
CGA:  12    -0.283696464779E+03   -0.76075E+02   -0.38234E+02 11088   0.837E+03-0.137E+04
CGA:  13    -0.211660687875E+03    0.72036E+02   -0.42361E+02 11088   0.124E+04-0.699E+03
CGA:  14    -0.285038282083E+03   -0.73378E+02   -0.38115E+02 11088   0.862E+03-0.141E+04
CGA:  15    -0.220927484842E+03    0.64111E+02   -0.40478E+02 11088   0.165E+04-0.101E+04
CGA:  16    -0.266134663529E+03   -0.45207E+02   -0.65206E+02 11088   0.938E+03-0.123E+04
CGA:  17    -0.254259950876E+03    0.11875E+02   -0.42370E+02 11088   0.548E+04-0.510E+04
CGA:  18    -0.228999217806E+03    0.25261E+02   -0.32812E+03 11088   0.714E+03-0.605E+03
CGA:  19    -0.313808697464E+03   -0.84809E+02   -0.25430E+02 11088   0.407E+03 0.119E+04
CGA:  20    -0.275000985537E+03    0.38808E+02   -0.11493E+02 11088   0.749E+04-0.350E+04
CGA:  21    -0.235455668307E+03    0.39545E+02   -0.43098E+03 11088   0.977E+03-0.723E+03
CGA:  22    -0.317331394549E+03   -0.81876E+02   -0.35754E+02 11088   0.760E+03-0.213E+04
CGA:  23    -0.303755593864E+03    0.13576E+02   -0.29505E+02 11088   0.340E+03-0.206E+03
CGA:  24    -0.329262899606E+03   -0.25507E+02   -0.45053E+01 11088   0.773E+01-0.113E+02
CGA:  25    -0.329570014763E+03   -0.30712E+00   -0.45729E+00 11088   0.224E+02-0.116E+01
CGA:  26    -0.329490790932E+03    0.79224E-01   -0.74354E+00 11088   0.722E+02 0.191E+01
CGA:  27    -0.327777797279E+03    0.17130E+01   -0.27676E+01 11088   0.204E+03-0.250E+02
CGA:  28    -0.329577253300E+03   -0.17995E+01   -0.14705E+01 11088   0.329E+02-0.426E+02
CGA:  29    -0.330048483014E+03   -0.47123E+00   -0.60211E+00 11088   0.148E+02-0.510E+01
CGA:  30    -0.330300212290E+03   -0.25173E+00   -0.24538E+00 11088   0.121E+02-0.163E+00
CGA:  31    -0.330738991705E+03   -0.43878E+00   -0.52269E+00 11088   0.260E+02 0.788E+00
CGA:  32    -0.330946507982E+03   -0.20752E+00   -0.46650E+00 11088   0.364E+02-0.338E+02
CGA:  33    -0.331420912252E+03   -0.47440E+00   -0.13160E+01 11088   0.144E+02-0.958E+01
CGA:  34    -0.332082480229E+03   -0.66157E+00   -0.53009E+00 11088   0.270E+01 0.135E+01
CGA:  35    -0.332458256974E+03   -0.37578E+00   -0.35505E+00 11088   0.459E+01 0.352E+00
CGA:  36    -0.333022677986E+03   -0.56442E+00   -0.54902E+00 11088   0.186E+01 0.356E+00
CGA:  37    -0.333231199638E+03   -0.20852E+00   -0.19518E+00 11088   0.643E+00 0.487E+00
CGA:  38    -0.333334157265E+03   -0.10296E+00   -0.12427E+00 11088   0.179E+01-0.329E+00
CGA:  39    -0.333406395997E+03   -0.72239E-01   -0.84057E-01 11088   0.369E+00-0.167E+00
CGA:  40    -0.333467008356E+03   -0.60612E-01   -0.70247E-01 11088   0.848E+00-0.764E-01
CGA:  41    -0.333555060246E+03   -0.88052E-01   -0.89983E-01 11088   0.533E+00-0.548E-01
CGA:  42    -0.333623593021E+03   -0.68533E-01   -0.74889E-01 11088   0.403E+00-0.982E-01
CGA:  43    -0.333661915765E+03   -0.38323E-01   -0.37583E-01 11088   0.323E+00 0.111E-01
CGA:  44    -0.333598658121E+03    0.63258E-01   -0.12550E+00 11088   0.566E+01-0.103E+01
CGA:  45    -0.333766851109E+03   -0.16819E+00   -0.31068E+00 11088   0.705E+00-0.836E+00
CGA:  46    -0.333818785126E+03   -0.51934E-01   -0.51446E-01 11088   0.176E+00 0.102E-01
CGA:  47    -0.333903564590E+03   -0.84779E-01   -0.77642E-01 11088   0.425E+00 0.163E-01
CGA:  48    -0.333977112216E+03   -0.73548E-01   -0.74750E-01 11088   0.514E+00-0.168E-01
CGA:  49    -0.334043212604E+03   -0.66100E-01   -0.65809E-01 11088   0.205E+00 0.184E-01
CGA:  50    -0.334069482536E+03   -0.26270E-01   -0.26257E-01 11088   0.206E+00-0.117E-01
CGA:  51    -0.334103921547E+03   -0.34439E-01   -0.35527E-01 11088   0.886E-01-0.195E-01
CGA:  52    -0.334112649083E+03   -0.87275E-02   -0.84699E-02 11088   0.725E-01-0.877E-02
CGA:  53    -0.334127378697E+03   -0.14730E-01   -0.24920E-01 11088   0.256E+00-0.452E-01
CGA:  54    -0.334145912782E+03   -0.18534E-01   -0.18027E-01 11088   0.351E-01 0.661E-02
CGA:  55    -0.334154474193E+03   -0.85614E-02   -0.86098E-02 11088   0.472E-01-0.529E-03
CGA:  56    -0.334160646397E+03   -0.61722E-02   -0.61744E-02 11088   0.195E-01 0.174E-03
CGA:  57    -0.334167056287E+03   -0.64099E-02   -0.60292E-02 11088   0.143E-01 0.217E-02
CGA:  58    -0.334169726927E+03   -0.26706E-02   -0.26915E-02 11088   0.150E-01-0.929E-03
CGA:  59    -0.334171486863E+03   -0.17599E-02   -0.17507E-02 11088   0.714E-02 0.382E-04
CGA:  60    -0.334172618573E+03   -0.11317E-02   -0.11231E-02 11088   0.424E-02 0.110E-02
CGA:  61    -0.334173117372E+03   -0.49880E-03   -0.50946E-03 11088   0.277E-02 0.239E-03
CGA:  62    -0.334174012054E+03   -0.89468E-03   -0.10207E-02 11088   0.761E-02-0.634E-03
CGA:  63    -0.334174742939E+03   -0.73088E-03   -0.65533E-03 11088   0.495E-02-0.111E-02
CGA:  64    -0.334175245621E+03   -0.50268E-03   -0.46378E-03 11088   0.603E-02-0.726E-03
CGA:  65    -0.334175825960E+03   -0.58034E-03   -0.54981E-03 11088   0.506E-02 0.106E-03
CGA:  66    -0.334176165364E+03   -0.33940E-03   -0.35737E-03 11088   0.498E-02 0.540E-03
CGA:  67    -0.334177176565E+03   -0.10112E-02   -0.98855E-03 11088   0.191E-01 0.278E-03
CGA:  68    -0.334174408810E+03    0.27678E-02   -0.46365E-02 11088   0.294E+00-0.862E-01
CGA:  69    -0.334196369895E+03   -0.21961E-01   -0.22536E-01 11088   0.129E+00-0.169E-02
CGA:  70    -0.334227442517E+03   -0.31073E-01   -0.31571E-01 11088   0.158E+00-0.536E-02
CGA:  71    -0.334247123438E+03   -0.19681E-01   -0.19827E-01 11088   0.113E+00-0.136E-02
CGA:  72    -0.334262005930E+03   -0.14882E-01   -0.14762E-01 11088   0.134E+00-0.295E-02
CGA:  73    -0.334284111909E+03   -0.22106E-01   -0.22387E-01 11088   0.462E-01-0.999E-02
CGA:  74    -0.334293245216E+03   -0.91333E-02   -0.88683E-02 11088   0.235E-01 0.347E-02
CGA:  75    -0.334296057745E+03   -0.28125E-02   -0.28075E-02 11088   0.266E-01-0.223E-03
CGA:  76    -0.334300046149E+03   -0.39884E-02   -0.39916E-02 11088   0.652E-02 0.251E-02
CGA:  77    -0.334302508157E+03   -0.24620E-02   -0.22140E-02 11088   0.524E-02 0.154E-02
CGA:  78    -0.334303250736E+03   -0.74258E-03   -0.72723E-03 11088   0.751E-02-0.325E-03
CGA:  79    -0.334304364357E+03   -0.11136E-02   -0.11136E-02 11088   0.309E-02-0.227E-03
CGA:  80    -0.334304704001E+03   -0.33964E-03   -0.32806E-03 11088   0.512E-02-0.252E-03
CGA:  81    -0.334305548113E+03   -0.84411E-03   -0.10127E-02 11088   0.487E-02-0.287E-02
CGA:  82    -0.334306275962E+03   -0.72785E-03   -0.71906E-03 11088   0.142E-02-0.806E-03
CGA:  83    -0.334303824644E+03    0.24513E-02   -0.13405E-02 11088   0.348E-01-0.417E-02
CGA:  84    -0.334306905362E+03   -0.30807E-02   -0.30184E-02 11088   0.331E-02 0.121E-02
CGA:  85    -0.334307328591E+03   -0.42323E-03   -0.41117E-03 11088   0.315E-02-0.967E-04
CGA:  86    -0.334307529793E+03   -0.20120E-03   -0.21593E-03 11088   0.286E-03 0.868E-04
CGA:  87    -0.334307508951E+03    0.20842E-04   -0.17566E-03 11088   0.499E-02-0.587E-03
CGA:  88    -0.334307791004E+03   -0.28205E-03   -0.26056E-03 11088   0.907E-03-0.243E-03
CGA:  89    -0.334307853738E+03   -0.62734E-04   -0.70643E-04 11088   0.125E-03 0.455E-04
CGA:  90    -0.334307921796E+03   -0.68058E-04    0.19208E-02 11088   0.117E-03 0.177E-04
CGA:  91    -0.334308055677E+03   -0.13388E-03    0.17775E-04 11088   0.175E-03 0.167E-05
CGA:  92    -0.334308262396E+03   -0.20672E-03    0.17855E-04 11088   0.119E-02-0.124E-03
CGA:  93    -0.334308341403E+03   -0.79007E-04   -0.58243E-04 11088   0.194E-03-0.108E-03
CGA:  94    -0.334308385329E+03   -0.43926E-04   -0.44801E-04 11088   0.431E-03-0.107E-03
CGA:  95    -0.334308429480E+03   -0.44151E-04   -0.27884E-04 11088   0.155E-03-0.960E-04
CGA:  96    -0.334308450535E+03   -0.21056E-04   -0.14138E-04 11088   0.108E-03-0.584E-04
CGA:  97    -0.334308532851E+03   -0.82316E-04    0.46852E-05 11088   0.945E-04 0.161E-04
CGA:  98    -0.334308584888E+03   -0.52037E-04    0.36604E-03 11088   0.666E-03-0.112E-03
CGA:  99    -0.334308631345E+03   -0.46456E-04   -0.30602E-04 11088   0.618E-04-0.964E-04
CGA: 100    -0.334308633967E+03   -0.26222E-05   -0.18054E-04 11088   0.850E-03-0.130E-03
CGA: 101    -0.334308688725E+03   -0.54758E-04   -0.39691E-04 11088   0.956E-04-0.869E-04
CGA: 102    -0.334308698889E+03   -0.10164E-04   -0.83816E-05 11088   0.282E-04-0.145E-04
CGA: 103    -0.334308732392E+03   -0.33503E-04    0.11146E-05 11088   0.110E-03-0.692E-05
CGA: 104    -0.334308873935E+03   -0.14154E-03    0.29159E-05 11088   0.575E-04 0.492E-04
CGA: 105    -0.334308947194E+03   -0.73258E-04    0.83766E-05 11088   0.634E-03-0.119E-03
CGA: 106    -0.334308984797E+03   -0.37603E-04   -0.27414E-04 11088   0.334E-04-0.697E-04
CGA: 107    -0.334308986156E+03   -0.13593E-05   -0.18155E-05 11088   0.569E-05 0.312E-05
   1 F= -.33430899E+03 E0= -.33430561E+03  d E =-.334309E+03  mag=     7.9969
       N       E                     dE             d eps       ncg     rms          ort
SDA:   1    -0.334319228354E+03   -0.10244E-01    0.00000E+00 11088   0.247E-02 0.000E+00
CGA:   2    -0.334319484127E+03   -0.25577E-03   -0.24514E-03 11088   0.273E-02-0.133E-03
CGA:   3    -0.334319758831E+03   -0.27470E-03   -0.28350E-03 11088   0.112E-02 0.100E-03
CGA:   4    -0.334319901021E+03   -0.14219E-03   -0.13276E-03 11088   0.375E-03-0.130E-03
CGA:   5    -0.334319956646E+03   -0.55625E-04   -0.51025E-04 11088   0.663E-03-0.151E-03
CGA:   6    -0.334319974361E+03   -0.17715E-04   -0.17825E-04 11088   0.200E-03-0.185E-06
CGA:   7    -0.334319977167E+03   -0.28057E-05   -0.60127E-05 11088   0.671E-04 0.223E-04
   2 F= -.33431998E+03 E0= -.33431661E+03  d E =-.109910E-01  mag=     7.9969
       N       E                     dE             d eps       ncg     rms          ort
SDA:   1    -0.334184999414E+03    0.13497E+00    0.00000E+00 11088   0.791E+00 0.000E+00
CGA:   2    -0.334440809895E+03   -0.25581E+00   -0.25497E+00 11088   0.460E+00 0.518E-02
CGA:   3    -0.334478979521E+03   -0.38170E-01   -0.38377E-01 11088   0.317E+00-0.639E-02
CGA:   4    -0.334512600453E+03   -0.33621E-01   -0.33273E-01 11088   0.721E-01 0.266E-03
CGA:   5    -0.334522317428E+03   -0.97170E-02   -0.97344E-02 11088   0.227E-01 0.476E-03
CGA:   6    -0.334525140945E+03   -0.28235E-02   -0.28342E-02 11088   0.177E-01 0.421E-03
CGA:   7    -0.334526685861E+03   -0.15449E-02   -0.15160E-02 11088   0.684E-02-0.410E-03
CGA:   8    -0.334527581115E+03   -0.89525E-03   -0.90082E-03 11088   0.313E-02 0.246E-03
CGA:   9    -0.334528081509E+03   -0.50039E-03   -0.50063E-03 11088   0.256E-02 0.152E-03
CGA:  10    -0.334528255299E+03   -0.17379E-03   -0.19896E-03 11088   0.976E-03 0.317E-03
CGA:  11    -0.334528442107E+03   -0.18681E-03   -0.18429E-03 11088   0.324E-03 0.154E-03
CGA:  12    -0.334528513037E+03   -0.70930E-04   -0.68431E-04 11088   0.201E-03 0.841E-04
CGA:  13    -0.334528531151E+03   -0.18114E-04   -0.21116E-04 11088   0.122E-03 0.423E-04
CGA:  14    -0.334528531781E+03   -0.63004E-06   -0.86940E-05 11088   0.423E-04 0.880E-04
   3 F= -.33452853E+03 E0= -.33452525E+03  d E =-.208555E+00  mag=     7.9974
       N       E                     dE             d eps       ncg     rms          ort
SDA:   1    -0.333595616378E+03    0.93291E+00    0.00000E+00 11088   0.277E+01 0.000E+00
CGA:   2    -0.334213800176E+03   -0.61818E+00   -0.59959E+00 11088   0.388E+01 0.208E+00
CGA:   3    -0.334522061237E+03   -0.30826E+00   -0.28744E+00 11088   0.738E+00 0.136E+00
CGA:   4    -0.334657148519E+03   -0.13509E+00   -0.13568E+00 11088   0.368E+00-0.127E-01
CGA:   5    -0.334690519441E+03   -0.33371E-01   -0.34148E-01 11088   0.147E+00 0.130E-02
CGA:   6    -0.334702869902E+03   -0.12350E-01   -0.12590E-01 11088   0.641E-01-0.579E-03
CGA:   7    -0.334710947196E+03   -0.80773E-02   -0.80759E-02 11088   0.231E-01 0.459E-04
CGA:   8    -0.334714506408E+03   -0.35592E-02   -0.35619E-02 11088   0.167E-01-0.191E-03
CGA:   9    -0.334715945423E+03   -0.14390E-02   -0.14627E-02 11088   0.948E-02 0.488E-03
CGA:  10    -0.334717274672E+03   -0.13292E-02   -0.13288E-02 11088   0.344E-02 0.647E-03
CGA:  11    -0.334717885845E+03   -0.61117E-03   -0.59753E-03 11088   0.190E-02 0.501E-03
CGA:  12    -0.334718127473E+03   -0.24163E-03   -0.24251E-03 11088   0.169E-02 0.331E-04
CGA:  13    -0.334718285786E+03   -0.15831E-03   -0.16631E-03 11088   0.460E-03 0.206E-03
CGA:  14    -0.334718325082E+03   -0.39296E-04   -0.48169E-04 11088   0.164E-03 0.220E-03
CGA:  15    -0.334718337763E+03   -0.12681E-04   -0.19822E-04 11088   0.115E-03 0.144E-03
CGA:  16    -0.334718343306E+03   -0.55429E-05   -0.85091E-05 11088   0.750E-04 0.539E-04
   4 F= -.33471834E+03 E0= -.33471486E+03  d E =-.189812E+00  mag=     7.9964
       N       E                     dE             d eps       ncg     rms          ort
SDA:   1    -0.334608029336E+03    0.11031E+00    0.00000E+00 11088   0.318E+00 0.000E+00
CGA:   2    -0.334677680525E+03   -0.69651E-01   -0.69021E-01 11088   0.443E+00 0.623E-02
CGA:   3    -0.334709567367E+03   -0.31887E-01   -0.31548E-01 11088   0.109E+00 0.283E-02
CGA:   4    -0.334727022624E+03   -0.17455E-01   -0.17490E-01 11088   0.328E-01-0.101E-02
CGA:   5    -0.334731032915E+03   -0.40103E-02   -0.40127E-02 11088   0.158E-01 0.550E-03
CGA:   6    -0.334732337035E+03   -0.13041E-02   -0.13050E-02 11088   0.650E-02-0.190E-04
CGA:   7    -0.334733179607E+03   -0.84257E-03   -0.84302E-03 11088   0.283E-02-0.794E-04
CGA:   8    -0.334733527698E+03   -0.34809E-03   -0.34813E-03 11088   0.152E-02 0.774E-04
CGA:   9    -0.334733690418E+03   -0.16272E-03   -0.16696E-03 11088   0.888E-03 0.234E-03
CGA:  10    -0.334733784929E+03   -0.94512E-04   -0.10029E-03 11088   0.336E-03 0.222E-03
CGA:  11    -0.334733834763E+03   -0.49833E-04   -0.50382E-04 11088   0.124E-03 0.204E-03
CGA:  12    -0.334733867077E+03   -0.32314E-04   -0.27727E-04 11088   0.995E-04 0.451E-04
CGA:  13    -0.334733871560E+03   -0.44831E-05   -0.87679E-05 11088   0.513E-04 0.679E-04
   5 F= -.33473387E+03 E0= -.33473017E+03  d E =-.155283E-01  mag=     7.9954
       N       E                     dE             d eps       ncg     rms          ort
SDA:   1    -0.334697034178E+03    0.36833E-01    0.00000E+00 11088   0.125E+00 0.000E+00
CGA:   2    -0.334719146823E+03   -0.22113E-01   -0.21991E-01 11088   0.129E+00 0.186E-02
CGA:   3    -0.334729793737E+03   -0.10647E-01   -0.10592E-01 11088   0.541E-01 0.290E-03
CGA:   4    -0.334737008261E+03   -0.72145E-02   -0.72212E-02 11088   0.164E-01-0.486E-03
CGA:   5    -0.334738849683E+03   -0.18414E-02   -0.18445E-02 11088   0.564E-02 0.325E-03
CGA:   6    -0.334739414548E+03   -0.56487E-03   -0.56512E-03 11088   0.283E-02 0.148E-04
CGA:   7    -0.334739681977E+03   -0.26743E-03   -0.26613E-03 11088   0.112E-02-0.448E-04
CGA:   8    -0.334739839057E+03   -0.15708E-03   -0.15863E-03 11088   0.507E-03-0.627E-04
CGA:   9    -0.334739890484E+03   -0.51426E-04   -0.52026E-04 11088   0.310E-03 0.518E-04
CGA:  10    -0.334739918153E+03   -0.27669E-04   -0.30160E-04 11088   0.109E-03 0.795E-04
CGA:  11    -0.334739929580E+03   -0.11426E-04   -0.13127E-04 11088   0.445E-04 0.749E-04
CGA:  12    -0.334739939946E+03   -0.10366E-04   -0.87098E-05 11088   0.299E-04 0.210E-04
CGA:  13    -0.334739941608E+03   -0.16620E-05   -0.29961E-05 11088   0.181E-04 0.252E-04
   6 F= -.33473994E+03 E0= -.33473613E+03  d E =-.607005E-02  mag=     7.9958
       N       E                     dE             d eps       ncg     rms          ort
SDA:   1    -0.334676345027E+03    0.63595E-01    0.00000E+00 11088   0.199E+00 0.000E+00
CGA:   2    -0.334718389522E+03   -0.42044E-01   -0.41909E-01 11088   0.117E+00 0.129E-02
CGA:   3    -0.334735598531E+03   -0.17209E-01   -0.17234E-01 11088   0.800E-01-0.809E-03
CGA:   4    -0.334741497615E+03   -0.58991E-02   -0.59020E-02 11088   0.262E-01 0.169E-03
CGA:   5    -0.334744349316E+03   -0.28517E-02   -0.28558E-02 11088   0.621E-02 0.342E-03
CGA:   6    -0.334745199763E+03   -0.85045E-03   -0.85080E-03 11088   0.272E-02-0.248E-04
CGA:   7    -0.334745490138E+03   -0.29038E-03   -0.28939E-03 11088   0.157E-02-0.880E-04
CGA:   8    -0.334745633245E+03   -0.14311E-03   -0.14181E-03 11088   0.714E-03-0.549E-04
CGA:   9    -0.334745729774E+03   -0.96529E-04   -0.97665E-04 11088   0.301E-03-0.462E-04
CGA:  10    -0.334745763441E+03   -0.33667E-04   -0.33611E-04 11088   0.146E-03 0.596E-04
CGA:  11    -0.334745783295E+03   -0.19854E-04   -0.19941E-04 11088   0.110E-03 0.196E-04
CGA:  12    -0.334745798704E+03   -0.15408E-04   -0.15421E-04 11088   0.511E-04-0.239E-05
CGA:  13    -0.334745806424E+03   -0.77204E-05   -0.80023E-05 11088   0.589E-04-0.685E-05
   7 F= -.33474581E+03 E0= -.33474195E+03  d E =-.586482E-02  mag=     7.9967
       N       E                     dE             d eps       ncg     rms          ort
SDA:   1    -0.334661385628E+03    0.84413E-01    0.00000E+00 11088   0.266E+00 0.000E+00
CGA:   2    -0.334714055961E+03   -0.52670E-01   -0.52588E-01 11088   0.172E+00 0.854E-03
CGA:   3    -0.334733279771E+03   -0.19224E-01   -0.19227E-01 11088   0.136E+00-0.931E-04
CGA:   4    -0.334745091173E+03   -0.11811E-01   -0.11791E-01 11088   0.305E-01 0.154E-03
CGA:   5    -0.334749163502E+03   -0.40723E-02   -0.40655E-02 11088   0.724E-02 0.469E-03
CGA:   6    -0.334750025764E+03   -0.86226E-03   -0.86249E-03 11088   0.480E-02 0.850E-04
CGA:   7    -0.334750422389E+03   -0.39663E-03   -0.39459E-03 11088   0.140E-02-0.640E-04
CGA:   8    -0.334750638108E+03   -0.21572E-03   -0.21837E-03 11088   0.777E-03-0.673E-04
CGA:   9    -0.334750713189E+03   -0.75081E-04   -0.74385E-04 11088   0.426E-03-0.356E-04
CGA:  10    -0.334750755497E+03   -0.42309E-04   -0.42805E-04 11088   0.196E-03 0.354E-04
CGA:  11    -0.334750781456E+03   -0.25959E-04   -0.25878E-04 11088   0.806E-04 0.259E-04
CGA:  12    -0.334750800469E+03   -0.19012E-04   -0.20053E-04 11088   0.917E-04-0.103E-04
CGA:  13    -0.334750805241E+03   -0.47729E-05   -0.50733E-05 11088   0.301E-04 0.482E-05
   8 F= -.33475081E+03 E0= -.33474697E+03  d E =-.499882E-02  mag=     7.9973
       N       E                     dE             d eps       ncg     rms          ort
SDA:   1    -0.333856051911E+03    0.89475E+00    0.00000E+00 11088   0.270E+01 0.000E+00
CGA:   2    -0.334399891783E+03   -0.54384E+00   -0.54347E+00 11088   0.142E+01 0.285E-02
CGA:   3    -0.334656726034E+03   -0.25683E+00   -0.25695E+00 11088   0.569E+00-0.239E-02
CGA:   4    -0.334729584235E+03   -0.72858E-01   -0.72850E-01 11088   0.206E+00 0.233E-02
CGA:   5    -0.334745088615E+03   -0.15504E-01   -0.15591E-01 11088   0.857E-01 0.544E-03
CGA:   6    -0.334754451875E+03   -0.93633E-02   -0.93752E-02 11088   0.205E-01 0.109E-02
CGA:   7    -0.334757910826E+03   -0.34590E-02   -0.34663E-02 11088   0.105E-01-0.178E-03
CGA:   8    -0.334758843142E+03   -0.93232E-03   -0.93176E-03 11088   0.591E-02 0.385E-04
CGA:   9    -0.334759562190E+03   -0.71905E-03   -0.71902E-03 11088   0.249E-02-0.240E-04
CGA:  10    -0.334759872210E+03   -0.31002E-03   -0.30989E-03 11088   0.135E-02 0.545E-04
CGA:  11    -0.334760101035E+03   -0.22882E-03   -0.23702E-03 11088   0.134E-02-0.167E-03
CGA:  12    -0.334760185149E+03   -0.84114E-04   -0.84558E-04 11088   0.420E-03 0.103E-04
CGA:  13    -0.334760257469E+03   -0.72321E-04   -0.68020E-04 11088   0.190E-03 0.112E-03
CGA:  14    -0.334760279079E+03   -0.21610E-04   -0.22202E-04 11088   0.159E-03 0.182E-04
CGA:  15    -0.334760294816E+03   -0.15737E-04   -0.16687E-04 11088   0.437E-04 0.354E-04
CGA:  16    -0.334760300176E+03   -0.53600E-05   -0.55789E-05 11088   0.372E-04 0.128E-04
   9 F= -.33476030E+03 E0= -.33475660E+03  d E =-.949494E-02  mag=     7.9983
       N       E                     dE             d eps       ncg     rms          ort
SDA:   1    -0.334022655145E+03    0.73764E+00    0.00000E+00 11088   0.231E+01 0.000E+00
CGA:   2    -0.334449127623E+03   -0.42647E+00   -0.42626E+00 11088   0.116E+01 0.185E-02
CGA:   3    -0.334669727017E+03   -0.22060E+00   -0.22067E+00 11088   0.506E+00-0.159E-02
CGA:   4    -0.334738745857E+03   -0.69019E-01   -0.69004E-01 11088   0.115E+00 0.180E-02
CGA:   5    -0.334753878702E+03   -0.15133E-01   -0.15128E-01 11088   0.411E-01 0.138E-02
CGA:   6    -0.334757935120E+03   -0.40564E-02   -0.40882E-02 11088   0.232E-01 0.823E-03
CGA:   7    -0.334760255022E+03   -0.23199E-02   -0.23246E-02 11088   0.907E-02 0.342E-04
CGA:   8    -0.334761377518E+03   -0.11225E-02   -0.11227E-02 11088   0.341E-02 0.164E-03
CGA:   9    -0.334761905510E+03   -0.52799E-03   -0.52124E-03 11088   0.141E-02 0.266E-03
CGA:  10    -0.334762082026E+03   -0.17652E-03   -0.17787E-03 11088   0.121E-02 0.151E-03
CGA:  11    -0.334762235513E+03   -0.15349E-03   -0.15375E-03 11088   0.476E-03 0.233E-04
CGA:  12    -0.334762298019E+03   -0.62506E-04   -0.62172E-04 11088   0.233E-03 0.104E-03
CGA:  13    -0.334762332572E+03   -0.34553E-04   -0.34750E-04 11088   0.124E-03 0.744E-04
CGA:  14    -0.334762341406E+03   -0.88336E-05   -0.12304E-04 11088   0.428E-04 0.695E-04
  10 F= -.33476234E+03 E0= -.33475882E+03  d E =-.204123E-02  mag=     7.9982
       N       E                     dE             d eps       ncg     rms          ort
SDA:   1    -0.334697687209E+03    0.64645E-01    0.00000E+00 11088   0.218E+00 0.000E+00
CGA:   2    -0.334729249252E+03   -0.31562E-01   -0.31530E-01 11088   0.236E+00 0.695E-03
CGA:   3    -0.334749557480E+03   -0.20308E-01   -0.20232E-01 11088   0.811E-01 0.614E-03
CGA:   4    -0.334762801491E+03   -0.13244E-01   -0.13265E-01 11088   0.220E-01-0.540E-03
CGA:   5    -0.334765694434E+03   -0.28929E-02   -0.28933E-02 11088   0.954E-02-0.391E-04
CGA:   6    -0.334766418744E+03   -0.72431E-03   -0.71823E-03 11088   0.376E-02-0.156E-03
CGA:   7    -0.334766902594E+03   -0.48385E-03   -0.48292E-03 11088   0.102E-02 0.995E-04
CGA:   8    -0.334767082206E+03   -0.17961E-03   -0.18273E-03 11088   0.100E-02-0.599E-04
CGA:   9    -0.334767150700E+03   -0.68494E-04   -0.68656E-04 11088   0.286E-03 0.339E-05
CGA:  10    -0.334767206293E+03   -0.55593E-04   -0.10555E-03 11088   0.453E-03-0.203E-03
CGA:  11    -0.334767242491E+03   -0.36198E-04   -0.38858E-04 11088   0.149E-03 0.547E-04
CGA:  12    -0.334767260229E+03   -0.17738E-04   -0.17633E-04 11088   0.745E-04-0.413E-05
CGA:  13    -0.334767266723E+03   -0.64940E-05   -0.62767E-05 11088   0.273E-04-0.500E-05
  11 F= -.33476727E+03 E0= -.33476376E+03  d E =-.492532E-02  mag=     7.9983
       N       E                     dE             d eps       ncg     rms          ort
SDA:   1    -0.334756192729E+03    0.11067E-01    0.00000E+00 11088   0.323E-01 0.000E+00
CGA:   2    -0.334764510205E+03   -0.83175E-02   -0.84556E-02 11088   0.214E-01-0.105E-02
CGA:   3    -0.334767138822E+03   -0.26286E-02   -0.26317E-02 11088   0.100E-01 0.361E-03
CGA:   4    -0.334767949561E+03   -0.81074E-03   -0.81570E-03 11088   0.383E-02 0.920E-04
CGA:   5    -0.334768308377E+03   -0.35882E-03   -0.36651E-03 11088   0.944E-03 0.212E-03
CGA:   6    -0.334768437124E+03   -0.12875E-03   -0.12879E-03 11088   0.306E-03 0.600E-04
CGA:   7    -0.334768480525E+03   -0.43400E-04   -0.43351E-04 11088   0.154E-03 0.149E-04
CGA:   8    -0.334768498620E+03   -0.18095E-04   -0.17673E-04 11088   0.131E-03-0.210E-04
CGA:   9    -0.334768508542E+03   -0.99222E-05   -0.10243E-04 11088   0.329E-04 0.822E-05
  12 F= -.33476851E+03 E0= -.33476501E+03  d E =-.124182E-02  mag=     7.9982
       N       E                     dE             d eps       ncg     rms          ort
SDA:   1    -0.334507816506E+03    0.26068E+00    0.00000E+00 11088   0.744E+00 0.000E+00
CGA:   2    -0.334641883213E+03   -0.13407E+00   -0.13505E+00 11088   0.107E+01-0.157E-01
CGA:   3    -0.334720099370E+03   -0.78216E-01   -0.79687E-01 11088   0.273E+00-0.102E-01
CGA:   4    -0.334760026699E+03   -0.39927E-01   -0.39888E-01 11088   0.645E-01 0.230E-02
CGA:   5    -0.334768846513E+03   -0.88198E-02   -0.88169E-02 11088   0.189E-01 0.931E-03
CGA:   6    -0.334771162635E+03   -0.23161E-02   -0.23216E-02 11088   0.742E-02 0.485E-03
CGA:   7    -0.334772041789E+03   -0.87915E-03   -0.87670E-03 11088   0.468E-02-0.140E-03
CGA:   8    -0.334772418427E+03   -0.37664E-03   -0.37819E-03 11088   0.162E-02 0.524E-04
CGA:   9    -0.334772688731E+03   -0.27030E-03   -0.27025E-03 11088   0.597E-03 0.176E-05
CGA:  10    -0.334772799185E+03   -0.11045E-03   -0.10923E-03 11088   0.367E-03 0.231E-04
CGA:  11    -0.334772857606E+03   -0.58421E-04   -0.58011E-04 11088   0.170E-03 0.219E-04
CGA:  12    -0.334772892365E+03   -0.34759E-04   -0.34440E-04 11088   0.133E-03 0.558E-05
CGA:  13    -0.334772906153E+03   -0.13789E-04   -0.12923E-04 11088   0.921E-04-0.204E-04
CGA:  14    -0.334772913864E+03   -0.77102E-05   -0.80612E-05 11088   0.240E-04 0.111E-04
  13 F= -.33477291E+03 E0= -.33476951E+03  d E =-.440532E-02  mag=     7.9982
       N       E                     dE             d eps       ncg     rms          ort
SDA:   1    -0.333884466308E+03    0.88844E+00    0.00000E+00 11088   0.241E+01 0.000E+00
CGA:   2    -0.334333214787E+03   -0.44875E+00   -0.45780E+00 11088   0.411E+01-0.135E+00
CGA:   3    -0.334617404398E+03   -0.28419E+00   -0.29421E+00 11088   0.871E+00-0.716E-01
CGA:   4    -0.334734017022E+03   -0.11661E+00   -0.11660E+00 11088   0.284E+00 0.209E-03
CGA:   5    -0.334762417789E+03   -0.28401E-01   -0.28567E-01 11088   0.981E-01 0.119E-02
CGA:   6    -0.334771887210E+03   -0.94694E-02   -0.95103E-02 11088   0.509E-01-0.360E-03
CGA:   7    -0.334776199234E+03   -0.43120E-02   -0.43583E-02 11088   0.149E-01 0.455E-03
CGA:   8    -0.334778691243E+03   -0.24920E-02   -0.24861E-02 11088   0.466E-02 0.169E-03
CGA:   9    -0.334779488783E+03   -0.79754E-03   -0.80121E-03 11088   0.379E-02-0.105E-03
CGA:  10    -0.334779790683E+03   -0.30190E-03   -0.30670E-03 11088   0.169E-02 0.107E-03
CGA:  11    -0.334780031971E+03   -0.24129E-03   -0.24117E-03 11088   0.121E-02 0.195E-04
CGA:  12    -0.334780183984E+03   -0.15201E-03   -0.15326E-03 11088   0.355E-03 0.155E-03
CGA:  13    -0.334780259370E+03   -0.75385E-04   -0.71658E-04 11088   0.335E-03 0.824E-04
CGA:  14    -0.334780300190E+03   -0.40820E-04   -0.39225E-04 11088   0.180E-03-0.397E-04
CGA:  15    -0.334780318766E+03   -0.18576E-04   -0.18827E-04 11088   0.601E-04 0.170E-04
CGA:  16    -0.334780331940E+03   -0.13174E-04   -0.13148E-04 11088   0.527E-04 0.326E-06
CGA:  17    -0.334780335185E+03   -0.32445E-05   -0.40001E-05 11088   0.153E-04 0.124E-04
  14 F= -.33478034E+03 E0= -.33477706E+03  d E =-.742132E-02  mag=     7.9982
       N       E                     dE             d eps       ncg     rms          ort
SDA:   1    -0.329362478665E+03    0.54179E+01    0.00000E+00 11088   0.134E+02 0.000E+00
CGA:   2    -0.333199052611E+03   -0.38366E+01   -0.38160E+01 11088   0.880E+01 0.152E+00
CGA:   3    -0.334260251308E+03   -0.10612E+01   -0.10352E+01 11088   0.317E+01-0.225E+00
CGA:   4    -0.334616357538E+03   -0.35611E+00   -0.35193E+00 11088   0.111E+01-0.256E-01
CGA:   5    -0.334707517894E+03   -0.91160E-01   -0.90801E-01 11088   0.438E+00-0.626E-02
CGA:   6    -0.334757604506E+03   -0.50087E-01   -0.50140E-01 11088   0.116E+00-0.777E-03
CGA:   7    -0.334775568834E+03   -0.17964E-01   -0.17935E-01 11088   0.588E-01 0.181E-02
CGA:   8    -0.334781111299E+03   -0.55425E-02   -0.56201E-02 11088   0.296E-01 0.146E-02
CGA:   9    -0.334785050433E+03   -0.39391E-02   -0.39368E-02 11088   0.172E-01-0.532E-03
CGA:  10    -0.334787119526E+03   -0.20691E-02   -0.20673E-02 11088   0.817E-02-0.746E-04
CGA:  11    -0.334788556074E+03   -0.14365E-02   -0.14192E-02 11088   0.596E-02 0.425E-03
CGA:  12    -0.334789067266E+03   -0.51119E-03   -0.53946E-03 11088   0.260E-02 0.566E-03
CGA:  13    -0.334789580616E+03   -0.51335E-03   -0.50661E-03 11088   0.129E-02 0.152E-03
CGA:  14    -0.334789734925E+03   -0.15431E-03   -0.15539E-03 11088   0.707E-03 0.431E-04
CGA:  15    -0.334789843234E+03   -0.10831E-03   -0.11006E-03 11088   0.683E-03-0.117E-03
CGA:  16    -0.334789877499E+03   -0.34265E-04   -0.40356E-04 11088   0.142E-03 0.932E-04
CGA:  17    -0.334789883744E+03   -0.62452E-05   -0.11282E-04 11088   0.114E-03 0.796E-04
CGA:  18    -0.334789898364E+03   -0.14620E-04   -0.14599E-04 11088   0.188E-03-0.135E-04
CGA:  19    -0.334789914362E+03   -0.15998E-04   -0.17286E-04 11088   0.602E-04 0.505E-04
CGA:  20    -0.334789918391E+03   -0.40291E-05   -0.46698E-05 11088   0.376E-04 0.935E-05
CGA:  21    -0.334789931576E+03   -0.13185E-04    0.12850E-04 11088   0.441E-04 0.262E-04
CGA:  22    -0.334789934724E+03   -0.31480E-05   -0.32083E-05 11088   0.235E-04 0.108E-05
  15 F= -.33478993E+03 E0= -.33478673E+03  d E =-.959954E-02  mag=     7.9982
       N       E                     dE             d eps       ncg     rms          ort
SDA:   1    -0.334158865166E+03    0.63107E+00    0.00000E+00 11088   0.228E+01 0.000E+00
CGA:   2    -0.334468224943E+03   -0.30936E+00   -0.30819E+00 11088   0.155E+01 0.492E-01
CGA:   3    -0.334617919344E+03   -0.14969E+00   -0.14716E+00 11088   0.868E+00-0.153E-01
CGA:   4    -0.334747472822E+03   -0.12955E+00   -0.12969E+00 11088   0.244E+00-0.497E-02
CGA:   5    -0.334779202821E+03   -0.31730E-01   -0.31715E-01 11088   0.769E-01 0.100E-02
CGA:   6    -0.334786057706E+03   -0.68549E-02   -0.68277E-02 11088   0.356E-01-0.611E-03
CGA:   7    -0.334789905896E+03   -0.38482E-02   -0.38517E-02 11088   0.116E-01 0.423E-03
CGA:   8    -0.334791507780E+03   -0.16019E-02   -0.16063E-02 11088   0.647E-02-0.284E-03
CGA:   9    -0.334792203447E+03   -0.69567E-03   -0.69674E-03 11088   0.234E-02 0.117E-03
CGA:  10    -0.334792498104E+03   -0.29466E-03   -0.29507E-03 11088   0.192E-02-0.109E-03
CGA:  11    -0.334792688103E+03   -0.19000E-03   -0.19071E-03 11088   0.476E-03 0.413E-04
CGA:  12    -0.334792443445E+03    0.24466E-03   -0.16212E-03 11088   0.451E-02-0.995E-03
CGA:  13    -0.334792685985E+03   -0.24254E-03   -0.27924E-03 11088   0.154E-02 0.252E-03
CGA:  14    -0.334792872856E+03   -0.18687E-03   -0.20439E-03 11088   0.179E-03 0.206E-03
CGA:  15    -0.334791991613E+03    0.88124E-03   -0.47432E-03 11088   0.106E-01-0.105E-02
CGA:  16    -0.334792505122E+03   -0.51351E-03   -0.67329E-03 11088   0.281E-02-0.328E-04
CGA:  17    -0.334792723334E+03   -0.21821E-03   -0.30467E-03 11088   0.109E-02 0.320E-03
CGA:  18    -0.334792891275E+03   -0.16794E-03   -0.15400E-03 11088   0.413E-03-0.678E-04
CGA:  19    -0.334793027756E+03   -0.13648E-03   -0.95238E-04 11088   0.760E-03-0.456E-03
CGA:  20    -0.334793037155E+03   -0.93988E-05   -0.46032E-04 11088   0.854E-04 0.127E-03
  16 F= -.33479304E+03 E0= -.33478985E+03  d E =-.310243E-02  mag=     7.9981
       N       E                     dE             d eps       ncg     rms          ort
SDA:   1    -0.334541780602E+03    0.25125E+00    0.00000E+00 11088   0.631E+00 0.000E+00
CGA:   2    -0.334714122888E+03   -0.17234E+00   -0.17240E+00 11088   0.412E+00 0.177E-02
CGA:   3    -0.334761358101E+03   -0.47235E-01   -0.48115E-01 11088   0.254E+00-0.603E-02
CGA:   4    -0.334781138406E+03   -0.19780E-01   -0.19048E-01 11088   0.526E-01 0.872E-02
CGA:   5    -0.334789071385E+03   -0.79330E-02   -0.78265E-02 11088   0.126E-01-0.780E-03
CGA:   6    -0.334791207725E+03   -0.21363E-02   -0.21277E-02 11088   0.369E-02-0.855E-04
CGA:   7    -0.334791869243E+03   -0.66152E-03   -0.66771E-03 11088   0.167E-02 0.677E-04
CGA:   8    -0.334792030983E+03   -0.16174E-03   -0.16877E-03 11088   0.121E-02 0.529E-04
CGA:   9    -0.334792205043E+03   -0.17406E-03   -0.16533E-03 11088   0.479E-03-0.712E-04
CGA:  10    -0.334792270266E+03   -0.65223E-04   -0.67981E-04 11088   0.345E-03 0.267E-04
CGA:  11    -0.334792327868E+03   -0.57602E-04   -0.53250E-04 11088   0.237E-03-0.434E-04
CGA:  12    -0.334792351189E+03   -0.23321E-04   -0.20981E-04 11088   0.127E-03-0.163E-04
CGA:  13    -0.334792378495E+03   -0.27306E-04   -0.33601E-04 11088   0.334E-03-0.128E-03
CGA:  14    -0.334792389331E+03   -0.10836E-04   -0.16981E-04 11088   0.452E-04 0.346E-04
CGA:  15    -0.334792391382E+03   -0.20509E-05   -0.43011E-05 11088   0.228E-04 0.159E-04
  17 F= -.33479239E+03 E0= -.33478921E+03  d E =0.645773E-03  mag=     7.9981
       N       E                     dE             d eps       ncg     rms          ort
SDA:   1    -0.334604710533E+03    0.18768E+00    0.00000E+00 11088   0.459E+00 0.000E+00
CGA:   2    -0.334748055490E+03   -0.14334E+00   -0.14339E+00 11088   0.264E+00-0.540E-03
CGA:   3    -0.334779222847E+03   -0.31167E-01   -0.31579E-01 11088   0.123E+00-0.883E-03
CGA:   4    -0.334789403429E+03   -0.10181E-01   -0.99401E-02 11088   0.367E-01 0.377E-02
CGA:   5    -0.334793429499E+03   -0.40261E-02   -0.39769E-02 11088   0.131E-01-0.210E-03
CGA:   6    -0.334794948231E+03   -0.15187E-02   -0.15235E-02 11088   0.409E-02 0.531E-04
CGA:   7    -0.334795576814E+03   -0.62858E-03   -0.62872E-03 11088   0.179E-02 0.347E-05
CGA:   8    -0.334795730831E+03   -0.15402E-03   -0.16479E-03 11088   0.100E-02 0.105E-03
CGA:   9    -0.334795873197E+03   -0.14237E-03   -0.14076E-03 11088   0.420E-03-0.293E-04
CGA:  10    -0.334795926399E+03   -0.53202E-04   -0.55461E-04 11088   0.244E-03 0.437E-04
CGA:  11    -0.334795965511E+03   -0.39112E-04   -0.39771E-04 11088   0.166E-03 0.171E-04
CGA:  12    -0.334795975411E+03   -0.98999E-05   -0.14365E-04 11088   0.634E-04 0.434E-04
CGA:  13    -0.334795991636E+03   -0.16225E-04   -0.15999E-04 11088   0.281E-04 0.104E-04
CGA:  14    -0.334795998094E+03   -0.64575E-05   -0.76991E-05 11088   0.895E-04-0.223E-04
  18 F= -.33479600E+03 E0= -.33479284E+03  d E =-.360671E-02  mag=     7.9982
       N       E                     dE             d eps       ncg     rms          ort
SDA:   1    -0.329111795349E+03    0.56842E+01    0.00000E+00 11088   0.136E+02 0.000E+00
CGA:   2    -0.333351645812E+03   -0.42399E+01   -0.42628E+01 11088   0.936E+01-0.161E+00
CGA:   3    -0.334239788420E+03   -0.88814E+00   -0.98421E+00 11088   0.377E+01-0.150E+00
CGA:   4    -0.334598456749E+03   -0.35867E+00   -0.31650E+00 11088   0.982E+00 0.314E+00
CGA:   5    -0.334724554236E+03   -0.12610E+00   -0.12440E+00 11088   0.398E+00-0.392E-02
CGA:   6    -0.334771355006E+03   -0.46801E-01   -0.45703E-01 11088   0.120E+00-0.224E-02
CGA:   7    -0.334787936434E+03   -0.16581E-01   -0.16615E-01 11088   0.815E-01 0.255E-02
CGA:   8    -0.334794720312E+03   -0.67839E-02   -0.68379E-02 11088   0.284E-01 0.507E-03
CGA:   9    -0.334799531528E+03   -0.48112E-02   -0.48097E-02 11088   0.122E-01 0.239E-03
CGA:  10    -0.334801525765E+03   -0.19942E-02   -0.19947E-02 11088   0.859E-02 0.331E-03
CGA:  11    -0.334802835404E+03   -0.13096E-02   -0.13198E-02 11088   0.303E-02 0.795E-03
CGA:  12    -0.334803512920E+03   -0.67752E-03   -0.65324E-03 11088   0.123E-02 0.687E-03
CGA:  13    -0.334803825325E+03   -0.31241E-03   -0.31519E-03 11088   0.113E-02-0.625E-04
CGA:  14    -0.334803924150E+03   -0.98824E-04   -0.10686E-03 11088   0.302E-03 0.118E-03
CGA:  15    -0.334803952161E+03   -0.28011E-04   -0.36339E-04 11088   0.197E-03 0.155E-03
CGA:  16    -0.334803971648E+03   -0.19487E-04   -0.21398E-04 11088   0.135E-03 0.370E-04
CGA:  17    -0.334803997383E+03   -0.25735E-04   -0.25634E-04 11088   0.593E-04 0.414E-04
CGA:  18    -0.334804000019E+03   -0.26360E-05   -0.56576E-05 11088   0.334E-04 0.356E-04
  19 F= -.33480400E+03 E0= -.33480109E+03  d E =-.800193E-02  mag=     7.9982
       N       E                     dE             d eps       ncg     rms          ort
SDA:   1    -0.297268916652E+03    0.37535E+02    0.00000E+00 11088   0.146E+03 0.000E+00
CGA:   2    -0.317570548682E+03   -0.20302E+02   -0.21385E+02 11088   0.440E+02 0.369E+02
CGA:   3    -0.329987531327E+03   -0.12417E+02   -0.13219E+02 11088   0.498E+02-0.101E+02
CGA:   4    -0.332800775760E+03   -0.28132E+01   -0.30535E+01 11088   0.108E+02-0.786E+00
CGA:   5    -0.333670237976E+03   -0.86946E+00   -0.87446E+00 11088   0.566E+01-0.273E+00
CGA:   6    -0.334247194009E+03   -0.57696E+00   -0.55889E+00 11088   0.232E+01 0.957E-02
CGA:   7    -0.334507844695E+03   -0.26065E+00   -0.26339E+00 11088   0.135E+01 0.242E-01
CGA:   8    -0.334632796789E+03   -0.12495E+00   -0.12418E+00 11088   0.492E+00 0.278E-01
CGA:   9    -0.334701438125E+03   -0.68641E-01   -0.68784E-01 11088   0.384E+00 0.114E-01
CGA:  10    -0.334740474229E+03   -0.39036E-01   -0.38453E-01 11088   0.148E+00-0.139E-02
CGA:  11    -0.334760388068E+03   -0.19914E-01   -0.19931E-01 11088   0.145E+00-0.153E-02
CGA:  12    -0.334772828562E+03   -0.12440E-01   -0.12563E-01 11088   0.363E-01 0.293E-02
CGA:  13    -0.334777915630E+03   -0.50871E-02   -0.51046E-02 11088   0.411E-01 0.500E-02
CGA:  14    -0.334782268619E+03   -0.43530E-02   -0.44693E-02 11088   0.132E-01 0.226E-02
CGA:  15    -0.334784637423E+03   -0.23688E-02   -0.23765E-02 11088   0.525E-02-0.295E-03
CGA:  16    -0.334785389182E+03   -0.75176E-03   -0.74859E-03 11088   0.522E-02 0.578E-03
CGA:  17    -0.334786025585E+03   -0.63640E-03   -0.64204E-03 11088   0.165E-02 0.152E-03
CGA:  18    -0.334786205757E+03   -0.18017E-03   -0.19322E-03 11088   0.104E-02 0.503E-03
CGA:  19    -0.334786409558E+03   -0.20380E-03   -0.20006E-03 11088   0.358E-03 0.393E-03
CGA:  20    -0.334786546602E+03   -0.13704E-03   -0.12863E-03 11088   0.572E-03 0.669E-04
CGA:  21    -0.334786579326E+03   -0.32723E-04   -0.47759E-04 11088   0.215E-03 0.201E-03
CGA:  22    -0.334786613693E+03   -0.34367E-04   -0.36584E-04 11088   0.285E-03 0.151E-03
CGA:  23    -0.334786650911E+03   -0.37218E-04   -0.54134E-04 11088   0.146E-02-0.339E-03
CGA:  24    -0.334786694833E+03   -0.43922E-04   -0.61469E-04 11088   0.854E-04 0.192E-03
CGA:  25    -0.334786700467E+03   -0.56342E-05   -0.79695E-05 11088   0.109E-03 0.421E-04
CGA:  26    -0.334786745776E+03   -0.45309E-04    0.30603E-03 11088   0.101E-03 0.126E-03
CGA:  27    -0.334786777544E+03   -0.31768E-04    0.39647E-04 11088   0.241E-03-0.515E-04
CGA:  28    -0.334786782087E+03   -0.45428E-05   -0.10043E-04 11088   0.462E-04 0.597E-04
  20 F= -.33478678E+03 E0= -.33478407E+03  d E =0.172179E-01  mag=     7.9981
       N       E                     dE             d eps       ncg     rms          ort
SDA:   1    -0.287387800354E+03    0.47399E+02    0.00000E+00 11088   0.136E+03 0.000E+00
CGA:   2    -0.318128150514E+03   -0.30740E+02   -0.28070E+02 11088   0.535E+02 0.257E+02
CGA:   3    -0.329562784898E+03   -0.11435E+02   -0.11835E+02 11088   0.365E+02-0.520E+01
CGA:   4    -0.332887793191E+03   -0.33250E+01   -0.34459E+01 11088   0.953E+01 0.183E+00
CGA:   5    -0.333967283033E+03   -0.10795E+01   -0.10744E+01 11088   0.261E+01-0.103E+00
CGA:   6    -0.334349112448E+03   -0.38183E+00   -0.38177E+00 11088   0.174E+01 0.475E-02
CGA:   7    -0.334517976307E+03   -0.16886E+00   -0.17361E+00 11088   0.577E+00 0.324E-01
CGA:   8    -0.334595329850E+03   -0.77354E-01   -0.77386E-01 11088   0.355E+00 0.230E-01
CGA:   9    -0.334639618489E+03   -0.44289E-01   -0.44285E-01 11088   0.179E+00 0.397E-02
CGA:  10    -0.334664630599E+03   -0.25012E-01   -0.25008E-01 11088   0.147E+00-0.133E-02
CGA:  11    -0.334679204558E+03   -0.14574E-01   -0.14623E-01 11088   0.544E-01 0.496E-02
CGA:  12    -0.334687503394E+03   -0.82988E-02   -0.82109E-02 11088   0.382E-01 0.572E-02
CGA:  13    -0.334691707870E+03   -0.42045E-02   -0.42275E-02 11088   0.223E-01-0.595E-04
CGA:  14    -0.334694416022E+03   -0.27082E-02   -0.27170E-02 11088   0.828E-02 0.110E-02
CGA:  15    -0.334695565711E+03   -0.11497E-02   -0.11487E-02 11088   0.581E-02 0.337E-03
CGA:  16    -0.334696273692E+03   -0.70798E-03   -0.70754E-03 11088   0.340E-02-0.610E-04
CGA:  17    -0.334696485242E+03   -0.21155E-03   -0.25967E-03 11088   0.122E-02 0.921E-03
CGA:  18    -0.334696636573E+03   -0.15133E-03   -0.16358E-03 11088   0.120E-02 0.576E-03
CGA:  19    -0.334696902651E+03   -0.26608E-03   -0.27115E-03 11088   0.107E-02-0.184E-03
CGA:  20    -0.334697007005E+03   -0.10435E-03   -0.10532E-03 11088   0.693E-03 0.876E-04
CGA:  21    -0.334697110429E+03   -0.10342E-03   -0.10193E-03 11088   0.853E-03 0.153E-03
CGA:  22    -0.334697286573E+03   -0.17614E-03   -0.19911E-03 11088   0.104E-02-0.369E-03
CGA:  23    -0.334697342358E+03   -0.55785E-04   -0.58078E-04 11088   0.874E-03 0.619E-04
CGA:  24    -0.334697440208E+03   -0.97850E-04   -0.99449E-04 11088   0.728E-03 0.609E-04
CGA:  25    -0.334697013913E+03    0.42629E-03   -0.36725E-03 11088   0.714E-02-0.234E-02
CGA:  26    -0.334697551889E+03   -0.53798E-03   -0.55918E-03 11088   0.233E-02 0.508E-03
CGA:  27    -0.334697946145E+03   -0.39426E-03   -0.42954E-03 11088   0.120E-02-0.118E-02
CGA:  28    -0.334698009303E+03   -0.63158E-04   -0.83753E-04 11088   0.365E-03 0.284E-03
CGA:  29    -0.334698086516E+03   -0.77213E-04   -0.10352E-03 11088   0.451E-03-0.293E-03
CGA:  30    -0.334696797112E+03    0.12894E-02   -0.70498E-03 11088   0.138E-01-0.218E-02
CGA:  31    -0.334698388950E+03   -0.15918E-02   -0.15768E-02 11088   0.305E-02-0.843E-04
CGA:  32    -0.334698498351E+03   -0.10940E-03   -0.17396E-03 11088   0.154E-03 0.368E-03
CGA:  33    -0.334698498540E+03   -0.18911E-06   -0.10269E-04 11088   0.479E-04 0.539E-04
  21 F= -.33469850E+03 E0= -.33469536E+03  d E =0.882835E-01  mag=     7.9986
       N       E                     dE             d eps       ncg     rms          ort
SDA:   1    -0.279364498201E+03    0.55334E+02    0.00000E+00 11088   0.189E+03 0.000E+00
CGA:   2    -0.310286213939E+03   -0.30922E+02   -0.33382E+02 11088   0.981E+02 0.112E+02
CGA:   3    -0.326206696232E+03   -0.15920E+02   -0.15626E+02 11088   0.467E+02-0.643E+00
CGA:   4    -0.331486770488E+03   -0.52801E+01   -0.47364E+01 11088   0.238E+02 0.722E+00
CGA:   5    -0.332519319031E+03   -0.10325E+01   -0.17177E+01 11088   0.188E+02-0.429E+01
CGA:   6    -0.333672659888E+03   -0.11533E+01   -0.12303E+01 11088   0.775E+01-0.737E+00
CGA:   7    -0.334072213286E+03   -0.39955E+00   -0.28638E+00 11088   0.329E+01 0.267E+01
CGA:   8    -0.334249699217E+03   -0.17749E+00   -0.11379E+00 11088   0.197E+01 0.243E+01
CGA:   9    -0.334431984800E+03   -0.18229E+00   -0.18942E+00 11088   0.124E+01-0.191E-01
CGA:  10    -0.334607870909E+03   -0.17589E+00   -0.17789E+00 11088   0.675E+00 0.235E-01
CGA:  11    -0.334686757272E+03   -0.78886E-01   -0.82443E-01 11088   0.447E+00 0.276E-02
CGA:  12    -0.334737942086E+03   -0.51185E-01   -0.48268E-01 11088   0.123E+00 0.144E-01
CGA:  13    -0.334766447516E+03   -0.28505E-01   -0.28031E-01 11088   0.901E-01 0.933E-02
CGA:  14    -0.334779415917E+03   -0.12968E-01   -0.13106E-01 11088   0.493E-01 0.362E-02
CGA:  15    -0.334790333451E+03   -0.10918E-01   -0.10903E-01 11088   0.147E-01 0.275E-03
CGA:  16    -0.334792503553E+03   -0.21701E-02   -0.22455E-02 11088   0.830E-02 0.301E-02
CGA:  17    -0.334793712316E+03   -0.12088E-02   -0.12747E-02 11088   0.501E-02 0.130E-02
CGA:  18    -0.334794316184E+03   -0.60387E-03   -0.64002E-03 11088   0.295E-02 0.635E-03
CGA:  19    -0.334794833982E+03   -0.51780E-03   -0.51518E-03 11088   0.226E-02-0.188E-03
CGA:  20    -0.334795030619E+03   -0.19664E-03   -0.24163E-03 11088   0.839E-03 0.805E-03
CGA:  21    -0.334795067265E+03   -0.36646E-04   -0.97744E-04 11088   0.534E-03 0.760E-03
CGA:  22    -0.334795113297E+03   -0.46032E-04   -0.60528E-04 11088   0.376E-03 0.296E-03
CGA:  23    -0.334795137777E+03   -0.24481E-04   -0.37066E-04 11088   0.300E-03 0.204E-03
CGA:  24    -0.334795168341E+03   -0.30564E-04   -0.35396E-04 11088   0.328E-03 0.125E-03
CGA:  25    -0.334795193584E+03   -0.25243E-04   -0.45660E-04 11088   0.175E-03 0.361E-03
CGA:  26    -0.334795198722E+03   -0.51380E-05   -0.14122E-04 11088   0.140E-03 0.125E-03
CGA:  27    -0.334795207648E+03   -0.89253E-05   -0.14410E-04 11088   0.131E-03 0.120E-03
  22 F= -.33479521E+03 E0= -.33479183E+03  d E =-.967091E-01  mag=     7.9857
       N       E                     dE             d eps       ncg     rms          ort
SDA:   1    -0.311089860718E+03    0.23705E+02    0.00000E+00 11088   0.651E+02 0.000E+00
CGA:   2    -0.325146661555E+03   -0.14057E+02   -0.13662E+02 11088   0.352E+02 0.597E+01
CGA:   3    -0.330921616158E+03   -0.57750E+01   -0.57678E+01 11088   0.173E+02 0.931E+00
CGA:   4    -0.332942089917E+03   -0.20205E+01   -0.20525E+01 11088   0.490E+01 0.302E+00
CGA:   5    -0.333636847664E+03   -0.69476E+00   -0.68363E+00 11088   0.252E+01-0.664E+00
CGA:   6    -0.333885139645E+03   -0.24829E+00   -0.24903E+00 11088   0.864E+00-0.303E-02
CGA:   7    -0.333993808416E+03   -0.10867E+00   -0.10927E+00 11088   0.269E+00 0.223E-01
CGA:   8    -0.334044041821E+03   -0.50233E-01   -0.49945E-01 11088   0.223E+00 0.580E-02
CGA:   9    -0.334073405843E+03   -0.29364E-01   -0.29239E-01 11088   0.106E+00-0.836E-02
CGA:  10    -0.334087414823E+03   -0.14009E-01   -0.13976E-01 11088   0.769E-01-0.385E-02
CGA:  11    -0.334096291434E+03   -0.88766E-02   -0.88587E-02 11088   0.295E-01-0.880E-03
CGA:  12    -0.334100693889E+03   -0.44025E-02   -0.43771E-02 11088   0.119E-01 0.295E-02
CGA:  13    -0.334102661648E+03   -0.19678E-02   -0.19637E-02 11088   0.612E-02 0.412E-03
CGA:  14    -0.334103621538E+03   -0.95989E-03   -0.97010E-03 11088   0.394E-02-0.946E-03
CGA:  15    -0.334103912560E+03   -0.29102E-03   -0.31942E-03 11088   0.141E-02 0.618E-03
CGA:  16    -0.334104044707E+03   -0.13215E-03   -0.15620E-03 11088   0.671E-03 0.531E-03
CGA:  17    -0.334104134763E+03   -0.90055E-04   -0.98165E-04 11088   0.348E-03 0.252E-03
CGA:  18    -0.334104189315E+03   -0.54552E-04   -0.56061E-04 11088   0.250E-03 0.774E-04
CGA:  19    -0.334104244951E+03   -0.55636E-04   -0.59793E-04 11088   0.235E-03-0.703E-04
CGA:  20    -0.334104242218E+03    0.27330E-05   -0.74882E-05 11088   0.168E-03 0.108E-03
  23 F= -.33410424E+03 E0= -.33410174E+03  d E =0.690965E+00  mag=     8.0000
       N       E                     dE             d eps       ncg     rms          ort
SDA:   1    -0.332412429556E+03    0.16918E+01    0.00000E+00 11088   0.510E+01 0.000E+00
CGA:   2    -0.334034520222E+03   -0.16221E+01   -0.16097E+01 11088   0.264E+01 0.704E-01
CGA:   3    -0.334304661535E+03   -0.27014E+00   -0.24309E+00 11088   0.144E+01 0.443E-01
CGA:   4    -0.334492371006E+03   -0.18771E+00   -0.18810E+00 11088   0.408E+00 0.222E-01
CGA:   5    -0.334549805386E+03   -0.57434E-01   -0.57452E-01 11088   0.150E+00-0.663E-02
CGA:   6    -0.334567627731E+03   -0.17822E-01   -0.17839E-01 11088   0.705E-01-0.626E-03
CGA:   7    -0.334577858794E+03   -0.10231E-01   -0.10222E-01 11088   0.234E-01 0.986E-03
CGA:   8    -0.334582670428E+03   -0.48116E-02   -0.46821E-02 11088   0.137E-01 0.211E-02
CGA:   9    -0.334584560768E+03   -0.18903E-02   -0.18788E-02 11088   0.125E-01-0.104E-02
CGA:  10    -0.334586037333E+03   -0.14766E-02   -0.14758E-02 11088   0.340E-02-0.544E-04
CGA:  11    -0.334586675282E+03   -0.63795E-03   -0.61481E-03 11088   0.182E-02 0.521E-03
CGA:  12    -0.334586974650E+03   -0.29937E-03   -0.30158E-03 11088   0.172E-02-0.526E-03
CGA:  13    -0.334587121845E+03   -0.14719E-03   -0.13959E-03 11088   0.681E-03-0.291E-03
CGA:  14    -0.334587202986E+03   -0.81141E-04   -0.84348E-04 11088   0.865E-03-0.311E-03
CGA:  15    -0.334587268163E+03   -0.65178E-04   -0.64766E-04 11088   0.424E-03-0.336E-03
CGA:  16    -0.334587275665E+03   -0.75020E-05   -0.11850E-04 11088   0.221E-03 0.456E-04
CGA:  17    -0.334587281829E+03   -0.61633E-05   -0.13666E-04 11088   0.188E-03 0.953E-04
CGA:  18    -0.334587295533E+03   -0.13705E-04   -0.19207E-04 11088   0.105E-03 0.931E-04
CGA:  19    -0.334587311098E+03   -0.15565E-04   -0.14718E-04 11088   0.948E-04-0.253E-04
CGA:  20    -0.334587319494E+03   -0.83955E-05   -0.79446E-05 11088   0.908E-04-0.294E-04
  24 F= -.33458732E+03 E0= -.33458474E+03  d E =-.483077E+00  mag=     7.9994
       N       E                     dE             d eps       ncg     rms          ort
SDA:   1    -0.333994956122E+03    0.59235E+00    0.00000E+00 11088   0.174E+01 0.000E+00
CGA:   2    -0.334558797049E+03   -0.56384E+00   -0.56020E+00 11088   0.664E+00 0.184E-01
CGA:   3    -0.334668353049E+03   -0.10956E+00   -0.10942E+00 11088   0.342E+00 0.492E-02
CGA:   4    -0.334705927312E+03   -0.37574E-01   -0.37874E-01 11088   0.166E+00 0.145E-03
CGA:   5    -0.334721659321E+03   -0.15732E-01   -0.15529E-01 11088   0.407E-01-0.982E-03
CGA:   6    -0.334728783326E+03   -0.71240E-02   -0.72308E-02 11088   0.183E-01-0.219E-02
CGA:   7    -0.334730885448E+03   -0.21021E-02   -0.21156E-02 11088   0.112E-01 0.136E-02
CGA:   8    -0.334732400925E+03   -0.15155E-02   -0.15173E-02 11088   0.503E-02 0.313E-03
CGA:   9    -0.334733158582E+03   -0.75766E-03   -0.75368E-03 11088   0.315E-02 0.290E-03
CGA:  10    -0.334733653833E+03   -0.49525E-03   -0.50979E-03 11088   0.258E-02-0.703E-03
CGA:  11    -0.334733846583E+03   -0.19275E-03   -0.19862E-03 11088   0.806E-03 0.177E-03
CGA:  12    -0.334733993415E+03   -0.14683E-03   -0.14680E-03 11088   0.515E-03 0.455E-06
CGA:  13    -0.334733953669E+03    0.39745E-04   -0.15440E-03 11088   0.392E-02-0.117E-02
CGA:  14    -0.334734140588E+03   -0.18692E-03   -0.20805E-03 11088   0.305E-03 0.265E-03
CGA:  15    -0.334734195749E+03   -0.55161E-04   -0.59381E-04 11088   0.380E-03-0.941E-04
CGA:  16    -0.334734215577E+03   -0.19828E-04   -0.18455E-04 11088   0.981E-04-0.201E-04
CGA:  17    -0.334734220726E+03   -0.51492E-05   -0.54395E-05 11088   0.528E-04 0.348E-05
CGA:  18    -0.334734219405E+03    0.13207E-05   -0.20009E-04 11088   0.287E-03-0.915E-04
CGA:  19    -0.334734252384E+03   -0.32979E-04   -0.28454E-04 11088   0.126E-03-0.102E-03
CGA:  20    -0.334734275539E+03   -0.23155E-04    0.93597E-03 11088   0.175E-04-0.174E-04
CGA:  21    -0.334734277668E+03   -0.21289E-05   -0.23107E-05 11088   0.407E-04-0.162E-04
  25 F= -.33473428E+03 E0= -.33473150E+03  d E =-.146958E+00  mag=     7.9975
       N       E                     dE             d eps       ncg     rms          ort
SDA:   1    -0.333830944485E+03    0.90333E+00    0.00000E+00 11088   0.234E+01 0.000E+00
CGA:   2    -0.334570270058E+03   -0.73933E+00   -0.73540E+00 11088   0.955E+00 0.225E-01
CGA:   3    -0.334721644051E+03   -0.15137E+00   -0.15137E+00 11088   0.509E+00 0.278E-02
CGA:   4    -0.334773544186E+03   -0.51900E-01   -0.53253E-01 11088   0.258E+00-0.855E-03
CGA:   5    -0.334798744140E+03   -0.25200E-01   -0.24827E-01 11088   0.602E-01-0.513E-03
CGA:   6    -0.334808642207E+03   -0.98981E-02   -0.99564E-02 11088   0.276E-01-0.246E-02
CGA:   7    -0.334811836467E+03   -0.31943E-02   -0.32159E-02 11088   0.180E-01 0.101E-02
CGA:   8    -0.334814163088E+03   -0.23266E-02   -0.23304E-02 11088   0.803E-02 0.144E-03
CGA:   9    -0.334815259122E+03   -0.10960E-02   -0.10982E-02 11088   0.503E-02 0.434E-03
CGA:  10    -0.334816051322E+03   -0.79220E-03   -0.79912E-03 11088   0.315E-02-0.706E-03
CGA:  11    -0.334816359069E+03   -0.30775E-03   -0.30948E-03 11088   0.144E-02 0.747E-04
CGA:  12    -0.334816614986E+03   -0.25592E-03   -0.29039E-03 11088   0.177E-02-0.599E-03
CGA:  13    -0.334816717479E+03   -0.10249E-03   -0.82670E-04 11088   0.528E-03-0.319E-03
CGA:  14    -0.334814844636E+03    0.18728E-02   -0.10162E-02 11088   0.316E-01-0.299E-02
CGA:  15    -0.334816605506E+03   -0.17609E-02   -0.17692E-02 11088   0.327E-02 0.416E-03
CGA:  16    -0.334816845890E+03   -0.24038E-03   -0.32474E-03 11088   0.113E-02 0.585E-03
CGA:  17    -0.334816979564E+03   -0.13367E-03   -0.14688E-03 11088   0.333E-03 0.105E-03
CGA:  18    -0.334817040693E+03   -0.61130E-04   -0.15996E-03 11088   0.184E-02-0.475E-03
CGA:  19    -0.334817098617E+03   -0.57924E-04   -0.10753E-03 11088   0.297E-03 0.255E-03
CGA:  20    -0.334817102056E+03   -0.34390E-05   -0.24966E-04 11088   0.118E-03 0.136E-03
CGA:  21    -0.334817109545E+03   -0.74890E-05   -0.14780E-04 11088   0.574E-04 0.526E-04
CGA:  22    -0.334817127164E+03   -0.17619E-04   -0.22051E-04 11088   0.225E-03-0.920E-04
CGA:  23    -0.334817153394E+03   -0.26230E-04   -0.17310E-04 11088   0.894E-04-0.640E-04
CGA:  24    -0.334817157547E+03   -0.41534E-05   -0.61300E-05 11088   0.200E-04 0.170E-04
  26 F= -.33481716E+03 E0= -.33481423E+03  d E =-.828799E-01  mag=     7.9957
       N       E                     dE             d eps       ncg     rms          ort
SDA:   1    -0.334519231777E+03    0.29792E+00    0.00000E+00 11088   0.773E+00 0.000E+00
CGA:   2    -0.334721958178E+03   -0.20273E+00   -0.20299E+00 11088   0.725E+00-0.838E-03
CGA:   3    -0.334775052361E+03   -0.53094E-01   -0.61629E-01 11088   0.324E+00-0.631E-01
CGA:   4    -0.334810222997E+03   -0.35171E-01   -0.34818E-01 11088   0.821E-01 0.250E-02
CGA:   5    -0.334822562364E+03   -0.12339E-01   -0.12249E-01 11088   0.369E-01-0.204E-02
CGA:   6    -0.334826057293E+03   -0.34949E-02   -0.34896E-02 11088   0.130E-01-0.318E-03
CGA:   7    -0.334827839654E+03   -0.17824E-02   -0.17513E-02 11088   0.824E-02-0.732E-03
CGA:   8    -0.334828596995E+03   -0.75734E-03   -0.78207E-03 11088   0.312E-02 0.348E-03
CGA:   9    -0.334829215380E+03   -0.61838E-03   -0.61714E-03 11088   0.117E-02 0.128E-03
CGA:  10    -0.334829451889E+03   -0.23651E-03   -0.23549E-03 11088   0.969E-03 0.776E-04
CGA:  11    -0.334829596798E+03   -0.14491E-03   -0.12700E-03 11088   0.885E-03-0.315E-03
CGA:  12    -0.334829690391E+03   -0.93593E-04   -0.86400E-04 11088   0.353E-03-0.215E-03
CGA:  13    -0.334827941700E+03    0.17487E-02   -0.95106E-03 11088   0.237E-01-0.211E-02
CGA:  14    -0.334829431102E+03   -0.14894E-02   -0.15296E-02 11088   0.251E-02-0.752E-04
CGA:  15    -0.334829789422E+03   -0.35832E-03   -0.35794E-03 11088   0.172E-02-0.136E-04
CGA:  16    -0.334829878600E+03   -0.89179E-04   -0.12119E-03 11088   0.303E-03 0.162E-03
CGA:  17    -0.334829945451E+03   -0.66850E-04   -0.73937E-04 11088   0.289E-03 0.107E-03
CGA:  18    -0.334829993071E+03   -0.47620E-04   -0.40000E-04 11088   0.248E-03-0.442E-04
CGA:  19    -0.334830027249E+03   -0.34178E-04   -0.34966E-04 11088   0.853E-04 0.737E-05
CGA:  20    -0.334830041709E+03   -0.14460E-04   -0.15933E-04 11088   0.721E-04 0.164E-04
CGA:  21    -0.334830057496E+03   -0.15788E-04   -0.10122E-04 11088   0.678E-04-0.384E-04
CGA:  22    -0.334830057339E+03    0.15740E-06   -0.28607E-05 11088   0.108E-04 0.142E-04
  27 F= -.33483006E+03 E0= -.33482719E+03  d E =-.128998E-01  mag=     7.9963
       N       E                     dE             d eps       ncg     rms          ort
SDA:   1    -0.334813038366E+03    0.17019E-01    0.00000E+00 11088   0.664E-01 0.000E+00
CGA:   2    -0.334821101739E+03   -0.80634E-02   -0.79989E-02 11088   0.586E-01 0.193E-02
CGA:   3    -0.334827863392E+03   -0.67617E-02   -0.68129E-02 11088   0.231E-01-0.824E-03
CGA:   4    -0.334831453423E+03   -0.35900E-02   -0.35899E-02 11088   0.739E-02 0.837E-05
CGA:   5    -0.334832300456E+03   -0.84703E-03   -0.81595E-03 11088   0.331E-02-0.278E-03
CGA:   6    -0.334832570855E+03   -0.27040E-03   -0.28595E-03 11088   0.846E-03 0.128E-03
CGA:   7    -0.334832721328E+03   -0.15047E-03   -0.14531E-03 11088   0.625E-03-0.109E-03
CGA:   8    -0.334832766181E+03   -0.44853E-04   -0.48922E-04 11088   0.170E-03 0.336E-04
CGA:   9    -0.334832806986E+03   -0.40806E-04   -0.42550E-04 11088   0.184E-03-0.524E-04
CGA:  10    -0.334832821130E+03   -0.14144E-04   -0.11473E-04 11088   0.847E-04-0.230E-04
CGA:  11    -0.334832834742E+03   -0.13612E-04   -0.13084E-04 11088   0.830E-04-0.221E-04
CGA:  12    -0.334832845339E+03   -0.10597E-04   -0.70829E-05 11088   0.580E-04-0.420E-04
CGA:  13    -0.334832855414E+03   -0.10074E-04   -0.91495E-05 11088   0.607E-04-0.247E-04
CGA:  14    -0.334832829760E+03    0.25653E-04   -0.14663E-04 11088   0.741E-03-0.177E-03
CGA:  15    -0.334832858049E+03   -0.28289E-04   -0.40085E-04 11088   0.121E-03 0.784E-04
CGA:  16    -0.334832874863E+03   -0.16814E-04   -0.17173E-04 11088   0.312E-04 0.516E-05
CGA:  17    -0.334832878850E+03   -0.39872E-05   -0.30474E-05 11088   0.982E-05-0.947E-05
  28 F= -.33483288E+03 E0= -.33483008E+03  d E =-.282151E-02  mag=     7.9972
       N       E                     dE             d eps       ncg     rms          ort
SDA:   1    -0.334821091359E+03    0.11784E-01    0.00000E+00 11088   0.454E-01 0.000E+00
CGA:   2    -0.334826138939E+03   -0.50476E-02   -0.50360E-02 11088   0.368E-01 0.103E-02
CGA:   3    -0.334830628863E+03   -0.44899E-02   -0.44628E-02 11088   0.149E-01-0.791E-03
CGA:   4    -0.334832999741E+03   -0.23709E-02   -0.23681E-02 11088   0.486E-02-0.149E-03
CGA:   5    -0.334833551792E+03   -0.55205E-03   -0.53565E-03 11088   0.220E-02-0.243E-03
CGA:   6    -0.334833706978E+03   -0.15519E-03   -0.17150E-03 11088   0.494E-03 0.176E-03
CGA:   7    -0.334833792120E+03   -0.85142E-04   -0.85129E-04 11088   0.270E-03-0.107E-05
CGA:   8    -0.334833820189E+03   -0.28069E-04   -0.28977E-04 11088   0.966E-04 0.137E-04
CGA:   9    -0.334833831731E+03   -0.11542E-04   -0.43240E-04 11088   0.277E-03-0.123E-03
CGA:  10    -0.334833863591E+03   -0.31861E-04   -0.30304E-04 11088   0.123E-03-0.217E-04
CGA:  11    -0.334833867823E+03   -0.42315E-05   -0.70521E-05 11088   0.236E-04 0.245E-04
  29 F= -.33483387E+03 E0= -.33483110E+03  d E =-.988973E-03  mag=     7.9975
       N       E                     dE             d eps       ncg     rms          ort
SDA:   1    -0.334806279216E+03    0.27584E-01    0.00000E+00 11088   0.957E-01 0.000E+00
CGA:   2    -0.334819653971E+03   -0.13375E-01   -0.13403E-01 11088   0.723E-01 0.964E-03
CGA:   3    -0.334827404638E+03   -0.77507E-02   -0.77318E-02 11088   0.387E-01-0.124E-02
CGA:   4    -0.334832464870E+03   -0.50602E-02   -0.50587E-02 11088   0.126E-01 0.172E-03
CGA:   5    -0.334833879157E+03   -0.14143E-02   -0.13891E-02 11088   0.394E-02-0.473E-03
CGA:   6    -0.334834260702E+03   -0.38155E-03   -0.39364E-03 11088   0.102E-02 0.212E-03
CGA:   7    -0.334834425504E+03   -0.16480E-03   -0.16398E-03 11088   0.926E-03-0.134E-03
CGA:   8    -0.334834476996E+03   -0.51492E-04   -0.58416E-04 11088   0.199E-03 0.811E-04
CGA:   9    -0.334834505645E+03   -0.28649E-04   -0.29045E-04 11088   0.205E-03 0.202E-04
CGA:  10    -0.334834537097E+03   -0.31452E-04   -0.27472E-04 11088   0.159E-03-0.128E-03
CGA:  11    -0.334834541712E+03   -0.46153E-05   -0.82647E-05 11088   0.391E-04 0.370E-04
CGA:  12    -0.334834550579E+03   -0.88666E-05   -0.11284E-04 11088   0.543E-04-0.275E-04
CGA:  13    -0.334834549643E+03    0.93552E-06   -0.14595E-04 11088   0.572E-03-0.132E-03
CGA:  14    -0.334834562878E+03   -0.13234E-04   -0.22496E-04 11088   0.218E-04 0.819E-04
CGA:  15    -0.334834562669E+03    0.20823E-06   -0.94948E-06 11088   0.800E-05 0.103E-04
  30 F= -.33483456E+03 E0= -.33483177E+03  d E =-.694847E-03  mag=     7.9974
       N       E                     dE             d eps       ncg     rms          ort
SDA:   1    -0.334729670711E+03    0.10489E+00    0.00000E+00 11088   0.281E+00 0.000E+00
CGA:   2    -0.334792609108E+03   -0.62938E-01   -0.62940E-01 11088   0.248E+00 0.156E-03
CGA:   3    -0.334817141654E+03   -0.24533E-01   -0.24937E-01 11088   0.130E+00-0.240E-02
CGA:   4    -0.334830249067E+03   -0.13107E-01   -0.13056E-01 11088   0.242E-01 0.488E-03
CGA:   5    -0.334833597279E+03   -0.33482E-02   -0.33465E-02 11088   0.764E-02-0.453E-03
CGA:   6    -0.334834342533E+03   -0.74525E-03   -0.76332E-03 11088   0.334E-02 0.445E-03
CGA:   7    -0.334834786256E+03   -0.44372E-03   -0.44225E-03 11088   0.146E-02-0.108E-03
CGA:   8    -0.334834913270E+03   -0.12701E-03   -0.13474E-03 11088   0.532E-03 0.182E-03
CGA:   9    -0.334835025955E+03   -0.11269E-03   -0.12592E-03 11088   0.406E-03-0.180E-03
CGA:  10    -0.334835048978E+03   -0.23023E-04   -0.24745E-04 11088   0.202E-03 0.359E-04
CGA:  11    -0.334835085325E+03   -0.36347E-04   -0.37649E-04 11088   0.142E-03-0.393E-04
CGA:  12    -0.334835101272E+03   -0.15947E-04   -0.23790E-04 11088   0.284E-03-0.116E-03
CGA:  13    -0.334835114281E+03   -0.13009E-04   -0.17020E-04 11088   0.461E-04 0.478E-04
CGA:  14    -0.334835123312E+03   -0.90315E-05   -0.94432E-05 11088   0.399E-04-0.113E-04
  31 F= -.33483512E+03 E0= -.33483229E+03  d E =-.560643E-03  mag=     7.9972
       N       E                     dE             d eps       ncg     rms          ort
SDA:   1    -0.334521805692E+03    0.31331E+00    0.00000E+00 11088   0.772E+00 0.000E+00
CGA:   2    -0.334742032910E+03   -0.22023E+00   -0.22027E+00 11088   0.504E+00-0.489E-03
CGA:   3    -0.334806082933E+03   -0.64050E-01   -0.64072E-01 11088   0.221E+00 0.158E-02
CGA:   4    -0.334824288008E+03   -0.18205E-01   -0.18315E-01 11088   0.653E-01-0.307E-02
CGA:   5    -0.334831314272E+03   -0.70263E-02   -0.70250E-02 11088   0.190E-01 0.631E-03
CGA:   6    -0.334833737683E+03   -0.24234E-02   -0.24183E-02 11088   0.848E-02-0.422E-03
CGA:   7    -0.334834672922E+03   -0.93524E-03   -0.94813E-03 11088   0.265E-02 0.557E-03
CGA:   8    -0.334835084908E+03   -0.41199E-03   -0.41394E-03 11088   0.223E-02-0.196E-03
CGA:   9    -0.334835238985E+03   -0.15408E-03   -0.16327E-03 11088   0.547E-03 0.161E-03
CGA:  10    -0.334835383446E+03   -0.14446E-03   -0.15776E-03 11088   0.644E-03-0.990E-04
CGA:  11    -0.334835439253E+03   -0.55807E-04   -0.45594E-04 11088   0.450E-03-0.190E-03
CGA:  12    -0.334835491693E+03   -0.52440E-04   -0.53006E-04 11088   0.169E-03-0.198E-04
CGA:  13    -0.334835505699E+03   -0.14006E-04   -0.14517E-04 11088   0.137E-03 0.104E-04
CGA:  14    -0.334835030236E+03    0.47546E-03   -0.25634E-03 11088   0.391E-02-0.817E-03
CGA:  15    -0.334835259189E+03   -0.22895E-03   -0.27471E-03 11088   0.157E-02 0.346E-03
CGA:  16    -0.334835488528E+03   -0.22934E-03   -0.23888E-03 11088   0.310E-03 0.931E-04
CGA:  17    -0.334835568112E+03   -0.79584E-04   -0.85621E-04 11088   0.414E-03-0.247E-03
CGA:  18    -0.334835585992E+03   -0.17880E-04   -0.32792E-04 11088   0.448E-04 0.945E-04
CGA:  19    -0.334835585760E+03    0.23159E-06   -0.41178E-05 11088   0.240E-04 0.282E-04
  32 F= -.33483559E+03 E0= -.33483262E+03  d E =-.462448E-03  mag=     7.9961
       N       E                     dE             d eps       ncg     rms          ort
SDA:   1    -0.334692181746E+03    0.14340E+00    0.00000E+00 11088   0.352E+00 0.000E+00
CGA:   2    -0.334782063847E+03   -0.89882E-01   -0.90008E-01 11088   0.511E+00-0.210E-02
CGA:   3    -0.334816877942E+03   -0.34814E-01   -0.39879E-01 11088   0.129E+00-0.509E-01
CGA:   4    -0.334830721615E+03   -0.13844E-01   -0.13751E-01 11088   0.282E-01 0.125E-02
CGA:   5    -0.334834448716E+03   -0.37271E-02   -0.36821E-02 11088   0.144E-01-0.875E-03
CGA:   6    -0.334835553678E+03   -0.11050E-02   -0.11294E-02 11088   0.363E-02 0.421E-03
CGA:   7    -0.334836211730E+03   -0.65805E-03   -0.65896E-03 11088   0.121E-02 0.270E-04
CGA:   8    -0.334836337990E+03   -0.12626E-03   -0.13937E-03 11088   0.697E-03 0.146E-03
CGA:   9    -0.334836454446E+03   -0.11646E-03   -0.10974E-03 11088   0.447E-03-0.112E-03
CGA:  10    -0.334836483495E+03   -0.29049E-04   -0.34058E-04 11088   0.169E-03 0.472E-04
CGA:  11    -0.334836521492E+03   -0.37996E-04   -0.38043E-04 11088   0.112E-03-0.442E-05
CGA:  12    -0.334836543181E+03   -0.21690E-04   -0.22716E-04 11088   0.249E-03-0.681E-04
CGA:  13    -0.334836547481E+03   -0.42993E-05   -0.10999E-04 11088   0.316E-04 0.462E-04
  33 F= -.33483655E+03 E0= -.33483356E+03  d E =-.961721E-03  mag=     7.9961
       N       E                     dE             d eps       ncg     rms          ort
SDA:   1    -0.334824239179E+03    0.12304E-01    0.00000E+00 11088   0.428E-01 0.000E+00
CGA:   2    -0.334829798107E+03   -0.55589E-02   -0.55745E-02 11088   0.366E-01 0.842E-03
CGA:   3    -0.334833835348E+03   -0.40372E-02   -0.40275E-02 11088   0.164E-01-0.788E-03
CGA:   4    -0.334836010885E+03   -0.21755E-02   -0.21854E-02 11088   0.555E-02 0.264E-03
CGA:   5    -0.334836624730E+03   -0.61385E-03   -0.60173E-03 11088   0.185E-02-0.173E-03
CGA:   6    -0.334836802149E+03   -0.17742E-03   -0.18643E-03 11088   0.520E-03 0.135E-03
CGA:   7    -0.334836886027E+03   -0.83878E-04   -0.81955E-04 11088   0.515E-03-0.965E-04
CGA:   8    -0.334836910517E+03   -0.24491E-04   -0.30100E-04 11088   0.119E-03 0.603E-04
CGA:   9    -0.334836920855E+03   -0.10337E-04   -0.11644E-04 11088   0.111E-03 0.179E-04
CGA:  10    -0.334836925371E+03   -0.45163E-05   -0.40035E-04 11088   0.395E-03-0.227E-03
CGA:  11    -0.334836941936E+03   -0.16564E-04   -0.26135E-04 11088   0.130E-03 0.971E-04
CGA:  12    -0.334836956905E+03   -0.14969E-04   -0.16627E-04 11088   0.171E-04 0.288E-04
CGA:  13    -0.334836959875E+03   -0.29700E-05   -0.29895E-05 11088   0.141E-04 0.134E-05
  34 F= -.33483696E+03 E0= -.33483399E+03  d E =-.412394E-03  mag=     7.9964
       N       E                     dE             d eps       ncg     rms          ort
SDA:   1    -0.334811077144E+03    0.25880E-01    0.00000E+00 11088   0.641E-01 0.000E+00
CGA:   2    -0.334829135919E+03   -0.18059E-01   -0.18072E-01 11088   0.491E-01-0.119E-03
CGA:   3    -0.334834194973E+03   -0.50591E-02   -0.51030E-02 11088   0.199E-01 0.645E-03
CGA:   4    -0.334836162052E+03   -0.19671E-02   -0.19395E-02 11088   0.604E-02-0.568E-03
CGA:   5    -0.334836692901E+03   -0.53085E-03   -0.54358E-03 11088   0.182E-02 0.249E-03
CGA:   6    -0.334836963686E+03   -0.27079E-03   -0.26942E-03 11088   0.763E-03-0.192E-03
CGA:   7    -0.334837034713E+03   -0.71027E-04   -0.74636E-04 11088   0.224E-03 0.916E-04
CGA:   8    -0.334837078629E+03   -0.43916E-04   -0.45959E-04 11088   0.207E-03-0.559E-04
CGA:   9    -0.334837084143E+03   -0.55142E-05   -0.84665E-05 11088   0.765E-04 0.315E-04
  35 F= -.33483708E+03 E0= -.33483410E+03  d E =-.124268E-03  mag=     7.9964
       N       E                     dE             d eps       ncg     rms          ort
SDA:   1    -0.333569931676E+03    0.12671E+01    0.00000E+00 11088   0.309E+01 0.000E+00
CGA:   2    -0.334249148512E+03   -0.67922E+00   -0.72491E+00 11088   0.791E+01-0.423E+00
CGA:   3    -0.334656304482E+03   -0.40716E+00   -0.44842E+00 11088   0.103E+01-0.367E+00
CGA:   4    -0.334755740703E+03   -0.99436E-01   -0.10092E+00 11088   0.612E+00 0.160E-02
CGA:   5    -0.334804693847E+03   -0.48953E-01   -0.47244E-01 11088   0.142E+00 0.124E-01
CGA:   6    -0.334823201172E+03   -0.18507E-01   -0.18489E-01 11088   0.776E-01-0.239E-02
CGA:   7    -0.334830058841E+03   -0.68577E-02   -0.67990E-02 11088   0.316E-01-0.146E-02
CGA:   8    -0.334832936037E+03   -0.28772E-02   -0.29514E-02 11088   0.167E-01 0.190E-02
CGA:   9    -0.334834711617E+03   -0.17756E-02   -0.18103E-02 11088   0.512E-02 0.115E-02
CGA:  10    -0.334835474878E+03   -0.76326E-03   -0.77448E-03 11088   0.684E-02-0.998E-03
CGA:  11    -0.334835900423E+03   -0.42554E-03   -0.41305E-03 11088   0.196E-02-0.222E-03
CGA:  12    -0.334836002961E+03   -0.10254E-03   -0.12251E-03 11088   0.156E-02 0.325E-03
CGA:  13    -0.334836203208E+03   -0.20025E-03   -0.20543E-03 11088   0.935E-03 0.438E-03
CGA:  14    -0.334836301579E+03   -0.98371E-04   -0.92631E-04 11088   0.562E-03-0.129E-03
CGA:  15    -0.334836376216E+03   -0.74637E-04   -0.79355E-04 11088   0.376E-03-0.113E-03
CGA:  16    -0.334836401609E+03   -0.25393E-04   -0.25128E-04 11088   0.207E-03-0.716E-05
CGA:  17    -0.334836431683E+03   -0.30074E-04   -0.34962E-04 11088   0.392E-03-0.974E-04
CGA:  18    -0.334836438040E+03   -0.63572E-05   -0.90839E-05 11088   0.255E-03 0.337E-04
  36 F= -.33483644E+03 E0= -.33483332E+03  d E =0.646103E-03  mag=     7.9956
       N       E                     dE             d eps       ncg     rms          ort
SDA:   1    -0.333482708314E+03    0.13537E+01    0.00000E+00 11088   0.316E+01 0.000E+00
CGA:   2    -0.334353669802E+03   -0.87096E+00   -0.89419E+00 11088   0.598E+01-0.135E+00
CGA:   3    -0.334678135628E+03   -0.32447E+00   -0.37449E+00 11088   0.102E+01-0.324E+00
CGA:   4    -0.334761444829E+03   -0.83309E-01   -0.84985E-01 11088   0.391E+00 0.906E-02
CGA:   5    -0.334809760964E+03   -0.48316E-01   -0.48297E-01 11088   0.122E+00 0.410E-02
CGA:   6    -0.334820118063E+03   -0.10357E-01   -0.10354E-01 11088   0.674E-01-0.402E-02
CGA:   7    -0.334827202556E+03   -0.70845E-02   -0.70818E-02 11088   0.182E-01-0.297E-03
CGA:   8    -0.334829552388E+03   -0.23498E-02   -0.23214E-02 11088   0.906E-02 0.258E-02
CGA:   9    -0.334830522627E+03   -0.97024E-03   -0.97245E-03 11088   0.521E-02-0.577E-05
CGA:  10    -0.334831152595E+03   -0.62997E-03   -0.63044E-03 11088   0.246E-02-0.109E-03
CGA:  11    -0.334831544307E+03   -0.39171E-03   -0.50824E-03 11088   0.349E-02-0.125E-02
CGA:  12    -0.334831738812E+03   -0.19451E-03   -0.22352E-03 11088   0.594E-03 0.495E-03
CGA:  13    -0.334831794044E+03   -0.55232E-04   -0.64276E-04 11088   0.348E-03 0.375E-03
CGA:  14    -0.334831857251E+03   -0.63207E-04   -0.88118E-04 11088   0.115E-02-0.185E-03
CGA:  15    -0.334831930608E+03   -0.73357E-04   -0.72189E-04 11088   0.962E-04-0.172E-04
CGA:  16    -0.334831936880E+03   -0.62713E-05   -0.85131E-05 11088   0.735E-04 0.712E-04
CGA:  17    -0.334831956481E+03   -0.19601E-04    0.38739E-04 11088   0.707E-04 0.425E-04
CGA:  18    -0.334831961579E+03   -0.50982E-05   -0.61275E-05 11088   0.590E-04 0.310E-04
CGA:  19    -0.334831983942E+03   -0.22363E-04    0.43521E-04 11088   0.442E-04 0.667E-04
CGA:  20    -0.334831995204E+03   -0.11262E-04    0.33364E-04 11088   0.477E-04 0.117E-04
CGA:  21    -0.334832018654E+03   -0.23450E-04   -0.86289E-06 11088   0.407E-03-0.352E-04
CGA:  22    -0.334832054329E+03   -0.35675E-04   -0.22166E-04 11088   0.403E-04-0.910E-04
CGA:  23    -0.334832054123E+03    0.20561E-06   -0.17864E-05 11088   0.102E-04 0.133E-04
  37 F= -.33483205E+03 E0= -.33482870E+03  d E =0.438392E-02  mag=     7.9933
       N       E                     dE             d eps       ncg     rms          ort
SDA:   1    -0.333847722001E+03    0.98433E+00    0.00000E+00 11088   0.228E+01 0.000E+00
CGA:   2    -0.334582558229E+03   -0.73484E+00   -0.74188E+00 11088   0.287E+01-0.476E-01
CGA:   3    -0.334725239510E+03   -0.14268E+00   -0.21495E+00 11088   0.883E+00-0.588E+00
CGA:   4    -0.334795468655E+03   -0.70229E-01   -0.67355E-01 11088   0.188E+00 0.241E-01
CGA:   5    -0.334822767381E+03   -0.27299E-01   -0.27153E-01 11088   0.801E-01-0.141E-02
CGA:   6    -0.334831406055E+03   -0.86387E-02   -0.86278E-02 11088   0.217E-01 0.351E-04
CGA:   7    -0.334835256886E+03   -0.38508E-02   -0.38530E-02 11088   0.924E-02 0.378E-03
CGA:   8    -0.334836076721E+03   -0.81984E-03   -0.85746E-03 11088   0.481E-02 0.503E-03
CGA:   9    -0.334836814116E+03   -0.73739E-03   -0.72461E-03 11088   0.248E-02-0.380E-03
CGA:  10    -0.334837037398E+03   -0.22328E-03   -0.23719E-03 11088   0.959E-03 0.190E-03
CGA:  11    -0.334837231946E+03   -0.19455E-03   -0.19193E-03 11088   0.355E-03 0.200E-03
CGA:  12    -0.334837272616E+03   -0.40670E-04   -0.51222E-04 11088   0.199E-03 0.195E-03
CGA:  13    -0.334837309310E+03   -0.36694E-04   -0.39420E-04 11088   0.647E-03-0.100E-03
CGA:  14    -0.334837322817E+03   -0.13507E-04   -0.26606E-04 11088   0.587E-04 0.104E-03
CGA:  15    -0.334837322373E+03    0.44354E-06   -0.38656E-05 11088   0.531E-04 0.395E-04
  38 F= -.33483732E+03 E0= -.33483414E+03  d E =-.526825E-02  mag=     7.9954
       N       E                     dE             d eps       ncg     rms          ort
SDA:   1    -0.334802745355E+03    0.34577E-01    0.00000E+00 11088   0.113E+00 0.000E+00
CGA:   2    -0.334815208189E+03   -0.12463E-01   -0.12639E-01 11088   0.122E+00-0.176E-02
CGA:   3    -0.334831706575E+03   -0.16498E-01   -0.16497E-01 11088   0.248E-01 0.795E-03
CGA:   4    -0.334835550326E+03   -0.38438E-02   -0.38443E-02 11088   0.832E-02 0.200E-03
CGA:   5    -0.334836428650E+03   -0.87832E-03   -0.88626E-03 11088   0.258E-02 0.116E-03
CGA:   6    -0.334836819310E+03   -0.39066E-03   -0.38973E-03 11088   0.877E-03-0.174E-03
CGA:   7    -0.334836942735E+03   -0.12342E-03   -0.12362E-03 11088   0.278E-03 0.652E-04
CGA:   8    -0.334836996170E+03   -0.53435E-04   -0.55507E-04 11088   0.312E-03-0.648E-04
CGA:   9    -0.334837006507E+03   -0.10337E-04   -0.15135E-04 11088   0.115E-03 0.521E-04
CGA:  10    -0.334837015265E+03   -0.87585E-05   -0.10193E-04 11088   0.866E-04 0.190E-04
CGA:  11    -0.334837027491E+03   -0.12225E-04   -0.24952E-04 11088   0.321E-03-0.127E-03
CGA:  12    -0.334837035491E+03   -0.80007E-05   -0.15344E-04 11088   0.519E-04 0.701E-04
  39 F= -.33483704E+03 E0= -.33483380E+03  d E =0.286882E-03  mag=     7.9946
       N       E                     dE             d eps       ncg     rms          ort
SDA:   1    -0.334810495552E+03    0.26532E-01    0.00000E+00 11088   0.671E-01 0.000E+00
CGA:   2    -0.334824316632E+03   -0.13821E-01   -0.13747E-01 11088   0.113E+00 0.136E-02
CGA:   3    -0.334834319776E+03   -0.10003E-01   -0.10045E-01 11088   0.161E-01-0.171E-02
CGA:   4    -0.334836134142E+03   -0.18144E-02   -0.18212E-02 11088   0.721E-02 0.223E-03
CGA:   5    -0.334837008413E+03   -0.87427E-03   -0.85977E-03 11088   0.192E-02-0.581E-03
CGA:   6    -0.334837188057E+03   -0.17964E-03   -0.18697E-03 11088   0.722E-03 0.213E-03
CGA:   7    -0.334837291702E+03   -0.10364E-03   -0.10231E-03 11088   0.558E-03-0.114E-03
CGA:   8    -0.334837320663E+03   -0.28962E-04   -0.35054E-04 11088   0.124E-03 0.951E-04
CGA:   9    -0.334837331405E+03   -0.10741E-04   -0.12630E-04 11088   0.102E-03 0.391E-04
CGA:  10    -0.334837352187E+03   -0.20783E-04   -0.26054E-04 11088   0.124E-03-0.875E-04
CGA:  11    -0.334837354170E+03   -0.19822E-05   -0.62235E-05 11088   0.408E-04 0.496E-04
  40 F= -.33483735E+03 E0= -.33483412E+03  d E =-.318678E-03  mag=     7.9949
       N       E                     dE             d eps       ncg     rms          ort
SDA:   1    -0.334757042487E+03    0.80310E-01    0.00000E+00 11088   0.191E+00 0.000E+00
CGA:   2    -0.334803134288E+03   -0.46092E-01   -0.46636E-01 11088   0.391E+00-0.454E-02
CGA:   3    -0.334829747847E+03   -0.26614E-01   -0.27501E-01 11088   0.318E-01-0.845E-02
CGA:   4    -0.334835194155E+03   -0.54463E-02   -0.54699E-02 11088   0.125E-01-0.555E-03
CGA:   5    -0.334836379008E+03   -0.11849E-02   -0.11842E-02 11088   0.384E-02-0.722E-04
CGA:   6    -0.334836952904E+03   -0.57390E-03   -0.58008E-03 11088   0.182E-02-0.313E-03
CGA:   7    -0.334837056915E+03   -0.10401E-03   -0.12238E-03 11088   0.687E-03 0.313E-03
CGA:   8    -0.334837145679E+03   -0.88763E-04   -0.90864E-04 11088   0.225E-03 0.122E-03
CGA:   9    -0.334837166872E+03   -0.21193E-04   -0.76048E-04 11088   0.155E-02-0.346E-03
CGA:  10    -0.334837213984E+03   -0.47113E-04   -0.65557E-04 11088   0.117E-03 0.213E-03
CGA:  11    -0.334837219843E+03   -0.58583E-05   -0.91638E-05 11088   0.711E-04 0.519E-04
CGA:  12    -0.334837233233E+03   -0.13390E-04   -0.13401E-04 11088   0.443E-04-0.734E-05
CGA:  13    -0.334837235372E+03   -0.21396E-05   -0.26656E-05 11088   0.220E-04 0.843E-05
  41 F= -.33483724E+03 E0= -.33483397E+03  d E =0.118797E-03  mag=     7.9949
       N       E                     dE             d eps       ncg     rms          ort
SDA:   1    -0.324965408888E+03    0.98718E+01    0.00000E+00 11088   0.257E+02 0.000E+00
CGA:   2    -0.328311606227E+03   -0.33462E+01   -0.46652E+01 11088   0.836E+02-0.119E+02
CGA:   3    -0.330791636909E+03   -0.24800E+01   -0.23736E+01 11088   0.519E+02 0.223E+01
CGA:   4    -0.332165489828E+03   -0.13739E+01   -0.27481E+01 11088   0.221E+02-0.149E+02
CGA:   5    -0.333089215487E+03   -0.92373E+00   -0.95793E+00 11088   0.103E+02-0.973E+00
CGA:   6    -0.333700566516E+03   -0.61135E+00   -0.42233E+00 11088   0.483E+01 0.375E+01
CGA:   7    -0.333938068728E+03   -0.23750E+00   -0.18330E+00 11088   0.394E+01 0.147E+01
CGA:   8    -0.334196236478E+03   -0.25817E+00   -0.26809E+00 11088   0.816E+01-0.158E+00
CGA:   9    -0.334344895110E+03   -0.14866E+00   -0.14794E+00 11088   0.470E+01-0.196E+00
CGA:  10    -0.334401484654E+03   -0.56590E-01   -0.12035E+00 11088   0.339E+01-0.196E+01
CGA:  11    -0.334448924890E+03   -0.47440E-01   -0.48708E-01 11088   0.284E+01-0.667E-01
CGA:  12    -0.334522586664E+03   -0.73662E-01   -0.75531E-01 11088   0.164E+01-0.326E-01
CGA:  13    -0.334569620001E+03   -0.47033E-01   -0.48441E-01 11088   0.115E+01 0.153E-01
CGA:  14    -0.334608147197E+03   -0.38527E-01   -0.38023E-01 11088   0.133E+01 0.684E-01
CGA:  15    -0.334664802275E+03   -0.56655E-01   -0.59175E-01 11088   0.154E+01 0.188E-01
CGA:  16    -0.334702948584E+03   -0.38146E-01   -0.39096E-01 11088   0.714E+00 0.196E-02
CGA:  17    -0.334722326078E+03   -0.19377E-01   -0.21457E-01 11088   0.499E+00-0.628E-01
CGA:  18    -0.334743505046E+03   -0.21179E-01   -0.21090E-01 11088   0.550E+00-0.222E-01
CGA:  19    -0.334763888180E+03   -0.20383E-01   -0.19972E-01 11088   0.306E+00-0.211E-01
CGA:  20    -0.334773188724E+03   -0.93005E-02   -0.87234E-02 11088   0.165E+00 0.540E-02
CGA:  21    -0.334780748851E+03   -0.75601E-02   -0.75029E-02 11088   0.227E+00 0.125E-02
CGA:  22    -0.334792664626E+03   -0.11916E-01   -0.11963E-01 11088   0.263E+00 0.197E-02
CGA:  23    -0.334800592129E+03   -0.79275E-02   -0.82768E-02 11088   0.115E+00-0.445E-02
CGA:  24    -0.334804346055E+03   -0.37539E-02   -0.39929E-02 11088   0.791E-01 0.107E-02
CGA:  25    -0.334808038037E+03   -0.36920E-02   -0.38483E-02 11088   0.784E-01 0.823E-02
CGA:  26    -0.334811300758E+03   -0.32627E-02   -0.35472E-02 11088   0.461E-01 0.107E-01
CGA:  27    -0.334813077987E+03   -0.17772E-02   -0.19299E-02 11088   0.305E-01 0.625E-02
CGA:  28    -0.334814926426E+03   -0.18484E-02   -0.18749E-02 11088   0.381E-01 0.267E-02
CGA:  29    -0.334817063350E+03   -0.21369E-02   -0.21179E-02 11088   0.284E-01-0.162E-02
CGA:  30    -0.334818231407E+03   -0.11681E-02   -0.11051E-02 11088   0.175E-01-0.325E-02
CGA:  31    -0.334818998965E+03   -0.76756E-03   -0.73742E-03 11088   0.149E-01-0.215E-02
SDA:  32    -0.334819550531E+03   -0.55157E-03   -0.55272E-03 11088   0.119E-01-0.224E-05
CGA:  33    -0.334820472706E+03   -0.92217E-03   -0.88563E-03 11088   0.453E-02 0.247E-02
CGA:  34    -0.334821320129E+03   -0.84742E-03   -0.76527E-03 11088   0.285E-02 0.103E-02
CGA:  35    -0.334821689128E+03   -0.36900E-03   -0.35644E-03 11088   0.101E-02 0.336E-03
CGA:  36    -0.334821507134E+03    0.18199E-03   -0.15271E-03 11088   0.484E-02-0.195E-02
CGA:  37    -0.334821868405E+03   -0.36127E-03   -0.39583E-03 11088   0.695E-03 0.875E-03
CGA:  38    -0.334821914998E+03   -0.46593E-04   -0.62418E-04 11088   0.276E-03 0.363E-03
CGA:  39    -0.334821952243E+03   -0.37245E-04   -0.35472E-04 11088   0.147E-03 0.159E-03
CGA:  40    -0.334821979749E+03   -0.27506E-04   -0.59091E-04 11088   0.103E-02-0.111E-03
CGA:  41    -0.334822001777E+03   -0.22028E-04   -0.39369E-04 11088   0.633E-04 0.193E-03
CGA:  42    -0.334822001089E+03    0.68773E-06   -0.24360E-05 11088   0.237E-04 0.328E-04
  42 F= -.33482200E+03 E0= -.33481833E+03  d E =0.152343E-01  mag=     7.9916
       N       E                     dE             d eps       ncg     rms          ort
SDA:   1    -0.333778544612E+03    0.10435E+01    0.00000E+00 11088   0.242E+01 0.000E+00
CGA:   2    -0.334543349595E+03   -0.76480E+00   -0.78125E+00 11088   0.356E+01-0.928E-01
CGA:   3    -0.334710886563E+03   -0.16754E+00   -0.21609E+00 11088   0.673E+00-0.388E+00
CGA:   4    -0.334792115941E+03   -0.81229E-01   -0.81242E-01 11088   0.214E+00 0.204E-02
CGA:   5    -0.334814200675E+03   -0.22085E-01   -0.22073E-01 11088   0.857E-01-0.309E-02
CGA:   6    -0.334823186961E+03   -0.89863E-02   -0.89779E-02 11088   0.290E-01 0.104E-02
CGA:   7    -0.334827022942E+03   -0.38360E-02   -0.38361E-02 11088   0.162E-01-0.210E-03
CGA:   8    -0.334828538573E+03   -0.15156E-02   -0.15566E-02 11088   0.410E-02 0.144E-02
CGA:   9    -0.334829498267E+03   -0.95969E-03   -0.10071E-02 11088   0.401E-02-0.476E-03
CGA:  10    -0.334829706461E+03   -0.20819E-03   -0.23618E-03 11088   0.122E-02 0.461E-03
CGA:  11    -0.334829891838E+03   -0.18538E-03   -0.18222E-03 11088   0.109E-02 0.459E-03
CGA:  12    -0.334830029363E+03   -0.13752E-03   -0.14041E-03 11088   0.541E-03 0.801E-04
CGA:  13    -0.334830064896E+03   -0.35533E-04   -0.47980E-04 11088   0.203E-03 0.287E-03
CGA:  14    -0.334830088581E+03   -0.23684E-04   -0.24077E-04 11088   0.130E-03 0.742E-04
CGA:  15    -0.334830121879E+03   -0.33298E-04   -0.37024E-04 11088   0.225E-03-0.436E-04
CGA:  16    -0.334830118266E+03    0.36124E-05   -0.45136E-05 11088   0.155E-03 0.831E-04
  43 F= -.33483012E+03 E0= -.33482688E+03  d E =-.811718E-02  mag=     7.9972
       N       E                     dE             d eps       ncg     rms          ort
SDA:   1    -0.333710202663E+03    0.11199E+01    0.00000E+00 11088   0.271E+01 0.000E+00
CGA:   2    -0.334496592903E+03   -0.78639E+00   -0.78495E+00 11088   0.218E+01 0.902E-02
CGA:   3    -0.334729392468E+03   -0.23280E+00   -0.23072E+00 11088   0.671E+00-0.313E-01
CGA:   4    -0.334804581863E+03   -0.75189E-01   -0.75333E-01 11088   0.158E+00 0.808E-02
CGA:   5    -0.334823008657E+03   -0.18427E-01   -0.18430E-01 11088   0.900E-01-0.204E-02
CGA:   6    -0.334830811312E+03   -0.78027E-02   -0.78026E-02 11088   0.235E-01 0.173E-02
CGA:   7    -0.334834760770E+03   -0.39495E-02   -0.39102E-02 11088   0.691E-02 0.966E-03
CGA:   8    -0.334835934250E+03   -0.11735E-02   -0.11747E-02 11088   0.431E-02-0.362E-04
CGA:   9    -0.334836504351E+03   -0.57010E-03   -0.57351E-03 11088   0.217E-02-0.475E-03
CGA:  10    -0.334836766856E+03   -0.26251E-03   -0.25995E-03 11088   0.111E-02 0.335E-03
CGA:  11    -0.334836923679E+03   -0.15682E-03   -0.15684E-03 11088   0.946E-03 0.160E-05
CGA:  12    -0.334836998296E+03   -0.74617E-04   -0.85766E-04 11088   0.228E-03 0.305E-03
CGA:  13    -0.334837039888E+03   -0.41592E-04   -0.41159E-04 11088   0.316E-03 0.395E-04
CGA:  14    -0.334837085810E+03   -0.45922E-04   -0.76831E-04 11088   0.521E-03-0.380E-03
CGA:  15    -0.334837091292E+03   -0.54820E-05   -0.22686E-04 11088   0.150E-03 0.201E-03
  44 F= -.33483709E+03 E0= -.33483383E+03  d E =-.697303E-02  mag=     7.9960
       N       E                     dE             d eps       ncg     rms          ort
SDA:   1    -0.334612429579E+03    0.22466E+00    0.00000E+00 11088   0.692E+00 0.000E+00
CGA:   2    -0.334719211678E+03   -0.10678E+00   -0.10730E+00 11088   0.661E+00-0.937E-02
CGA:   3    -0.334778238629E+03   -0.59027E-01   -0.60368E-01 11088   0.279E+00 0.428E-02
CGA:   4    -0.334815996054E+03   -0.37757E-01   -0.37719E-01 11088   0.941E-01 0.279E-02
CGA:   5    -0.334826471442E+03   -0.10475E-01   -0.10458E-01 11088   0.300E-01-0.130E-02
CGA:   6    -0.334830125221E+03   -0.36538E-02   -0.36535E-02 11088   0.785E-02 0.119E-03
CGA:   7    -0.334831390575E+03   -0.12654E-02   -0.12796E-02 11088   0.518E-02-0.357E-03
CGA:   8    -0.334831736757E+03   -0.34618E-03   -0.36996E-03 11088   0.167E-02 0.524E-03
CGA:   9    -0.334832064036E+03   -0.32728E-03   -0.33226E-03 11088   0.108E-02-0.859E-04
CGA:  10    -0.334832169294E+03   -0.10526E-03   -0.10523E-03 11088   0.542E-03-0.203E-05
CGA:  11    -0.334832209957E+03   -0.40664E-04   -0.48024E-04 11088   0.283E-03 0.213E-03
CGA:  12    -0.334832245256E+03   -0.35298E-04   -0.37755E-04 11088   0.123E-03 0.950E-04
CGA:  13    -0.334832268917E+03   -0.23661E-04   -0.23126E-04 11088   0.101E-03 0.267E-04
CGA:  14    -0.334832269810E+03   -0.89251E-06   -0.56432E-05 11088   0.371E-04 0.632E-04
  45 F= -.33483227E+03 E0= -.33482888E+03  d E =0.482148E-02  mag=     7.9947
       N       E                     dE             d eps       ncg     rms          ort
SDA:   1    -0.334708454359E+03    0.12381E+00    0.00000E+00 11088   0.346E+00 0.000E+00
CGA:   2    -0.334785938529E+03   -0.77484E-01   -0.77651E-01 11088   0.271E+00-0.170E-02
CGA:   3    -0.334817766983E+03   -0.31828E-01   -0.31836E-01 11088   0.124E+00 0.281E-02
CGA:   4    -0.334830967326E+03   -0.13200E-01   -0.13194E-01 11088   0.413E-01-0.175E-02
CGA:   5    -0.334834404448E+03   -0.34371E-02   -0.34688E-02 11088   0.136E-01 0.143E-02
CGA:   6    -0.334836183270E+03   -0.17788E-02   -0.17809E-02 11088   0.411E-02-0.217E-03
CGA:   7    -0.334836811732E+03   -0.62846E-03   -0.62583E-03 11088   0.172E-02 0.689E-04
CGA:   8    -0.334837068815E+03   -0.25708E-03   -0.26369E-03 11088   0.112E-02-0.214E-03
CGA:   9    -0.334837155472E+03   -0.86658E-04   -0.91268E-04 11088   0.401E-03 0.161E-03
CGA:  10    -0.334837229413E+03   -0.73941E-04   -0.87565E-04 11088   0.770E-03-0.191E-03
CGA:  11    -0.334837255737E+03   -0.26324E-04   -0.24641E-04 11088   0.467E-03-0.272E-04
CGA:  12    -0.334837274018E+03   -0.18282E-04   -0.19528E-04 11088   0.180E-03 0.150E-04
CGA:  13    -0.334837297364E+03   -0.23345E-04   -0.24844E-04 11088   0.392E-03-0.877E-04
CGA:  14    -0.334837316684E+03   -0.19320E-04   -0.11122E-04 11088   0.332E-03-0.132E-03
CGA:  15    -0.334837327971E+03   -0.11287E-04   -0.68807E-05 11088   0.146E-03-0.531E-04
CGA:  16    -0.334837330507E+03   -0.25366E-05   -0.34479E-05 11088   0.910E-04 0.110E-04
  46 F= -.33483733E+03 E0= -.33483398E+03  d E =-.506070E-02  mag=     7.9956
