       N       E                     dE             d eps       ncg     rms          ort
DAV:   1     0.248157686615E+04    0.24816E+04   -0.14149E+05 10584   0.157E+03
DAV:   2    -0.174543799061E+03   -0.26561E+04   -0.24840E+04 10584   0.417E+02
DAV:   3    -0.447590725522E+03   -0.27305E+03   -0.26887E+03 10584   0.151E+02
DAV:   4    -0.455842704698E+03   -0.82520E+01   -0.81328E+01 10584   0.253E+01
DAV:   5    -0.456171292569E+03   -0.32859E+00   -0.32754E+00 10584   0.408E+00
SDA:   6    -0.284259146567E+03    0.17191E+03   -0.32754E+00 10584   0.377E+03 0.000E+00
CGA:   7    -0.334324435853E+03   -0.50065E+02   -0.41558E+02 10584   0.549E+02 0.785E+02
CGA:   8    -0.344533319787E+03   -0.10209E+02   -0.85964E+01 10584   0.432E+02 0.434E+01
CGA:   9    -0.347226943270E+03   -0.26936E+01   -0.37490E+01 10584   0.201E+02-0.489E+01
CGA:  10    -0.349100955686E+03   -0.18740E+01   -0.20253E+01 10584   0.100E+02 0.337E+01
CGA:  11    -0.349766037171E+03   -0.66508E+00   -0.52330E+00 10584   0.188E+02 0.105E+01
CGA:  12    -0.350681926038E+03   -0.91589E+00   -0.60955E+00 10584   0.165E+02 0.785E+01
CGA:  13    -0.351015749144E+03   -0.33382E+00   -0.11573E+01 10584   0.252E+02-0.651E+01
CGA:  14    -0.351133631918E+03   -0.11788E+00   -0.31090E+00 10584   0.806E+01-0.773E+01
CGA:  15    -0.351281447064E+03   -0.14782E+00   -0.31925E+00 10584   0.441E+01-0.126E+01
CGA:  16    -0.351718625547E+03   -0.43718E+00   -0.43877E+00 10584   0.324E+01-0.183E-02
CGA:  17    -0.351961519699E+03   -0.24289E+00   -0.28548E+00 10584   0.112E+01 0.288E-01
CGA:  18    -0.352136827722E+03   -0.17531E+00   -0.17474E+00 10584   0.629E+00 0.370E-01
CGA:  19    -0.352274150175E+03   -0.13732E+00   -0.13746E+00 10584   0.461E+00-0.251E-02
CGA:  20    -0.352358976481E+03   -0.84826E-01   -0.85059E-01 10584   0.242E+00-0.722E-02
CGA:  21    -0.352403552452E+03   -0.44576E-01   -0.44527E-01 10584   0.140E+00 0.102E-02
CGA:  22    -0.352430406784E+03   -0.26854E-01   -0.26638E-01 10584   0.709E-01 0.584E-02
CGA:  23    -0.352443978590E+03   -0.13572E-01   -0.13482E-01 10584   0.342E-01 0.339E-02
CGA:  24    -0.352451798204E+03   -0.78196E-02   -0.77725E-02 10584   0.200E-01 0.761E-03
CGA:  25    -0.352455942112E+03   -0.41439E-02   -0.41370E-02 10584   0.103E-01 0.159E-03
CGA:  26    -0.352457848742E+03   -0.19066E-02   -0.18818E-02 10584   0.595E-02 0.131E-02
CGA:  27    -0.352458909140E+03   -0.10604E-02   -0.10657E-02 10584   0.311E-02 0.149E-02
CGA:  28    -0.352459618109E+03   -0.70897E-03   -0.69992E-03 10584   0.161E-02 0.514E-03
CGA:  29    -0.352459665130E+03   -0.47020E-04   -0.96895E-03 10584   0.310E-02-0.261E-02
CGA:  30    -0.352460581953E+03   -0.91682E-03   -0.90928E-03 10584   0.542E-03 0.660E-04
CGA:  31    -0.352460673174E+03   -0.91220E-04   -0.94929E-04 10584   0.135E-03 0.244E-03
CGA:  32    -0.352460696593E+03   -0.23420E-04   -0.27741E-04 10584   0.562E-04 0.985E-04
CGA:  33    -0.352460708446E+03   -0.11853E-04   -0.66413E-05 10584   0.168E-03-0.553E-04
CGA:  34    -0.352460724178E+03   -0.15732E-04   -0.25255E-04 10584   0.251E-04 0.521E-04
CGA:  35    -0.352460723615E+03    0.56281E-06   -0.34434E-05 10584   0.108E-04 0.182E-04
   1 F= -.35246072E+03 E0= -.35246072E+03  d E =-.352461E+03  mag=    18.0000
       N       E                     dE             d eps       ncg     rms          ort
SDA:   1    -0.352470415523E+03   -0.96913E-02    0.00000E+00 10584   0.132E-02 0.000E+00
CGA:   2    -0.352470753115E+03   -0.33759E-03   -0.33752E-03 10584   0.416E-03-0.199E-05
CGA:   3    -0.352470850820E+03   -0.97704E-04   -0.97222E-04 10584   0.142E-03-0.700E-05
CGA:   4    -0.352470874448E+03   -0.23628E-04   -0.23099E-04 10584   0.308E-04-0.400E-05
CGA:   5    -0.352470878155E+03   -0.37073E-05   -0.45517E-05 10584   0.734E-05 0.600E-05
   2 F= -.35247088E+03 E0= -.35247088E+03  d E =-.101545E-01  mag=    18.0000
       N       E                     dE             d eps       ncg     rms          ort
SDA:   1    -0.352200479078E+03    0.27040E+00    0.00000E+00 10584   0.169E+01 0.000E+00
CGA:   2    -0.352634285503E+03   -0.43381E+00   -0.43385E+00 10584   0.525E+00 0.146E-02
CGA:   3    -0.352755875405E+03   -0.12159E+00   -0.12157E+00 10584   0.173E+00-0.410E-03
CGA:   4    -0.352784042244E+03   -0.28167E-01   -0.28175E-01 10584   0.369E-01 0.684E-04
CGA:   5    -0.352791260268E+03   -0.72180E-02   -0.72286E-02 10584   0.110E-01 0.142E-03
CGA:   6    -0.352793530995E+03   -0.22707E-02   -0.22824E-02 10584   0.393E-02 0.200E-03
CGA:   7    -0.352794568169E+03   -0.10372E-02   -0.10373E-02 10584   0.158E-02 0.123E-03
CGA:   8    -0.352795024328E+03   -0.45616E-03   -0.45560E-03 10584   0.654E-03 0.301E-04
CGA:   9    -0.352795195015E+03   -0.17069E-03   -0.17099E-03 10584   0.195E-03 0.665E-04
CGA:  10    -0.352795247871E+03   -0.52855E-04   -0.53307E-04 10584   0.571E-04 0.360E-04
CGA:  11    -0.352795268618E+03   -0.20747E-04   -0.20600E-04 10584   0.226E-04 0.329E-05
CGA:  12    -0.352795273932E+03   -0.53149E-05   -0.55622E-05 10584   0.827E-05 0.815E-05
   3 F= -.35279527E+03 E0= -.35279527E+03  d E =-.324396E+00  mag=    18.0000
       N       E                     dE             d eps       ncg     rms          ort
SDA:   1    -0.350235160977E+03    0.25601E+01    0.00000E+00 10584   0.913E+01 0.000E+00
CGA:   2    -0.352476581754E+03   -0.22414E+01   -0.22417E+01 10584   0.271E+01 0.287E-02
CGA:   3    -0.353111540892E+03   -0.63496E+00   -0.63475E+00 10584   0.912E+00-0.860E-02
CGA:   4    -0.353261850205E+03   -0.15031E+00   -0.15020E+00 10584   0.198E+00-0.119E-02
CGA:   5    -0.353300173640E+03   -0.38323E-01   -0.38387E-01 10584   0.585E-01 0.101E-02
CGA:   6    -0.353312357168E+03   -0.12184E-01   -0.12231E-01 10584   0.216E-01 0.104E-02
CGA:   7    -0.353318201386E+03   -0.58442E-02   -0.58377E-02 10584   0.916E-02 0.397E-03
CGA:   8    -0.353320901857E+03   -0.27005E-02   -0.27070E-02 10584   0.397E-02-0.163E-03
CGA:   9    -0.353321985142E+03   -0.10833E-02   -0.10834E-02 10584   0.128E-02-0.187E-05
CGA:  10    -0.353322339710E+03   -0.35457E-03   -0.35384E-03 10584   0.373E-03 0.304E-04
CGA:  11    -0.353322458335E+03   -0.11863E-03   -0.11929E-03 10584   0.133E-03-0.117E-04
CGA:  12    -0.353322497198E+03   -0.38863E-04   -0.38237E-04 10584   0.442E-04 0.161E-04
CGA:  13    -0.353322435918E+03    0.61280E-04   -0.63976E-04 10584   0.415E-03-0.122E-03
CGA:  14    -0.353322534958E+03   -0.99040E-04   -0.10023E-03 10584   0.366E-04 0.171E-04
CGA:  15    -0.353322540448E+03   -0.54898E-05   -0.74219E-05 10584   0.105E-04 0.171E-04
   4 F= -.35332254E+03 E0= -.35332254E+03  d E =-.527267E+00  mag=    18.0000
       N       E                     dE             d eps       ncg     rms          ort
SDA:   1    -0.350753085460E+03    0.25694E+01    0.00000E+00 10584   0.884E+01 0.000E+00
CGA:   2    -0.352826604254E+03   -0.20735E+01   -0.20749E+01 10584   0.257E+01 0.374E-02
CGA:   3    -0.353422171767E+03   -0.59557E+00   -0.59516E+00 10584   0.893E+00-0.595E-02
CGA:   4    -0.353570823450E+03   -0.14865E+00   -0.14859E+00 10584   0.192E+00-0.788E-03
CGA:   5    -0.353607286927E+03   -0.36463E-01   -0.36543E-01 10584   0.544E-01 0.859E-03
CGA:   6    -0.353618425447E+03   -0.11139E-01   -0.11216E-01 10584   0.193E-01 0.107E-02
CGA:   7    -0.353623657980E+03   -0.52325E-02   -0.52363E-02 10584   0.836E-02 0.448E-03
CGA:   8    -0.353626174051E+03   -0.25161E-02   -0.25195E-02 10584   0.379E-02-0.163E-03
CGA:   9    -0.353627226366E+03   -0.10523E-02   -0.10524E-02 10584   0.127E-02-0.867E-05
CGA:  10    -0.353627570715E+03   -0.34435E-03   -0.34449E-03 10584   0.359E-03 0.458E-04
CGA:  11    -0.353627678823E+03   -0.10811E-03   -0.10796E-03 10584   0.113E-03 0.101E-04
CGA:  12    -0.353627712801E+03   -0.33978E-04   -0.33731E-04 10584   0.375E-04 0.169E-04
CGA:  13    -0.353627676686E+03    0.36115E-04   -0.51985E-04 10584   0.299E-03-0.948E-04
CGA:  14    -0.353627748081E+03   -0.71395E-04   -0.72194E-04 10584   0.287E-04 0.971E-05
CGA:  15    -0.353627751614E+03   -0.35328E-05   -0.54414E-05 10584   0.868E-05 0.141E-04
   5 F= -.35362775E+03 E0= -.35362775E+03  d E =-.305211E+00  mag=    18.0000
       N       E                     dE             d eps       ncg     rms          ort
SDA:   1    -0.349814925081E+03    0.38128E+01    0.00000E+00 10584   0.125E+02 0.000E+00
CGA:   2    -0.352713400202E+03   -0.28985E+01   -0.29025E+01 10584   0.356E+01 0.601E-02
CGA:   3    -0.353540454216E+03   -0.82705E+00   -0.82665E+00 10584   0.124E+01-0.306E-02
CGA:   4    -0.353748834095E+03   -0.20838E+00   -0.20854E+00 10584   0.274E+00 0.529E-03
CGA:   5    -0.353800915027E+03   -0.52081E-01   -0.52122E-01 10584   0.766E-01 0.283E-03
CGA:   6    -0.353816822605E+03   -0.15908E-01   -0.15935E-01 10584   0.284E-01 0.362E-03
CGA:   7    -0.353824441194E+03   -0.76186E-02   -0.76210E-02 10584   0.126E-01 0.174E-03
CGA:   8    -0.353828113706E+03   -0.36725E-02   -0.36732E-02 10584   0.560E-02-0.938E-04
CGA:   9    -0.353829682780E+03   -0.15691E-02   -0.15691E-02 10584   0.187E-02 0.231E-04
CGA:  10    -0.353830212830E+03   -0.53005E-03   -0.53005E-03 10584   0.549E-03-0.349E-06
CGA:  11    -0.353830382962E+03   -0.17013E-03   -0.17140E-03 10584   0.188E-03-0.410E-04
CGA:  12    -0.353830439785E+03   -0.56823E-04   -0.56899E-04 10584   0.644E-04-0.172E-05
CGA:  13    -0.353830439551E+03    0.23396E-06   -0.56485E-04 10584   0.223E-03-0.945E-04
CGA:  14    -0.353830484630E+03   -0.45080E-04   -0.47602E-04 10584   0.192E-04 0.248E-04
CGA:  15    -0.353830489252E+03   -0.46221E-05   -0.50438E-05 10584   0.414E-05 0.572E-05
   6 F= -.35383049E+03 E0= -.35383049E+03  d E =-.202738E+00  mag=    18.0000
       N       E                     dE             d eps       ncg     rms          ort
SDA:   1    -0.346672379673E+03    0.71581E+01    0.00000E+00 10584   0.208E+02 0.000E+00
CGA:   2    -0.351843831716E+03   -0.51715E+01   -0.51785E+01 10584   0.713E+01 0.339E-01
CGA:   3    -0.353357963193E+03   -0.15141E+01   -0.15117E+01 10584   0.238E+01-0.165E-02
CGA:   4    -0.353757058003E+03   -0.39909E+00   -0.39947E+00 10584   0.484E+00 0.169E-02
CGA:   5    -0.353846705292E+03   -0.89647E-01   -0.89707E-01 10584   0.139E+00 0.218E-03
CGA:   6    -0.353875401126E+03   -0.28696E-01   -0.28699E-01 10584   0.481E-01 0.515E-04
CGA:   7    -0.353888042508E+03   -0.12641E-01   -0.12640E-01 10584   0.211E-01-0.112E-03
CGA:   8    -0.353893994180E+03   -0.59517E-02   -0.59523E-02 10584   0.933E-02-0.128E-03
CGA:   9    -0.353896680451E+03   -0.26863E-02   -0.26870E-02 10584   0.335E-02-0.587E-04
CGA:  10    -0.353897649950E+03   -0.96950E-03   -0.97156E-03 10584   0.108E-02-0.150E-03
CGA:  11    -0.353897951380E+03   -0.30143E-03   -0.30214E-03 10584   0.346E-03-0.546E-04
CGA:  12    -0.353898062187E+03   -0.11081E-03   -0.11400E-03 10584   0.159E-03-0.469E-04
CGA:  13    -0.353898100163E+03   -0.37976E-04   -0.38013E-04 10584   0.613E-04 0.658E-05
CGA:  14    -0.353898123669E+03   -0.23506E-04   -0.28594E-04 10584   0.534E-04-0.308E-04
CGA:  15    -0.353898128046E+03   -0.43774E-05   -0.72733E-05 10584   0.108E-04 0.188E-04
   7 F= -.35389813E+03 E0= -.35389813E+03  d E =-.676388E-01  mag=    18.0000
       N       E                     dE             d eps       ncg     rms          ort
SDA:   1    -0.353202099359E+03    0.69602E+00    0.00000E+00 10584   0.192E+01 0.000E+00
CGA:   2    -0.353724889855E+03   -0.52279E+00   -0.52279E+00 10584   0.838E+00-0.363E-03
CGA:   3    -0.353880136967E+03   -0.15525E+00   -0.15522E+00 10584   0.244E+00-0.401E-03
CGA:   4    -0.353922119539E+03   -0.41983E-01   -0.41976E-01 10584   0.524E-01-0.152E-03
CGA:   5    -0.353931675597E+03   -0.95561E-02   -0.95396E-02 10584   0.156E-01-0.216E-03
CGA:   6    -0.353934896398E+03   -0.32208E-02   -0.32139E-02 10584   0.501E-02-0.128E-03
CGA:   7    -0.353936134544E+03   -0.12381E-02   -0.12378E-02 10584   0.197E-02-0.315E-04
CGA:   8    -0.353936663815E+03   -0.52927E-03   -0.52963E-03 10584   0.809E-03-0.327E-04
CGA:   9    -0.353936895282E+03   -0.23147E-03   -0.23194E-03 10584   0.290E-03-0.151E-04
CGA:  10    -0.353936983293E+03   -0.88010E-04   -0.90171E-04 10584   0.112E-03-0.391E-04
CGA:  11    -0.353937015442E+03   -0.32149E-04   -0.38948E-04 10584   0.697E-04-0.492E-04
CGA:  12    -0.353937026550E+03   -0.11109E-04   -0.18494E-04 10584   0.538E-04-0.365E-04
CGA:  13    -0.353937039461E+03   -0.12910E-04   -0.13030E-04 10584   0.113E-04 0.303E-05
CGA:  14    -0.353937044522E+03   -0.50616E-05   -0.59036E-05 10584   0.707E-05-0.391E-05
   8 F= -.35393704E+03 E0= -.35393704E+03  d E =-.389165E-01  mag=    18.0000
       N       E                     dE             d eps       ncg     rms          ort
SDA:   1    -0.353788644789E+03    0.14839E+00    0.00000E+00 10584   0.466E+00 0.000E+00
CGA:   2    -0.353902393270E+03   -0.11375E+00   -0.11379E+00 10584   0.163E+00 0.863E-03
CGA:   3    -0.353935316363E+03   -0.32923E-01   -0.32906E-01 10584   0.566E-01-0.292E-03
CGA:   4    -0.353945056737E+03   -0.97404E-02   -0.97106E-02 10584   0.117E-01-0.292E-03
CGA:   5    -0.353947205311E+03   -0.21486E-02   -0.21255E-02 10584   0.338E-02-0.253E-03
CGA:   6    -0.353947922529E+03   -0.71722E-03   -0.70475E-03 10584   0.116E-02-0.218E-03
CGA:   7    -0.353948203837E+03   -0.28131E-03   -0.28072E-03 10584   0.495E-03-0.614E-04
CGA:   8    -0.353948326486E+03   -0.12265E-03   -0.12270E-03 10584   0.188E-03 0.976E-05
CGA:   9    -0.353948387157E+03   -0.60671E-04   -0.61554E-04 10584   0.811E-04-0.164E-04
CGA:  10    -0.353948411299E+03   -0.24142E-04   -0.25686E-04 10584   0.375E-04-0.199E-04
CGA:  11    -0.353948419891E+03   -0.85928E-05   -0.89014E-05 10584   0.134E-04-0.746E-05
   9 F= -.35394842E+03 E0= -.35394842E+03  d E =-.113754E-01  mag=    18.0000
       N       E                     dE             d eps       ncg     rms          ort
SDA:   1    -0.352516394201E+03    0.14320E+01    0.00000E+00 10584   0.365E+01 0.000E+00
CGA:   2    -0.353570388879E+03   -0.10540E+01   -0.10540E+01 10584   0.183E+01-0.402E-03
CGA:   3    -0.353873219929E+03   -0.30283E+00   -0.30281E+00 10584   0.416E+00-0.122E-02
CGA:   4    -0.353945624471E+03   -0.72405E-01   -0.72369E-01 10584   0.958E-01-0.462E-03
CGA:   5    -0.353962187024E+03   -0.16563E-01   -0.16545E-01 10584   0.252E-01-0.208E-03
CGA:   6    -0.353967347251E+03   -0.51602E-02   -0.51449E-02 10584   0.725E-02-0.249E-03
CGA:   7    -0.353969011332E+03   -0.16641E-02   -0.16610E-02 10584   0.250E-02-0.934E-04
CGA:   8    -0.353969672882E+03   -0.66155E-03   -0.66157E-03 10584   0.988E-03-0.569E-05
CGA:   9    -0.353969962135E+03   -0.28925E-03   -0.28962E-03 10584   0.366E-03-0.122E-04
CGA:  10    -0.353970075047E+03   -0.11291E-03   -0.11590E-03 10584   0.138E-03-0.540E-04
CGA:  11    -0.353970113001E+03   -0.37954E-04   -0.41741E-04 10584   0.582E-04-0.437E-04
CGA:  12    -0.353970126031E+03   -0.13030E-04   -0.15578E-04 10584   0.291E-04-0.213E-04
CGA:  13    -0.353970132769E+03   -0.67382E-05   -0.84610E-05 10584   0.173E-04-0.956E-05
  10 F= -.35397013E+03 E0= -.35397013E+03  d E =-.217129E-01  mag=    18.0000
       N       E                     dE             d eps       ncg     rms          ort
SDA:   1    -0.349294915136E+03    0.46752E+01    0.00000E+00 10584   0.114E+02 0.000E+00
CGA:   2    -0.352906725354E+03   -0.36118E+01   -0.36119E+01 10584   0.495E+01-0.541E-02
CGA:   3    -0.353726249386E+03   -0.81952E+00   -0.81953E+00 10584   0.115E+01 0.238E-02
CGA:   4    -0.353924402186E+03   -0.19815E+00   -0.19827E+00 10584   0.250E+00 0.409E-03
CGA:   5    -0.353969496244E+03   -0.45094E-01   -0.45021E-01 10584   0.711E-01-0.817E-03
CGA:   6    -0.353984048193E+03   -0.14552E-01   -0.14492E-01 10584   0.205E-01-0.819E-03
CGA:   7    -0.353988894139E+03   -0.48459E-02   -0.48402E-02 10584   0.778E-02-0.163E-03
CGA:   8    -0.353991054500E+03   -0.21604E-02   -0.21607E-02 10584   0.334E-02-0.623E-04
CGA:   9    -0.353992073856E+03   -0.10194E-02   -0.10240E-02 10584   0.132E-02-0.134E-03
CGA:  10    -0.353992462750E+03   -0.38889E-03   -0.39427E-03 10584   0.451E-03-0.155E-03
CGA:  11    -0.353992594142E+03   -0.13139E-03   -0.14407E-03 10584   0.206E-03-0.151E-03
CGA:  12    -0.353992640622E+03   -0.46481E-04   -0.56333E-04 10584   0.116E-03-0.765E-04
CGA:  13    -0.353992667892E+03   -0.27270E-04   -0.30027E-04 10584   0.548E-04-0.226E-04
CGA:  14    -0.353992683454E+03   -0.15561E-04   -0.29164E-04 10584   0.670E-04-0.372E-04
CGA:  15    -0.353992698821E+03   -0.15367E-04   -0.15801E-04 10584   0.703E-05 0.564E-05
CGA:  16    -0.353992703648E+03   -0.48277E-05    0.48416E-04 10584   0.245E-05 0.741E-06
  11 F= -.35399270E+03 E0= -.35399270E+03  d E =-.225709E-01  mag=    18.0000
       N       E                     dE             d eps       ncg     rms          ort
SDA:   1    -0.353258095022E+03    0.73460E+00    0.00000E+00 10584   0.181E+01 0.000E+00
CGA:   2    -0.353836040521E+03   -0.57795E+00   -0.57798E+00 10584   0.753E+00-0.187E-02
CGA:   3    -0.353964678856E+03   -0.12864E+00   -0.12871E+00 10584   0.187E+00 0.172E-03
CGA:   4    -0.353996273980E+03   -0.31595E-01   -0.31646E-01 10584   0.394E-01 0.349E-03
CGA:   5    -0.354003554293E+03   -0.72803E-02   -0.72498E-02 10584   0.116E-01-0.300E-03
CGA:   6    -0.354005981765E+03   -0.24275E-02   -0.23986E-02 10584   0.360E-02-0.381E-03
CGA:   7    -0.354006823643E+03   -0.84188E-03   -0.83879E-03 10584   0.136E-02-0.792E-04
CGA:   8    -0.354007172030E+03   -0.34839E-03   -0.34911E-03 10584   0.529E-03 0.454E-04
CGA:   9    -0.354007344825E+03   -0.17280E-03   -0.17427E-03 10584   0.223E-03-0.357E-04
CGA:  10    -0.354007414822E+03   -0.69997E-04   -0.76530E-04 10584   0.117E-03-0.735E-04
CGA:  11    -0.354007437720E+03   -0.22897E-04   -0.23172E-04 10584   0.392E-04-0.251E-04
CGA:  12    -0.354007447489E+03   -0.97690E-05   -0.99724E-05 10584   0.152E-04-0.525E-05
  12 F= -.35400745E+03 E0= -.35400745E+03  d E =-.147438E-01  mag=    18.0000
       N       E                     dE             d eps       ncg     rms          ort
SDA:   1    -0.353918137697E+03    0.89300E-01    0.00000E+00 10584   0.242E+00 0.000E+00
CGA:   2    -0.353988986146E+03   -0.70848E-01   -0.70849E-01 10584   0.115E+00-0.349E-03
CGA:   3    -0.354008799101E+03   -0.19813E-01   -0.19801E-01 10584   0.302E-01-0.140E-03
CGA:   4    -0.354014019606E+03   -0.52205E-02   -0.52273E-02 10584   0.683E-02 0.579E-04
CGA:   5    -0.354015186094E+03   -0.11665E-02   -0.11805E-02 10584   0.181E-02 0.131E-03
CGA:   6    -0.354015548804E+03   -0.36271E-03   -0.36887E-03 10584   0.536E-03 0.835E-04
CGA:   7    -0.354015689612E+03   -0.14081E-03   -0.14080E-03 10584   0.214E-03-0.730E-06
CGA:   8    -0.354015747562E+03   -0.57950E-04   -0.57958E-04 10584   0.894E-04-0.495E-05
CGA:   9    -0.354015773116E+03   -0.25555E-04   -0.25642E-04 10584   0.327E-04-0.358E-05
CGA:  10    -0.354015783709E+03   -0.10593E-04   -0.12230E-04 10584   0.212E-04-0.137E-04
CGA:  11    -0.354015786027E+03   -0.23179E-05   -0.23892E-05 10584   0.743E-05 0.862E-06
  13 F= -.35401579E+03 E0= -.35401579E+03  d E =-.833854E-02  mag=    18.0000
       N       E                     dE             d eps       ncg     rms          ort
SDA:   1    -0.353495007820E+03    0.52078E+00    0.00000E+00 10584   0.128E+01 0.000E+00
CGA:   2    -0.353901373327E+03   -0.40637E+00   -0.40648E+00 10584   0.575E+00-0.242E-02
CGA:   3    -0.353995705752E+03   -0.94332E-01   -0.94309E-01 10584   0.137E+00-0.551E-03
CGA:   4    -0.354019184406E+03   -0.23479E-01   -0.23491E-01 10584   0.295E-01 0.106E-03
CGA:   5    -0.354024428758E+03   -0.52444E-02   -0.52389E-02 10584   0.818E-02-0.748E-04
CGA:   6    -0.354026136383E+03   -0.17076E-02   -0.16999E-02 10584   0.247E-02-0.169E-03
CGA:   7    -0.354026720417E+03   -0.58403E-03   -0.58296E-03 10584   0.948E-03-0.960E-04
CGA:   8    -0.354026974285E+03   -0.25387E-03   -0.25490E-03 10584   0.402E-03-0.370E-04
CGA:   9    -0.354027096462E+03   -0.12218E-03   -0.12610E-03 10584   0.178E-03-0.536E-04
CGA:  10    -0.354027146048E+03   -0.49587E-04   -0.58135E-04 10584   0.102E-03-0.712E-04
CGA:  11    -0.354027163982E+03   -0.17933E-04   -0.22228E-04 10584   0.535E-04-0.430E-04
CGA:  12    -0.354027173708E+03   -0.97262E-05   -0.14590E-04 10584   0.409E-04-0.239E-04
CGA:  13    -0.354027146588E+03    0.27120E-04   -0.27076E-04 10584   0.211E-03-0.590E-04
CGA:  14    -0.354027192014E+03   -0.45426E-04   -0.46893E-04 10584   0.214E-04 0.144E-04
CGA:  15    -0.354027199911E+03   -0.78966E-05   -0.78917E-05 10584   0.499E-05 0.185E-06
  14 F= -.35402720E+03 E0= -.35402720E+03  d E =-.114139E-01  mag=    18.0000
       N       E                     dE             d eps       ncg     rms          ort
SDA:   1    -0.337223025338E+03    0.16804E+02    0.00000E+00 10584   0.409E+02 0.000E+00
CGA:   2    -0.350083654413E+03   -0.12861E+02   -0.12860E+02 10584   0.180E+02 0.441E-02
CGA:   3    -0.353051182607E+03   -0.29675E+01   -0.29727E+01 10584   0.430E+01 0.372E-01
CGA:   4    -0.353792443533E+03   -0.74126E+00   -0.74181E+00 10584   0.954E+00 0.271E-02
CGA:   5    -0.353963589176E+03   -0.17115E+00   -0.17114E+00 10584   0.272E+00-0.517E-03
CGA:   6    -0.354020087715E+03   -0.56499E-01   -0.56437E-01 10584   0.828E-01-0.882E-03
CGA:   7    -0.354040077931E+03   -0.19990E-01   -0.19976E-01 10584   0.323E-01-0.370E-03
CGA:   8    -0.354049125485E+03   -0.90476E-02   -0.90471E-02 10584   0.138E-01-0.156E-03
CGA:   9    -0.354053221503E+03   -0.40960E-02   -0.41003E-02 10584   0.513E-02-0.302E-03
CGA:  10    -0.354054687230E+03   -0.14657E-02   -0.14685E-02 10584   0.158E-02-0.357E-03
CGA:  11    -0.354055130049E+03   -0.44282E-03   -0.44675E-03 10584   0.466E-03-0.214E-03
CGA:  12    -0.354055269392E+03   -0.13934E-03   -0.14769E-03 10584   0.188E-03-0.104E-03
CGA:  13    -0.354055323840E+03   -0.54449E-04   -0.83059E-04 10584   0.190E-03-0.103E-03
CGA:  14    -0.354055370668E+03   -0.46827E-04   -0.46809E-04 10584   0.295E-04-0.355E-06
CGA:  15    -0.354055373163E+03   -0.24953E-05   -0.25628E-04 10584   0.103E-03-0.407E-04
CGA:  16    -0.354055394053E+03   -0.20890E-04   -0.21305E-04 10584   0.137E-04 0.343E-05
CGA:  17    -0.354055397709E+03   -0.36556E-05   -0.36128E-05 10584   0.318E-05-0.614E-06
  15 F= -.35405540E+03 E0= -.35405540E+03  d E =-.281978E-01  mag=    18.0000
       N       E                     dE             d eps       ncg     rms          ort
SDA:   1    -0.348057554718E+03    0.59978E+01    0.00000E+00 10584   0.134E+02 0.000E+00
CGA:   2    -0.352149353780E+03   -0.40918E+01   -0.40921E+01 10584   0.536E+01 0.304E-02
CGA:   3    -0.353211245757E+03   -0.10619E+01   -0.10622E+01 10584   0.167E+01-0.165E-02
CGA:   4    -0.353494171449E+03   -0.28293E+00   -0.28304E+00 10584   0.395E+00-0.462E-04
CGA:   5    -0.353573090586E+03   -0.78919E-01   -0.78896E-01 10584   0.132E+00-0.376E-03
CGA:   6    -0.353600394822E+03   -0.27304E-01   -0.27270E-01 10584   0.480E-01-0.407E-03
CGA:   7    -0.353613282715E+03   -0.12888E-01   -0.12878E-01 10584   0.202E-01-0.387E-03
CGA:   8    -0.353618460802E+03   -0.51781E-02   -0.51676E-02 10584   0.773E-02-0.287E-03
CGA:   9    -0.353620604937E+03   -0.21441E-02   -0.21431E-02 10584   0.244E-02-0.912E-04
CGA:  10    -0.353621280088E+03   -0.67515E-03   -0.67421E-03 10584   0.741E-03-0.759E-04
CGA:  11    -0.353621506417E+03   -0.22633E-03   -0.23015E-03 10584   0.258E-03-0.132E-03
CGA:  12    -0.353621579712E+03   -0.73295E-04   -0.77408E-04 10584   0.102E-03-0.578E-04
CGA:  13    -0.353621608965E+03   -0.29253E-04   -0.43624E-04 10584   0.998E-04-0.568E-04
CGA:  14    -0.353621638298E+03   -0.29333E-04   -0.28956E-04 10584   0.243E-04-0.198E-04
CGA:  15    -0.353621646399E+03   -0.81011E-05   -0.89759E-05 10584   0.107E-04-0.576E-05
  16 F= -.35362165E+03 E0= -.35362165E+03  d E =0.433751E+00  mag=    18.0000
       N       E                     dE             d eps       ncg     rms          ort
SDA:   1    -0.353119065959E+03    0.50257E+00    0.00000E+00 10584   0.198E+01 0.000E+00
CGA:   2    -0.353760456066E+03   -0.64139E+00   -0.64142E+00 10584   0.652E+00-0.251E-02
CGA:   3    -0.353919658337E+03   -0.15920E+00   -0.15928E+00 10584   0.144E+00 0.692E-03
CGA:   4    -0.353946757650E+03   -0.27099E-01   -0.27189E-01 10584   0.500E-01 0.787E-03
CGA:   5    -0.353956137326E+03   -0.93797E-02   -0.94550E-02 10584   0.138E-01 0.650E-03
CGA:   6    -0.353959357541E+03   -0.32202E-02   -0.32365E-02 10584   0.648E-02 0.233E-03
CGA:   7    -0.353960931239E+03   -0.15737E-02   -0.15825E-02 10584   0.231E-02 0.154E-03
CGA:   8    -0.353961560071E+03   -0.62883E-03   -0.63109E-03 10584   0.899E-03 0.831E-04
CGA:   9    -0.353961811430E+03   -0.25136E-03   -0.25127E-03 10584   0.292E-03-0.422E-05
CGA:  10    -0.353961876981E+03   -0.65550E-04   -0.67919E-04 10584   0.692E-04 0.406E-04
CGA:  11    -0.353961887815E+03   -0.10834E-04   -0.14037E-04 10584   0.207E-04 0.289E-04
CGA:  12    -0.353961891558E+03   -0.37428E-05   -0.50541E-05 10584   0.763E-05 0.118E-04
  17 F= -.35396189E+03 E0= -.35396189E+03  d E =-.340245E+00  mag=    18.0000
       N       E                     dE             d eps       ncg     rms          ort
SDA:   1    -0.353679925663E+03    0.28196E+00    0.00000E+00 10584   0.898E+00 0.000E+00
CGA:   2    -0.353969689490E+03   -0.28976E+00   -0.28978E+00 10584   0.300E+00-0.215E-03
CGA:   3    -0.354041253866E+03   -0.71564E-01   -0.71607E-01 10584   0.745E-01 0.851E-03
CGA:   4    -0.354054132640E+03   -0.12879E-01   -0.12944E-01 10584   0.241E-01 0.586E-03
CGA:   5    -0.354058725637E+03   -0.45930E-02   -0.46310E-02 10584   0.690E-02 0.438E-03
CGA:   6    -0.354060256646E+03   -0.15310E-02   -0.15380E-02 10584   0.311E-02 0.126E-03
CGA:   7    -0.354061044015E+03   -0.78737E-03   -0.78967E-03 10584   0.110E-02 0.104E-03
CGA:   8    -0.354061330621E+03   -0.28661E-03   -0.28838E-03 10584   0.418E-03 0.103E-03
CGA:   9    -0.354061449873E+03   -0.11925E-03   -0.11945E-03 10584   0.134E-03 0.264E-04
CGA:  10    -0.354061483038E+03   -0.33164E-04   -0.33903E-04 10584   0.353E-04 0.236E-04
CGA:  11    -0.354061486432E+03   -0.33945E-05   -0.59659E-05 10584   0.129E-04 0.208E-04
  18 F= -.35406149E+03 E0= -.35406149E+03  d E =-.995949E-01  mag=    18.0000
       N       E                     dE             d eps       ncg     rms          ort
SDA:   1    -0.353955584557E+03    0.10590E+00    0.00000E+00 10584   0.295E+00 0.000E+00
CGA:   2    -0.354049331450E+03   -0.93747E-01   -0.93764E-01 10584   0.103E+00-0.302E-03
CGA:   3    -0.354072013515E+03   -0.22682E-01   -0.22713E-01 10584   0.307E-01 0.859E-03
CGA:   4    -0.354076978098E+03   -0.49646E-02   -0.49990E-02 10584   0.812E-02 0.355E-03
CGA:   5    -0.354078612047E+03   -0.16339E-02   -0.16401E-02 10584   0.253E-02 0.119E-03
CGA:   6    -0.354079173944E+03   -0.56190E-03   -0.56125E-03 10584   0.111E-02-0.217E-04
CGA:   7    -0.354079453915E+03   -0.27997E-03   -0.27985E-03 10584   0.416E-03 0.143E-04
CGA:   8    -0.354079542852E+03   -0.88936E-04   -0.91322E-04 10584   0.137E-03 0.769E-04
CGA:   9    -0.354079577052E+03   -0.34200E-04   -0.35395E-04 10584   0.437E-04 0.421E-04
CGA:  10    -0.354079590706E+03   -0.13654E-04   -0.13707E-04 10584   0.163E-04 0.112E-04
CGA:  11    -0.354079592690E+03   -0.19847E-05   -0.30174E-05 10584   0.653E-05 0.106E-04
  19 F= -.35407959E+03 E0= -.35407959E+03  d E =-.181063E-01  mag=    18.0000
       N       E                     dE             d eps       ncg     rms          ort
SDA:   1    -0.354069091335E+03    0.10499E-01    0.00000E+00 10584   0.348E-01 0.000E+00
CGA:   2    -0.354079709024E+03   -0.10618E-01   -0.10662E-01 10584   0.134E-01-0.612E-03
CGA:   3    -0.354082206883E+03   -0.24979E-02   -0.25168E-02 10584   0.427E-02 0.427E-03
CGA:   4    -0.354082917865E+03   -0.71098E-03   -0.72285E-03 10584   0.957E-03 0.169E-03
CGA:   5    -0.354083132743E+03   -0.21488E-03   -0.21309E-03 10584   0.413E-03-0.111E-03
CGA:   6    -0.354083227571E+03   -0.94828E-04   -0.10491E-03 10584   0.325E-03-0.174E-03
CGA:   7    -0.354083269839E+03   -0.42268E-04   -0.41799E-04 10584   0.126E-03-0.457E-04
CGA:   8    -0.354083279716E+03   -0.98766E-05   -0.14106E-04 10584   0.533E-04 0.414E-04
  20 F= -.35408328E+03 E0= -.35408328E+03  d E =-.368703E-02  mag=    18.0000
       N       E                     dE             d eps       ncg     rms          ort
SDA:   1    -0.354065158824E+03    0.18111E-01    0.00000E+00 10584   0.541E-01 0.000E+00
CGA:   2    -0.354081285133E+03   -0.16126E-01   -0.16193E-01 10584   0.212E-01-0.850E-03
CGA:   3    -0.354085205580E+03   -0.39204E-02   -0.39388E-02 10584   0.678E-02 0.514E-03
CGA:   4    -0.354086318498E+03   -0.11129E-02   -0.11245E-02 10584   0.156E-02 0.190E-03
CGA:   5    -0.354086662602E+03   -0.34410E-03   -0.34300E-03 10584   0.637E-03-0.200E-03
CGA:   6    -0.354086804754E+03   -0.14215E-03   -0.16812E-03 10584   0.558E-03-0.311E-03
CGA:   7    -0.354086869669E+03   -0.64914E-04   -0.65660E-04 10584   0.243E-03-0.114E-03
CGA:   8    -0.354086891216E+03   -0.21548E-04   -0.26750E-04 10584   0.104E-03 0.610E-04
CGA:   9    -0.354086898412E+03   -0.71957E-05   -0.13908E-04 10584   0.453E-04 0.594E-04
  21 F= -.35408690E+03 E0= -.35408690E+03  d E =-.361870E-02  mag=    18.0000
       N       E                     dE             d eps       ncg     rms          ort
SDA:   1    -0.354084600493E+03    0.22907E-02    0.00000E+00 10584   0.100E-01 0.000E+00
CGA:   2    -0.354087502858E+03   -0.29024E-02   -0.29350E-02 10584   0.427E-02-0.405E-03
CGA:   3    -0.354088210465E+03   -0.70761E-03   -0.71541E-03 10584   0.110E-02 0.186E-03
CGA:   4    -0.354088390996E+03   -0.18053E-03   -0.18574E-03 10584   0.218E-03 0.988E-04
CGA:   5    -0.354088448584E+03   -0.57588E-04   -0.60011E-04 10584   0.124E-03-0.583E-04
CGA:   6    -0.354088441118E+03    0.74666E-05   -0.45739E-04 10584   0.455E-03-0.184E-03
CGA:   7    -0.354088489153E+03   -0.48036E-04   -0.52475E-04 10584   0.565E-04 0.393E-04
CGA:   8    -0.354088494114E+03   -0.49604E-05   -0.78090E-05 10584   0.195E-04 0.300E-04
  22 F= -.35408849E+03 E0= -.35408849E+03  d E =-.159570E-02  mag=    18.0000
       N       E                     dE             d eps       ncg     rms          ort
SDA:   1    -0.354012868419E+03    0.75621E-01    0.00000E+00 10584   0.210E+00 0.000E+00
CGA:   2    -0.354074912310E+03   -0.62044E-01   -0.62217E-01 10584   0.845E-01-0.215E-02
CGA:   3    -0.354090266069E+03   -0.15354E-01   -0.15377E-01 10584   0.228E-01 0.643E-03
CGA:   4    -0.354093981647E+03   -0.37156E-02   -0.37403E-02 10584   0.448E-02 0.461E-03
CGA:   5    -0.354094853332E+03   -0.87169E-03   -0.87139E-03 10584   0.134E-02-0.141E-04
CGA:   6    -0.354095148718E+03   -0.29539E-03   -0.29673E-03 10584   0.486E-03-0.143E-03
CGA:   7    -0.354095264412E+03   -0.11569E-03   -0.12223E-03 10584   0.255E-03-0.950E-04
CGA:   8    -0.354095310332E+03   -0.45920E-04   -0.45838E-04 10584   0.822E-04 0.111E-04
CGA:   9    -0.354095328182E+03   -0.17850E-04   -0.17987E-04 10584   0.262E-04 0.204E-04
CGA:  10    -0.354095336946E+03   -0.87645E-05   -0.87791E-05 10584   0.112E-04-0.281E-06
  23 F= -.35409534E+03 E0= -.35409534E+03  d E =-.684283E-02  mag=    18.0000
       N       E                     dE             d eps       ncg     rms          ort
SDA:   1    -0.354032264914E+03    0.63063E-01    0.00000E+00 10584   0.165E+00 0.000E+00
CGA:   2    -0.354083303100E+03   -0.51038E-01   -0.51179E-01 10584   0.682E-01-0.170E-02
CGA:   3    -0.354095241985E+03   -0.11939E-01   -0.11956E-01 10584   0.178E-01 0.277E-03
CGA:   4    -0.354098203233E+03   -0.29612E-02   -0.29778E-02 10584   0.364E-02 0.269E-03
CGA:   5    -0.354098912972E+03   -0.70974E-03   -0.70811E-03 10584   0.110E-02-0.512E-04
CGA:   6    -0.354099156312E+03   -0.24334E-03   -0.24365E-03 10584   0.401E-03-0.115E-03
CGA:   7    -0.354099252622E+03   -0.96310E-04   -0.10063E-03 10584   0.208E-03-0.751E-04
CGA:   8    -0.354099292122E+03   -0.39501E-04   -0.39497E-04 10584   0.689E-04 0.413E-06
CGA:   9    -0.354099306213E+03   -0.14090E-04   -0.14380E-04 10584   0.203E-04 0.163E-04
CGA:  10    -0.354099311699E+03   -0.54864E-05   -0.55133E-05 10584   0.675E-05 0.446E-05
  24 F= -.35409931E+03 E0= -.35409931E+03  d E =-.397475E-02  mag=    18.0000
       N       E                     dE             d eps       ncg     rms          ort
SDA:   1    -0.353635107493E+03    0.46420E+00    0.00000E+00 10584   0.114E+01 0.000E+00
CGA:   2    -0.353992107989E+03   -0.35700E+00   -0.35716E+00 10584   0.495E+00-0.211E-02
CGA:   3    -0.354076723318E+03   -0.84615E-01   -0.84652E-01 10584   0.124E+00 0.231E-03
CGA:   4    -0.354097574437E+03   -0.20851E-01   -0.20894E-01 10584   0.265E-01 0.676E-03
CGA:   5    -0.354102431913E+03   -0.48575E-02   -0.48764E-02 10584   0.757E-02 0.423E-03
CGA:   6    -0.354103974612E+03   -0.15427E-02   -0.15461E-02 10584   0.220E-02 0.137E-03
CGA:   7    -0.354104543054E+03   -0.56844E-03   -0.56983E-03 10584   0.916E-03-0.464E-04
CGA:   8    -0.354104778628E+03   -0.23557E-03   -0.23463E-03 10584   0.356E-03 0.260E-04
CGA:   9    -0.354104871380E+03   -0.92752E-04   -0.91452E-04 10584   0.110E-03 0.580E-04
CGA:  10    -0.354104905274E+03   -0.33894E-04   -0.33336E-04 10584   0.351E-04 0.168E-04
CGA:  11    -0.354104914437E+03   -0.91635E-05   -0.91920E-05 10584   0.940E-05 0.948E-05
  25 F= -.35410491E+03 E0= -.35410491E+03  d E =-.560274E-02  mag=    18.0000
       N       E                     dE             d eps       ncg     rms          ort
SDA:   1    -0.353576664973E+03    0.52824E+00    0.00000E+00 10584   0.124E+01 0.000E+00
CGA:   2    -0.353989146996E+03   -0.41248E+00   -0.41264E+00 10584   0.535E+00-0.168E-02
CGA:   3    -0.354076927754E+03   -0.87781E-01   -0.87769E-01 10584   0.126E+00-0.499E-03
CGA:   4    -0.354098853678E+03   -0.21926E-01   -0.21918E-01 10584   0.293E-01-0.162E-03
CGA:   5    -0.354104204297E+03   -0.53506E-02   -0.53502E-02 10584   0.831E-02-0.173E-04
CGA:   6    -0.354105874324E+03   -0.16700E-02   -0.16709E-02 10584   0.252E-02 0.399E-04
CGA:   7    -0.354106507268E+03   -0.63294E-03   -0.63503E-03 10584   0.102E-02-0.701E-04
CGA:   8    -0.354106793720E+03   -0.28645E-03   -0.29534E-03 10584   0.500E-03-0.120E-03
CGA:   9    -0.354106910665E+03   -0.11694E-03   -0.11699E-03 10584   0.155E-03-0.125E-05
CGA:  10    -0.354106949592E+03   -0.38928E-04   -0.38689E-04 10584   0.405E-04 0.105E-04
CGA:  11    -0.354106962263E+03   -0.12671E-04   -0.20458E-04 10584   0.441E-04-0.320E-04
CGA:  12    -0.354106968935E+03   -0.66720E-05   -0.73207E-05 10584   0.463E-05 0.857E-05
  26 F= -.35410697E+03 E0= -.35410697E+03  d E =-.205450E-02  mag=    18.0000
       N       E                     dE             d eps       ncg     rms          ort
SDA:   1    -0.353284389771E+03    0.82257E+00    0.00000E+00 10584   0.191E+01 0.000E+00
CGA:   2    -0.353935657599E+03   -0.65127E+00   -0.65129E+00 10584   0.703E+00-0.340E-03
CGA:   3    -0.354058868332E+03   -0.12321E+00   -0.12328E+00 10584   0.177E+00 0.606E-03
CGA:   4    -0.354088534740E+03   -0.29666E-01   -0.29697E-01 10584   0.407E-01 0.353E-03
CGA:   5    -0.354096266215E+03   -0.77315E-02   -0.77417E-02 10584   0.120E-01 0.185E-03
CGA:   6    -0.354098634113E+03   -0.23679E-02   -0.23732E-02 10584   0.379E-02 0.115E-03
CGA:   7    -0.354099580506E+03   -0.94639E-03   -0.94578E-03 10584   0.146E-02 0.721E-04
CGA:   8    -0.354099975561E+03   -0.39506E-03   -0.39355E-03 10584   0.607E-03 0.605E-04
CGA:   9    -0.354100140914E+03   -0.16535E-03   -0.16392E-03 10584   0.189E-03 0.760E-04
CGA:  10    -0.354100191489E+03   -0.50575E-04   -0.50693E-04 10584   0.534E-04 0.411E-04
CGA:  11    -0.354100206496E+03   -0.15006E-04   -0.15132E-04 10584   0.148E-04 0.146E-04
CGA:  12    -0.354100209127E+03   -0.26312E-05   -0.32594E-05 10584   0.565E-05 0.917E-05
  27 F= -.35410021E+03 E0= -.35410021E+03  d E =0.675981E-02  mag=    18.0000
       N       E                     dE             d eps       ncg     rms          ort
SDA:   1    -0.353413282183E+03    0.68692E+00    0.00000E+00 10584   0.163E+01 0.000E+00
CGA:   2    -0.353940651320E+03   -0.52737E+00   -0.52736E+00 10584   0.700E+00-0.182E-03
CGA:   3    -0.354058126350E+03   -0.11748E+00   -0.11760E+00 10584   0.173E+00 0.151E-02
CGA:   4    -0.354088125640E+03   -0.29999E-01   -0.30025E-01 10584   0.402E-01 0.419E-03
CGA:   5    -0.354095591409E+03   -0.74658E-02   -0.74537E-02 10584   0.118E-01-0.283E-03
CGA:   6    -0.354098017833E+03   -0.24264E-02   -0.24200E-02 10584   0.384E-02-0.306E-03
CGA:   7    -0.354098934556E+03   -0.91672E-03   -0.91785E-03 10584   0.147E-02-0.579E-04
CGA:   8    -0.354099303059E+03   -0.36850E-03   -0.36695E-03 10584   0.548E-03 0.582E-04
CGA:   9    -0.354099469640E+03   -0.16658E-03   -0.16637E-03 10584   0.197E-03 0.323E-05
CGA:  10    -0.354099530886E+03   -0.61246E-04   -0.63927E-04 10584   0.760E-04-0.296E-04
CGA:  11    -0.354099548960E+03   -0.18073E-04   -0.18633E-04 10584   0.209E-04-0.107E-04
CGA:  12    -0.354099554464E+03   -0.55040E-05   -0.83029E-05 10584   0.164E-04-0.125E-04
  28 F= -.35409955E+03 E0= -.35409955E+03  d E =0.654663E-03  mag=    18.0000
       N       E                     dE             d eps       ncg     rms          ort
SDA:   1    -0.353623503578E+03    0.47605E+00    0.00000E+00 10584   0.113E+01 0.000E+00
CGA:   2    -0.353994052768E+03   -0.37055E+00   -0.37070E+00 10584   0.470E+00-0.202E-02
CGA:   3    -0.354077239301E+03   -0.83187E-01   -0.83277E-01 10584   0.118E+00 0.103E-02
CGA:   4    -0.354097066666E+03   -0.19827E-01   -0.19890E-01 10584   0.267E-01 0.785E-03
CGA:   5    -0.354102214895E+03   -0.51482E-02   -0.51670E-02 10584   0.826E-02 0.372E-03
CGA:   6    -0.354103881240E+03   -0.16663E-02   -0.16710E-02 10584   0.265E-02 0.113E-03
CGA:   7    -0.354104579705E+03   -0.69847E-03   -0.69822E-03 10584   0.110E-02 0.107E-04
CGA:   8    -0.354104865876E+03   -0.28617E-03   -0.28553E-03 10584   0.429E-03 0.341E-04
CGA:   9    -0.354104982817E+03   -0.11694E-03   -0.11594E-03 10584   0.133E-03 0.436E-04
CGA:  10    -0.354105021027E+03   -0.38210E-04   -0.37931E-04 10584   0.386E-04 0.154E-04
CGA:  11    -0.354105031571E+03   -0.10544E-04   -0.10525E-04 10584   0.963E-05 0.620E-05
CGA:  12    -0.354105033950E+03   -0.23798E-05   -0.24546E-05 10584   0.276E-05 0.336E-05
  29 F= -.35410503E+03 E0= -.35410503E+03  d E =-.547949E-02  mag=    18.0000
       N       E                     dE             d eps       ncg     rms          ort
SDA:   1    -0.353795023577E+03    0.31001E+00    0.00000E+00 10584   0.755E+00 0.000E+00
CGA:   2    -0.354036912821E+03   -0.24189E+00   -0.24204E+00 10584   0.325E+00-0.210E-02
CGA:   3    -0.354092122077E+03   -0.55209E-01   -0.55214E-01 10584   0.808E-01-0.126E-03
CGA:   4    -0.354106135025E+03   -0.14013E-01   -0.14030E-01 10584   0.181E-01 0.226E-03
CGA:   5    -0.354109418165E+03   -0.32831E-02   -0.32978E-02 10584   0.526E-02 0.248E-03
CGA:   6    -0.354110476704E+03   -0.10585E-02   -0.10648E-02 10584   0.159E-02 0.168E-03
CGA:   7    -0.354110889426E+03   -0.41272E-03   -0.41231E-03 10584   0.647E-03 0.248E-04
CGA:   8    -0.354111076643E+03   -0.18722E-03   -0.18872E-03 10584   0.294E-03-0.292E-04
CGA:   9    -0.354111146144E+03   -0.69502E-04   -0.69226E-04 10584   0.868E-04 0.324E-04
CGA:  10    -0.354111165116E+03   -0.18972E-04   -0.19826E-04 10584   0.244E-04 0.260E-04
CGA:  11    -0.354111172038E+03   -0.69214E-05   -0.70310E-05 10584   0.729E-05 0.704E-05
  30 F= -.35411117E+03 E0= -.35411117E+03  d E =-.613809E-02  mag=    18.0000
       N       E                     dE             d eps       ncg     rms          ort
SDA:   1    -0.353861563861E+03    0.24960E+00    0.00000E+00 10584   0.598E+00 0.000E+00
CGA:   2    -0.354056130647E+03   -0.19457E+00   -0.19462E+00 10584   0.254E+00-0.730E-03
CGA:   3    -0.354097677403E+03   -0.41547E-01   -0.41619E-01 10584   0.586E-01 0.798E-03
CGA:   4    -0.354107937586E+03   -0.10260E-01   -0.10290E-01 10584   0.135E-01 0.462E-03
CGA:   5    -0.354110412636E+03   -0.24750E-02   -0.24777E-02 10584   0.381E-02 0.473E-04
CGA:   6    -0.354111190535E+03   -0.77790E-03   -0.77656E-03 10584   0.117E-02-0.450E-04
CGA:   7    -0.354111466364E+03   -0.27583E-03   -0.27578E-03 10584   0.443E-03 0.619E-05
CGA:   8    -0.354111576484E+03   -0.11012E-03   -0.10953E-03 10584   0.160E-03 0.418E-04
CGA:   9    -0.354111622052E+03   -0.45568E-04   -0.44874E-04 10584   0.534E-04 0.293E-04
CGA:  10    -0.354111637119E+03   -0.15067E-04   -0.15013E-04 10584   0.161E-04 0.138E-04
CGA:  11    -0.354111640816E+03   -0.36974E-05   -0.39838E-05 10584   0.499E-05 0.756E-05
  31 F= -.35411164E+03 E0= -.35411164E+03  d E =-.468778E-03  mag=    18.0000
       N       E                     dE             d eps       ncg     rms          ort
SDA:   1    -0.351309967421E+03    0.28017E+01    0.00000E+00 10584   0.661E+01 0.000E+00
CGA:   2    -0.353484864597E+03   -0.21749E+01   -0.21752E+01 10584   0.286E+01-0.384E-02
CGA:   3    -0.353950488295E+03   -0.46562E+00   -0.46597E+00 10584   0.653E+00 0.286E-02
CGA:   4    -0.354063561886E+03   -0.11307E+00   -0.11315E+00 10584   0.151E+00 0.111E-02
CGA:   5    -0.354090988307E+03   -0.27426E-01   -0.27406E-01 10584   0.431E-01-0.471E-03
CGA:   6    -0.354099652148E+03   -0.86638E-02   -0.86530E-02 10584   0.130E-01-0.475E-03
CGA:   7    -0.354102709747E+03   -0.30576E-02   -0.30579E-02 10584   0.489E-02-0.257E-04
CGA:   8    -0.354104024151E+03   -0.13144E-02   -0.13128E-02 10584   0.202E-02 0.361E-04
CGA:   9    -0.354104631136E+03   -0.60698E-03   -0.61145E-03 10584   0.780E-03-0.610E-04
CGA:  10    -0.354104842092E+03   -0.21096E-03   -0.21223E-03 10584   0.226E-03-0.255E-04
CGA:  11    -0.354104905165E+03   -0.63073E-04   -0.64544E-04 10584   0.606E-04-0.237E-04
CGA:  12    -0.354104917525E+03   -0.12360E-04   -0.31183E-04 10584   0.913E-04-0.555E-04
CGA:  13    -0.354104930352E+03   -0.12827E-04   -0.14836E-04 10584   0.111E-04 0.222E-04
CGA:  14    -0.354104932697E+03   -0.23453E-05   -0.26088E-05 10584   0.357E-05 0.448E-05
  32 F= -.35410493E+03 E0= -.35410493E+03  d E =0.670812E-02  mag=    18.0000
       N       E                     dE             d eps       ncg     rms          ort
SDA:   1    -0.344997590469E+03    0.91073E+01    0.00000E+00 10584   0.212E+02 0.000E+00
CGA:   2    -0.352350284718E+03   -0.73527E+01   -0.73552E+01 10584   0.741E+01-0.258E-01
CGA:   3    -0.353642267668E+03   -0.12920E+01   -0.12936E+01 10584   0.185E+01 0.381E-02
CGA:   4    -0.353951049139E+03   -0.30878E+00   -0.30895E+00 10584   0.434E+00 0.143E-02
CGA:   5    -0.354031599219E+03   -0.80550E-01   -0.80559E-01 10584   0.126E+00 0.197E-03
CGA:   6    -0.354056281429E+03   -0.24682E-01   -0.24703E-01 10584   0.386E-01 0.341E-03
CGA:   7    -0.354065770971E+03   -0.94895E-02   -0.94902E-02 10584   0.152E-01 0.145E-03
CGA:   8    -0.354070003204E+03   -0.42322E-02   -0.42371E-02 10584   0.674E-02-0.173E-03
CGA:   9    -0.354071880456E+03   -0.18773E-02   -0.18755E-02 10584   0.230E-02 0.571E-04
CGA:  10    -0.354072497623E+03   -0.61717E-03   -0.61587E-03 10584   0.603E-03 0.945E-04
CGA:  11    -0.354072686014E+03   -0.18839E-03   -0.19216E-03 10584   0.183E-03-0.712E-04
CGA:  12    -0.354072734697E+03   -0.48683E-04   -0.49340E-04 10584   0.535E-04-0.133E-04
CGA:  13    -0.354072751458E+03   -0.16761E-04   -0.17044E-04 10584   0.197E-04-0.335E-05
CGA:  14    -0.354072731322E+03    0.20136E-04   -0.23171E-04 10584   0.151E-03-0.437E-04
CGA:  15    -0.354072757532E+03   -0.26210E-04   -0.29599E-04 10584   0.169E-04 0.291E-04
CGA:  16    -0.354072762774E+03   -0.52420E-05   -0.53581E-05 10584   0.400E-05 0.284E-05
  33 F= -.35407276E+03 E0= -.35407276E+03  d E =0.321699E-01  mag=    18.0000
       N       E                     dE             d eps       ncg     rms          ort
SDA:   1    -0.352283702269E+03    0.17891E+01    0.00000E+00 10584   0.439E+01 0.000E+00
CGA:   2    -0.353644426706E+03   -0.13607E+01   -0.13608E+01 10584   0.211E+01 0.201E-02
CGA:   3    -0.353995846605E+03   -0.35142E+00   -0.35118E+00 10584   0.492E+00-0.119E-02
CGA:   4    -0.354081260803E+03   -0.85414E-01   -0.85317E-01 10584   0.116E+00-0.681E-03
CGA:   5    -0.354101936738E+03   -0.20676E-01   -0.20718E-01 10584   0.334E-01 0.298E-03
CGA:   6    -0.354108669914E+03   -0.67332E-02   -0.67622E-02 10584   0.102E-01 0.299E-03
CGA:   7    -0.354111202292E+03   -0.25324E-02   -0.25292E-02 10584   0.405E-02-0.691E-04
CGA:   8    -0.354112296666E+03   -0.10944E-02   -0.10921E-02 10584   0.169E-02-0.121E-03
CGA:   9    -0.354112761076E+03   -0.46441E-03   -0.46426E-03 10584   0.586E-03-0.236E-04
CGA:  10    -0.354112925253E+03   -0.16418E-03   -0.16401E-03 10584   0.180E-03-0.305E-04
CGA:  11    -0.354112976007E+03   -0.50755E-04   -0.50931E-04 10584   0.503E-04-0.198E-04
CGA:  12    -0.354112987085E+03   -0.11078E-04   -0.11263E-04 10584   0.120E-04 0.489E-05
CGA:  13    -0.354112972310E+03    0.14775E-04   -0.15189E-04 10584   0.113E-03-0.345E-04
CGA:  14    -0.354112998206E+03   -0.25897E-04   -0.26360E-04 10584   0.107E-04 0.470E-05
CGA:  15    -0.354113001488E+03   -0.32821E-05   -0.32950E-05 10584   0.199E-05 0.415E-06
  34 F= -.35411300E+03 E0= -.35411300E+03  d E =-.402387E-01  mag=    18.0000
       N       E                     dE             d eps       ncg     rms          ort
SDA:   1    -0.354002526986E+03    0.11047E+00    0.00000E+00 10584   0.276E+00 0.000E+00
CGA:   2    -0.354086687780E+03   -0.84161E-01   -0.84170E-01 10584   0.108E+00 0.582E-03
CGA:   3    -0.354107849880E+03   -0.21162E-01   -0.21156E-01 10584   0.360E-01-0.798E-04
CGA:   4    -0.354113885743E+03   -0.60359E-02   -0.60176E-02 10584   0.850E-02-0.134E-03
CGA:   5    -0.354115577194E+03   -0.16915E-02   -0.16653E-02 10584   0.290E-02-0.246E-03
CGA:   6    -0.354116213506E+03   -0.63631E-03   -0.61876E-03 10584   0.116E-02-0.224E-03
CGA:   7    -0.354116499138E+03   -0.28563E-03   -0.28337E-03 10584   0.486E-03-0.781E-04
CGA:   8    -0.354116600435E+03   -0.10130E-03   -0.10289E-03 10584   0.154E-03 0.241E-04
CGA:   9    -0.354116645281E+03   -0.44846E-04   -0.44864E-04 10584   0.514E-04 0.152E-05
CGA:  10    -0.354116661804E+03   -0.16524E-04   -0.26205E-04 10584   0.782E-04-0.450E-04
CGA:  11    -0.354116672971E+03   -0.11167E-04   -0.12397E-04 10584   0.682E-05 0.869E-05
CGA:  12    -0.354116675716E+03   -0.27452E-05   -0.31214E-05 10584   0.413E-05-0.317E-05
  35 F= -.35411668E+03 E0= -.35411668E+03  d E =-.367423E-02  mag=    18.0000
       N       E                     dE             d eps       ncg     rms          ort
SDA:   1    -0.354082967978E+03    0.33705E-01    0.00000E+00 10584   0.839E-01 0.000E+00
CGA:   2    -0.354110806336E+03   -0.27838E-01   -0.27847E-01 10584   0.288E-01-0.255E-03
CGA:   3    -0.354116266649E+03   -0.54603E-02   -0.54737E-02 10584   0.791E-02 0.118E-03
CGA:   4    -0.354117562269E+03   -0.12956E-02   -0.13007E-02 10584   0.189E-02 0.376E-04
CGA:   5    -0.354117920493E+03   -0.35822E-03   -0.36208E-03 10584   0.549E-03 0.395E-04
CGA:   6    -0.354118023779E+03   -0.10329E-03   -0.10676E-03 10584   0.175E-03 0.373E-04
CGA:   7    -0.354118069424E+03   -0.45645E-04   -0.46090E-04 10584   0.682E-04 0.136E-04
CGA:   8    -0.354118090589E+03   -0.21165E-04   -0.21187E-04 10584   0.338E-04-0.201E-05
CGA:   9    -0.354118096265E+03   -0.56767E-05   -0.64374E-05 10584   0.996E-05 0.935E-05
  36 F= -.35411810E+03 E0= -.35411810E+03  d E =-.142055E-02  mag=    18.0000
       N       E                     dE             d eps       ncg     rms          ort
SDA:   1    -0.354102823170E+03    0.15267E-01    0.00000E+00 10584   0.386E-01 0.000E+00
CGA:   2    -0.354114207676E+03   -0.11385E-01   -0.11370E-01 10584   0.203E-01 0.497E-03
CGA:   3    -0.354117658606E+03   -0.34509E-02   -0.34308E-02 10584   0.439E-02-0.210E-03
CGA:   4    -0.354118454267E+03   -0.79566E-03   -0.77734E-03 10584   0.110E-02-0.219E-03
CGA:   5    -0.354118651752E+03   -0.19749E-03   -0.19054E-03 10584   0.327E-03-0.909E-04
CGA:   6    -0.354118715228E+03   -0.63476E-04   -0.62319E-04 10584   0.964E-04-0.248E-04
CGA:   7    -0.354118733947E+03   -0.18719E-04   -0.18823E-04 10584   0.291E-04 0.250E-05
CGA:   8    -0.354118742233E+03   -0.82856E-05   -0.83236E-05 10584   0.124E-04-0.135E-05
CGA:   9    -0.354118681530E+03    0.60702E-04   -0.32695E-04 10584   0.379E-03-0.593E-04
CGA:  10    -0.354118741160E+03   -0.59630E-04   -0.61988E-04 10584   0.413E-04 0.790E-05
CGA:  11    -0.354118750242E+03   -0.90818E-05   -0.10529E-04 10584   0.101E-04 0.742E-05
  37 F= -.35411875E+03 E0= -.35411875E+03  d E =-.653977E-03  mag=    18.0000
       N       E                     dE             d eps       ncg     rms          ort
SDA:   1    -0.353052530139E+03    0.10662E+01    0.00000E+00 10584   0.248E+01 0.000E+00
CGA:   2    -0.353924795604E+03   -0.87227E+00   -0.87238E+00 10584   0.826E+00 0.144E-02
CGA:   3    -0.354073177287E+03   -0.14838E+00   -0.14807E+00 10584   0.199E+00-0.194E-02
CGA:   4    -0.354106005278E+03   -0.32828E-01   -0.32678E-01 10584   0.445E-01-0.613E-03
CGA:   5    -0.354114387996E+03   -0.83827E-02   -0.83877E-02 10584   0.127E-01 0.161E-04
CGA:   6    -0.354116793927E+03   -0.24059E-02   -0.24250E-02 10584   0.357E-02 0.933E-04
CGA:   7    -0.354117664680E+03   -0.87075E-03   -0.87014E-03 10584   0.137E-02-0.493E-05
CGA:   8    -0.354118070309E+03   -0.40563E-03   -0.39997E-03 10584   0.661E-03-0.714E-04
CGA:   9    -0.354118259401E+03   -0.18909E-03   -0.18639E-03 10584   0.246E-03-0.385E-04
CGA:  10    -0.354118323477E+03   -0.64076E-04   -0.63580E-04 10584   0.653E-04-0.554E-05
CGA:  11    -0.354118339102E+03   -0.15625E-04   -0.15966E-04 10584   0.143E-04 0.311E-05
CGA:  12    -0.354118342384E+03   -0.32823E-05   -0.36132E-05 10584   0.371E-05 0.291E-05
  38 F= -.35411834E+03 E0= -.35411834E+03  d E =0.407858E-03  mag=    18.0000
       N       E                     dE             d eps       ncg     rms          ort
SDA:   1    -0.346860815966E+03    0.72575E+01    0.00000E+00 10584   0.168E+02 0.000E+00
CGA:   2    -0.352910973458E+03   -0.60502E+01   -0.60502E+01 10584   0.477E+01 0.499E-03
CGA:   3    -0.353857780906E+03   -0.94681E+00   -0.94758E+00 10584   0.107E+01-0.259E-02
CGA:   4    -0.354035363269E+03   -0.17758E+00   -0.17738E+00 10584   0.274E+00-0.932E-03
CGA:   5    -0.354087489331E+03   -0.52126E-01   -0.52102E-01 10584   0.747E-01-0.205E-03
CGA:   6    -0.354102445276E+03   -0.14956E-01   -0.14978E-01 10584   0.242E-01 0.125E-03
CGA:   7    -0.354108488703E+03   -0.60434E-02   -0.60270E-02 10584   0.974E-02-0.202E-03
CGA:   8    -0.354111391728E+03   -0.29030E-02   -0.28926E-02 10584   0.461E-02-0.369E-03
CGA:   9    -0.354112620737E+03   -0.12290E-02   -0.12269E-02 10584   0.152E-02-0.429E-04
CGA:  10    -0.354113041830E+03   -0.42109E-03   -0.41945E-03 10584   0.390E-03-0.369E-04
CGA:  11    -0.354113157607E+03   -0.11578E-03   -0.11465E-03 10584   0.115E-03-0.550E-04
CGA:  12    -0.354113180956E+03   -0.23350E-04   -0.24236E-04 10584   0.271E-04 0.118E-04
CGA:  13    -0.354113191769E+03   -0.10812E-04   -0.11043E-04 10584   0.152E-04-0.443E-05
CGA:  14    -0.354113201034E+03   -0.92651E-05    0.14063E-04 10584   0.704E-05 0.787E-06
  39 F= -.35411320E+03 E0= -.35411320E+03  d E =0.514135E-02  mag=    18.0000
       N       E                     dE             d eps       ncg     rms          ort
SDA:   1    -0.353270850232E+03    0.84234E+00    0.00000E+00 10584   0.200E+01 0.000E+00
CGA:   2    -0.353939374376E+03   -0.66852E+00   -0.66853E+00 10584   0.767E+00-0.819E-03
CGA:   3    -0.354073476273E+03   -0.13410E+00   -0.13445E+00 10584   0.198E+00 0.233E-02
CGA:   4    -0.354105930849E+03   -0.32455E-01   -0.32641E-01 10584   0.440E-01 0.120E-02
CGA:   5    -0.354114194207E+03   -0.82634E-02   -0.82555E-02 10584   0.132E-01-0.718E-04
CGA:   6    -0.354116918901E+03   -0.27247E-02   -0.26939E-02 10584   0.433E-02-0.325E-03
CGA:   7    -0.354117954285E+03   -0.10354E-02   -0.10324E-02 10584   0.166E-02-0.589E-04
CGA:   8    -0.354118352040E+03   -0.39775E-03   -0.40371E-03 10584   0.615E-03 0.131E-03
CGA:   9    -0.354118531172E+03   -0.17913E-03   -0.18022E-03 10584   0.206E-03 0.584E-04
CGA:  10    -0.354118598995E+03   -0.67823E-04   -0.67879E-04 10584   0.734E-04-0.470E-05
CGA:  11    -0.354118615759E+03   -0.16764E-04   -0.17156E-04 10584   0.173E-04 0.767E-05
CGA:  12    -0.354118620492E+03   -0.47333E-05   -0.48208E-05 10584   0.473E-05 0.251E-05
  40 F= -.35411862E+03 E0= -.35411862E+03  d E =-.541946E-02  mag=    18.0000
       N       E                     dE             d eps       ncg     rms          ort
SDA:   1    -0.353515551529E+03    0.60306E+00    0.00000E+00 10584   0.142E+01 0.000E+00
CGA:   2    -0.354015761501E+03   -0.50021E+00   -0.50040E+00 10584   0.432E+00-0.240E-02
CGA:   3    -0.354100863460E+03   -0.85102E-01   -0.85050E-01 10584   0.107E+00-0.710E-03
CGA:   4    -0.354118376723E+03   -0.17513E-01   -0.17540E-01 10584   0.256E-01 0.227E-03
CGA:   5    -0.354123208804E+03   -0.48321E-02   -0.48709E-02 10584   0.719E-02 0.470E-03
CGA:   6    -0.354124636433E+03   -0.14276E-02   -0.14472E-02 10584   0.234E-02 0.276E-03
CGA:   7    -0.354125254564E+03   -0.61813E-03   -0.61818E-03 10584   0.959E-03 0.483E-05
CGA:   8    -0.354125544618E+03   -0.29005E-03   -0.29316E-03 10584   0.484E-03-0.761E-04
CGA:   9    -0.354125649520E+03   -0.10490E-03   -0.10607E-03 10584   0.137E-03 0.411E-04
CGA:  10    -0.354125682559E+03   -0.33039E-04   -0.33931E-04 10584   0.377E-04 0.246E-04
CGA:  11    -0.354125697403E+03   -0.14844E-04   -0.18903E-04 10584   0.347E-04-0.251E-04
CGA:  12    -0.354125701856E+03   -0.44532E-05   -0.54205E-05 10584   0.420E-05 0.843E-05
  41 F= -.35412570E+03 E0= -.35412570E+03  d E =-.708136E-02  mag=    18.0000
       N       E                     dE             d eps       ncg     rms          ort
SDA:   1    -0.354065356484E+03    0.60341E-01    0.00000E+00 10584   0.143E+00 0.000E+00
CGA:   2    -0.354113234441E+03   -0.47878E-01   -0.47853E-01 10584   0.531E-01 0.476E-03
CGA:   3    -0.354123166515E+03   -0.99321E-02   -0.98725E-02 10584   0.143E-01-0.625E-03
CGA:   4    -0.354125564322E+03   -0.23978E-02   -0.23665E-02 10584   0.325E-02-0.283E-03
CGA:   5    -0.354126150807E+03   -0.58649E-03   -0.59069E-03 10584   0.931E-03 0.472E-04
CGA:   6    -0.354126321096E+03   -0.17029E-03   -0.17762E-03 10584   0.270E-03 0.902E-04
CGA:   7    -0.354126393492E+03   -0.72396E-04   -0.72788E-04 10584   0.110E-03 0.200E-04
CGA:   8    -0.354126433735E+03   -0.40243E-04   -0.45841E-04 10584   0.106E-03-0.448E-04
CGA:   9    -0.354126445714E+03   -0.11979E-04   -0.11822E-04 10584   0.439E-04-0.193E-05
CGA:  10    -0.354126450397E+03   -0.46835E-05   -0.58405E-05 10584   0.171E-04 0.884E-05
  42 F= -.35412645E+03 E0= -.35412645E+03  d E =-.748541E-03  mag=    18.0000
       N       E                     dE             d eps       ncg     rms          ort
SDA:   1    -0.354121861151E+03    0.45846E-02    0.00000E+00 10584   0.126E-01 0.000E+00
CGA:   2    -0.354125716263E+03   -0.38551E-02   -0.38467E-02 10584   0.483E-02 0.166E-03
CGA:   3    -0.354126607033E+03   -0.89077E-03   -0.90609E-03 10584   0.144E-02 0.210E-03
CGA:   4    -0.354126865547E+03   -0.25851E-03   -0.26226E-03 10584   0.324E-03 0.471E-04
CGA:   5    -0.354126946549E+03   -0.81003E-04   -0.80134E-04 10584   0.192E-03-0.801E-04
CGA:   6    -0.354126984265E+03   -0.37716E-04   -0.41203E-04 10584   0.151E-03-0.980E-04
CGA:   7    -0.354126998687E+03   -0.14422E-04   -0.17862E-04 10584   0.263E-04 0.259E-04
CGA:   8    -0.354126999777E+03   -0.10901E-05   -0.33723E-05 10584   0.116E-04 0.168E-04
  43 F= -.35412700E+03 E0= -.35412700E+03  d E =-.549380E-03  mag=    18.0000
       N       E                     dE             d eps       ncg     rms          ort
SDA:   1    -0.354098046102E+03    0.28953E-01    0.00000E+00 10584   0.706E-01 0.000E+00
CGA:   2    -0.354120697454E+03   -0.22651E-01   -0.22603E-01 10584   0.305E-01 0.541E-03
CGA:   3    -0.354125790743E+03   -0.50933E-02   -0.50977E-02 10584   0.702E-02 0.453E-04
CGA:   4    -0.354127037064E+03   -0.12463E-02   -0.12403E-02 10584   0.154E-02-0.105E-03
CGA:   5    -0.354127322320E+03   -0.28526E-03   -0.28238E-03 10584   0.471E-03-0.642E-04
CGA:   6    -0.354127416621E+03   -0.94301E-04   -0.93849E-04 10584   0.137E-03-0.219E-04
CGA:   7    -0.354127444611E+03   -0.27990E-04   -0.28079E-04 10584   0.436E-04 0.667E-05
CGA:   8    -0.354127454930E+03   -0.10319E-04   -0.10328E-04 10584   0.152E-04 0.928E-05
CGA:   9    -0.354127460552E+03   -0.56216E-05   -0.55482E-05 10584   0.728E-05 0.988E-06
  44 F= -.35412746E+03 E0= -.35412746E+03  d E =-.460775E-03  mag=    18.0000
       N       E                     dE             d eps       ncg     rms          ort
SDA:   1    -0.354028121093E+03    0.99334E-01    0.00000E+00 10584   0.234E+00 0.000E+00
CGA:   2    -0.354107802543E+03   -0.79681E-01   -0.79604E-01 10584   0.922E-01 0.702E-03
CGA:   3    -0.354122991744E+03   -0.15189E-01   -0.15184E-01 10584   0.206E-01-0.127E-03
CGA:   4    -0.354126566684E+03   -0.35749E-02   -0.35612E-02 10584   0.463E-02-0.219E-03
CGA:   5    -0.354127391566E+03   -0.82488E-03   -0.82225E-03 10584   0.136E-02-0.496E-04
CGA:   6    -0.354127648254E+03   -0.25669E-03   -0.25779E-03 10584   0.339E-03 0.274E-04
CGA:   7    -0.354127725328E+03   -0.77074E-04   -0.77208E-04 10584   0.115E-03 0.222E-04
CGA:   8    -0.354127760457E+03   -0.35129E-04   -0.34946E-04 10584   0.534E-04 0.329E-05
CGA:   9    -0.354127776631E+03   -0.16174E-04   -0.16149E-04 10584   0.212E-04 0.392E-06
CGA:  10    -0.354127781941E+03   -0.53105E-05   -0.52819E-05 10584   0.559E-05 0.239E-05
  45 F= -.35412778E+03 E0= -.35412778E+03  d E =-.321389E-03  mag=    18.0000
       N       E                     dE             d eps       ncg     rms          ort
SDA:   1    -0.327151090639E+03    0.26977E+02    0.00000E+00 10584   0.635E+02 0.000E+00
CGA:   2    -0.348809710378E+03   -0.21659E+02   -0.21669E+02 10584   0.238E+02-0.591E-01
CGA:   3    -0.352795273187E+03   -0.39856E+01   -0.39909E+01 10584   0.541E+01 0.293E-01
CGA:   4    -0.353740955024E+03   -0.94568E+00   -0.94619E+00 10584   0.121E+01 0.169E-02
CGA:   5    -0.353971262575E+03   -0.23031E+00   -0.23033E+00 10584   0.386E+00 0.196E-04
CGA:   6    -0.354049965595E+03   -0.78703E-01   -0.78743E-01 10584   0.116E+00 0.134E-02
CGA:   7    -0.354078829011E+03   -0.28863E-01   -0.28857E-01 10584   0.482E-01 0.222E-03
CGA:   8    -0.354092867176E+03   -0.14038E-01   -0.14110E-01 10584   0.215E-01-0.116E-02
CGA:   9    -0.354098768629E+03   -0.59015E-02   -0.59070E-02 10584   0.702E-02-0.117E-03
CGA:  10    -0.354100648585E+03   -0.18800E-02   -0.18752E-02 10584   0.182E-02 0.140E-03
CGA:  11    -0.354101187895E+03   -0.53931E-03   -0.55022E-03 10584   0.506E-03-0.183E-03
CGA:  12    -0.354101306851E+03   -0.11896E-03   -0.11799E-03 10584   0.123E-03 0.495E-04
CGA:  13    -0.354101337572E+03   -0.30721E-04   -0.31152E-04 10584   0.410E-04 0.409E-04
CGA:  14    -0.354101350964E+03   -0.13392E-04   -0.13315E-04 10584   0.184E-04 0.183E-04
CGA:  15    -0.354101354575E+03   -0.36107E-05   -0.46393E-05 10584   0.102E-04 0.155E-04
  46 F= -.35410135E+03 E0= -.35410135E+03  d E =0.264274E-01  mag=    18.0000
       N       E                     dE             d eps       ncg     rms          ort
SDA:   1    -0.350299161699E+03    0.38022E+01    0.00000E+00 10584   0.903E+01 0.000E+00
CGA:   2    -0.353252855246E+03   -0.29537E+01   -0.29532E+01 10584   0.411E+01 0.115E-02
CGA:   3    -0.353919331285E+03   -0.66648E+00   -0.66665E+00 10584   0.859E+00 0.239E-02
CGA:   4    -0.354068441742E+03   -0.14911E+00   -0.14920E+00 10584   0.194E+00 0.179E-02
CGA:   5    -0.354103604922E+03   -0.35163E-01   -0.35179E-01 10584   0.566E-01 0.273E-03
CGA:   6    -0.354115081071E+03   -0.11476E-01   -0.11471E-01 10584   0.163E-01-0.235E-03
CGA:   7    -0.354118916295E+03   -0.38352E-02   -0.38369E-02 10584   0.615E-02-0.148E-03
CGA:   8    -0.354120599496E+03   -0.16832E-02   -0.16847E-02 10584   0.259E-02-0.311E-04
CGA:   9    -0.354121353050E+03   -0.75355E-03   -0.75682E-03 10584   0.949E-03-0.505E-04
CGA:  10    -0.354121620789E+03   -0.26774E-03   -0.27108E-03 10584   0.289E-03-0.561E-04
CGA:  11    -0.354121697037E+03   -0.76248E-04   -0.77611E-04 10584   0.733E-04-0.266E-04
CGA:  12    -0.354121719188E+03   -0.22151E-04   -0.25916E-04 10584   0.347E-04-0.247E-04
CGA:  13    -0.354121726301E+03   -0.71122E-05   -0.72242E-05 10584   0.119E-04-0.163E-05
  47 F= -.35412173E+03 E0= -.35412173E+03  d E =-.203717E-01  mag=    18.0000
       N       E                     dE             d eps       ncg     rms          ort
SDA:   1    -0.342136882564E+03    0.11985E+02    0.00000E+00 10584   0.281E+02 0.000E+00
CGA:   2    -0.351672604795E+03   -0.95357E+01   -0.95331E+01 10584   0.113E+02 0.150E-01
CGA:   3    -0.353535689280E+03   -0.18631E+01   -0.18627E+01 10584   0.243E+01 0.137E-01
CGA:   4    -0.353960734544E+03   -0.42505E+00   -0.42531E+00 10584   0.549E+00 0.303E-02
CGA:   5    -0.354062613691E+03   -0.10188E+00   -0.10185E+00 10584   0.166E+00-0.767E-03
CGA:   6    -0.354096699768E+03   -0.34086E-01   -0.34039E-01 10584   0.483E-01-0.114E-02
CGA:   7    -0.354108371190E+03   -0.11671E-01   -0.11671E-01 10584   0.194E-01-0.386E-03
CGA:   8    -0.354113893134E+03   -0.55219E-02   -0.55356E-02 10584   0.846E-02-0.334E-03
CGA:   9    -0.354116346003E+03   -0.24529E-02   -0.24698E-02 10584   0.303E-02-0.344E-03
CGA:  10    -0.354117172765E+03   -0.82676E-03   -0.83297E-03 10584   0.851E-03-0.169E-03
CGA:  11    -0.354117410074E+03   -0.23731E-03   -0.24432E-03 10584   0.249E-03-0.134E-03
CGA:  12    -0.354117480556E+03   -0.70482E-04   -0.78734E-04 10584   0.109E-03-0.683E-04
CGA:  13    -0.354117505976E+03   -0.25420E-04   -0.25607E-04 10584   0.365E-04-0.302E-05
CGA:  14    -0.354117520297E+03   -0.14321E-04   -0.15966E-04 10584   0.215E-04-0.891E-05
CGA:  15    -0.354117509516E+03    0.10781E-04   -0.16882E-04 10584   0.971E-04-0.362E-04
CGA:  16    -0.354117532852E+03   -0.23336E-04   -0.23325E-04 10584   0.144E-04-0.119E-06
CGA:  17    -0.354117537721E+03   -0.48688E-05   -0.79852E-05 10584   0.269E-04-0.127E-04
  48 F= -.35411754E+03 E0= -.35411754E+03  d E =0.418858E-02  mag=    18.0000
       N       E                     dE             d eps       ncg     rms          ort
SDA:   1    -0.353378412730E+03    0.73912E+00    0.00000E+00 10584   0.174E+01 0.000E+00
CGA:   2    -0.353912511984E+03   -0.53410E+00   -0.53411E+00 10584   0.855E+00 0.200E-02
CGA:   3    -0.354061694611E+03   -0.14918E+00   -0.14916E+00 10584   0.216E+00 0.521E-04
CGA:   4    -0.354097780363E+03   -0.36086E-01   -0.36050E-01 10584   0.508E-01-0.274E-03
CGA:   5    -0.354107037294E+03   -0.92569E-02   -0.92835E-02 10584   0.156E-01 0.220E-03
CGA:   6    -0.354110133670E+03   -0.30964E-02   -0.31256E-02 10584   0.492E-02 0.316E-03
CGA:   7    -0.354111365418E+03   -0.12317E-02   -0.12366E-02 10584   0.195E-02 0.118E-03
CGA:   8    -0.354111883634E+03   -0.51822E-03   -0.51858E-03 10584   0.769E-03 0.136E-04
CGA:   9    -0.354112092574E+03   -0.20894E-03   -0.20952E-03 10584   0.249E-03 0.435E-04
CGA:  10    -0.354112155479E+03   -0.62906E-04   -0.64254E-04 10584   0.703E-04 0.345E-04
CGA:  11    -0.354112172573E+03   -0.17094E-04   -0.18120E-04 10584   0.189E-04 0.187E-04
CGA:  12    -0.354112175488E+03   -0.29147E-05   -0.40788E-05 10584   0.693E-05 0.108E-04
  49 F= -.35411218E+03 E0= -.35411218E+03  d E =0.536223E-02  mag=    18.0000
       N       E                     dE             d eps       ncg     rms          ort
SDA:   1    -0.353126263720E+03    0.98591E+00    0.00000E+00 10584   0.241E+01 0.000E+00
CGA:   2    -0.353902200799E+03   -0.77594E+00   -0.77589E+00 10584   0.102E+01 0.420E-03
CGA:   3    -0.354073405256E+03   -0.17120E+00   -0.17117E+00 10584   0.243E+00-0.104E-02
CGA:   4    -0.354114859812E+03   -0.41455E-01   -0.41389E-01 10584   0.546E-01-0.723E-03
CGA:   5    -0.354124677850E+03   -0.98180E-02   -0.98108E-02 10584   0.159E-01-0.101E-03
CGA:   6    -0.354127848411E+03   -0.31706E-02   -0.31789E-02 10584   0.458E-02 0.147E-03
CGA:   7    -0.354128935824E+03   -0.10874E-02   -0.10884E-02 10584   0.168E-02 0.548E-04
CGA:   8    -0.354129417030E+03   -0.48121E-03   -0.48302E-03 10584   0.767E-03-0.564E-04
CGA:   9    -0.354129627404E+03   -0.21037E-03   -0.21077E-03 10584   0.264E-03-0.129E-04
CGA:  10    -0.354129696556E+03   -0.69151E-04   -0.69060E-04 10584   0.725E-04 0.837E-05
CGA:  11    -0.354129717848E+03   -0.21292E-04   -0.21386E-04 10584   0.192E-04-0.310E-05
CGA:  12    -0.354129721675E+03   -0.38265E-05   -0.40119E-05 10584   0.490E-05 0.474E-05
  50 F= -.35412972E+03 E0= -.35412972E+03  d E =-.175462E-01  mag=    18.0000
       N       E                     dE             d eps       ncg     rms          ort
SDA:   1    -0.354090782354E+03    0.38935E-01    0.00000E+00 10584   0.898E-01 0.000E+00
CGA:   2    -0.354121973443E+03   -0.31191E-01   -0.31161E-01 10584   0.333E-01 0.313E-03
CGA:   3    -0.354127628795E+03   -0.56554E-02   -0.56388E-02 10584   0.767E-02-0.200E-03
CGA:   4    -0.354128950805E+03   -0.13220E-02   -0.13113E-02 10584   0.172E-02-0.130E-03
CGA:   5    -0.354129258235E+03   -0.30743E-03   -0.30747E-03 10584   0.494E-03 0.203E-06
CGA:   6    -0.354129345560E+03   -0.87324E-04   -0.89505E-04 10584   0.120E-03 0.329E-04
CGA:   7    -0.354129373950E+03   -0.28391E-04   -0.28644E-04 10584   0.424E-04 0.127E-04
CGA:   8    -0.354129388863E+03   -0.14913E-04   -0.15287E-04 10584   0.266E-04-0.451E-05
CGA:   9    -0.354129393925E+03   -0.50618E-05   -0.51763E-05 10584   0.907E-05 0.392E-05
  51 F= -.35412939E+03 E0= -.35412939E+03  d E =0.327749E-03  mag=    18.0000
       N       E                     dE             d eps       ncg     rms          ort
SDA:   1    -0.353235420400E+03    0.89397E+00    0.00000E+00 10584   0.204E+01 0.000E+00
CGA:   2    -0.353967660305E+03   -0.73224E+00   -0.73206E+00 10584   0.689E+00 0.138E-02
CGA:   3    -0.354087333045E+03   -0.11967E+00   -0.11963E+00 10584   0.157E+00-0.958E-03
CGA:   4    -0.354113787235E+03   -0.26454E-01   -0.26429E-01 10584   0.351E-01-0.362E-03
CGA:   5    -0.354120420656E+03   -0.66334E-02   -0.66420E-02 10584   0.101E-01 0.164E-03
CGA:   6    -0.354122331052E+03   -0.19104E-02   -0.19208E-02 10584   0.270E-02 0.215E-03
CGA:   7    -0.354122999242E+03   -0.66819E-03   -0.66787E-03 10584   0.104E-02 0.456E-04
CGA:   8    -0.354123304085E+03   -0.30484E-03   -0.30528E-03 10584   0.481E-03-0.857E-05
CGA:   9    -0.354123428936E+03   -0.12485E-03   -0.12373E-03 10584   0.154E-03 0.527E-04
CGA:  10    -0.354123471466E+03   -0.42530E-04   -0.42303E-04 10584   0.417E-04 0.262E-04
CGA:  11    -0.354123485584E+03   -0.14119E-04   -0.14119E-04 10584   0.126E-04-0.144E-07
CGA:  12    -0.354123486405E+03   -0.82087E-06   -0.16378E-05 10584   0.533E-05 0.725E-05
  52 F= -.35412349E+03 E0= -.35412349E+03  d E =0.590752E-02  mag=    18.0000
       N       E                     dE             d eps       ncg     rms          ort
SDA:   1    -0.353885264405E+03    0.23822E+00    0.00000E+00 10584   0.574E+00 0.000E+00
CGA:   2    -0.354065439159E+03   -0.18017E+00   -0.18026E+00 10584   0.283E+00-0.123E-02
CGA:   3    -0.354111264568E+03   -0.45825E-01   -0.45857E-01 10584   0.583E-01 0.319E-03
CGA:   4    -0.354121396763E+03   -0.10132E-01   -0.10156E-01 10584   0.128E-01 0.409E-03
CGA:   5    -0.354123726123E+03   -0.23294E-02   -0.23283E-02 10584   0.372E-02-0.273E-04
CGA:   6    -0.354124517084E+03   -0.79096E-03   -0.78892E-03 10584   0.113E-02-0.160E-03
CGA:   7    -0.354124773003E+03   -0.25592E-03   -0.25668E-03 10584   0.418E-03-0.589E-04
CGA:   8    -0.354124879201E+03   -0.10620E-03   -0.10641E-03 10584   0.163E-03-0.499E-05
CGA:   9    -0.354124929309E+03   -0.50108E-04   -0.52149E-04 10584   0.705E-04-0.212E-04
CGA:  10    -0.354124948330E+03   -0.19021E-04   -0.24719E-04 10584   0.479E-04-0.333E-04
CGA:  11    -0.354124954093E+03   -0.57631E-05   -0.10100E-04 10584   0.331E-04-0.272E-04
  53 F= -.35412495E+03 E0= -.35412495E+03  d E =-.146769E-02  mag=    18.0000
       N       E                     dE             d eps       ncg     rms          ort
SDA:   1    -0.353999812338E+03    0.12514E+00    0.00000E+00 10584   0.294E+00 0.000E+00
CGA:   2    -0.354099185102E+03   -0.99373E-01   -0.99478E-01 10584   0.122E+00-0.122E-02
CGA:   3    -0.354118957157E+03   -0.19772E-01   -0.19814E-01 10584   0.270E-01 0.414E-03
CGA:   4    -0.354123543106E+03   -0.45859E-02   -0.46066E-02 10584   0.602E-02 0.261E-03
CGA:   5    -0.354124658584E+03   -0.11155E-02   -0.11135E-02 10584   0.180E-02-0.339E-04
CGA:   6    -0.354125034863E+03   -0.37628E-03   -0.37339E-03 10584   0.532E-03-0.891E-04
CGA:   7    -0.354125158780E+03   -0.12392E-03   -0.12405E-03 10584   0.201E-03-0.248E-04
CGA:   8    -0.354125213231E+03   -0.54451E-04   -0.55128E-04 10584   0.901E-04-0.142E-04
CGA:   9    -0.354125240587E+03   -0.27357E-04   -0.34638E-04 10584   0.743E-04-0.426E-04
CGA:  10    -0.354125250788E+03   -0.10201E-04   -0.10460E-04 10584   0.288E-04-0.162E-04
CGA:  11    -0.354125256676E+03   -0.58881E-05   -0.59412E-05 10584   0.122E-04-0.450E-05
CGA:  12    -0.354125196722E+03    0.59954E-04   -0.32289E-04 10584   0.315E-03-0.558E-04
CGA:  13    -0.354125255646E+03   -0.58924E-04   -0.63715E-04 10584   0.360E-04 0.185E-04
CGA:  14    -0.354125268422E+03   -0.12776E-04   -0.12504E-04 10584   0.490E-05-0.228E-05
CGA:  15    -0.354125268698E+03   -0.27676E-06   -0.81162E-06 10584   0.139E-05 0.202E-05
  54 F= -.35412527E+03 E0= -.35412527E+03  d E =-.314605E-03  mag=    18.0000
       N       E                     dE             d eps       ncg     rms          ort
SDA:   1    -0.354100706793E+03    0.24562E-01    0.00000E+00 10584   0.567E-01 0.000E+00
CGA:   2    -0.354119790158E+03   -0.19083E-01   -0.19108E-01 10584   0.226E-01 0.313E-03
CGA:   3    -0.354123660609E+03   -0.38705E-02   -0.38676E-02 10584   0.528E-02-0.233E-04
CGA:   4    -0.354124573386E+03   -0.91278E-03   -0.90650E-03 10584   0.119E-02-0.288E-04
CGA:   5    -0.354124781177E+03   -0.20779E-03   -0.21527E-03 10584   0.338E-03 0.363E-04
CGA:   6    -0.354124838338E+03   -0.57161E-04   -0.64064E-04 10584   0.900E-04 0.358E-04
CGA:   7    -0.354124858760E+03   -0.20422E-04   -0.22440E-04 10584   0.339E-04 0.142E-04
CGA:   8    -0.354124866719E+03   -0.79596E-05   -0.90837E-05 10584   0.137E-04 0.876E-05
  55 F= -.35412487E+03 E0= -.35412487E+03  d E =0.401979E-03  mag=    18.0000
       N       E                     dE             d eps       ncg     rms          ort
SDA:   1    -0.354108172736E+03    0.16686E-01    0.00000E+00 10584   0.378E-01 0.000E+00
CGA:   2    -0.354120617425E+03   -0.12445E-01   -0.12446E-01 10584   0.146E-01 0.553E-04
CGA:   3    -0.354123166172E+03   -0.25487E-02   -0.25525E-02 10584   0.357E-02 0.164E-04
CGA:   4    -0.354123760157E+03   -0.59398E-03   -0.59033E-03 10584   0.754E-03-0.222E-04
CGA:   5    -0.354123906114E+03   -0.14596E-03   -0.14483E-03 10584   0.226E-03-0.860E-05
CGA:   6    -0.354123947474E+03   -0.41360E-04   -0.42560E-04 10584   0.600E-04 0.919E-05
CGA:   7    -0.354123960750E+03   -0.13277E-04   -0.13896E-04 10584   0.210E-04 0.676E-05
CGA:   8    -0.354123966865E+03   -0.61145E-05   -0.62241E-05 10584   0.934E-05 0.256E-05
  56 F= -.35412397E+03 E0= -.35412397E+03  d E =0.899854E-03  mag=    18.0000
