       N       E                     dE             d eps       ncg     rms          ort
DAV:   1     0.266866934962E+04    0.26687E+04   -0.13898E+05 10584   0.161E+03
DAV:   2     0.517366737370E+02   -0.26169E+04   -0.24055E+04 10584   0.414E+02
DAV:   3    -0.256566062573E+03   -0.30830E+03   -0.30343E+03 10584   0.162E+02
DAV:   4    -0.267801351124E+03   -0.11235E+02   -0.10920E+02 10584   0.306E+01
DAV:   5    -0.268252592444E+03   -0.45124E+00   -0.44786E+00 10584   0.484E+00
SDA:   6    -0.122736883610E+03    0.14552E+03   -0.44786E+00 10584   0.659E+03 0.000E+00
CGA:   7    -0.182411963409E+03   -0.59675E+02   -0.76144E+02 10584   0.295E+03 0.803E+01
CGA:   8    -0.208895525321E+03   -0.26484E+02   -0.59955E+01 10584   0.127E+03 0.380E+03
CGA:   9    -0.209149063197E+03   -0.25354E+00   -0.95991E+01 10584   0.592E+03-0.647E+02
CGA:  10    -0.205796402763E+03    0.33527E+01   -0.38036E+02 10584   0.587E+03-0.195E+03
CGA:  11    -0.211290944732E+03   -0.54945E+01   -0.18106E+02 10584   0.209E+03-0.331E+02
CGA:  12    -0.217424620033E+03   -0.61337E+01   -0.12659E+02 10584   0.474E+03-0.259E+03
CGA:  13    -0.218826793443E+03   -0.14022E+01   -0.35322E+02 10584   0.507E+02-0.199E+01
CGA:  14    -0.220984515804E+03   -0.21577E+01   -0.15986E+01 10584   0.884E+02 0.231E+02
CGA:  15    -0.221160229498E+03   -0.17571E+00   -0.44356E+01 10584   0.156E+03-0.194E+03
CGA:  16    -0.224517287757E+03   -0.33571E+01   -0.86539E+01 10584   0.435E+02-0.593E+02
CGA:  17    -0.225437263411E+03   -0.91998E+00   -0.13158E+01 10584   0.310E+02-0.110E+02
CGA:  18    -0.225921121053E+03   -0.48386E+00   -0.13310E+01 10584   0.235E+02-0.771E+01
CGA:  19    -0.226587835346E+03   -0.66671E+00   -0.46868E+00 10584   0.614E+01 0.643E+01
CGA:  20    -0.226734226137E+03   -0.14639E+00   -0.91257E-01 10584   0.331E+01 0.462E+01
CGA:  21    -0.226936270482E+03   -0.20204E+00   -0.16713E+00 10584   0.155E+01 0.414E+00
CGA:  22    -0.227396955706E+03   -0.46069E+00   -0.49002E+00 10584   0.129E+02-0.188E+00
CGA:  23    -0.227709331583E+03   -0.31238E+00   -0.33061E+00 10584   0.533E+01-0.224E+00
CGA:  24    -0.227801067165E+03   -0.91736E-01   -0.16786E+00 10584   0.155E+01-0.176E+01
CGA:  25    -0.227823765873E+03   -0.22699E-01   -0.25012E-01 10584   0.436E+00-0.871E-01
CGA:  26    -0.227841135796E+03   -0.17370E-01   -0.17409E-01 10584   0.632E+00-0.139E-02
CGA:  27    -0.227879643491E+03   -0.38508E-01   -0.38390E-01 10584   0.652E+00 0.122E-02
CGA:  28    -0.227907211101E+03   -0.27568E-01   -0.27096E-01 10584   0.732E+00 0.752E-02
CGA:  29    -0.227937449202E+03   -0.30238E-01   -0.23334E-01 10584   0.365E+00 0.201E+00
CGA:  30    -0.227948415316E+03   -0.10966E-01   -0.90257E-02 10584   0.152E+00 0.918E-01
CGA:  31    -0.227958900546E+03   -0.10485E-01   -0.10257E-01 10584   0.360E+00 0.185E-02
CGA:  32    -0.227969781251E+03   -0.10881E-01   -0.10671E-01 10584   0.317E+00 0.637E-02
CGA:  33    -0.227976212885E+03   -0.64316E-02   -0.58584E-02 10584   0.204E+00 0.282E-01
CGA:  34    -0.227981664553E+03   -0.54517E-02   -0.55188E-02 10584   0.169E+00-0.191E-02
CGA:  35    -0.227984810676E+03   -0.31461E-02   -0.30312E-02 10584   0.926E-01 0.545E-02
CGA:  36    -0.227987229663E+03   -0.24190E-02   -0.23188E-02 10584   0.133E+00 0.310E-02
CGA:  37    -0.227993264583E+03   -0.60349E-02   -0.60009E-02 10584   0.313E+00 0.160E-03
CGA:  38    -0.227999032477E+03   -0.57679E-02   -0.48485E-02 10584   0.144E+00 0.552E-01
CGA:  39    -0.228001263871E+03   -0.22314E-02   -0.19631E-02 10584   0.542E-01 0.212E-01
CGA:  40    -0.228002503326E+03   -0.12395E-02   -0.11874E-02 10584   0.524E-01 0.223E-02
CGA:  41    -0.228003495090E+03   -0.99176E-03   -0.93350E-03 10584   0.405E-01 0.284E-02
CGA:  42    -0.228004216139E+03   -0.72105E-03   -0.69666E-03 10584   0.425E-01 0.115E-02
CGA:  43    -0.228005546155E+03   -0.13300E-02   -0.13191E-02 10584   0.120E+00 0.839E-04
CGA:  44    -0.228008592890E+03   -0.30467E-02   -0.28725E-02 10584   0.163E+00 0.570E-02
CGA:  45    -0.228010411731E+03   -0.18188E-02   -0.15765E-02 10584   0.580E-01 0.231E-01
CGA:  46    -0.228011027177E+03   -0.61545E-03   -0.59914E-03 10584   0.234E-01 0.147E-02
CGA:  47    -0.228011387065E+03   -0.35989E-03   -0.36742E-03 10584   0.303E-01-0.403E-03
CGA:  48    -0.228011927933E+03   -0.54087E-03   -0.58762E-03 10584   0.425E-01-0.160E-02
CGA:  49    -0.228012483616E+03   -0.55568E-03   -0.58171E-03 10584   0.363E-01-0.132E-02
CGA:  50    -0.228013087846E+03   -0.60423E-03   -0.59773E-03 10584   0.523E-01 0.385E-03
SDA:  51    -0.228014182455E+03   -0.10946E-02   -0.10662E-02 10584   0.684E-01 0.111E-02
CGA:  52    -0.228015367019E+03   -0.11846E-02   -0.11831E-02 10584   0.111E-01 0.702E-04
CGA:  53    -0.228016059165E+03   -0.69215E-03   -0.70119E-03 10584   0.743E-02-0.377E-03
CGA:  54    -0.228017709373E+03   -0.16502E-02   -0.85097E-05 10584   0.101E-01-0.140E-02
CGA:  55    -0.228017955936E+03   -0.24656E-03   -0.24182E-03 10584   0.483E-02 0.160E-03
CGA:  56    -0.228018206884E+03   -0.25095E-03   -0.24722E-03 10584   0.732E-02 0.208E-04
CGA:  57    -0.228018779288E+03   -0.57240E-03   -0.57247E-03 10584   0.372E-02 0.478E-04
CGA:  58    -0.228018912191E+03   -0.13290E-03   -0.13218E-03 10584   0.245E-02 0.147E-04
CGA:  59    -0.228019116176E+03   -0.20398E-03   -0.20410E-03 10584   0.750E-02-0.117E-04
CGA:  60    -0.228019527749E+03   -0.41157E-03   -0.41651E-03 10584   0.324E-02 0.295E-04
CGA:  61    -0.228019692513E+03   -0.16476E-03   -0.16053E-03 10584   0.201E-02 0.418E-05
CGA:  62    -0.228019799528E+03   -0.10702E-03   -0.10518E-03 10584   0.326E-02-0.127E-04
CGA:  63    -0.228020005201E+03   -0.20567E-03   -0.20661E-03 10584   0.537E-02 0.185E-04
CGA:  64    -0.228020221392E+03   -0.21619E-03   -0.19840E-03 10584   0.139E-02 0.259E-03
CGA:  65    -0.228020272231E+03   -0.50839E-04   -0.50146E-04 10584   0.195E-02 0.912E-05
CGA:  66    -0.228020425941E+03   -0.15371E-03   -0.15440E-03 10584   0.405E-02-0.459E-04
CGA:  67    -0.228020558978E+03   -0.13304E-03   -0.13156E-03 10584   0.320E-02 0.388E-04
CGA:  68    -0.228020636452E+03   -0.77474E-04   -0.76441E-04 10584   0.109E-02 0.332E-04
CGA:  69    -0.228020675226E+03   -0.38774E-04   -0.38269E-04 10584   0.125E-02 0.594E-05
CGA:  70    -0.228020735599E+03   -0.60373E-04   -0.59672E-04 10584   0.254E-02-0.702E-05
CGA:  71    -0.228020881063E+03   -0.14546E-03   -0.14321E-03 10584   0.356E-02-0.127E-03
CGA:  72    -0.228020928918E+03   -0.47856E-04   -0.40804E-04 10584   0.112E-02 0.540E-03
CGA:  73    -0.228020947148E+03   -0.18229E-04   -0.17944E-04 10584   0.621E-03 0.180E-04
CGA:  74    -0.228020967013E+03   -0.19865E-04   -0.19709E-04 10584   0.135E-02 0.277E-05
CGA:  75    -0.228021009721E+03   -0.42708E-04   -0.41458E-04 10584   0.274E-02 0.223E-04
CGA:  76    -0.228021072702E+03   -0.62981E-04   -0.51691E-04 10584   0.344E-02 0.504E-03
CGA:  77    -0.228021135697E+03   -0.62995E-04   -0.50510E-04 10584   0.270E-02 0.907E-03
CGA:  78    -0.228021182498E+03   -0.46801E-04   -0.45101E-04 10584   0.194E-02 0.118E-03
CGA:  79    -0.228021208984E+03   -0.26487E-04   -0.28119E-04 10584   0.152E-02-0.881E-04
CGA:  80    -0.228021225748E+03   -0.16763E-04   -0.17864E-04 10584   0.986E-03-0.662E-04
CGA:  81    -0.228021238544E+03   -0.12796E-04   -0.13086E-04 10584   0.107E-02-0.974E-05
SDA:  82    -0.228021263832E+03   -0.25288E-04   -0.25393E-04 10584   0.249E-02 0.572E-05
CGA:  83    -0.228021319164E+03   -0.55333E-04   -0.55160E-04 10584   0.886E-03 0.359E-05
CGA:  84    -0.228021385593E+03   -0.66429E-04   -0.66860E-04 10584   0.219E-02-0.123E-04
CGA:  85    -0.228021529956E+03   -0.14436E-03   -0.14370E-03 10584   0.192E-02 0.239E-04
CGA:  86    -0.228021633519E+03   -0.10356E-03   -0.10241E-03 10584   0.484E-03 0.969E-04
CGA:  87    -0.228021655335E+03   -0.21816E-04   -0.21809E-04 10584   0.890E-03-0.218E-05
CGA:  88    -0.228021755976E+03   -0.10064E-03   -0.10146E-03 10584   0.446E-03-0.145E-04
CGA:  89    -0.228021768822E+03   -0.12846E-04   -0.12854E-04 10584   0.198E-03-0.180E-05
CGA:  90    -0.228021785279E+03   -0.16457E-04   -0.16504E-04 10584   0.511E-03-0.151E-05
CGA:  91    -0.228021805927E+03   -0.20648E-04   -0.20613E-04 10584   0.341E-03-0.264E-05
CGA:  92    -0.228021822641E+03   -0.16714E-04   -0.16714E-04 10584   0.679E-04-0.199E-05
CGA:  93    -0.228021827108E+03   -0.44674E-05   -0.44553E-05 10584   0.226E-03 0.546E-06
CGA:  94    -0.228021845657E+03   -0.18549E-04   -0.18488E-04 10584   0.824E-04 0.186E-05
CGA:  95    -0.228021851215E+03   -0.55582E-05   -0.55514E-05 10584   0.115E-03 0.447E-06
   1 F= -.22802185E+03 E0= -.22801392E+03  d E =-.228022E+03  mag=    18.0000
