       N       E                     dE             d eps       ncg     rms          ort
DAV:   1     0.280993278301E+04    0.28099E+04   -0.14419E+05  6048   0.158E+03
DAV:   2    -0.330468408999E+02   -0.28430E+04   -0.27596E+04  6048   0.436E+02
DAV:   3    -0.310150588642E+03   -0.27710E+03   -0.27144E+03  6048   0.149E+02
DAV:   4    -0.324529540079E+03   -0.14379E+02   -0.13959E+02  6048   0.356E+01
DAV:   5    -0.325640701629E+03   -0.11112E+01   -0.10956E+01  6048   0.652E+00
SDA:   6    -0.167734098034E+03    0.15791E+03   -0.10956E+01  6048   0.119E+04 0.000E+00
CGA:   7    -0.244400279567E+03   -0.76666E+02   -0.82821E+02  6048   0.343E+03 0.191E+03
CGA:   8    -0.260864624614E+03   -0.16464E+02   -0.27129E+02  6048   0.123E+03-0.417E+01
CGA:   9    -0.263653602900E+03   -0.27890E+01   -0.12812E+01  6048   0.178E+03 0.176E+03
CGA:  10    -0.272818212296E+03   -0.91646E+01   -0.24382E+01  6048   0.183E+03-0.295E+03
CGA:  11    -0.260345859499E+03    0.12472E+02   -0.13231E+02  6048   0.589E+03-0.614E+02
CGA:  12    -0.268945778589E+03   -0.85999E+01   -0.94772E+01  6048   0.588E+03-0.550E+02
CGA:  13    -0.276854318448E+03   -0.79085E+01   -0.18639E+02  6048   0.364E+03 0.449E+02
CGA:  14    -0.271142320383E+03    0.57120E+01   -0.18509E+02  6048   0.159E+03-0.738E+02
CGA:  15    -0.275241873172E+03   -0.40996E+01   -0.13814E+01  6048   0.264E+03 0.270E+03
CGA:  16    -0.276090010965E+03   -0.84814E+00   -0.13273E+02  6048   0.880E+02-0.576E+02
CGA:  17    -0.285221537841E+03   -0.91315E+01   -0.24846E+01  6048   0.102E+02-0.390E+02
CGA:  18    -0.285369103423E+03   -0.14757E+00   -0.13139E+00  6048   0.263E+02 0.689E+00
CGA:  19    -0.285101543978E+03    0.26756E+00   -0.66260E+00  6048   0.125E+03-0.124E+03
CGA:  20    -0.284332154537E+03    0.76939E+00   -0.63596E+01  6048   0.603E+02-0.259E+02
CGA:  21    -0.285549144855E+03   -0.12170E+01   -0.95660E+00  6048   0.760E+02 0.237E+02
CGA:  22    -0.265741600496E+03    0.19808E+02   -0.28099E+01  6048   0.445E+03-0.157E+03
CGA:  23    -0.284138642958E+03   -0.18397E+02   -0.75419E+01  6048   0.202E+03-0.101E+03
CGA:  24    -0.275610067833E+03    0.85286E+01   -0.62123E+01  6048   0.437E+03-0.563E+02
CGA:  25    -0.276203250767E+03   -0.59318E+00   -0.15808E+02  6048   0.285E+03-0.129E+02
CGA:  26    -0.274435060006E+03    0.17682E+01   -0.10996E+02  6048   0.393E+03-0.170E+03
CGA:  27    -0.281901976640E+03   -0.74669E+01   -0.18548E+02  6048   0.414E+02-0.577E+02
CGA:  28    -0.283013142575E+03   -0.11112E+01   -0.56559E+00  6048   0.354E+02 0.348E+02
CGA:  29    -0.284062910326E+03   -0.10498E+01   -0.46731E+00  6048   0.401E+02 0.480E+02
CGA:  30    -0.285995208902E+03   -0.19323E+01   -0.51686E+00  6048   0.726E+02 0.116E+03
CGA:  31    -0.287142570394E+03   -0.11474E+01   -0.13222E+01  6048   0.159E+02-0.393E+02
CGA:  32    -0.287294525132E+03   -0.15195E+00   -0.29942E+00  6048   0.566E+01-0.792E+01
CGA:  33    -0.287413248233E+03   -0.11872E+00   -0.11192E+00  6048   0.961E+00 0.715E-01
CGA:  34    -0.287452831853E+03   -0.39584E-01   -0.39455E-01  6048   0.173E+01-0.107E-02
CGA:  35    -0.287586889345E+03   -0.13406E+00   -0.10942E+00  6048   0.328E+01-0.903E+00
CGA:  36    -0.287646592178E+03   -0.59703E-01   -0.92773E-01  6048   0.974E+00-0.703E+00
CGA:  37    -0.287664731698E+03   -0.18140E-01   -0.18141E-01  6048   0.842E+00-0.405E-03
CGA:  38    -0.287710897179E+03   -0.46165E-01   -0.40500E-01  6048   0.117E+01-0.200E-01
CGA:  39    -0.287788787595E+03   -0.77890E-01   -0.79092E-01  6048   0.438E+01-0.192E+00
CGA:  40    -0.287818578514E+03   -0.29791E-01   -0.16630E-01  6048   0.424E+01 0.285E+01
CGA:  41    -0.287878849203E+03   -0.60271E-01   -0.53197E-01  6048   0.291E+00 0.466E+00
CGA:  42    -0.287884293405E+03   -0.54442E-02   -0.55754E-02  6048   0.202E+00-0.618E-02
CGA:  43    -0.287922044381E+03   -0.37751E-01   -0.33565E-01  6048   0.126E+01 0.396E-01
CGA:  44    -0.287943967783E+03   -0.21923E-01   -0.11560E-01  6048   0.874E+00 0.135E+01
CGA:  45    -0.287959457010E+03   -0.15489E-01   -0.12074E-01  6048   0.886E-01 0.214E+00
CGA:  46    -0.287962132999E+03   -0.26760E-02   -0.25719E-02  6048   0.108E+00 0.294E-02
CGA:  47    -0.287975379653E+03   -0.13247E-01   -0.12529E-01  6048   0.823E+00 0.127E-01
CGA:  48    -0.287993079251E+03   -0.17700E-01   -0.10451E-01  6048   0.511E+00 0.623E+00
CGA:  49    -0.288001902849E+03   -0.88236E-02   -0.10563E-01  6048   0.762E-01-0.581E-01
CGA:  50    -0.288008783241E+03   -0.68804E-02   -0.68531E-02  6048   0.125E+00 0.487E-03
CGA:  51    -0.288013435975E+03   -0.46527E-02   -0.47498E-02  6048   0.534E-01-0.229E-03
CGA:  52    -0.288016458040E+03   -0.30221E-02   -0.30221E-02  6048   0.112E+00-0.302E-03
CGA:  53    -0.288030168900E+03   -0.13711E-01   -0.12671E-01  6048   0.156E+00 0.174E-01
CGA:  54    -0.288035657376E+03   -0.54885E-02   -0.54053E-02  6048   0.399E-01 0.160E-02
CGA:  55    -0.288037491792E+03   -0.18344E-02   -0.18562E-02  6048   0.520E-01 0.388E-03
CGA:  56    -0.288039570083E+03   -0.20783E-02   -0.21240E-02  6048   0.338E-01 0.182E-03
CGA:  57    -0.288040804076E+03   -0.12340E-02   -0.12565E-02  6048   0.104E-01-0.787E-04
CGA:  58    -0.288041374519E+03   -0.57044E-03   -0.57053E-03  6048   0.123E-01 0.462E-04
CGA:  59    -0.288042280873E+03   -0.90635E-03   -0.89887E-03  6048   0.197E-01 0.295E-03
CGA:  60    -0.288043225147E+03   -0.94427E-03   -0.94639E-03  6048   0.118E-01 0.239E-04
CGA:  61    -0.288043839257E+03   -0.61411E-03   -0.61547E-03  6048   0.120E-01 0.133E-03
CGA:  62    -0.288044638383E+03   -0.79913E-03   -0.79616E-03  6048   0.180E-01 0.178E-03
CGA:  63    -0.288045616952E+03   -0.97857E-03   -0.97840E-03  6048   0.102E-01-0.617E-04
CGA:  64    -0.288046098396E+03   -0.48144E-03   -0.48289E-03  6048   0.441E-02 0.370E-04
CGA:  65    -0.288046435235E+03   -0.33684E-03   -0.33712E-03  6048   0.500E-02-0.138E-04
CGA:  66    -0.288046820263E+03   -0.38503E-03   -0.38449E-03  6048   0.322E-02 0.157E-04
CGA:  67    -0.288046975058E+03   -0.15479E-03   -0.15453E-03  6048   0.169E-02-0.105E-04
CGA:  68    -0.288047103573E+03   -0.12852E-03   -0.12802E-03  6048   0.271E-02 0.199E-04
CGA:  69    -0.288047293893E+03   -0.19032E-03   -0.19044E-03  6048   0.253E-02-0.480E-05
CGA:  70    -0.288047413109E+03   -0.11922E-03   -0.11943E-03  6048   0.101E-02 0.103E-04
CGA:  71    -0.288047475409E+03   -0.62300E-04   -0.62272E-04  6048   0.906E-03 0.707E-05
CGA:  72    -0.288047550627E+03   -0.75218E-04   -0.74962E-04  6048   0.924E-03 0.102E-04
CGA:  73    -0.288047596516E+03   -0.45889E-04   -0.45994E-04  6048   0.459E-03 0.627E-05
CGA:  74    -0.288047623257E+03   -0.26740E-04   -0.26745E-04  6048   0.417E-03 0.308E-05
CGA:  75    -0.288047657400E+03   -0.34143E-04   -0.34122E-04  6048   0.422E-03 0.855E-06
CGA:  76    -0.288047680257E+03   -0.22857E-04   -0.22852E-04  6048   0.214E-03 0.184E-06
CGA:  77    -0.288047693855E+03   -0.13598E-04   -0.13584E-04  6048   0.245E-03 0.322E-05
CGA:  78    -0.288047713744E+03   -0.19889E-04   -0.19895E-04  6048   0.346E-03 0.988E-06
SDA:  79    -0.288047732117E+03   -0.18373E-04   -0.18319E-04  6048   0.156E-03 0.273E-05
CGA:  80    -0.288047736454E+03   -0.43377E-05   -0.43535E-05  6048   0.663E-04-0.923E-07
   1 F= -.28804774E+03 E0= -.28803179E+03  d E =-.288048E+03  mag=    10.0000
