       N       E                     dE             d eps       ncg     rms          ort
DAV:   1     0.272548196844E+04    0.27255E+04   -0.14299E+05  6084   0.157E+03
DAV:   2     0.245247196064E+02   -0.27010E+04   -0.25207E+04  6084   0.413E+02
DAV:   3    -0.266508198952E+03   -0.29103E+03   -0.28729E+03  6084   0.150E+02
DAV:   4    -0.275609609081E+03   -0.91014E+01   -0.89921E+01  6084   0.262E+01
DAV:   5    -0.276155697153E+03   -0.54609E+00   -0.54506E+00  6084   0.489E+00
SDA:   6    -0.175282146016E+03    0.10087E+03   -0.54506E+00  6084   0.359E+03 0.000E+00
CGA:   7    -0.231610478254E+03   -0.56328E+02   -0.56568E+02  6084   0.417E+02 0.238E+01
CGA:   8    -0.239102054653E+03   -0.74916E+01   -0.74801E+01  6084   0.136E+02-0.185E+00
CGA:   9    -0.242190396165E+03   -0.30883E+01   -0.30861E+01  6084   0.495E+01 0.501E-01
CGA:  10    -0.243280690493E+03   -0.10903E+01   -0.10897E+01  6084   0.219E+01 0.166E-01
CGA:  11    -0.243774481250E+03   -0.49379E+00   -0.49393E+00  6084   0.695E+00-0.286E-02
CGA:  12    -0.243951466990E+03   -0.17699E+00   -0.17702E+00  6084   0.246E+00-0.409E-03
CGA:  13    -0.244009666561E+03   -0.58200E-01   -0.58204E-01  6084   0.660E-01-0.122E-03
CGA:  14    -0.244028358217E+03   -0.18692E-01   -0.18688E-01  6084   0.235E-01 0.552E-04
CGA:  15    -0.244035295275E+03   -0.69371E-02   -0.69331E-02  6084   0.886E-02 0.477E-04
CGA:  16    -0.244038304183E+03   -0.30089E-02   -0.30124E-02  6084   0.419E-02-0.280E-04
CGA:  17    -0.244039785062E+03   -0.14809E-02   -0.14854E-02  6084   0.202E-02-0.331E-04
CGA:  18    -0.244040525312E+03   -0.74025E-03   -0.74324E-03  6084   0.929E-03-0.207E-04
CGA:  19    -0.244040862609E+03   -0.33730E-03   -0.33856E-03  6084   0.386E-03-0.940E-05
CGA:  20    -0.244040997040E+03   -0.13443E-03   -0.13492E-03  6084   0.154E-03-0.430E-05
CGA:  21    -0.244041053520E+03   -0.56480E-04   -0.56766E-04  6084   0.643E-04-0.224E-05
CGA:  22    -0.244041077537E+03   -0.24017E-04   -0.23770E-04  6084   0.248E-04 0.201E-05
CGA:  23    -0.244041087272E+03   -0.97347E-05   -0.95356E-05  6084   0.937E-05 0.175E-05
   1 F= -.24404109E+03 E0= -.24404109E+03  d E =-.244041E+03  mag=    20.0000
