 vasp.6.3.0 20Jan22 (build Apr 15 2022 04:40:24) complex                         
 executed on              LinuxNV date 2022.06.08  18:11:38
 running    1 mpi-ranks, with    4 threads/rank
 distrk:  each k-point on    1 cores,    1 groups
 distr:  one band on NCORE=   1 cores,    1 groups


--------------------------------------------------------------------------------------------------------


 INCAR:
   ALGO = ALL
   EDIFF = 1E-5
   EDIFFG = -0.03
   ENCUT = 520
   IBRION = 2
   ICHARG = 2
   ISIF = 3
   ISYM = 0
   ISPIN = 2
   LREAL = Auto
   NELMIN = 6
   NELM = 150
   NSW = 199
   PREC = Accurate
   ISMEAR = 0
   SIGMA = 0.05
   MAGMOM = 2*0.6 4*4.0 6*0.6 24*0.6
   LWAVE = False
   LORBIT = 11
   LPLANE = True
   NCORE = 16
   NSIM = 4

 POTCAR:    PAW_PBE Ca_sv 06Sep2000               
 POTCAR:    PAW_PBE Mn_pv 02Aug2007               
 POTCAR:    PAW_PBE S 06Sep2000                   
 POTCAR:    PAW_PBE O 08Apr2002                   
 POTCAR:    PAW_PBE Ca_sv 06Sep2000               
   VRHFIN =Ca: 3s3p4s                                                                               
   LEXCH  = PE                                                                                      
   EATOM  =  1006.0909 eV,   73.9456 Ry                                                             
                                                                                                    
   TITEL  = PAW_PBE Ca_sv 06Sep2000                                                                 
   LULTRA =        F    use ultrasoft PP ?                                                          
   IUNSCR =        1    unscreen: 0-lin 1-nonlin 2-no                                               
   RPACOR =    2.000    partial core radius                                                         
   POMASS =   40.078; ZVAL   =   10.000    mass and valenz                                          
   RCORE  =    2.300    outmost cutoff radius                                                       
   RWIGS  =    2.500; RWIGS  =    1.323    wigner-seitz radius (au A)                               
   ENMAX  =  266.622; ENMIN  =  199.967 eV                                                          
   RCLOC  =    1.808    cutoff for local pot                                                        
   LCOR   =        T    correct aug charges                                                         
   LPAW   =        T    paw PP                                                                      
   EAUG   =  420.852                                                                                
   RMAX   =    2.359    core radius for proj-oper                                                   
   RAUG   =    1.300    factor for augmentation sphere                                              
   RDEP   =    2.392    radius for radial grids                                                     
   RDEPT  =    1.987    core radius for aug-charge                                                  
                                                                                                    
   Atomic configuration                                                                             
    7 entries                                                                                       
     n  l   j            E        occ.                                                              
     1  0  0.50     -3949.1705   2.0000                                                             
     2  0  0.50      -414.3434   2.0000                                                             
     2  1  1.50      -334.7047   6.0000                                                             
     3  0  0.50       -47.0896   2.0000                                                             
     4  0  0.50        -3.7663   2.0000                                                             
     3  1  1.50       -28.0061   6.0000                                                             
     3  2  1.50        -4.0817   0.0000                                                             
   Description                                                                                      
     l       E           TYP  RCUT    TYP  RCUT                                                     
     0    -47.0896403     23  2.300                                                                 
     0     -3.7663320     23  2.300                                                                 
     1    -28.0060855     23  2.300                                                                 
     1      6.8029130     23  2.300                                                                 
     2     -4.0817478     23  2.300                                                                 
     2      0.4464412     23  2.300                                                                 
  local pseudopotential read in
  partial core-charges read in
  partial kinetic energy density read in
  atomic valenz-charges read in
  non local Contribution for L=            0  read in
    real space projection operators read in
  non local Contribution for L=            0  read in
    real space projection operators read in
  non local Contribution for L=            1  read in
    real space projection operators read in
  non local Contribution for L=            1  read in
    real space projection operators read in
  non local Contribution for L=            2  read in
    real space projection operators read in
  non local Contribution for L=            2  read in
    real space projection operators read in
    PAW grid and wavefunctions read in
 
   number of l-projection  operators is LMAX  =            6
   number of lm-projection operators is LMMAX =           18
 
 POTCAR:    PAW_PBE Mn_pv 02Aug2007               
   VRHFIN =Mn: 3p4s3d                                                                               
   LEXCH  = PE                                                                                      
   EATOM  =  2025.2664 eV,  148.8529 Ry                                                             
                                                                                                    
   TITEL  = PAW_PBE Mn_pv 02Aug2007                                                                 
   LULTRA =        F    use ultrasoft PP ?                                                          
   IUNSCR =        1    unscreen: 0-lin 1-nonlin 2-no                                               
   RPACOR =    2.080    partial core radius                                                         
   POMASS =   54.938; ZVAL   =   13.000    mass and valenz                                          
   RCORE  =    2.300    outmost cutoff radius                                                       
   RWIGS  =    2.500; RWIGS  =    1.323    wigner-seitz radius (au A)                               
   ENMAX  =  269.864; ENMIN  =  202.398 eV                                                          
   ICORE  =        3    local potential                                                             
   LCOR   =        T    correct aug charges                                                         
   LPAW   =        T    paw PP                                                                      
   EAUG   =  569.085                                                                                
   DEXC   =    0.000                                                                                
   RMAX   =    2.343    core radius for proj-oper                                                   
   RAUG   =    1.300    factor for augmentation sphere                                              
   RDEP   =    2.338    radius for radial grids                                                     
   RDEPT  =    1.798    core radius for aug-charge                                                  
                                                                                                    
   Atomic configuration                                                                             
    8 entries                                                                                       
     n  l   j            E        occ.                                                              
     1  0  0.50     -6424.8287   2.0000                                                             
     2  0  0.50      -739.1154   2.0000                                                             
     2  1  1.50      -625.3949   6.0000                                                             
     3  0  0.50       -81.6100   2.0000                                                             
     3  1  1.50       -50.4667   6.0000                                                             
     3  2  2.50        -3.3745   6.0000                                                             
     4  0  0.50        -4.1331   1.0000                                                             
     4  3  2.50        -1.3606   0.0000                                                             
   Description                                                                                      
     l       E           TYP  RCUT    TYP  RCUT                                                     
     1    -50.4666628     23  2.000                                                                 
     1     -1.3605826     23  2.000                                                                 
     2     -3.3744729     23  2.300                                                                 
     2     -4.7350555     23  2.300                                                                 
     0     -4.1331431     23  2.300                                                                 
     0      7.6656591     23  2.300                                                                 
     3      9.5240782     23  2.300                                                                 
  local pseudopotential read in
  partial core-charges read in
  partial kinetic energy density read in
  atomic valenz-charges read in
  non local Contribution for L=            1  read in
    real space projection operators read in
  non local Contribution for L=            1  read in
    real space projection operators read in
  non local Contribution for L=            2  read in
    real space projection operators read in
  non local Contribution for L=            2  read in
    real space projection operators read in
  non local Contribution for L=            0  read in
    real space projection operators read in
  non local Contribution for L=            0  read in
    real space projection operators read in
    PAW grid and wavefunctions read in
 
   number of l-projection  operators is LMAX  =            6
   number of lm-projection operators is LMMAX =           18
 
 POTCAR:    PAW_PBE S 06Sep2000                   
   VRHFIN =S : s2p4                                                                                 
   LEXCH  = PE                                                                                      
   EATOM  =   276.8230 eV,   20.3459 Ry                                                             
                                                                                                    
   TITEL  = PAW_PBE S 06Sep2000                                                                     
   LULTRA =        F    use ultrasoft PP ?                                                          
   IUNSCR =        1    unscreen: 0-lin 1-nonlin 2-no                                               
   RPACOR =    1.500    partial core radius                                                         
   POMASS =   32.066; ZVAL   =    6.000    mass and valenz                                          
   RCORE  =    1.900    outmost cutoff radius                                                       
   RWIGS  =    2.200; RWIGS  =    1.164    wigner-seitz radius (au A)                               
   ENMAX  =  258.689; ENMIN  =  194.016 eV                                                          
   ICORE  =        2    local potential                                                             
   LCOR   =        T    correct aug charges                                                         
   LPAW   =        T    paw PP                                                                      
   EAUG   =  335.092                                                                                
   DEXC   =    0.000                                                                                
   RMAX   =    1.942    core radius for proj-oper                                                   
   RAUG   =    1.300    factor for augmentation sphere                                              
   RDEP   =    1.954    radius for radial grids                                                     
   RDEPT  =    1.744    core radius for aug-charge                                                  
                                                                                                    
   Atomic configuration                                                                             
    6 entries                                                                                       
     n  l   j            E        occ.                                                              
     1  0  0.50     -2405.8406   2.0000                                                             
     2  0  0.50      -211.7007   2.0000                                                             
     2  1  1.50      -156.4958   6.0000                                                             
     3  0  0.50       -17.2562   2.0000                                                             
     3  1  0.50        -7.0085   4.0000                                                             
     3  2  1.50        -6.8029   0.0000                                                             
   Description                                                                                      
     l       E           TYP  RCUT    TYP  RCUT                                                     
     0    -17.2561641     23  1.900                                                                 
     0    -15.8743224     23  1.900                                                                 
     1     -7.0085400     23  1.900                                                                 
     1     -2.7779785     23  1.900                                                                 
     2     -6.8029130     23  1.900                                                                 
  local pseudopotential read in
  partial core-charges read in
  partial kinetic energy density read in
  atomic valenz-charges read in
  non local Contribution for L=            0  read in
    real space projection operators read in
  non local Contribution for L=            0  read in
    real space projection operators read in
  non local Contribution for L=            1  read in
    real space projection operators read in
  non local Contribution for L=            1  read in
    real space projection operators read in
    PAW grid and wavefunctions read in
 
   number of l-projection  operators is LMAX  =            4
   number of lm-projection operators is LMMAX =            8
 
 POTCAR:    PAW_PBE O 08Apr2002                   
   VRHFIN =O: s2p4                                                                                  
   LEXCH  = PE                                                                                      
   EATOM  =   432.3788 eV,   31.7789 Ry                                                             
                                                                                                    
   TITEL  = PAW_PBE O 08Apr2002                                                                     
   LULTRA =        F    use ultrasoft PP ?                                                          
   IUNSCR =        1    unscreen: 0-lin 1-nonlin 2-no                                               
   RPACOR =    1.200    partial core radius                                                         
   POMASS =   16.000; ZVAL   =    6.000    mass and valenz                                          
   RCORE  =    1.520    outmost cutoff radius                                                       
   RWIGS  =    1.550; RWIGS  =    0.820    wigner-seitz radius (au A)                               
   ENMAX  =  400.000; ENMIN  =  300.000 eV                                                          
   ICORE  =        2    local potential                                                             
   LCOR   =        T    correct aug charges                                                         
   LPAW   =        T    paw PP                                                                      
   EAUG   =  605.392                                                                                
   DEXC   =    0.000                                                                                
   RMAX   =    1.553    core radius for proj-oper                                                   
   RAUG   =    1.300    factor for augmentation sphere                                              
   RDEP   =    1.550    radius for radial grids                                                     
   RDEPT  =    1.329    core radius for aug-charge                                                  
                                                                                                    
   Atomic configuration                                                                             
    4 entries                                                                                       
     n  l   j            E        occ.                                                              
     1  0  0.50      -514.6923   2.0000                                                             
     2  0  0.50       -23.9615   2.0000                                                             
     2  1  0.50        -9.0305   4.0000                                                             
     3  2  1.50        -9.5241   0.0000                                                             
   Description                                                                                      
     l       E           TYP  RCUT    TYP  RCUT                                                     
     0    -23.9615318     23  1.200                                                                 
     0     -9.5240782     23  1.200                                                                 
     1     -9.0304911     23  1.520                                                                 
     1      8.1634956     23  1.520                                                                 
     2     -9.5240782      7  1.500                                                                 
  local pseudopotential read in
  partial core-charges read in
  partial kinetic energy density read in
  kinetic energy density of atom read in
  atomic valenz-charges read in
  non local Contribution for L=            0  read in
    real space projection operators read in
  non local Contribution for L=            0  read in
    real space projection operators read in
  non local Contribution for L=            1  read in
    real space projection operators read in
  non local Contribution for L=            1  read in
    real space projection operators read in
    PAW grid and wavefunctions read in
 
   number of l-projection  operators is LMAX  =            4
   number of lm-projection operators is LMMAX =            8
 
 Optimization of the real space projectors (new method)

 maximal supplied QI-value         = 16.25
 optimisation between [QCUT,QGAM] = [ 11.54, 23.24] = [ 37.28,151.24] Ry 
 Optimized for a Real-space Cutoff    1.58 Angstroem

   l    n(q)    QCUT    max X(q) W(low)/X(q) W(high)/X(q)  e(spline) 
   0     11    11.539    11.817    0.25E-04    0.22E-05    0.26E-07
   0     11    11.539     8.461    0.39E-04    0.49E-05    0.55E-07
   1     11    11.539     3.957    0.21E-05    0.44E-05    0.32E-07
   1     11    11.539     4.314    0.56E-04    0.44E-04    0.19E-06
   2     10    11.539    14.565    0.25E-03    0.21E-04    0.75E-06
   2     10    11.539    14.552    0.23E-03    0.22E-04    0.72E-06
 Optimization of the real space projectors (new method)

 maximal supplied QI-value         = 16.25
 optimisation between [QCUT,QGAM] = [ 11.54, 23.24] = [ 37.28,151.24] Ry 
 Optimized for a Real-space Cutoff    1.45 Angstroem

   l    n(q)    QCUT    max X(q) W(low)/X(q) W(high)/X(q)  e(spline) 
   1     10    11.539     3.658    0.56E-04    0.12E-03    0.13E-06
   1     10    11.539     5.612    0.11E-03    0.23E-03    0.24E-06
   2      9    11.539    55.373    0.45E-04    0.92E-04    0.22E-06
   2      9    11.539    50.863    0.47E-04    0.95E-04    0.22E-06
   0     10    11.539    79.536    0.46E-04    0.27E-04    0.11E-06
   0     10    11.539    38.668    0.38E-04    0.25E-04    0.10E-06
 Optimization of the real space projectors (new method)

 maximal supplied QI-value         = 19.84
 optimisation between [QCUT,QGAM] = [ 11.51, 23.22] = [ 37.09,150.92] Ry 
 Optimized for a Real-space Cutoff    1.21 Angstroem

   l    n(q)    QCUT    max X(q) W(low)/X(q) W(high)/X(q)  e(spline) 
   0      8    11.508   187.594    0.96E-04    0.18E-03    0.54E-07
   0      8    11.508   164.243    0.96E-04    0.18E-03    0.54E-07
   1      8    11.508    67.533    0.18E-03    0.65E-04    0.94E-07
   1      8    11.508    50.729    0.18E-03    0.63E-04    0.92E-07
 Optimization of the real space projectors (new method)

 maximal supplied QI-value         = 24.76
 optimisation between [QCUT,QGAM] = [ 11.64, 23.27] = [ 37.91,151.63] Ry 
 Optimized for a Real-space Cutoff    1.14 Angstroem

   l    n(q)    QCUT    max X(q) W(low)/X(q) W(high)/X(q)  e(spline) 
   0      8    11.635    20.381    0.10E-03    0.33E-03    0.24E-06
   0      8    11.635    15.268    0.11E-03    0.35E-03    0.26E-06
   1      7    11.635     5.964    0.24E-03    0.31E-03    0.30E-06
   1      7    11.635     5.382    0.22E-03    0.25E-03    0.26E-06
  PAW_PBE Ca_sv 06Sep2000               :
 energy of atom  1       EATOM=-1006.0909
 kinetic energy error for atom=    0.0022 (will be added to EATOM!!)
  PAW_PBE Mn_pv 02Aug2007               :
 energy of atom  2       EATOM=-2025.2664
 kinetic energy error for atom=    0.0058 (will be added to EATOM!!)
  PAW_PBE S 06Sep2000                   :
 energy of atom  3       EATOM= -276.8230
 kinetic energy error for atom=    0.0016 (will be added to EATOM!!)
  PAW_PBE O 08Apr2002                   :
 energy of atom  4       EATOM= -432.3788
 kinetic energy error for atom=    0.0208 (will be added to EATOM!!)
 
 
 POSCAR: Ca2 Mn4 S6 O24
  positions in direct lattice
  velocities in cartesian coordinates
 exchange correlation table for  LEXCH =        8
   RHO(1)=    0.500       N(1)  =     2000
   RHO(2)=  100.500       N(2)  =     4000
 


--------------------------------------------------------------------------------------------------------


 ion  position               nearest neighbor table
   1  0.497  0.497  0.497-  24 2.41  20 2.41  22 2.41  13 2.41  17 2.41  15 2.41
   2  0.997  0.997  0.997-  23 2.41  19 2.41  21 2.41  16 2.41  18 2.41  14 2.41
   3  0.649  0.649  0.649-  26 2.10  30 2.10  28 2.10  15 2.26  13 2.26  17 2.26
   4  0.149  0.149  0.149-  27 2.10  25 2.10  29 2.10  14 2.26  16 2.26  18 2.26
   5  0.846  0.846  0.846-  32 2.10  36 2.10  34 2.10  21 2.26  23 2.26  19 2.26
   6  0.346  0.346  0.346-  33 2.10  35 2.10  31 2.10  24 2.26  22 2.26  20 2.26
   7  0.946  0.247  0.550-  25 1.47  31 1.47  23 1.50  15 1.50
   8  0.446  0.050  0.747-  26 1.47  32 1.47  22 1.50  18 1.50
   9  0.550  0.946  0.247-  27 1.47  33 1.47  19 1.50  17 1.50
  10  0.747  0.446  0.050-  28 1.47  34 1.47  24 1.50  14 1.50
  11  0.247  0.550  0.946-  29 1.47  35 1.47  21 1.50  13 1.50
  12  0.050  0.747  0.446-  30 1.47  36 1.47  20 1.50  16 1.50
  13  0.403  0.567  0.764-  11 1.50   3 2.26   1 2.41
  14  0.903  0.264  0.067-  10 1.50   4 2.26   2 2.41
  15  0.764  0.403  0.567-   7 1.50   3 2.26   1 2.41
  16  0.067  0.903  0.264-  12 1.50   4 2.26   2 2.41
  17  0.567  0.764  0.403-   9 1.50   3 2.26   1 2.41
  18  0.264  0.067  0.903-   8 1.50   4 2.26   2 2.41
  19  0.731  0.928  0.092-   9 1.50   5 2.26   2 2.41
  20  0.231  0.592  0.428-  12 1.50   6 2.26   1 2.41
  21  0.092  0.731  0.928-  11 1.50   5 2.26   2 2.41
  22  0.428  0.231  0.592-   8 1.50   6 2.26   1 2.41
  23  0.928  0.092  0.731-   7 1.50   5 2.26   2 2.41
  24  0.592  0.428  0.231-  10 1.50   6 2.26   1 2.41
  25  0.984  0.190  0.404-   7 1.47   4 2.10
  26  0.484  0.904  0.690-   8 1.47   3 2.10
  27  0.404  0.984  0.190-   9 1.47   4 2.10
  28  0.690  0.484  0.904-  10 1.47   3 2.10
  29  0.190  0.404  0.984-  11 1.47   4 2.10
  30  0.904  0.690  0.484-  12 1.47   3 2.10
  31  0.091  0.305  0.512-   7 1.47   6 2.10
  32  0.591  0.012  0.805-   8 1.47   5 2.10
  33  0.512  0.091  0.305-   9 1.47   6 2.10
  34  0.805  0.591  0.012-  10 1.47   5 2.10
  35  0.305  0.512  0.091-  11 1.47   6 2.10
  36  0.012  0.805  0.591-  12 1.47   5 2.10
 

IMPORTANT INFORMATION: All symmetrisations will be switched off!
NOSYMM: (Re-)initialisation of all symmetry stuff for point group C_1.


----------------------------------------------------------------------------------------

                                     Primitive cell                                     

  volume of cell :     508.6783

  direct lattice vectors                    reciprocal lattice vectors
     7.807381999  0.099380933  4.559914656     0.129545519 -0.046101379 -0.001497781
     2.664559797  7.339303837  4.559911790    -0.000875442  0.137501154 -0.001497853
     0.139886418  0.099371003  9.040383716    -0.064900406 -0.046101448  0.112125753

  length of vectors
     9.042008180  9.042016106  9.042011974     0.137512261  0.137512099  0.137512147

  position of ions in fractional coordinates (direct lattice)
     0.497496875  0.497496286  0.497496743
     0.997496049  0.997497126  0.997496199
     0.649189693  0.649190033  0.649188385
     0.149188703  0.149190389  0.149188503
     0.845799244  0.845798486  0.845799112
     0.345799556  0.345798703  0.345799045
     0.945592854  0.247497550  0.549640160
     0.445591971  0.049638988  0.747499499
     0.549638096  0.945591544  0.247498537
     0.747497665  0.445592254  0.049643091
     0.247498375  0.549639553  0.945589997
     0.049641127  0.747499837  0.445588805
     0.402546543  0.567024686  0.764278876
     0.902546831  0.264280824  0.067022412
     0.764280659  0.402546537  0.567023707
     0.067023354  0.902548411  0.264277861
     0.567024902  0.764279112  0.402544798
     0.264278996  0.067024991  0.902545265
     0.730843101  0.927957069  0.092327375
     0.230848413  0.592331352  0.427948182
     0.092328755  0.730845121  0.927953534
     0.427955692  0.230843920  0.592327946
     0.927952871  0.092328456  0.730845800
     0.592330880  0.427947605  0.230849241
     0.984175548  0.190471279  0.403696303
     0.484172398  0.903695300  0.690471743
     0.403694953  0.984172839  0.190471613
     0.690468678  0.484177305  0.903698096
     0.190471757  0.403697134  0.984169319
     0.903697940  0.690470012  0.484169231
     0.091152900  0.304599146  0.511919410
     0.591150811  0.011913690  0.804602223
     0.511911958  0.091150941  0.304603539
     0.804596743  0.591151606  0.011922589
     0.304602160  0.511911650  0.091151654
     0.011912947  0.804600266  0.591151205

  ion indices of the primitive-cell ions
   primitive index   ion index
                 1           1
                 2           2
                 3           3
                 4           4
                 5           5
                 6           6
                 7           7
                 8           8
                 9           9
                10          10
                11          11
                12          12
                13          13
                14          14
                15          15
                16          16
                17          17
                18          18
                19          19
                20          20
                21          21
                22          22
                23          23
                24          24
                25          25
                26          26
                27          27
                28          28
                29          29
                30          30
                31          31
                32          32
                33          33
                34          34
                35          35
                36          36

----------------------------------------------------------------------------------------

 
 
 KPOINTS: Fully automatic kpoint scheme           

Automatic generation of k-mesh.
 Grid dimensions derived from RKLEN:
 generate k-points for:    4    4    4

 Generating k-lattice:

  Cartesian coordinates                     Fractional coordinates (reciprocal lattice)
     0.032386380 -0.011525345 -0.000374445     0.250000000 -0.000000000 -0.000000000
    -0.000218861  0.034375288 -0.000374463    -0.000000000  0.250000000  0.000000000
    -0.016225101 -0.011525362  0.028031438    -0.000000000 -0.000000000  0.250000000

  Length of vectors
     0.034378065  0.034378025  0.034378037

  Shift w.r.t. Gamma in fractional coordinates (k-lattice)
     0.000000000  0.000000000  0.000000000

 
 Subroutine IBZKPT returns following result:
 ===========================================
 
 Found     36 irreducible k-points:
 
 Following reciprocal coordinates:
            Coordinates               Weight
  0.000000  0.000000  0.000000      1.000000
  0.250000  0.000000  0.000000      2.000000
  0.000000  0.250000  0.000000      2.000000
  0.000000  0.000000  0.250000      2.000000
  0.500000  0.000000  0.000000      1.000000
  0.000000  0.500000  0.000000      1.000000
  0.000000  0.000000  0.500000      1.000000
  0.250000  0.250000  0.000000      2.000000
 -0.250000  0.000000 -0.250000      2.000000
  0.000000  0.250000  0.250000      2.000000
  0.500000  0.250000  0.000000      2.000000
  0.500000  0.000000 -0.250000      2.000000
  0.000000  0.500000  0.250000      2.000000
 -0.250000  0.500000  0.000000      2.000000
  0.250000  0.000000  0.500000      2.000000
  0.000000 -0.250000  0.500000      2.000000
 -0.250000  0.250000  0.000000      2.000000
  0.250000  0.000000 -0.250000      2.000000
  0.000000 -0.250000  0.250000      2.000000
  0.500000  0.500000  0.000000      1.000000
  0.500000  0.000000  0.500000      1.000000
  0.000000  0.500000  0.500000      1.000000
  0.250000  0.250000  0.250000      2.000000
  0.500000  0.250000  0.250000      2.000000
  0.250000  0.500000  0.250000      2.000000
  0.250000  0.250000  0.500000      2.000000
 -0.250000  0.250000  0.250000      2.000000
  0.250000 -0.250000  0.250000      2.000000
  0.250000  0.250000 -0.250000      2.000000
  0.500000  0.500000  0.250000      2.000000
  0.500000 -0.250000  0.500000      2.000000
  0.250000  0.500000  0.500000      2.000000
 -0.250000  0.500000  0.250000      2.000000
  0.250000 -0.250000  0.500000      2.000000
  0.500000  0.250000 -0.250000      2.000000
  0.500000  0.500000  0.500000      1.000000
 
 Following cartesian coordinates:
            Coordinates               Weight
  0.000000  0.000000  0.000000      1.000000
  0.032386 -0.011525 -0.000374      2.000000
 -0.000219  0.034375 -0.000374      2.000000
 -0.016225 -0.011525  0.028031      2.000000
  0.064773 -0.023051 -0.000749      1.000000
 -0.000438  0.068751 -0.000749      1.000000
 -0.032450 -0.023051  0.056063      1.000000
  0.032168  0.022850 -0.000749      2.000000
 -0.016161  0.023051 -0.027657      2.000000
 -0.016444  0.022850  0.027657      2.000000
  0.064554  0.011325 -0.001123      2.000000
  0.080998 -0.011525 -0.028780      2.000000
 -0.016663  0.057225  0.027283      2.000000
 -0.032824  0.080276 -0.000374      2.000000
 -0.000064 -0.034576  0.055688      2.000000
 -0.032231 -0.057426  0.056437      2.000000
 -0.032605  0.045901 -0.000000      2.000000
  0.048611  0.000000 -0.028406      2.000000
 -0.016006 -0.045901  0.028406      2.000000
  0.064335  0.045700 -0.001498      1.000000
  0.032323 -0.046101  0.055314      1.000000
 -0.032888  0.045700  0.055314      1.000000
  0.015942  0.011325  0.027283      2.000000
  0.048329 -0.000201  0.026908      2.000000
  0.015724  0.045700  0.026908      2.000000
 -0.000283 -0.000201  0.055314      2.000000
 -0.048830  0.034375  0.028031      2.000000
  0.016380 -0.057426  0.028031      2.000000
  0.048393  0.034375 -0.028780      2.000000
  0.048110  0.034175  0.026534      2.000000
  0.032541 -0.080477  0.055688      2.000000
 -0.000502  0.034175  0.054940      2.000000
 -0.049049  0.068751  0.027657      2.000000
  0.000155 -0.068951  0.056063      2.000000
  0.080779  0.022850 -0.029155      2.000000
  0.031885  0.022649  0.054565      1.000000
 


--------------------------------------------------------------------------------------------------------




 Dimension of arrays:
   k-points           NKPTS =     36   k-points in BZ     NKDIM =     36   number of bands    NBANDS=    169
   number of dos      NEDOS =    301   number of ions     NIONS =     36
   non local maximal  LDIM  =      6   non local SUM 2l+1 LMDIM =     18
   total plane-waves  NPLWV = 343000
   max r-space proj   IRMAX =  11187   max aug-charges    IRDMAX=  32368
   dimension x,y,z NGX =    70 NGY =   70 NGZ =   70
   dimension x,y,z NGXF=   140 NGYF=  140 NGZF=  140
   support grid    NGXF=   140 NGYF=  140 NGZF=  140
   ions per type =               2   4   6  24
   NGX,Y,Z   is equivalent  to a cutoff of  12.87, 12.87, 12.87 a.u.
   NGXF,Y,Z  is equivalent  to a cutoff of  25.74, 25.74, 25.74 a.u.

 SYSTEM =  unknown system                          
 POSCAR =  Ca2 Mn4 S6 O24                          

 Startparameter for this run:
   NWRITE =      2    write-flag & timer
   PREC   = accura    normal or accurate (medium, high low for compatibility)
   ISTART =      0    job   : 0-new  1-cont  2-samecut
   ICHARG =      2    charge: 1-file 2-atom 10-const
   ISPIN  =      2    spin polarized calculation?
   LNONCOLLINEAR =      F non collinear calculations
   LSORBIT =      F    spin-orbit coupling
   INIWAV =      1    electr: 0-lowe 1-rand  2-diag
   LASPH  =      F    aspherical Exc in radial PAW
 Electronic Relaxation 1
   ENCUT  =  520.0 eV  38.22 Ry    6.18 a.u.  16.81 16.81 16.81*2*pi/ulx,y,z
   ENINI  =  520.0     initial cutoff
   ENAUG  =  605.4 eV  augmentation charge cutoff
   NELM   =    150;   NELMIN=  6; NELMDL= -5     # of ELM steps 
   EDIFF  = 0.1E-04   stopping-criterion for ELM
   LREAL  =      T    real-space projection
   NLSPLINE    = F    spline interpolate recip. space projectors
   LCOMPAT=      F    compatible to vasp.4.4
   GGA_COMPAT  = T    GGA compatible to vasp.4.4-vasp.4.6
   LMAXPAW     = -100 max onsite density
   LMAXMIX     =    2 max onsite mixed and CHGCAR
   VOSKOWN=      0    Vosko Wilk Nusair interpolation
   ROPT   =   -0.00025  -0.00025  -0.00025  -0.00025
 Ionic relaxation
   EDIFFG = -.3E-01   stopping-criterion for IOM
   NSW    =    199    number of steps for IOM
   NBLOCK =      1;   KBLOCK =    199    inner block; outer block 
   IBRION =      2    ionic relax: 0-MD 1-quasi-New 2-CG
   NFREE  =      1    steps in history (QN), initial steepest desc. (CG)
   ISIF   =      3    stress and relaxation
   IWAVPR =     11    prediction:  0-non 1-charg 2-wave 3-comb
   ISYM   =      0    0-nonsym 1-usesym 2-fastsym
   LCORR  =      T    Harris-Foulkes like correction to forces

   POTIM  = 0.5000    time-step for ionic-motion
   TEIN   =    0.0    initial temperature
   TEBEG  =    0.0;   TEEND  =   0.0 temperature during run
   SMASS  =  -3.00    Nose mass-parameter (am)
   estimated Nose-frequenzy (Omega)   =  0.10E-29 period in steps = 0.13E+47 mass=  -0.187E-26a.u.
   SCALEE = 1.0000    scale energy and forces
   NPACO  =    256;   APACO  = 10.0  distance and # of slots for P.C.
   PSTRESS=    0.0 pullay stress

  Mass of Ions in am
   POMASS =  40.08 54.94 32.07 16.00
  Ionic Valenz
   ZVAL   =  10.00 13.00  6.00  6.00
  Atomic Wigner-Seitz radii
   RWIGS  =  -1.00 -1.00 -1.00 -1.00
  virtual crystal weights 
   VCA    =   1.00  1.00  1.00  1.00
   NELECT =     252.0000    total number of electrons
   NUPDOWN=      -1.0000    fix difference up-down

 DOS related values:
   EMIN   =  10.00;   EMAX   =-10.00  energy-range for DOS
   EFERMI =   0.00
   ISMEAR =     0;   SIGMA  =   0.05  broadening in eV -4-tet -1-fermi 0-gaus

 Electronic relaxation 2 (details)
   IALGO  =     58    algorithm
   LDIAG  =      T    sub-space diagonalisation (order eigenvalues)
   LSUBROT=      F    optimize rotation matrix (better conditioning)
   TURBO    =      0    0=normal 1=particle mesh
   IRESTART =      0    0=no restart 2=restart with 2 vectors
   NREBOOT  =      0    no. of reboots
   NMIN     =      0    reboot dimension
   EREF     =   0.00    reference energy to select bands
   IMIX   =      4    mixing-type and parameters
     AMIX     =   0.40;   BMIX     =  1.00
     AMIX_MAG =   1.60;   BMIX_MAG =  1.00
     AMIN     =   0.10
     WC   =   100.;   INIMIX=   1;  MIXPRE=   1;  MAXMIX= -45

 Intra band minimization:
   WEIMIN = 0.0010     energy-eigenvalue tresh-hold
   EBREAK =  0.15E-07  absolut break condition
   DEPER  =   0.30     relativ break condition  

   TIME   =   0.40     timestep for ELM

  volume/ion in A,a.u.               =      14.13        95.35
  Fermi-wavevector in a.u.,A,eV,Ry     =   1.295370  2.447895 22.830361  1.677984
  Thomas-Fermi vector in A             =   2.426894
 
 Write flags
   LWAVE        =      F    write WAVECAR
   LDOWNSAMPLE  =      F    k-point downsampling of WAVECAR
   LCHARG       =      T    write CHGCAR
   LVTOT        =      F    write LOCPOT, total local potential
   LVHAR        =      F    write LOCPOT, Hartree potential only
   LELF         =      F    write electronic localiz. function (ELF)
   LORBIT       =     11    0 simple, 1 ext, 2 COOP (PROOUT), +10 PAW based schemes


 Dipole corrections
   LMONO  =      F    monopole corrections only (constant potential shift)
   LDIPOL =      F    correct potential (dipole corrections)
   IDIPOL =      0    1-x, 2-y, 3-z, 4-all directions 
   EPSILON=  1.0000000 bulk dielectric constant

 Exchange correlation treatment:
   GGA     =    --    GGA type
   LEXCH   =     8    internal setting for exchange type
   LIBXC   =     F    Libxc                    
   VOSKOWN =     0    Vosko Wilk Nusair interpolation
   LHFCALC =     F    Hartree Fock is set to
   LHFONE  =     F    Hartree Fock one center treatment
   AEXX    =    0.0000 exact exchange contribution

 Linear response parameters
   LEPSILON=     F    determine dielectric tensor
   LRPA    =     F    only Hartree local field effects (RPA)
   LNABLA  =     F    use nabla operator in PAW spheres
   LVEL    =     F    velocity operator in full k-point grid
   CSHIFT  =0.1000    complex shift for real part using Kramers Kronig
   OMEGAMAX=  -1.0    maximum frequency
   DEG_THRESHOLD= 0.2000000E-02 threshold for treating states as degnerate
   RTIME   =   -0.100 relaxation time in fs
  (WPLASMAI=    0.000 imaginary part of plasma frequency in eV, 0.658/RTIME)
   DFIELD  = 0.0000000 0.0000000 0.0000000 field for delta impulse in time
 
  Optional k-point grid parameters
   LKPOINTS_OPT  =     F    use optional k-point grid
   KPOINTS_OPT_MODE=     1    mode for optional k-point grid
 
 Orbital magnetization related:
   ORBITALMAG=     F  switch on orbital magnetization
   LCHIMAG   =     F  perturbation theory with respect to B field
   DQ        =  0.001000  dq finite difference perturbation B field
   LLRAUG    =     F  two centre corrections for induced B field



--------------------------------------------------------------------------------------------------------


 conjugate gradient relaxation of ions
 charge density and potential will be updated during run
 spin polarized calculation
 Conjugate gradient for all bands (Freysoldt, et al. PRB 79, 241103 (2009))
 preconditioned conjugated gradient                                        
 perform sub-space diagonalisation
    before iterative eigenvector-optimisation
 modified Broyden-mixing scheme, WC =      100.0
 initial mixing is a Kerker type mixing with AMIX =  0.4000 and BMIX =      1.0000
 Hartree-type preconditioning will be used
 using additional bands            43
 real space projection scheme for non local part
 use partial core corrections
 no Harris-corrections to forces 
 use gradient corrections 
 use of overlap-Matrix (Vanderbilt PP)
 Gauss-broadening in eV      SIGMA  =   0.05


--------------------------------------------------------------------------------------------------------


  energy-cutoff  :      520.00
  volume of cell :      508.68
      direct lattice vectors                 reciprocal lattice vectors
     7.807381999  0.099380933  4.559914656     0.129545519 -0.046101379 -0.001497781
     2.664559797  7.339303837  4.559911790    -0.000875442  0.137501154 -0.001497853
     0.139886418  0.099371003  9.040383716    -0.064900406 -0.046101448  0.112125753

  length of vectors
     9.042008180  9.042016106  9.042011974     0.137512261  0.137512099  0.137512147


 
 k-points in units of 2pi/SCALE and weight: Fully automatic kpoint scheme           
   0.00000000  0.00000000  0.00000000       0.016
   0.03238638 -0.01152534 -0.00037445       0.031
  -0.00021886  0.03437529 -0.00037446       0.031
  -0.01622510 -0.01152536  0.02803144       0.031
   0.06477276 -0.02305069 -0.00074889       0.016
  -0.00043772  0.06875058 -0.00074893       0.016
  -0.03245020 -0.02305072  0.05606288       0.016
   0.03216752  0.02284994 -0.00074891       0.031
  -0.01616128  0.02305071 -0.02765699       0.031
  -0.01644396  0.02284993  0.02765698       0.031
   0.06455390  0.01132460 -0.00112335       0.031
   0.08099786 -0.01152533 -0.02878033       0.031
  -0.01666282  0.05722521  0.02728251       0.031
  -0.03282410  0.08027592 -0.00037448       0.031
  -0.00006382 -0.03457607  0.05568843       0.031
  -0.03223134 -0.05742601  0.05643734       0.031
  -0.03260524  0.04590063 -0.00000002       0.031
   0.04861148  0.00000002 -0.02840588       0.031
  -0.01600624 -0.04590065  0.02840590       0.031
   0.06433504  0.04569989 -0.00149782       0.016
   0.03232256 -0.04610141  0.05531399       0.016
  -0.03288792  0.04569985  0.05531395       0.016
   0.01594242  0.01132458  0.02728253       0.031
   0.04832880 -0.00020076  0.02690808       0.031
   0.01572356  0.04569987  0.02690807       0.031
  -0.00028268 -0.00020078  0.05531397       0.031
  -0.04883034  0.03437527  0.02803142       0.031
   0.01638014 -0.05742600  0.02803146       0.031
   0.04839262  0.03437531 -0.02878035       0.031
   0.04810994  0.03417453  0.02653362       0.031
   0.03254142 -0.08047670  0.05568845       0.031
  -0.00050154  0.03417451  0.05493950       0.031
  -0.04904920  0.06875056  0.02765696       0.031
   0.00015504 -0.06895136  0.05606289       0.031
   0.08077900  0.02284996 -0.02915479       0.031
   0.03188484  0.02264916  0.05456506       0.016
 
 k-points in reciprocal lattice and weights: Fully automatic kpoint scheme           
   0.00000000  0.00000000  0.00000000       0.016
   0.25000000  0.00000000  0.00000000       0.031
   0.00000000  0.25000000  0.00000000       0.031
   0.00000000  0.00000000  0.25000000       0.031
   0.50000000  0.00000000  0.00000000       0.016
   0.00000000  0.50000000  0.00000000       0.016
   0.00000000  0.00000000  0.50000000       0.016
   0.25000000  0.25000000  0.00000000       0.031
  -0.25000000  0.00000000 -0.25000000       0.031
   0.00000000  0.25000000  0.25000000       0.031
   0.50000000  0.25000000  0.00000000       0.031
   0.50000000  0.00000000 -0.25000000       0.031
   0.00000000  0.50000000  0.25000000       0.031
  -0.25000000  0.50000000  0.00000000       0.031
   0.25000000  0.00000000  0.50000000       0.031
   0.00000000 -0.25000000  0.50000000       0.031
  -0.25000000  0.25000000  0.00000000       0.031
   0.25000000  0.00000000 -0.25000000       0.031
   0.00000000 -0.25000000  0.25000000       0.031
   0.50000000  0.50000000  0.00000000       0.016
   0.50000000  0.00000000  0.50000000       0.016
   0.00000000  0.50000000  0.50000000       0.016
   0.25000000  0.25000000  0.25000000       0.031
   0.50000000  0.25000000  0.25000000       0.031
   0.25000000  0.50000000  0.25000000       0.031
   0.25000000  0.25000000  0.50000000       0.031
  -0.25000000  0.25000000  0.25000000       0.031
   0.25000000 -0.25000000  0.25000000       0.031
   0.25000000  0.25000000 -0.25000000       0.031
   0.50000000  0.50000000  0.25000000       0.031
   0.50000000 -0.25000000  0.50000000       0.031
   0.25000000  0.50000000  0.50000000       0.031
  -0.25000000  0.50000000  0.25000000       0.031
   0.25000000 -0.25000000  0.50000000       0.031
   0.50000000  0.25000000 -0.25000000       0.031
   0.50000000  0.50000000  0.50000000       0.016
 
 position of ions in fractional coordinates (direct lattice) 
   0.49749688  0.49749629  0.49749674
   0.99749605  0.99749713  0.99749620
   0.64918969  0.64919003  0.64918839
   0.14918870  0.14919039  0.14918850
   0.84579924  0.84579849  0.84579911
   0.34579956  0.34579870  0.34579905
   0.94559285  0.24749755  0.54964016
   0.44559197  0.04963899  0.74749950
   0.54963810  0.94559154  0.24749854
   0.74749766  0.44559225  0.04964309
   0.24749837  0.54963955  0.94559000
   0.04964113  0.74749984  0.44558881
   0.40254654  0.56702469  0.76427888
   0.90254683  0.26428082  0.06702241
   0.76428066  0.40254654  0.56702371
   0.06702335  0.90254841  0.26427786
   0.56702490  0.76427911  0.40254480
   0.26427900  0.06702499  0.90254526
   0.73084310  0.92795707  0.09232738
   0.23084841  0.59233135  0.42794818
   0.09232876  0.73084512  0.92795353
   0.42795569  0.23084392  0.59232795
   0.92795287  0.09232846  0.73084580
   0.59233088  0.42794761  0.23084924
   0.98417555  0.19047128  0.40369630
   0.48417240  0.90369530  0.69047174
   0.40369495  0.98417284  0.19047161
   0.69046868  0.48417731  0.90369810
   0.19047176  0.40369713  0.98416932
   0.90369794  0.69047001  0.48416923
   0.09115290  0.30459915  0.51191941
   0.59115081  0.01191369  0.80460222
   0.51191196  0.09115094  0.30460354
   0.80459674  0.59115161  0.01192259
   0.30460216  0.51191165  0.09115165
   0.01191295  0.80460027  0.59115121
 
 position of ions in cartesian coordinates  (Angst):
   5.27934979  3.75015485  9.03464392
  10.58525961  7.51918877 18.11474415
   6.88909022  4.89363048 11.78941099
   1.58316935  1.12460512  2.70930408
   8.97547424  6.37567630 15.35988737
   3.66956314  2.60665003  6.27978410
   8.11896384  1.96505191 10.40934767
   3.71573781  0.48287873  9.01589307
   6.84544147  7.01920137  9.05559858
   7.03025141  3.34955704  5.88917951
   3.52913701  4.15253252 12.18337576
   2.44165708  5.53534041  7.66318640
   4.76061805  4.27751906 11.33053473
   7.76009547  2.03599329  5.92654209
   7.11895929  3.08671198 10.44674317
   2.96514002  6.65699942  6.81033519
   6.51975796  5.70562936  9.70978993
   2.36817300  0.60786790  9.67007323
   8.19148372  6.89236541  8.39865945
   3.44048819  4.41276734  7.62244356
   2.79803448  5.46528179 12.14265654
   4.03916963  1.79562453  8.35894126
   7.59313264  0.84247229 11.25952198
   5.79713811  3.22264362  6.73934731
   8.24782820  1.53585058  9.00585822
   6.28465665  6.74922476 12.57068517
   5.80083248  7.28219043  8.05049234
   6.80728720  3.71194516 13.52606160
   2.70043284  3.07958308 11.60662656
   8.96304236  5.20549194 11.64634346
   1.59489872  2.29547448  6.43254258
   4.75963786  0.22614144 10.02383546
   4.28217924  0.75012750  5.50364796
   7.85862074  4.41978759  6.47227644
   3.75491550  3.79640461  4.54727775
   2.31960847  5.96513303  9.06746199
 


--------------------------------------------------------------------------------------------------------


 k-point   1 :   0.0000 0.0000 0.0000  plane waves:   13713
 k-point   2 :   0.2500 0.0000 0.0000  plane waves:   13712
 k-point   3 :   0.0000 0.2500 0.0000  plane waves:   13711
 k-point   4 :   0.0000 0.0000 0.2500  plane waves:   13711
 k-point   5 :   0.5000 0.0000 0.0000  plane waves:   13670
 k-point   6 :   0.0000 0.5000 0.0000  plane waves:   13670
 k-point   7 :   0.0000 0.0000 0.5000  plane waves:   13670
 k-point   8 :   0.2500 0.2500 0.0000  plane waves:   13706
 k-point   9 :  -0.2500 0.0000-0.2500  plane waves:   13706
 k-point  10 :   0.0000 0.2500 0.2500  plane waves:   13706
 k-point  11 :   0.5000 0.2500 0.0000  plane waves:   13688
 k-point  12 :   0.5000 0.0000-0.2500  plane waves:   13688
 k-point  13 :   0.0000 0.5000 0.2500  plane waves:   13688
 k-point  14 :  -0.2500 0.5000 0.0000  plane waves:   13688
 k-point  15 :   0.2500 0.0000 0.5000  plane waves:   13688
 k-point  16 :   0.0000-0.2500 0.5000  plane waves:   13688
 k-point  17 :  -0.2500 0.2500 0.0000  plane waves:   13667
 k-point  18 :   0.2500 0.0000-0.2500  plane waves:   13667
 k-point  19 :   0.0000-0.2500 0.2500  plane waves:   13667
 k-point  20 :   0.5000 0.5000 0.0000  plane waves:   13714
 k-point  21 :   0.5000 0.0000 0.5000  plane waves:   13714
 k-point  22 :   0.0000 0.5000 0.5000  plane waves:   13714
 k-point  23 :   0.2500 0.2500 0.2500  plane waves:   13717
 k-point  24 :   0.5000 0.2500 0.2500  plane waves:   13714
 k-point  25 :   0.2500 0.5000 0.2500  plane waves:   13714
 k-point  26 :   0.2500 0.2500 0.5000  plane waves:   13714
 k-point  27 :  -0.2500 0.2500 0.2500  plane waves:   13666
 k-point  28 :   0.2500-0.2500 0.2500  plane waves:   13666
 k-point  29 :   0.2500 0.2500-0.2500  plane waves:   13666
 k-point  30 :   0.5000 0.5000 0.2500  plane waves:   13714
 k-point  31 :   0.5000-0.2500 0.5000  plane waves:   13714
 k-point  32 :   0.2500 0.5000 0.5000  plane waves:   13714
 k-point  33 :  -0.2500 0.5000 0.2500  plane waves:   13684
 k-point  34 :   0.2500-0.2500 0.5000  plane waves:   13684
 k-point  35 :   0.5000 0.2500-0.2500  plane waves:   13684
 k-point  36 :   0.5000 0.5000 0.5000  plane waves:   13756

 maximum and minimum number of plane-waves per node :     13756    13666

 maximum number of plane-waves:     13756
 maximum index in each direction: 
   IXMAX=   17   IYMAX=   17   IZMAX=   17
   IXMIN=  -17   IYMIN=  -17   IZMIN=  -17


 serial   3D FFT for wavefunctions
 parallel 3D FFT for charge:
    minimum data exchange during FFTs selected (reduces bandwidth)


 total amount of memory used by VASP MPI-rank0  8682063. kBytes
=======================================================================

   base      :      30000. kBytes
   nonlr-proj:      24451. kBytes
   fftplans  :      94700. kBytes
   grid      :     294156. kBytes
   one-center:       1119. kBytes
   wavefun   :    8237637. kBytes
 
     INWAV:  cpu time      0.0000: real time      0.0000
 Broyden mixing: mesh for mixing (old mesh)
   NGX = 33   NGY = 33   NGZ = 33
  (NGX  =140   NGY  =140   NGZ  =140)
  gives a total of  35937 points

 initial charge density was supplied:
 charge density of overlapping atoms calculated
 number of electron     252.0000000 magnetization      35.2000000
 keeping initial charge density in first step


--------------------------------------------------------------------------------------------------------


 Maximum index for non-local projection operator         10810
 Maximum index for augmentation-charges         31163 (set IRDMAX)


--------------------------------------------------------------------------------------------------------


 First call to EWALD:  gamma=   0.222
 Maximum number of real-space cells 3x 3x 3
 Maximum number of reciprocal cells 3x 3x 3

    FEWALD:  cpu time      0.0188: real time      0.0050


--------------------------------------- Iteration      1(   1)  ---------------------------------------


    POTLOK:  cpu time      0.0884: real time      0.0903
    SETDIJ:  cpu time      0.2585: real time      0.0701
    TRIAL :  cpu time     21.5325: real time     21.4650
    CORREC:  cpu time      0.0080: real time      0.0080
    --------------------------------------------
      LOOP:  cpu time     24.2835: real time     24.0396

 eigenvalue-minimisations  : 25752
 total energy-change (2. order) : 0.2725482E+04  (-0.1429868E+05)
 number of electron     252.0000000 magnetization      35.2000000
 augmentation part      252.0000000 magnetization      35.2000000

 Free energy of the ion-electron system (eV)
  ---------------------------------------------------
  alpha Z        PSCENC =       659.72581227
  Ewald energy   TEWEN  =    -12900.31771847
  -Hartree energ DENC   =     -8049.60881113
  -exchange      EXHF   =         0.00000000
  -V(xc)+E(xc)   XCENC  =      1113.63101722
  PAW double counting   =     17692.22845243   -17898.52868920
  entropy T*S    EENTRO =        -0.01440138
  eigenvalues    EBANDS =       -42.37370999
  atomic energy  EATOM  =     22150.74001668
  ---------------------------------------------------
  free energy    TOTEN  =      2725.48196844 eV

  energy without entropy =     2725.49636982  energy(sigma->0) =     2725.48916913


--------------------------------------------------------------------------------------------------------




--------------------------------------- Iteration      1(   2)  ---------------------------------------


    TRIAL :  cpu time     21.8824: real time     21.7303
    CORREC:  cpu time      0.0033: real time      0.0033
    --------------------------------------------
      LOOP:  cpu time     21.8858: real time     21.7338

 eigenvalue-minimisations  : 26816
 total energy-change (2. order) :-0.2700957E+04  (-0.2520736E+04)
 number of electron     252.0000000 magnetization      35.2000000
 augmentation part      252.0000000 magnetization      35.2000000

 Free energy of the ion-electron system (eV)
  ---------------------------------------------------
  alpha Z        PSCENC =       659.72581227
  Ewald energy   TEWEN  =    -12900.31771847
  -Hartree energ DENC   =     -8049.60881113
  -exchange      EXHF   =         0.00000000
  -V(xc)+E(xc)   XCENC  =      1113.63101722
  PAW double counting   =     17692.22845243   -17898.52868920
  entropy T*S    EENTRO =        -0.00000000
  eigenvalues    EBANDS =     -2743.34536021
  atomic energy  EATOM  =     22150.74001668
  ---------------------------------------------------
  free energy    TOTEN  =        24.52471961 eV

  energy without entropy =       24.52471961  energy(sigma->0) =       24.52471961


--------------------------------------------------------------------------------------------------------




--------------------------------------- Iteration      1(   3)  ---------------------------------------


    TRIAL :  cpu time     22.9571: real time     22.7929
    CORREC:  cpu time      0.0034: real time      0.0034
    --------------------------------------------
      LOOP:  cpu time     22.9606: real time     22.7968

 eigenvalue-minimisations  : 28120
 total energy-change (2. order) :-0.2910329E+03  (-0.2872910E+03)
 number of electron     252.0000000 magnetization      35.2000000
 augmentation part      252.0000000 magnetization      35.2000000

 Free energy of the ion-electron system (eV)
  ---------------------------------------------------
  alpha Z        PSCENC =       659.72581227
  Ewald energy   TEWEN  =    -12900.31771847
  -Hartree energ DENC   =     -8049.60881113
  -exchange      EXHF   =         0.00000000
  -V(xc)+E(xc)   XCENC  =      1113.63101722
  PAW double counting   =     17692.22845243   -17898.52868920
  entropy T*S    EENTRO =        -0.00000000
  eigenvalues    EBANDS =     -3034.37827877
  atomic energy  EATOM  =     22150.74001668
  ---------------------------------------------------
  free energy    TOTEN  =      -266.50819895 eV

  energy without entropy =     -266.50819895  energy(sigma->0) =     -266.50819895


--------------------------------------------------------------------------------------------------------




--------------------------------------- Iteration      1(   4)  ---------------------------------------


    TRIAL :  cpu time     25.4198: real time     25.0692
    CORREC:  cpu time      0.0053: real time      0.0053
    --------------------------------------------
      LOOP:  cpu time     25.4253: real time     25.0747

 eigenvalue-minimisations  : 32224
 total energy-change (2. order) :-0.9101410E+01  (-0.8992089E+01)
 number of electron     252.0000000 magnetization      35.2000000
 augmentation part      252.0000000 magnetization      35.2000000

 Free energy of the ion-electron system (eV)
  ---------------------------------------------------
  alpha Z        PSCENC =       659.72581227
  Ewald energy   TEWEN  =    -12900.31771847
  -Hartree energ DENC   =     -8049.60881113
  -exchange      EXHF   =         0.00000000
  -V(xc)+E(xc)   XCENC  =      1113.63101722
  PAW double counting   =     17692.22845243   -17898.52868920
  entropy T*S    EENTRO =        -0.00000007
  eigenvalues    EBANDS =     -3043.47968882
  atomic energy  EATOM  =     22150.74001668
  ---------------------------------------------------
  free energy    TOTEN  =      -275.60960908 eV

  energy without entropy =     -275.60960901  energy(sigma->0) =     -275.60960905


--------------------------------------------------------------------------------------------------------




--------------------------------------- Iteration      1(   5)  ---------------------------------------


    TRIAL :  cpu time     30.0549: real time     29.8497
    CORREC:  cpu time      0.0061: real time      0.0062
    CHARGE:  cpu time      2.1029: real time      2.0449
    --------------------------------------------
      LOOP:  cpu time     32.1641: real time     31.9009

 eigenvalue-minimisations  : 40072
 total energy-change (2. order) :-0.5460881E+00  (-0.5450593E+00)
 number of electron     252.0000010 magnetization      20.0000004
 augmentation part       48.7119950 magnetization      12.3005845

 Free energy of the ion-electron system (eV)
  ---------------------------------------------------
  alpha Z        PSCENC =       659.72581227
  Ewald energy   TEWEN  =    -12900.31771847
  -Hartree energ DENC   =     -8049.60881113
  -exchange      EXHF   =         0.00000000
  -V(xc)+E(xc)   XCENC  =      1113.63101722
  PAW double counting   =     17692.22845243   -17898.52868920
  entropy T*S    EENTRO =        -0.00000187
  eigenvalues    EBANDS =     -3044.02577510
  atomic energy  EATOM  =     22150.74001668
  ---------------------------------------------------
  free energy    TOTEN  =      -276.15569715 eV

  energy without entropy =     -276.15569528  energy(sigma->0) =     -276.15569622


--------------------------------------------------------------------------------------------------------




--------------------------------------- Iteration      1(   6)  ---------------------------------------


    POTLOK:  cpu time      0.0982: real time      0.0978
    SETDIJ:  cpu time      0.2660: real time      0.0721
    TRIAL :  cpu time     31.4534: real time     30.8824
    CORREC:  cpu time      6.8367: real time      6.5895
    CHARGE:  cpu time      2.0229: real time      1.9715
    --------------------------------------------
      LOOP:  cpu time     40.6774: real time     39.6140

 eigenvalue-minimisations  :     0
 total energy-change (2. order) : 0.1008736E+03  (-0.5656824E+02)
 number of electron     252.0000010 magnetization      20.0000004
 augmentation part       47.9419730 magnetization      13.2801670

 Free energy of the ion-electron system (eV)
  ---------------------------------------------------
  alpha Z        PSCENC =       659.72581227
  Ewald energy   TEWEN  =    -12900.31771847
  -Hartree energ DENC   =     -8675.42086774
  -exchange      EXHF   =         0.00000000
  -V(xc)+E(xc)   XCENC  =      1172.77923927
  PAW double counting   =     48982.42711070   -49219.40710704
  entropy T*S    EENTRO =        -0.00000000
  eigenvalues    EBANDS =     -2345.80862982
  atomic energy  EATOM  =     22150.74001668
  ---------------------------------------------------
  free energy    TOTEN  =      -175.28214602 eV

  energy without entropy =     -175.28214602  energy(sigma->0) =     -175.28214602


--------------------------------------------------------------------------------------------------------




--------------------------------------- Iteration      1(   7)  ---------------------------------------


    POTLOK:  cpu time      0.0761: real time      0.0756
    SETDIJ:  cpu time      0.2583: real time      0.0700
    TRIAL :  cpu time     30.8272: real time     30.2379
    CORREC:  cpu time      6.6452: real time      6.4028
    CHARGE:  cpu time      2.0130: real time      1.9622
    --------------------------------------------
      LOOP:  cpu time     39.8199: real time     38.7487

 eigenvalue-minimisations  :     0
 total energy-change (2. order) :-0.5632833E+02  (-0.7480109E+01)
 number of electron     252.0000010 magnetization      20.0000004
 augmentation part       46.4061086 magnetization      13.1665074

 Free energy of the ion-electron system (eV)
  ---------------------------------------------------
  alpha Z        PSCENC =       659.72581227
  Ewald energy   TEWEN  =    -12900.31771847
  -Hartree energ DENC   =     -8350.83338339
  -exchange      EXHF   =         0.00000000
  -V(xc)+E(xc)   XCENC  =      1145.13717968
  PAW double counting   =     46729.73927275   -46992.98406034
  entropy T*S    EENTRO =        -0.00000000
  eigenvalues    EBANDS =     -2672.81759745
  atomic energy  EATOM  =     22150.74001668
  ---------------------------------------------------
  free energy    TOTEN  =      -231.61047825 eV

  energy without entropy =     -231.61047825  energy(sigma->0) =     -231.61047825


--------------------------------------------------------------------------------------------------------




--------------------------------------- Iteration      1(   8)  ---------------------------------------


    POTLOK:  cpu time      0.0759: real time      0.0754
    SETDIJ:  cpu time      0.2558: real time      0.0699
    TRIAL :  cpu time     30.8783: real time     30.2820
    CORREC:  cpu time      6.9209: real time      6.6776
    CHARGE:  cpu time      2.0215: real time      1.9713
    --------------------------------------------
      LOOP:  cpu time     40.1528: real time     39.0768

 eigenvalue-minimisations  :     0
 total energy-change (2. order) :-0.7491576E+01  (-0.3086148E+01)
 number of electron     252.0000010 magnetization      20.0000004
 augmentation part       46.2303993 magnetization      13.1546039

 Free energy of the ion-electron system (eV)
  ---------------------------------------------------
  alpha Z        PSCENC =       659.72581227
  Ewald energy   TEWEN  =    -12900.31771847
  -Hartree energ DENC   =     -8226.53308249
  -exchange      EXHF   =         0.00000000
  -V(xc)+E(xc)   XCENC  =      1136.90386689
  PAW double counting   =     43903.46049818   -44147.01151094
  entropy T*S    EENTRO =        -0.00000000
  eigenvalues    EBANDS =     -2816.06993677
  atomic energy  EATOM  =     22150.74001668
  ---------------------------------------------------
  free energy    TOTEN  =      -239.10205465 eV

  energy without entropy =     -239.10205465  energy(sigma->0) =     -239.10205465


--------------------------------------------------------------------------------------------------------




--------------------------------------- Iteration      1(   9)  ---------------------------------------


    POTLOK:  cpu time      0.0759: real time      0.0755
    SETDIJ:  cpu time      0.2595: real time      0.0703
    TRIAL :  cpu time     30.6702: real time     30.0446
    CORREC:  cpu time      6.8677: real time      6.6255
    CHARGE:  cpu time      2.0154: real time      1.9648
    --------------------------------------------
      LOOP:  cpu time     39.8890: real time     38.7807

 eigenvalue-minimisations  :     0
 total energy-change (2. order) :-0.3088342E+01  (-0.1089735E+01)
 number of electron     252.0000010 magnetization      20.0000004
 augmentation part       46.3555511 magnetization      13.0985352

 Free energy of the ion-electron system (eV)
  ---------------------------------------------------
  alpha Z        PSCENC =       659.72581227
  Ewald energy   TEWEN  =    -12900.31771847
  -Hartree energ DENC   =     -8296.40517134
  -exchange      EXHF   =         0.00000000
  -V(xc)+E(xc)   XCENC  =      1139.89124067
  PAW double counting   =     41668.94271368   -41911.94140324
  entropy T*S    EENTRO =        -0.00000000
  eigenvalues    EBANDS =     -2752.82588642
  atomic energy  EATOM  =     22150.74001668
  ---------------------------------------------------
  free energy    TOTEN  =      -242.19039617 eV

  energy without entropy =     -242.19039617  energy(sigma->0) =     -242.19039617


--------------------------------------------------------------------------------------------------------




--------------------------------------- Iteration      1(  10)  ---------------------------------------


    POTLOK:  cpu time      0.0761: real time      0.0756
    SETDIJ:  cpu time      0.2599: real time      0.0705
    TRIAL :  cpu time     30.9570: real time     30.3632
    CORREC:  cpu time      6.6583: real time      6.4157
    CHARGE:  cpu time      2.0236: real time      1.9729
    --------------------------------------------
      LOOP:  cpu time     39.9753: real time     38.8987

 eigenvalue-minimisations  :     0
 total energy-change (2. order) :-0.1090294E+01  (-0.4939260E+00)
 number of electron     252.0000010 magnetization      20.0000004
 augmentation part       46.2834857 magnetization      13.0028860

 Free energy of the ion-electron system (eV)
  ---------------------------------------------------
  alpha Z        PSCENC =       659.72581227
  Ewald energy   TEWEN  =    -12900.31771847
  -Hartree energ DENC   =     -8320.72250482
  -exchange      EXHF   =         0.00000000
  -V(xc)+E(xc)   XCENC  =      1140.74020899
  PAW double counting   =     40957.94571616   -41202.70846891
  entropy T*S    EENTRO =        -0.00000000
  eigenvalues    EBANDS =     -2728.68375239
  atomic energy  EATOM  =     22150.74001668
  ---------------------------------------------------
  free energy    TOTEN  =      -243.28069049 eV

  energy without entropy =     -243.28069049  energy(sigma->0) =     -243.28069049


--------------------------------------------------------------------------------------------------------




--------------------------------------- Iteration      1(  11)  ---------------------------------------


    POTLOK:  cpu time      0.0758: real time      0.0753
    SETDIJ:  cpu time      0.2598: real time      0.0706
    TRIAL :  cpu time     30.9706: real time     30.3775
    CORREC:  cpu time      6.8772: real time      6.6323
    CHARGE:  cpu time      2.0358: real time      1.9851
    --------------------------------------------
      LOOP:  cpu time     40.2194: real time     39.1411

 eigenvalue-minimisations  :     0
 total energy-change (2. order) :-0.4937908E+00  (-0.1770220E+00)
 number of electron     252.0000010 magnetization      20.0000004
 augmentation part       46.2553681 magnetization      12.9702968

 Free energy of the ion-electron system (eV)
  ---------------------------------------------------
  alpha Z        PSCENC =       659.72581227
  Ewald energy   TEWEN  =    -12900.31771847
  -Hartree energ DENC   =     -8293.91206088
  -exchange      EXHF   =         0.00000000
  -V(xc)+E(xc)   XCENC  =      1139.02782149
  PAW double counting   =     40714.69553271   -40957.48596476
  entropy T*S    EENTRO =        -0.00000000
  eigenvalues    EBANDS =     -2756.24792030
  atomic energy  EATOM  =     22150.74001668
  ---------------------------------------------------
  free energy    TOTEN  =      -243.77448125 eV

  energy without entropy =     -243.77448125  energy(sigma->0) =     -243.77448125


--------------------------------------------------------------------------------------------------------




--------------------------------------- Iteration      1(  12)  ---------------------------------------


    POTLOK:  cpu time      0.0759: real time      0.0754
    SETDIJ:  cpu time      0.2583: real time      0.0701
    TRIAL :  cpu time     30.5061: real time     29.9131
    CORREC:  cpu time      6.8658: real time      6.6237
    CHARGE:  cpu time      1.9962: real time      1.9457
    --------------------------------------------
      LOOP:  cpu time     39.7025: real time     38.6288

 eigenvalue-minimisations  :     0
 total energy-change (2. order) :-0.1769857E+00  (-0.5820419E-01)
 number of electron     252.0000010 magnetization      20.0000004
 augmentation part       46.3006873 magnetization      12.9805097

 Free energy of the ion-electron system (eV)
  ---------------------------------------------------
  alpha Z        PSCENC =       659.72581227
  Ewald energy   TEWEN  =    -12900.31771847
  -Hartree energ DENC   =     -8286.70490598
  -exchange      EXHF   =         0.00000000
  -V(xc)+E(xc)   XCENC  =      1138.49641215
  PAW double counting   =     40674.63125788   -40916.67611178
  entropy T*S    EENTRO =        -0.00000000
  eigenvalues    EBANDS =     -2763.84622975
  atomic energy  EATOM  =     22150.74001668
  ---------------------------------------------------
  free energy    TOTEN  =      -243.95146699 eV

  energy without entropy =     -243.95146699  energy(sigma->0) =     -243.95146699


--------------------------------------------------------------------------------------------------------




--------------------------------------- Iteration      1(  13)  ---------------------------------------


    POTLOK:  cpu time      0.0758: real time      0.0753
    SETDIJ:  cpu time      0.2607: real time      0.0706
    TRIAL :  cpu time     30.8675: real time     30.2809
    CORREC:  cpu time      6.6771: real time      6.4261
    CHARGE:  cpu time      2.0367: real time      1.9818
    --------------------------------------------
      LOOP:  cpu time     39.9181: real time     38.8349

 eigenvalue-minimisations  :     0
 total energy-change (2. order) :-0.5819957E-01  (-0.1868800E-01)
 number of electron     252.0000010 magnetization      20.0000004
 augmentation part       46.3020448 magnetization      12.9710822

 Free energy of the ion-electron system (eV)
  ---------------------------------------------------
  alpha Z        PSCENC =       659.72581227
  Ewald energy   TEWEN  =    -12900.31771847
  -Hartree energ DENC   =     -8295.64744573
  -exchange      EXHF   =         0.00000000
  -V(xc)+E(xc)   XCENC  =      1138.91595443
  PAW double counting   =     40758.71121796   -41001.32211614
  entropy T*S    EENTRO =        -0.00000000
  eigenvalues    EBANDS =     -2754.81538757
  atomic energy  EATOM  =     22150.74001668
  ---------------------------------------------------
  free energy    TOTEN  =      -244.00966656 eV

  energy without entropy =     -244.00966656  energy(sigma->0) =     -244.00966656


--------------------------------------------------------------------------------------------------------




--------------------------------------- Iteration      1(  14)  ---------------------------------------


    POTLOK:  cpu time      0.0780: real time      0.0776
    SETDIJ:  cpu time      0.2644: real time      0.0716
    TRIAL :  cpu time     30.8868: real time     30.2851
    CORREC:  cpu time      6.8952: real time      6.6535
    CHARGE:  cpu time      2.0137: real time      1.9636
    --------------------------------------------
      LOOP:  cpu time     40.1383: real time     39.0521

 eigenvalue-minimisations  :     0
 total energy-change (2. order) :-0.1869166E-01  (-0.6933094E-02)
 number of electron     252.0000010 magnetization      20.0000004
 augmentation part       46.2917715 magnetization      12.9619756

 Free energy of the ion-electron system (eV)
  ---------------------------------------------------
  alpha Z        PSCENC =       659.72581227
  Ewald energy   TEWEN  =    -12900.31771847
  -Hartree energ DENC   =     -8295.52942403
  -exchange      EXHF   =         0.00000000
  -V(xc)+E(xc)   XCENC  =      1138.91615635
  PAW double counting   =     40891.30213714   -41133.76633327
  entropy T*S    EENTRO =        -0.00000000
  eigenvalues    EBANDS =     -2755.09900488
  atomic energy  EATOM  =     22150.74001668
  ---------------------------------------------------
  free energy    TOTEN  =      -244.02835822 eV

  energy without entropy =     -244.02835822  energy(sigma->0) =     -244.02835822


--------------------------------------------------------------------------------------------------------




--------------------------------------- Iteration      1(  15)  ---------------------------------------


    POTLOK:  cpu time      0.0760: real time      0.0755
    SETDIJ:  cpu time      0.2591: real time      0.0702
    TRIAL :  cpu time     30.6097: real time     30.0070
    CORREC:  cpu time      6.8788: real time      6.6307
    CHARGE:  cpu time      2.0423: real time      1.9874
    --------------------------------------------
      LOOP:  cpu time     39.8662: real time     38.7709

 eigenvalue-minimisations  :     0
 total energy-change (2. order) :-0.6937058E-02  (-0.3012424E-02)
 number of electron     252.0000010 magnetization      20.0000004
 augmentation part       46.2899327 magnetization      12.9595294

 Free energy of the ion-electron system (eV)
  ---------------------------------------------------
  alpha Z        PSCENC =       659.72581227
  Ewald energy   TEWEN  =    -12900.31771847
  -Hartree energ DENC   =     -8292.92938005
  -exchange      EXHF   =         0.00000000
  -V(xc)+E(xc)   XCENC  =      1138.76993595
  PAW double counting   =     40997.02599004   -41239.31740918
  entropy T*S    EENTRO =        -0.00000000
  eigenvalues    EBANDS =     -2757.73254252
  atomic energy  EATOM  =     22150.74001668
  ---------------------------------------------------
  free energy    TOTEN  =      -244.03529528 eV

  energy without entropy =     -244.03529528  energy(sigma->0) =     -244.03529528


--------------------------------------------------------------------------------------------------------




--------------------------------------- Iteration      1(  16)  ---------------------------------------


    POTLOK:  cpu time      0.0759: real time      0.0755
    SETDIJ:  cpu time      0.2637: real time      0.0713
    TRIAL :  cpu time     30.9307: real time     30.3343
    CORREC:  cpu time      6.6526: real time      6.4125
    CHARGE:  cpu time      2.0149: real time      1.9624
    --------------------------------------------
      LOOP:  cpu time     39.9381: real time     38.8568

 eigenvalue-minimisations  :     0
 total energy-change (2. order) :-0.3008908E-02  (-0.1485383E-02)
 number of electron     252.0000010 magnetization      20.0000004
 augmentation part       46.2864443 magnetization      12.9570658

 Free energy of the ion-electron system (eV)
  ---------------------------------------------------
  alpha Z        PSCENC =       659.72581227
  Ewald energy   TEWEN  =    -12900.31771847
  -Hartree energ DENC   =     -8293.35433373
  -exchange      EXHF   =         0.00000000
  -V(xc)+E(xc)   XCENC  =      1138.79100054
  PAW double counting   =     41053.90989245   -41296.19010419
  entropy T*S    EENTRO =        -0.00000000
  eigenvalues    EBANDS =     -2757.34286975
  atomic energy  EATOM  =     22150.74001668
  ---------------------------------------------------
  free energy    TOTEN  =      -244.03830418 eV

  energy without entropy =     -244.03830418  energy(sigma->0) =     -244.03830418


--------------------------------------------------------------------------------------------------------




--------------------------------------- Iteration      1(  17)  ---------------------------------------


    POTLOK:  cpu time      0.0776: real time      0.0772
    SETDIJ:  cpu time      0.2555: real time      0.0695
    TRIAL :  cpu time     30.8318: real time     30.2458
    CORREC:  cpu time      6.8276: real time      6.5863
    CHARGE:  cpu time      2.0269: real time      1.9724
    --------------------------------------------
      LOOP:  cpu time     40.0197: real time     38.9513

 eigenvalue-minimisations  :     0
 total energy-change (2. order) :-0.1480879E-02  (-0.7432402E-03)
 number of electron     252.0000010 magnetization      20.0000004
 augmentation part       46.2826125 magnetization      12.9563908

 Free energy of the ion-electron system (eV)
  ---------------------------------------------------
  alpha Z        PSCENC =       659.72581227
  Ewald energy   TEWEN  =    -12900.31771847
  -Hartree energ DENC   =     -8293.96690331
  -exchange      EXHF   =         0.00000000
  -V(xc)+E(xc)   XCENC  =      1138.83725353
  PAW double counting   =     41071.70130774   -41313.90785104
  entropy T*S    EENTRO =        -0.00000000
  eigenvalues    EBANDS =     -2756.85170247
  atomic energy  EATOM  =     22150.74001668
  ---------------------------------------------------
  free energy    TOTEN  =      -244.03978506 eV

  energy without entropy =     -244.03978506  energy(sigma->0) =     -244.03978506


--------------------------------------------------------------------------------------------------------




--------------------------------------- Iteration      1(  18)  ---------------------------------------


    POTLOK:  cpu time      0.0759: real time      0.0757
    SETDIJ:  cpu time      0.2617: real time      0.0710
    TRIAL :  cpu time     30.6972: real time     30.0963
    CORREC:  cpu time      6.9156: real time      6.6702
    CHARGE:  cpu time      2.0217: real time      1.9705
    --------------------------------------------
      LOOP:  cpu time     39.9724: real time     38.8844

 eigenvalue-minimisations  :     0
 total energy-change (2. order) :-0.7402495E-03  (-0.3385634E-03)
 number of electron     252.0000010 magnetization      20.0000004
 augmentation part       46.2813332 magnetization      12.9565302

 Free energy of the ion-electron system (eV)
  ---------------------------------------------------
  alpha Z        PSCENC =       659.72581227
  Ewald energy   TEWEN  =    -12900.31771847
  -Hartree energ DENC   =     -8293.60097386
  -exchange      EXHF   =         0.00000000
  -V(xc)+E(xc)   XCENC  =      1138.81952765
  PAW double counting   =     41069.58546299   -41311.75879596
  entropy T*S    EENTRO =        -0.00000000
  eigenvalues    EBANDS =     -2757.23385662
  atomic energy  EATOM  =     22150.74001668
  ---------------------------------------------------
  free energy    TOTEN  =      -244.04052531 eV

  energy without entropy =     -244.04052531  energy(sigma->0) =     -244.04052531


--------------------------------------------------------------------------------------------------------




--------------------------------------- Iteration      1(  19)  ---------------------------------------


    POTLOK:  cpu time      0.0760: real time      0.0755
    SETDIJ:  cpu time      0.2587: real time      0.0702
[...]
 -0.000  -0.000  -0.000  -0.000  -0.000  -0.000   0.000  -0.000   0.000   0.000   0.000   0.000   0.000  -0.000  -0.000  -0.000
 -0.000  -0.000  -0.000  -0.000  -0.000  -0.000  -0.000   0.000  -0.000   0.000   0.000  -0.000  -0.000   0.000  -0.000  -0.000
 -0.000  -0.000  -0.000  -0.000  -0.000  -0.000   0.000  -0.000   0.001   0.000  -0.000   0.000  -0.000  -0.000  -0.000   0.000
 -0.000  -0.001  -0.000  -0.000  -0.000  -0.000   0.000   0.000   0.000   0.001   0.000  -0.000  -0.000  -0.000  -0.000  -0.000
 -0.000  -0.001  -0.000  -0.000  -0.000   0.000   0.000   0.000  -0.000   0.000   0.001  -0.000   0.000   0.000  -0.000  -0.000
 -0.000  -0.001  -0.000  -0.000  -0.000   0.000   0.000  -0.000   0.000  -0.000  -0.000   0.001   0.000  -0.000  -0.000  -0.000
 -0.000  -0.000   0.000  -0.000  -0.000  -0.000   0.000  -0.000  -0.000  -0.000   0.000   0.000   0.001   0.000   0.000  -0.000
  0.000   0.000   0.000   0.000   0.000   0.000  -0.000   0.000  -0.000  -0.000   0.000  -0.000   0.000   0.000   0.000   0.000
  0.000   0.000   0.000   0.000   0.000   0.000  -0.000  -0.000  -0.000  -0.000  -0.000  -0.000   0.000   0.000   0.000   0.000
  0.000   0.000   0.000   0.000   0.000  -0.000  -0.000  -0.000   0.000  -0.000  -0.000  -0.000  -0.000   0.000   0.000   0.000
  0.000   0.000   0.000   0.000   0.000  -0.000  -0.000  -0.000  -0.000  -0.000  -0.000  -0.000  -0.000   0.000   0.000   0.000
  0.000   0.000   0.000   0.000   0.000   0.000  -0.000   0.000   0.000   0.000  -0.000  -0.000  -0.000  -0.000  -0.000   0.000


------------------------ aborting loop because EDIFF is reached ----------------------------------------





 total charge

# of ion       s       p       d       tot
------------------------------------------
    1        2.016   5.859   0.182   8.057
    2        2.016   5.859   0.182   8.057
    3        0.160   6.145   4.931  11.235
    4        0.160   6.145   4.931  11.235
    5        0.160   6.145   4.931  11.235
    6        0.160   6.145   4.931  11.235
    7        1.223   2.258   0.000   3.481
    8        1.223   2.258   0.000   3.481
    9        1.223   2.258   0.000   3.481
   10        1.223   2.258   0.000   3.481
   11        1.223   2.258   0.000   3.481
   12        1.223   2.258   0.000   3.481
   13        1.572   3.587   0.000   5.159
   14        1.572   3.587   0.000   5.159
   15        1.572   3.587   0.000   5.159
   16        1.572   3.587   0.000   5.159
   17        1.572   3.587   0.000   5.159
   18        1.572   3.587   0.000   5.159
   19        1.572   3.588   0.000   5.160
   20        1.572   3.588   0.000   5.160
   21        1.572   3.588   0.000   5.160
   22        1.572   3.588   0.000   5.160
   23        1.572   3.588   0.000   5.160
   24        1.572   3.588   0.000   5.160
   25        1.575   3.597   0.000   5.171
   26        1.575   3.597   0.000   5.171
   27        1.575   3.597   0.000   5.171
   28        1.575   3.597   0.000   5.171
   29        1.575   3.597   0.000   5.171
   30        1.575   3.597   0.000   5.171
   31        1.575   3.596   0.000   5.171
   32        1.575   3.596   0.000   5.171
   33        1.575   3.596   0.000   5.171
   34        1.575   3.596   0.000   5.171
   35        1.575   3.596   0.000   5.171
   36        1.575   3.596   0.000   5.171
--------------------------------------------------
tot         49.770 136.051  20.088 205.909



 magnetization (x)

# of ion       s       p       d       tot
------------------------------------------
    1        0.000   0.000   0.002   0.003
    2        0.000   0.000   0.002   0.003
    3        0.019   0.020   4.495   4.534
    4        0.019   0.020   4.495   4.534
    5        0.019   0.020   4.495   4.534
    6        0.019   0.020   4.495   4.534
    7        0.007   0.016   0.000   0.023
    8        0.007   0.016   0.000   0.023
    9        0.007   0.016   0.000   0.023
   10        0.007   0.016   0.000   0.023
   11        0.007   0.016   0.000   0.023
   12        0.007   0.016   0.000   0.023
   13        0.005   0.021   0.000   0.026
   14        0.005   0.021   0.000   0.026
   15        0.005   0.021   0.000   0.026
   16        0.005   0.021   0.000   0.026
   17        0.005   0.021   0.000   0.026
   18        0.005   0.021   0.000   0.026
   19        0.005   0.021   0.000   0.026
   20        0.005   0.021   0.000   0.026
   21        0.005   0.021   0.000   0.026
   22        0.005   0.021   0.000   0.026
   23        0.005   0.021   0.000   0.026
   24        0.005   0.021   0.000   0.026
   25        0.006   0.023   0.000   0.029
   26        0.006   0.023   0.000   0.029
   27        0.006   0.023   0.000   0.029
   28        0.006   0.023   0.000   0.029
   29        0.006   0.023   0.000   0.029
   30        0.006   0.023   0.000   0.029
   31        0.006   0.023   0.000   0.029
   32        0.006   0.023   0.000   0.029
   33        0.006   0.023   0.000   0.029
   34        0.006   0.023   0.000   0.029
   35        0.006   0.023   0.000   0.029
   36        0.006   0.023   0.000   0.029
--------------------------------------------------
tot          0.256   0.709  17.983  18.949
 
    FORLOC:  cpu time      0.0195: real time      0.0194
    FORNL :  cpu time      9.2810: real time      8.6538
    STRESS:  cpu time     27.9730: real time     26.0309
    FORCOR:  cpu time      0.0738: real time      0.0705
    OFIELD:  cpu time      0.0214: real time      0.0214

  FORCE on cell =-STRESS in cart. coord.  units (eV):
  Direction    XX          YY          ZZ          XY          YZ          ZX
  --------------------------------------------------------------------------------------
  Alpha Z   659.72581   659.72581   659.72581
  Ewald   -4448.13185 -4601.63002 -3850.61698   220.07810   376.61339   530.18287
  Hartree  2677.08190  2586.32709  3030.34225   130.11702   222.66478   313.46246
  E(xc)   -1269.72337 -1269.86801 -1269.16025     0.20739     0.35490     0.49962
  Local   -2200.03663 -1959.92319 -3134.69488  -344.25955  -589.12071  -829.34638
  n-local  -442.88267  -443.51857  -440.40459     0.91268     1.56141     2.19845
  augment   514.28284   514.51983   513.36017    -0.33983    -0.58152    -0.81865
  Kinetic  4509.78987  4514.46871  4491.57230    -6.70903   -11.48111   -16.16289
  Fock        0.00000     0.00000     0.00000     0.00000     0.00000     0.00000
  -------------------------------------------------------------------------------------
  Total       0.10591     0.10166     0.12383     0.00678     0.01113     0.01548
  in kB       0.33358     0.32021     0.39003     0.02136     0.03507     0.04876
  external pressure =        0.35 kB  Pullay stress =        0.00 kB


 VOLUME and BASIS-vectors are now :
 -----------------------------------------------------------------------------
  energy-cutoff  :      520.00
  volume of cell :      508.68
      direct lattice vectors                 reciprocal lattice vectors
     7.807381999  0.099380933  4.559914656     0.129545519 -0.046101379 -0.001497781
     2.664559797  7.339303837  4.559911790    -0.000875442  0.137501154 -0.001497853
     0.139886418  0.099371003  9.040383716    -0.064900406 -0.046101448  0.112125753

  length of vectors
     9.042008180  9.042016106  9.042011974     0.137512261  0.137512099  0.137512147


 FORCES acting on ions:
    Electron-Ion                     Ewald-Force                    Non-Local-Force
 -----------------------------------------------------------------------------------------------
   -.261E+00 -.187E+00 -.457E+00   0.256E+00 0.183E+00 0.448E+00   0.623E-02 0.448E-02 0.108E-01
   -.262E+00 -.187E+00 -.451E+00   0.257E+00 0.183E+00 0.442E+00   0.625E-02 0.437E-02 0.107E-01
   -.181E+02 -.128E+02 -.310E+02   0.187E+02 0.133E+02 0.320E+02   -.627E+00 -.446E+00 -.107E+01
   -.181E+02 -.129E+02 -.310E+02   0.187E+02 0.133E+02 0.320E+02   -.627E+00 -.445E+00 -.107E+01
   0.194E+02 0.138E+02 0.332E+02   -.200E+02 -.142E+02 -.342E+02   0.599E+00 0.425E+00 0.102E+01
   0.194E+02 0.138E+02 0.332E+02   -.200E+02 -.142E+02 -.342E+02   0.599E+00 0.426E+00 0.102E+01
   0.500E+01 -.169E+00 -.286E+01   -.290E+01 0.161E+00 0.164E+01   -.216E+01 0.531E-02 0.126E+01
   0.345E+01 -.462E+01 -.102E+00   -.204E+01 0.264E+01 0.985E-01   -.145E+01 0.203E+01 0.308E-02
   -.323E+01 0.478E+01 -.107E+00   0.182E+01 -.279E+01 0.103E+00   0.144E+01 -.204E+01 0.419E-02
   0.149E+01 0.478E+01 -.285E+01   -.805E+00 -.279E+01 0.163E+01   -.705E+00 -.204E+01 0.126E+01
   -.179E+01 -.462E+01 0.295E+01   0.109E+01 0.264E+01 -.172E+01   0.714E+00 0.203E+01 -.126E+01
   -.495E+01 -.163E+00 0.296E+01   0.285E+01 0.156E+00 -.173E+01   0.215E+01 0.447E-02 -.126E+01
   -.215E+02 0.110E+02 0.972E+02   0.522E+02 -.774E+01 -.119E+03   -.307E+02 -.324E+01 0.223E+02
   0.473E+01 0.863E+02 0.506E+02   0.131E+02 -.120E+03 -.500E+02   -.179E+02 0.336E+02 -.550E+00
   0.830E+02 -.239E+02 0.505E+02   -.109E+03 0.519E+02 -.500E+02   0.259E+02 -.279E+02 -.551E+00
   0.328E+01 -.239E+02 0.972E+02   0.988E+01 0.519E+02 -.119E+03   -.132E+02 -.279E+02 0.223E+02
   0.417E+02 0.863E+02 0.289E+02   -.500E+02 -.120E+03 -.131E+02   0.828E+01 0.336E+02 -.158E+02
   0.952E+02 0.110E+02 0.289E+02   -.130E+03 -.774E+01 -.131E+02   0.345E+02 -.324E+01 -.158E+02
   -.948E+02 -.107E+02 -.290E+02   0.129E+03 0.742E+01 0.130E+02   -.344E+02 0.330E+01 0.159E+02
   -.828E+02 0.236E+02 -.502E+02   0.109E+03 -.516E+02 0.495E+02   -.258E+02 0.280E+02 0.657E+00
   -.495E+01 -.859E+02 -.502E+02   -.130E+02 0.120E+03 0.495E+02   0.179E+02 -.336E+02 0.656E+00
   -.413E+02 -.859E+02 -.290E+02   0.495E+02 0.120E+03 0.130E+02   -.821E+01 -.336E+02 0.159E+02
   -.309E+01 0.236E+02 -.968E+02   -.101E+02 -.516E+02 0.119E+03   0.132E+02 0.280E+02 -.222E+02
   0.213E+02 -.107E+02 -.968E+02   -.521E+02 0.740E+01 0.119E+03   0.308E+02 0.330E+01 -.222E+02
   0.713E+02 0.200E+02 0.829E+02   -.730E+02 -.336E+02 -.122E+03   0.177E+01 0.136E+02 0.393E+02
   0.742E+02 0.285E+02 0.776E+02   -.807E+02 -.556E+02 -.109E+03   0.645E+01 0.271E+02 0.310E+02
   0.514E+02 0.607E+02 0.776E+02   -.791E+02 -.579E+02 -.109E+03   0.277E+02 -.282E+01 0.310E+02
   0.424E+02 0.607E+02 0.829E+02   -.558E+02 -.579E+02 -.122E+03   0.134E+02 -.282E+01 0.393E+02
   0.312E+02 0.285E+02 0.103E+03   -.550E+02 -.556E+02 -.124E+03   0.239E+02 0.271E+02 0.208E+02
   0.372E+02 0.200E+02 0.103E+03   -.706E+02 -.336E+02 -.124E+03   0.334E+02 0.136E+02 0.208E+02
   -.371E+02 -.201E+02 -.104E+03   0.704E+02 0.337E+02 0.125E+03   -.333E+02 -.136E+02 -.211E+02
   -.516E+02 -.617E+02 -.782E+02   0.793E+02 0.591E+02 0.109E+03   -.276E+02 0.255E+01 -.311E+02
   -.752E+02 -.284E+02 -.782E+02   0.819E+02 0.554E+02 0.109E+03   -.670E+01 -.269E+02 -.311E+02
   -.312E+02 -.284E+02 -.104E+03   0.550E+02 0.554E+02 0.125E+03   -.238E+02 -.269E+02 -.211E+02
   -.428E+02 -.617E+02 -.834E+02   0.563E+02 0.591E+02 0.123E+03   -.136E+02 0.255E+01 -.394E+02
   -.723E+02 -.201E+02 -.834E+02   0.744E+02 0.337E+02 0.123E+03   -.206E+01 -.136E+02 -.394E+02
 -----------------------------------------------------------------------------------------------
   0.190E+00 0.135E+00 0.326E+00   0.156E-12 0.568E-13 0.242E-12   -.200E+00 -.141E+00 -.344E+00
 
 
 POSITION                                       TOTAL-FORCE (eV/Angst)
 -----------------------------------------------------------------------------------
      5.27935      3.75015      9.03464         0.001255      0.000820      0.002122
     10.58526      7.51919     18.11474         0.001192      0.000849      0.002032
      6.88909      4.89363     11.78941        -0.009979     -0.007188     -0.017094
      1.58317      1.12461      2.70930        -0.010032     -0.007141     -0.017206
      8.97547      6.37568     15.35989         0.009908      0.007043      0.017066
      3.66956      2.60665      6.27978         0.009900      0.007003      0.016993
      8.11896      1.96505     10.40935         0.008737     -0.002031      0.000699
      3.71574      0.48288      9.01589         0.008065     -0.003084     -0.000387
      6.84544      7.01920      9.05560         0.000205      0.009151      0.000846
      7.03025      3.34956      5.88918         0.000191      0.008557     -0.000856
      3.52914      4.15253     12.18338        -0.003406     -0.003134      0.008252
      2.44166      5.53534      7.66319        -0.004825     -0.003056      0.006968
      4.76062      4.27752     11.33053         0.006959     -0.012736      0.001698
      7.76010      2.03599      5.92654         0.012283      0.002502     -0.007539
      7.11896      3.08671     10.44674         0.006460      0.010541     -0.007661
      2.96514      6.65700      6.81034        -0.009636      0.011256      0.001568
      6.51976      5.70563      9.70979        -0.012663      0.002394      0.006897
      2.36817      0.60787      9.67007        -0.001912     -0.012778      0.007055
      8.19148      6.89237      8.39866         0.000612      0.014750     -0.002247
      3.44049      4.41277      7.62244        -0.006957     -0.006826      0.011319
      2.79803      5.46528     12.14266        -0.008856     -0.004118      0.011159
      4.03917      1.79562      8.35894         0.014012     -0.004177     -0.002031
      7.59313      0.84247     11.25952         0.013017     -0.007073     -0.000446
      5.79714      3.22264      6.73935        -0.002436      0.014702     -0.000314
      8.24783      1.53585      9.00586        -0.001948     -0.002453     -0.008256
      6.28466      6.74922     12.57069        -0.002826     -0.004672     -0.006112
      5.80083      7.28219      8.05049        -0.005713     -0.001113     -0.006568
      6.80729      3.71195     13.52606        -0.002735     -0.001216     -0.007569
      2.70043      3.07958     11.60663        -0.004338     -0.005033     -0.005741
      8.96304      5.20549     11.64634        -0.005343     -0.002136     -0.005351
      1.59490      2.29547      6.43254         0.003975      0.000003     -0.002635
      4.75964      0.22614     10.02384         0.003240     -0.004153      0.000548
      4.28218      0.75013      5.50365        -0.002802      0.003826     -0.000016
      7.85862      4.41979      6.47228         0.001921      0.004397     -0.002203
      3.75492      3.79640      4.54728        -0.001425     -0.003866      0.002168
      2.31961      5.96513      9.06746        -0.004104      0.000192      0.002841
 -----------------------------------------------------------------------------------
    total drift:                               -0.010210     -0.006522     -0.017963


--------------------------------------------------------------------------------------------------------



  FREE ENERGIE OF THE ION-ELECTRON SYSTEM (eV)
  ---------------------------------------------------
  free  energy   TOTEN  =      -244.04108727 eV

  energy  without entropy=     -244.04108727  energy(sigma->0) =     -244.04108727
 


--------------------------------------------------------------------------------------------------------


    POTLOK:  cpu time      0.3914: real time      0.2014


--------------------------------------------------------------------------------------------------------




--------------------------------------------------------------------------------------------------------


  
 reached required accuracy - stopping structural energy minimisation
     LOOP+:  cpu time    890.7859: real time    867.5915
    4ORBIT:  cpu time      0.0018: real time      0.0018



 total charge

# of ion       s       p       d       tot
------------------------------------------
    1        2.016   5.859   0.182   8.057
    2        2.016   5.859   0.182   8.057
    3        0.160   6.145   4.931  11.235
    4        0.160   6.145   4.931  11.235
    5        0.160   6.145   4.931  11.235
    6        0.160   6.145   4.931  11.235
    7        1.223   2.258   0.000   3.481
    8        1.223   2.258   0.000   3.481
    9        1.223   2.258   0.000   3.481
   10        1.223   2.258   0.000   3.481
   11        1.223   2.258   0.000   3.481
   12        1.223   2.258   0.000   3.481
   13        1.572   3.587   0.000   5.159
   14        1.572   3.587   0.000   5.159
   15        1.572   3.587   0.000   5.159
   16        1.572   3.587   0.000   5.159
   17        1.572   3.587   0.000   5.159
   18        1.572   3.587   0.000   5.159
   19        1.572   3.588   0.000   5.160
   20        1.572   3.588   0.000   5.160
   21        1.572   3.588   0.000   5.160
   22        1.572   3.588   0.000   5.160
   23        1.572   3.588   0.000   5.160
   24        1.572   3.588   0.000   5.160
   25        1.575   3.597   0.000   5.171
   26        1.575   3.597   0.000   5.171
   27        1.575   3.597   0.000   5.171
   28        1.575   3.597   0.000   5.171
   29        1.575   3.597   0.000   5.171
   30        1.575   3.597   0.000   5.171
   31        1.575   3.596   0.000   5.171
   32        1.575   3.596   0.000   5.171
   33        1.575   3.596   0.000   5.171
   34        1.575   3.596   0.000   5.171
   35        1.575   3.596   0.000   5.171
   36        1.575   3.596   0.000   5.171
--------------------------------------------------
tot         49.770 136.051  20.088 205.909



 magnetization (x)

# of ion       s       p       d       tot
------------------------------------------
    1        0.000   0.000   0.002   0.003
    2        0.000   0.000   0.002   0.003
    3        0.019   0.020   4.495   4.534
    4        0.019   0.020   4.495   4.534
    5        0.019   0.020   4.495   4.534
    6        0.019   0.020   4.495   4.534
    7        0.007   0.016   0.000   0.023
    8        0.007   0.016   0.000   0.023
    9        0.007   0.016   0.000   0.023
   10        0.007   0.016   0.000   0.023
   11        0.007   0.016   0.000   0.023
   12        0.007   0.016   0.000   0.023
   13        0.005   0.021   0.000   0.026
   14        0.005   0.021   0.000   0.026
   15        0.005   0.021   0.000   0.026
   16        0.005   0.021   0.000   0.026
   17        0.005   0.021   0.000   0.026
   18        0.005   0.021   0.000   0.026
   19        0.005   0.021   0.000   0.026
   20        0.005   0.021   0.000   0.026
   21        0.005   0.021   0.000   0.026
   22        0.005   0.021   0.000   0.026
   23        0.005   0.021   0.000   0.026
   24        0.005   0.021   0.000   0.026
   25        0.006   0.023   0.000   0.029
   26        0.006   0.023   0.000   0.029
   27        0.006   0.023   0.000   0.029
   28        0.006   0.023   0.000   0.029
   29        0.006   0.023   0.000   0.029
   30        0.006   0.023   0.000   0.029
   31        0.006   0.023   0.000   0.029
   32        0.006   0.023   0.000   0.029
   33        0.006   0.023   0.000   0.029
   34        0.006   0.023   0.000   0.029
   35        0.006   0.023   0.000   0.029
   36        0.006   0.023   0.000   0.029
--------------------------------------------------
tot          0.256   0.709  17.983  18.949
 

 total amount of memory used by VASP MPI-rank0  8682063. kBytes
=======================================================================

   base      :      30000. kBytes
   nonlr-proj:      24451. kBytes
   fftplans  :      94700. kBytes
   grid      :     294156. kBytes
   one-center:       1119. kBytes
   wavefun   :    8237637. kBytes
 
  
  
 General timing and accounting informations for this job:
 ========================================================
  
                  Total CPU time used (sec):      921.309
                            User time (sec):      734.184
                          System time (sec):      187.126
                         Elapsed time (sec):      896.262
  
                   Maximum memory used (kb):    10579684.
                   Average memory used (kb):          N/A
  
                          Minor page faults:     30614452
                          Major page faults:         2737
                 Voluntary context switches:      1709779
