       N       E                     dE             d eps       ncg     rms          rms(c)
DAV:   1     0.272001388406E+04    0.27200E+04   -0.13273E+05 25848   0.149E+03
DAV:   2     0.232024411431E+02   -0.26968E+04   -0.25169E+04 27130   0.411E+02
DAV:   3    -0.266430916064E+03   -0.28963E+03   -0.28588E+03 28306   0.150E+02
DAV:   4    -0.275401389463E+03   -0.89705E+01   -0.88607E+01 32344   0.260E+01
DAV:   5    -0.275955390517E+03   -0.55400E+00   -0.55296E+00 39960   0.493E+00    0.114E+02
DAV:   6    -0.240721014622E+03    0.35234E+02   -0.16808E+02 28118   0.349E+01    0.647E+01
DAV:   7    -0.243129157615E+03   -0.24081E+01   -0.19409E+01 27344   0.119E+01    0.223E+01
DAV:   8    -0.243582889822E+03   -0.45373E+00   -0.12908E+00 28424   0.373E+00    0.876E+00
DAV:   9    -0.243720673206E+03   -0.13778E+00   -0.16925E-01 33352   0.151E+00    0.277E+00
DAV:  10    -0.243731124489E+03   -0.10451E-01   -0.41917E-02 29136   0.652E-01    0.123E+00
DAV:  11    -0.243738209210E+03   -0.70847E-02   -0.13087E-02 28424   0.414E-01    0.434E-01
DAV:  12    -0.243739230304E+03   -0.10211E-02   -0.12348E-03 29992   0.124E-01    0.131E-01
DAV:  13    -0.243739475920E+03   -0.24562E-03   -0.35907E-04 29200   0.536E-02    0.577E-02
DAV:  14    -0.243739598663E+03   -0.12274E-03   -0.57307E-05 25912   0.242E-02    0.274E-02
DAV:  15    -0.243739641919E+03   -0.43255E-04   -0.34677E-05 21728   0.192E-02    0.195E-02
DAV:  16    -0.243739645695E+03   -0.37768E-05   -0.57054E-06 19176   0.781E-03
   1 F= -.24373965E+03 E0= -.24373965E+03  d E =-.243740E+03  mag=    19.9988
       N       E                     dE             d eps       ncg     rms          rms(c)
DAV:   1    -0.243741327286E+03   -0.16854E-02   -0.12971E-03 28168   0.143E-01    0.347E-02
DAV:   2    -0.243741333735E+03   -0.64490E-05   -0.86389E-05 28592   0.291E-02    0.163E-02
DAV:   3    -0.243741333271E+03    0.46408E-06   -0.44998E-06 16816   0.792E-03    0.936E-03
DAV:   4    -0.243741333128E+03    0.14305E-06   -0.13707E-06 15992   0.425E-03
   2 F= -.24374133E+03 E0= -.24374133E+03  d E =-.168743E-02  mag=    20.0000
       N       E                     dE             d eps       ncg     rms          rms(c)
DAV:   1    -0.243779144104E+03   -0.37811E-01   -0.15753E+00 26098   0.498E+00    0.119E+00
DAV:   2    -0.243787435188E+03   -0.82911E-02   -0.10614E-01 28856   0.101E+00    0.572E-01
DAV:   3    -0.243786911746E+03    0.52344E-03   -0.58482E-03 30568   0.263E-01    0.323E-01
DAV:   4    -0.243786727487E+03    0.18426E-03   -0.11216E-03 31128   0.117E-01    0.186E-01
DAV:   5    -0.243786687118E+03    0.40369E-04   -0.14569E-04 30040   0.531E-02    0.594E-02
DAV:   6    -0.243786682552E+03    0.45662E-05   -0.10118E-04 29680   0.370E-02    0.282E-02
DAV:   7    -0.243786682321E+03    0.23082E-06   -0.14473E-05 20048   0.139E-02
   3 F= -.24378668E+03 E0= -.24378668E+03  d E =-.453492E-01  mag=    20.0000
       N       E                     dE             d eps       ncg     rms          rms(c)
DAV:   1    -0.243804586080E+03   -0.17904E-01   -0.47189E+00 25978   0.944E+00    0.139E+00
DAV:   2    -0.243834460292E+03   -0.29874E-01   -0.34313E-01 27736   0.177E+00    0.767E-01
DAV:   3    -0.243834610895E+03   -0.15060E-03   -0.16086E-02 31120   0.410E-01    0.415E-01
DAV:   4    -0.243834231218E+03    0.37968E-03   -0.35819E-03 31600   0.200E-01    0.201E-01
DAV:   5    -0.243834181567E+03    0.49651E-04   -0.36421E-04 31608   0.823E-02    0.809E-02
DAV:   6    -0.243834173353E+03    0.82136E-05   -0.25872E-04 30352   0.545E-02    0.361E-02
DAV:   7    -0.243834173152E+03    0.20162E-06   -0.28582E-05 23360   0.171E-02
   4 F= -.24383417E+03 E0= -.24383417E+03  d E =-.474908E-01  mag=    20.0000
       N       E                     dE             d eps       ncg     rms          rms(c)
DAV:   1    -0.243835833376E+03   -0.16600E-02   -0.47679E+00 25940   0.965E+00    0.124E+00
DAV:   2    -0.243869466738E+03   -0.33633E-01   -0.35623E-01 26888   0.177E+00    0.477E-01
DAV:   3    -0.243869947957E+03   -0.48122E-03   -0.12715E-02 32768   0.353E-01    0.257E-01
DAV:   4    -0.243869594718E+03    0.35324E-03   -0.17911E-03 32304   0.151E-01    0.155E-01
DAV:   5    -0.243869533482E+03    0.61236E-04   -0.29828E-04 31776   0.719E-02    0.531E-02
DAV:   6    -0.243869527913E+03    0.55689E-05   -0.11857E-04 30600   0.402E-02    0.270E-02
DAV:   7    -0.243869529321E+03   -0.14086E-05   -0.18086E-05 20408   0.128E-02
   5 F= -.24386953E+03 E0= -.24386953E+03  d E =-.353562E-01  mag=    20.0000
       N       E                     dE             d eps       ncg     rms          rms(c)
DAV:   1    -0.243824132679E+03    0.45395E-01   -0.10783E+01 26368   0.148E+01    0.155E+00
DAV:   2    -0.243902708426E+03   -0.78576E-01   -0.82039E-01 26126   0.269E+00    0.752E-01
DAV:   3    -0.243904412938E+03   -0.17045E-02   -0.26109E-02 32184   0.507E-01    0.390E-01
DAV:   4    -0.243903693739E+03    0.71920E-03   -0.38360E-03 31200   0.221E-01    0.220E-01
DAV:   5    -0.243903569385E+03    0.12435E-03   -0.54076E-04 32312   0.100E-01    0.800E-02
DAV:   6    -0.243903566858E+03    0.25265E-05   -0.27646E-04 30824   0.591E-02    0.363E-02
DAV:   7    -0.243903569279E+03   -0.24205E-05   -0.29479E-05 23192   0.185E-02
   6 F= -.24390357E+03 E0= -.24390357E+03  d E =-.340400E-01  mag=    20.0000
       N       E                     dE             d eps       ncg     rms          rms(c)
DAV:   1    -0.243722654105E+03    0.18091E+00   -0.30137E+01 25632   0.236E+01    0.260E+00
DAV:   2    -0.243930289279E+03   -0.20764E+00   -0.21440E+00 26254   0.436E+00    0.115E+00
DAV:   3    -0.243933108372E+03   -0.28191E-02   -0.59562E-02 33424   0.775E-01    0.607E-01
DAV:   4    -0.243930989309E+03    0.21191E-02   -0.70220E-03 31836   0.320E-01    0.370E-01
DAV:   5    -0.243930432565E+03    0.55674E-03   -0.16351E-03 31376   0.179E-01    0.119E-01
DAV:   6    -0.243930433660E+03   -0.10947E-05   -0.59456E-04 30980   0.894E-02    0.517E-02
DAV:   7    -0.243930436974E+03   -0.33148E-05   -0.80939E-05 29072   0.298E-02
   7 F= -.24393044E+03 E0= -.24393044E+03  d E =-.268677E-01  mag=    20.0000
       N       E                     dE             d eps       ncg     rms          rms(c)
DAV:   1    -0.243928927822E+03    0.15058E-02   -0.13382E+00 25978   0.515E+00    0.909E-01
DAV:   2    -0.243938808632E+03   -0.98808E-02   -0.10576E-01 27800   0.975E-01    0.382E-01
DAV:   3    -0.243938825894E+03   -0.17262E-04   -0.43364E-03 30140   0.220E-01    0.212E-01
DAV:   4    -0.243938709027E+03    0.11687E-03   -0.57110E-04 31496   0.894E-02    0.130E-01
DAV:   5    -0.243938676925E+03    0.32102E-04   -0.10072E-04 30926   0.447E-02    0.433E-02
DAV:   6    -0.243938677037E+03   -0.11242E-06   -0.52074E-05 27480   0.277E-02
   8 F= -.24393868E+03 E0= -.24393868E+03  d E =-.824006E-02  mag=    20.0000
       N       E                     dE             d eps       ncg     rms          rms(c)
DAV:   1    -0.243941905645E+03   -0.32287E-02   -0.45878E-01 25678   0.286E+00    0.557E-01
DAV:   2    -0.243944957273E+03   -0.30516E-02   -0.30954E-02 27928   0.526E-01    0.175E-01
DAV:   3    -0.243944916203E+03    0.41070E-04   -0.10581E-03 30116   0.113E-01    0.811E-02
DAV:   4    -0.243944888231E+03    0.27972E-04   -0.15373E-04 31184   0.472E-02    0.477E-02
DAV:   5    -0.243944881567E+03    0.66638E-05   -0.28180E-05 23364   0.213E-02
   9 F= -.24394488E+03 E0= -.24394488E+03  d E =-.620453E-02  mag=    20.0000
       N       E                     dE             d eps       ncg     rms          rms(c)
DAV:   1    -0.243932090537E+03    0.12798E-01   -0.34219E+00 25632   0.783E+00    0.864E-01
DAV:   2    -0.243953683398E+03   -0.21593E-01   -0.21389E-01 26936   0.139E+00    0.348E-01
DAV:   3    -0.243954111838E+03   -0.42844E-03   -0.63992E-03 29928   0.252E-01    0.168E-01
DAV:   4    -0.243953938902E+03    0.17294E-03   -0.75374E-04 31976   0.101E-01    0.101E-01
DAV:   5    -0.243953901386E+03    0.37516E-04   -0.13964E-04 30624   0.528E-02    0.393E-02
DAV:   6    -0.243953904028E+03   -0.26413E-05   -0.49245E-05 28144   0.242E-02
  10 F= -.24395390E+03 E0= -.24395390E+03  d E =-.902246E-02  mag=    20.0000
       N       E                     dE             d eps       ncg     rms          rms(c)
DAV:   1    -0.243845828233E+03    0.10807E+00   -0.20574E+01 25632   0.188E+01    0.171E+00
DAV:   2    -0.243969433536E+03   -0.12361E+00   -0.12314E+00 25788   0.332E+00    0.817E-01
DAV:   3    -0.243972007970E+03   -0.25744E-02   -0.34893E-02 30216   0.581E-01    0.418E-01
DAV:   4    -0.243970960449E+03    0.10475E-02   -0.40618E-03 32456   0.230E-01    0.264E-01
DAV:   5    -0.243970638231E+03    0.32222E-03   -0.79992E-04 30176   0.133E-01    0.969E-02
DAV:   6    -0.243970655822E+03   -0.17592E-04   -0.34919E-04 30240   0.637E-02    0.382E-02
DAV:   7    -0.243970659487E+03   -0.36643E-05   -0.25639E-05 22704   0.193E-02
  11 F= -.24397066E+03 E0= -.24397066E+03  d E =-.167555E-01  mag=    20.0000
       N       E                     dE             d eps       ncg     rms          rms(c)
DAV:   1    -0.243778713073E+03    0.19194E+00   -0.20401E+01 26216   0.184E+01    0.408E+00
DAV:   2    -0.243906526018E+03   -0.12781E+00   -0.13541E+00 28592   0.347E+00    0.150E+00
DAV:   3    -0.243901997669E+03    0.45283E-02   -0.48417E-02 29864   0.768E-01    0.855E-01
DAV:   4    -0.243900190403E+03    0.18073E-02   -0.62702E-03 31088   0.300E-01    0.460E-01
DAV:   5    -0.243899465556E+03    0.72485E-03   -0.16987E-03 30384   0.179E-01    0.148E-01
DAV:   6    -0.243899480492E+03   -0.14936E-04   -0.85923E-04 30552   0.106E-01    0.856E-02
DAV:   7    -0.243899479071E+03    0.14208E-05   -0.12441E-04 29448   0.387E-02    0.405E-02
DAV:   8    -0.243899475322E+03    0.37490E-05   -0.25056E-05 23216   0.184E-02
  12 F= -.24389948E+03 E0= -.24389948E+03  d E =0.711842E-01  mag=    20.0000
       N       E                     dE             d eps       ncg     rms          rms(c)
DAV:   1    -0.243966406328E+03   -0.66927E-01   -0.21167E+00 26392   0.402E+00    0.191E+00
DAV:   2    -0.243974381034E+03   -0.79747E-02   -0.11444E-01 30864   0.977E-01    0.718E-01
DAV:   3    -0.243972279505E+03    0.21015E-02   -0.46769E-03 29360   0.231E-01    0.360E-01
DAV:   4    -0.243971914516E+03    0.36499E-03   -0.86427E-04 29832   0.924E-02    0.188E-01
DAV:   5    -0.243971773540E+03    0.14098E-03   -0.26170E-04 30952   0.820E-02    0.511E-02
DAV:   6    -0.243971781387E+03   -0.78462E-05   -0.14818E-04 29312   0.370E-02    0.298E-02
DAV:   7    -0.243971780784E+03    0.60258E-06   -0.12544E-05 18000   0.110E-02
  13 F= -.24397178E+03 E0= -.24397178E+03  d E =-.723055E-01  mag=    20.0000
       N       E                     dE             d eps       ncg     rms          rms(c)
DAV:   1    -0.243983586810E+03   -0.11805E-01   -0.85643E-01 26570   0.259E+00    0.117E+00
DAV:   2    -0.243986834353E+03   -0.32475E-02   -0.44870E-02 30680   0.613E-01    0.427E-01
DAV:   3    -0.243986032364E+03    0.80199E-03   -0.19426E-03 29320   0.153E-01    0.214E-01
DAV:   4    -0.243985917914E+03    0.11445E-03   -0.34475E-04 30224   0.584E-02    0.102E-01
DAV:   5    -0.243985866739E+03    0.51175E-04   -0.91197E-05 30000   0.463E-02    0.321E-02
DAV:   6    -0.243985867851E+03   -0.11126E-05   -0.54294E-05 28048   0.234E-02
  14 F= -.24398587E+03 E0= -.24398587E+03  d E =-.140871E-01  mag=    20.0000
       N       E                     dE             d eps       ncg     rms          rms(c)
DAV:   1    -0.243986828048E+03   -0.96131E-03   -0.74412E-02 25940   0.888E-01    0.291E-01
DAV:   2    -0.243987130302E+03   -0.30225E-03   -0.34681E-03 29704   0.169E-01    0.875E-02
DAV:   3    -0.243987098513E+03    0.31790E-04   -0.15891E-04 30566   0.461E-02    0.440E-02
DAV:   4    -0.243987094126E+03    0.43868E-05   -0.27997E-05 24216   0.188E-02
  15 F= -.24398709E+03 E0= -.24398709E+03  d E =-.122627E-02  mag=    20.0000
       N       E                     dE             d eps       ncg     rms          rms(c)
DAV:   1    -0.243988062855E+03   -0.96434E-03   -0.55714E-02 25710   0.890E-01    0.207E-01
DAV:   2    -0.243988329569E+03   -0.26671E-03   -0.29227E-03 29112   0.162E-01    0.723E-02
DAV:   3    -0.243988321395E+03    0.81743E-05   -0.14181E-04 30396   0.415E-02    0.370E-02
DAV:   4    -0.243988319123E+03    0.22718E-05   -0.21809E-05 23136   0.175E-02
  16 F= -.24398832E+03 E0= -.24398832E+03  d E =-.122500E-02  mag=    20.0000
       N       E                     dE             d eps       ncg     rms          rms(c)
DAV:   1    -0.243989079095E+03   -0.75770E-03   -0.43694E-02 25816   0.856E-01    0.146E-01
DAV:   2    -0.243989333684E+03   -0.25459E-03   -0.27077E-03 28560   0.154E-01    0.571E-02
DAV:   3    -0.243989335466E+03   -0.17829E-05   -0.11516E-04 29908   0.352E-02    0.297E-02
DAV:   4    -0.243989332895E+03    0.25710E-05   -0.15208E-05 19696   0.153E-02
  17 F= -.24398933E+03 E0= -.24398933E+03  d E =-.101377E-02  mag=    20.0000
       N       E                     dE             d eps       ncg     rms          rms(c)
DAV:   1    -0.243990144945E+03   -0.80948E-03   -0.13854E-01 25648   0.157E+00    0.189E-01
DAV:   2    -0.243991018227E+03   -0.87328E-03   -0.88624E-03 27576   0.276E-01    0.790E-02
DAV:   3    -0.243991040648E+03   -0.22421E-04   -0.32736E-04 29812   0.561E-02    0.404E-02
DAV:   4    -0.243991033104E+03    0.75440E-05   -0.37307E-05 27128   0.224E-02
  18 F= -.24399103E+03 E0= -.24399103E+03  d E =-.170021E-02  mag=    20.0000
       N       E                     dE             d eps       ncg     rms          rms(c)
DAV:   1    -0.243989375024E+03    0.16656E-02   -0.80015E-01 25632   0.388E+00    0.392E-01
DAV:   2    -0.243994913967E+03   -0.55389E-02   -0.54913E-02 27056   0.685E-01    0.178E-01
DAV:   3    -0.243995076769E+03   -0.16280E-03   -0.17786E-03 29280   0.128E-01    0.883E-02
DAV:   4    -0.243995035203E+03    0.41566E-04   -0.18444E-04 32480   0.482E-02    0.566E-02
DAV:   5    -0.243995021404E+03    0.13799E-04   -0.41622E-05 27664   0.309E-02    0.202E-02
DAV:   6    -0.243995021764E+03   -0.36057E-06   -0.13843E-05 17648   0.144E-02
  19 F= -.24399502E+03 E0= -.24399502E+03  d E =-.398866E-02  mag=    20.0000
       N       E                     dE             d eps       ncg     rms          rms(c)
DAV:   1    -0.243934769951E+03    0.60251E-01   -0.91439E+00 25656   0.135E+01    0.137E+00
DAV:   2    -0.244005595944E+03   -0.70826E-01   -0.68937E-01 26150   0.240E+00    0.625E-01
DAV:   3    -0.244007612636E+03   -0.20167E-02   -0.19436E-02 29448   0.419E-01    0.298E-01
DAV:   4    -0.244007167625E+03    0.44501E-03   -0.18170E-03 32110   0.152E-01    0.195E-01
DAV:   5    -0.244006976413E+03    0.19121E-03   -0.44294E-04 30104   0.108E-01    0.692E-02
DAV:   6    -0.244006989945E+03   -0.13533E-04   -0.18611E-04 30104   0.460E-02    0.257E-02
DAV:   7    -0.244006991307E+03   -0.13613E-05   -0.16625E-05 20496   0.152E-02
  20 F= -.24400699E+03 E0= -.24400699E+03  d E =-.119695E-01  mag=    20.0000
       N       E                     dE             d eps       ncg     rms          rms(c)
DAV:   1    -0.243270745765E+03    0.73624E+00   -0.91588E+01 25640   0.429E+01    0.436E+00
DAV:   2    -0.244011704550E+03   -0.74096E+00   -0.72091E+00 26162   0.772E+00    0.221E+00
DAV:   3    -0.244031228970E+03   -0.19524E-01   -0.18260E-01 29744   0.132E+00    0.101E+00
DAV:   4    -0.244026782293E+03    0.44467E-02   -0.17076E-02 32294   0.456E-01    0.689E-01
DAV:   5    -0.244024584714E+03    0.21976E-02   -0.37728E-03 30128   0.319E-01    0.271E-01
DAV:   6    -0.244024673441E+03   -0.88727E-04   -0.20089E-03 31334   0.152E-01    0.813E-02
DAV:   7    -0.244024695569E+03   -0.22128E-04   -0.20452E-04 29160   0.496E-02    0.407E-02
DAV:   8    -0.244024690708E+03    0.48606E-05   -0.28760E-05 25792   0.258E-02
  21 F= -.24402469E+03 E0= -.24402469E+03  d E =-.176994E-01  mag=    20.0000
       N       E                     dE             d eps       ncg     rms          rms(c)
DAV:   1    -0.243709303185E+03    0.31539E+00   -0.45494E+01 25632   0.284E+01    0.318E+00
DAV:   2    -0.244009443676E+03   -0.30014E+00   -0.29531E+00 26154   0.507E+00    0.138E+00
DAV:   3    -0.244016340262E+03   -0.68966E-02   -0.88538E-02 29808   0.921E-01    0.657E-01
DAV:   4    -0.244014117465E+03    0.22228E-02   -0.88512E-03 32152   0.340E-01    0.409E-01
DAV:   5    -0.244013321191E+03    0.79627E-03   -0.17927E-03 30032   0.208E-01    0.153E-01
DAV:   6    -0.244013373040E+03   -0.51849E-04   -0.84563E-04 29920   0.100E-01    0.613E-02
DAV:   7    -0.244013381159E+03   -0.81185E-05   -0.70040E-05 28408   0.312E-02
  22 F= -.24401338E+03 E0= -.24401338E+03  d E =0.113095E-01  mag=    20.0000
       N       E                     dE             d eps       ncg     rms          rms(c)
DAV:   1    -0.243659402084E+03    0.35397E+00   -0.48396E+01 25632   0.304E+01    0.323E+00
DAV:   2    -0.244025301577E+03   -0.36590E+00   -0.35933E+00 26034   0.550E+00    0.151E+00
DAV:   3    -0.244033351883E+03   -0.80503E-02   -0.93745E-02 29608   0.966E-01    0.745E-01
DAV:   4    -0.244030777499E+03    0.25744E-02   -0.98753E-03 31936   0.355E-01    0.489E-01
DAV:   5    -0.244029736108E+03    0.10414E-02   -0.19263E-03 30056   0.220E-01    0.195E-01
DAV:   6    -0.244029772822E+03   -0.36714E-04   -0.10436E-03 30768   0.111E-01    0.636E-02
DAV:   7    -0.244029784326E+03   -0.11504E-04   -0.95606E-05 28816   0.357E-02    0.325E-02
DAV:   8    -0.244029781046E+03    0.32798E-05   -0.16512E-05 19032   0.207E-02
  23 F= -.24402978E+03 E0= -.24402978E+03  d E =-.163999E-01  mag=    20.0000
       N       E                     dE             d eps       ncg     rms          rms(c)
DAV:   1    -0.244014963239E+03    0.14821E-01   -0.24198E+00 25632   0.659E+00    0.642E-01
DAV:   2    -0.244031324049E+03   -0.16361E-01   -0.16036E-01 26108   0.117E+00    0.309E-01
DAV:   3    -0.244031751170E+03   -0.42712E-03   -0.46060E-03 29912   0.205E-01    0.159E-01
DAV:   4    -0.244031625757E+03    0.12541E-03   -0.47845E-04 31544   0.816E-02    0.994E-02
DAV:   5    -0.244031591805E+03    0.33952E-04   -0.10471E-04 29656   0.518E-02    0.358E-02
DAV:   6    -0.244031595876E+03   -0.40714E-05   -0.44261E-05 27792   0.219E-02
  24 F= -.24403160E+03 E0= -.24403160E+03  d E =-.181483E-02  mag=    20.0000
       N       E                     dE             d eps       ncg     rms          rms(c)
DAV:   1    -0.243944227254E+03    0.87365E-01   -0.13441E+01 25632   0.153E+01    0.144E+00
DAV:   2    -0.244031627510E+03   -0.87400E-01   -0.85544E-01 25856   0.270E+00    0.689E-01
DAV:   3    -0.244033919114E+03   -0.22916E-02   -0.24144E-02 29744   0.466E-01    0.340E-01
DAV:   4    -0.244033316709E+03    0.60240E-03   -0.23248E-03 31816   0.173E-01    0.224E-01
DAV:   5    -0.244033090806E+03    0.22590E-03   -0.55710E-04 30120   0.123E-01    0.817E-02
DAV:   6    -0.244033115129E+03   -0.24324E-04   -0.24962E-04 29968   0.509E-02    0.306E-02
DAV:   7    -0.244033117764E+03   -0.26346E-05   -0.15683E-05 20192   0.140E-02
  25 F= -.24403312E+03 E0= -.24403312E+03  d E =-.152189E-02  mag=    20.0000
       N       E                     dE             d eps       ncg     rms          rms(c)
DAV:   1    -0.243826480877E+03    0.20663E+00   -0.38702E+01 25656   0.239E+01    0.250E+00
DAV:   2    -0.244026925472E+03   -0.20044E+00   -0.19758E+00 28072   0.408E+00    0.115E+00
DAV:   3    -0.244029891022E+03   -0.29656E-02   -0.51757E-02 29672   0.709E-01    0.579E-01
DAV:   4    -0.244028063786E+03    0.18272E-02   -0.63549E-03 31208   0.305E-01    0.349E-01
DAV:   5    -0.244027728757E+03    0.33503E-03   -0.16292E-03 29864   0.180E-01    0.120E-01
DAV:   6    -0.244027773876E+03   -0.45119E-04   -0.58369E-04 29440   0.840E-02    0.603E-02
DAV:   7    -0.244027781136E+03   -0.72597E-05   -0.57254E-05 28056   0.264E-02
  26 F= -.24402778E+03 E0= -.24402778E+03  d E =0.533663E-02  mag=    20.0000
       N       E                     dE             d eps       ncg     rms          rms(c)
DAV:   1    -0.243951549204E+03    0.76225E-01   -0.14595E+01 25616   0.152E+01    0.160E+00
DAV:   2    -0.244035010580E+03   -0.83461E-01   -0.82708E-01 27570   0.267E+00    0.750E-01
DAV:   3    -0.244036304408E+03   -0.12938E-02   -0.22259E-02 29832   0.471E-01    0.422E-01
DAV:   4    -0.244035501582E+03    0.80283E-03   -0.26584E-03 31352   0.196E-01    0.268E-01
DAV:   5    -0.244035322047E+03    0.17953E-03   -0.72740E-04 29976   0.128E-01    0.847E-02
DAV:   6    -0.244035343657E+03   -0.21610E-04   -0.30271E-04 29472   0.616E-02    0.412E-02
DAV:   7    -0.244035344622E+03   -0.96494E-06   -0.29318E-05 23936   0.200E-02
  27 F= -.24403534E+03 E0= -.24403534E+03  d E =-.756349E-02  mag=    20.0000
       N       E                     dE             d eps       ncg     rms          rms(c)
DAV:   1    -0.244030792507E+03    0.45512E-02   -0.86647E-01 25634   0.384E+00    0.583E-01
DAV:   2    -0.244036090691E+03   -0.52982E-02   -0.54457E-02 28424   0.701E-01    0.267E-01
DAV:   3    -0.244036126932E+03   -0.36241E-04   -0.18495E-03 30280   0.145E-01    0.151E-01
DAV:   4    -0.244036085742E+03    0.41190E-04   -0.26296E-04 32112   0.590E-02    0.942E-02
DAV:   5    -0.244036080963E+03    0.47795E-05   -0.44199E-05 28856   0.308E-02
  28 F= -.24403608E+03 E0= -.24403608E+03  d E =-.736340E-03  mag=    20.0000
       N       E                     dE             d eps       ncg     rms          rms(c)
DAV:   1    -0.244034524293E+03    0.15614E-02   -0.45918E-01 25648   0.256E+00    0.286E-01
DAV:   2    -0.244036745004E+03   -0.22207E-02   -0.22147E-02 28358   0.438E-01    0.129E-01
DAV:   3    -0.244036767579E+03   -0.22575E-04   -0.65499E-04 29870   0.810E-02    0.705E-02
DAV:   4    -0.244036744170E+03    0.23410E-04   -0.87037E-05 30520   0.346E-02    0.438E-02
DAV:   5    -0.244036739655E+03    0.45149E-05   -0.19243E-05 20808   0.198E-02
  29 F= -.24403674E+03 E0= -.24403674E+03  d E =-.658692E-03  mag=    20.0000
       N       E                     dE             d eps       ncg     rms          rms(c)
DAV:   1    -0.244034366275E+03    0.23779E-02   -0.51123E-01 25632   0.299E+00    0.297E-01
DAV:   2    -0.244037801156E+03   -0.34349E-02   -0.33608E-02 25816   0.527E-01    0.141E-01
DAV:   3    -0.244037896893E+03   -0.95737E-04   -0.10368E-03 29872   0.958E-02    0.716E-02
DAV:   4    -0.244037872620E+03    0.24273E-04   -0.11102E-04 31528   0.368E-02    0.465E-02
DAV:   5    -0.244037863163E+03    0.94571E-05   -0.19009E-05 19272   0.226E-02
  30 F= -.24403786E+03 E0= -.24403786E+03  d E =-.112351E-02  mag=    20.0000
       N       E                     dE             d eps       ncg     rms          rms(c)
DAV:   1    -0.243455763363E+03    0.58211E+00   -0.82389E+01 25632   0.380E+01    0.391E+00
DAV:   2    -0.244028477470E+03   -0.57271E+00   -0.55743E+00 26570   0.667E+00    0.194E+00
DAV:   3    -0.244039601172E+03   -0.11124E-01   -0.12600E-01 29488   0.115E+00    0.921E-01
DAV:   4    -0.244035478956E+03    0.41222E-02   -0.14745E-02 31712   0.434E-01    0.615E-01
DAV:   5    -0.244033838707E+03    0.16402E-02   -0.32081E-03 30072   0.269E-01    0.249E-01
DAV:   6    -0.244033866094E+03   -0.27387E-04   -0.16637E-03 30712   0.141E-01    0.781E-02
DAV:   7    -0.244033893605E+03   -0.27511E-04   -0.17942E-04 28960   0.450E-02    0.354E-02
DAV:   8    -0.244033891279E+03    0.23261E-05   -0.32277E-05 25624   0.235E-02
  31 F= -.24403389E+03 E0= -.24403389E+03  d E =0.397188E-02  mag=    20.0000
       N       E                     dE             d eps       ncg     rms          rms(c)
DAV:   1    -0.243997410512E+03    0.36483E-01   -0.74877E+00 25632   0.112E+01    0.124E+00
DAV:   2    -0.244042668224E+03   -0.45258E-01   -0.46042E-01 25778   0.202E+00    0.548E-01
DAV:   3    -0.244043402263E+03   -0.73404E-03   -0.13134E-02 29832   0.369E-01    0.280E-01
DAV:   4    -0.244043014510E+03    0.38775E-03   -0.19126E-03 31004   0.159E-01    0.166E-01
DAV:   5    -0.244042920733E+03    0.93777E-04   -0.25014E-04 29680   0.747E-02    0.689E-02
DAV:   6    -0.244042921620E+03   -0.88760E-06   -0.15227E-04 30604   0.454E-02    0.280E-02
DAV:   7    -0.244042923066E+03   -0.14461E-05   -0.16169E-05 20648   0.157E-02
  32 F= -.24404292E+03 E0= -.24404292E+03  d E =-.903179E-02  mag=    20.0000
       N       E                     dE             d eps       ncg     rms          rms(c)
DAV:   1    -0.244001126106E+03    0.41796E-01   -0.67377E+00 25640   0.109E+01    0.117E+00
DAV:   2    -0.244046210155E+03   -0.45084E-01   -0.44059E-01 26040   0.192E+00    0.519E-01
DAV:   3    -0.244047381231E+03   -0.11711E-02   -0.13870E-02 29952   0.355E-01    0.257E-01
DAV:   4    -0.244047044529E+03    0.33670E-03   -0.14784E-03 31488   0.137E-01    0.161E-01
DAV:   5    -0.244046933646E+03    0.11088E-03   -0.25498E-04 30280   0.761E-02    0.621E-02
DAV:   6    -0.244046937305E+03   -0.36591E-05   -0.12939E-04 29904   0.402E-02    0.236E-02
DAV:   7    -0.244046939180E+03   -0.18753E-05   -0.11593E-05 18528   0.131E-02
  33 F= -.24404694E+03 E0= -.24404694E+03  d E =-.401611E-02  mag=    20.0000
       N       E                     dE             d eps       ncg     rms          rms(c)
DAV:   1    -0.244040948848E+03    0.59885E-02   -0.11126E+00 25688   0.421E+00    0.453E-01
DAV:   2    -0.244047743246E+03   -0.67944E-02   -0.66552E-02 27644   0.725E-01    0.203E-01
DAV:   3    -0.244047902534E+03   -0.15929E-03   -0.21123E-03 29480   0.138E-01    0.101E-01
DAV:   4    -0.244047842971E+03    0.59563E-04   -0.28067E-04 31318   0.602E-02    0.622E-02
DAV:   5    -0.244047830736E+03    0.12235E-04   -0.42653E-05 27096   0.300E-02    0.252E-02
DAV:   6    -0.244047831323E+03   -0.58756E-06   -0.18875E-05 17886   0.159E-02
  34 F= -.24404783E+03 E0= -.24404783E+03  d E =-.892143E-03  mag=    20.0000
       N       E                     dE             d eps       ncg     rms          rms(c)
DAV:   1    -0.244044365493E+03    0.34652E-02   -0.78833E-01 25680   0.357E+00    0.357E-01
DAV:   2    -0.244049067914E+03   -0.47024E-02   -0.46224E-02 27522   0.619E-01    0.166E-01
DAV:   3    -0.244049187620E+03   -0.11971E-03   -0.14356E-03 29512   0.116E-01    0.844E-02
DAV:   4    -0.244049152515E+03    0.35104E-04   -0.18846E-04 31184   0.483E-02    0.535E-02
DAV:   5    -0.244049144253E+03    0.82625E-05   -0.23727E-05 20600   0.240E-02
  35 F= -.24404914E+03 E0= -.24404914E+03  d E =-.131293E-02  mag=    20.0000
       N       E                     dE             d eps       ncg     rms          rms(c)
DAV:   1    -0.244048350241E+03    0.80227E-03   -0.62059E-01 25632   0.330E+00    0.321E-01
DAV:   2    -0.244052141466E+03   -0.37912E-02   -0.39045E-02 25614   0.597E-01    0.157E-01
DAV:   3    -0.244052210190E+03   -0.68724E-04   -0.10742E-03 29848   0.106E-01    0.867E-02
DAV:   4    -0.244052181396E+03    0.28794E-04   -0.14702E-04 31416   0.450E-02    0.540E-02
DAV:   5    -0.244052174676E+03    0.67198E-05   -0.23499E-05 21808   0.233E-02
  36 F= -.24405217E+03 E0= -.24405217E+03  d E =-.303042E-02  mag=    20.0000
       N       E                     dE             d eps       ncg     rms          rms(c)
DAV:   1    -0.244009683374E+03    0.42498E-01   -0.66493E+00 25824   0.114E+01    0.114E+00
DAV:   2    -0.244058878912E+03   -0.49196E-01   -0.50315E-01 25336   0.210E+00    0.552E-01
DAV:   3    -0.244060005345E+03   -0.11264E-02   -0.13915E-02 30216   0.374E-01    0.292E-01
DAV:   4    -0.244059678482E+03    0.32686E-03   -0.17998E-03 32206   0.154E-01    0.179E-01
DAV:   5    -0.244059597164E+03    0.81318E-04   -0.26067E-04 30712   0.758E-02    0.645E-02
DAV:   6    -0.244059600719E+03   -0.35549E-05   -0.13178E-04 31200   0.422E-02    0.234E-02
DAV:   7    -0.244059602492E+03   -0.17728E-05   -0.13976E-05 20904   0.139E-02
  37 F= -.24405960E+03 E0= -.24405960E+03  d E =-.742782E-02  mag=    20.0000
       N       E                     dE             d eps       ncg     rms          rms(c)
DAV:   1    -0.243926367003E+03    0.13323E+00   -0.21106E+01 25632   0.194E+01    0.193E+00
DAV:   2    -0.244060030055E+03   -0.13366E+00   -0.13483E+00 25696   0.346E+00    0.951E-01
DAV:   3    -0.244062760951E+03   -0.27309E-02   -0.38948E-02 30080   0.631E-01    0.524E-01
DAV:   4    -0.244061712014E+03    0.10489E-02   -0.50441E-03 31576   0.265E-01    0.332E-01
DAV:   5    -0.244061494009E+03    0.21800E-03   -0.95021E-04 30520   0.145E-01    0.114E-01
DAV:   6    -0.244061512562E+03   -0.18552E-04   -0.41459E-04 30800   0.754E-02    0.455E-02
DAV:   7    -0.244061519162E+03   -0.66005E-05   -0.46455E-05 25640   0.238E-02
  38 F= -.24406152E+03 E0= -.24406152E+03  d E =-.191667E-02  mag=    20.0000
       N       E                     dE             d eps       ncg     rms          rms(c)
DAV:   1    -0.244026527598E+03    0.34985E-01   -0.66327E+00 25616   0.986E+00    0.955E-01
DAV:   2    -0.244059427704E+03   -0.32900E-01   -0.32852E-01 25988   0.171E+00    0.428E-01
DAV:   3    -0.244059949430E+03   -0.52173E-03   -0.90007E-03 30552   0.294E-01    0.222E-01
DAV:   4    -0.244059654707E+03    0.29472E-03   -0.92402E-04 31280   0.116E-01    0.140E-01
DAV:   5    -0.244059563021E+03    0.91686E-04   -0.24924E-04 30064   0.743E-02    0.494E-02
DAV:   6    -0.244059571571E+03   -0.85498E-05   -0.11117E-04 29512   0.362E-02    0.215E-02
DAV:   7    -0.244059572817E+03   -0.12462E-05   -0.81859E-06 17840   0.112E-02
  39 F= -.24405957E+03 E0= -.24405957E+03  d E =0.194634E-02  mag=    20.0000
       N       E                     dE             d eps       ncg     rms          rms(c)
DAV:   1    -0.244016626526E+03    0.42945E-01   -0.65552E+00 25632   0.110E+01    0.123E+00
DAV:   2    -0.244061188803E+03   -0.44562E-01   -0.43969E-01 26958   0.195E+00    0.574E-01
DAV:   3    -0.244062173451E+03   -0.98465E-03   -0.13508E-02 29832   0.368E-01    0.290E-01
DAV:   4    -0.244061828718E+03    0.34473E-03   -0.17743E-03 31872   0.160E-01    0.176E-01
DAV:   5    -0.244061782834E+03    0.45884E-04   -0.31848E-04 30880   0.797E-02    0.723E-02
DAV:   6    -0.244061787957E+03   -0.51228E-05   -0.11609E-04 29688   0.374E-02    0.445E-02
DAV:   7    -0.244061788440E+03   -0.48363E-06   -0.80973E-06 17976   0.112E-02
  40 F= -.24406179E+03 E0= -.24406179E+03  d E =-.221562E-02  mag=    20.0000
       N       E                     dE             d eps       ncg     rms          rms(c)
DAV:   1    -0.244059724080E+03    0.20639E-02   -0.59489E-01 25912   0.285E+00    0.378E-01
DAV:   2    -0.244062268581E+03   -0.25445E-02   -0.25911E-02 28536   0.487E-01    0.136E-01
DAV:   3    -0.244062265666E+03    0.29151E-05   -0.86810E-04 30344   0.101E-01    0.714E-02
DAV:   4    -0.244062243322E+03    0.22343E-04   -0.11273E-04 31584   0.393E-02    0.474E-02
DAV:   5    -0.244062235503E+03    0.78188E-05   -0.18573E-05 20576   0.210E-02
  41 F= -.24406224E+03 E0= -.24406224E+03  d E =-.447063E-03  mag=    20.0000
       N       E                     dE             d eps       ncg     rms          rms(c)
DAV:   1    -0.244056326258E+03    0.59171E-02   -0.86932E-01 25632   0.404E+00    0.531E-01
DAV:   2    -0.244062488920E+03   -0.61627E-02   -0.61511E-02 27580   0.728E-01    0.227E-01
DAV:   3    -0.244062602693E+03   -0.11377E-03   -0.20324E-03 30208   0.148E-01    0.114E-01
DAV:   4    -0.244062564579E+03    0.38114E-04   -0.29642E-04 31776   0.621E-02    0.703E-02
DAV:   5    -0.244062559438E+03    0.51403E-05   -0.33179E-05 26576   0.277E-02
  42 F= -.24406256E+03 E0= -.24406256E+03  d E =-.323935E-03  mag=    20.0000
       N       E                     dE             d eps       ncg     rms          rms(c)
DAV:   1    -0.244057689383E+03    0.48752E-02   -0.93724E-01 26104   0.378E+00    0.350E-01
DAV:   2    -0.244062932117E+03   -0.52427E-02   -0.51114E-02 26874   0.641E-01    0.170E-01
DAV:   3    -0.244063054479E+03   -0.12236E-03   -0.15158E-03 29200   0.113E-01    0.882E-02
DAV:   4    -0.244063012869E+03    0.41610E-04   -0.17235E-04 31296   0.459E-02    0.579E-02
DAV:   5    -0.244063000737E+03    0.12132E-04   -0.37585E-05 26944   0.285E-02    0.216E-02
DAV:   6    -0.244063001848E+03   -0.11108E-05   -0.14679E-05 18024   0.136E-02
  43 F= -.24406300E+03 E0= -.24406300E+03  d E =-.442410E-03  mag=    20.0000
       N       E                     dE             d eps       ncg     rms          rms(c)
DAV:   1    -0.243730552280E+03    0.33245E+00   -0.54422E+01 25664   0.298E+01    0.276E+00
DAV:   2    -0.244051397968E+03   -0.32085E+00   -0.31217E+00 26120   0.513E+00    0.133E+00
DAV:   3    -0.244059562812E+03   -0.81648E-02   -0.91348E-02 29952   0.910E-01    0.657E-01
DAV:   4    -0.244057128237E+03    0.24346E-02   -0.85329E-03 31424   0.331E-01    0.443E-01
DAV:   5    -0.244056134795E+03    0.99344E-03   -0.23331E-03 29848   0.239E-01    0.170E-01
DAV:   6    -0.244056196771E+03   -0.61977E-04   -0.97611E-04 29672   0.104E-01    0.608E-02
DAV:   7    -0.244056212429E+03   -0.15658E-04   -0.83270E-05 28640   0.300E-02    0.283E-02
DAV:   8    -0.244056210049E+03    0.23797E-05   -0.83066E-06 17736   0.168E-02
  44 F= -.24405621E+03 E0= -.24405621E+03  d E =0.679180E-02  mag=    20.0000
       N       E                     dE             d eps       ncg     rms          rms(c)
DAV:   1    -0.243991836172E+03    0.64376E-01   -0.12126E+01 25640   0.134E+01    0.146E+00
DAV:   2    -0.244054245641E+03   -0.62409E-01   -0.62020E-01 26950   0.233E+00    0.599E-01
DAV:   3    -0.244055093160E+03   -0.84752E-03   -0.17372E-02 29400   0.412E-01    0.298E-01
DAV:   4    -0.244054523385E+03    0.56978E-03   -0.20526E-03 32128   0.169E-01    0.183E-01
DAV:   5    -0.244054373077E+03    0.15031E-03   -0.43835E-04 29888   0.968E-02    0.681E-02
DAV:   6    -0.244054385614E+03   -0.12537E-04   -0.19072E-04 29864   0.483E-02    0.308E-02
DAV:   7    -0.244054386926E+03   -0.13116E-05   -0.13120E-05 19360   0.147E-02
  45 F= -.24405439E+03 E0= -.24405439E+03  d E =0.182312E-02  mag=    20.0000
       N       E                     dE             d eps       ncg     rms          rms(c)
DAV:   1    -0.243929654337E+03    0.12473E+00   -0.22489E+01 25640   0.192E+01    0.183E+00
DAV:   2    -0.244060187556E+03   -0.13053E+00   -0.12757E+00 26474   0.333E+00    0.838E-01
DAV:   3    -0.244062688977E+03   -0.25014E-02   -0.32067E-02 30224   0.554E-01    0.403E-01
DAV:   4    -0.244061521406E+03    0.11676E-02   -0.35816E-03 31080   0.230E-01    0.246E-01
DAV:   5    -0.244061226130E+03    0.29528E-03   -0.10094E-03 30320   0.144E-01    0.893E-02
DAV:   6    -0.244061242830E+03   -0.16700E-04   -0.35001E-04 29624   0.637E-02    0.408E-02
DAV:   7    -0.244061247029E+03   -0.41994E-05   -0.34416E-05 23968   0.199E-02
  46 F= -.24406125E+03 E0= -.24406125E+03  d E =-.686010E-02  mag=    20.0000
       N       E                     dE             d eps       ncg     rms          rms(c)
DAV:   1    -0.244032921851E+03    0.28321E-01   -0.47064E+00 25632   0.896E+00    0.918E-01
DAV:   2    -0.244062168129E+03   -0.29246E-01   -0.28964E-01 25870   0.160E+00    0.401E-01
DAV:   3    -0.244062772443E+03   -0.60431E-03   -0.79881E-03 30088   0.273E-01    0.201E-01
DAV:   4    -0.244062538070E+03    0.23437E-03   -0.79576E-04 32296   0.106E-01    0.126E-01
DAV:   5    -0.244062460622E+03    0.77448E-04   -0.18703E-04 30088   0.661E-02    0.457E-02
DAV:   6    -0.244062467076E+03   -0.64542E-05   -0.81270E-05 30104   0.300E-02
  47 F= -.24406247E+03 E0= -.24406247E+03  d E =-.122005E-02  mag=    20.0000
       N       E                     dE             d eps       ncg     rms          rms(c)
DAV:   1    -0.244006350791E+03    0.56110E-01   -0.10894E+01 25640   0.129E+01    0.112E+00
DAV:   2    -0.244061893180E+03   -0.55542E-01   -0.54632E-01 25808   0.222E+00    0.532E-01
DAV:   3    -0.244063020084E+03   -0.11269E-02   -0.15390E-02 30176   0.380E-01    0.271E-01
DAV:   4    -0.244062521141E+03    0.49894E-03   -0.15898E-03 31048   0.148E-01    0.173E-01
DAV:   5    -0.244062375787E+03    0.14535E-03   -0.46541E-04 30056   0.997E-02    0.630E-02
DAV:   6    -0.244062387337E+03   -0.11550E-04   -0.16439E-04 29592   0.434E-02    0.265E-02
DAV:   7    -0.244062389909E+03   -0.25719E-05   -0.14970E-05 18192   0.127E-02
  48 F= -.24406239E+03 E0= -.24406239E+03  d E =0.771671E-04  mag=    20.0000
       N       E                     dE             d eps       ncg     rms          rms(c)
DAV:   1    -0.244059351772E+03    0.30356E-02   -0.51858E-01 25640   0.284E+00    0.386E-01
DAV:   2    -0.244062106984E+03   -0.27552E-02   -0.28272E-02 28304   0.510E-01    0.147E-01
DAV:   3    -0.244062138220E+03   -0.31236E-04   -0.96826E-04 29832   0.104E-01    0.759E-02
DAV:   4    -0.244062114958E+03    0.23263E-04   -0.15476E-04 31168   0.454E-02    0.482E-02
DAV:   5    -0.244062110801E+03    0.41567E-05   -0.19797E-05 21008   0.201E-02
  49 F= -.24406211E+03 E0= -.24406211E+03  d E =0.279108E-03  mag=    20.0000
       N       E                     dE             d eps       ncg     rms          rms(c)
DAV:   1    -0.244057268621E+03    0.48463E-02   -0.10490E+00 25640   0.396E+00    0.401E-01
DAV:   2    -0.244062493858E+03   -0.52252E-02   -0.52131E-02 26626   0.689E-01    0.172E-01
DAV:   3    -0.244062579639E+03   -0.85781E-04   -0.15377E-03 29736   0.124E-01    0.864E-02
DAV:   4    -0.244062533398E+03    0.46241E-04   -0.19501E-04 31352   0.512E-02    0.537E-02
DAV:   5    -0.244062522466E+03    0.10932E-04   -0.37271E-05 26696   0.275E-02    0.218E-02
DAV:   6    -0.244062522867E+03   -0.40093E-06   -0.14458E-05 16824   0.147E-02
  50 F= -.24406252E+03 E0= -.24406252E+03  d E =-.412066E-03  mag=    20.0000
       N       E                     dE             d eps       ncg     rms          rms(c)
DAV:   1    -0.244062513885E+03    0.85812E-05   -0.56608E-02 25600   0.856E-01    0.724E-02
DAV:   2    -0.244062757834E+03   -0.24395E-03   -0.24537E-03 26334   0.145E-01    0.358E-02
DAV:   3    -0.244062760656E+03   -0.28215E-05   -0.63521E-05 26608   0.244E-02    0.190E-02
DAV:   4    -0.244062757903E+03    0.27528E-05   -0.82386E-06 15544   0.116E-02
  51 F= -.24406276E+03 E0= -.24406276E+03  d E =-.235036E-03  mag=    20.0000
