       N       E                     dE             d eps       ncg     rms          ort
DAV:   1     0.269756988883E+04    0.26976E+04   -0.14702E+05  6120   0.160E+03
DAV:   2    -0.251064824246E+03   -0.29486E+04   -0.28652E+04  6120   0.447E+02
DAV:   3    -0.520695708092E+03   -0.26963E+03   -0.26385E+03  6120   0.149E+02
DAV:   4    -0.535205090333E+03   -0.14509E+02   -0.14011E+02  6120   0.361E+01
DAV:   5    -0.536356456099E+03   -0.11514E+01   -0.11311E+01  6120   0.620E+00
SDA:   6    -0.294554430344E+03    0.24180E+03   -0.11311E+01  6120   0.129E+04 0.000E+00
CGA:   7    -0.395357766123E+03   -0.10080E+03   -0.14266E+03  6120   0.200E+03-0.604E+02
CGA:   8    -0.407082767172E+03   -0.11725E+02   -0.49563E+01  6120   0.145E+03-0.118E+03
CGA:   9    -0.404517852961E+03    0.25649E+01   -0.11895E+02  6120   0.980E+02 0.823E+00
CGA:  10    -0.413258635252E+03   -0.87408E+01   -0.26652E+01  6120   0.361E+03 0.473E+03
CGA:  11    -0.411176195165E+03    0.20824E+01   -0.28032E+02  6120   0.313E+03-0.752E+02
CGA:  12    -0.404639218303E+03    0.65370E+01   -0.21807E+02  6120   0.237E+03 0.165E+02
CGA:  13    -0.419345033664E+03   -0.14706E+02   -0.40462E+01  6120   0.893E+02-0.330E+03
CGA:  14    -0.418373043847E+03    0.97199E+00   -0.41837E+01  6120   0.144E+03-0.129E+03
CGA:  15    -0.414403631714E+03    0.39694E+01   -0.88706E+01  6120   0.439E+02-0.291E+02
CGA:  16    -0.418424630820E+03   -0.40210E+01   -0.22606E+01  6120   0.299E+02-0.209E+02
CGA:  17    -0.423384007457E+03   -0.49594E+01   -0.72540E+00  6120   0.758E+02 0.604E+02
CGA:  18    -0.421561209772E+03    0.18228E+01   -0.35554E+01  6120   0.773E+02-0.401E+02
CGA:  19    -0.422368010988E+03   -0.80680E+00   -0.28057E+01  6120   0.104E+03-0.110E+03
CGA:  20    -0.420625787136E+03    0.17422E+01   -0.45317E+01  6120   0.162E+03-0.999E+02
CGA:  21    -0.419543882208E+03    0.10819E+01   -0.74333E+01  6120   0.726E+02-0.619E+02
CGA:  22    -0.422667734333E+03   -0.31239E+01   -0.18356E+01  6120   0.161E+03-0.182E+03
CGA:  23    -0.419573558850E+03    0.30942E+01   -0.79551E+01  6120   0.432E+02-0.246E+02
CGA:  24    -0.423721940142E+03   -0.41484E+01   -0.12218E+01  6120   0.112E+03-0.160E+03
CGA:  25    -0.421927844482E+03    0.17941E+01   -0.50294E+01  6120   0.958E+02-0.406E+02
CGA:  26    -0.423835982559E+03   -0.19081E+01   -0.21352E+01  6120   0.108E+03-0.185E+02
CGA:  27    -0.418971891238E+03    0.48641E+01   -0.22112E+01  6120   0.417E+03-0.245E+03
CGA:  28    -0.419877923556E+03   -0.90603E+00   -0.19721E+02  6120   0.807E+02-0.488E+02
CGA:  29    -0.421415398813E+03   -0.15375E+01   -0.24860E+01  6120   0.135E+03-0.879E+02
CGA:  30    -0.423570744343E+03   -0.21553E+01   -0.56324E+01  6120   0.287E+02-0.299E+02
CGA:  31    -0.424133507557E+03   -0.56276E+00   -0.40886E+00  6120   0.146E+02 0.127E+02
CGA:  32    -0.424812507030E+03   -0.67900E+00   -0.14908E+00  6120   0.388E+02 0.779E+02
CGA:  33    -0.425564871501E+03   -0.75236E+00   -0.63204E+00  6120   0.283E+01-0.119E+02
CGA:  34    -0.425606152116E+03   -0.41281E-01   -0.46421E-01  6120   0.725E+00-0.210E+00
CGA:  35    -0.425638370213E+03   -0.32218E-01   -0.32697E-01  6120   0.131E+01-0.863E-02
CGA:  36    -0.425786099798E+03   -0.14773E+00   -0.16213E+00  6120   0.396E+01-0.337E+00
CGA:  37    -0.425841958407E+03   -0.55859E-01   -0.62541E-01  6120   0.132E+01-0.451E-01
CGA:  38    -0.425858242397E+03   -0.16284E-01   -0.20008E-01  6120   0.357E+00-0.183E+00
CGA:  39    -0.425880222784E+03   -0.21980E-01   -0.21994E-01  6120   0.995E+00-0.172E-02
CGA:  40    -0.425932190200E+03   -0.51967E-01   -0.53810E-01  6120   0.317E+00 0.244E-01
CGA:  41    -0.425940669642E+03   -0.84794E-02   -0.89559E-02  6120   0.133E+00-0.207E-01
CGA:  42    -0.425954625443E+03   -0.13956E-01   -0.13929E-01  6120   0.230E+00-0.886E-03
CGA:  43    -0.425965799682E+03   -0.11174E-01   -0.11129E-01  6120   0.872E-01-0.235E-02
CGA:  44    -0.425969832207E+03   -0.40325E-02   -0.40460E-02  6120   0.648E-01-0.367E-02
CGA:  45    -0.425975173764E+03   -0.53416E-02   -0.54363E-02  6120   0.912E-01-0.615E-02
CGA:  46    -0.425980602917E+03   -0.54292E-02   -0.54377E-02  6120   0.372E-01 0.110E-03
CGA:  47    -0.425982153156E+03   -0.15502E-02   -0.15222E-02  6120   0.189E-01-0.192E-02
CGA:  48    -0.425983852756E+03   -0.16996E-02   -0.17538E-02  6120   0.351E-01-0.206E-02
CGA:  49    -0.425986382054E+03   -0.25293E-02   -0.25194E-02  6120   0.156E-01 0.861E-03
CGA:  50    -0.425986986538E+03   -0.60448E-03   -0.61591E-03  6120   0.595E-02 0.114E-03
CGA:  51    -0.425987727783E+03   -0.74125E-03   -0.72697E-03  6120   0.128E-01 0.237E-03
CGA:  52    -0.425988758457E+03   -0.10307E-02   -0.10158E-02  6120   0.438E-02 0.318E-02
CGA:  53    -0.425989031758E+03   -0.27330E-03   -0.29253E-03  6120   0.391E-02 0.100E-02
CGA:  54    -0.425989764039E+03   -0.73228E-03   -0.60741E-03  6120   0.314E-02 0.227E-02
CGA:  55    -0.425989823808E+03   -0.59769E-04   -0.84103E-04  6120   0.112E-02 0.526E-03
CGA:  56    -0.425989917026E+03   -0.93219E-04   -0.93028E-04  6120   0.182E-02 0.936E-03
CGA:  57    -0.425990031727E+03   -0.11470E-03   -0.10835E-03  6120   0.294E-02-0.569E-03
CGA:  58    -0.425990356134E+03   -0.32441E-03   -0.26697E-03  6120   0.676E-02 0.943E-03
CGA:  59    -0.425990646126E+03   -0.28999E-03   -0.37407E-03  6120   0.127E-02 0.283E-02
CGA:  60    -0.425990718413E+03   -0.72287E-04   -0.84932E-04  6120   0.134E-02 0.511E-03
CGA:  61    -0.425991058951E+03   -0.34054E-03   -0.26547E-03  6120   0.208E-02 0.107E-02
CGA:  62    -0.425991080023E+03   -0.21071E-04   -0.48194E-04  6120   0.415E-03 0.526E-03
CGA:  63    -0.425991085119E+03   -0.50959E-05   -0.17254E-04  6120   0.488E-03 0.314E-03
CGA:  64    -0.425990694442E+03    0.39068E-03   -0.21697E-03  6120   0.337E-01-0.166E-02
CGA:  65    -0.425991378038E+03   -0.68360E-03   -0.79736E-03  6120   0.932E-03 0.194E-02
CGA:  66    -0.425991379966E+03   -0.19281E-05   -0.25498E-04  6120   0.301E-03 0.243E-03
CGA:  67    -0.425991396427E+03   -0.16461E-04   -0.27059E-04  6120   0.734E-03 0.230E-03
CGA:  68    -0.425991456370E+03   -0.59943E-04   -0.42658E-04  6120   0.110E-02-0.314E-03
CGA:  69    -0.425991611709E+03   -0.15534E-03   -0.20088E-03  6120   0.114E-01-0.214E-03
CGA:  70    -0.425992322272E+03   -0.71056E-03   -0.74120E-03  6120   0.386E-02 0.259E-02
CGA:  71    -0.425992431003E+03   -0.10873E-03   -0.13816E-03  6120   0.610E-03 0.246E-03
CGA:  72    -0.425992503847E+03   -0.72845E-04   -0.68366E-04  6120   0.228E-02-0.436E-03
CGA:  73    -0.425992523008E+03   -0.19161E-04   -0.48148E-04  6120   0.161E-03 0.309E-03
CGA:  74    -0.425992518055E+03    0.49533E-05   -0.36751E-05  6120   0.860E-04 0.945E-04
   1 F= -.42599252E+03 E0= -.42598211E+03  d E =-.425993E+03  mag=    10.0000
       N       E                     dE             d eps       ncg     rms          ort
SDA:   1    -0.425933948803E+03    0.58574E-01    0.00000E+00  6120   0.407E+00 0.000E+00
CGA:   2    -0.425945927357E+03   -0.11979E-01   -0.12057E-01  6120   0.183E+00-0.309E-02
CGA:   3    -0.425977781031E+03   -0.31854E-01   -0.31811E-01  6120   0.111E+00 0.492E-03
CGA:   4    -0.425982818420E+03   -0.50374E-02   -0.50858E-02  6120   0.783E-01-0.359E-02
CGA:   5    -0.425990469231E+03   -0.76508E-02   -0.76538E-02  6120   0.290E-01 0.196E-02
CGA:   6    -0.425991363369E+03   -0.89414E-03   -0.10289E-02  6120   0.577E-02 0.220E-02
CGA:   7    -0.425992388466E+03   -0.10251E-02   -0.99868E-03  6120   0.756E-02 0.419E-03
CGA:   8    -0.425992648207E+03   -0.25974E-03   -0.24190E-03  6120   0.113E-02-0.344E-03
CGA:   9    -0.425992801371E+03   -0.15316E-03   -0.15630E-03  6120   0.277E-02-0.698E-04
CGA:  10    -0.425992913898E+03   -0.11253E-03   -0.10922E-03  6120   0.310E-03-0.633E-04
CGA:  11    -0.425992947606E+03   -0.33707E-04   -0.33597E-04  6120   0.773E-03 0.727E-05
CGA:  12    -0.425993000851E+03   -0.53245E-04   -0.52943E-04  6120   0.174E-03-0.131E-04
CGA:  13    -0.425993004551E+03   -0.36996E-05   -0.67682E-05  6120   0.101E-03 0.531E-04
CGA:  14    -0.425993022305E+03   -0.17754E-04   -0.15772E-04  6120   0.514E-04 0.789E-04
CGA:  15    -0.425993014525E+03    0.77801E-05   -0.15233E-04  6120   0.166E-02-0.115E-03
CGA:  16    -0.425993038767E+03   -0.24242E-04   -0.35113E-04  6120   0.394E-04 0.136E-03
CGA:  17    -0.425993036884E+03    0.18831E-05   -0.61067E-06  6120   0.238E-04 0.286E-04
   2 F= -.42599304E+03 E0= -.42598257E+03  d E =-.518828E-03  mag=    10.0000
       N       E                     dE             d eps       ncg     rms          ort
SDA:   1    -0.425987527759E+03    0.55110E-02    0.00000E+00  6120   0.161E-01 0.000E+00
CGA:   2    -0.425990332646E+03   -0.28049E-02   -0.27890E-02  6120   0.359E-01 0.177E-03
CGA:   3    -0.425991691696E+03   -0.13590E-02   -0.13743E-02  6120   0.664E-02 0.315E-03
CGA:   4    -0.425992920443E+03   -0.12287E-02   -0.12792E-02  6120   0.381E-02-0.523E-03
CGA:   5    -0.425993128718E+03   -0.20828E-03   -0.15684E-03  6120   0.170E-02-0.981E-03
CGA:   6    -0.425993241853E+03   -0.11314E-03   -0.11371E-03  6120   0.103E-02 0.910E-04
CGA:   7    -0.425993263725E+03   -0.21872E-04   -0.33752E-04  6120   0.200E-03 0.184E-03
CGA:   8    -0.425993287961E+03   -0.24236E-04   -0.23772E-04  6120   0.281E-03 0.574E-04
CGA:   9    -0.425993301823E+03   -0.13862E-04   -0.16010E-04  6120   0.720E-04 0.425E-04
CGA:  10    -0.425993301818E+03    0.44311E-08   -0.30667E-05  6120   0.368E-04 0.571E-04
CGA:  11    -0.425993312487E+03   -0.10669E-04   -0.10980E-04  6120   0.162E-03-0.160E-05
CGA:  12    -0.425993314423E+03   -0.19357E-05   -0.42725E-05  6120   0.296E-04 0.319E-04
   3 F= -.42599331E+03 E0= -.42598283E+03  d E =-.796368E-03  mag=    10.0000
       N       E                     dE             d eps       ncg     rms          ort
SDA:   1    -0.425967878098E+03    0.25434E-01    0.00000E+00  6120   0.894E-01 0.000E+00
CGA:   2    -0.425974688274E+03   -0.68102E-02   -0.68012E-02  6120   0.176E+00-0.144E-02
CGA:   3    -0.425986536851E+03   -0.11849E-01   -0.11847E-01  6120   0.369E-01-0.285E-03
CGA:   4    -0.425989059544E+03   -0.25227E-02   -0.25529E-02  6120   0.492E-01 0.171E-02
CGA:   5    -0.425992497977E+03   -0.34384E-02   -0.34702E-02  6120   0.578E-02 0.148E-02
CGA:   6    -0.425992904896E+03   -0.40692E-03   -0.38806E-03  6120   0.670E-02-0.909E-03
CGA:   7    -0.425993321578E+03   -0.41668E-03   -0.42405E-03  6120   0.180E-02 0.655E-03
CGA:   8    -0.425993347234E+03   -0.25656E-04   -0.51801E-04  6120   0.458E-03 0.433E-03
CGA:   9    -0.425993390180E+03   -0.42946E-04   -0.44008E-04  6120   0.710E-03 0.201E-03
CGA:  10    -0.425993474456E+03   -0.84276E-04   -0.13672E-03  6120   0.228E-02-0.103E-02
CGA:  11    -0.425993500453E+03   -0.25997E-04   -0.47617E-04  6120   0.276E-03 0.337E-03
CGA:  12    -0.425993500685E+03   -0.23199E-06   -0.94533E-05  6120   0.202E-03 0.177E-03
CGA:  13    -0.425993471584E+03    0.29101E-04   -0.51577E-04  6120   0.509E-02-0.462E-03
CGA:  14    -0.425993544741E+03   -0.73158E-04   -0.98323E-04  6120   0.113E-03 0.386E-03
CGA:  15    -0.425993541282E+03    0.34595E-05   -0.15388E-05  6120   0.433E-04 0.691E-04
   4 F= -.42599354E+03 E0= -.42598303E+03  d E =-.226859E-03  mag=    10.0000
       N       E                     dE             d eps       ncg     rms          ort
SDA:   1    -0.425990412637E+03    0.31321E-02    0.00000E+00  6120   0.207E-01 0.000E+00
CGA:   2    -0.425991382130E+03   -0.96949E-03   -0.88990E-03  6120   0.109E-01-0.247E-02
CGA:   3    -0.425992484550E+03   -0.11024E-02   -0.10921E-02  6120   0.149E-01 0.254E-03
CGA:   4    -0.425992933126E+03   -0.44858E-03   -0.49251E-03  6120   0.221E-02 0.101E-02
CGA:   5    -0.425992471556E+03    0.46157E-03   -0.36522E-03  6120   0.218E-01-0.394E-02
CGA:   6    -0.425992999871E+03   -0.52832E-03   -0.68403E-03  6120   0.375E-02 0.104E-02
CGA:   7    -0.425993338137E+03   -0.33827E-03   -0.35116E-03  6120   0.378E-02 0.296E-03
CGA:   8    -0.425993487872E+03   -0.14973E-03   -0.13967E-03  6120   0.429E-03-0.150E-03
CGA:   9    -0.425993529499E+03   -0.41628E-04   -0.42566E-04  6120   0.803E-03 0.409E-04
CGA:  10    -0.425993560881E+03   -0.31382E-04   -0.42300E-04  6120   0.101E-03 0.142E-03
CGA:  11    -0.425993575672E+03   -0.14791E-04   -0.15675E-04  6120   0.581E-03-0.756E-04
CGA:  12    -0.425993580689E+03   -0.50174E-05   -0.10727E-04  6120   0.198E-04 0.546E-04
   5 F= -.42599358E+03 E0= -.42598307E+03  d E =-.266266E-03  mag=    10.0000
       N       E                     dE             d eps       ncg     rms          ort
SDA:   1    -0.425992641707E+03    0.93396E-03    0.00000E+00  6120   0.449E-02 0.000E+00
CGA:   2    -0.425992849280E+03   -0.20757E-03   -0.19017E-03  6120   0.403E-02-0.322E-03
CGA:   3    -0.425993274812E+03   -0.42553E-03   -0.42777E-03  6120   0.356E-02-0.332E-03
CGA:   4    -0.425993341557E+03   -0.66745E-04   -0.10599E-03  6120   0.728E-03 0.501E-03
CGA:   5    -0.425993406972E+03   -0.65416E-04   -0.68404E-04  6120   0.114E-02 0.136E-03
CGA:   6    -0.425993522433E+03   -0.11546E-03   -0.93975E-04  6120   0.591E-03-0.640E-03
CGA:   7    -0.425993529964E+03   -0.75309E-05   -0.13964E-04  6120   0.145E-03 0.815E-04
   6 F= -.42599353E+03 E0= -.42598302E+03  d E =-.215541E-03  mag=    10.0000
       N       E                     dE             d eps       ncg     rms          ort
SDA:   1    -0.425990667366E+03    0.28551E-02    0.00000E+00  6120   0.135E+00 0.000E+00
CGA:   2    -0.425993270459E+03   -0.26031E-02   -0.26129E-02  6120   0.236E-02 0.650E-02
CGA:   3    -0.425993306781E+03   -0.36323E-04   -0.72168E-04  6120   0.855E-03 0.556E-03
CGA:   4    -0.425993371593E+03   -0.64811E-04   -0.71474E-04  6120   0.142E-02 0.319E-03
CGA:   5    -0.425993542146E+03   -0.17055E-03   -0.17050E-03  6120   0.407E-03-0.404E-03
CGA:   6    -0.425993541936E+03    0.20999E-06   -0.87720E-05  6120   0.226E-03 0.156E-03
CGA:   7    -0.425993543479E+03   -0.15438E-05   -0.10502E-04  6120   0.163E-03 0.175E-03
CGA:   8    -0.425993572037E+03   -0.28557E-04    0.10059E-03  6120   0.224E-03-0.851E-05
CGA:   9    -0.425993574681E+03   -0.26444E-05   -0.74755E-05  6120   0.670E-04 0.103E-03
   7 F= -.42599357E+03 E0= -.42598306E+03  d E =-.260258E-03  mag=    10.0000
       N       E                     dE             d eps       ncg     rms          ort
SDA:   1    -0.425992890173E+03    0.68186E-03    0.00000E+00  6120   0.180E-01 0.000E+00
CGA:   2    -0.425993544817E+03   -0.65464E-03   -0.55299E-03  6120   0.424E-03-0.222E-02
CGA:   3    -0.425993545310E+03   -0.49338E-06   -0.79696E-05  6120   0.914E-04 0.141E-03
CGA:   4    -0.425993543096E+03    0.22145E-05   -0.18427E-05  6120   0.491E-04 0.719E-04
CGA:   5    -0.425993545597E+03   -0.25011E-05   -0.28244E-05  6120   0.378E-04 0.290E-04
CGA:   6    -0.425993553640E+03   -0.80427E-05    0.22886E-05  6120   0.758E-04-0.403E-05
CGA:   7    -0.425993564264E+03   -0.10624E-04    0.14992E-04  6120   0.231E-04 0.142E-04
CGA:   8    -0.425993563472E+03    0.79202E-06   -0.27112E-06  6120   0.104E-04 0.182E-04
   8 F= -.42599356E+03 E0= -.42598305E+03  d E =-.249049E-03  mag=    10.0000
       N       E                     dE             d eps       ncg     rms          ort
SDA:   1    -0.425993280076E+03    0.28419E-03    0.00000E+00  6120   0.740E-02 0.000E+00
CGA:   2    -0.425993547483E+03   -0.26741E-03   -0.21926E-03  6120   0.650E-03-0.155E-02
CGA:   3    -0.425993559642E+03   -0.12159E-04   -0.12669E-04  6120   0.635E-04 0.109E-04
CGA:   4    -0.425993558287E+03    0.13547E-05   -0.75973E-06  6120   0.345E-04 0.449E-04
CGA:   5    -0.425993557598E+03    0.68880E-06   -0.44474E-06  6120   0.212E-04 0.260E-04
CGA:   6    -0.425993557351E+03    0.24718E-06   -0.38645E-06  6120   0.157E-04 0.176E-04
   9 F= -.42599356E+03 E0= -.42598305E+03  d E =-.242928E-03  mag=    10.0000
       N       E                     dE             d eps       ncg     rms          ort
SDA:   1    -0.425993514678E+03    0.42920E-04    0.00000E+00  6120   0.495E-02 0.000E+00
CGA:   2    -0.425993578939E+03   -0.64261E-04   -0.10372E-03  6120   0.270E-03 0.115E-02
CGA:   3    -0.425993574993E+03    0.39457E-05   -0.35280E-05  6120   0.769E-04 0.176E-03
CGA:   4    -0.425993573119E+03    0.18747E-05   -0.57872E-06  6120   0.421E-04 0.568E-04
CGA:   5    -0.425993571919E+03    0.11994E-05   -0.24538E-06  6120   0.272E-04 0.338E-04
CGA:   6    -0.425993571092E+03    0.82757E-06   -0.12934E-06  6120   0.194E-04 0.230E-04
  10 F= -.42599357E+03 E0= -.42598306E+03  d E =-.256669E-03  mag=    10.0000
       N       E                     dE             d eps       ncg     rms          ort
SDA:   1    -0.425992749717E+03    0.82220E-03    0.00000E+00  6120   0.226E-01 0.000E+00
CGA:   2    -0.425993555294E+03   -0.80558E-03   -0.76206E-03  6120   0.118E-02-0.513E-02
CGA:   3    -0.425993560717E+03   -0.54224E-05   -0.16411E-04  6120   0.297E-03 0.459E-03
CGA:   4    -0.425993557714E+03    0.30030E-05   -0.39364E-05  6120   0.875E-04 0.222E-03
CGA:   5    -0.425993556302E+03    0.14122E-05   -0.67203E-06  6120   0.499E-04 0.664E-04
CGA:   6    -0.425993555362E+03    0.93930E-06   -0.32313E-06  6120   0.327E-04 0.407E-04
  11 F= -.42599356E+03 E0= -.42598305E+03  d E =-.240939E-03  mag=    10.0000
       N       E                     dE             d eps       ncg     rms          ort
SDA:   1    -0.425986385825E+03    0.71705E-02    0.00000E+00  6120   0.470E-01 0.000E+00
CGA:   2    -0.425988191899E+03   -0.18061E-02   -0.18205E-02  6120   0.282E-01-0.381E-02
CGA:   3    -0.425991095297E+03   -0.29034E-02   -0.30927E-02  6120   0.414E-01-0.226E-02
CGA:   4    -0.425992300153E+03   -0.12049E-02   -0.12323E-02  6120   0.622E-02 0.415E-02
CGA:   5    -0.425992761793E+03   -0.46164E-03   -0.43311E-03  6120   0.835E-02 0.114E-02
CGA:   6    -0.425993463575E+03   -0.70178E-03   -0.87650E-03  6120   0.599E-02-0.358E-02
CGA:   7    -0.425993540970E+03   -0.77396E-04   -0.69288E-04  6120   0.168E-02-0.393E-03
CGA:   8    -0.425993579140E+03   -0.38170E-04   -0.41242E-04  6120   0.166E-02 0.201E-03
CGA:   9    -0.425993672443E+03   -0.93302E-04   -0.88626E-04  6120   0.170E-02 0.644E-03
CGA:  10    -0.425993733993E+03   -0.61550E-04   -0.63302E-04  6120   0.226E-03 0.118E-03
CGA:  11    -0.425993753406E+03   -0.19413E-04    0.13929E-02  6120   0.105E-03 0.581E-04
CGA:  12    -0.425993759778E+03   -0.63720E-05   -0.59758E-05  6120   0.803E-04 0.792E-04
  12 F= -.42599376E+03 E0= -.42598325E+03  d E =-.204416E-03  mag=    10.0000
       N       E                     dE             d eps       ncg     rms          ort
SDA:   1    -0.425941147260E+03    0.52606E-01    0.00000E+00  6120   0.258E+00 0.000E+00
CGA:   2    -0.425951342876E+03   -0.10196E-01   -0.10195E-01  6120   0.203E+00 0.124E-02
CGA:   3    -0.425977473526E+03   -0.26131E-01   -0.25910E-01  6120   0.113E+00 0.239E-02
CGA:   4    -0.425981786105E+03   -0.43126E-02   -0.43229E-02  6120   0.592E-01 0.192E-02
CGA:   5    -0.425989986836E+03   -0.82007E-02   -0.84613E-02  6120   0.191E-01-0.276E-02
CGA:   6    -0.425990843786E+03   -0.85695E-03   -0.85211E-03  6120   0.106E-01-0.378E-02
CGA:   7    -0.425991687118E+03   -0.84333E-03   -0.83337E-03  6120   0.818E-02 0.170E-03
CGA:   8    -0.425991893981E+03   -0.20686E-03   -0.23136E-03  6120   0.100E-02 0.106E-02
CGA:   9    -0.425992034150E+03   -0.14017E-03   -0.12450E-03  6120   0.174E-02 0.258E-03
CGA:  10    -0.425992145298E+03   -0.11115E-03   -0.11127E-03  6120   0.454E-03 0.714E-04
CGA:  11    -0.425992159647E+03   -0.14349E-04   -0.17109E-04  6120   0.201E-03 0.170E-03
CGA:  12    -0.425992184078E+03   -0.24431E-04   -0.21812E-04  6120   0.295E-03 0.953E-04
CGA:  13    -0.425992220765E+03   -0.36687E-04   -0.46891E-04  6120   0.533E-03-0.186E-03
CGA:  14    -0.425992229170E+03   -0.84052E-05   -0.11307E-04  6120   0.567E-04 0.821E-04
  13 F= -.42599223E+03 E0= -.42598174E+03  d E =0.132619E-02  mag=    10.0000
       N       E                     dE             d eps       ncg     rms          ort
SDA:   1    -0.425959998118E+03    0.32223E-01    0.00000E+00  6120   0.251E+00 0.000E+00
CGA:   2    -0.425967875239E+03   -0.78771E-02   -0.78762E-02  6120   0.979E-01-0.138E-02
CGA:   3    -0.425984796906E+03   -0.16922E-01   -0.17194E-01  6120   0.931E-01-0.225E-02
CGA:   4    -0.425987578416E+03   -0.27815E-02   -0.27880E-02  6120   0.335E-01-0.427E-03
CGA:   5    -0.425992534306E+03   -0.49559E-02   -0.46781E-02  6120   0.417E-02 0.332E-02
CGA:   6    -0.425993052312E+03   -0.51801E-03   -0.57959E-03  6120   0.120E-01-0.958E-03
CGA:   7    -0.425993387929E+03   -0.33562E-03   -0.35226E-03  6120   0.373E-02 0.638E-03
CGA:   8    -0.425993435366E+03   -0.47437E-04   -0.74476E-04  6120   0.882E-03 0.621E-03
CGA:   9    -0.425993451224E+03   -0.15858E-04   -0.28216E-04  6120   0.806E-03 0.370E-03
CGA:  10    -0.425993525315E+03   -0.74091E-04   -0.73131E-04  6120   0.126E-02 0.187E-03
CGA:  11    -0.425993618948E+03   -0.93634E-04   -0.10461E-03  6120   0.744E-03-0.133E-02
CGA:  12    -0.425993631335E+03   -0.12386E-04   -0.19875E-04  6120   0.245E-03 0.227E-03
CGA:  13    -0.425993643198E+03   -0.11863E-04   -0.14365E-04  6120   0.220E-03 0.193E-03
CGA:  14    -0.425993627938E+03    0.15260E-04   -0.34040E-04  6120   0.309E-02-0.510E-03
CGA:  15    -0.425993677432E+03   -0.49495E-04   -0.64536E-04  6120   0.756E-04 0.369E-03
CGA:  16    -0.425993675664E+03    0.17681E-05   -0.89967E-06  6120   0.359E-04 0.539E-04
  14 F= -.42599368E+03 E0= -.42598317E+03  d E =-.120302E-03  mag=    10.0000
       N       E                     dE             d eps       ncg     rms          ort
SDA:   1    -0.425992832779E+03    0.84465E-03    0.00000E+00  6120   0.112E-01 0.000E+00
CGA:   2    -0.425993304410E+03   -0.47163E-03   -0.42141E-03  6120   0.291E-02-0.287E-02
CGA:   3    -0.425993444105E+03   -0.13969E-03   -0.13579E-03  6120   0.187E-02 0.463E-03
CGA:   4    -0.425993523988E+03   -0.79884E-04   -0.86247E-04  6120   0.742E-03 0.422E-03
CGA:   5    -0.425993473814E+03    0.50175E-04   -0.71819E-04  6120   0.100E-01-0.135E-02
CGA:   6    -0.425993654200E+03   -0.18039E-03   -0.23696E-03  6120   0.579E-03 0.850E-03
CGA:   7    -0.425993657132E+03   -0.29319E-05   -0.18727E-04  6120   0.307E-03 0.241E-03
CGA:   8    -0.425993685158E+03   -0.28026E-04   -0.31182E-04  6120   0.357E-03 0.160E-03
CGA:   9    -0.425993718521E+03   -0.33362E-04   -0.22451E-04  6120   0.866E-03-0.399E-03
CGA:  10    -0.425993723163E+03   -0.46421E-05   -0.16143E-04  6120   0.740E-04 0.163E-03
  15 F= -.42599372E+03 E0= -.42598322E+03  d E =-.167800E-03  mag=    10.0000
       N       E                     dE             d eps       ncg     rms          ort
SDA:   1    -0.425993266206E+03    0.45232E-03    0.00000E+00  6120   0.964E-02 0.000E+00
CGA:   2    -0.425993579280E+03   -0.31307E-03   -0.26495E-03  6120   0.997E-03-0.110E-02
CGA:   3    -0.425993636136E+03   -0.56856E-04   -0.48599E-04  6120   0.130E-02-0.348E-03
CGA:   4    -0.425993713515E+03   -0.77379E-04   -0.75937E-04  6120   0.257E-03 0.120E-03
CGA:   5    -0.425993723449E+03   -0.99343E-05   -0.10491E-04  6120   0.205E-03 0.115E-04
CGA:   6    -0.425993747454E+03   -0.24005E-04   -0.23833E-04  6120   0.147E-03 0.471E-05
CGA:   7    -0.425993746282E+03    0.11728E-05   -0.27230E-05  6120   0.359E-04 0.645E-04
  16 F= -.42599375E+03 E0= -.42598324E+03  d E =-.190919E-03  mag=    10.0000
       N       E                     dE             d eps       ncg     rms          ort
SDA:   1    -0.425993574608E+03    0.17285E-03    0.00000E+00  6120   0.278E-02 0.000E+00
CGA:   2    -0.425993711576E+03   -0.13697E-03   -0.10092E-03  6120   0.722E-03-0.102E-02
CGA:   3    -0.425993723384E+03   -0.11808E-04   -0.15199E-04  6120   0.218E-03 0.895E-04
CGA:   4    -0.425993721074E+03    0.23097E-05   -0.45194E-05  6120   0.898E-04 0.136E-03
CGA:   5    -0.425993722075E+03   -0.10010E-05   -0.26915E-05  6120   0.579E-04 0.466E-04
CGA:   6    -0.425993729544E+03   -0.74690E-05   -0.12898E-04  6120   0.581E-03-0.346E-04
CGA:   7    -0.425993741918E+03   -0.12373E-04   -0.11814E-04  6120   0.120E-04-0.143E-04
CGA:   8    -0.425993742027E+03   -0.10917E-06   -0.42833E-06  6120   0.914E-05 0.965E-05
  17 F= -.42599374E+03 E0= -.42598324E+03  d E =-.186665E-03  mag=    10.0000
       N       E                     dE             d eps       ncg     rms          ort
SDA:   1    -0.425993703236E+03    0.38682E-04    0.00000E+00  6120   0.907E-03 0.000E+00
CGA:   2    -0.425993742669E+03   -0.39433E-04   -0.28395E-04  6120   0.171E-03-0.310E-03
CGA:   3    -0.425993748898E+03   -0.62290E-05   -0.58026E-05  6120   0.691E-04-0.297E-04
CGA:   4    -0.425993749041E+03   -0.14359E-06   -0.12581E-05  6120   0.158E-04 0.256E-04
CGA:   5    -0.425993748926E+03    0.11530E-06   -0.36702E-06  6120   0.822E-05 0.104E-04
CGA:   6    -0.425993750117E+03   -0.11907E-05    0.13222E-05  6120   0.819E-05 0.491E-05
  18 F= -.42599375E+03 E0= -.42598324E+03  d E =-.194754E-03  mag=    10.0000
       N       E                     dE             d eps       ncg     rms          ort
SDA:   1    -0.425927546967E+03    0.66202E-01    0.00000E+00  6120   0.304E+01 0.000E+00
CGA:   2    -0.425987083514E+03   -0.59537E-01   -0.72271E-01  6120   0.139E+00-0.579E+00
CGA:   3    -0.425990059760E+03   -0.29762E-02   -0.29944E-02  6120   0.111E-01 0.301E-02
CGA:   4    -0.425991521148E+03   -0.14614E-02   -0.14487E-02  6120   0.278E-01 0.500E-03
CGA:   5    -0.425993118511E+03   -0.15974E-02   -0.16022E-02  6120   0.379E-02-0.787E-04
CGA:   6    -0.425993409722E+03   -0.29121E-03   -0.28822E-03  6120   0.638E-02-0.142E-03
CGA:   7    -0.425993793737E+03   -0.38402E-03   -0.37464E-03  6120   0.130E-02-0.253E-03
CGA:   8    -0.425993826325E+03   -0.32588E-04   -0.36378E-04  6120   0.296E-03 0.546E-04
CGA:   9    -0.425993880657E+03   -0.54332E-04   -0.52535E-04  6120   0.370E-03 0.232E-04
CGA:  10    -0.425993898810E+03   -0.18153E-04   -0.13310E-04  6120   0.102E-03-0.772E-04
CGA:  11    -0.425993904899E+03   -0.60890E-05   -0.58297E-05  6120   0.981E-04-0.117E-04
  19 F= -.42599390E+03 E0= -.42598339E+03  d E =-.154782E-03  mag=    10.0000
       N       E                     dE             d eps       ncg     rms          ort
SDA:   1    -0.425979446225E+03    0.14453E-01    0.00000E+00  6120   0.523E-01 0.000E+00
CGA:   2    -0.425982319055E+03   -0.28728E-02   -0.29168E-02  6120   0.751E-01 0.164E-02
CGA:   3    -0.425990184760E+03   -0.78657E-02   -0.78507E-02  6120   0.273E-01 0.127E-02
CGA:   4    -0.425991715299E+03   -0.15305E-02   -0.14497E-02  6120   0.188E-01-0.251E-02
CGA:   5    -0.425993379372E+03   -0.16641E-02   -0.16634E-02  6120   0.779E-02 0.575E-04
CGA:   6    -0.425993573382E+03   -0.19401E-03   -0.22368E-03  6120   0.142E-02 0.502E-03
CGA:   7    -0.425993830949E+03   -0.25757E-03   -0.29187E-03  6120   0.373E-02-0.323E-03
CGA:   8    -0.425993903214E+03   -0.72264E-04   -0.68193E-04  6120   0.515E-03-0.677E-04
CGA:   9    -0.425993912668E+03   -0.94543E-05   -0.11848E-04  6120   0.310E-03 0.363E-04
CGA:  10    -0.425993931910E+03   -0.19243E-04   -0.21415E-04  6120   0.577E-03 0.108E-03
CGA:  11    -0.425993960057E+03   -0.28147E-04   -0.30833E-04  6120   0.741E-04 0.599E-04
CGA:  12    -0.425993966194E+03   -0.61364E-05   -0.86900E-05  6120   0.510E-03-0.105E-03
  20 F= -.42599397E+03 E0= -.42598345E+03  d E =-.216077E-03  mag=    10.0000
       N       E                     dE             d eps       ncg     rms          ort
SDA:   1    -0.425991848133E+03    0.21119E-02    0.00000E+00  6120   0.231E-01 0.000E+00
CGA:   2    -0.425992661079E+03   -0.81295E-03   -0.74409E-03  6120   0.544E-02-0.205E-02
CGA:   3    -0.425993291694E+03   -0.63062E-03   -0.66630E-03  6120   0.151E-01-0.650E-03
CGA:   4    -0.425993838792E+03   -0.54710E-03   -0.57873E-03  6120   0.166E-02 0.860E-03
CGA:   5    -0.425993900275E+03   -0.61483E-04   -0.64020E-04  6120   0.100E-02 0.574E-04
CGA:   6    -0.425994029454E+03   -0.12918E-03   -0.13593E-03  6120   0.755E-03-0.123E-03
CGA:   7    -0.425994035224E+03   -0.57698E-05   -0.13138E-04  6120   0.167E-03 0.124E-03
  21 F= -.42599404E+03 E0= -.42598352E+03  d E =-.690302E-04  mag=    10.0000
       N       E                     dE             d eps       ncg     rms          ort
SDA:   1    -0.425991943097E+03    0.20864E-02    0.00000E+00  6120   0.109E+00 0.000E+00
CGA:   2    -0.425994024180E+03   -0.20811E-02   -0.21047E-02  6120   0.370E-03 0.185E-02
CGA:   3    -0.425994025794E+03   -0.16138E-05   -0.86126E-05  6120   0.120E-03 0.146E-03
CGA:   4    -0.425994027303E+03   -0.15092E-05   -0.50601E-05  6120   0.103E-03 0.931E-04
CGA:   5    -0.425994044451E+03   -0.17147E-04    0.13644E-04  6120   0.139E-03-0.561E-05
CGA:   6    -0.425994055225E+03   -0.10774E-04   -0.10511E-04  6120   0.409E-04 0.193E-04
CGA:   7    -0.425994053807E+03    0.14178E-05   -0.51858E-06  6120   0.229E-04 0.346E-04
  22 F= -.42599405E+03 E0= -.42598353E+03  d E =-.876136E-04  mag=    10.0000
       N       E                     dE             d eps       ncg     rms          ort
SDA:   1    -0.425993775919E+03    0.27931E-03    0.00000E+00  6120   0.677E-02 0.000E+00
CGA:   2    -0.425994049168E+03   -0.27325E-03   -0.22591E-03  6120   0.612E-03-0.174E-02
CGA:   3    -0.425994054756E+03   -0.55878E-05   -0.10223E-04  6120   0.102E-03 0.123E-03
CGA:   4    -0.425994052509E+03    0.22466E-05   -0.12914E-05  6120   0.452E-04 0.740E-04
CGA:   5    -0.425994051361E+03    0.11485E-05   -0.46418E-06  6120   0.291E-04 0.353E-04
CGA:   6    -0.425994050658E+03    0.70273E-06   -0.33374E-06  6120   0.220E-04 0.246E-04
  23 F= -.42599405E+03 E0= -.42598353E+03  d E =-.844646E-04  mag=    10.0000
       N       E                     dE             d eps       ncg     rms          ort
SDA:   1    -0.425994025204E+03    0.26156E-04    0.00000E+00  6120   0.315E-03 0.000E+00
CGA:   2    -0.425993769201E+03    0.25600E-03   -0.60477E-04  6120   0.171E-01-0.223E-02
CGA:   3    -0.425994064398E+03   -0.29520E-03   -0.33999E-03  6120   0.429E-03 0.135E-02
CGA:   4    -0.425994061295E+03    0.31037E-05   -0.61009E-05  6120   0.103E-03 0.219E-03
CGA:   5    -0.425994059274E+03    0.20206E-05   -0.95663E-06  6120   0.457E-04 0.682E-04
CGA:   6    -0.425994058054E+03    0.12197E-05   -0.31277E-06  6120   0.269E-04 0.349E-04
  24 F= -.42599406E+03 E0= -.42598354E+03  d E =-.918608E-04  mag=    10.0000
       N       E                     dE             d eps       ncg     rms          ort
SDA:   1    -0.425993210037E+03    0.84924E-03    0.00000E+00  6120   0.242E-01 0.000E+00
CGA:   2    -0.425994029041E+03   -0.81900E-03   -0.75964E-03  6120   0.106E-02-0.415E-02
CGA:   3    -0.425994041869E+03   -0.12828E-04   -0.18033E-04  6120   0.134E-03 0.204E-03
CGA:   4    -0.425994040055E+03    0.18144E-05   -0.15778E-05  6120   0.581E-04 0.981E-04
CGA:   5    -0.425994039067E+03    0.98744E-06   -0.52669E-06  6120   0.351E-04 0.451E-04
CGA:   6    -0.425994038469E+03    0.59853E-06   -0.32423E-06  6120   0.241E-04 0.291E-04
  25 F= -.42599404E+03 E0= -.42598352E+03  d E =-.722751E-04  mag=    10.0000
       N       E                     dE             d eps       ncg     rms          ort
SDA:   1    -0.425993780922E+03    0.25814E-03    0.00000E+00  6120   0.362E-02 0.000E+00
CGA:   2    -0.425993926140E+03   -0.14522E-03   -0.15365E-03  6120   0.291E-02-0.191E-02
CGA:   3    -0.425993977038E+03   -0.50898E-04   -0.59461E-04  6120   0.442E-03 0.481E-03
CGA:   4    -0.425993998364E+03   -0.21326E-04   -0.20577E-04  6120   0.499E-03 0.280E-03
CGA:   5    -0.425993735222E+03    0.26314E-03   -0.14372E-03  6120   0.213E-01-0.192E-02
CGA:   6    -0.425994125656E+03   -0.39043E-03   -0.42480E-03  6120   0.333E-03 0.971E-03
CGA:   7    -0.425994123385E+03    0.22708E-05   -0.56055E-05  6120   0.943E-04 0.158E-03
  26 F= -.42599412E+03 E0= -.42598361E+03  d E =-.849163E-04  mag=    10.0000
       N       E                     dE             d eps       ncg     rms          ort
SDA:   1    -0.425993959881E+03    0.16577E-03    0.00000E+00  6120   0.466E-02 0.000E+00
CGA:   2    -0.425994106996E+03   -0.14711E-03   -0.12425E-03  6120   0.322E-03-0.735E-03
CGA:   3    -0.425994121095E+03   -0.14099E-04   -0.11679E-04  6120   0.223E-03-0.153E-03
CGA:   4    -0.425994122049E+03   -0.95378E-06   -0.32881E-05  6120   0.891E-04 0.772E-04
CGA:   5    -0.425994121363E+03    0.68602E-06   -0.16458E-05  6120   0.243E-04 0.540E-04
CGA:   6    -0.425994121269E+03    0.94587E-07   -0.53737E-06  6120   0.188E-04 0.194E-04
  27 F= -.42599412E+03 E0= -.42598360E+03  d E =-.827998E-04  mag=    10.0000
