       N       E                     dE             d eps       ncg     rms          ort
DAV:   1     0.229165942895E+04    0.22917E+04   -0.13679E+05 10080   0.153E+03
DAV:   2    -0.227296021143E+03   -0.25190E+04   -0.24246E+04 10080   0.405E+02
DAV:   3    -0.445776006397E+03   -0.21848E+03   -0.21367E+03 10080   0.139E+02
DAV:   4    -0.454834798665E+03   -0.90588E+01   -0.88405E+01 10080   0.304E+01
DAV:   5    -0.455279223112E+03   -0.44442E+00   -0.43972E+00 10080   0.468E+00
SDA:   6    -0.281855679266E+03    0.17342E+03   -0.43972E+00 10080   0.559E+03 0.000E+00
CGA:   7    -0.318217472695E+03   -0.36362E+02   -0.49775E+02 10080   0.261E+03 0.440E+02
CGA:   8    -0.329128297459E+03   -0.10911E+02   -0.14242E+02 10080   0.612E+03 0.129E+03
CGA:   9    -0.324916767635E+03    0.42115E+01   -0.45516E+02 10080   0.453E+03-0.317E+03
CGA:  10    -0.339248807075E+03   -0.14332E+02   -0.17187E+02 10080   0.220E+03-0.240E+03
CGA:  11    -0.339463481425E+03   -0.21467E+00   -0.16738E+02 10080   0.202E+03-0.818E+02
CGA:  12    -0.350595643703E+03   -0.11132E+02   -0.59982E+01 10080   0.749E+01 0.197E+02
CGA:  13    -0.350850245222E+03   -0.25460E+00   -0.33180E+00 10080   0.229E+02-0.181E+01
CGA:  14    -0.352038570337E+03   -0.11883E+01   -0.86432E+00 10080   0.130E+02 0.846E+01
CGA:  15    -0.351982794650E+03    0.55776E-01   -0.44250E+00 10080   0.500E+02-0.224E+02
CGA:  16    -0.351828700909E+03    0.15409E+00   -0.34563E+01 10080   0.195E+02-0.403E+01
CGA:  17    -0.352192070423E+03   -0.36337E+00   -0.22256E+00 10080   0.862E+01 0.107E+02
CGA:  18    -0.352296749531E+03   -0.10468E+00   -0.51476E-01 10080   0.825E+01 0.903E+01
CGA:  19    -0.352388993932E+03   -0.92244E-01   -0.44138E-01 10080   0.846E+01 0.911E+01
CGA:  20    -0.352480500655E+03   -0.91507E-01   -0.43273E-01 10080   0.880E+01 0.953E+01
CGA:  21    -0.352574456136E+03   -0.93955E-01   -0.44484E-01 10080   0.895E+01 0.987E+01
CGA:  22    -0.352670601916E+03   -0.96146E-01   -0.46204E-01 10080   0.858E+01 0.972E+01
CGA:  23    -0.352766807169E+03   -0.96205E-01   -0.47591E-01 10080   0.740E+01 0.876E+01
CGA:  24    -0.352858740133E+03   -0.91933E-01   -0.47638E-01 10080   0.540E+01 0.684E+01
CGA:  25    -0.352940620388E+03   -0.81880E-01   -0.45832E-01 10080   0.298E+01 0.419E+01
CGA:  26    -0.353008488302E+03   -0.67868E-01   -0.44436E-01 10080   0.119E+01 0.150E+01
CGA:  27    -0.353168207678E+03   -0.15972E+00   -0.17031E+00 10080   0.774E+01-0.176E+00
CGA:  28    -0.353354140987E+03   -0.18593E+00   -0.10405E+00 10080   0.720E+01 0.498E+01
CGA:  29    -0.353450845001E+03   -0.96704E-01   -0.19861E+00 10080   0.270E+01-0.265E+01
CGA:  30    -0.353537969999E+03   -0.87125E-01   -0.79319E-01 10080   0.111E+01 0.518E-01
CGA:  31    -0.353610486309E+03   -0.72516E-01   -0.69173E-01 10080   0.128E+01-0.410E-02
CGA:  32    -0.353757423985E+03   -0.14694E+00   -0.15011E+00 10080   0.349E+01-0.648E-01
CGA:  33    -0.353832377906E+03   -0.74954E-01   -0.48053E-01 10080   0.103E+01 0.176E+01
CGA:  34    -0.353851765648E+03   -0.19388E-01   -0.28576E-01 10080   0.388E+00-0.275E+00
CGA:  35    -0.353870806368E+03   -0.19041E-01   -0.19179E-01 10080   0.308E+00-0.317E-02
CGA:  36    -0.353884539900E+03   -0.13734E-01   -0.13997E-01 10080   0.308E+00 0.112E-01
CGA:  37    -0.353906126026E+03   -0.21586E-01   -0.21768E-01 10080   0.273E+00 0.396E-02
CGA:  38    -0.353924119098E+03   -0.17993E-01   -0.17979E-01 10080   0.288E+00 0.204E-02
CGA:  39    -0.353946567956E+03   -0.22449E-01   -0.22396E-01 10080   0.136E+00-0.890E-02
CGA:  40    -0.353951976424E+03   -0.54085E-02   -0.56432E-02 10080   0.639E-01 0.698E-02
CGA:  41    -0.353955754893E+03   -0.37785E-02   -0.37448E-02 10080   0.351E-01-0.388E-02
CGA:  42    -0.353957901251E+03   -0.21464E-02   -0.21253E-02 10080   0.377E-01-0.292E-02
CGA:  43    -0.353962253042E+03   -0.43518E-02   -0.53742E-02 10080   0.455E-01-0.111E-01
CGA:  44    -0.353963833023E+03   -0.15800E-02   -0.15323E-02 10080   0.248E-01-0.126E-02
CGA:  45    -0.353965538180E+03   -0.17052E-02   -0.16993E-02 10080   0.133E-01-0.144E-02
CGA:  46    -0.353966495038E+03   -0.95686E-03   -0.95349E-03 10080   0.122E-01 0.169E-02
CGA:  47    -0.353967774724E+03   -0.12797E-02   -0.17217E-02 10080   0.183E-01-0.844E-02
CGA:  48    -0.353968165676E+03   -0.39095E-03   -0.55678E-03 10080   0.447E-02 0.417E-02
CGA:  49    -0.353968394631E+03   -0.22896E-03   -0.26757E-03 10080   0.294E-02 0.162E-02
CGA:  50    -0.353968757528E+03   -0.36290E-03   -0.37613E-03 10080   0.636E-02-0.626E-03
CGA:  51    -0.353968944997E+03   -0.18747E-03   -0.20093E-03 10080   0.616E-02 0.473E-03
CGA:  52    -0.353969101090E+03   -0.15609E-03   -0.18849E-03 10080   0.312E-02 0.838E-03
CGA:  53    -0.353969262149E+03   -0.16106E-03   -0.16024E-03 10080   0.381E-02-0.357E-04
CGA:  54    -0.353969578641E+03   -0.31649E-03   -0.33270E-03 10080   0.958E-02-0.778E-03
CGA:  55    -0.353969768147E+03   -0.18951E-03   -0.23186E-03 10080   0.864E-02 0.167E-02
CGA:  56    -0.353969893383E+03   -0.12524E-03   -0.22742E-03 10080   0.485E-02 0.349E-02
CGA:  57    -0.353969930975E+03   -0.37592E-04   -0.12303E-03 10080   0.181E-02 0.237E-02
CGA:  58    -0.353969940664E+03   -0.96896E-05   -0.46271E-04 10080   0.812E-03 0.861E-03
CGA:  59    -0.353969956876E+03   -0.16212E-04   -0.31282E-04 10080   0.109E-02 0.441E-03
CGA:  60    -0.353970011770E+03   -0.54893E-04   -0.16976E-03 10080   0.852E-02-0.118E-02
CGA:  61    -0.353970233581E+03   -0.22181E-03   -0.22021E-03 10080   0.683E-03-0.157E-03
CGA:  62    -0.353970232457E+03    0.11239E-05   -0.16661E-04 10080   0.411E-03 0.479E-03
CGA:  63    -0.353970252531E+03   -0.20074E-04   -0.21972E-04 10080   0.377E-03 0.277E-03
CGA:  64    -0.353970301089E+03   -0.48558E-04    0.15060E-03 10080   0.462E-03 0.190E-03
CGA:  65    -0.353970308767E+03   -0.76781E-05   -0.14027E-04 10080   0.300E-03 0.214E-03
CGA:  66    -0.353970419245E+03   -0.11048E-03   -0.86821E-04 10080   0.173E-02 0.172E-03
CGA:  67    -0.353970496498E+03   -0.77253E-04   -0.58427E-04 10080   0.576E-03-0.616E-03
CGA:  68    -0.353970509268E+03   -0.12770E-04   -0.17173E-04 10080   0.198E-03 0.251E-03
CGA:  69    -0.353970527692E+03   -0.18423E-04   -0.18284E-04 10080   0.441E-03 0.939E-04
CGA:  70    -0.353970622458E+03   -0.94766E-04    0.13171E-03 10080   0.532E-03 0.555E-03
CGA:  71    -0.353970642043E+03   -0.19585E-04   -0.18094E-04 10080   0.212E-03-0.544E-04
CGA:  72    -0.353970650961E+03   -0.89182E-05   -0.10214E-04 10080   0.168E-03 0.164E-03
CGA:  73    -0.353970679561E+03   -0.28600E-04    0.13268E-04 10080   0.204E-03 0.516E-04
CGA:  74    -0.353970719045E+03   -0.39484E-04    0.38479E-04 10080   0.168E-03 0.248E-03
CGA:  75    -0.353970717003E+03    0.20421E-05   -0.32366E-05 10080   0.114E-03 0.126E-03
   1 F= -.35397072E+03 E0= -.35396493E+03  d E =-.353971E+03  mag=    10.0000
       N       E                     dE             d eps       ncg     rms          ort
SDA:   1    -0.354004309411E+03   -0.33590E-01    0.00000E+00 10080   0.896E-02 0.000E+00
CGA:   2    -0.354004764072E+03   -0.45466E-03   -0.46892E-03 10080   0.652E-02 0.236E-02
CGA:   3    -0.354006284698E+03   -0.15206E-02   -0.20642E-02 10080   0.479E-02-0.283E-02
CGA:   4    -0.354006390334E+03   -0.10564E-03   -0.11186E-03 10080   0.311E-02 0.228E-03
CGA:   5    -0.354006554818E+03   -0.16448E-03   -0.18013E-03 10080   0.179E-02 0.139E-02
CGA:   6    -0.354006720130E+03   -0.16531E-03   -0.16589E-03 10080   0.147E-02 0.321E-03
CGA:   7    -0.354006831933E+03   -0.11180E-03   -0.11051E-03 10080   0.899E-03-0.630E-03
CGA:   8    -0.354006826927E+03    0.50064E-05   -0.88372E-05 10080   0.576E-03 0.285E-03
CGA:   9    -0.354006820271E+03    0.66560E-05   -0.12026E-04 10080   0.343E-03 0.393E-03
CGA:  10    -0.354006890914E+03   -0.70643E-04   -0.10184E-03 10080   0.877E-03-0.130E-03
CGA:  11    -0.354006897318E+03   -0.64046E-05   -0.14554E-04 10080   0.454E-03 0.178E-03
CGA:  12    -0.354006917537E+03   -0.20218E-04   -0.20513E-04 10080   0.270E-03 0.126E-04
CGA:  13    -0.354006982802E+03   -0.65265E-04    0.13450E-04 10080   0.448E-03-0.103E-03
CGA:  14    -0.354007036617E+03   -0.53815E-04    0.22806E-04 10080   0.933E-03-0.622E-04
CGA:  15    -0.354007044565E+03   -0.79485E-05   -0.21387E-04 10080   0.621E-03 0.332E-03
CGA:  16    -0.354007033448E+03    0.11117E-04   -0.12497E-04 10080   0.278E-03 0.467E-03
CGA:  17    -0.354007029482E+03    0.39669E-05   -0.48630E-05 10080   0.141E-03 0.190E-03
   2 F= -.35400703E+03 E0= -.35400135E+03  d E =-.363125E-01  mag=    10.0000
       N       E                     dE             d eps       ncg     rms          ort
SDA:   1    -0.352784360151E+03    0.12227E+01    0.00000E+00 10080   0.534E+01 0.000E+00
CGA:   2    -0.353481121954E+03   -0.69676E+00   -0.65392E+00 10080   0.105E+02 0.652E+00
CGA:   3    -0.354219171633E+03   -0.73805E+00   -0.73787E+00 10080   0.465E+01 0.486E+00
CGA:   4    -0.354404486480E+03   -0.18531E+00   -0.16758E+00 10080   0.152E+01 0.311E+00
CGA:   5    -0.354519001743E+03   -0.11452E+00   -0.11463E+00 10080   0.213E+01-0.557E-02
CGA:   6    -0.354626355821E+03   -0.10735E+00   -0.10773E+00 10080   0.105E+01-0.105E-01
CGA:   7    -0.354676627579E+03   -0.50272E-01   -0.47971E-01 10080   0.235E+00 0.204E-02
CGA:   8    -0.354686929207E+03   -0.10302E-01   -0.10239E-01 10080   0.163E+00-0.263E-02
CGA:   9    -0.354703260036E+03   -0.16331E-01   -0.16914E-01 10080   0.272E+00-0.131E-01
CGA:  10    -0.354712890554E+03   -0.96305E-02   -0.96900E-02 10080   0.364E-01 0.188E-01
CGA:  11    -0.354713975394E+03   -0.10848E-02   -0.12409E-02 10080   0.249E-01 0.551E-02
CGA:  12    -0.354718670580E+03   -0.46952E-02   -0.53426E-02 10080   0.101E+00-0.507E-02
CGA:  13    -0.354720786211E+03   -0.21156E-02   -0.19636E-02 10080   0.279E-01-0.510E-02
CGA:  14    -0.354721305639E+03   -0.51943E-03   -0.53284E-03 10080   0.119E-01-0.150E-03
CGA:  15    -0.354721661180E+03   -0.35554E-03   -0.41756E-03 10080   0.158E-01 0.260E-02
CGA:  16    -0.354722472039E+03   -0.81086E-03   -0.86556E-03 10080   0.179E-01 0.390E-02
CGA:  17    -0.354723550033E+03   -0.10780E-02   -0.10519E-02 10080   0.161E-01-0.217E-02
CGA:  18    -0.354724079240E+03   -0.52921E-03   -0.46088E-03 10080   0.655E-02-0.278E-02
CGA:  19    -0.354724153072E+03   -0.73832E-04   -0.10195E-03 10080   0.291E-02 0.762E-03
CGA:  20    -0.354724171430E+03   -0.18358E-04   -0.63051E-04 10080   0.254E-02 0.127E-02
CGA:  21    -0.354724254102E+03   -0.82672E-04   -0.11956E-03 10080   0.403E-02 0.178E-02
CGA:  22    -0.354724296164E+03   -0.42062E-04   -0.41763E-03 10080   0.273E-01-0.731E-02
CGA:  23    -0.354724700884E+03   -0.40472E-03   -0.55608E-03 10080   0.156E-02 0.546E-02
CGA:  24    -0.354724699795E+03    0.10895E-05   -0.30366E-04 10080   0.662E-03 0.859E-03
CGA:  25    -0.354724822194E+03   -0.12240E-03   -0.91288E-04 10080   0.840E-03 0.362E-03
CGA:  26    -0.354724801070E+03    0.21123E-04   -0.11734E-03 10080   0.906E-02-0.164E-02
CGA:  27    -0.354724953077E+03   -0.15201E-03   -0.20011E-03 10080   0.450E-03 0.134E-02
CGA:  28    -0.354724957087E+03   -0.40092E-05   -0.12424E-04 10080   0.290E-03 0.247E-03
CGA:  29    -0.354724998341E+03   -0.41254E-04    0.31449E-04 10080   0.274E-03 0.223E-03
CGA:  30    -0.354725008880E+03   -0.10539E-04   -0.12664E-04 10080   0.255E-03 0.207E-03
CGA:  31    -0.354725040035E+03   -0.31156E-04    0.76579E-04 10080   0.257E-03 0.188E-03
CGA:  32    -0.354725052010E+03   -0.11975E-04   -0.12911E-04 10080   0.255E-03 0.161E-03
CGA:  33    -0.354724963576E+03    0.88434E-04   -0.52035E-04 10080   0.106E-01-0.582E-03
CGA:  34    -0.354725190522E+03   -0.22695E-03   -0.25088E-03 10080   0.167E-03 0.115E-03
CGA:  35    -0.354725185474E+03    0.50486E-05   -0.44250E-05 10080   0.140E-03 0.133E-03
CGA:  36    -0.354725215928E+03   -0.30454E-04    0.41766E-04 10080   0.153E-03 0.126E-03
CGA:  37    -0.354725218308E+03   -0.23798E-05   -0.73590E-05 10080   0.151E-03 0.108E-03
CGA:  38    -0.354725253276E+03   -0.34969E-04    0.26380E-04 10080   0.294E-03 0.662E-04
CGA:  39    -0.354725337909E+03   -0.84632E-04   -0.67193E-04 10080   0.302E-03 0.271E-03
CGA:  40    -0.354725360921E+03   -0.23013E-04   -0.16458E-04 10080   0.442E-03-0.161E-03
CGA:  41    -0.354725367967E+03   -0.70454E-05   -0.11460E-04 10080   0.104E-03 0.640E-04
   3 F= -.35472537E+03 E0= -.35471871E+03  d E =-.718338E+00  mag=    10.0000
       N       E                     dE             d eps       ncg     rms          ort
SDA:   1    -0.352708953078E+03    0.20164E+01    0.00000E+00 10080   0.715E+01 0.000E+00
CGA:   2    -0.353405274843E+03   -0.69632E+00   -0.67881E+00 10080   0.820E+01 0.154E+01
CGA:   3    -0.354270426073E+03   -0.86515E+00   -0.81246E+00 10080   0.102E+02-0.267E+01
CGA:   4    -0.354628649454E+03   -0.35822E+00   -0.36405E+00 10080   0.413E+01-0.411E-01
CGA:   5    -0.354722668410E+03   -0.94019E-01   -0.14548E+00 10080   0.230E+01-0.100E+01
CGA:   6    -0.354852070670E+03   -0.12940E+00   -0.12754E+00 10080   0.170E+01-0.358E-01
CGA:   7    -0.354915733135E+03   -0.63662E-01   -0.66978E-01 10080   0.705E+00-0.426E-01
CGA:   8    -0.354947383457E+03   -0.31650E-01   -0.33304E-01 10080   0.386E+00-0.166E-01
CGA:   9    -0.354965042887E+03   -0.17659E-01   -0.17939E-01 10080   0.310E+00 0.156E-01
CGA:  10    -0.354983571523E+03   -0.18529E-01   -0.18694E-01 10080   0.177E+00-0.323E-02
CGA:  11    -0.354992623788E+03   -0.90523E-02   -0.90731E-02 10080   0.156E+00-0.115E-01
CGA:  12    -0.354998666782E+03   -0.60430E-02   -0.62125E-02 10080   0.559E-01 0.101E-01
CGA:  13    -0.355001853674E+03   -0.31869E-02   -0.32340E-02 10080   0.618E-01 0.234E-02
CGA:  14    -0.355007050139E+03   -0.51965E-02   -0.52779E-02 10080   0.794E-01-0.106E-01
CGA:  15    -0.355009385928E+03   -0.23358E-02   -0.23946E-02 10080   0.276E-01 0.235E-02
CGA:  16    -0.355010261670E+03   -0.87574E-03   -0.98195E-03 10080   0.154E-01 0.370E-02
CGA:  17    -0.355011321632E+03   -0.10600E-02   -0.10403E-02 10080   0.256E-01-0.201E-02
CGA:  18    -0.355013169598E+03   -0.18480E-02   -0.19318E-02 10080   0.353E-01-0.486E-02
CGA:  19    -0.355013663127E+03   -0.49353E-03   -0.54036E-03 10080   0.890E-02 0.156E-02
CGA:  20    -0.355013800336E+03   -0.13721E-03   -0.18544E-03 10080   0.530E-02 0.117E-02
CGA:  21    -0.355014113838E+03   -0.31350E-03   -0.31202E-03 10080   0.117E-01-0.545E-04
CGA:  22    -0.355014763000E+03   -0.64916E-03   -0.60359E-03 10080   0.218E-01-0.357E-02
CGA:  23    -0.355015213495E+03   -0.45050E-03   -0.37358E-03 10080   0.196E-01-0.232E-02
CGA:  24    -0.355015482071E+03   -0.26858E-03   -0.29196E-03 10080   0.734E-02 0.504E-03
CGA:  25    -0.355015531947E+03   -0.49876E-04   -0.99229E-04 10080   0.316E-02 0.121E-02
CGA:  26    -0.355015557219E+03   -0.25272E-04   -0.62053E-04 10080   0.302E-02 0.941E-03
CGA:  27    -0.355015661185E+03   -0.10397E-03   -0.12311E-03 10080   0.597E-02 0.818E-03
CGA:  28    -0.355015983518E+03   -0.32233E-03   -0.31111E-03 10080   0.115E-01-0.808E-03
CGA:  29    -0.355016248771E+03   -0.26525E-03   -0.19819E-03 10080   0.108E-01-0.199E-02
CGA:  30    -0.355016433865E+03   -0.18509E-03   -0.12870E-03 10080   0.583E-02-0.157E-02
CGA:  31    -0.355016508741E+03   -0.74876E-04   -0.58546E-04 10080   0.262E-02-0.396E-03
SDA:  32    -0.355016537639E+03   -0.28897E-04   -0.30208E-04 10080   0.171E-02 0.558E-04
CGA:  33    -0.355016919400E+03   -0.38176E-03   -0.29202E-03 10080   0.146E-02 0.715E-03
CGA:  34    -0.355017053843E+03   -0.13444E-03   -0.19593E-03 10080   0.558E-02-0.146E-02
CGA:  35    -0.355017132664E+03   -0.78820E-04   -0.11353E-03 10080   0.331E-03 0.103E-02
CGA:  36    -0.355017136561E+03   -0.38978E-05   -0.86978E-05 10080   0.203E-03 0.154E-03
CGA:  37    -0.355017165255E+03   -0.28693E-04   -0.25591E-04 10080   0.907E-03 0.869E-04
CGA:  38    -0.355017290335E+03   -0.12508E-03   -0.24667E-03 10080   0.385E-02-0.917E-03
CGA:  39    -0.355017381545E+03   -0.91210E-04   -0.97960E-04 10080   0.368E-03 0.199E-03
CGA:  40    -0.355017414784E+03   -0.33239E-04   -0.10815E-03 10080   0.378E-02-0.336E-03
CGA:  41    -0.355017475787E+03   -0.61003E-04   -0.91322E-04 10080   0.402E-03 0.711E-03
CGA:  42    -0.355017506661E+03   -0.30873E-04   -0.38296E-04 10080   0.923E-03-0.567E-03
CGA:  43    -0.355017530652E+03   -0.23992E-04   -0.29616E-04 10080   0.101E-03 0.158E-03
CGA:  44    -0.355017532844E+03   -0.21916E-05   -0.38903E-05 10080   0.571E-04 0.510E-04
CGA:  45    -0.355017541328E+03   -0.84845E-05    0.11789E-04 10080   0.517E-04 0.504E-04
   4 F= -.35501754E+03 E0= -.35501106E+03  d E =-.292173E+00  mag=    10.0000
       N       E                     dE             d eps       ncg     rms          ort
SDA:   1    -0.354952930398E+03    0.64602E-01    0.00000E+00 10080   0.384E+00 0.000E+00
CGA:   2    -0.354969538831E+03   -0.16608E-01   -0.16797E-01 10080   0.305E+00-0.159E-01
CGA:   3    -0.355009103046E+03   -0.39564E-01   -0.38604E-01 10080   0.209E+00 0.138E-01
CGA:   4    -0.355016979053E+03   -0.78760E-02   -0.78464E-02 10080   0.790E-01-0.967E-02
CGA:   5    -0.355025332203E+03   -0.83531E-02   -0.81467E-02 10080   0.511E-01 0.479E-02
CGA:   6    -0.355028583889E+03   -0.32517E-02   -0.32191E-02 10080   0.252E-01-0.522E-02
CGA:   7    -0.355029316045E+03   -0.73216E-03   -0.81984E-03 10080   0.752E-02 0.292E-02
CGA:   8    -0.355030116395E+03   -0.80035E-03   -0.81461E-03 10080   0.959E-02-0.456E-03
CGA:   9    -0.355030597493E+03   -0.48110E-03   -0.47809E-03 10080   0.511E-02-0.262E-03
CGA:  10    -0.355030796050E+03   -0.19856E-03   -0.20889E-03 10080   0.146E-02 0.448E-03
CGA:  11    -0.355030881098E+03   -0.85048E-04   -0.17414E-03 10080   0.972E-02-0.203E-02
CGA:  12    -0.355031025432E+03   -0.14433E-03   -0.20958E-03 10080   0.675E-03 0.153E-02
CGA:  13    -0.355031040108E+03   -0.14676E-04   -0.23633E-04 10080   0.411E-03 0.256E-03
CGA:  14    -0.355031087501E+03   -0.47393E-04   -0.46646E-04 10080   0.870E-03 0.390E-04
CGA:  15    -0.355031140231E+03   -0.52730E-04   -0.53684E-04 10080   0.107E-02 0.121E-03
CGA:  16    -0.355031182002E+03   -0.41771E-04   -0.43031E-04 10080   0.347E-03 0.448E-04
CGA:  17    -0.355031203378E+03   -0.21375E-04   -0.28496E-04 10080   0.130E-02-0.437E-03
CGA:  18    -0.355031228736E+03   -0.25359E-04   -0.34758E-04 10080   0.243E-03 0.259E-03
CGA:  19    -0.355031252642E+03   -0.23905E-04   -0.25154E-04 10080   0.451E-03-0.503E-04
CGA:  20    -0.355031278137E+03   -0.25495E-04   -0.25965E-04 10080   0.655E-03-0.482E-04
CGA:  21    -0.355031311215E+03   -0.33078E-04   -0.29839E-04 10080   0.188E-03-0.267E-03
CGA:  22    -0.355031340086E+03   -0.28871E-04    0.32249E-05 10080   0.376E-03-0.136E-03
CGA:  23    -0.355031337794E+03    0.22919E-05   -0.66707E-05 10080   0.141E-03 0.200E-03
   5 F= -.35503134E+03 E0= -.35502497E+03  d E =-.137965E-01  mag=    10.0000
       N       E                     dE             d eps       ncg     rms          ort
SDA:   1    -0.354899805829E+03    0.13153E+00    0.00000E+00 10080   0.407E+00 0.000E+00
CGA:   2    -0.354983451970E+03   -0.83646E-01   -0.84610E-01 10080   0.551E+00-0.583E-02
CGA:   3    -0.355003950135E+03   -0.20498E-01   -0.20181E-01 10080   0.194E+00 0.241E-01
CGA:   4    -0.355025055912E+03   -0.21106E-01   -0.21084E-01 10080   0.207E+00-0.376E-03
CGA:   5    -0.355035088974E+03   -0.10033E-01   -0.10037E-01 10080   0.724E-01 0.283E-02
CGA:   6    -0.355038254594E+03   -0.31656E-02   -0.31290E-02 10080   0.195E-01-0.318E-02
CGA:   7    -0.355041529317E+03   -0.32747E-02   -0.33596E-02 10080   0.491E-02-0.739E-03
CGA:   8    -0.355041747513E+03   -0.21820E-03   -0.23178E-03 10080   0.414E-02 0.630E-03
CGA:   9    -0.355042300578E+03   -0.55306E-03   -0.74080E-03 10080   0.878E-02-0.212E-02
CGA:  10    -0.355042415512E+03   -0.11493E-03   -0.20001E-03 10080   0.140E-02 0.175E-02
CGA:  11    -0.355042468709E+03   -0.53197E-04   -0.64673E-04 10080   0.716E-03 0.349E-03
CGA:  12    -0.355042460879E+03    0.78303E-05   -0.15991E-03 10080   0.108E-01-0.154E-02
CGA:  13    -0.355042594904E+03   -0.13402E-03   -0.21723E-03 10080   0.860E-03 0.162E-02
CGA:  14    -0.355042625587E+03   -0.30684E-04   -0.34029E-04 10080   0.322E-03 0.911E-04
CGA:  15    -0.355042693003E+03   -0.67416E-04    0.36994E-04 10080   0.921E-03-0.249E-03
CGA:  16    -0.355042686439E+03    0.65642E-05   -0.15314E-04 10080   0.247E-03 0.406E-03
   6 F= -.35504269E+03 E0= -.35503640E+03  d E =-.113486E-01  mag=    10.0000
       N       E                     dE             d eps       ncg     rms          ort
SDA:   1    -0.354875935152E+03    0.16676E+00    0.00000E+00 10080   0.532E+00 0.000E+00
CGA:   2    -0.354951207493E+03   -0.75272E-01   -0.75189E-01 10080   0.113E+01-0.691E-04
CGA:   3    -0.354997730165E+03   -0.46523E-01   -0.46701E-01 10080   0.336E+00-0.291E-01
CGA:   4    -0.355020053248E+03   -0.22323E-01   -0.22325E-01 10080   0.194E+00 0.484E-02
CGA:   5    -0.355040344229E+03   -0.20291E-01   -0.20545E-01 10080   0.142E+00-0.791E-02
CGA:   6    -0.355044019848E+03   -0.36756E-02   -0.38574E-02 10080   0.178E-01 0.772E-02
CGA:   7    -0.355046998129E+03   -0.29783E-02   -0.31121E-02 10080   0.383E-01-0.138E-02
CGA:   8    -0.355048162665E+03   -0.11645E-02   -0.11188E-02 10080   0.426E-02-0.160E-02
CGA:   9    -0.355048301391E+03   -0.13873E-03   -0.16634E-03 10080   0.388E-02 0.942E-03
CGA:  10    -0.355048868496E+03   -0.56710E-03   -0.54376E-03 10080   0.203E-02 0.507E-03
CGA:  11    -0.355049028162E+03   -0.15967E-03   -0.13471E-03 10080   0.465E-02-0.202E-02
CGA:  12    -0.355049047583E+03   -0.19421E-04   -0.81259E-04 10080   0.580E-03 0.118E-02
CGA:  13    -0.355049043222E+03    0.43610E-05   -0.13885E-04 10080   0.429E-03 0.374E-03
CGA:  14    -0.355049115707E+03   -0.72485E-04    0.48175E-04 10080   0.461E-03 0.223E-03
CGA:  15    -0.355049110029E+03    0.56774E-05   -0.79249E-05 10080   0.245E-03 0.281E-03
CGA:  16    -0.355049127269E+03   -0.17240E-04   -0.16439E-04 10080   0.211E-03 0.196E-03
CGA:  17    -0.355049171090E+03   -0.43821E-04    0.10301E-04 10080   0.270E-03 0.109E-03
CGA:  18    -0.355049165984E+03    0.51060E-05   -0.38705E-05 10080   0.159E-03 0.183E-03
   7 F= -.35504917E+03 E0= -.35504301E+03  d E =-.647955E-02  mag=    10.0000
       N       E                     dE             d eps       ncg     rms          ort
SDA:   1    -0.353966961572E+03    0.10822E+01    0.00000E+00 10080   0.335E+01 0.000E+00
CGA:   2    -0.354476726921E+03   -0.50977E+00   -0.50436E+00 10080   0.597E+01 0.609E-01
CGA:   3    -0.354754556928E+03   -0.27783E+00   -0.28023E+00 10080   0.151E+01 0.105E-01
CGA:   4    -0.354910829487E+03   -0.15627E+00   -0.16149E+00 10080   0.176E+01-0.122E+00
CGA:   5    -0.354995747831E+03   -0.84918E-01   -0.85342E-01 10080   0.711E+00-0.148E-01
CGA:   6    -0.355021637175E+03   -0.25889E-01   -0.24932E-01 10080   0.120E+00 0.364E-01
CGA:   7    -0.355037933413E+03   -0.16296E-01   -0.16339E-01 10080   0.167E+00-0.852E-03
CGA:   8    -0.355046099604E+03   -0.81662E-02   -0.81041E-02 10080   0.298E-01-0.493E-02
CGA:   9    -0.355047723706E+03   -0.16241E-02   -0.16346E-02 10080   0.187E-01 0.151E-02
CGA:  10    -0.355050045848E+03   -0.23221E-02   -0.28289E-02 10080   0.526E-01-0.648E-02
CGA:  11    -0.355050717519E+03   -0.67167E-03   -0.77131E-03 10080   0.170E-01 0.236E-02
CGA:  12    -0.355050874947E+03   -0.15743E-03   -0.26940E-03 10080   0.523E-02 0.241E-02
CGA:  13    -0.355050983395E+03   -0.10845E-03   -0.16361E-03 10080   0.670E-02 0.152E-02
CGA:  14    -0.355051460274E+03   -0.47688E-03   -0.48030E-03 10080   0.102E-01 0.496E-03
CGA:  15    -0.355051903154E+03   -0.44288E-03   -0.37511E-03 10080   0.802E-02-0.251E-02
CGA:  16    -0.355052105874E+03   -0.20272E-03   -0.17139E-03 10080   0.499E-02-0.101E-02
CGA:  17    -0.355052151314E+03   -0.45440E-04   -0.66482E-04 10080   0.198E-02 0.531E-03
CGA:  18    -0.355052163565E+03   -0.12251E-04   -0.36217E-04 10080   0.160E-02 0.604E-03
CGA:  19    -0.355052223100E+03   -0.59535E-04   -0.72870E-04 10080   0.331E-02 0.671E-03
CGA:  20    -0.355052495414E+03   -0.27231E-03   -0.27527E-03 10080   0.378E-02-0.618E-03
CGA:  21    -0.355052597158E+03   -0.10174E-03   -0.66393E-04 10080   0.159E-02-0.111E-02
CGA:  22    -0.355052625432E+03   -0.28275E-04   -0.22207E-04 10080   0.937E-03-0.194E-03
CGA:  23    -0.355052626424E+03   -0.99153E-06   -0.10825E-04 10080   0.599E-03 0.262E-03
   8 F= -.35505263E+03 E0= -.35504694E+03  d E =-.346044E-02  mag=    10.0000
       N       E                     dE             d eps       ncg     rms          ort
SDA:   1    -0.354838522326E+03    0.21410E+00    0.00000E+00 10080   0.576E+00 0.000E+00
CGA:   2    -0.354956662392E+03   -0.11814E+00   -0.11532E+00 10080   0.897E+00 0.216E-01
CGA:   3    -0.354994246185E+03   -0.37584E-01   -0.37120E-01 10080   0.302E+00 0.120E-01
CGA:   4    -0.355016915221E+03   -0.22669E-01   -0.22583E-01 10080   0.210E+00-0.147E-02
CGA:   5    -0.355031852585E+03   -0.14937E-01   -0.14814E-01 10080   0.144E+00 0.875E-02
CGA:   6    -0.355038778991E+03   -0.69264E-02   -0.68902E-02 10080   0.238E-01-0.693E-02
CGA:   7    -0.355041618478E+03   -0.28395E-02   -0.27010E-02 10080   0.185E-01 0.218E-02
CGA:   8    -0.355042776073E+03   -0.11576E-02   -0.11477E-02 10080   0.198E-01-0.672E-02
CGA:   9    -0.355043349421E+03   -0.57335E-03   -0.59523E-03 10080   0.559E-02 0.198E-02
CGA:  10    -0.355043420040E+03   -0.70620E-04   -0.13237E-03 10080   0.209E-02 0.172E-02
CGA:  11    -0.355043551770E+03   -0.13173E-03   -0.13736E-03 10080   0.340E-02 0.951E-03
CGA:  12    -0.355043953484E+03   -0.40171E-03   -0.47230E-03 10080   0.525E-02-0.179E-02
CGA:  13    -0.355044019193E+03   -0.65709E-04   -0.10921E-03 10080   0.790E-03 0.120E-02
CGA:  14    -0.355044049254E+03   -0.30061E-04   -0.36075E-04 10080   0.724E-03 0.322E-03
CGA:  15    -0.355044093966E+03   -0.44712E-04   -0.15934E-03 10080   0.446E-02-0.113E-02
CGA:  16    -0.355044179204E+03   -0.85238E-04   -0.11832E-03 10080   0.766E-03 0.103E-02
CGA:  17    -0.355044236670E+03   -0.57466E-04   -0.60409E-04 10080   0.668E-03-0.511E-03
CGA:  18    -0.355044262171E+03   -0.25501E-04   -0.28031E-04 10080   0.128E-03 0.152E-03
CGA:  19    -0.355044272849E+03   -0.10678E-04   -0.10105E-04 10080   0.153E-03 0.891E-04
CGA:  20    -0.355044282386E+03   -0.95370E-05   -0.35258E-04 10080   0.112E-02-0.150E-03
CGA:  21    -0.355044323295E+03   -0.40909E-04   -0.42837E-04 10080   0.150E-03 0.636E-04
CGA:  22    -0.355044322686E+03    0.60882E-06   -0.33286E-05 10080   0.715E-04 0.888E-04
   9 F= -.35504432E+03 E0= -.35503869E+03  d E =0.830374E-02  mag=    10.0000
       N       E                     dE             d eps       ncg     rms          ort
SDA:   1    -0.354998047140E+03    0.46276E-01    0.00000E+00 10080   0.383E+00 0.000E+00
CGA:   2    -0.355010029690E+03   -0.11983E-01   -0.11665E-01 10080   0.119E+00 0.173E-01
CGA:   3    -0.355031442547E+03   -0.21413E-01   -0.22189E-01 10080   0.230E+00-0.656E-02
CGA:   4    -0.355039295124E+03   -0.78526E-02   -0.78847E-02 10080   0.539E-01 0.971E-02
CGA:   5    -0.355043060995E+03   -0.37659E-02   -0.37639E-02 10080   0.447E-01-0.361E-03
CGA:   6    -0.355045895797E+03   -0.28348E-02   -0.28004E-02 10080   0.473E-01-0.647E-02
CGA:   7    -0.355047608953E+03   -0.17132E-02   -0.17717E-02 10080   0.100E-01 0.259E-02
CGA:   8    -0.355047799553E+03   -0.19060E-03   -0.26287E-03 10080   0.361E-02 0.183E-02
CGA:   9    -0.355048117131E+03   -0.31758E-03   -0.31304E-03 10080   0.685E-02 0.557E-03
CGA:  10    -0.355048589510E+03   -0.47238E-03   -0.46208E-03 10080   0.277E-02-0.144E-02
CGA:  11    -0.355048639170E+03   -0.49661E-04   -0.58638E-04 10080   0.121E-02 0.238E-03
CGA:  12    -0.355048687586E+03   -0.48416E-04   -0.52233E-04 10080   0.108E-02 0.167E-03
CGA:  13    -0.355048752460E+03   -0.64874E-04   -0.15412E-03 10080   0.610E-02-0.141E-02
CGA:  14    -0.355048876573E+03   -0.12411E-03   -0.16080E-03 10080   0.759E-03 0.999E-03
CGA:  15    -0.355048915083E+03   -0.38510E-04   -0.37621E-04 10080   0.181E-03-0.433E-04
CGA:  16    -0.355048923444E+03   -0.83613E-05   -0.89713E-05 10080   0.175E-03 0.617E-04
CGA:  17    -0.355048951574E+03   -0.28129E-04   -0.27749E-04 10080   0.164E-03 0.678E-05
CGA:  18    -0.355048991889E+03   -0.40315E-04    0.66844E-05 10080   0.225E-03-0.757E-04
CGA:  19    -0.355048991194E+03    0.69527E-06   -0.22642E-05 10080   0.163E-03 0.644E-04
  10 F= -.35504899E+03 E0= -.35504349E+03  d E =-.466851E-02  mag=    10.0000
       N       E                     dE             d eps       ncg     rms          ort
SDA:   1    -0.355038493670E+03    0.10498E-01    0.00000E+00 10080   0.102E+00 0.000E+00
CGA:   2    -0.355041907727E+03   -0.34141E-02   -0.32509E-02 10080   0.310E-01-0.106E-01
CGA:   3    -0.355044975405E+03   -0.30677E-02   -0.28223E-02 10080   0.273E-01 0.565E-02
CGA:   4    -0.355046763038E+03   -0.17876E-02   -0.17699E-02 10080   0.197E-01-0.362E-02
CGA:   5    -0.355048022562E+03   -0.12595E-02   -0.12416E-02 10080   0.461E-02 0.141E-02
CGA:   6    -0.355048453281E+03   -0.43072E-03   -0.71954E-03 10080   0.201E-01-0.341E-02
CGA:   7    -0.355048737055E+03   -0.28377E-03   -0.39688E-03 10080   0.117E-02 0.267E-02
CGA:   8    -0.355048771265E+03   -0.34210E-04   -0.43221E-04 10080   0.615E-03 0.303E-03
CGA:   9    -0.355047381302E+03    0.13900E-02   -0.76351E-03 10080   0.481E-01-0.507E-02
CGA:  10    -0.355048593782E+03   -0.12125E-02   -0.13813E-02 10080   0.680E-02 0.536E-02
CGA:  11    -0.355048885661E+03   -0.29188E-03   -0.27808E-03 10080   0.404E-03-0.379E-03
CGA:  12    -0.355048966429E+03   -0.80768E-04   -0.84415E-04 10080   0.135E-03-0.309E-04
CGA:  13    -0.355048941808E+03    0.24620E-04   -0.26652E-04 10080   0.313E-02-0.494E-03
CGA:  14    -0.355048958698E+03   -0.16890E-04   -0.64180E-04 10080   0.268E-03 0.525E-03
CGA:  15    -0.355048967195E+03   -0.84971E-05   -0.10450E-04 10080   0.768E-04 0.269E-04
  11 F= -.35504897E+03 E0= -.35504351E+03  d E =0.239983E-04  mag=    10.0000
       N       E                     dE             d eps       ncg     rms          ort
SDA:   1    -0.354940482834E+03    0.10848E+00    0.00000E+00 10080   0.207E+01 0.000E+00
CGA:   2    -0.354986136807E+03   -0.45654E-01   -0.59696E-01 10080   0.439E+00-0.487E+00
CGA:   3    -0.355008758713E+03   -0.22622E-01   -0.22528E-01 10080   0.214E+00 0.104E-01
CGA:   4    -0.355026697352E+03   -0.17939E-01   -0.17832E-01 10080   0.239E+00-0.102E-01
CGA:   5    -0.355038748917E+03   -0.12052E-01   -0.12321E-01 10080   0.549E-01 0.104E-01
CGA:   6    -0.355043850548E+03   -0.51016E-02   -0.50578E-02 10080   0.681E-01-0.600E-02
CGA:   7    -0.355046481852E+03   -0.26313E-02   -0.28020E-02 10080   0.183E-01 0.393E-02
CGA:   8    -0.355047724220E+03   -0.12424E-02   -0.12594E-02 10080   0.323E-02 0.478E-03
CGA:   9    -0.355048141367E+03   -0.41715E-03   -0.87394E-03 10080   0.211E-01-0.267E-02
CGA:  10    -0.355048441826E+03   -0.30046E-03   -0.45537E-03 10080   0.174E-02 0.248E-02
CGA:  11    -0.355048490992E+03   -0.49166E-04   -0.71667E-04 10080   0.558E-03 0.378E-03
CGA:  12    -0.355048555431E+03   -0.64439E-04   -0.61718E-04 10080   0.274E-02-0.733E-03
CGA:  13    -0.355048572322E+03   -0.16891E-04   -0.57342E-04 10080   0.358E-03 0.567E-03
CGA:  14    -0.355048587832E+03   -0.15510E-04   -0.17252E-04 10080   0.218E-03 0.363E-04
CGA:  15    -0.355048649674E+03   -0.61842E-04    0.23059E-04 10080   0.904E-03-0.222E-03
CGA:  16    -0.355048642260E+03    0.74144E-05   -0.17203E-04 10080   0.215E-03 0.359E-03
  12 F= -.35504864E+03 E0= -.35504317E+03  d E =0.324935E-03  mag=    10.0000
       N       E                     dE             d eps       ncg     rms          ort
SDA:   1    -0.354921929701E+03    0.12672E+00    0.00000E+00 10080   0.327E+00 0.000E+00
CGA:   2    -0.354991620881E+03   -0.69691E-01   -0.69688E-01 10080   0.789E+00-0.581E-04
CGA:   3    -0.355024127009E+03   -0.32506E-01   -0.33239E-01 10080   0.158E+00-0.860E-02
CGA:   4    -0.355032618277E+03   -0.84913E-02   -0.85455E-02 10080   0.910E-01 0.834E-02
CGA:   5    -0.355039632877E+03   -0.70146E-02   -0.69427E-02 10080   0.985E-01-0.758E-02
CGA:   6    -0.355044720192E+03   -0.50873E-02   -0.51028E-02 10080   0.844E-02 0.225E-02
CGA:   7    -0.355045522165E+03   -0.80197E-03   -0.79266E-03 10080   0.110E-01 0.995E-03
CGA:   8    -0.355046405929E+03   -0.88376E-03   -0.84343E-03 10080   0.991E-02-0.297E-02
CGA:   9    -0.355046544062E+03   -0.13813E-03   -0.20369E-03 10080   0.240E-02 0.127E-02
CGA:  10    -0.355046546685E+03   -0.26230E-05   -0.52138E-04 10080   0.110E-02 0.837E-03
CGA:  11    -0.355046578575E+03   -0.31890E-04   -0.55838E-04 10080   0.152E-02 0.620E-03
CGA:  12    -0.355046562989E+03    0.15586E-04   -0.19990E-03 10080   0.206E-01-0.378E-02
CGA:  13    -0.355046801497E+03   -0.23851E-03   -0.38907E-03 10080   0.679E-03 0.287E-02
CGA:  14    -0.355046791524E+03    0.99722E-05   -0.11490E-04 10080   0.255E-03 0.362E-03
  13 F= -.35504679E+03 E0= -.35504124E+03  d E =0.185074E-02  mag=    10.0000
       N       E                     dE             d eps       ncg     rms          ort
SDA:   1    -0.354636820516E+03    0.40998E+00    0.00000E+00 10080   0.105E+01 0.000E+00
CGA:   2    -0.354881363946E+03   -0.24454E+00   -0.24572E+00 10080   0.177E+01-0.152E-01
CGA:   3    -0.354960023055E+03   -0.78659E-01   -0.83265E-01 10080   0.703E+00-0.572E-01
CGA:   4    -0.354992717162E+03   -0.32694E-01   -0.31125E-01 10080   0.313E+00 0.263E-01
CGA:   5    -0.355020776335E+03   -0.28059E-01   -0.28043E-01 10080   0.300E+00-0.151E-02
CGA:   6    -0.355033370118E+03   -0.12594E-01   -0.12473E-01 10080   0.311E-01 0.169E-02
CGA:   7    -0.355037752446E+03   -0.43823E-02   -0.41464E-02 10080   0.487E-01 0.401E-02
CGA:   8    -0.355040228588E+03   -0.24761E-02   -0.22727E-02 10080   0.123E-01-0.653E-02
CGA:   9    -0.355040676148E+03   -0.44756E-03   -0.49592E-03 10080   0.445E-02 0.171E-02
CGA:  10    -0.355041479657E+03   -0.80351E-03   -0.84879E-03 10080   0.874E-02-0.490E-03
CGA:  11    -0.355041750675E+03   -0.27102E-03   -0.28380E-03 10080   0.113E-02 0.322E-03
CGA:  12    -0.355041623314E+03    0.12736E-03   -0.31229E-03 10080   0.226E-01-0.229E-02
CGA:  13    -0.355042115177E+03   -0.49186E-03   -0.56639E-03 10080   0.720E-03 0.166E-02
CGA:  14    -0.355042127813E+03   -0.12636E-04   -0.26794E-04 10080   0.308E-03 0.297E-03
CGA:  15    -0.355042161134E+03   -0.33321E-04   -0.33363E-04 10080   0.504E-03 0.131E-04
CGA:  16    -0.355042170481E+03   -0.93470E-05   -0.12567E-03 10080   0.208E-02-0.729E-03
CGA:  17    -0.355042239189E+03   -0.68709E-04   -0.80500E-04 10080   0.502E-03 0.261E-03
CGA:  18    -0.355042339889E+03   -0.10070E-03    0.57194E-03 10080   0.710E-03-0.898E-04
CGA:  19    -0.355042358210E+03   -0.18322E-04   -0.27311E-04 10080   0.446E-03 0.233E-03
CGA:  20    -0.355042358821E+03   -0.61047E-06   -0.14754E-04 10080   0.106E-03 0.243E-03
CGA:  21    -0.355042339390E+03    0.19431E-04   -0.21486E-04 10080   0.191E-02-0.336E-03
CGA:  22    -0.355042352278E+03   -0.12888E-04   -0.40205E-04 10080   0.239E-03 0.425E-03
CGA:  23    -0.355042366837E+03   -0.14559E-04   -0.12214E-04 10080   0.863E-04-0.547E-04
CGA:  24    -0.355042406924E+03   -0.40087E-04    0.10033E-05 10080   0.451E-03-0.156E-03
CGA:  25    -0.355042397487E+03    0.94372E-05   -0.57019E-05 10080   0.120E-03 0.220E-03
  14 F= -.35504240E+03 E0= -.35503684E+03  d E =0.439404E-02  mag=    10.0000
       N       E                     dE             d eps       ncg     rms          ort
SDA:   1    -0.354956806630E+03    0.85600E-01    0.00000E+00 10080   0.337E+00 0.000E+00
CGA:   2    -0.354979153101E+03   -0.22346E-01   -0.22367E-01 10080   0.504E+00-0.120E-01
CGA:   3    -0.355015954025E+03   -0.36801E-01   -0.36815E-01 10080   0.311E+00-0.798E-03
CGA:   4    -0.355035691819E+03   -0.19738E-01   -0.19871E-01 10080   0.589E-01 0.592E-02
CGA:   5    -0.355039610767E+03   -0.39189E-02   -0.39263E-02 10080   0.722E-01 0.371E-03
CGA:   6    -0.355045033572E+03   -0.54228E-02   -0.54164E-02 10080   0.184E-01 0.488E-02
CGA:   7    -0.355045926477E+03   -0.89290E-03   -0.78644E-03 10080   0.951E-02-0.362E-02
CGA:   8    -0.355046674561E+03   -0.74808E-03   -0.69744E-03 10080   0.152E-02 0.257E-02
CGA:   9    -0.355046962189E+03   -0.28763E-03   -0.31860E-03 10080   0.558E-02-0.338E-03
CGA:  10    -0.355047099332E+03   -0.13714E-03   -0.14223E-03 10080   0.230E-02 0.113E-03
CGA:  11    -0.355047148252E+03   -0.48920E-04   -0.52386E-04 10080   0.880E-03 0.714E-04
CGA:  12    -0.355047197592E+03   -0.49340E-04   -0.47690E-04 10080   0.137E-02-0.839E-04
CGA:  13    -0.355047245382E+03   -0.47790E-04   -0.49191E-04 10080   0.139E-02 0.437E-04
CGA:  14    -0.355047284797E+03   -0.39415E-04   -0.46128E-04 10080   0.106E-02 0.181E-03
CGA:  15    -0.355047331380E+03   -0.46583E-04   -0.43360E-04 10080   0.456E-03-0.968E-04
CGA:  16    -0.355047261831E+03    0.69548E-04   -0.55165E-04 10080   0.696E-02-0.187E-02
CGA:  17    -0.355047370808E+03   -0.10898E-03   -0.16404E-03 10080   0.533E-03 0.128E-02
CGA:  18    -0.355047375011E+03   -0.42033E-05   -0.15159E-04 10080   0.197E-03 0.254E-03
  15 F= -.35504738E+03 E0= -.35504178E+03  d E =-.497752E-02  mag=    10.0000
       N       E                     dE             d eps       ncg     rms          ort
SDA:   1    -0.354968246292E+03    0.79125E-01    0.00000E+00 10080   0.216E+00 0.000E+00
CGA:   2    -0.355014920894E+03   -0.46675E-01   -0.46764E-01 10080   0.521E+00-0.431E-03
CGA:   3    -0.355034450506E+03   -0.19530E-01   -0.19214E-01 10080   0.692E-01 0.771E-02
CGA:   4    -0.355042899650E+03   -0.84491E-02   -0.89549E-02 10080   0.158E+00-0.885E-02
CGA:   5    -0.355047281107E+03   -0.43815E-02   -0.46263E-02 10080   0.186E-01 0.836E-02
CGA:   6    -0.355047717684E+03   -0.43658E-03   -0.56565E-03 10080   0.112E-01 0.338E-02
CGA:   7    -0.355048780179E+03   -0.10625E-02   -0.10499E-02 10080   0.128E-01 0.113E-02
CGA:   8    -0.355049434661E+03   -0.65448E-03   -0.58625E-03 10080   0.573E-02-0.265E-02
CGA:   9    -0.355049568556E+03   -0.13389E-03   -0.14912E-03 10080   0.218E-02 0.466E-03
CGA:  10    -0.355049619335E+03   -0.50779E-04   -0.69502E-04 10080   0.130E-02 0.530E-03
CGA:  11    -0.355049755749E+03   -0.13641E-03   -0.14713E-03 10080   0.379E-02-0.403E-03
CGA:  12    -0.355049831366E+03   -0.75617E-04   -0.66768E-04 10080   0.277E-02-0.223E-03
CGA:  13    -0.355049863317E+03   -0.31951E-04   -0.37395E-04 10080   0.751E-03 0.118E-03
CGA:  14    -0.355049866883E+03   -0.35654E-05   -0.10751E-04 10080   0.390E-03 0.154E-03
  16 F= -.35504987E+03 E0= -.35504431E+03  d E =-.249187E-02  mag=    10.0000
       N       E                     dE             d eps       ncg     rms          ort
SDA:   1    -0.354988823609E+03    0.61040E-01    0.00000E+00 10080   0.540E+00 0.000E+00
CGA:   2    -0.355004177185E+03   -0.15354E-01   -0.15038E-01 10080   0.142E+00 0.220E-01
CGA:   3    -0.355031226216E+03   -0.27049E-01   -0.28598E-01 10080   0.344E+00-0.106E-01
CGA:   4    -0.355041631682E+03   -0.10405E-01   -0.10477E-01 10080   0.458E-01 0.118E-01
CGA:   5    -0.355043936383E+03   -0.23047E-02   -0.23635E-02 10080   0.525E-01 0.594E-02
CGA:   6    -0.355048415888E+03   -0.44795E-02   -0.45227E-02 10080   0.204E-01-0.281E-02
CGA:   7    -0.355049550532E+03   -0.11346E-02   -0.11258E-02 10080   0.110E-01-0.348E-02
CGA:   8    -0.355049846619E+03   -0.29609E-03   -0.32547E-03 10080   0.512E-02 0.125E-02
CGA:   9    -0.355050213025E+03   -0.36641E-03   -0.36257E-03 10080   0.575E-02 0.903E-03
CGA:  10    -0.355050570381E+03   -0.35736E-03   -0.34861E-03 10080   0.159E-02-0.109E-02
CGA:  11    -0.355050614759E+03   -0.44378E-04   -0.51981E-04 10080   0.865E-03 0.402E-03
CGA:  12    -0.355050687929E+03   -0.73170E-04   -0.74798E-04 10080   0.908E-03-0.151E-03
CGA:  13    -0.355050686855E+03    0.10741E-05   -0.15143E-03 10080   0.338E-02-0.106E-02
CGA:  14    -0.355050700472E+03   -0.13617E-04   -0.65984E-04 10080   0.709E-03 0.114E-02
CGA:  15    -0.355050701761E+03   -0.12895E-05   -0.20605E-04 10080   0.443E-03 0.462E-03
CGA:  16    -0.355050772739E+03   -0.70978E-04    0.45139E-04 10080   0.517E-03 0.683E-04
CGA:  17    -0.355050787416E+03   -0.14677E-04   -0.22602E-04 10080   0.154E-03 0.334E-03
CGA:  18    -0.355050786206E+03    0.12103E-05   -0.30622E-05 10080   0.875E-04 0.105E-03
CGA:  19    -0.355050796514E+03   -0.10308E-04    0.28229E-03 10080   0.554E-04 0.608E-04
CGA:  20    -0.355050805622E+03   -0.91086E-05    0.39731E-05 10080   0.413E-04 0.447E-04
  17 F= -.35505081E+03 E0= -.35504532E+03  d E =-.938740E-03  mag=    10.0000
       N       E                     dE             d eps       ncg     rms          ort
SDA:   1    -0.355036139270E+03    0.14657E-01    0.00000E+00 10080   0.687E-01 0.000E+00
CGA:   2    -0.355039414213E+03   -0.32749E-02   -0.32985E-02 10080   0.517E-01 0.259E-02
CGA:   3    -0.355046519651E+03   -0.71054E-02   -0.69620E-02 10080   0.169E-01 0.192E-02
CGA:   4    -0.355047972534E+03   -0.14529E-02   -0.17319E-02 10080   0.580E-01-0.734E-02
CGA:   5    -0.355049107005E+03   -0.11345E-02   -0.11452E-02 10080   0.443E-01 0.379E-03
CGA:   6    -0.355049608307E+03   -0.50130E-03   -0.66564E-03 10080   0.586E-02 0.403E-02
CGA:   7    -0.355049647665E+03   -0.39358E-04   -0.10050E-03 10080   0.287E-02 0.145E-02
CGA:   8    -0.355049747161E+03   -0.99496E-04   -0.12276E-03 10080   0.489E-02 0.106E-02
CGA:   9    -0.355050131742E+03   -0.38458E-03   -0.38809E-03 10080   0.326E-02-0.132E-02
CGA:  10    -0.355050247693E+03   -0.11595E-03   -0.69298E-04 10080   0.168E-02-0.180E-02
CGA:  11    -0.355050266275E+03   -0.18582E-04   -0.42352E-04 10080   0.702E-03 0.825E-03
CGA:  12    -0.355050303098E+03   -0.36823E-04   -0.42438E-04 10080   0.521E-03 0.469E-03
CGA:  13    -0.355050380926E+03   -0.77828E-04    0.30833E-04 10080   0.563E-03-0.367E-05
CGA:  14    -0.355050407602E+03   -0.26676E-04   -0.27433E-04 10080   0.190E-03 0.265E-03
CGA:  15    -0.355050404460E+03    0.31416E-05   -0.41652E-05 10080   0.106E-03 0.198E-03
  18 F= -.35505040E+03 E0= -.35504498E+03  d E =0.401162E-03  mag=    10.0000
       N       E                     dE             d eps       ncg     rms          ort
SDA:   1    -0.354981409689E+03    0.68998E-01    0.00000E+00 10080   0.212E+00 0.000E+00
CGA:   2    -0.355002355167E+03   -0.20945E-01   -0.20658E-01 10080   0.383E+00 0.563E-02
CGA:   3    -0.355031446933E+03   -0.29092E-01   -0.29124E-01 10080   0.726E-01-0.169E-02
CGA:   4    -0.355039446747E+03   -0.79998E-02   -0.83704E-02 10080   0.129E+00-0.591E-02
CGA:   5    -0.355043759446E+03   -0.43127E-02   -0.44539E-02 10080   0.279E-01 0.830E-02
CGA:   6    -0.355045519708E+03   -0.17603E-02   -0.17723E-02 10080   0.154E-01-0.238E-02
CGA:   7    -0.355046285313E+03   -0.76561E-03   -0.76303E-03 10080   0.165E-01-0.410E-02
CGA:   8    -0.355046929731E+03   -0.64442E-03   -0.64740E-03 10080   0.713E-02 0.206E-02
CGA:   9    -0.355047106517E+03   -0.17679E-03   -0.20379E-03 10080   0.143E-02 0.969E-03
CGA:  10    -0.355046888998E+03    0.21752E-03   -0.31066E-03 10080   0.261E-01-0.381E-02
CGA:  11    -0.355047397497E+03   -0.50850E-03   -0.60580E-03 10080   0.126E-02 0.333E-02
CGA:  12    -0.355047454198E+03   -0.56702E-04   -0.55635E-04 10080   0.515E-03-0.514E-04
CGA:  13    -0.355047520720E+03   -0.66521E-04    0.83275E-04 10080   0.428E-03-0.284E-04
CGA:  14    -0.355047571032E+03   -0.50312E-04   -0.49383E-04 10080   0.840E-03 0.140E-04
CGA:  15    -0.355047604357E+03   -0.33325E-04   -0.33552E-04 10080   0.105E-03 0.851E-05
CGA:  16    -0.355047618800E+03   -0.14443E-04    0.22910E-04 10080   0.977E-04 0.574E-04
CGA:  17    -0.355047625195E+03   -0.63953E-05   -0.65327E-05 10080   0.155E-03-0.193E-04
CGA:  18    -0.355047645330E+03   -0.20135E-04    0.10560E-04 10080   0.102E-03 0.688E-04
CGA:  19    -0.355047647995E+03   -0.26644E-05   -0.40122E-05 10080   0.209E-04 0.410E-04
  19 F= -.35504765E+03 E0= -.35504237E+03  d E =0.275647E-02  mag=    10.0000
       N       E                     dE             d eps       ncg     rms          ort
SDA:   1    -0.355031880469E+03    0.15765E-01    0.00000E+00 10080   0.418E-01 0.000E+00
CGA:   2    -0.355037669159E+03   -0.57887E-02   -0.68553E-02 10080   0.195E+00-0.989E-02
CGA:   3    -0.355042780447E+03   -0.51113E-02   -0.53157E-02 10080   0.569E-01 0.824E-02
CGA:   4    -0.355043656638E+03   -0.87619E-03   -0.10952E-02 10080   0.155E-01 0.622E-02
CGA:   5    -0.355044365481E+03   -0.70884E-03   -0.75239E-03 10080   0.218E-01 0.310E-02
CGA:   6    -0.355045686423E+03   -0.13209E-02   -0.13001E-02 10080   0.133E-01-0.280E-02
CGA:   7    -0.355046350726E+03   -0.66430E-03   -0.66628E-03 10080   0.125E-01-0.460E-02
CGA:   8    -0.355046465094E+03   -0.11437E-03   -0.13903E-03 10080   0.451E-02 0.731E-03
CGA:   9    -0.355046485153E+03   -0.20060E-04   -0.65014E-04 10080   0.201E-02 0.111E-02
CGA:  10    -0.355046506177E+03   -0.21024E-04   -0.52529E-04 10080   0.250E-02 0.984E-03
CGA:  11    -0.355046664754E+03   -0.15858E-03   -0.16557E-03 10080   0.357E-02 0.102E-02
CGA:  12    -0.355046853118E+03   -0.18836E-03   -0.16318E-03 10080   0.453E-03-0.137E-02
CGA:  13    -0.355046868067E+03   -0.14949E-04   -0.15198E-04 10080   0.442E-03-0.570E-04
CGA:  14    -0.355046871612E+03   -0.35443E-05   -0.10286E-04 10080   0.342E-03 0.284E-03
CGA:  15    -0.355046888876E+03   -0.17264E-04   -0.17166E-04 10080   0.234E-03 0.887E-04
CGA:  16    -0.355046926600E+03   -0.37724E-04   -0.56041E-04 10080   0.383E-03-0.130E-03
CGA:  17    -0.355046942994E+03   -0.16395E-04   -0.15536E-04 10080   0.126E-03-0.563E-04
CGA:  18    -0.355046940865E+03    0.21290E-05   -0.13139E-05 10080   0.734E-04 0.796E-04
  20 F= -.35504694E+03 E0= -.35504166E+03  d E =0.707129E-03  mag=    10.0000
       N       E                     dE             d eps       ncg     rms          ort
SDA:   1    -0.355021487817E+03    0.25455E-01    0.00000E+00 10080   0.818E-01 0.000E+00
CGA:   2    -0.355028526762E+03   -0.70389E-02   -0.74900E-02 10080   0.211E+00-0.116E-01
CGA:   3    -0.355038882310E+03   -0.10356E-01   -0.10313E-01 10080   0.475E-01 0.116E-01
CGA:   4    -0.355040193181E+03   -0.13109E-02   -0.14523E-02 10080   0.281E-01 0.604E-02
CGA:   5    -0.355043956119E+03   -0.37629E-02   -0.37829E-02 10080   0.277E-01-0.332E-03
CGA:   6    -0.355044800442E+03   -0.84432E-03   -0.73409E-03 10080   0.531E-02-0.427E-02
CGA:   7    -0.355045276044E+03   -0.47560E-03   -0.43576E-03 10080   0.506E-02 0.933E-03
CGA:   8    -0.355045588577E+03   -0.31253E-03   -0.31132E-03 10080   0.196E-02-0.315E-03
CGA:   9    -0.355045710598E+03   -0.12202E-03   -0.15510E-03 10080   0.338E-02-0.118E-02
CGA:  10    -0.355045728799E+03   -0.18201E-04   -0.57208E-04 10080   0.442E-03 0.960E-03
CGA:  11    -0.355045726591E+03    0.22082E-05   -0.90873E-05 10080   0.266E-03 0.285E-03
CGA:  12    -0.355045761615E+03   -0.35024E-04    0.30670E-04 10080   0.189E-03 0.186E-03
CGA:  13    -0.355045760521E+03    0.10938E-05   -0.39924E-05 10080   0.147E-03 0.157E-03
CGA:  14    -0.355045780691E+03   -0.20170E-04   -0.14793E-04 10080   0.883E-04 0.111E-03
CGA:  15    -0.355045790367E+03   -0.96752E-05   -0.74514E-05 10080   0.660E-04 0.739E-04
CGA:  16    -0.355045814267E+03   -0.23900E-04   -0.18256E-04 10080   0.154E-03 0.255E-04
CGA:  17    -0.355045811888E+03    0.23787E-05   -0.39665E-05 10080   0.388E-04 0.131E-03
  21 F= -.35504581E+03 E0= -.35504047E+03  d E =0.112898E-02  mag=    10.0000
       N       E                     dE             d eps       ncg     rms          ort
SDA:   1    -0.355026758762E+03    0.19056E-01    0.00000E+00 10080   0.579E-01 0.000E+00
CGA:   2    -0.355036747399E+03   -0.99886E-02   -0.99021E-02 10080   0.605E-01 0.847E-03
CGA:   3    -0.355039692215E+03   -0.29448E-02   -0.30096E-02 10080   0.286E-01 0.463E-02
CGA:   4    -0.355042480934E+03   -0.27887E-02   -0.29540E-02 10080   0.329E-01-0.583E-02
CGA:   5    -0.355043761218E+03   -0.12803E-02   -0.13303E-02 10080   0.146E-01 0.292E-02
CGA:   6    -0.355044357367E+03   -0.59615E-03   -0.61288E-03 10080   0.235E-02 0.563E-03
CGA:   7    -0.355044327478E+03    0.29889E-04   -0.52963E-03 10080   0.251E-01-0.369E-02
CGA:   8    -0.355044759556E+03   -0.43208E-03   -0.56106E-03 10080   0.205E-02 0.323E-02
CGA:   9    -0.355044853815E+03   -0.94259E-04   -0.93587E-04 10080   0.606E-03-0.717E-05
CGA:  10    -0.355044946450E+03   -0.92635E-04    0.19609E-03 10080   0.125E-02-0.433E-03
CGA:  11    -0.355044937420E+03    0.90291E-05   -0.20224E-04 10080   0.317E-03 0.554E-03
  22 F= -.35504494E+03 E0= -.35503956E+03  d E =0.874467E-03  mag=    10.0000
       N       E                     dE             d eps       ncg     rms          ort
SDA:   1    -0.354509556426E+03    0.53539E+00    0.00000E+00 10080   0.157E+01 0.000E+00
CGA:   2    -0.354735031418E+03   -0.22547E+00   -0.21772E+00 10080   0.317E+01 0.109E+00
CGA:   3    -0.354904568993E+03   -0.16954E+00   -0.16509E+00 10080   0.867E+00 0.189E-01
CGA:   4    -0.354954672818E+03   -0.50104E-01   -0.50379E-01 10080   0.697E+00 0.231E-02
CGA:   5    -0.355005921891E+03   -0.51249E-01   -0.51359E-01 10080   0.290E+00-0.816E-02
CGA:   6    -0.355022824050E+03   -0.16902E-01   -0.16870E-01 10080   0.659E-01-0.977E-03
CGA:   7    -0.355028287181E+03   -0.54631E-02   -0.55578E-02 10080   0.775E-01-0.555E-02
CGA:   8    -0.355033050232E+03   -0.47631E-02   -0.47633E-02 10080   0.691E-02 0.450E-02
CGA:   9    -0.355033737870E+03   -0.68764E-03   -0.12365E-02 10080   0.555E-01-0.540E-02
CGA:  10    -0.355034607771E+03   -0.86990E-03   -0.10837E-02 10080   0.189E-02 0.493E-02
CGA:  11    -0.355034671170E+03   -0.63399E-04   -0.84553E-04 10080   0.193E-02 0.744E-03
CGA:  12    -0.355034917688E+03   -0.24652E-03   -0.57334E-03 10080   0.114E-01-0.225E-02
CGA:  13    -0.355035201467E+03   -0.28378E-03   -0.35496E-03 10080   0.179E-02 0.179E-02
CGA:  14    -0.355035295965E+03   -0.94498E-04   -0.88377E-04 10080   0.583E-03-0.213E-03
CGA:  15    -0.355035323905E+03   -0.27940E-04   -0.31366E-04 10080   0.422E-03 0.323E-03
CGA:  16    -0.355035397782E+03   -0.73877E-04    0.65607E-04 10080   0.361E-03-0.463E-05
CGA:  17    -0.355035402566E+03   -0.47842E-05   -0.12820E-04 10080   0.257E-03 0.228E-03
CGA:  18    -0.355035413117E+03   -0.10550E-04   -0.12599E-04 10080   0.123E-03 0.101E-03
CGA:  19    -0.355035425398E+03   -0.12281E-04   -0.12050E-04 10080   0.161E-03 0.117E-03
CGA:  20    -0.355035458015E+03   -0.32617E-04    0.11634E-04 10080   0.136E-03 0.398E-04
CGA:  21    -0.355035463894E+03   -0.58788E-05   -0.82547E-05 10080   0.129E-03 0.120E-03
CGA:  22    -0.355035316848E+03    0.14705E-03   -0.79919E-04 10080   0.743E-02-0.552E-03
CGA:  23    -0.355035448925E+03   -0.13208E-03   -0.18916E-03 10080   0.924E-03 0.758E-03
CGA:  24    -0.355035531899E+03   -0.82975E-04   -0.52893E-04 10080   0.232E-03-0.460E-03
CGA:  25    -0.355035531766E+03    0.13349E-06   -0.52974E-05 10080   0.946E-04 0.784E-04
  23 F= -.35503553E+03 E0= -.35502990E+03  d E =0.940565E-02  mag=    10.0000
       N       E                     dE             d eps       ncg     rms          ort
SDA:   1    -0.354799686657E+03    0.23585E+00    0.00000E+00 10080   0.789E+00 0.000E+00
CGA:   2    -0.354885151689E+03   -0.85465E-01   -0.85477E-01 10080   0.152E+01-0.330E-02
CGA:   3    -0.354979764187E+03   -0.94612E-01   -0.95814E-01 10080   0.327E+00-0.194E-01
CGA:   4    -0.355011680646E+03   -0.31916E-01   -0.31889E-01 10080   0.306E+00 0.409E-02
CGA:   5    -0.355028371885E+03   -0.16691E-01   -0.16605E-01 10080   0.189E+00-0.124E-01
CGA:   6    -0.355036088297E+03   -0.77164E-02   -0.76443E-02 10080   0.207E-01 0.686E-02
CGA:   7    -0.355040307203E+03   -0.42189E-02   -0.41260E-02 10080   0.105E-01 0.994E-03
CGA:   8    -0.355040902718E+03   -0.59551E-03   -0.51031E-03 10080   0.631E-02-0.175E-02
CGA:   9    -0.355041218154E+03   -0.31544E-03   -0.35692E-03 10080   0.337E-02 0.126E-02
CGA:  10    -0.355041493190E+03   -0.27504E-03   -0.26141E-03 10080   0.348E-02-0.419E-03
CGA:  11    -0.355041704741E+03   -0.21155E-03   -0.19663E-03 10080   0.129E-02-0.455E-03
CGA:  12    -0.355041758793E+03   -0.54052E-04   -0.62642E-04 10080   0.632E-03 0.215E-03
CGA:  13    -0.355041797142E+03   -0.38349E-04   -0.37812E-04 10080   0.525E-03-0.150E-04
CGA:  14    -0.355041850551E+03   -0.53409E-04   -0.52099E-04 10080   0.350E-03 0.134E-03
CGA:  15    -0.355041488150E+03    0.36240E-03   -0.13092E-03 10080   0.186E-01-0.239E-02
CGA:  16    -0.355041846272E+03   -0.35812E-03   -0.47097E-03 10080   0.115E-02 0.215E-02
CGA:  17    -0.355041882792E+03   -0.36520E-04   -0.49305E-04 10080   0.341E-03 0.212E-03
CGA:  18    -0.355041909190E+03   -0.26398E-04   -0.24958E-04 10080   0.383E-03-0.424E-04
CGA:  19    -0.355041934574E+03   -0.25383E-04   -0.26336E-04 10080   0.262E-03 0.610E-04
CGA:  20    -0.355041944711E+03   -0.10138E-04   -0.10037E-04 10080   0.333E-04-0.139E-05
CGA:  21    -0.355041954053E+03   -0.93420E-05    0.26638E-05 10080   0.558E-04-0.225E-04
  24 F= -.35504195E+03 E0= -.35503651E+03  d E =-.642229E-02  mag=    10.0000
       N       E                     dE             d eps       ncg     rms          ort
SDA:   1    -0.354902860515E+03    0.13908E+00    0.00000E+00 10080   0.453E+00 0.000E+00
CGA:   2    -0.354952038803E+03   -0.49178E-01   -0.48951E-01 10080   0.971E+00 0.161E-02
CGA:   3    -0.355000742508E+03   -0.48704E-01   -0.48716E-01 10080   0.250E+00 0.180E-01
CGA:   4    -0.355020025934E+03   -0.19283E-01   -0.19391E-01 10080   0.159E+00 0.363E-02
CGA:   5    -0.355030810937E+03   -0.10785E-01   -0.10835E-01 10080   0.115E+00 0.307E-02
CGA:   6    -0.355037385697E+03   -0.65748E-02   -0.65443E-02 10080   0.186E-01-0.850E-03
CGA:   7    -0.355038731132E+03   -0.13454E-02   -0.12851E-02 10080   0.340E-01-0.458E-02
CGA:   8    -0.355040221173E+03   -0.14900E-02   -0.15318E-02 10080   0.957E-02 0.189E-02
CGA:   9    -0.355040331590E+03   -0.11042E-03   -0.20393E-03 10080   0.227E-02 0.159E-02
CGA:  10    -0.355040463853E+03   -0.13226E-03   -0.14485E-03 10080   0.342E-02 0.542E-03
CGA:  11    -0.355040785640E+03   -0.32179E-03   -0.31715E-03 10080   0.506E-02-0.215E-02
CGA:  12    -0.355040875566E+03   -0.89926E-04   -0.14563E-03 10080   0.929E-03 0.121E-02
CGA:  13    -0.355040921257E+03   -0.45691E-04   -0.46810E-04 10080   0.239E-03 0.303E-04
CGA:  14    -0.355040959479E+03   -0.38222E-04    0.14620E-03 10080   0.266E-03 0.173E-03
CGA:  15    -0.355040963635E+03   -0.41562E-05   -0.89248E-05 10080   0.140E-03 0.122E-03
CGA:  16    -0.355040996134E+03   -0.32498E-04    0.60875E-04 10080   0.180E-03 0.791E-04
CGA:  17    -0.355041010759E+03   -0.14626E-04   -0.14692E-04 10080   0.168E-03-0.601E-05
CGA:  18    -0.355041011422E+03   -0.66294E-06   -0.52815E-05 10080   0.133E-03 0.119E-03
CGA:  19    -0.355041034303E+03   -0.22881E-04    0.19119E-04 10080   0.753E-04 0.206E-04
CGA:  20    -0.355041046403E+03   -0.12100E-04   -0.95122E-05 10080   0.776E-04 0.650E-04
CGA:  21    -0.355041065367E+03   -0.18964E-04    0.39123E-05 10080   0.112E-03-0.107E-04
CGA:  22    -0.355041063373E+03    0.19942E-05   -0.18476E-05 10080   0.833E-04 0.733E-04
  25 F= -.35504106E+03 E0= -.35503576E+03  d E =0.890681E-03  mag=    10.0000
       N       E                     dE             d eps       ncg     rms          ort
SDA:   1    -0.355004053955E+03    0.37011E-01    0.00000E+00 10080   0.120E+00 0.000E+00
CGA:   2    -0.355019663646E+03   -0.15610E-01   -0.15698E-01 10080   0.205E+00-0.137E-02
CGA:   3    -0.355029378697E+03   -0.97151E-02   -0.98776E-02 10080   0.883E-01 0.114E-01
CGA:   4    -0.355035232518E+03   -0.58538E-02   -0.58342E-02 10080   0.446E-01-0.496E-02
CGA:   5    -0.355037886818E+03   -0.26543E-02   -0.26509E-02 10080   0.370E-01-0.668E-03
CGA:   6    -0.355040142332E+03   -0.22555E-02   -0.22637E-02 10080   0.355E-02 0.148E-02
CGA:   7    -0.355040584323E+03   -0.44199E-03   -0.50261E-03 10080   0.994E-02-0.884E-03
CGA:   8    -0.355040845017E+03   -0.26069E-03   -0.26466E-03 10080   0.323E-02 0.108E-03
CGA:   9    -0.355040929053E+03   -0.84037E-04   -0.85520E-04 10080   0.122E-02 0.394E-04
CGA:  10    -0.355040986318E+03   -0.57265E-04   -0.56056E-04 10080   0.933E-03-0.577E-04
CGA:  11    -0.355041003848E+03   -0.17530E-04   -0.26750E-04 10080   0.664E-03 0.257E-03
CGA:  12    -0.355041023588E+03   -0.19740E-04   -0.29090E-04 10080   0.549E-03 0.315E-03
CGA:  13    -0.355041071115E+03   -0.47527E-04   -0.46593E-04 10080   0.324E-03-0.183E-03
CGA:  14    -0.355041110464E+03   -0.39348E-04    0.14735E-04 10080   0.517E-03-0.173E-03
CGA:  15    -0.355041102866E+03    0.75974E-05   -0.68726E-05 10080   0.187E-03 0.295E-03
  26 F= -.35504110E+03 E0= -.35503574E+03  d E =-.394936E-04  mag=    10.0000
       N       E                     dE             d eps       ncg     rms          ort
SDA:   1    -0.354976934608E+03    0.64176E-01    0.00000E+00 10080   0.262E+00 0.000E+00
CGA:   2    -0.354994396082E+03   -0.17461E-01   -0.17493E-01 10080   0.331E+00-0.965E-02
CGA:   3    -0.355020610516E+03   -0.26214E-01   -0.26004E-01 10080   0.152E+00 0.101E-01
CGA:   4    -0.355028223046E+03   -0.76125E-02   -0.76123E-02 10080   0.899E-01-0.228E-02
CGA:   5    -0.355033897014E+03   -0.56740E-02   -0.56611E-02 10080   0.442E-01 0.301E-02
CGA:   6    -0.355038272922E+03   -0.43759E-02   -0.45201E-02 10080   0.848E-02-0.362E-02
CGA:   7    -0.355038703040E+03   -0.43012E-03   -0.44085E-03 10080   0.475E-02 0.249E-02
CGA:   8    -0.355039213166E+03   -0.51013E-03   -0.60414E-03 10080   0.106E-01-0.251E-02
CGA:   9    -0.355039371115E+03   -0.15795E-03   -0.23241E-03 10080   0.139E-02 0.196E-02
CGA:  10    -0.355039443101E+03   -0.71986E-04   -0.73109E-04 10080   0.819E-03 0.792E-04
CGA:  11    -0.355039560280E+03   -0.11718E-03    0.19451E-03 10080   0.138E-02-0.174E-03
CGA:  12    -0.355039655068E+03   -0.94788E-04   -0.10568E-03 10080   0.211E-02-0.288E-03
CGA:  13    -0.355039649623E+03    0.54450E-05   -0.22704E-04 10080   0.871E-03 0.591E-03
CGA:  14    -0.355039639375E+03    0.10248E-04   -0.11753E-04 10080   0.341E-03 0.457E-03
CGA:  15    -0.355039644469E+03   -0.50935E-05   -0.10166E-04 10080   0.156E-03 0.188E-03
CGA:  16    -0.355039670401E+03   -0.25932E-04   -0.22096E-04 10080   0.134E-03 0.446E-04
CGA:  17    -0.355039682159E+03   -0.11758E-04   -0.11590E-04 10080   0.774E-04 0.231E-04
CGA:  18    -0.355039565287E+03    0.11687E-03   -0.62965E-04 10080   0.488E-02-0.475E-03
CGA:  19    -0.355039684925E+03   -0.11964E-03   -0.13010E-03 10080   0.301E-03 0.950E-04
CGA:  20    -0.355039680242E+03    0.46834E-05   -0.78116E-05 10080   0.114E-03 0.157E-03
CGA:  21    -0.355039692759E+03   -0.12518E-04   -0.12651E-04 10080   0.212E-03-0.145E-04
CGA:  22    -0.355039696511E+03   -0.37516E-05   -0.77262E-05 10080   0.796E-04 0.659E-04
  27 F= -.35503970E+03 E0= -.35503424E+03  d E =0.140636E-02  mag=    10.0000
       N       E                     dE             d eps       ncg     rms          ort
SDA:   1    -0.355018022351E+03    0.21670E-01    0.00000E+00 10080   0.861E-01 0.000E+00
CGA:   2    -0.355023000002E+03   -0.49777E-02   -0.50043E-02 10080   0.939E-01-0.103E-02
CGA:   3    -0.355030419924E+03   -0.74199E-02   -0.74842E-02 10080   0.679E-01 0.563E-02
CGA:   4    -0.355034863616E+03   -0.44437E-02   -0.43396E-02 10080   0.344E-01-0.533E-02
CGA:   5    -0.355036065094E+03   -0.12015E-02   -0.12807E-02 10080   0.983E-02 0.252E-02
CGA:   6    -0.355037204433E+03   -0.11393E-02   -0.11176E-02 10080   0.832E-02 0.129E-02
CGA:   7    -0.355037749124E+03   -0.54469E-03   -0.45362E-03 10080   0.482E-02-0.232E-02
CGA:   8    -0.355037901633E+03   -0.15251E-03   -0.17010E-03 10080   0.125E-02 0.475E-03
CGA:   9    -0.355037936595E+03   -0.34963E-04   -0.45286E-04 10080   0.565E-03 0.196E-03
CGA:  10    -0.355037920762E+03    0.15834E-04   -0.20935E-03 10080   0.603E-02-0.952E-03
CGA:  11    -0.355037991884E+03   -0.71123E-04   -0.12531E-03 10080   0.528E-03 0.769E-03
CGA:  12    -0.355038034963E+03   -0.43079E-04   -0.43338E-04 10080   0.911E-03 0.129E-04
CGA:  13    -0.355038112443E+03   -0.77480E-04   -0.68501E-04 10080   0.697E-03-0.533E-03
CGA:  14    -0.355038102045E+03    0.10398E-04   -0.12196E-04 10080   0.186E-03 0.316E-03
CGA:  15    -0.355038095716E+03    0.63290E-05   -0.38778E-05 10080   0.833E-04 0.143E-03
CGA:  16    -0.355038102902E+03   -0.71854E-05   -0.11018E-04 10080   0.286E-03-0.766E-04
  28 F= -.35503810E+03 E0= -.35503261E+03  d E =0.159361E-02  mag=    10.0000
       N       E                     dE             d eps       ncg     rms          ort
SDA:   1    -0.354999948123E+03    0.38148E-01    0.00000E+00 10080   0.229E+00 0.000E+00
CGA:   2    -0.355009536103E+03   -0.95880E-02   -0.96552E-02 10080   0.160E+00-0.101E-01
CGA:   3    -0.355020890177E+03   -0.11354E-01   -0.11387E-01 10080   0.106E+00 0.885E-02
CGA:   4    -0.355030978256E+03   -0.10088E-01   -0.10113E-01 10080   0.468E-01-0.315E-02
CGA:   5    -0.355033100686E+03   -0.21224E-02   -0.21903E-02 10080   0.256E-01 0.241E-02
CGA:   6    -0.355035696333E+03   -0.25956E-02   -0.25748E-02 10080   0.875E-02 0.121E-02
CGA:   7    -0.355036414532E+03   -0.71820E-03   -0.71286E-03 10080   0.154E-01-0.416E-02
CGA:   8    -0.355036608771E+03   -0.19424E-03   -0.21307E-03 10080   0.805E-02 0.475E-03
CGA:   9    -0.355036663330E+03   -0.54559E-04   -0.13733E-03 10080   0.282E-02 0.144E-02
CGA:  10    -0.355036694844E+03   -0.31514E-04   -0.76262E-04 10080   0.215E-02 0.914E-03
CGA:  11    -0.355036784016E+03   -0.89172E-04   -0.89933E-04 10080   0.119E-02 0.672E-05
CGA:  12    -0.355036841251E+03   -0.57234E-04   -0.11061E-03 10080   0.853E-02-0.223E-02
CGA:  13    -0.355036936167E+03   -0.94917E-04   -0.17008E-03 10080   0.738E-03 0.159E-02
CGA:  14    -0.355036951281E+03   -0.15113E-04   -0.23221E-04 10080   0.244E-03 0.203E-03
CGA:  15    -0.355036999732E+03   -0.48452E-04    0.54800E-04 10080   0.431E-03-0.243E-03
CGA:  16    -0.355036997057E+03    0.26753E-05   -0.80350E-05 10080   0.151E-03 0.229E-03
  29 F= -.35503700E+03 E0= -.35503154E+03  d E =0.110584E-02  mag=    10.0000
       N       E                     dE             d eps       ncg     rms          ort
SDA:   1    -0.354298200218E+03    0.73880E+00    0.00000E+00 10080   0.218E+01 0.000E+00
CGA:   2    -0.354602462965E+03   -0.30426E+00   -0.28957E+00 10080   0.389E+01 0.216E+00
CGA:   3    -0.354851304895E+03   -0.24884E+00   -0.24578E+00 10080   0.130E+01-0.146E+00
CGA:   4    -0.354932277083E+03   -0.80972E-01   -0.80977E-01 10080   0.853E+00 0.250E-01
CGA:   5    -0.354978143114E+03   -0.45866E-01   -0.45849E-01 10080   0.457E+00 0.207E-01
CGA:   6    -0.355011954122E+03   -0.33811E-01   -0.33783E-01 10080   0.106E+00-0.619E-02
CGA:   7    -0.355017600822E+03   -0.56467E-02   -0.57096E-02 10080   0.633E-01 0.836E-02
CGA:   8    -0.355024300083E+03   -0.66993E-02   -0.69462E-02 10080   0.526E-01-0.676E-02
CGA:   9    -0.355025926590E+03   -0.16265E-02   -0.17386E-02 10080   0.145E-01 0.413E-02
CGA:  10    -0.355026922077E+03   -0.99549E-03   -0.99432E-03 10080   0.836E-02-0.113E-02
CGA:  11    -0.355027593839E+03   -0.67176E-03   -0.10684E-02 10080   0.317E-01-0.534E-02
CGA:  12    -0.355028142475E+03   -0.54864E-03   -0.71359E-03 10080   0.246E-02 0.454E-02
CGA:  13    -0.355028212822E+03   -0.70347E-04   -0.94211E-04 10080   0.123E-02 0.747E-03
CGA:  14    -0.355028345170E+03   -0.13235E-03   -0.14562E-03 10080   0.298E-02-0.492E-03
CGA:  15    -0.355028397287E+03   -0.52117E-04   -0.56328E-04 10080   0.388E-02 0.124E-03
CGA:  16    -0.355028508333E+03   -0.11105E-03   -0.12745E-03 10080   0.247E-02 0.515E-03
CGA:  17    -0.355028614321E+03   -0.10599E-03   -0.93974E-04 10080   0.704E-03-0.413E-03
CGA:  18    -0.355028700558E+03   -0.86236E-04    0.84545E-04 10080   0.169E-02-0.379E-03
CGA:  19    -0.355028708262E+03   -0.77046E-05   -0.34210E-04 10080   0.487E-03 0.656E-03
CGA:  20    -0.355028716189E+03   -0.79266E-05   -0.18364E-04 10080   0.409E-03 0.331E-03
CGA:  21    -0.355028779662E+03   -0.63474E-04    0.32527E-04 10080   0.559E-03 0.133E-04
CGA:  22    -0.355028822697E+03   -0.43035E-04   -0.39873E-04 10080   0.132E-03 0.265E-03
CGA:  23    -0.355028822566E+03    0.13114E-06   -0.40399E-05 10080   0.609E-04 0.113E-03
  30 F= -.35502882E+03 E0= -.35502368E+03  d E =0.817449E-02  mag=    10.0000
       N       E                     dE             d eps       ncg     rms          ort
SDA:   1    -0.354790592689E+03    0.23823E+00    0.00000E+00 10080   0.743E+00 0.000E+00
CGA:   2    -0.354881380844E+03   -0.90788E-01   -0.89547E-01 10080   0.159E+01 0.218E-01
CGA:   3    -0.354978119574E+03   -0.96739E-01   -0.96730E-01 10080   0.366E+00-0.649E-02
CGA:   4    -0.354997534467E+03   -0.19415E-01   -0.19429E-01 10080   0.333E+00-0.768E-02
CGA:   5    -0.355026057667E+03   -0.28523E-01   -0.28471E-01 10080   0.453E-01 0.181E-02
CGA:   6    -0.355028879359E+03   -0.28217E-02   -0.28175E-02 10080   0.379E-01 0.255E-02
CGA:   7    -0.355032820256E+03   -0.39409E-02   -0.39217E-02 10080   0.957E-02 0.478E-03
CGA:   8    -0.355033369585E+03   -0.54933E-03   -0.54412E-03 10080   0.681E-02-0.935E-03
CGA:   9    -0.355033709738E+03   -0.34015E-03   -0.34771E-03 10080   0.311E-02 0.140E-02
CGA:  10    -0.355034009296E+03   -0.29956E-03   -0.38617E-03 10080   0.883E-02-0.209E-02
CGA:  11    -0.355034127326E+03   -0.11803E-03   -0.18525E-03 10080   0.654E-03 0.169E-02
CGA:  12    -0.355034137620E+03   -0.10294E-04   -0.20122E-04 10080   0.394E-03 0.276E-03
CGA:  13    -0.355034200956E+03   -0.63336E-04   -0.83474E-04 10080   0.243E-02-0.225E-03
CGA:  14    -0.355034278098E+03   -0.77142E-04   -0.74513E-04 10080   0.265E-03-0.786E-04
CGA:  15    -0.355034290785E+03   -0.12687E-04   -0.13301E-04 10080   0.128E-03 0.567E-04
CGA:  16    -0.355034291183E+03   -0.39765E-06   -0.46280E-05 10080   0.116E-03 0.131E-03
CGA:  17    -0.355034307566E+03   -0.16382E-04    0.21104E-04 10080   0.927E-04 0.674E-04
CGA:  18    -0.355034313619E+03   -0.60538E-05   -0.58866E-05 10080   0.996E-04 0.546E-04
  31 F= -.35503431E+03 E0= -.35502900E+03  d E =-.549105E-02  mag=    10.0000
       N       E                     dE             d eps       ncg     rms          ort
SDA:   1    -0.354624915207E+03    0.40939E+00    0.00000E+00 10080   0.129E+01 0.000E+00
CGA:   2    -0.354739070974E+03   -0.11416E+00   -0.11664E+00 10080   0.299E+01-0.685E-01
CGA:   3    -0.354940441066E+03   -0.20137E+00   -0.20137E+00 10080   0.706E+00-0.111E-01
CGA:   4    -0.354969677882E+03   -0.29237E-01   -0.28573E-01 10080   0.395E+00 0.178E-01
CGA:   5    -0.355015945576E+03   -0.46268E-01   -0.46311E-01 10080   0.196E+00-0.126E-02
CGA:   6    -0.355022836945E+03   -0.68914E-02   -0.67633E-02 10080   0.768E-01-0.130E-01
CGA:   7    -0.355027400377E+03   -0.45634E-02   -0.45587E-02 10080   0.346E-01 0.687E-02
CGA:   8    -0.355031593504E+03   -0.41931E-02   -0.41634E-02 10080   0.168E-01 0.665E-03
CGA:   9    -0.355032432087E+03   -0.83858E-03   -0.75500E-03 10080   0.985E-02-0.425E-02
CGA:  10    -0.355032883891E+03   -0.45180E-03   -0.45656E-03 10080   0.447E-02 0.226E-02
CGA:  11    -0.355033101524E+03   -0.21763E-03   -0.23434E-03 10080   0.248E-02 0.780E-03
CGA:  12    -0.355033085326E+03    0.16198E-04   -0.87747E-03 10080   0.174E-01-0.374E-02
CGA:  13    -0.355033313404E+03   -0.22808E-03   -0.36813E-03 10080   0.213E-02 0.282E-02
CGA:  14    -0.355033398181E+03   -0.84777E-04   -0.11144E-03 10080   0.213E-02 0.986E-03
CGA:  15    -0.355033679493E+03   -0.28131E-03   -0.32000E-03 10080   0.389E-02-0.123E-02
CGA:  16    -0.355033730572E+03   -0.51079E-04   -0.86981E-04 10080   0.523E-03 0.738E-03
CGA:  17    -0.355033769401E+03   -0.38829E-04   -0.36098E-04 10080   0.367E-03-0.226E-03
CGA:  18    -0.355033818392E+03   -0.48991E-04    0.10446E-04 10080   0.892E-03-0.207E-03
CGA:  19    -0.355033812393E+03    0.59991E-05   -0.15038E-04 10080   0.238E-03 0.403E-03
  32 F= -.35503381E+03 E0= -.35502835E+03  d E =0.501226E-03  mag=    10.0000
       N       E                     dE             d eps       ncg     rms          ort
SDA:   1    -0.354878482075E+03    0.15534E+00    0.00000E+00 10080   0.462E+00 0.000E+00
CGA:   2    -0.354953565211E+03   -0.75083E-01   -0.77475E-01 10080   0.760E+00-0.298E-01
CGA:   3    -0.355002433662E+03   -0.48868E-01   -0.48883E-01 10080   0.324E+00 0.100E-01
CGA:   4    -0.355015194476E+03   -0.12761E-01   -0.12679E-01 10080   0.104E+00 0.212E-01
CGA:   5    -0.355026334465E+03   -0.11140E-01   -0.11229E-01 10080   0.145E+00-0.311E-02
CGA:   6    -0.355031907150E+03   -0.55727E-02   -0.55688E-02 10080   0.166E-01 0.490E-03
CGA:   7    -0.355033288429E+03   -0.13813E-02   -0.13821E-02 10080   0.185E-01 0.130E-04
CGA:   8    -0.355034475104E+03   -0.11867E-02   -0.11708E-02 10080   0.174E-01-0.306E-02
CGA:   9    -0.355034966532E+03   -0.49143E-03   -0.54226E-03 10080   0.318E-02 0.173E-02
CGA:  10    -0.355035027852E+03   -0.61320E-04   -0.92253E-04 10080   0.157E-02 0.781E-03
CGA:  11    -0.355035194091E+03   -0.16624E-03   -0.16541E-03 10080   0.290E-02 0.427E-04
CGA:  12    -0.355035350980E+03   -0.15689E-03   -0.14783E-03 10080   0.213E-02-0.567E-03
CGA:  13    -0.355035389843E+03   -0.38864E-04   -0.44155E-04 10080   0.887E-03 0.145E-03
CGA:  14    -0.355035410094E+03   -0.20250E-04   -0.22892E-04 10080   0.408E-03 0.719E-04
CGA:  15    -0.355034458818E+03    0.95128E-03   -0.51903E-03 10080   0.322E-01-0.336E-02
CGA:  16    -0.355035413340E+03   -0.95452E-03   -0.10441E-02 10080   0.295E-02 0.202E-02
CGA:  17    -0.355035505750E+03   -0.92410E-04   -0.11137E-03 10080   0.193E-03 0.272E-03
CGA:  18    -0.355035557796E+03   -0.52046E-04    0.57088E-04 10080   0.573E-03-0.460E-04
CGA:  19    -0.355035565993E+03   -0.81966E-05   -0.16095E-04 10080   0.381E-03 0.118E-03
  33 F= -.35503557E+03 E0= -.35503020E+03  d E =-.175360E-02  mag=    10.0000
       N       E                     dE             d eps       ncg     rms          ort
SDA:   1    -0.354987828442E+03    0.47729E-01    0.00000E+00 10080   0.262E+00 0.000E+00
CGA:   2    -0.354999969920E+03   -0.12141E-01   -0.12635E-01 10080   0.199E+00-0.172E-01
CGA:   3    -0.355014011631E+03   -0.14042E-01   -0.14136E-01 10080   0.160E+00 0.927E-02
CGA:   4    -0.355025167547E+03   -0.11156E-01   -0.11208E-01 10080   0.903E-01-0.194E-02
CGA:   5    -0.355029162147E+03   -0.39946E-02   -0.39667E-02 10080   0.246E-01-0.116E-02
CGA:   6    -0.355032387497E+03   -0.32254E-02   -0.31603E-02 10080   0.630E-02 0.159E-02
CGA:   7    -0.355033129881E+03   -0.74238E-03   -0.79264E-03 10080   0.613E-02-0.188E-02
CGA:   8    -0.355033279798E+03   -0.14992E-03   -0.19712E-03 10080   0.352E-02 0.101E-02
CGA:   9    -0.355033472187E+03   -0.19239E-03   -0.19391E-03 10080   0.553E-03 0.131E-04
CGA:  10    -0.355033581953E+03   -0.10977E-03    0.20396E-03 10080   0.499E-03 0.257E-03
CGA:  11    -0.355033592867E+03   -0.10914E-04   -0.26273E-04 10080   0.134E-03 0.294E-03
CGA:  12    -0.355033629737E+03   -0.36870E-04    0.95539E-05 10080   0.278E-03 0.283E-04
CGA:  13    -0.355033639681E+03   -0.99440E-05   -0.16718E-04 10080   0.539E-04 0.189E-03
  34 F= -.35503364E+03 E0= -.35502827E+03  d E =0.192631E-02  mag=    10.0000
       N       E                     dE             d eps       ncg     rms          ort
SDA:   1    -0.355027675936E+03    0.59538E-02    0.00000E+00 10080   0.263E-01 0.000E+00
CGA:   2    -0.355028584473E+03   -0.90854E-03   -0.10659E-02 10080   0.203E-01 0.403E-02
CGA:   3    -0.355031827635E+03   -0.32432E-02   -0.32692E-02 10080   0.942E-02-0.443E-03
CGA:   4    -0.355032301118E+03   -0.47348E-03   -0.47607E-03 10080   0.729E-02 0.862E-04
CGA:   5    -0.355033181645E+03   -0.88053E-03   -0.94396E-03 10080   0.298E-02-0.134E-02
CGA:   6    -0.355033206857E+03   -0.25212E-04   -0.62462E-04 10080   0.102E-02 0.656E-03
CGA:   7    -0.355033262303E+03   -0.55446E-04   -0.63916E-04 10080   0.110E-02 0.297E-03
CGA:   8    -0.355033378277E+03   -0.11597E-03   -0.13201E-03 10080   0.285E-02-0.115E-02
CGA:   9    -0.355033402292E+03   -0.24015E-04   -0.60968E-04 10080   0.428E-03 0.654E-03
CGA:  10    -0.355033422143E+03   -0.19851E-04   -0.21007E-04 10080   0.205E-03 0.343E-04
CGA:  11    -0.355033472526E+03   -0.50383E-04    0.15572E-04 10080   0.638E-03-0.217E-03
CGA:  12    -0.355033463547E+03    0.89791E-05   -0.93598E-05 10080   0.177E-03 0.307E-03
  35 F= -.35503346E+03 E0= -.35502812E+03  d E =0.176134E-03  mag=    10.0000
       N       E                     dE             d eps       ncg     rms          ort
SDA:   1    -0.354981560981E+03    0.51912E-01    0.00000E+00 10080   0.160E+00 0.000E+00
CGA:   2    -0.355004895911E+03   -0.23335E-01   -0.23688E-01 10080   0.210E+00-0.456E-02
CGA:   3    -0.355018167154E+03   -0.13271E-01   -0.13325E-01 10080   0.139E+00 0.102E-01
CGA:   4    -0.355024297815E+03   -0.61307E-02   -0.61264E-02 10080   0.386E-01-0.564E-02
CGA:   5    -0.355029205898E+03   -0.49081E-02   -0.47323E-02 10080   0.217E-01 0.303E-02
CGA:   6    -0.355030308919E+03   -0.11030E-02   -0.95582E-03 10080   0.104E-01-0.488E-02
CGA:   7    -0.355030806254E+03   -0.49734E-03   -0.51046E-03 10080   0.270E-02 0.157E-02
CGA:   8    -0.355031136592E+03   -0.33034E-03   -0.34486E-03 10080   0.333E-02-0.369E-03
CGA:   9    -0.355031219403E+03   -0.82810E-04   -0.10299E-03 10080   0.112E-02 0.534E-03
CGA:  10    -0.355031313976E+03   -0.94573E-04   -0.95509E-04 10080   0.118E-02-0.465E-03
CGA:  11    -0.355031360577E+03   -0.46601E-04   -0.36937E-04 10080   0.150E-02-0.539E-03
CGA:  12    -0.355031374775E+03   -0.14198E-04   -0.24864E-04 10080   0.118E-02 0.265E-03
CGA:  13    -0.355031381950E+03   -0.71751E-05   -0.27632E-04 10080   0.272E-03 0.425E-03
  36 F= -.35503138E+03 E0= -.35502602E+03  d E =0.208160E-02  mag=    10.0000
       N       E                     dE             d eps       ncg     rms          ort
SDA:   1    -0.355018830287E+03    0.12544E-01    0.00000E+00 10080   0.169E+00 0.000E+00
CGA:   2    -0.355022967486E+03   -0.41372E-02   -0.42319E-02 10080   0.296E-01 0.938E-02
CGA:   3    -0.355027565303E+03   -0.45978E-02   -0.50897E-02 10080   0.691E-01-0.487E-02
CGA:   4    -0.355029443094E+03   -0.18778E-02   -0.19212E-02 10080   0.174E-01 0.156E-02
CGA:   5    -0.355030082164E+03   -0.63907E-03   -0.68823E-03 10080   0.156E-01 0.203E-02
CGA:   6    -0.355031464494E+03   -0.13823E-02   -0.14015E-02 10080   0.128E-01-0.121E-02
CGA:   7    -0.355031973773E+03   -0.50928E-03   -0.46391E-03 10080   0.612E-02-0.188E-02
CGA:   8    -0.355032080424E+03   -0.10665E-03   -0.14559E-03 10080   0.211E-02 0.111E-02
CGA:   9    -0.355032097396E+03   -0.16973E-04   -0.52948E-04 10080   0.111E-02 0.893E-03
CGA:  10    -0.355032144959E+03   -0.47563E-04   -0.60921E-04 10080   0.142E-02 0.629E-03
CGA:  11    -0.355031467787E+03    0.67717E-03   -0.31129E-03 10080   0.463E-01-0.614E-02
CGA:  12    -0.355032313553E+03   -0.84577E-03   -0.10191E-02 10080   0.160E-02 0.563E-02
CGA:  13    -0.355032332434E+03   -0.18881E-04   -0.38928E-04 10080   0.285E-03 0.472E-03
CGA:  14    -0.355032339421E+03   -0.69878E-05   -0.10077E-04 10080   0.965E-04 0.876E-04
  37 F= -.35503234E+03 E0= -.35502693E+03  d E =-.957472E-03  mag=    10.0000
       N       E                     dE             d eps       ncg     rms          ort
SDA:   1    -0.355020477700E+03    0.11855E-01    0.00000E+00 10080   0.455E-01 0.000E+00
CGA:   2    -0.355025039391E+03   -0.45617E-02   -0.47351E-02 10080   0.874E-01-0.400E-02
CGA:   3    -0.355028563475E+03   -0.35241E-02   -0.36196E-02 10080   0.403E-01 0.617E-02
CGA:   4    -0.355031362520E+03   -0.27990E-02   -0.28076E-02 10080   0.165E-01-0.186E-02
CGA:   5    -0.355032192389E+03   -0.82987E-03   -0.77782E-03 10080   0.195E-01-0.465E-02
CGA:   6    -0.355033081704E+03   -0.88931E-03   -0.88469E-03 10080   0.697E-02 0.180E-02
CGA:   7    -0.355033140740E+03   -0.59037E-04   -0.13125E-03 10080   0.106E-02 0.168E-02
CGA:   8    -0.355033151974E+03   -0.11234E-04   -0.32532E-04 10080   0.102E-02 0.629E-03
CGA:   9    -0.355033279359E+03   -0.12738E-03    0.29375E-03 10080   0.127E-02 0.990E-04
CGA:  10    -0.355033359400E+03   -0.80041E-04   -0.79863E-04 10080   0.196E-03 0.569E-03
CGA:  11    -0.355033357302E+03    0.20980E-05   -0.54861E-05 10080   0.123E-03 0.202E-03
CGA:  12    -0.355033386788E+03   -0.29486E-04   -0.26780E-04 10080   0.217E-03 0.167E-04
CGA:  13    -0.355033388525E+03   -0.17363E-05   -0.68079E-05 10080   0.842E-04 0.143E-03
  38 F= -.35503339E+03 E0= -.35502800E+03  d E =-.104910E-02  mag=    10.0000
       N       E                     dE             d eps       ncg     rms          ort
SDA:   1    -0.355028937822E+03    0.44490E-02    0.00000E+00 10080   0.250E-01 0.000E+00
CGA:   2    -0.355030055210E+03   -0.11174E-02   -0.10445E-02 10080   0.187E-01-0.426E-02
CGA:   3    -0.355031207434E+03   -0.11522E-02   -0.11237E-02 10080   0.929E-02 0.238E-02
CGA:   4    -0.355031879262E+03   -0.67183E-03   -0.66857E-03 10080   0.597E-02 0.114E-02
CGA:   5    -0.355032223648E+03   -0.34439E-03   -0.33764E-03 10080   0.412E-02-0.673E-03
CGA:   6    -0.355032409108E+03   -0.18546E-03   -0.19440E-03 10080   0.196E-02 0.122E-02
CGA:   7    -0.355032569369E+03   -0.16026E-03   -0.16544E-03 10080   0.221E-02-0.106E-02
CGA:   8    -0.355032630385E+03   -0.61016E-04   -0.61742E-04 10080   0.258E-03 0.112E-04
CGA:   9    -0.355032631241E+03   -0.85617E-06   -0.66018E-05 10080   0.144E-03 0.173E-03
CGA:  10    -0.355032648003E+03   -0.16762E-04    0.20150E-03 10080   0.120E-03 0.763E-04
CGA:  11    -0.355032658566E+03   -0.10563E-04   -0.12487E-04 10080   0.401E-03-0.416E-04
CGA:  12    -0.355032681556E+03   -0.22990E-04   -0.26209E-04 10080   0.503E-03-0.795E-04
CGA:  13    -0.355032704357E+03   -0.22800E-04   -0.14348E-04 10080   0.132E-03-0.328E-03
CGA:  14    -0.355032711473E+03   -0.71164E-05   -0.69848E-05 10080   0.135E-03-0.191E-04
  39 F= -.35503271E+03 E0= -.35502735E+03  d E =0.677052E-03  mag=    10.0000
       N       E                     dE             d eps       ncg     rms          ort
SDA:   1    -0.353547507703E+03    0.14852E+01    0.00000E+00 10080   0.686E+01 0.000E+00
CGA:   2    -0.353877307018E+03   -0.32980E+00   -0.34000E+00 10080   0.588E+01 0.345E+00
CGA:   3    -0.354568613877E+03   -0.69131E+00   -0.69892E+00 10080   0.439E+01-0.132E+00
CGA:   4    -0.354724576191E+03   -0.15596E+00   -0.16557E+00 10080   0.139E+01-0.983E-01
CGA:   5    -0.354912816953E+03   -0.18824E+00   -0.18953E+00 10080   0.987E+00-0.212E-01
CGA:   6    -0.354951306076E+03   -0.38489E-01   -0.39542E-01 10080   0.211E+00-0.353E-01
CGA:   7    -0.354967959046E+03   -0.16653E-01   -0.16515E-01 10080   0.225E+00 0.808E-02
CGA:   8    -0.354981488467E+03   -0.13529E-01   -0.13459E-01 10080   0.875E-01-0.153E-01
CGA:   9    -0.354985330477E+03   -0.38420E-02   -0.38534E-02 10080   0.229E-01 0.171E-02
CGA:  10    -0.354988156970E+03   -0.28265E-02   -0.29608E-02 10080   0.414E-01-0.214E-02
CGA:  11    -0.354990081718E+03   -0.19247E-02   -0.19465E-02 10080   0.805E-02 0.167E-02
CGA:  12    -0.354990724694E+03   -0.64298E-03   -0.88033E-03 10080   0.282E-01-0.592E-02
CGA:  13    -0.354991193130E+03   -0.46844E-03   -0.63422E-03 10080   0.314E-02 0.438E-02
CGA:  14    -0.354991324000E+03   -0.13087E-03   -0.15703E-03 10080   0.300E-02 0.125E-02
CGA:  15    -0.354991777321E+03   -0.45332E-03   -0.50738E-03 10080   0.842E-02-0.938E-03
CGA:  16    -0.354991928164E+03   -0.15084E-03   -0.16244E-03 10080   0.715E-02 0.308E-03
CGA:  17    -0.354992076263E+03   -0.14810E-03   -0.17590E-03 10080   0.398E-02 0.735E-03
CGA:  18    -0.354992213320E+03   -0.13706E-03   -0.13300E-03 10080   0.231E-02-0.989E-04
CGA:  19    -0.354992343414E+03   -0.13009E-03   -0.11532E-03 10080   0.460E-02-0.156E-02
CGA:  20    -0.354992473387E+03   -0.12997E-03   -0.15679E-03 10080   0.155E-02 0.104E-02
CGA:  21    -0.354992631174E+03   -0.15779E-03   -0.17133E-03 10080   0.219E-02-0.435E-03
CGA:  22    -0.354992735780E+03   -0.10461E-03   -0.10322E-03 10080   0.218E-02 0.276E-03
CGA:  23    -0.354992881856E+03   -0.14608E-03   -0.14513E-03 10080   0.580E-03-0.527E-03
CGA:  24    -0.354992970695E+03   -0.88838E-04    0.20074E-04 10080   0.107E-02-0.335E-03
CGA:  25    -0.354992964299E+03    0.63952E-05   -0.17238E-04 10080   0.358E-03 0.530E-03
  40 F= -.35499296E+03 E0= -.35498812E+03  d E =0.397472E-01  mag=    10.0000
       N       E                     dE             d eps       ncg     rms          ort
SDA:   1    -0.353905796231E+03    0.10872E+01    0.00000E+00 10080   0.351E+01 0.000E+00
CGA:   2    -0.354253004027E+03   -0.34721E+00   -0.35758E+00 10080   0.887E+01-0.191E+00
CGA:   3    -0.354741844944E+03   -0.48884E+00   -0.48886E+00 10080   0.177E+01 0.119E-01
CGA:   4    -0.354844582102E+03   -0.10274E+00   -0.10256E+00 10080   0.155E+01-0.931E-01
CGA:   5    -0.354946782918E+03   -0.10220E+00   -0.10277E+00 10080   0.100E+01-0.308E-01
CGA:   6    -0.354987353597E+03   -0.40571E-01   -0.41212E-01 10080   0.424E+00-0.213E-01
CGA:   7    -0.355004717898E+03   -0.17364E-01   -0.17001E-01 10080   0.843E-01 0.988E-02
CGA:   8    -0.355015943220E+03   -0.11225E-01   -0.10364E-01 10080   0.120E+00 0.136E-01
CGA:   9    -0.355021342183E+03   -0.53990E-02   -0.52815E-02 10080   0.193E-01-0.812E-02
CGA:  10    -0.355022375922E+03   -0.10337E-02   -0.10407E-02 10080   0.134E-01 0.421E-02
CGA:  11    -0.355024228202E+03   -0.18523E-02   -0.20887E-02 10080   0.278E-01-0.349E-02
CGA:  12    -0.355024850634E+03   -0.62243E-03   -0.67192E-03 10080   0.630E-02 0.168E-02
CGA:  13    -0.355024975078E+03   -0.12444E-03   -0.16246E-03 10080   0.322E-02 0.107E-02
CGA:  14    -0.355025218493E+03   -0.24341E-03   -0.24147E-03 10080   0.529E-02 0.411E-03
CGA:  15    -0.355025531559E+03   -0.31307E-03   -0.30861E-03 10080   0.593E-02-0.590E-03
CGA:  16    -0.355025730298E+03   -0.19874E-03   -0.20654E-03 10080   0.412E-02 0.400E-03
CGA:  17    -0.355025834585E+03   -0.10429E-03   -0.11137E-03 10080   0.120E-02 0.240E-03
CGA:  18    -0.355025897529E+03   -0.62944E-04   -0.10442E-03 10080   0.479E-02-0.163E-02
CGA:  19    -0.355026006337E+03   -0.10881E-03   -0.13320E-03 10080   0.723E-03 0.821E-03
CGA:  20    -0.355026033468E+03   -0.27131E-04   -0.33695E-04 10080   0.460E-03 0.398E-03
CGA:  21    -0.355026090066E+03   -0.56598E-04    0.11617E-03 10080   0.397E-03 0.177E-03
CGA:  22    -0.355026173374E+03   -0.83308E-04   -0.70035E-04 10080   0.997E-04 0.185E-03
CGA:  23    -0.355026190806E+03   -0.17432E-04   -0.40575E-05 10080   0.138E-02-0.143E-03
CGA:  24    -0.355026203858E+03   -0.13051E-04   -0.35975E-04 10080   0.193E-03 0.296E-03
CGA:  25    -0.355026225069E+03   -0.21212E-04   -0.17618E-04 10080   0.269E-03-0.124E-03
CGA:  26    -0.355026239122E+03   -0.14052E-04   -0.12381E-04 10080   0.102E-03-0.296E-04
CGA:  27    -0.355026238695E+03    0.42716E-06   -0.29368E-05 10080   0.497E-04 0.502E-04
  41 F= -.35502624E+03 E0= -.35502101E+03  d E =-.332744E-01  mag=    10.0000
       N       E                     dE             d eps       ncg     rms          ort
SDA:   1    -0.353841209489E+03    0.11850E+01    0.00000E+00 10080   0.355E+01 0.000E+00
CGA:   2    -0.354587434542E+03   -0.74623E+00   -0.75179E+00 10080   0.260E+01-0.513E-01
CGA:   3    -0.354725287110E+03   -0.13785E+00   -0.14969E+00 10080   0.277E+01-0.104E+00
CGA:   4    -0.354896894973E+03   -0.17161E+00   -0.16486E+00 10080   0.120E+01 0.408E-01
CGA:   5    -0.354982217328E+03   -0.85322E-01   -0.87094E-01 10080   0.230E+00 0.329E-02
CGA:   6    -0.354997349045E+03   -0.15132E-01   -0.15255E-01 10080   0.238E+00 0.120E-01
CGA:   7    -0.355015410445E+03   -0.18061E-01   -0.18147E-01 10080   0.661E-01-0.143E-02
CGA:   8    -0.355018154338E+03   -0.27439E-02   -0.28859E-02 10080   0.363E-01 0.413E-02
CGA:   9    -0.355021241123E+03   -0.30868E-02   -0.30690E-02 10080   0.279E-01-0.228E-02
CGA:  10    -0.355023773510E+03   -0.25324E-02   -0.25192E-02 10080   0.755E-02 0.172E-02
CGA:  11    -0.355024259208E+03   -0.48570E-03   -0.48572E-03 10080   0.771E-02-0.369E-04
CGA:  12    -0.355025142609E+03   -0.88340E-03   -0.86048E-03 10080   0.579E-02 0.934E-03
CGA:  13    -0.355025648950E+03   -0.50634E-03   -0.44339E-03 10080   0.842E-02-0.316E-02
CGA:  14    -0.355025717993E+03   -0.69043E-04   -0.17166E-03 10080   0.112E-02 0.160E-02
CGA:  15    -0.355025740318E+03   -0.22325E-04   -0.51481E-04 10080   0.133E-02 0.638E-03
CGA:  16    -0.355025250450E+03    0.48987E-03   -0.32750E-03 10080   0.554E-01-0.498E-02
CGA:  17    -0.355026100122E+03   -0.84967E-03   -0.10963E-02 10080   0.104E-02 0.524E-02
CGA:  18    -0.355026094584E+03    0.55376E-05   -0.21464E-04 10080   0.345E-03 0.403E-03
CGA:  19    -0.355026098597E+03   -0.40132E-05   -0.15129E-04 10080   0.494E-03 0.215E-03
CGA:  20    -0.355026192156E+03   -0.93559E-04    0.11706E-03 10080   0.132E-02-0.158E-03
CGA:  21    -0.355026337535E+03   -0.14538E-03   -0.25562E-03 10080   0.888E-02-0.539E-03
CGA:  22    -0.355026408817E+03   -0.71282E-04   -0.96366E-04 10080   0.348E-02 0.351E-03
CGA:  23    -0.355026437643E+03   -0.28826E-04   -0.48479E-04 10080   0.614E-03 0.273E-03
CGA:  24    -0.355026442154E+03   -0.45105E-05   -0.10692E-04 10080   0.337E-03 0.899E-04
CGA:  25    -0.355026450176E+03   -0.80217E-05   -0.12658E-04 10080   0.667E-03 0.967E-04
CGA:  26    -0.355026485109E+03   -0.34933E-04   -0.41928E-04 10080   0.111E-02 0.241E-03
CGA:  27    -0.355026515201E+03   -0.30093E-04   -0.38045E-04 10080   0.173E-03 0.161E-03
CGA:  28    -0.355026524521E+03   -0.93199E-05   -0.68779E-05 10080   0.146E-03-0.625E-04
CGA:  29    -0.355026539493E+03   -0.14972E-04    0.29724E-04 10080   0.312E-03 0.155E-04
CGA:  30    -0.355026546712E+03   -0.72190E-05   -0.11046E-04 10080   0.653E-04 0.957E-04
  42 F= -.35502655E+03 E0= -.35502108E+03  d E =-.308018E-03  mag=    10.0000
       N       E                     dE             d eps       ncg     rms          ort
SDA:   1    -0.354111380231E+03    0.91516E+00    0.00000E+00 10080   0.405E+01 0.000E+00
CGA:   2    -0.354320245541E+03   -0.20887E+00   -0.21648E+00 10080   0.440E+01 0.899E-01
CGA:   3    -0.354775330237E+03   -0.45508E+00   -0.45676E+00 10080   0.174E+01-0.303E-01
CGA:   4    -0.354859515709E+03   -0.84185E-01   -0.86819E-01 10080   0.118E+01-0.120E-01
CGA:   5    -0.354987404183E+03   -0.12789E+00   -0.12790E+00 10080   0.410E+00 0.326E-02
CGA:   6    -0.355003296267E+03   -0.15892E-01   -0.15634E-01 10080   0.166E+00-0.238E-01
CGA:   7    -0.355018432677E+03   -0.15136E-01   -0.15036E-01 10080   0.129E+00 0.357E-02
CGA:   8    -0.355024677775E+03   -0.62451E-02   -0.61669E-02 10080   0.348E-01-0.647E-02
CGA:   9    -0.355026749279E+03   -0.20715E-02   -0.20850E-02 10080   0.206E-01 0.282E-02
CGA:  10    -0.355028789133E+03   -0.20399E-02   -0.22781E-02 10080   0.448E-01-0.705E-02
CGA:  11    -0.355029850615E+03   -0.10615E-02   -0.11300E-02 10080   0.108E-01 0.223E-02
CGA:  12    -0.355029982177E+03   -0.13156E-03   -0.21847E-03 10080   0.355E-02 0.182E-02
CGA:  13    -0.355030211384E+03   -0.22921E-03   -0.23921E-03 10080   0.822E-02 0.124E-02
CGA:  14    -0.355031087983E+03   -0.87660E-03   -0.90056E-03 10080   0.291E-02-0.151E-02
CGA:  15    -0.355031135648E+03   -0.47666E-04   -0.61214E-04 10080   0.111E-02 0.334E-03
CGA:  16    -0.355031164135E+03   -0.28487E-04   -0.44434E-04 10080   0.133E-02 0.569E-03
CGA:  17    -0.355031204311E+03   -0.40176E-04   -0.19034E-03 10080   0.110E-01-0.188E-02
CGA:  18    -0.355031409596E+03   -0.20529E-03   -0.25666E-03 10080   0.383E-03 0.129E-02
CGA:  19    -0.355031416285E+03   -0.66894E-05   -0.13339E-04 10080   0.306E-03 0.200E-03
CGA:  20    -0.355031461510E+03   -0.45225E-04    0.54760E-04 10080   0.310E-03 0.180E-03
CGA:  21    -0.355031468541E+03   -0.70310E-05   -0.11520E-04 10080   0.227E-03 0.175E-03
CGA:  22    -0.355031502929E+03   -0.34388E-04    0.30419E-04 10080   0.221E-03 0.170E-03
CGA:  23    -0.355031510753E+03   -0.78237E-05   -0.10152E-04 10080   0.197E-03 0.150E-03
CGA:  24    -0.355031542277E+03   -0.31525E-04    0.18682E-04 10080   0.201E-03 0.133E-03
CGA:  25    -0.355031545025E+03   -0.27473E-05   -0.66383E-05 10080   0.158E-03 0.141E-03
CGA:  26    -0.355031568719E+03   -0.23694E-04    0.18016E-04 10080   0.149E-03 0.139E-03
CGA:  27    -0.355031575472E+03   -0.67529E-05   -0.76991E-05 10080   0.141E-03 0.125E-03
  43 F= -.35503158E+03 E0= -.35502632E+03  d E =-.502876E-02  mag=    10.0000
       N       E                     dE             d eps       ncg     rms          ort
SDA:   1    -0.355008126208E+03    0.23443E-01    0.00000E+00 10080   0.113E+00 0.000E+00
CGA:   2    -0.355013467831E+03   -0.53416E-02   -0.52003E-02 10080   0.111E+00-0.131E-01
CGA:   3    -0.355024056159E+03   -0.10588E-01   -0.10354E-01 10080   0.394E-01 0.485E-02
CGA:   4    -0.355025959756E+03   -0.19036E-02   -0.19506E-02 10080   0.272E-01 0.382E-02
CGA:   5    -0.355029772697E+03   -0.38129E-02   -0.40095E-02 10080   0.178E-01-0.268E-02
CGA:   6    -0.355030050501E+03   -0.27780E-03   -0.37185E-03 10080   0.370E-02 0.237E-02
CGA:   7    -0.355030226469E+03   -0.17597E-03   -0.19413E-03 10080   0.430E-02 0.119E-02
CGA:   8    -0.355030634364E+03   -0.40790E-03   -0.43917E-03 10080   0.444E-02-0.194E-02
CGA:   9    -0.355030688377E+03   -0.54013E-04   -0.64522E-04 10080   0.246E-02 0.299E-03
CGA:  10    -0.355030710264E+03   -0.21887E-04   -0.49460E-04 10080   0.101E-02 0.683E-03
CGA:  11    -0.355030725511E+03   -0.15247E-04   -0.30460E-04 10080   0.727E-03 0.446E-03
CGA:  12    -0.355030765961E+03   -0.40450E-04   -0.42102E-04 10080   0.806E-03 0.103E-03
CGA:  13    -0.355030823329E+03   -0.57368E-04   -0.60720E-04 10080   0.155E-02-0.316E-03
CGA:  14    -0.355030834141E+03   -0.10812E-04   -0.12562E-04 10080   0.106E-02 0.416E-04
CGA:  15    -0.355030841525E+03   -0.73838E-05   -0.12984E-04 10080   0.429E-03 0.137E-03
  44 F= -.35503084E+03 E0= -.35502559E+03  d E =0.733947E-03  mag=    10.0000
       N       E                     dE             d eps       ncg     rms          ort
SDA:   1    -0.355013120180E+03    0.17714E-01    0.00000E+00 10080   0.170E+00 0.000E+00
CGA:   2    -0.355017786597E+03   -0.46664E-02   -0.48085E-02 10080   0.517E-01 0.114E-01
CGA:   3    -0.355024860704E+03   -0.70741E-02   -0.72486E-02 10080   0.656E-01-0.198E-02
CGA:   4    -0.355028435421E+03   -0.35747E-02   -0.35769E-02 10080   0.365E-01-0.674E-03
CGA:   5    -0.355030132783E+03   -0.16974E-02   -0.16978E-02 10080   0.163E-01 0.279E-03
CGA:   6    -0.355031484610E+03   -0.13518E-02   -0.17532E-02 10080   0.402E-01-0.741E-02
CGA:   7    -0.355031950375E+03   -0.46576E-03   -0.51535E-03 10080   0.207E-01 0.158E-02
CGA:   8    -0.355032140690E+03   -0.19031E-03   -0.30034E-03 10080   0.411E-02 0.321E-02
CGA:   9    -0.355032160268E+03   -0.19578E-04   -0.69083E-04 10080   0.216E-02 0.136E-02
CGA:  10    -0.355032201845E+03   -0.41577E-04   -0.68706E-04 10080   0.275E-02 0.104E-02
CGA:  11    -0.355032378366E+03   -0.17652E-03   -0.17878E-03 10080   0.368E-02 0.455E-03
CGA:  12    -0.355032523581E+03   -0.14521E-03   -0.12619E-03 10080   0.185E-02-0.101E-02
CGA:  13    -0.355032559858E+03   -0.36277E-04   -0.29042E-04 10080   0.109E-02-0.283E-03
CGA:  14    -0.355032574433E+03   -0.14575E-04   -0.17023E-04 10080   0.696E-03 0.925E-04
CGA:  15    -0.355032586210E+03   -0.11777E-04   -0.15224E-04 10080   0.516E-03 0.143E-03
CGA:  16    -0.355032609258E+03   -0.23048E-04   -0.22914E-04 10080   0.866E-03-0.201E-04
CGA:  17    -0.355032647672E+03   -0.38414E-04   -0.39823E-04 10080   0.178E-02-0.308E-03
CGA:  18    -0.355032662455E+03   -0.14784E-04   -0.14216E-04 10080   0.123E-02-0.185E-04
CGA:  19    -0.355032670177E+03   -0.77215E-05   -0.12115E-04 10080   0.469E-03 0.138E-03
  45 F= -.35503267E+03 E0= -.35502738E+03  d E =-.182865E-02  mag=    10.0000
       N       E                     dE             d eps       ncg     rms          ort
SDA:   1    -0.355019990413E+03    0.12672E-01    0.00000E+00 10080   0.129E+00 0.000E+00
CGA:   2    -0.355024850723E+03   -0.48603E-02   -0.48557E-02 10080   0.443E-01-0.683E-02
CGA:   3    -0.355026872065E+03   -0.20213E-02   -0.19896E-02 10080   0.228E-01 0.383E-02
CGA:   4    -0.355029784382E+03   -0.29123E-02   -0.37168E-02 10080   0.589E-01-0.715E-02
CGA:   5    -0.355030857583E+03   -0.10732E-02   -0.11226E-02 10080   0.189E-01 0.306E-02
CGA:   6    -0.355031148994E+03   -0.29141E-03   -0.36052E-03 10080   0.562E-02 0.293E-02
CGA:   7    -0.355031340811E+03   -0.19182E-03   -0.20791E-03 10080   0.644E-02 0.155E-02
CGA:   8    -0.355031823630E+03   -0.48282E-03   -0.49927E-03 10080   0.597E-02-0.886E-03
CGA:   9    -0.355032001080E+03   -0.17745E-03   -0.15732E-03 10080   0.280E-02-0.165E-02
CGA:  10    -0.355032041871E+03   -0.40791E-04   -0.46289E-04 10080   0.163E-02 0.284E-03
CGA:  11    -0.355032053215E+03   -0.11344E-04   -0.28436E-04 10080   0.755E-03 0.675E-03
CGA:  12    -0.355032057581E+03   -0.43659E-05   -0.16486E-04 10080   0.493E-03 0.493E-03
CGA:  13    -0.355032102808E+03   -0.45227E-04    0.53250E-04 10080   0.319E-03 0.384E-03
CGA:  14    -0.355032141322E+03   -0.38514E-04   -0.28799E-04 10080   0.195E-03 0.189E-03
CGA:  15    -0.355032172222E+03   -0.30900E-04    0.43914E-05 10080   0.155E-03 0.644E-04
CGA:  16    -0.355032191146E+03   -0.18924E-04   -0.15259E-04 10080   0.457E-04 0.113E-03
CGA:  17    -0.355032190776E+03    0.36965E-06   -0.69952E-06 10080   0.359E-04 0.385E-04
  46 F= -.35503219E+03 E0= -.35502693E+03  d E =0.479401E-03  mag=    10.0000
