       N       E                     dE             d eps       ncg     rms          ort
DAV:   1     0.224416510823E+04    0.22442E+04   -0.13753E+05 10080   0.155E+03
DAV:   2    -0.249757738501E+03   -0.24939E+04   -0.23488E+04 10080   0.415E+02
DAV:   3    -0.482416492883E+03   -0.23266E+03   -0.22925E+03 10080   0.143E+02
DAV:   4    -0.488702548715E+03   -0.62861E+01   -0.62205E+01 10080   0.226E+01
DAV:   5    -0.488982944651E+03   -0.28040E+00   -0.27998E+00 10080   0.365E+00
SDA:   6    -0.252242097938E+03    0.23674E+03   -0.27998E+00 10080   0.672E+03 0.000E+00
CGA:   7    -0.293490865949E+03   -0.41249E+02   -0.71204E+02 10080   0.489E+03 0.273E+02
CGA:   8    -0.326894766511E+03   -0.33404E+02   -0.24742E+02 10080   0.333E+03-0.101E+03
CGA:   9    -0.341573270106E+03   -0.14679E+02   -0.89077E+01 10080   0.113E+04-0.762E+03
CGA:  10    -0.326178582757E+03    0.15395E+02   -0.83909E+02 10080   0.630E+03-0.942E+02
CGA:  11    -0.330687372709E+03   -0.45088E+01   -0.31230E+02 10080   0.640E+03-0.330E+03
CGA:  12    -0.329234079609E+03    0.14533E+01   -0.31362E+02 10080   0.444E+03-0.157E+03
CGA:  13    -0.325377074774E+03    0.38570E+01   -0.15251E+02 10080   0.327E+03-0.328E+02
CGA:  14    -0.339985833933E+03   -0.14609E+02   -0.10097E+02 10080   0.210E+03-0.135E+03
CGA:  15    -0.348491440587E+03   -0.85056E+01   -0.33850E+01 10080   0.157E+04-0.115E+04
CGA:  16    -0.329234608881E+03    0.19257E+02   -0.10259E+03 10080   0.300E+03-0.133E+03
CGA:  17    -0.339509190267E+03   -0.10275E+02   -0.77527E+01 10080   0.274E+03-0.870E+01
CGA:  18    -0.343993552340E+03   -0.44844E+01   -0.11985E+02 10080   0.286E+03-0.108E+03
CGA:  19    -0.344028596159E+03   -0.35044E-01   -0.43295E+01 10080   0.919E+03-0.279E+03
CGA:  20    -0.343450418592E+03    0.57818E+00   -0.52156E+02 10080   0.198E+03-0.138E+03
CGA:  21    -0.340864571319E+03    0.25858E+01   -0.67744E+01 10080   0.454E+03 0.163E+02
CGA:  22    -0.356962684634E+03   -0.16098E+02   -0.27267E+02 10080   0.160E+03-0.790E+02
CGA:  23    -0.370139918095E+03   -0.13177E+02   -0.12300E+02 10080   0.435E+02 0.267E+02
CGA:  24    -0.371201775423E+03   -0.10619E+01   -0.73423E+00 10080   0.219E+02 0.191E+02
CGA:  25    -0.371938353097E+03   -0.73658E+00   -0.54294E+00 10080   0.263E+02 0.107E+02
CGA:  26    -0.373176670443E+03   -0.12383E+01   -0.81360E+00 10080   0.396E+02 0.166E+02
CGA:  27    -0.374274107291E+03   -0.10974E+01   -0.12916E+01 10080   0.784E+01-0.477E+01
CGA:  28    -0.374908327268E+03   -0.63422E+00   -0.60917E+00 10080   0.577E+01-0.120E+01
CGA:  29    -0.375688112778E+03   -0.77979E+00   -0.76651E+00 10080   0.602E+01 0.175E+00
CGA:  30    -0.376303266545E+03   -0.61515E+00   -0.58774E+00 10080   0.389E+01-0.283E+01
CGA:  31    -0.376406096296E+03   -0.10283E+00   -0.10821E+00 10080   0.443E+01-0.100E+00
CGA:  32    -0.376664105201E+03   -0.25801E+00   -0.26326E+00 10080   0.317E+01-0.107E+00
CGA:  33    -0.376841619946E+03   -0.17751E+00   -0.18526E+00 10080   0.251E+01-0.105E+00
CGA:  34    -0.377093621390E+03   -0.25200E+00   -0.25577E+00 10080   0.260E+01-0.221E+00
CGA:  35    -0.377286291998E+03   -0.19267E+00   -0.19357E+00 10080   0.151E+01-0.445E-01
CGA:  36    -0.377384100315E+03   -0.97808E-01   -0.97483E-01 10080   0.661E+00-0.621E-01
CGA:  37    -0.377460090201E+03   -0.75990E-01   -0.76567E-01 10080   0.741E+00-0.322E-01
CGA:  38    -0.377533734812E+03   -0.73645E-01   -0.74283E-01 10080   0.618E+00-0.619E-01
CGA:  39    -0.377577645297E+03   -0.43910E-01   -0.43170E-01 10080   0.270E+00-0.491E-01
CGA:  40    -0.377604628806E+03   -0.26984E-01   -0.27315E-01 10080   0.276E+00-0.244E-01
CGA:  41    -0.377631363943E+03   -0.26735E-01   -0.27308E-01 10080   0.270E+00-0.364E-01
CGA:  42    -0.377651671082E+03   -0.20307E-01   -0.20075E-01 10080   0.110E+00-0.259E-01
CGA:  43    -0.377661028529E+03   -0.93574E-02   -0.93574E-02 10080   0.982E-01-0.908E-02
CGA:  44    -0.377671238143E+03   -0.10210E-01   -0.10357E-01 10080   0.109E+00-0.669E-02
CGA:  45    -0.377681008277E+03   -0.97701E-02   -0.97764E-02 10080   0.539E-01-0.450E-02
CGA:  46    -0.377684735296E+03   -0.37270E-02   -0.37718E-02 10080   0.363E-01 0.188E-02
CGA:  47    -0.377688678217E+03   -0.39429E-02   -0.38981E-02 10080   0.392E-01 0.456E-02
CGA:  48    -0.377693555011E+03   -0.48768E-02   -0.47779E-02 10080   0.349E-01 0.702E-02
CGA:  49    -0.377696291034E+03   -0.27360E-02   -0.28597E-02 10080   0.194E-01 0.498E-02
CGA:  50    -0.377698583325E+03   -0.22923E-02   -0.22574E-02 10080   0.213E-01 0.440E-02
CGA:  51    -0.377701303826E+03   -0.27205E-02   -0.26787E-02 10080   0.237E-01 0.456E-02
CGA:  52    -0.377703980024E+03   -0.26762E-02   -0.26795E-02 10080   0.195E-01 0.261E-02
CGA:  53    -0.377705829538E+03   -0.18495E-02   -0.18745E-02 10080   0.185E-01 0.232E-02
CGA:  54    -0.377707634838E+03   -0.18053E-02   -0.18100E-02 10080   0.167E-01 0.234E-03
CGA:  55    -0.377709386858E+03   -0.17520E-02   -0.17694E-02 10080   0.179E-01-0.211E-02
CGA:  56    -0.377710799340E+03   -0.14125E-02   -0.13901E-02 10080   0.179E-01-0.409E-02
SDA:  57    -0.377712156816E+03   -0.13575E-02   -0.13997E-02 10080   0.164E-01-0.673E-02
CGA:  58    -0.377713651118E+03   -0.14943E-02   -0.14852E-02 10080   0.138E-01-0.218E-02
CGA:  59    -0.377718656425E+03   -0.50053E-02   -0.27281E-04 10080   0.293E-01-0.645E-02
CGA:  60    -0.377719641381E+03   -0.98496E-03   -0.81476E-03 10080   0.119E-01-0.244E-02
CGA:  61    -0.377721104093E+03   -0.14627E-02   -0.14121E-02 10080   0.173E-01-0.143E-02
CGA:  62    -0.377722081166E+03   -0.97707E-03   -0.87507E-03 10080   0.504E-02-0.873E-03
CGA:  63    -0.377722632821E+03   -0.55166E-03   -0.48499E-03 10080   0.956E-02-0.113E-02
CGA:  64    -0.377723711279E+03   -0.10785E-02   -0.98522E-03 10080   0.929E-02-0.409E-02
CGA:  65    -0.377723993190E+03   -0.28191E-03   -0.16633E-03 10080   0.404E-02-0.101E-02
CGA:  66    -0.377724205367E+03   -0.21218E-03   -0.17058E-03 10080   0.447E-02-0.453E-03
CGA:  67    -0.377724558604E+03   -0.35324E-03   -0.34350E-03 10080   0.919E-02-0.195E-03
CGA:  68    -0.377724998625E+03   -0.44002E-03   -0.44796E-03 10080   0.622E-02 0.245E-03
CGA:  69    -0.377725247040E+03   -0.24841E-03   -0.26087E-03 10080   0.368E-02 0.140E-03
CGA:  70    -0.377725482181E+03   -0.23514E-03   -0.22434E-03 10080   0.426E-02-0.178E-03
CGA:  71    -0.377725847203E+03   -0.36502E-03   -0.32425E-03 10080   0.661E-02-0.874E-03
CGA:  72    -0.377726185837E+03   -0.33863E-03   -0.26203E-03 10080   0.458E-02-0.106E-02
CGA:  73    -0.377726344158E+03   -0.15832E-03   -0.12689E-03 10080   0.217E-02-0.366E-03
CGA:  74    -0.377726424739E+03   -0.80580E-04   -0.84798E-04 10080   0.238E-02 0.558E-04
CGA:  75    -0.377726552339E+03   -0.12760E-03   -0.15095E-03 10080   0.374E-02 0.456E-03
CGA:  76    -0.377726735795E+03   -0.18346E-03   -0.22507E-03 10080   0.221E-02 0.680E-03
CGA:  77    -0.377726834381E+03   -0.98586E-04   -0.11063E-03 10080   0.120E-02 0.183E-03
CGA:  78    -0.377726947833E+03   -0.11345E-03   -0.10809E-03 10080   0.205E-02-0.255E-03
CGA:  79    -0.377727106461E+03   -0.15863E-03   -0.14731E-03 10080   0.409E-02-0.938E-03
CGA:  80    -0.377727249870E+03   -0.14341E-03   -0.85194E-04 10080   0.364E-02-0.911E-03
CGA:  81    -0.377727391770E+03   -0.14190E-03   -0.93777E-04 10080   0.189E-02-0.761E-03
CGA:  82    -0.377727477495E+03   -0.85725E-04   -0.61958E-04 10080   0.196E-02-0.444E-03
CGA:  83    -0.377727617864E+03   -0.14037E-03   -0.14028E-03 10080   0.630E-02-0.860E-03
CGA:  84    -0.377727839263E+03   -0.22140E-03   -0.15865E-03 10080   0.875E-02-0.136E-02
CGA:  85    -0.377728130584E+03   -0.29132E-03   -0.20562E-03 10080   0.411E-02-0.138E-02
CGA:  86    -0.377728284111E+03   -0.15353E-03   -0.10139E-03 10080   0.223E-02-0.920E-03
CGA:  87    -0.377728433225E+03   -0.14911E-03   -0.14216E-03 10080   0.602E-02-0.218E-02
CGA:  88    -0.377728843503E+03   -0.41028E-03   -0.40221E-03 10080   0.179E-02-0.414E-03
CGA:  89    -0.377729081531E+03   -0.23803E-03   -0.44414E-03 10080   0.621E-02-0.113E-02
CGA:  90    -0.377729381068E+03   -0.29954E-03   -0.30108E-03 10080   0.492E-03 0.357E-04
CGA:  91    -0.377729416256E+03   -0.35188E-04   -0.37963E-04 10080   0.242E-03 0.194E-03
CGA:  92    -0.377729455146E+03   -0.38890E-04   -0.35850E-04 10080   0.215E-03 0.190E-03
CGA:  93    -0.377729154924E+03    0.30022E-03   -0.16310E-03 10080   0.117E-01-0.868E-03
CGA:  94    -0.377729642538E+03   -0.48761E-03   -0.50391E-03 10080   0.242E-03 0.140E-03
CGA:  95    -0.377729653170E+03   -0.10632E-04   -0.15725E-04 10080   0.721E-04 0.536E-04
CGA:  96    -0.377729660415E+03   -0.72457E-05   -0.97855E-05 10080   0.100E-03 0.574E-04
CGA:  97    -0.377729677676E+03   -0.17260E-04   -0.22240E-04 10080   0.482E-03-0.720E-04
CGA:  98    -0.377729704468E+03   -0.26792E-04   -0.26521E-04 10080   0.832E-04-0.157E-05
CGA:  99    -0.377729720545E+03   -0.16077E-04   -0.15947E-04 10080   0.231E-03 0.301E-05
CGA: 100    -0.377729798725E+03   -0.78180E-04    0.27743E-03 10080   0.170E-03 0.205E-03
CGA: 101    -0.377729816268E+03   -0.17543E-04   -0.14701E-04 10080   0.131E-03-0.421E-04
CGA: 102    -0.377729753726E+03    0.62541E-04   -0.41393E-04 10080   0.553E-02-0.205E-03
CGA: 103    -0.377729993588E+03   -0.23986E-03   -0.24904E-03 10080   0.234E-03 0.746E-04
CGA: 104    -0.377729997629E+03   -0.40406E-05   -0.13386E-04 10080   0.516E-04 0.453E-04
   1 F= -.37773000E+03 E0= -.37772161E+03  d E =-.377730E+03  mag=     8.0000
       N       E                     dE             d eps       ncg     rms          ort
SDA:   1    -0.377741217370E+03   -0.11224E-01    0.00000E+00 10080   0.794E-02 0.000E+00
CGA:   2    -0.377741610701E+03   -0.39333E-03   -0.41733E-03 10080   0.157E-02 0.122E-03
CGA:   3    -0.377741818702E+03   -0.20800E-03   -0.22259E-03 10080   0.112E-02 0.156E-03
CGA:   4    -0.377741944300E+03   -0.12560E-03   -0.13134E-03 10080   0.261E-03 0.473E-04
CGA:   5    -0.377742024588E+03   -0.80288E-04   -0.89629E-04 10080   0.370E-03-0.882E-04
CGA:   6    -0.377742043548E+03   -0.18961E-04   -0.14703E-04 10080   0.141E-03-0.251E-04
CGA:   7    -0.377742058849E+03   -0.15301E-04   -0.15178E-04 10080   0.190E-03-0.125E-05
CGA:   8    -0.377742079799E+03   -0.20950E-04   -0.22051E-04 10080   0.206E-03 0.106E-04
CGA:   9    -0.377742103155E+03   -0.23355E-04   -0.22074E-04 10080   0.185E-03-0.124E-04
CGA:  10    -0.377742032850E+03    0.70305E-04   -0.13114E-03 10080   0.411E-02-0.374E-03
CGA:  11    -0.377742230757E+03   -0.19791E-03   -0.19935E-03 10080   0.610E-03 0.417E-05
CGA:  12    -0.377742341339E+03   -0.11058E-03   -0.11163E-03 10080   0.407E-03 0.261E-04
CGA:  13    -0.377742379472E+03   -0.38132E-04   -0.40326E-04 10080   0.104E-03 0.181E-04
CGA:  14    -0.377742426871E+03   -0.47399E-04    0.86894E-03 10080   0.533E-04 0.139E-04
CGA:  15    -0.377742437536E+03   -0.10666E-04   -0.10532E-04 10080   0.972E-04-0.346E-05
CGA:  16    -0.377742461773E+03   -0.24237E-04   -0.27843E-04 10080   0.232E-03-0.391E-04
CGA:  17    -0.377742492056E+03   -0.30282E-04   -0.17701E-04 10080   0.309E-03-0.142E-03
CGA:  18    -0.377742543252E+03   -0.51196E-04   -0.41822E-04 10080   0.503E-03-0.120E-03
CGA:  19    -0.377742608145E+03   -0.64893E-04   -0.60402E-04 10080   0.643E-03-0.357E-03
CGA:  20    -0.377742637796E+03   -0.29651E-04   -0.42436E-04 10080   0.148E-03 0.912E-04
CGA:  21    -0.377742638999E+03   -0.12025E-05   -0.11433E-04 10080   0.551E-04 0.766E-04
   2 F= -.37774264E+03 E0= -.37773449E+03  d E =-.126414E-01  mag=     8.0000
       N       E                     dE             d eps       ncg     rms          ort
SDA:   1    -0.377312414230E+03    0.43022E+00    0.00000E+00 10080   0.272E+01 0.000E+00
CGA:   2    -0.377757511011E+03   -0.44510E+00   -0.44706E+00 10080   0.315E+01 0.291E-01
CGA:   3    -0.377989404476E+03   -0.23189E+00   -0.21873E+00 10080   0.481E+00 0.141E+00
CGA:   4    -0.378110826802E+03   -0.12142E+00   -0.12146E+00 10080   0.234E+00-0.738E-03
CGA:   5    -0.378130260948E+03   -0.19434E-01   -0.19065E-01 10080   0.850E-01 0.759E-04
CGA:   6    -0.378141367434E+03   -0.11106E-01   -0.11062E-01 10080   0.544E-01-0.594E-03
CGA:   7    -0.378145274288E+03   -0.39069E-02   -0.39047E-02 10080   0.130E-01 0.168E-03
CGA:   8    -0.378148342098E+03   -0.30678E-02   -0.30792E-02 10080   0.658E-02-0.173E-03
CGA:   9    -0.378149285566E+03   -0.94347E-03   -0.93839E-03 10080   0.652E-02-0.160E-03
CGA:  10    -0.378150187288E+03   -0.90172E-03   -0.88866E-03 10080   0.418E-02-0.384E-03
CGA:  11    -0.378150512753E+03   -0.32546E-03   -0.31626E-03 10080   0.186E-02-0.110E-03
CGA:  12    -0.378150930589E+03   -0.41784E-03   -0.41559E-03 10080   0.706E-03 0.371E-04
CGA:  13    -0.378151037478E+03   -0.10689E-03   -0.10449E-03 10080   0.891E-03-0.912E-04
CGA:  14    -0.378151140572E+03   -0.10309E-03   -0.10196E-03 10080   0.485E-03-0.306E-04
CGA:  15    -0.378151174531E+03   -0.33959E-04   -0.34746E-04 10080   0.187E-03 0.894E-05
CGA:  16    -0.378151175149E+03   -0.61852E-06   -0.13205E-03 10080   0.131E-02-0.248E-03
CGA:  17    -0.378151249412E+03   -0.74263E-04   -0.75999E-04 10080   0.379E-03 0.161E-04
CGA:  18    -0.378151320915E+03   -0.71502E-04   -0.71586E-04 10080   0.240E-03-0.242E-04
CGA:  19    -0.378151347762E+03   -0.26847E-04   -0.22744E-04 10080   0.807E-04-0.497E-04
CGA:  20    -0.378151362455E+03   -0.14693E-04   -0.14271E-04 10080   0.731E-04 0.974E-05
CGA:  21    -0.378151377721E+03   -0.15265E-04   -0.15966E-04 10080   0.269E-03-0.516E-04
CGA:  22    -0.378151392476E+03   -0.14756E-04   -0.13204E-04 10080   0.326E-04-0.113E-04
CGA:  23    -0.378151406869E+03   -0.14392E-04    0.87428E-05 10080   0.347E-04 0.725E-05
CGA:  24    -0.378151426529E+03   -0.19661E-04    0.11479E-04 10080   0.301E-04 0.134E-04
CGA:  25    -0.378151446476E+03   -0.19947E-04    0.99984E-05 10080   0.252E-04 0.296E-04
CGA:  26    -0.378151443028E+03    0.34484E-05   -0.10437E-04 10080   0.580E-03-0.578E-04
CGA:  27    -0.378151468011E+03   -0.24984E-04   -0.25129E-04 10080   0.204E-04 0.196E-05
CGA:  28    -0.378151439468E+03    0.28544E-04   -0.16133E-04 10080   0.963E-03-0.728E-04
CGA:  29    -0.378151507914E+03   -0.68447E-04   -0.60717E-04 10080   0.544E-04-0.525E-04
CGA:  30    -0.378151511803E+03   -0.38888E-05   -0.42831E-05 10080   0.310E-04 0.335E-05
   3 F= -.37815151E+03 E0= -.37814351E+03  d E =-.408873E+00  mag=     8.0000
       N       E                     dE             d eps       ncg     rms          ort
SDA:   1    -0.374654908439E+03    0.34966E+01    0.00000E+00 10080   0.146E+02 0.000E+00
CGA:   2    -0.376746580139E+03   -0.20917E+01   -0.21566E+01 10080   0.156E+02 0.155E+00
CGA:   3    -0.377945701876E+03   -0.11991E+01   -0.95977E+00 10080   0.214E+01 0.326E+01
CGA:   4    -0.378291530381E+03   -0.34583E+00   -0.34288E+00 10080   0.447E+01-0.784E-02
CGA:   5    -0.378616335677E+03   -0.32481E+00   -0.32690E+00 10080   0.119E+01-0.317E-01
CGA:   6    -0.378670396561E+03   -0.54061E-01   -0.57009E-01 10080   0.515E+00-0.569E-01
CGA:   7    -0.378723704922E+03   -0.53308E-01   -0.53198E-01 10080   0.442E+00-0.138E-02
CGA:   8    -0.378749331495E+03   -0.25627E-01   -0.25399E-01 10080   0.151E+00 0.503E-02
CGA:   9    -0.378760176685E+03   -0.10845E-01   -0.10900E-01 10080   0.952E-01 0.154E-02
CGA:  10    -0.378771794958E+03   -0.11618E-01   -0.11645E-01 10080   0.122E+00-0.741E-04
CGA:  11    -0.378779495701E+03   -0.77007E-02   -0.76746E-02 10080   0.311E-01-0.178E-02
CGA:  12    -0.378782690860E+03   -0.31952E-02   -0.31598E-02 10080   0.447E-01-0.722E-03
CGA:  13    -0.378787180061E+03   -0.44892E-02   -0.44336E-02 10080   0.188E-01-0.128E-02
CGA:  14    -0.378788481432E+03   -0.13014E-02   -0.12596E-02 10080   0.109E-01-0.615E-03
CGA:  15    -0.378789610213E+03   -0.11288E-02   -0.11167E-02 10080   0.109E-01-0.345E-03
CGA:  16    -0.378790698748E+03   -0.10885E-02   -0.10979E-02 10080   0.565E-02 0.251E-03
CGA:  17    -0.378791018203E+03   -0.31945E-03   -0.32625E-03 10080   0.217E-02 0.828E-04
CGA:  18    -0.378791547480E+03   -0.52928E-03   -0.61057E-03 10080   0.584E-02-0.573E-03
CGA:  19    -0.378791752546E+03   -0.20507E-03   -0.18642E-03 10080   0.174E-02-0.202E-03
CGA:  20    -0.378791825045E+03   -0.72499E-04   -0.75807E-04 10080   0.127E-02 0.338E-04
CGA:  21    -0.378791945161E+03   -0.12012E-03   -0.12656E-03 10080   0.220E-02 0.179E-03
CGA:  22    -0.378792107311E+03   -0.16215E-03   -0.16649E-03 10080   0.104E-02 0.606E-04
CGA:  23    -0.378792213162E+03   -0.10585E-03   -0.88674E-04 10080   0.941E-03-0.377E-03
CGA:  24    -0.378792252455E+03   -0.39293E-04   -0.11149E-03 10080   0.365E-02-0.121E-02
CGA:  25    -0.378792422622E+03   -0.17017E-03   -0.18904E-03 10080   0.426E-03 0.259E-03
CGA:  26    -0.378792475125E+03   -0.52503E-04   -0.53531E-04 10080   0.396E-03 0.135E-03
CGA:  27    -0.378792564128E+03   -0.89003E-04   -0.90701E-04 10080   0.158E-03-0.348E-04
CGA:  28    -0.378792561694E+03    0.24333E-05   -0.49391E-04 10080   0.136E-02-0.239E-03
CGA:  29    -0.378792650127E+03   -0.88432E-04   -0.77941E-04 10080   0.182E-03-0.134E-03
CGA:  30    -0.378792677693E+03   -0.27567E-04   -0.31515E-04 10080   0.472E-03-0.671E-04
CGA:  31    -0.378792712212E+03   -0.34518E-04   -0.77085E-04 10080   0.371E-03-0.352E-03
CGA:  32    -0.378792821763E+03   -0.10955E-03    0.81864E-03 10080   0.253E-03 0.798E-04
CGA:  33    -0.378792865199E+03   -0.43436E-04   -0.90268E-04 10080   0.901E-03-0.311E-03
CGA:  34    -0.378792918559E+03   -0.53360E-04   -0.53926E-04 10080   0.129E-03 0.773E-05
CGA:  35    -0.378792925043E+03   -0.64835E-05   -0.10285E-04 10080   0.602E-04 0.569E-04
   4 F= -.37879293E+03 E0= -.37878528E+03  d E =-.641413E+00  mag=     8.0000
       N       E                     dE             d eps       ncg     rms          ort
SDA:   1    -0.376277322284E+03    0.25156E+01    0.00000E+00 10080   0.100E+02 0.000E+00
CGA:   2    -0.377872572640E+03   -0.15953E+01   -0.15946E+01 10080   0.962E+01 0.371E-01
CGA:   3    -0.378560720235E+03   -0.68815E+00   -0.65639E+00 10080   0.158E+01 0.262E+00
CGA:   4    -0.378986107998E+03   -0.42539E+00   -0.42735E+00 10080   0.402E+00-0.159E-01
CGA:   5    -0.379052215442E+03   -0.66107E-01   -0.66207E-01 10080   0.269E+00-0.331E-02
CGA:   6    -0.379075063906E+03   -0.22848E-01   -0.22916E-01 10080   0.883E-01-0.236E-02
CGA:   7    -0.379084844723E+03   -0.97808E-02   -0.97957E-02 10080   0.573E-01 0.430E-03
CGA:   8    -0.379092744905E+03   -0.79002E-02   -0.79010E-02 10080   0.220E-01 0.320E-03
CGA:   9    -0.379097794049E+03   -0.50491E-02   -0.53000E-02 10080   0.292E-01-0.251E-02
CGA:  10    -0.379100508704E+03   -0.27147E-02   -0.26801E-02 10080   0.884E-02-0.885E-03
CGA:  11    -0.379102826196E+03   -0.23175E-02   -0.25891E-02 10080   0.118E-01-0.170E-02
CGA:  12    -0.379103574248E+03   -0.74805E-03   -0.66113E-03 10080   0.342E-02-0.118E-02
CGA:  13    -0.379104238955E+03   -0.66471E-03   -0.97717E-03 10080   0.894E-02-0.183E-02
CGA:  14    -0.379104747862E+03   -0.50891E-03   -0.54083E-03 10080   0.894E-03 0.374E-03
CGA:  15    -0.379104929038E+03   -0.18118E-03   -0.50260E-03 10080   0.531E-02-0.830E-03
CGA:  16    -0.379105282928E+03   -0.35389E-03   -0.34125E-03 10080   0.976E-03-0.112E-03
CGA:  17    -0.379105456662E+03   -0.17373E-03   -0.21686E-03 10080   0.266E-02-0.695E-03
CGA:  18    -0.379105603460E+03   -0.14680E-03   -0.14681E-03 10080   0.273E-03 0.114E-04
CGA:  19    -0.379105695405E+03   -0.91946E-04    0.67050E-03 10080   0.431E-03-0.161E-04
CGA:  20    -0.379105928498E+03   -0.23309E-03    0.42483E-04 10080   0.325E-03 0.281E-03
CGA:  21    -0.379105884856E+03    0.43642E-04   -0.12829E-03 10080   0.462E-02-0.735E-03
CGA:  22    -0.379106187899E+03   -0.30304E-03   -0.28417E-03 10080   0.369E-03-0.208E-03
CGA:  23    -0.379106235688E+03   -0.47790E-04   -0.41844E-04 10080   0.412E-03-0.120E-03
CGA:  24    -0.379106404817E+03   -0.16913E-03    0.27650E-04 10080   0.276E-03 0.189E-03
CGA:  25    -0.379106586608E+03   -0.18179E-03    0.92864E-04 10080   0.892E-03-0.957E-04
CGA:  26    -0.379107094855E+03   -0.50825E-03    0.29616E-04 10080   0.449E-02-0.308E-03
CGA:  27    -0.379109137878E+03   -0.20430E-02    0.22221E-03 10080   0.163E-01-0.614E-02
CGA:  28    -0.379110302281E+03   -0.11644E-02   -0.12042E-02 10080   0.524E-03 0.593E-03
CGA:  29    -0.379110351994E+03   -0.49713E-04   -0.60233E-04 10080   0.206E-03 0.210E-03
CGA:  30    -0.379110361306E+03   -0.93117E-05   -0.22182E-04 10080   0.954E-04 0.159E-03
CGA:  31    -0.379110423928E+03   -0.62622E-04   -0.51356E-04 10080   0.200E-03 0.301E-04
CGA:  32    -0.379110474566E+03   -0.50638E-04   -0.86347E-04 10080   0.996E-03-0.225E-03
CGA:  33    -0.379110504465E+03   -0.29900E-04   -0.52374E-04 10080   0.685E-04 0.184E-03
CGA:  34    -0.379110505457E+03   -0.99163E-06   -0.44706E-05 10080   0.286E-04 0.293E-04
CGA:  35    -0.379110512577E+03   -0.71201E-05   -0.12857E-04 10080   0.220E-03-0.389E-04
CGA:  36    -0.379110546800E+03   -0.34223E-04   -0.27010E-04 10080   0.133E-03-0.133E-03
CGA:  37    -0.379110555795E+03   -0.89945E-05   -0.93912E-05 10080   0.148E-04 0.437E-05
   5 F= -.37911056E+03 E0= -.37910558E+03  d E =-.317631E+00  mag=     8.0000
       N       E                     dE             d eps       ncg     rms          ort
SDA:   1    -0.376501732149E+03    0.26088E+01    0.00000E+00 10080   0.927E+01 0.000E+00
CGA:   2    -0.378260450217E+03   -0.17587E+01   -0.17739E+01 10080   0.674E+01-0.411E+00
CGA:   3    -0.378783327766E+03   -0.52288E+00   -0.58063E+00 10080   0.177E+01-0.199E+00
CGA:   4    -0.379161079381E+03   -0.37775E+00   -0.37804E+00 10080   0.429E+00-0.475E-02
CGA:   5    -0.379218059013E+03   -0.56980E-01   -0.56929E-01 10080   0.218E+00-0.508E-03
CGA:   6    -0.379248067885E+03   -0.30009E-01   -0.29975E-01 10080   0.474E-01-0.190E-02
CGA:   7    -0.379258836091E+03   -0.10768E-01   -0.10844E-01 10080   0.353E-01-0.118E-02
CGA:   8    -0.379263409683E+03   -0.45736E-02   -0.45668E-02 10080   0.205E-01 0.677E-04
CGA:   9    -0.379268825072E+03   -0.54154E-02   -0.59600E-02 10080   0.140E-01-0.440E-02
CGA:  10    -0.379270956766E+03   -0.21317E-02   -0.21511E-02 10080   0.102E-01-0.825E-03
CGA:  11    -0.379272690959E+03   -0.17342E-02   -0.17520E-02 10080   0.510E-02-0.228E-02
CGA:  12    -0.379273412515E+03   -0.72156E-03   -0.73113E-03 10080   0.325E-02-0.919E-03
CGA:  13    -0.379273871824E+03   -0.45931E-03   -0.84213E-03 10080   0.656E-02-0.271E-02
CGA:  14    -0.379274337884E+03   -0.46606E-03   -0.49661E-03 10080   0.113E-02 0.375E-03
CGA:  15    -0.379274717961E+03   -0.38008E-03   -0.47312E-03 10080   0.102E-02-0.422E-03
CGA:  16    -0.379271772633E+03    0.29453E-02   -0.16270E-02 10080   0.382E-01-0.366E-02
CGA:  17    -0.379274933937E+03   -0.31613E-02   -0.31725E-02 10080   0.329E-02 0.276E-03
CGA:  18    -0.379275626747E+03   -0.69281E-03   -0.73107E-03 10080   0.144E-02 0.356E-03
CGA:  19    -0.379275889519E+03   -0.26277E-03   -0.25356E-03 10080   0.672E-03-0.438E-04
CGA:  20    -0.379275992946E+03   -0.10343E-03   -0.29774E-03 10080   0.433E-02-0.137E-02
CGA:  21    -0.379276202188E+03   -0.20924E-03   -0.32207E-03 10080   0.508E-03 0.605E-03
CGA:  22    -0.379276221253E+03   -0.19065E-04   -0.61541E-04 10080   0.196E-03 0.209E-03
CGA:  23    -0.379276262376E+03   -0.41123E-04   -0.41449E-04 10080   0.146E-03 0.246E-05
CGA:  24    -0.379274225532E+03    0.20368E-02   -0.11132E-02 10080   0.955E-02-0.146E-02
CGA:  25    -0.379275510199E+03   -0.12847E-02   -0.12750E-02 10080   0.592E-02-0.302E-03
CGA:  26    -0.379276677003E+03   -0.11668E-02   -0.12257E-02 10080   0.451E-03 0.220E-03
CGA:  27    -0.379276818422E+03   -0.14142E-03   -0.81829E-04 10080   0.333E-03-0.184E-03
CGA:  28    -0.379276877861E+03   -0.59439E-04   -0.41716E-04 10080   0.116E-03-0.644E-04
CGA:  29    -0.379276869812E+03    0.80489E-05   -0.75474E-05 10080   0.460E-04 0.403E-04
   6 F= -.37927687E+03 E0= -.37927478E+03  d E =-.166314E+00  mag=     8.0000
       N       E                     dE             d eps       ncg     rms          ort
SDA:   1    -0.375672228476E+03    0.36046E+01    0.00000E+00 10080   0.109E+02 0.000E+00
CGA:   2    -0.378275859722E+03   -0.26036E+01   -0.25731E+01 10080   0.437E+01 0.768E-01
CGA:   3    -0.378872854358E+03   -0.59699E+00   -0.67490E+00 10080   0.250E+01-0.117E+00
CGA:   4    -0.379191668699E+03   -0.31881E+00   -0.24617E+00 10080   0.409E+00 0.705E+00
CGA:   5    -0.379258416920E+03   -0.66748E-01   -0.60202E-01 10080   0.288E+00 0.548E-01
CGA:   6    -0.379300577694E+03   -0.42161E-01   -0.42550E-01 10080   0.757E-01-0.518E-02
CGA:   7    -0.379312054192E+03   -0.11476E-01   -0.11463E-01 10080   0.631E-01-0.183E-02
CGA:   8    -0.379320707746E+03   -0.86536E-02   -0.86762E-02 10080   0.264E-01 0.134E-02
CGA:   9    -0.379324992046E+03   -0.42843E-02   -0.43030E-02 10080   0.220E-01 0.373E-03
CGA:  10    -0.379328704617E+03   -0.37126E-02   -0.36052E-02 10080   0.111E-01-0.751E-03
CGA:  11    -0.379330569759E+03   -0.18651E-02   -0.18633E-02 10080   0.105E-01 0.293E-04
CGA:  12    -0.379332140432E+03   -0.15707E-02   -0.15586E-02 10080   0.291E-02-0.374E-04
CGA:  13    -0.379332830337E+03   -0.68991E-03   -0.65390E-03 10080   0.355E-02-0.432E-03
CGA:  14    -0.379333143178E+03   -0.31284E-03   -0.31179E-03 10080   0.880E-03 0.403E-05
CGA:  15    -0.379333247058E+03   -0.10388E-03   -0.11912E-03 10080   0.940E-03 0.981E-04
CGA:  16    -0.379333472313E+03   -0.22525E-03   -0.21310E-03 10080   0.478E-03-0.148E-03
CGA:  17    -0.379333571197E+03   -0.98884E-04   -0.16234E-03 10080   0.261E-02-0.534E-03
CGA:  18    -0.379333722299E+03   -0.15110E-03   -0.19500E-03 10080   0.291E-03 0.267E-03
CGA:  19    -0.379333813767E+03   -0.91468E-04   -0.91485E-04 10080   0.368E-03-0.273E-05
CGA:  20    -0.379333895428E+03   -0.81661E-04   -0.63810E-04 10080   0.249E-03-0.172E-03
CGA:  21    -0.379333925207E+03   -0.29779E-04   -0.79722E-04 10080   0.112E-02-0.157E-03
CGA:  22    -0.379334081838E+03   -0.15663E-03   -0.12562E-03 10080   0.419E-03-0.185E-03
CGA:  23    -0.379334143400E+03   -0.61562E-04   -0.68078E-04 10080   0.129E-03 0.754E-04
CGA:  24    -0.379334183140E+03   -0.39740E-04   -0.37061E-04 10080   0.237E-03-0.808E-04
CGA:  25    -0.379334214528E+03   -0.31388E-04   -0.25820E-04 10080   0.472E-04-0.319E-04
CGA:  26    -0.379334245999E+03   -0.31470E-04    0.12369E-04 10080   0.357E-04 0.237E-04
CGA:  27    -0.379334255242E+03   -0.92430E-05   -0.90876E-05 10080   0.114E-03-0.126E-04
   7 F= -.37933426E+03 E0= -.37933166E+03  d E =-.573854E-01  mag=     8.0000
       N       E                     dE             d eps       ncg     rms          ort
SDA:   1    -0.369173274110E+03    0.10161E+02    0.00000E+00 10080   0.268E+02 0.000E+00
CGA:   2    -0.376453595470E+03   -0.72803E+01   -0.72851E+01 10080   0.149E+02-0.510E+00
CGA:   3    -0.378175144798E+03   -0.17215E+01   -0.16129E+01 10080   0.416E+01 0.217E+01
CGA:   4    -0.379060608637E+03   -0.88546E+00   -0.88583E+00 10080   0.815E+00 0.948E-02
CGA:   5    -0.379223877768E+03   -0.16327E+00   -0.16306E+00 10080   0.235E+00-0.394E-02
CGA:   6    -0.379266481641E+03   -0.42604E-01   -0.42761E-01 10080   0.888E-01-0.129E-03
CGA:   7    -0.379283182658E+03   -0.16701E-01   -0.16689E-01 10080   0.411E-01-0.278E-03
CGA:   8    -0.379292801909E+03   -0.96193E-02   -0.95969E-02 10080   0.273E-01-0.219E-02
CGA:   9    -0.379298723850E+03   -0.59219E-02   -0.58732E-02 10080   0.178E-01-0.278E-02
CGA:  10    -0.379302677556E+03   -0.39537E-02   -0.39588E-02 10080   0.760E-02-0.141E-02
CGA:  11    -0.379304703662E+03   -0.20261E-02   -0.21085E-02 10080   0.561E-02-0.143E-02
CGA:  12    -0.379305723853E+03   -0.10202E-02   -0.98175E-03 10080   0.315E-02-0.121E-02
CGA:  13    -0.379306310284E+03   -0.58643E-03   -0.14016E-02 10080   0.612E-02-0.251E-02
CGA:  14    -0.379307205900E+03   -0.89562E-03   -0.93314E-03 10080   0.189E-02 0.369E-03
CGA:  15    -0.379307639283E+03   -0.43338E-03   -0.43344E-03 10080   0.643E-03 0.281E-05
CGA:  16    -0.379307733677E+03   -0.94393E-04   -0.49786E-03 10080   0.376E-02-0.774E-03
CGA:  17    -0.379308111032E+03   -0.37736E-03   -0.41377E-03 10080   0.542E-03 0.221E-03
CGA:  18    -0.379308219097E+03   -0.10806E-03   -0.11720E-03 10080   0.217E-03 0.135E-03
CGA:  19    -0.379308377607E+03   -0.15851E-03    0.40705E-03 10080   0.163E-03 0.436E-04
CGA:  20    -0.379308518812E+03   -0.14121E-03    0.75556E-04 10080   0.186E-03 0.835E-05
CGA:  21    -0.379308656381E+03   -0.13757E-03    0.84109E-04 10080   0.170E-03 0.817E-04
CGA:  22    -0.379308796968E+03   -0.14059E-03    0.45427E-03 10080   0.195E-03 0.684E-04
CGA:  23    -0.379309019186E+03   -0.22222E-03    0.72376E-04 10080   0.135E-03 0.727E-04
CGA:  24    -0.379309195953E+03   -0.17677E-03    0.32266E-04 10080   0.114E-03-0.563E-05
CGA:  25    -0.379309303334E+03   -0.10738E-03    0.17510E-04 10080   0.564E-04-0.675E-05
CGA:  26    -0.379309252304E+03    0.51030E-04   -0.45365E-04 10080   0.800E-03-0.164E-03
CGA:  27    -0.379309407770E+03   -0.15547E-03   -0.12072E-03 10080   0.206E-03-0.233E-03
CGA:  28    -0.379309450678E+03   -0.42907E-04   -0.46495E-04 10080   0.256E-03-0.130E-03
CGA:  29    -0.379309451163E+03   -0.48500E-06   -0.18688E-04 10080   0.360E-04 0.845E-04
   8 F= -.37930945E+03 E0= -.37930929E+03  d E =0.248041E-01  mag=     8.0000
       N       E                     dE             d eps       ncg     rms          ort
SDA:   1    -0.377260019877E+03    0.20494E+01    0.00000E+00 10080   0.523E+01 0.000E+00
CGA:   2    -0.378945069734E+03   -0.16850E+01   -0.16852E+01 10080   0.159E+01-0.315E-02
CGA:   3    -0.379284427122E+03   -0.33936E+00   -0.33924E+00 10080   0.422E+00 0.378E-02
CGA:   4    -0.379352384710E+03   -0.67958E-01   -0.67790E-01 10080   0.104E+00 0.285E-03
CGA:   5    -0.379372280411E+03   -0.19896E-01   -0.19844E-01 10080   0.270E-01-0.456E-03
CGA:   6    -0.379377875751E+03   -0.55953E-02   -0.56377E-02 10080   0.964E-02 0.935E-03
CGA:   7    -0.379380276036E+03   -0.24003E-02   -0.24050E-02 10080   0.454E-02 0.307E-03
CGA:   8    -0.379381380604E+03   -0.11046E-02   -0.11092E-02 10080   0.247E-02 0.255E-03
CGA:   9    -0.379382060585E+03   -0.67998E-03   -0.67966E-03 10080   0.124E-02 0.626E-04
CGA:  10    -0.379382355866E+03   -0.29528E-03   -0.29853E-03 10080   0.570E-03 0.162E-03
CGA:  11    -0.379382587043E+03   -0.23118E-03   -0.25032E-03 10080   0.707E-03-0.144E-03
CGA:  12    -0.379382667873E+03   -0.80831E-04   -0.90556E-04 10080   0.422E-03 0.109E-03
CGA:  13    -0.379382771158E+03   -0.10328E-03   -0.10849E-03 10080   0.390E-03 0.151E-03
CGA:  14    -0.379382905557E+03   -0.13440E-03   -0.13435E-03 10080   0.411E-03-0.360E-04
CGA:  15    -0.379383024813E+03   -0.11926E-03   -0.12036E-03 10080   0.379E-03-0.229E-04
CGA:  16    -0.379383102127E+03   -0.77314E-04   -0.79600E-04 10080   0.306E-03 0.585E-04
CGA:  17    -0.379383183067E+03   -0.80940E-04   -0.80493E-04 10080   0.173E-03-0.199E-04
CGA:  18    -0.379383238413E+03   -0.55347E-04   -0.66348E-04 10080   0.211E-03-0.752E-04
CGA:  19    -0.379383268679E+03   -0.30266E-04   -0.40874E-04 10080   0.298E-03-0.137E-03
CGA:  20    -0.379383320080E+03   -0.51401E-04   -0.53910E-04 10080   0.157E-03 0.303E-04
CGA:  21    -0.379383357515E+03   -0.37434E-04   -0.37923E-04 10080   0.271E-04 0.119E-04
CGA:  22    -0.379383377056E+03   -0.19542E-04    0.13301E-04 10080   0.170E-04 0.120E-04
CGA:  23    -0.379383392810E+03   -0.15754E-04    0.13837E-04 10080   0.114E-04 0.106E-04
CGA:  24    -0.379383392396E+03    0.41409E-06   -0.98691E-06 10080   0.733E-05 0.809E-05
CGA:  25    -0.379383396281E+03   -0.38855E-05    0.17350E-04 10080   0.525E-05 0.551E-05
   9 F= -.37938340E+03 E0= -.37938296E+03  d E =-.739451E-01  mag=     8.0000
       N       E                     dE             d eps       ncg     rms          ort
SDA:   1    -0.378524548822E+03    0.85884E+00    0.00000E+00 10080   0.238E+01 0.000E+00
CGA:   2    -0.379208020736E+03   -0.68347E+00   -0.68338E+00 10080   0.804E+00-0.184E-03
CGA:   3    -0.379374337852E+03   -0.16632E+00   -0.16540E+00 10080   0.286E+00-0.217E-04
CGA:   4    -0.379415539352E+03   -0.41201E-01   -0.41658E-01 10080   0.581E-01-0.170E-02
CGA:   5    -0.379426778823E+03   -0.11239E-01   -0.11265E-01 10080   0.147E-01 0.848E-03
CGA:   6    -0.379430053143E+03   -0.32743E-02   -0.32639E-02 10080   0.714E-02-0.426E-03
CGA:   7    -0.379431382746E+03   -0.13296E-02   -0.13524E-02 10080   0.309E-02 0.516E-03
CGA:   8    -0.379432207300E+03   -0.82455E-03   -0.82116E-03 10080   0.144E-02 0.432E-03
CGA:   9    -0.379432699435E+03   -0.49214E-03   -0.48304E-03 10080   0.971E-03 0.167E-03
CGA:  10    -0.379432912989E+03   -0.21355E-03   -0.22036E-03 10080   0.501E-03 0.178E-03
CGA:  11    -0.379433076078E+03   -0.16309E-03   -0.15966E-03 10080   0.232E-03 0.120E-03
CGA:  12    -0.379433155257E+03   -0.79179E-04   -0.76049E-04 10080   0.146E-03 0.141E-03
CGA:  13    -0.379433221616E+03   -0.66359E-04   -0.67980E-04 10080   0.316E-03-0.768E-05
CGA:  14    -0.379433250990E+03   -0.29375E-04   -0.43397E-04 10080   0.149E-03 0.128E-03
CGA:  15    -0.379433276374E+03   -0.25384E-04   -0.33798E-04 10080   0.159E-03 0.953E-04
CGA:  16    -0.379433312953E+03   -0.36579E-04   -0.57954E-04 10080   0.712E-03-0.177E-03
CGA:  17    -0.379433347359E+03   -0.34406E-04   -0.55503E-04 10080   0.573E-04 0.133E-03
CGA:  18    -0.379433348230E+03   -0.87069E-06   -0.62212E-05 10080   0.470E-04 0.357E-04
CGA:  19    -0.379433370918E+03   -0.22689E-04    0.18416E-03 10080   0.519E-04 0.333E-04
CGA:  20    -0.379433372351E+03   -0.14328E-05   -0.58110E-05 10080   0.395E-04 0.358E-04
CGA:  21    -0.379433459471E+03   -0.87120E-04   -0.39457E-04 10080   0.261E-03 0.171E-04
CGA:  22    -0.379433513730E+03   -0.54259E-04   -0.80434E-04 10080   0.630E-04 0.125E-03
CGA:  23    -0.379433554022E+03   -0.40292E-04   -0.62947E-04 10080   0.833E-03-0.863E-04
CGA:  24    -0.379433588469E+03   -0.34447E-04   -0.63929E-04 10080   0.214E-04 0.108E-03
CGA:  25    -0.379433586114E+03    0.23549E-05   -0.15284E-05 10080   0.970E-05 0.116E-04
  10 F= -.37943359E+03 E0= -.37943280E+03  d E =-.501898E-01  mag=     8.0000
       N       E                     dE             d eps       ncg     rms          ort
SDA:   1    -0.377828694085E+03    0.16049E+01    0.00000E+00 10080   0.393E+01 0.000E+00
CGA:   2    -0.379108942816E+03   -0.12802E+01   -0.12801E+01 10080   0.139E+01-0.601E-02
CGA:   3    -0.379372130432E+03   -0.26319E+00   -0.25820E+00 10080   0.368E+00 0.262E-01
CGA:   4    -0.379428711254E+03   -0.56581E-01   -0.57577E-01 10080   0.903E-01-0.524E-02
CGA:   5    -0.379444043456E+03   -0.15332E-01   -0.15263E-01 10080   0.230E-01 0.167E-02
CGA:   6    -0.379448987665E+03   -0.49442E-02   -0.48817E-02 10080   0.790E-02-0.493E-03
CGA:   7    -0.379450570880E+03   -0.15832E-02   -0.16298E-02 10080   0.345E-02 0.381E-03
CGA:   8    -0.379451492292E+03   -0.92141E-03   -0.91442E-03 10080   0.226E-02-0.829E-04
CGA:   9    -0.379451960469E+03   -0.46818E-03   -0.49374E-03 10080   0.117E-02 0.234E-03
CGA:  10    -0.379452381665E+03   -0.42120E-03   -0.42105E-03 10080   0.947E-03-0.502E-04
CGA:  11    -0.379452600496E+03   -0.21883E-03   -0.22117E-03 10080   0.734E-03 0.216E-04
CGA:  12    -0.379452847745E+03   -0.24725E-03   -0.24736E-03 10080   0.684E-03-0.303E-04
CGA:  13    -0.379453113410E+03   -0.26566E-03   -0.26917E-03 10080   0.107E-02-0.639E-04
CGA:  14    -0.379453363643E+03   -0.25023E-03   -0.24787E-03 10080   0.831E-03-0.629E-04
CGA:  15    -0.379453602905E+03   -0.23926E-03   -0.56887E-03 10080   0.251E-02-0.888E-03
CGA:  16    -0.379453828949E+03   -0.22604E-03   -0.29151E-03 10080   0.701E-03 0.334E-03
CGA:  17    -0.379454004705E+03   -0.17576E-03   -0.18415E-03 10080   0.206E-03 0.824E-04
CGA:  18    -0.379453944562E+03    0.60143E-04   -0.22247E-03 10080   0.307E-02-0.445E-03
CGA:  19    -0.379454141529E+03   -0.19697E-03   -0.28540E-03 10080   0.303E-03 0.409E-03
CGA:  20    -0.379454163381E+03   -0.21852E-04   -0.46947E-04 10080   0.129E-03 0.120E-03
CGA:  21    -0.379454201002E+03   -0.37622E-04   -0.37458E-04 10080   0.854E-04-0.946E-06
CGA:  22    -0.379454228136E+03   -0.27133E-04   -0.25330E-04 10080   0.943E-04-0.574E-04
CGA:  23    -0.379454245075E+03   -0.16939E-04   -0.16712E-04 10080   0.559E-04-0.103E-05
CGA:  24    -0.379454246213E+03   -0.11381E-05   -0.65768E-05 10080   0.181E-04 0.270E-04
  11 F= -.37945425E+03 E0= -.37945345E+03  d E =-.206601E-01  mag=     8.0000
       N       E                     dE             d eps       ncg     rms          ort
SDA:   1    -0.366505463238E+03    0.12949E+02    0.00000E+00 10080   0.316E+02 0.000E+00
CGA:   2    -0.376662222492E+03   -0.10157E+02   -0.10156E+02 10080   0.112E+02 0.111E-01
CGA:   3    -0.378857673471E+03   -0.21955E+01   -0.22026E+01 10080   0.240E+01 0.248E-01
CGA:   4    -0.379288766458E+03   -0.43109E+00   -0.43028E+00 10080   0.532E+00-0.274E-02
CGA:   5    -0.379393264720E+03   -0.10450E+00   -0.10444E+00 10080   0.155E+00 0.589E-03
CGA:   6    -0.379424135273E+03   -0.30871E-01   -0.30932E-01 10080   0.589E-01-0.855E-04
CGA:   7    -0.379435631355E+03   -0.11496E-01   -0.11537E-01 10080   0.292E-01 0.136E-02
CGA:   8    -0.379442770769E+03   -0.71394E-02   -0.70749E-02 10080   0.159E-01-0.165E-02
CGA:   9    -0.379446325026E+03   -0.35543E-02   -0.35809E-02 10080   0.754E-02 0.804E-03
CGA:  10    -0.379448370577E+03   -0.20456E-02   -0.20359E-02 10080   0.523E-02-0.570E-03
CGA:  11    -0.379449448838E+03   -0.10783E-02   -0.10683E-02 10080   0.268E-02-0.176E-03
CGA:  12    -0.379450391843E+03   -0.94300E-03   -0.11195E-02 10080   0.431E-02-0.110E-02
CGA:  13    -0.379450840278E+03   -0.44844E-03   -0.45704E-03 10080   0.292E-02 0.652E-04
CGA:  14    -0.379451615197E+03   -0.77492E-03   -0.77667E-03 10080   0.297E-02 0.116E-03
CGA:  15    -0.379452367383E+03   -0.75219E-03   -0.71664E-03 10080   0.306E-02-0.892E-03
CGA:  16    -0.379452942215E+03   -0.57483E-03   -0.57209E-03 10080   0.221E-02-0.694E-03
CGA:  17    -0.379453223160E+03   -0.28094E-03   -0.28928E-03 10080   0.152E-02 0.602E-04
CGA:  18    -0.379453503542E+03   -0.28038E-03   -0.28522E-03 10080   0.754E-03 0.485E-04
CGA:  19    -0.379453701054E+03   -0.19751E-03   -0.19703E-03 10080   0.714E-03-0.660E-04
CGA:  20    -0.379453842248E+03   -0.14119E-03   -0.13734E-03 10080   0.498E-03-0.837E-04
CGA:  21    -0.379453956218E+03   -0.11397E-03   -0.11397E-03 10080   0.496E-03-0.137E-05
CGA:  22    -0.379454002846E+03   -0.46629E-04   -0.65992E-04 10080   0.246E-03 0.152E-03
CGA:  23    -0.379454028476E+03   -0.25630E-04   -0.42369E-04 10080   0.181E-03 0.138E-03
CGA:  24    -0.379454061429E+03   -0.32952E-04   -0.10312E-03 10080   0.111E-02-0.215E-03
CGA:  25    -0.379454125000E+03   -0.63571E-04   -0.92104E-04 10080   0.592E-04 0.173E-03
CGA:  26    -0.379454122537E+03    0.24631E-05   -0.47025E-05 10080   0.324E-04 0.389E-04
  12 F= -.37945412E+03 E0= -.37945373E+03  d E =0.123676E-03  mag=     8.0000
       N       E                     dE             d eps       ncg     rms          ort
SDA:   1    -0.368809178645E+03    0.10645E+02    0.00000E+00 10080   0.269E+02 0.000E+00
CGA:   2    -0.376730018518E+03   -0.79208E+01   -0.78766E+01 10080   0.105E+02 0.505E+00
CGA:   3    -0.378351299411E+03   -0.16213E+01   -0.12808E+01 10080   0.316E+01 0.238E+01
CGA:   4    -0.379063074273E+03   -0.71177E+00   -0.71310E+00 10080   0.827E+00 0.132E-01
CGA:   5    -0.379229276323E+03   -0.16620E+00   -0.16603E+00 10080   0.251E+00-0.533E-02
CGA:   6    -0.379276329074E+03   -0.47053E-01   -0.46979E-01 10080   0.813E-01-0.177E-02
CGA:   7    -0.379292634233E+03   -0.16305E-01   -0.16348E-01 10080   0.348E-01 0.175E-02
CGA:   8    -0.379301546347E+03   -0.89121E-02   -0.89405E-02 10080   0.256E-01-0.134E-02
CGA:   9    -0.379305519795E+03   -0.39734E-02   -0.39951E-02 10080   0.128E-01 0.432E-03
CGA:  10    -0.379308672751E+03   -0.31530E-02   -0.31580E-02 10080   0.465E-02-0.316E-03
CGA:  11    -0.379310074785E+03   -0.14020E-02   -0.14110E-02 10080   0.249E-02-0.115E-03
CGA:  12    -0.379310803700E+03   -0.72891E-03   -0.78051E-03 10080   0.260E-02-0.571E-03
CGA:  13    -0.379311296192E+03   -0.49249E-03   -0.49496E-03 10080   0.139E-02-0.207E-03
CGA:  14    -0.379311678727E+03   -0.38254E-03   -0.36939E-03 10080   0.969E-03 0.237E-03
CGA:  15    -0.379312010124E+03   -0.33140E-03   -0.35652E-03 10080   0.139E-02-0.335E-03
CGA:  16    -0.379312151974E+03   -0.14185E-03   -0.14109E-03 10080   0.836E-03-0.177E-04
CGA:  17    -0.379312247991E+03   -0.96017E-04   -0.10872E-03 10080   0.617E-03 0.116E-03
CGA:  18    -0.379312380771E+03   -0.13278E-03   -0.13584E-03 10080   0.461E-03 0.738E-04
CGA:  19    -0.379312465017E+03   -0.84246E-04   -0.83473E-04 10080   0.310E-03-0.134E-04
CGA:  20    -0.379312547040E+03   -0.82023E-04   -0.81921E-04 10080   0.488E-03-0.223E-05
CGA:  21    -0.379312634056E+03   -0.87016E-04   -0.87424E-04 10080   0.298E-03 0.304E-05
CGA:  22    -0.379312668512E+03   -0.34455E-04   -0.44129E-04 10080   0.263E-03 0.118E-03
CGA:  23    -0.379312699633E+03   -0.31122E-04   -0.47729E-04 10080   0.142E-03 0.176E-03
CGA:  24    -0.379312735238E+03   -0.35604E-04   -0.76855E-04 10080   0.634E-03-0.127E-03
CGA:  25    -0.379312790596E+03   -0.55359E-04   -0.59922E-04 10080   0.472E-04 0.342E-04
CGA:  26    -0.379312786011E+03    0.45847E-05   -0.23036E-05 10080   0.305E-04 0.380E-04
  13 F= -.37931279E+03 E0= -.37931231E+03  d E =0.141337E+00  mag=     8.0000
       N       E                     dE             d eps       ncg     rms          ort
SDA:   1    -0.374154390284E+03    0.51584E+01    0.00000E+00 10080   0.129E+02 0.000E+00
CGA:   2    -0.378433917378E+03   -0.42795E+01   -0.42834E+01 10080   0.437E+01-0.275E-01
CGA:   3    -0.379259442633E+03   -0.82553E+00   -0.82664E+00 10080   0.131E+01 0.190E-01
CGA:   4    -0.379456917819E+03   -0.19748E+00   -0.19186E+00 10080   0.346E+00 0.125E-01
CGA:   5    -0.379515520533E+03   -0.58603E-01   -0.58646E-01 10080   0.100E+00-0.361E-02
CGA:   6    -0.379534230504E+03   -0.18710E-01   -0.18717E-01 10080   0.356E-01 0.133E-02
CGA:   7    -0.379541756545E+03   -0.75260E-02   -0.75264E-02 10080   0.181E-01-0.689E-03
CGA:   8    -0.379545305944E+03   -0.35494E-02   -0.35492E-02 10080   0.839E-02 0.108E-03
CGA:   9    -0.379547464737E+03   -0.21588E-02   -0.21998E-02 10080   0.516E-02-0.759E-03
CGA:  10    -0.379548192360E+03   -0.72762E-03   -0.75381E-03 10080   0.201E-02 0.570E-03
CGA:  11    -0.379548797524E+03   -0.60516E-03   -0.61345E-03 10080   0.105E-02-0.122E-03
CGA:  12    -0.379548984207E+03   -0.18668E-03   -0.18962E-03 10080   0.643E-03 0.160E-03
CGA:  13    -0.379549207363E+03   -0.22316E-03   -0.23117E-03 10080   0.559E-03-0.796E-04
CGA:  14    -0.379549251122E+03   -0.43759E-04   -0.66201E-04 10080   0.349E-03 0.280E-03
CGA:  15    -0.379549312524E+03   -0.61402E-04   -0.65342E-04 10080   0.126E-03 0.161E-03
CGA:  16    -0.379549356475E+03   -0.43951E-04   -0.42305E-04 10080   0.924E-04 0.800E-04
CGA:  17    -0.379549367072E+03   -0.10597E-04   -0.14239E-04 10080   0.679E-04 0.638E-04
CGA:  18    -0.379549396170E+03   -0.29098E-04   -0.24326E-04 10080   0.123E-03 0.317E-04
CGA:  19    -0.379549402221E+03   -0.60515E-05   -0.20224E-04 10080   0.482E-04 0.137E-03
  14 F= -.37954940E+03 E0= -.37954852E+03  d E =-.236616E+00  mag=     8.0000
       N       E                     dE             d eps       ncg     rms          ort
SDA:   1    -0.379181863520E+03    0.36753E+00    0.00000E+00 10080   0.983E+00 0.000E+00
CGA:   2    -0.379472235385E+03   -0.29037E+00   -0.29061E+00 10080   0.482E+00-0.103E-02
CGA:   3    -0.379537517511E+03   -0.65282E-01   -0.66778E-01 10080   0.166E+00-0.410E-02
CGA:   4    -0.379566364858E+03   -0.28847E-01   -0.28846E-01 10080   0.314E-01 0.857E-03
CGA:   5    -0.379572869097E+03   -0.65042E-02   -0.65060E-02 10080   0.946E-02-0.116E-02
CGA:   6    -0.379574396865E+03   -0.15278E-02   -0.15349E-02 10080   0.386E-02 0.226E-03
CGA:   7    -0.379575336029E+03   -0.93916E-03   -0.96074E-03 10080   0.204E-02-0.526E-03
CGA:   8    -0.379575766391E+03   -0.43036E-03   -0.44246E-03 10080   0.116E-02-0.257E-03
CGA:   9    -0.379575995836E+03   -0.22945E-03   -0.37505E-03 10080   0.231E-02-0.883E-03
CGA:  10    -0.379576186389E+03   -0.19055E-03   -0.21120E-03 10080   0.300E-03 0.186E-03
CGA:  11    -0.379576259405E+03   -0.73015E-04   -0.16546E-03 10080   0.633E-03-0.307E-03
CGA:  12    -0.379576387026E+03   -0.12762E-03   -0.12634E-03 10080   0.134E-03-0.514E-04
CGA:  13    -0.379576314170E+03    0.72857E-04   -0.72902E-04 10080   0.195E-02-0.392E-03
CGA:  14    -0.379576480338E+03   -0.16617E-03   -0.17889E-03 10080   0.780E-04 0.101E-03
CGA:  15    -0.379576093108E+03    0.38723E-03   -0.20871E-03 10080   0.271E-02-0.401E-03
CGA:  16    -0.379576519301E+03   -0.42619E-03   -0.42293E-03 10080   0.688E-03-0.346E-05
CGA:  17    -0.379576645468E+03   -0.12617E-03   -0.12017E-03 10080   0.214E-04-0.235E-04
CGA:  18    -0.379576663292E+03   -0.17824E-04    0.54565E-04 10080   0.391E-04-0.877E-05
CGA:  19    -0.379576711024E+03   -0.47733E-04    0.29360E-05 10080   0.935E-04-0.418E-04
CGA:  20    -0.379576712662E+03   -0.16374E-05   -0.10079E-04 10080   0.270E-04 0.292E-04
CGA:  21    -0.379576724135E+03   -0.11474E-04   -0.10725E-04 10080   0.152E-04-0.890E-05
CGA:  22    -0.379576753263E+03   -0.29128E-04    0.71030E-06 10080   0.669E-04-0.217E-04
CGA:  23    -0.379576751501E+03    0.17626E-05   -0.48581E-05 10080   0.117E-04 0.218E-04
  15 F= -.37957675E+03 E0= -.37957632E+03  d E =-.273493E-01  mag=     8.0000
       N       E                     dE             d eps       ncg     rms          ort
SDA:   1    -0.379398747588E+03    0.17801E+00    0.00000E+00 10080   0.464E+00 0.000E+00
CGA:   2    -0.379542702465E+03   -0.14395E+00   -0.14381E+00 10080   0.165E+00-0.340E-02
CGA:   3    -0.379576089540E+03   -0.33387E-01   -0.33507E-01 10080   0.383E-01 0.736E-03
CGA:   4    -0.379582083911E+03   -0.59944E-02   -0.61132E-02 10080   0.848E-02 0.727E-03
CGA:   5    -0.379583745704E+03   -0.16618E-02   -0.16452E-02 10080   0.245E-02-0.121E-03
CGA:   6    -0.379584187902E+03   -0.44220E-03   -0.45070E-03 10080   0.780E-03 0.667E-04
CGA:   7    -0.379584417910E+03   -0.23001E-03   -0.22339E-03 10080   0.549E-03-0.162E-03
CGA:   8    -0.379584481950E+03   -0.64040E-04   -0.73137E-04 10080   0.222E-03 0.621E-04
CGA:   9    -0.379584546613E+03   -0.64663E-04   -0.64424E-04 10080   0.131E-03-0.470E-05
CGA:  10    -0.379584587334E+03   -0.40721E-04   -0.42553E-04 10080   0.219E-03-0.768E-04
CGA:  11    -0.379584602375E+03   -0.15041E-04   -0.21355E-04 10080   0.338E-04 0.312E-04
CGA:  12    -0.379584269974E+03    0.33240E-03   -0.17953E-03 10080   0.174E-02-0.247E-03
CGA:  13    -0.379584629912E+03   -0.35994E-03   -0.36685E-03 10080   0.385E-03 0.215E-04
CGA:  14    -0.379584668396E+03   -0.38485E-04   -0.45322E-04 10080   0.349E-04 0.190E-04
CGA:  15    -0.379584677492E+03   -0.90961E-05   -0.97156E-05 10080   0.721E-05 0.256E-05
  16 F= -.37958468E+03 E0= -.37958433E+03  d E =-.792599E-02  mag=     8.0000
       N       E                     dE             d eps       ncg     rms          ort
SDA:   1    -0.346668295777E+03    0.32916E+02    0.00000E+00 10080   0.847E+02 0.000E+00
CGA:   2    -0.367725480719E+03   -0.21057E+02   -0.21239E+02 10080   0.863E+02-0.333E+01
CGA:   3    -0.373999169956E+03   -0.62737E+01   -0.73602E+01 10080   0.313E+02-0.186E+02
CGA:   4    -0.376252010362E+03   -0.22528E+01   -0.14729E+01 10080   0.114E+02 0.141E+02
CGA:   5    -0.377259272532E+03   -0.10073E+01   -0.15506E+01 10080   0.215E+02-0.625E+01
CGA:   6    -0.378011476200E+03   -0.75220E+00   -0.10256E+01 10080   0.468E+01-0.611E+01
CGA:   7    -0.378418074466E+03   -0.40660E+00   -0.38219E+00 10080   0.167E+01 0.245E+00
CGA:   8    -0.378578655888E+03   -0.16058E+00   -0.17786E+00 10080   0.149E+01-0.168E+00
CGA:   9    -0.378747792208E+03   -0.16914E+00   -0.17180E+00 10080   0.473E+00-0.110E-01
CGA:  10    -0.378785416379E+03   -0.37624E-01   -0.38843E-01 10080   0.263E+00-0.126E-01
CGA:  11    -0.378833178468E+03   -0.47762E-01   -0.48438E-01 10080   0.216E+00-0.375E-02
CGA:  12    -0.378847366200E+03   -0.14188E-01   -0.14596E-01 10080   0.417E-01-0.507E-02
CGA:  13    -0.378854950608E+03   -0.75844E-02   -0.74974E-02 10080   0.646E-01-0.122E-02
CGA:  14    -0.378862043307E+03   -0.70927E-02   -0.72106E-02 10080   0.252E-01-0.181E-02
CGA:  15    -0.378864850624E+03   -0.28073E-02   -0.27729E-02 10080   0.196E-01-0.207E-03
CGA:  16    -0.378867919456E+03   -0.30688E-02   -0.31253E-02 10080   0.129E-01 0.168E-03
CGA:  17    -0.378869131038E+03   -0.12116E-02   -0.12302E-02 10080   0.617E-02 0.467E-03
CGA:  18    -0.378870090395E+03   -0.95936E-03   -0.10234E-02 10080   0.713E-02 0.377E-03
CGA:  19    -0.378871255402E+03   -0.11650E-02   -0.11692E-02 10080   0.671E-02 0.198E-03
CGA:  20    -0.378872272298E+03   -0.10169E-02   -0.11704E-02 10080   0.854E-02 0.110E-02
CGA:  21    -0.378873526125E+03   -0.12538E-02   -0.13996E-02 10080   0.788E-02 0.184E-02
CGA:  22    -0.378874984339E+03   -0.14582E-02   -0.16736E-02 10080   0.105E-01 0.199E-02
CGA:  23    -0.378876996377E+03   -0.20120E-02   -0.20560E-02 10080   0.112E-01 0.174E-02
CGA:  24    -0.378878727712E+03   -0.17313E-02   -0.20399E-02 10080   0.969E-02 0.139E-02
CGA:  25    -0.378879917147E+03   -0.11894E-02   -0.12721E-02 10080   0.826E-02 0.157E-02
CGA:  26    -0.378881794036E+03   -0.18769E-02   -0.19903E-02 10080   0.708E-02 0.250E-02
CGA:  27    -0.378883143906E+03   -0.13499E-02   -0.13988E-02 10080   0.906E-02 0.644E-03
CGA:  28    -0.378884481749E+03   -0.13378E-02   -0.14229E-02 10080   0.973E-02 0.938E-03
CGA:  29    -0.378885529112E+03   -0.10474E-02   -0.11545E-02 10080   0.466E-02 0.880E-03
CGA:  30    -0.378886861377E+03   -0.13323E-02   -0.13022E-02 10080   0.870E-02 0.611E-03
CGA:  31    -0.378887629008E+03   -0.76763E-03   -0.74276E-03 10080   0.399E-02 0.394E-03
CGA:  32    -0.378888752360E+03   -0.11234E-02   -0.10968E-02 10080   0.407E-02 0.386E-03
CGA:  33    -0.378889325998E+03   -0.57364E-03   -0.60337E-03 10080   0.459E-02 0.279E-04
CGA:  34    -0.378890375634E+03   -0.10496E-02   -0.10764E-02 10080   0.790E-02-0.188E-02
CGA:  35    -0.378890861167E+03   -0.48553E-03   -0.30177E-03 10080   0.360E-02-0.178E-02
SDA:  36    -0.378891276250E+03   -0.41508E-03   -0.30971E-03 10080   0.662E-02-0.140E-02
CGA:  37    -0.378891761053E+03   -0.48480E-03   -0.47479E-03 10080   0.356E-02-0.112E-03
CGA:  38    -0.378893533254E+03   -0.17722E-02   -0.25400E-02 10080   0.876E-02-0.146E-02
CGA:  39    -0.378894311124E+03   -0.77787E-03   -0.60037E-03 10080   0.534E-02-0.183E-02
CGA:  40    -0.378895340104E+03   -0.10290E-02   -0.13814E-02 10080   0.852E-02-0.327E-02
CGA:  41    -0.378896081623E+03   -0.74152E-03   -0.81537E-03 10080   0.333E-02 0.569E-03
CGA:  42    -0.378896431122E+03   -0.34950E-03   -0.40729E-03 10080   0.132E-02 0.565E-03
CGA:  43    -0.378896783604E+03   -0.35248E-03   -0.35989E-03 10080   0.286E-02-0.341E-03
CGA:  44    -0.378897058115E+03   -0.27451E-03   -0.25357E-03 10080   0.145E-02-0.213E-03
CGA:  45    -0.378897127295E+03   -0.69180E-04   -0.76995E-04 10080   0.474E-03 0.591E-04
CGA:  46    -0.378897186994E+03   -0.59700E-04   -0.58546E-04 10080   0.733E-03-0.134E-04
CGA:  47    -0.378897332713E+03   -0.14572E-03   -0.15939E-03 10080   0.119E-02-0.513E-03
CGA:  48    -0.378897462174E+03   -0.12946E-03   -0.13004E-03 10080   0.574E-03 0.635E-05
CGA:  49    -0.378897513748E+03   -0.51574E-04   -0.54236E-04 10080   0.139E-03 0.259E-04
CGA:  50    -0.378897544347E+03   -0.30599E-04   -0.33798E-04 10080   0.378E-03-0.729E-04
CGA:  51    -0.378897612473E+03   -0.68127E-04   -0.51577E-04 10080   0.467E-03-0.301E-03
CGA:  52    -0.378897628902E+03   -0.16429E-04   -0.25333E-04 10080   0.510E-04 0.678E-04
CGA:  53    -0.378897639529E+03   -0.10626E-04   -0.10634E-04 10080   0.141E-03-0.157E-04
CGA:  54    -0.378897714278E+03   -0.74749E-04    0.79053E-05 10080   0.445E-03 0.147E-04
CGA:  55    -0.378898023815E+03   -0.30954E-03    0.61030E-04 10080   0.190E-03-0.138E-03
CGA:  56    -0.378898152237E+03   -0.12842E-03    0.70569E-05 10080   0.120E-03 0.317E-04
CGA:  57    -0.378898242436E+03   -0.90199E-04    0.16348E-04 10080   0.184E-03-0.355E-04
CGA:  58    -0.378898355598E+03   -0.11316E-03    0.84224E-05 10080   0.202E-03-0.103E-03
CGA:  59    -0.378898389113E+03   -0.33514E-04   -0.33333E-04 10080   0.172E-03-0.110E-04
CGA:  60    -0.378898393299E+03   -0.41860E-05   -0.96003E-05 10080   0.307E-04 0.444E-04
  17 F= -.37889839E+03 E0= -.37889248E+03  d E =0.686284E+00  mag=     8.0000
       N       E                     dE             d eps       ncg     rms          ort
SDA:   1    -0.343997815624E+03    0.34901E+02    0.00000E+00 10080   0.212E+03 0.000E+00
CGA:   2    -0.365610769486E+03   -0.21613E+02   -0.25195E+02 10080   0.416E+02 0.506E+01
CGA:   3    -0.373968023096E+03   -0.83573E+01   -0.84775E+01 10080   0.459E+02-0.245E+01
CGA:   4    -0.377019817499E+03   -0.30518E+01   -0.22176E+01 10080   0.682E+01 0.117E+02
CGA:   5    -0.377804393930E+03   -0.78458E+00   -0.83105E+00 10080   0.109E+02-0.426E-01
CGA:   6    -0.378598858131E+03   -0.79446E+00   -0.80356E+00 10080   0.410E+01-0.928E-01
CGA:   7    -0.378819332263E+03   -0.22047E+00   -0.20024E+00 10080   0.199E+01 0.334E+00
CGA:   8    -0.378981865902E+03   -0.16253E+00   -0.16317E+00 10080   0.153E+01 0.254E-01
CGA:   9    -0.379063178171E+03   -0.81312E-01   -0.84028E-01 10080   0.705E+00-0.102E-01
CGA:  10    -0.379103794458E+03   -0.40616E-01   -0.41238E-01 10080   0.328E+00-0.550E-02
CGA:  11    -0.379131484684E+03   -0.27690E-01   -0.27732E-01 10080   0.429E+00-0.664E-02
CGA:  12    -0.379170065223E+03   -0.38581E-01   -0.38306E-01 10080   0.215E+00-0.926E-02
CGA:  13    -0.379180428884E+03   -0.10364E-01   -0.10512E-01 10080   0.923E-01-0.503E-02
CGA:  14    -0.379193421854E+03   -0.12993E-01   -0.12987E-01 10080   0.149E+00-0.188E-03
CGA:  15    -0.379203481044E+03   -0.10059E-01   -0.10119E-01 10080   0.520E-01-0.309E-02
CGA:  16    -0.379207686651E+03   -0.42056E-02   -0.41301E-02 10080   0.339E-01-0.202E-02
CGA:  17    -0.379211240253E+03   -0.35536E-02   -0.35024E-02 10080   0.388E-01-0.360E-02
CGA:  18    -0.379216010042E+03   -0.47698E-02   -0.49602E-02 10080   0.317E-01-0.952E-02
CGA:  19    -0.379218043793E+03   -0.20338E-02   -0.18706E-02 10080   0.239E-01-0.462E-02
CGA:  20    -0.379221837757E+03   -0.37940E-02   -0.44226E-02 10080   0.420E-01-0.672E-02
CGA:  21    -0.379224234110E+03   -0.23964E-02   -0.22338E-02 10080   0.229E-01-0.481E-02
CGA:  22    -0.379227218010E+03   -0.29839E-02   -0.32490E-02 10080   0.481E-01-0.764E-02
CGA:  23    -0.379231555020E+03   -0.43370E-02   -0.52080E-02 10080   0.583E-01-0.234E-01
CGA:  24    -0.379234112807E+03   -0.25578E-02   -0.19266E-02 10080   0.339E-01-0.121E-01
CGA:  25    -0.379236742369E+03   -0.26296E-02   -0.24374E-02 10080   0.309E-01-0.653E-02
CGA:  26    -0.379239450324E+03   -0.27080E-02   -0.26710E-02 10080   0.274E-01-0.227E-02
CGA:  27    -0.379241326741E+03   -0.18764E-02   -0.19021E-02 10080   0.143E-01 0.364E-03
CGA:  28    -0.379242763235E+03   -0.14365E-02   -0.14304E-02 10080   0.141E-01-0.350E-03
CGA:  29    -0.379244656323E+03   -0.18931E-02   -0.19817E-02 10080   0.145E-01-0.346E-02
CGA:  30    -0.379245559159E+03   -0.90284E-03   -0.82676E-03 10080   0.874E-02-0.184E-02
CGA:  31    -0.379246157745E+03   -0.59859E-03   -0.61865E-03 10080   0.810E-02 0.525E-03
SDA:  32    -0.379246787182E+03   -0.62944E-03   -0.71689E-03 10080   0.701E-02 0.274E-02
CGA:  33    -0.379247443105E+03   -0.65592E-03   -0.68152E-03 10080   0.204E-02 0.162E-02
CGA:  34    -0.379247965796E+03   -0.52269E-03   -0.43426E-03 10080   0.196E-02 0.148E-02
CGA:  35    -0.379248335333E+03   -0.36954E-03   -0.39914E-03 10080   0.253E-02-0.330E-03
CGA:  36    -0.379248795846E+03   -0.46051E-03   -0.37667E-03 10080   0.165E-02 0.144E-02
CGA:  37    -0.379248880405E+03   -0.84559E-04   -0.11803E-03 10080   0.504E-03 0.660E-03
CGA:  38    -0.379248902890E+03   -0.22485E-04   -0.48039E-04 10080   0.504E-03 0.488E-03
CGA:  39    -0.379249024684E+03   -0.12179E-03   -0.96688E-04 10080   0.498E-03 0.341E-03
CGA:  40    -0.379249060460E+03   -0.35776E-04   -0.46354E-04 10080   0.380E-03 0.370E-03
CGA:  41    -0.379249138040E+03   -0.77580E-04   -0.62200E-04 10080   0.347E-03 0.356E-03
CGA:  42    -0.379249187126E+03   -0.49086E-04   -0.45903E-04 10080   0.322E-03 0.329E-03
CGA:  43    -0.379249247563E+03   -0.60437E-04   -0.50337E-04 10080   0.296E-03 0.305E-03
CGA:  44    -0.379249288629E+03   -0.41066E-04   -0.39055E-04 10080   0.276E-03 0.283E-03
CGA:  45    -0.379249337312E+03   -0.48683E-04   -0.41778E-04 10080   0.255E-03 0.262E-03
CGA:  46    -0.379249371412E+03   -0.34100E-04   -0.33187E-04 10080   0.239E-03 0.244E-03
CGA:  47    -0.379249411639E+03   -0.40227E-04   -0.35325E-04 10080   0.222E-03 0.228E-03
CGA:  48    -0.379249440027E+03   -0.28387E-04   -0.28342E-04 10080   0.208E-03 0.213E-03
CGA:  49    -0.379249474236E+03   -0.34209E-04   -0.30482E-04 10080   0.195E-03 0.199E-03
CGA:  50    -0.379249497857E+03   -0.23621E-04   -0.24311E-04 10080   0.184E-03 0.187E-03
CGA:  51    -0.379249527822E+03   -0.29966E-04   -0.26849E-04 10080   0.173E-03 0.176E-03
CGA:  52    -0.379249547407E+03   -0.19585E-04   -0.20922E-04 10080   0.164E-03 0.166E-03
CGA:  53    -0.379249574238E+03   -0.26830E-04   -0.24023E-04 10080   0.154E-03 0.156E-03
CGA:  54    -0.379249590561E+03   -0.16323E-04   -0.18140E-04 10080   0.147E-03 0.148E-03
CGA:  55    -0.379249614721E+03   -0.24160E-04   -0.21615E-04 10080   0.139E-03 0.140E-03
CGA:  56    -0.379249628658E+03   -0.13937E-04   -0.15960E-04 10080   0.132E-03 0.133E-03
CGA:  57    -0.379249650267E+03   -0.21608E-04   -0.19405E-04 10080   0.126E-03 0.126E-03
CGA:  58    -0.379249662590E+03   -0.12323E-04   -0.14291E-04 10080   0.120E-03 0.120E-03
CGA:  59    -0.379249681726E+03   -0.19136E-04   -0.17346E-04 10080   0.114E-03 0.115E-03
CGA:  60    -0.379249692959E+03   -0.11233E-04   -0.12988E-04 10080   0.109E-03 0.110E-03
CGA:  61    -0.379249709790E+03   -0.16831E-04   -0.15472E-04 10080   0.104E-03 0.105E-03
CGA:  62    -0.379249720212E+03   -0.10422E-04   -0.11916E-04 10080   0.992E-04 0.100E-03
CGA:  63    -0.379249734976E+03   -0.14764E-04   -0.13804E-04 10080   0.946E-04 0.961E-04
CGA:  64    -0.379249744714E+03   -0.97385E-05   -0.10987E-04 10080   0.908E-04 0.920E-04
CGA:  65    -0.379249757676E+03   -0.12962E-04   -0.12346E-04 10080   0.868E-04 0.883E-04
CGA:  66    -0.379249766781E+03   -0.91051E-05   -0.10152E-04 10080   0.834E-04 0.847E-04
CGA:  67    -0.379249778202E+03   -0.11421E-04   -0.11082E-04 10080   0.798E-04 0.813E-04
CGA:  68    -0.379249786695E+03   -0.84934E-05   -0.93848E-05 10080   0.768E-04 0.781E-04
  18 F= -.37924979E+03 E0= -.37924919E+03  d E =-.351393E+00  mag=     8.0000
       N       E                     dE             d eps       ncg     rms          ort
SDA:   1    -0.376641557940E+03    0.26082E+01    0.00000E+00 10080   0.708E+01 0.000E+00
CGA:   2    -0.378789267967E+03   -0.21477E+01   -0.21489E+01 10080   0.283E+01-0.522E-02
CGA:   3    -0.379242994202E+03   -0.45373E+00   -0.45464E+00 10080   0.116E+01-0.241E-01
CGA:   4    -0.379410307308E+03   -0.16731E+00   -0.16718E+00 10080   0.290E+00 0.802E-02
CGA:   5    -0.379460038687E+03   -0.49731E-01   -0.49768E-01 10080   0.813E-01 0.257E-03
CGA:   6    -0.379474300292E+03   -0.14262E-01   -0.14320E-01 10080   0.345E-01-0.165E-02
CGA:   7    -0.379480834499E+03   -0.65342E-02   -0.64715E-02 10080   0.134E-01 0.141E-02
CGA:   8    -0.379484304553E+03   -0.34701E-02   -0.36339E-02 10080   0.927E-02-0.139E-02
CGA:   9    -0.379485572714E+03   -0.12682E-02   -0.12679E-02 10080   0.403E-02 0.157E-03
CGA:  10    -0.379486546586E+03   -0.97387E-03   -0.10009E-02 10080   0.144E-02-0.282E-03
CGA:  11    -0.379486922373E+03   -0.37579E-03   -0.38405E-03 10080   0.769E-03-0.598E-04
CGA:  12    -0.379487063211E+03   -0.14084E-03   -0.14095E-03 10080   0.449E-03-0.148E-05
CGA:  13    -0.379487166089E+03   -0.10288E-03   -0.97456E-04 10080   0.204E-03 0.101E-03
CGA:  14    -0.379487246503E+03   -0.80414E-04   -0.79461E-04 10080   0.347E-03 0.685E-05
CGA:  15    -0.379487281346E+03   -0.34843E-04   -0.43303E-04 10080   0.168E-03 0.161E-03
CGA:  16    -0.379487297728E+03   -0.16382E-04   -0.24613E-04 10080   0.125E-03 0.117E-03
CGA:  17    -0.379487325870E+03   -0.28142E-04   -0.47485E-04 10080   0.484E-03-0.897E-04
CGA:  18    -0.379487341849E+03   -0.15980E-04   -0.29625E-04 10080   0.503E-04 0.120E-03
CGA:  19    -0.379487340370E+03    0.14792E-05   -0.30117E-05 10080   0.300E-04 0.363E-04
  19 F= -.37948734E+03 E0= -.37948653E+03  d E =-.237554E+00  mag=     8.0000
       N       E                     dE             d eps       ncg     rms          ort
SDA:   1    -0.379379437568E+03    0.10790E+00    0.00000E+00 10080   0.340E+00 0.000E+00
CGA:   2    -0.379493014186E+03   -0.11358E+00   -0.11350E+00 10080   0.109E+00 0.455E-03
CGA:   3    -0.379512448928E+03   -0.19435E-01   -0.19440E-01 10080   0.543E-01-0.881E-03
CGA:   4    -0.379519246452E+03   -0.67975E-02   -0.68237E-02 10080   0.988E-02 0.888E-03
CGA:   5    -0.379521281273E+03   -0.20348E-02   -0.20480E-02 10080   0.306E-02-0.385E-03
CGA:   6    -0.379521891626E+03   -0.61035E-03   -0.61473E-03 10080   0.135E-02-0.113E-03
CGA:   7    -0.379522167830E+03   -0.27620E-03   -0.28418E-03 10080   0.814E-03-0.171E-03
CGA:   8    -0.379522305144E+03   -0.13731E-03   -0.13766E-03 10080   0.367E-03-0.171E-04
CGA:   9    -0.379522017966E+03    0.28718E-03   -0.27799E-03 10080   0.514E-02-0.940E-03
CGA:  10    -0.379522433104E+03   -0.41514E-03   -0.43963E-03 10080   0.569E-03 0.252E-03
CGA:  11    -0.379522576890E+03   -0.14379E-03   -0.15167E-03 10080   0.238E-03-0.148E-03
CGA:  12    -0.379522616723E+03   -0.39833E-04   -0.50693E-04 10080   0.358E-03-0.128E-03
CGA:  13    -0.379522658093E+03   -0.41370E-04   -0.40053E-04 10080   0.570E-04-0.120E-04
CGA:  14    -0.379522514135E+03    0.14396E-03   -0.78572E-04 10080   0.126E-02-0.198E-03
CGA:  15    -0.379522697950E+03   -0.18382E-03   -0.16809E-03 10080   0.413E-03-0.639E-04
CGA:  16    -0.379522757981E+03   -0.60031E-04   -0.62597E-04 10080   0.383E-04 0.140E-04
CGA:  17    -0.379522772640E+03   -0.14658E-04   -0.11355E-04 10080   0.136E-03-0.537E-04
CGA:  18    -0.379522778832E+03   -0.61921E-05   -0.10527E-04 10080   0.699E-05 0.171E-04
CGA:  19    -0.379522784266E+03   -0.54345E-05    0.31809E-04 10080   0.326E-04-0.663E-05
  20 F= -.37952278E+03 E0= -.37952217E+03  d E =-.354439E-01  mag=     8.0000
       N       E                     dE             d eps       ncg     rms          ort
SDA:   1    -0.379213908851E+03    0.30887E+00    0.00000E+00 10080   0.868E+00 0.000E+00
CGA:   2    -0.379467449097E+03   -0.25354E+00   -0.25354E+00 10080   0.319E+00-0.358E-03
CGA:   3    -0.379526114485E+03   -0.58665E-01   -0.58678E-01 10080   0.119E+00-0.794E-04
CGA:   4    -0.379543235955E+03   -0.17121E-01   -0.17128E-01 10080   0.266E-01 0.108E-02
CGA:   5    -0.379548055679E+03   -0.48197E-02   -0.47747E-02 10080   0.790E-02-0.403E-03
CGA:   6    -0.379549443913E+03   -0.13882E-02   -0.13825E-02 10080   0.295E-02-0.299E-04
CGA:   7    -0.379550140561E+03   -0.69665E-03   -0.68348E-03 10080   0.142E-02-0.213E-03
CGA:   8    -0.379550464398E+03   -0.32384E-03   -0.32073E-03 10080   0.791E-03-0.636E-04
CGA:   9    -0.379550697465E+03   -0.23307E-03   -0.24583E-03 10080   0.111E-02-0.339E-03
CGA:  10    -0.379550835156E+03   -0.13769E-03   -0.10875E-03 10080   0.491E-03-0.242E-03
CGA:  11    -0.379550857141E+03   -0.21986E-04   -0.22303E-03 10080   0.238E-02-0.674E-03
CGA:  12    -0.379551139013E+03   -0.28187E-03   -0.26477E-03 10080   0.466E-03-0.920E-04
CGA:  13    -0.379551236286E+03   -0.97273E-04   -0.97270E-04 10080   0.138E-03 0.899E-06
CGA:  14    -0.379551104931E+03    0.13135E-03   -0.15535E-03 10080   0.294E-02-0.340E-03
CGA:  15    -0.379551361509E+03   -0.25658E-03   -0.26745E-03 10080   0.166E-03 0.709E-04
CGA:  16    -0.379551421202E+03   -0.59693E-04   -0.72004E-04 10080   0.305E-03-0.115E-03
CGA:  17    -0.379551444680E+03   -0.23478E-04   -0.30021E-04 10080   0.325E-04 0.310E-04
CGA:  18    -0.379551454799E+03   -0.10119E-04   -0.98125E-05 10080   0.232E-04-0.856E-05
CGA:  19    -0.379551470723E+03   -0.15924E-04    0.51518E-05 10080   0.371E-04-0.544E-05
CGA:  20    -0.379551508850E+03   -0.38127E-04    0.37324E-05 10080   0.237E-04 0.319E-05
CGA:  21    -0.379551534430E+03   -0.25580E-04    0.64889E-05 10080   0.447E-04-0.697E-05
CGA:  22    -0.379551577028E+03   -0.42598E-04    0.40801E-05 10080   0.436E-04-0.224E-04
CGA:  23    -0.379551149768E+03    0.42726E-03   -0.23123E-03 10080   0.311E-02-0.303E-03
CGA:  24    -0.379551496941E+03   -0.34717E-03   -0.40000E-03 10080   0.481E-03 0.152E-03
CGA:  25    -0.379551573276E+03   -0.76335E-04   -0.96803E-04 10080   0.409E-04 0.595E-04
CGA:  26    -0.379551628933E+03   -0.55656E-04    0.76156E-04 10080   0.139E-03-0.644E-04
CGA:  27    -0.379551621022E+03    0.79106E-05   -0.12020E-04 10080   0.241E-04 0.462E-04
  21 F= -.37955162E+03 E0= -.37955134E+03  d E =-.288368E-01  mag=     8.0000
       N       E                     dE             d eps       ncg     rms          ort
SDA:   1    -0.379176921904E+03    0.37471E+00    0.00000E+00 10080   0.104E+01 0.000E+00
CGA:   2    -0.379476574666E+03   -0.29965E+00   -0.29946E+00 10080   0.354E+00-0.137E-02
CGA:   3    -0.379547793859E+03   -0.71219E-01   -0.71348E-01 10080   0.106E+00 0.543E-03
CGA:   4    -0.379564509950E+03   -0.16716E-01   -0.16758E-01 10080   0.245E-01 0.477E-03
CGA:   5    -0.379568782330E+03   -0.42724E-02   -0.42376E-02 10080   0.630E-02-0.153E-03
CGA:   6    -0.379569946212E+03   -0.11639E-02   -0.11700E-02 10080   0.219E-02 0.399E-04
CGA:   7    -0.379570443348E+03   -0.49714E-03   -0.48387E-03 10080   0.963E-03-0.662E-04
CGA:   8    -0.379570651670E+03   -0.20832E-03   -0.21190E-03 10080   0.473E-03 0.224E-04
CGA:   9    -0.379570809391E+03   -0.15772E-03   -0.14915E-03 10080   0.385E-03-0.949E-04
CGA:  10    -0.379570870856E+03   -0.61465E-04   -0.59016E-04 10080   0.158E-03-0.112E-04
CGA:  11    -0.379570930175E+03   -0.59319E-04   -0.75784E-04 10080   0.273E-03-0.149E-03
CGA:  12    -0.379570971651E+03   -0.41477E-04   -0.43887E-04 10080   0.708E-04 0.111E-04
CGA:  13    -0.379570994241E+03   -0.22590E-04   -0.17791E-04 10080   0.665E-04-0.351E-04
CGA:  14    -0.379571006418E+03   -0.12177E-04   -0.11369E-04 10080   0.602E-04-0.257E-04
CGA:  15    -0.379571042959E+03   -0.36540E-04    0.19752E-04 10080   0.533E-04-0.210E-04
CGA:  16    -0.379571068668E+03   -0.25709E-04    0.10789E-02 10080   0.100E-03-0.480E-04
CGA:  17    -0.379571080144E+03   -0.11476E-04   -0.12273E-04 10080   0.206E-04 0.369E-05
CGA:  18    -0.379571086965E+03   -0.68217E-05   -0.68715E-05 10080   0.555E-05 0.145E-05
  22 F= -.37957109E+03 E0= -.37957088E+03  d E =-.194659E-01  mag=     8.0000
       N       E                     dE             d eps       ncg     rms          ort
SDA:   1    -0.378356935445E+03    0.12141E+01    0.00000E+00 10080   0.310E+01 0.000E+00
CGA:   2    -0.379322255328E+03   -0.96532E+00   -0.96511E+00 10080   0.105E+01-0.511E-02
CGA:   3    -0.379532559618E+03   -0.21030E+00   -0.21057E+00 10080   0.265E+00 0.218E-02
CGA:   4    -0.379577506575E+03   -0.44947E-01   -0.44929E-01 10080   0.563E-01-0.209E-03
CGA:   5    -0.379587649659E+03   -0.10143E-01   -0.10174E-01 10080   0.146E-01 0.371E-03
CGA:   6    -0.379590657483E+03   -0.30078E-02   -0.29708E-02 10080   0.557E-02-0.301E-03
CGA:   7    -0.379591663485E+03   -0.10060E-02   -0.10214E-02 10080   0.216E-02 0.148E-03
CGA:   8    -0.379592250257E+03   -0.58677E-03   -0.57584E-03 10080   0.128E-02-0.191E-03
CGA:   9    -0.379592507972E+03   -0.25771E-03   -0.26106E-03 10080   0.597E-03 0.421E-04
CGA:  10    -0.379592663260E+03   -0.15529E-03   -0.15359E-03 10080   0.288E-03-0.273E-04
CGA:  11    -0.379592738855E+03   -0.75595E-04   -0.74128E-04 10080   0.177E-03-0.408E-04
CGA:  12    -0.379592774739E+03   -0.35884E-04   -0.33967E-04 10080   0.102E-03-0.232E-04
CGA:  13    -0.379592792570E+03   -0.17831E-04   -0.19308E-04 10080   0.419E-04 0.181E-04
CGA:  14    -0.379592815147E+03   -0.22577E-04   -0.28513E-04 10080   0.841E-04-0.210E-04
CGA:  15    -0.379592823139E+03   -0.79928E-05   -0.11295E-04 10080   0.249E-04 0.191E-04
CGA:  16    -0.379592833571E+03   -0.10432E-04   -0.11515E-04 10080   0.264E-04-0.141E-04
CGA:  17    -0.379592835373E+03   -0.18022E-05   -0.36630E-05 10080   0.891E-05 0.113E-04
  23 F= -.37959284E+03 E0= -.37959259E+03  d E =-.217484E-01  mag=     8.0000
       N       E                     dE             d eps       ncg     rms          ort
SDA:   1    -0.377641845360E+03    0.19510E+01    0.00000E+00 10080   0.464E+01 0.000E+00
CGA:   2    -0.379223740858E+03   -0.15819E+01   -0.15818E+01 10080   0.140E+01 0.181E-02
CGA:   3    -0.379509235768E+03   -0.28549E+00   -0.28541E+00 10080   0.348E+00 0.157E-02
CGA:   4    -0.379566818485E+03   -0.57583E-01   -0.57463E-01 10080   0.739E-01-0.154E-02
CGA:   5    -0.379581145331E+03   -0.14327E-01   -0.14287E-01 10080   0.195E-01-0.367E-03
CGA:   6    -0.379585325871E+03   -0.41805E-02   -0.41921E-02 10080   0.580E-02 0.175E-03
CGA:   7    -0.379586680388E+03   -0.13545E-02   -0.13638E-02 10080   0.239E-02 0.209E-03
CGA:   8    -0.379587336536E+03   -0.65615E-03   -0.65490E-03 10080   0.152E-02-0.998E-04
CGA:   9    -0.379587669254E+03   -0.33272E-03   -0.32939E-03 10080   0.656E-03-0.622E-04
CGA:  10    -0.379587855721E+03   -0.18647E-03   -0.19088E-03 10080   0.390E-03-0.149E-03
CGA:  11    -0.379587935570E+03   -0.79849E-04   -0.11676E-03 10080   0.768E-03-0.328E-03
CGA:  12    -0.379588006142E+03   -0.70572E-04   -0.79625E-04 10080   0.114E-03 0.555E-04
CGA:  13    -0.379588053999E+03   -0.47857E-04   -0.54555E-04 10080   0.103E-03-0.379E-04
CGA:  14    -0.379588104407E+03   -0.50408E-04    0.31825E-04 10080   0.113E-03-0.177E-04
CGA:  15    -0.379588169325E+03   -0.64918E-04    0.57646E-04 10080   0.581E-04-0.202E-04
CGA:  16    -0.379588202078E+03   -0.32752E-04    0.30107E-04 10080   0.387E-04-0.109E-05
CGA:  17    -0.379588236704E+03   -0.34626E-04    0.85545E-05 10080   0.354E-04-0.771E-05
CGA:  18    -0.379588278776E+03   -0.42072E-04    0.24159E-05 10080   0.211E-04-0.136E-05
CGA:  19    -0.379588294459E+03   -0.15684E-04    0.75861E-05 10080   0.130E-04 0.459E-05
CGA:  20    -0.379588303550E+03   -0.90907E-05    0.11443E-03 10080   0.120E-04-0.155E-05
  24 F= -.37958830E+03 E0= -.37958819E+03  d E =0.453182E-02  mag=     8.0000
       N       E                     dE             d eps       ncg     rms          ort
SDA:   1    -0.379071665655E+03    0.51663E+00    0.00000E+00 10080   0.123E+01 0.000E+00
CGA:   2    -0.379501628475E+03   -0.42996E+00   -0.42995E+00 10080   0.355E+00 0.171E-03
CGA:   3    -0.379574349339E+03   -0.72721E-01   -0.72710E-01 10080   0.867E-01 0.326E-03
CGA:   4    -0.379588031326E+03   -0.13682E-01   -0.13553E-01 10080   0.223E-01-0.129E-02
CGA:   5    -0.379591940331E+03   -0.39090E-02   -0.39220E-02 10080   0.563E-02 0.234E-03
CGA:   6    -0.379593086470E+03   -0.11461E-02   -0.11581E-02 10080   0.167E-02 0.189E-03
CGA:   7    -0.379593493973E+03   -0.40750E-03   -0.40964E-03 10080   0.694E-03 0.762E-04
CGA:   8    -0.379593706786E+03   -0.21281E-03   -0.21567E-03 10080   0.568E-03-0.852E-04
CGA:   9    -0.379593774390E+03   -0.67604E-04   -0.77938E-04 10080   0.194E-03 0.964E-04
CGA:  10    -0.379593807826E+03   -0.33436E-04   -0.40009E-04 10080   0.926E-04 0.783E-04
CGA:  11    -0.379593829588E+03   -0.21762E-04   -0.23235E-04 10080   0.521E-04 0.193E-04
CGA:  12    -0.379593836290E+03   -0.67020E-05   -0.97118E-05 10080   0.267E-04 0.307E-04
  25 F= -.37959384E+03 E0= -.37959367E+03  d E =-.553274E-02  mag=     8.0000
       N       E                     dE             d eps       ncg     rms          ort
SDA:   1    -0.377909045353E+03    0.16848E+01    0.00000E+00 10080   0.392E+01 0.000E+00
CGA:   2    -0.379285931583E+03   -0.13769E+01   -0.13772E+01 10080   0.116E+01-0.271E-02
CGA:   3    -0.379520602085E+03   -0.23467E+00   -0.23465E+00 10080   0.266E+00 0.916E-03
CGA:   4    -0.379563019128E+03   -0.42417E-01   -0.42249E-01 10080   0.702E-01-0.355E-02
CGA:   5    -0.379574836685E+03   -0.11818E-01   -0.11826E-01 10080   0.195E-01 0.665E-03
CGA:   6    -0.379578590442E+03   -0.37538E-02   -0.37644E-02 10080   0.568E-02 0.248E-03
CGA:   7    -0.379579942729E+03   -0.13523E-02   -0.13523E-02 10080   0.244E-02 0.628E-04
CGA:   8    -0.379580650366E+03   -0.70764E-03   -0.74791E-03 10080   0.245E-02-0.573E-03
CGA:   9    -0.379580941335E+03   -0.29097E-03   -0.29966E-03 10080   0.916E-03 0.124E-03
CGA:  10    -0.379581110140E+03   -0.16881E-03   -0.17941E-03 10080   0.490E-03 0.223E-03
CGA:  11    -0.379581224966E+03   -0.11483E-03   -0.11365E-03 10080   0.327E-03-0.240E-04
CGA:  12    -0.379581295593E+03   -0.70627E-04   -0.70667E-04 10080   0.170E-03 0.178E-04
CGA:  13    -0.379581323875E+03   -0.28282E-04   -0.32339E-04 10080   0.132E-03 0.824E-04
CGA:  14    -0.379581352495E+03   -0.28620E-04   -0.33438E-04 10080   0.769E-04 0.858E-04
CGA:  15    -0.379581371435E+03   -0.18940E-04   -0.18366E-04 10080   0.477E-04 0.385E-04
CGA:  16    -0.379581377124E+03   -0.56889E-05   -0.75364E-05 10080   0.397E-04 0.277E-04
  26 F= -.37958138E+03 E0= -.37958112E+03  d E =0.124592E-01  mag=     8.0000
       N       E                     dE             d eps       ncg     rms          ort
SDA:   1    -0.363096885432E+03    0.16484E+02    0.00000E+00 10080   0.386E+02 0.000E+00
CGA:   2    -0.376436516925E+03   -0.13340E+02   -0.13295E+02 10080   0.137E+02 0.304E+00
CGA:   3    -0.378655358050E+03   -0.22188E+01   -0.21176E+01 10080   0.419E+01 0.200E+00
CGA:   4    -0.379252328067E+03   -0.59697E+00   -0.61316E+00 10080   0.938E+00 0.180E-01
CGA:   5    -0.379423707245E+03   -0.17138E+00   -0.17085E+00 10080   0.247E+00-0.101E-01
CGA:   6    -0.379473365875E+03   -0.49659E-01   -0.49688E-01 10080   0.849E-01 0.213E-02
CGA:   7    -0.379487746519E+03   -0.14381E-01   -0.14439E-01 10080   0.354E-01 0.187E-02
CGA:   8    -0.379497149970E+03   -0.94035E-02   -0.95402E-02 10080   0.192E-01-0.255E-02
CGA:   9    -0.379501401408E+03   -0.42514E-02   -0.43124E-02 10080   0.140E-01-0.212E-02
CGA:  10    -0.379503819449E+03   -0.24180E-02   -0.24031E-02 10080   0.439E-02-0.610E-03
CGA:  11    -0.379505088450E+03   -0.12690E-02   -0.13523E-02 10080   0.229E-02-0.764E-03
CGA:  12    -0.379505540882E+03   -0.45243E-03   -0.46545E-03 10080   0.189E-02-0.481E-03
CGA:  13    -0.379505911876E+03   -0.37099E-03   -0.39910E-03 10080   0.147E-02-0.610E-03
CGA:  14    -0.379506137404E+03   -0.22553E-03   -0.22504E-03 10080   0.713E-03 0.206E-03
CGA:  15    -0.379506387187E+03   -0.24978E-03   -0.23709E-03 10080   0.464E-03 0.182E-03
CGA:  16    -0.379506573525E+03   -0.18634E-03   -0.25258E-03 10080   0.150E-02-0.320E-03
CGA:  17    -0.379506663149E+03   -0.89624E-04   -0.12850E-03 10080   0.218E-03 0.273E-03
CGA:  18    -0.379506684525E+03   -0.21376E-04   -0.34154E-04 10080   0.162E-03 0.132E-03
CGA:  19    -0.379506605088E+03    0.79437E-04   -0.12329E-03 10080   0.331E-02-0.376E-03
CGA:  20    -0.379506821474E+03   -0.21639E-03   -0.26217E-03 10080   0.104E-03 0.331E-03
CGA:  21    -0.379506821582E+03   -0.10875E-06   -0.10347E-04 10080   0.753E-04 0.673E-04
CGA:  22    -0.379506869981E+03   -0.48399E-04   -0.39998E-04 10080   0.179E-03 0.282E-04
CGA:  23    -0.379506923280E+03   -0.53299E-04   -0.55928E-04 10080   0.107E-03 0.117E-03
CGA:  24    -0.379506387564E+03    0.53572E-03   -0.29036E-03 10080   0.866E-02-0.530E-03
CGA:  25    -0.379507043622E+03   -0.65606E-03   -0.72133E-03 10080   0.309E-03 0.595E-03
CGA:  26    -0.379507064403E+03   -0.20781E-04   -0.52817E-04 10080   0.159E-03 0.117E-03
CGA:  27    -0.379507101071E+03   -0.36668E-04   -0.41873E-04 10080   0.696E-04 0.228E-04
CGA:  28    -0.379506887684E+03    0.21339E-03   -0.13475E-03 10080   0.263E-02-0.270E-03
CGA:  29    -0.379507130117E+03   -0.24243E-03   -0.32559E-03 10080   0.632E-03 0.249E-03
CGA:  30    -0.379507201685E+03   -0.71568E-04   -0.11547E-03 10080   0.161E-03 0.153E-03
CGA:  31    -0.379507290613E+03   -0.88929E-04   -0.10127E-03 10080   0.396E-03-0.190E-03
CGA:  32    -0.379507304843E+03   -0.14230E-04   -0.41027E-04 10080   0.937E-04 0.800E-04
CGA:  33    -0.379507300993E+03    0.38502E-05   -0.14536E-04 10080   0.531E-04 0.614E-04
CGA:  34    -0.379507323034E+03   -0.22040E-04   -0.22144E-04 10080   0.204E-03-0.271E-04
CGA:  35    -0.379507333241E+03   -0.10207E-04   -0.17398E-04 10080   0.218E-04 0.229E-04
CGA:  36    -0.379507330451E+03    0.27900E-05   -0.28437E-05 10080   0.242E-04 0.201E-04
  27 F= -.37950733E+03 E0= -.37950694E+03  d E =0.740467E-01  mag=     8.0000
       N       E                     dE             d eps       ncg     rms          ort
SDA:   1    -0.348603067652E+03    0.30904E+02    0.00000E+00 10080   0.672E+02 0.000E+00
CGA:   2    -0.370540525674E+03   -0.21937E+02   -0.22026E+02 10080   0.193E+02 0.665E+00
CGA:   3    -0.375115582008E+03   -0.45751E+01   -0.44635E+01 10080   0.631E+01 0.286E+00
CGA:   4    -0.376065806213E+03   -0.95022E+00   -0.10155E+01 10080   0.255E+01-0.204E+00
CGA:   5    -0.376347190485E+03   -0.28138E+00   -0.19811E+00 10080   0.693E+00 0.976E+00
CGA:   6    -0.376468265386E+03   -0.12107E+00   -0.11245E+00 10080   0.772E+00 0.682E-01
CGA:   7    -0.376556442091E+03   -0.88177E-01   -0.90560E-01 10080   0.427E+00-0.198E-01
CGA:   8    -0.376597420590E+03   -0.40978E-01   -0.43015E-01 10080   0.332E+00-0.201E-01
CGA:   9    -0.376630436166E+03   -0.33016E-01   -0.32516E-01 10080   0.185E+00 0.117E-01
CGA:  10    -0.376647998029E+03   -0.17562E-01   -0.17059E-01 10080   0.131E+00 0.145E-01
CGA:  11    -0.376661798390E+03   -0.13800E-01   -0.13819E-01 10080   0.635E-01 0.128E-02
CGA:  12    -0.376668758012E+03   -0.69596E-02   -0.69129E-02 10080   0.562E-01-0.232E-02
CGA:  13    -0.376674317417E+03   -0.55594E-02   -0.56384E-02 10080   0.255E-01 0.924E-03
CGA:  14    -0.376676262679E+03   -0.19453E-02   -0.20690E-02 10080   0.176E-01 0.186E-02
CGA:  15    -0.376678919368E+03   -0.26567E-02   -0.26599E-02 10080   0.151E-01 0.967E-04
CGA:  16    -0.376680363269E+03   -0.14439E-02   -0.12985E-02 10080   0.856E-02-0.110E-02
CGA:  17    -0.376681337287E+03   -0.97402E-03   -0.95490E-03 10080   0.662E-02-0.162E-03
CGA:  18    -0.376681815989E+03   -0.47870E-03   -0.56981E-03 10080   0.510E-02 0.717E-03
CGA:  19    -0.376682585659E+03   -0.76967E-03   -0.82021E-03 10080   0.461E-02 0.601E-03
CGA:  20    -0.376683087327E+03   -0.50167E-03   -0.46292E-03 10080   0.262E-02-0.306E-03
CGA:  21    -0.376683566878E+03   -0.47955E-03   -0.48494E-03 10080   0.314E-02 0.307E-03
CGA:  22    -0.376683743377E+03   -0.17650E-03   -0.27067E-03 10080   0.135E-02 0.703E-03
CGA:  23    -0.376684005644E+03   -0.26227E-03   -0.28238E-03 10080   0.191E-02 0.533E-03
CGA:  24    -0.376684374536E+03   -0.36889E-03   -0.35443E-03 10080   0.117E-02-0.203E-03
CGA:  25    -0.376684515341E+03   -0.14080E-03   -0.16001E-03 10080   0.777E-03 0.371E-03
CGA:  26    -0.376684683372E+03   -0.16803E-03   -0.17958E-03 10080   0.109E-02 0.446E-03
CGA:  27    -0.376684891616E+03   -0.20824E-03   -0.19622E-03 10080   0.259E-02-0.640E-03
CGA:  28    -0.376684965227E+03   -0.73611E-04   -0.13436E-03 10080   0.321E-03 0.472E-03
CGA:  29    -0.376684986896E+03   -0.21669E-04   -0.38329E-04 10080   0.421E-03 0.186E-03
CGA:  30    -0.376685009665E+03   -0.22768E-04   -0.15117E-03 10080   0.532E-02-0.740E-03
CGA:  31    -0.376685187519E+03   -0.17785E-03   -0.26102E-03 10080   0.240E-03 0.751E-03
[...]
CGA:  13    -0.379103297340E+03   -0.20662E-04   -0.17372E-04 10080   0.841E-04-0.482E-04
CGA:  14    -0.379103304617E+03   -0.72770E-05   -0.77224E-05 10080   0.224E-04 0.796E-05
  91 F= -.37910330E+03 E0= -.37910283E+03  d E =-.163900E-02  mag=     8.0000
       N       E                     dE             d eps       ncg     rms          ort
SDA:   1    -0.379097659592E+03    0.56377E-02    0.00000E+00 10080   0.199E-01 0.000E+00
CGA:   2    -0.379101495922E+03   -0.38363E-02   -0.38406E-02 10080   0.694E-02 0.365E-03
CGA:   3    -0.379102888185E+03   -0.13923E-02   -0.13904E-02 10080   0.346E-02-0.261E-03
CGA:   4    -0.379103327954E+03   -0.43977E-03   -0.44822E-03 10080   0.823E-03 0.132E-03
CGA:   5    -0.379103494812E+03   -0.16686E-03   -0.16606E-03 10080   0.295E-03-0.136E-03
CGA:   6    -0.379103530925E+03   -0.36113E-04   -0.36356E-04 10080   0.774E-04 0.504E-05
CGA:   7    -0.379103543904E+03   -0.12978E-04   -0.32925E-04 10080   0.193E-03-0.902E-04
CGA:   8    -0.379103564501E+03   -0.20597E-04   -0.22420E-04 10080   0.305E-04 0.201E-04
CGA:   9    -0.379103302945E+03    0.26156E-03   -0.14208E-03 10080   0.280E-02-0.273E-03
CGA:  10    -0.379103524987E+03   -0.22204E-03   -0.24880E-03 10080   0.357E-03 0.130E-03
CGA:  11    -0.379103596327E+03   -0.71340E-04   -0.66511E-04 10080   0.372E-04-0.269E-04
CGA:  12    -0.379103601727E+03   -0.53998E-05   -0.58658E-05 10080   0.126E-04 0.268E-05
  92 F= -.37910360E+03 E0= -.37910313E+03  d E =-.297110E-03  mag=     8.0000
       N       E                     dE             d eps       ncg     rms          ort
SDA:   1    -0.379062830580E+03    0.40766E-01    0.00000E+00 10080   0.147E+00 0.000E+00
CGA:   2    -0.379088203536E+03   -0.25373E-01   -0.25406E-01 10080   0.534E-01-0.154E-03
CGA:   3    -0.379097195615E+03   -0.89921E-02   -0.90169E-02 10080   0.225E-01 0.642E-03
CGA:   4    -0.379101208720E+03   -0.40131E-02   -0.39505E-02 10080   0.654E-02-0.447E-03
CGA:   5    -0.379102107871E+03   -0.89915E-03   -0.91564E-03 10080   0.180E-02 0.123E-03
CGA:   6    -0.379102435945E+03   -0.32807E-03   -0.31468E-03 10080   0.481E-03-0.872E-04
CGA:   7    -0.379102528025E+03   -0.92080E-04   -0.90384E-04 10080   0.170E-03-0.136E-04
CGA:   8    -0.379102578312E+03   -0.50286E-04   -0.49485E-04 10080   0.267E-03-0.101E-03
CGA:   9    -0.379102594769E+03   -0.16457E-04   -0.21628E-04 10080   0.350E-04 0.241E-04
CGA:  10    -0.379102582267E+03    0.12501E-04   -0.31344E-04 10080   0.311E-03-0.836E-04
CGA:  11    -0.379102624071E+03   -0.41804E-04   -0.43946E-04 10080   0.696E-04 0.125E-04
CGA:  12    -0.379102639748E+03   -0.15677E-04   -0.13254E-04 10080   0.185E-04-0.183E-04
CGA:  13    -0.379102642899E+03   -0.31514E-05   -0.30220E-05 10080   0.873E-05-0.147E-05
  93 F= -.37910264E+03 E0= -.37910216E+03  d E =0.958828E-03  mag=     8.0000
       N       E                     dE             d eps       ncg     rms          ort
SDA:   1    -0.379085679565E+03    0.16960E-01    0.00000E+00 10080   0.411E-01 0.000E+00
CGA:   2    -0.379096433812E+03   -0.10754E-01   -0.10769E-01 10080   0.171E-01 0.354E-03
CGA:   3    -0.379099555022E+03   -0.31212E-02   -0.31188E-02 10080   0.595E-02 0.445E-05
CGA:   4    -0.379100554249E+03   -0.99923E-03   -0.96910E-03 10080   0.130E-02-0.219E-03
CGA:   5    -0.379100793532E+03   -0.23928E-03   -0.23316E-03 10080   0.325E-03-0.582E-04
CGA:   6    -0.379100846957E+03   -0.53425E-04   -0.54204E-04 10080   0.113E-03 0.775E-05
CGA:   7    -0.379100877733E+03   -0.30777E-04   -0.29981E-04 10080   0.117E-03-0.409E-04
CGA:   8    -0.379100889797E+03   -0.12063E-04   -0.10887E-04 10080   0.492E-04-0.866E-05
CGA:   9    -0.379100403169E+03    0.48663E-03   -0.26407E-03 10080   0.453E-02-0.386E-03
CGA:  10    -0.379100852863E+03   -0.44969E-03   -0.46215E-03 10080   0.612E-03 0.347E-04
CGA:  11    -0.379100934082E+03   -0.81219E-04   -0.99312E-04 10080   0.965E-04 0.590E-04
CGA:  12    -0.379100964415E+03   -0.30333E-04   -0.24870E-04 10080   0.127E-03-0.244E-04
CGA:  13    -0.379100971948E+03   -0.75333E-05   -0.12284E-04 10080   0.477E-04 0.153E-04
  94 F= -.37910097E+03 E0= -.37910049E+03  d E =0.167095E-02  mag=     8.0000
       N       E                     dE             d eps       ncg     rms          ort
SDA:   1    -0.379055695269E+03    0.45269E-01    0.00000E+00 10080   0.112E+00 0.000E+00
CGA:   2    -0.379083300536E+03   -0.27605E-01   -0.27817E-01 10080   0.450E-01 0.134E-02
CGA:   3    -0.379091406414E+03   -0.81059E-02   -0.80412E-02 10080   0.201E-01-0.497E-03
CGA:   4    -0.379094211533E+03   -0.28051E-02   -0.27801E-02 10080   0.394E-02 0.108E-03
CGA:   5    -0.379094945538E+03   -0.73401E-03   -0.68605E-03 10080   0.137E-02-0.234E-03
CGA:   6    -0.379095127211E+03   -0.18167E-03   -0.18786E-03 10080   0.371E-03 0.318E-04
CGA:   7    -0.379095212620E+03   -0.85409E-04   -0.84789E-04 10080   0.133E-03-0.422E-05
CGA:   8    -0.379095253692E+03   -0.41072E-04   -0.40179E-04 10080   0.986E-04-0.188E-04
CGA:   9    -0.379095282075E+03   -0.28383E-04   -0.25247E-04 10080   0.176E-03-0.601E-04
CGA:  10    -0.379095291315E+03   -0.92409E-05   -0.14357E-04 10080   0.251E-04 0.200E-04
  95 F= -.37909529E+03 E0= -.37909480E+03  d E =0.568063E-02  mag=     8.0000
       N       E                     dE             d eps       ncg     rms          ort
SDA:   1    -0.379061221219E+03    0.34061E-01    0.00000E+00 10080   0.813E-01 0.000E+00
CGA:   2    -0.379080638797E+03   -0.19418E-01   -0.19528E-01 10080   0.405E-01 0.128E-02
CGA:   3    -0.379086803040E+03   -0.61642E-02   -0.61057E-02 10080   0.162E-01-0.471E-03
CGA:   4    -0.379089492028E+03   -0.26890E-02   -0.26465E-02 10080   0.297E-02-0.231E-03
CGA:   5    -0.379090019132E+03   -0.52710E-03   -0.49790E-03 10080   0.123E-02-0.209E-03
CGA:   6    -0.379090167043E+03   -0.14791E-03   -0.15955E-03 10080   0.275E-03 0.750E-04
CGA:   7    -0.379090255816E+03   -0.88773E-04   -0.89254E-04 10080   0.158E-03-0.533E-04
CGA:   8    -0.379090300540E+03   -0.44724E-04   -0.50538E-04 10080   0.135E-03-0.588E-04
CGA:   9    -0.379090228705E+03    0.71835E-04   -0.69804E-04 10080   0.127E-02-0.273E-03
CGA:  10    -0.379090346566E+03   -0.11786E-03   -0.12586E-03 10080   0.178E-03 0.411E-04
CGA:  11    -0.379090380106E+03   -0.33539E-04   -0.36369E-04 10080   0.540E-04 0.239E-04
CGA:  12    -0.379090387599E+03   -0.74935E-05   -0.99100E-05 10080   0.313E-04 0.163E-04
CGA:  13    -0.379090385143E+03    0.24566E-05   -0.30905E-04 10080   0.218E-03-0.730E-04
CGA:  14    -0.379090396914E+03   -0.11772E-04   -0.21712E-04 10080   0.462E-04 0.448E-04
CGA:  15    -0.379090406011E+03   -0.90968E-05   -0.10006E-04 10080   0.135E-04 0.672E-05
CGA:  16    -0.379090416275E+03   -0.10263E-04    0.30988E-04 10080   0.312E-04-0.106E-04
CGA:  17    -0.379090416548E+03   -0.27327E-06   -0.21877E-05 10080   0.346E-05 0.817E-05
  96 F= -.37909042E+03 E0= -.37908994E+03  d E =0.487477E-02  mag=     8.0000
       N       E                     dE             d eps       ncg     rms          ort
SDA:   1    -0.379067774370E+03    0.22642E-01    0.00000E+00 10080   0.530E-01 0.000E+00
CGA:   2    -0.379080403856E+03   -0.12629E-01   -0.12696E-01 10080   0.168E-01 0.145E-02
CGA:   3    -0.379084427904E+03   -0.40240E-02   -0.40002E-02 10080   0.720E-02-0.481E-03
CGA:   4    -0.379085307979E+03   -0.88007E-03   -0.87562E-03 10080   0.170E-02 0.138E-04
CGA:   5    -0.379085640580E+03   -0.33260E-03   -0.31134E-03 10080   0.610E-03-0.236E-03
CGA:   6    -0.379085719792E+03   -0.79212E-04   -0.82598E-04 10080   0.168E-03 0.314E-04
CGA:   7    -0.379085757098E+03   -0.37306E-04   -0.37226E-04 10080   0.788E-04-0.142E-05
CGA:   8    -0.379085775714E+03   -0.18615E-04   -0.18661E-04 10080   0.437E-04 0.221E-05
CGA:   9    -0.379085450305E+03    0.32541E-03   -0.17558E-03 10080   0.290E-02-0.281E-03
CGA:  10    -0.379085700196E+03   -0.24989E-03   -0.27726E-03 10080   0.488E-03 0.106E-03
CGA:  11    -0.379085794859E+03   -0.94664E-04   -0.93579E-04 10080   0.970E-04-0.383E-05
CGA:  12    -0.379085808854E+03   -0.13995E-04   -0.17938E-04 10080   0.582E-04 0.158E-04
CGA:  13    -0.379085831210E+03   -0.22355E-04   -0.19923E-04 10080   0.381E-04-0.182E-04
CGA:  14    -0.379085832771E+03   -0.15610E-05   -0.34331E-05 10080   0.149E-04 0.654E-05
  97 F= -.37908583E+03 E0= -.37908535E+03  d E =0.458378E-02  mag=     8.0000
       N       E                     dE             d eps       ncg     rms          ort
SDA:   1    -0.378943589023E+03    0.14224E+00    0.00000E+00 10080   0.361E+00 0.000E+00
CGA:   2    -0.379036473624E+03   -0.92885E-01   -0.93306E-01 10080   0.131E+00 0.329E-02
CGA:   3    -0.379062272709E+03   -0.25799E-01   -0.25729E-01 10080   0.607E-01-0.137E-02
CGA:   4    -0.379069985671E+03   -0.77130E-02   -0.75583E-02 10080   0.905E-02 0.587E-03
CGA:   5    -0.379071759898E+03   -0.17742E-02   -0.17132E-02 10080   0.364E-02-0.353E-03
CGA:   6    -0.379072251815E+03   -0.49192E-03   -0.49503E-03 10080   0.103E-02 0.265E-04
CGA:   7    -0.379072481679E+03   -0.22986E-03   -0.22815E-03 10080   0.379E-03-0.126E-04
CGA:   8    -0.379072588045E+03   -0.10637E-03   -0.10661E-03 10080   0.206E-03 0.477E-05
CGA:   9    -0.379072660187E+03   -0.72142E-04   -0.73537E-04 10080   0.343E-03-0.798E-04
CGA:  10    -0.379072697604E+03   -0.37416E-04   -0.29563E-04 10080   0.148E-03-0.397E-04
CGA:  11    -0.379072724559E+03   -0.26955E-04   -0.22856E-04 10080   0.143E-03-0.269E-04
CGA:  12    -0.379072748329E+03   -0.23770E-04   -0.18594E-04 10080   0.613E-04-0.321E-04
CGA:  13    -0.379072756356E+03   -0.80267E-05   -0.71450E-05 10080   0.528E-04-0.540E-05
CGA:  14    -0.379072771356E+03   -0.15000E-04   -0.16878E-04 10080   0.734E-04-0.395E-04
CGA:  15    -0.379072789801E+03   -0.18445E-04   -0.14931E-04 10080   0.900E-04-0.342E-04
CGA:  16    -0.379072792489E+03   -0.26878E-05   -0.45659E-05 10080   0.431E-04 0.921E-05
  98 F= -.37907279E+03 E0= -.37907233E+03  d E =0.130403E-01  mag=     8.0000
       N       E                     dE             d eps       ncg     rms          ort
SDA:   1    -0.378931161870E+03    0.14163E+00    0.00000E+00 10080   0.367E+00 0.000E+00
CGA:   2    -0.379023566141E+03   -0.92404E-01   -0.92483E-01 10080   0.136E+00 0.289E-02
CGA:   3    -0.379048560949E+03   -0.24995E-01   -0.24939E-01 10080   0.640E-01 0.559E-03
CGA:   4    -0.379057265838E+03   -0.87049E-02   -0.85683E-02 10080   0.124E-01-0.138E-02
CGA:   5    -0.379059314435E+03   -0.20486E-02   -0.20532E-02 10080   0.343E-02 0.878E-04
CGA:   6    -0.379059938580E+03   -0.62414E-03   -0.61597E-03 10080   0.129E-02-0.968E-04
CGA:   7    -0.379060146894E+03   -0.20831E-03   -0.21576E-03 10080   0.458E-03 0.914E-04
CGA:   8    -0.379060297611E+03   -0.15072E-03   -0.15986E-03 10080   0.498E-03-0.123E-03
CGA:   9    -0.379060341695E+03   -0.44084E-04   -0.47693E-04 10080   0.225E-03 0.298E-04
CGA:  10    -0.379060396982E+03   -0.55287E-04   -0.55089E-04 10080   0.176E-03-0.110E-04
CGA:  11    -0.379060437292E+03   -0.40309E-04   -0.36055E-04 10080   0.270E-03-0.126E-03
CGA:  12    -0.379060452872E+03   -0.15580E-04   -0.22436E-04 10080   0.483E-04 0.430E-04
CGA:  13    -0.379060469240E+03   -0.16368E-04   -0.17897E-04 10080   0.491E-04-0.190E-04
CGA:  14    -0.379060485206E+03   -0.15966E-04    0.34659E-04 10080   0.104E-03-0.343E-04
CGA:  15    -0.379060489664E+03   -0.44578E-05   -0.86276E-05 10080   0.236E-04 0.264E-04
  99 F= -.37906049E+03 E0= -.37906001E+03  d E =0.123028E-01  mag=     8.0000
       N       E                     dE             d eps       ncg     rms          ort
SDA:   1    -0.379024993404E+03    0.35492E-01    0.00000E+00 10080   0.115E+00 0.000E+00
CGA:   2    -0.379055186816E+03   -0.30193E-01   -0.30248E-01 10080   0.599E-01-0.186E-02
CGA:   3    -0.379063111714E+03   -0.79249E-02   -0.78960E-02 10080   0.226E-01-0.751E-03
CGA:   4    -0.379066669246E+03   -0.35575E-02   -0.36213E-02 10080   0.312E-02 0.976E-03
CGA:   5    -0.379067319968E+03   -0.65072E-03   -0.64931E-03 10080   0.116E-02-0.468E-04
CGA:   6    -0.379067502580E+03   -0.18261E-03   -0.18289E-03 10080   0.347E-03 0.719E-05
CGA:   7    -0.379067590065E+03   -0.87484E-04   -0.88273E-04 10080   0.143E-03-0.264E-04
CGA:   8    -0.379067623162E+03   -0.33097E-04   -0.66370E-04 10080   0.319E-03-0.120E-03
CGA:   9    -0.379067657235E+03   -0.34073E-04   -0.36067E-04 10080   0.623E-04 0.166E-04
CGA:  10    -0.379067660440E+03   -0.32049E-05   -0.67566E-05 10080   0.177E-04 0.275E-04
 100 F= -.37906766E+03 E0= -.37906719E+03  d E =-.717078E-02  mag=     8.0000
       N       E                     dE             d eps       ncg     rms          ort
SDA:   1    -0.379050000497E+03    0.17657E-01    0.00000E+00 10080   0.400E-01 0.000E+00
CGA:   2    -0.379058891551E+03   -0.88911E-02   -0.88907E-02 10080   0.178E-01 0.201E-02
CGA:   3    -0.379061792100E+03   -0.29005E-02   -0.28784E-02 10080   0.823E-02-0.373E-03
CGA:   4    -0.379063127410E+03   -0.13353E-02   -0.13251E-02 10080   0.124E-02-0.171E-03
CGA:   5    -0.379063367246E+03   -0.23984E-03   -0.23418E-03 10080   0.698E-03-0.242E-03
CGA:   6    -0.379063442297E+03   -0.75051E-04   -0.74553E-04 10080   0.130E-03-0.431E-05
CGA:   7    -0.379063469573E+03   -0.27277E-04   -0.27278E-04 10080   0.633E-04 0.894E-05
CGA:   8    -0.379063480158E+03   -0.10585E-04   -0.10717E-04 10080   0.335E-04 0.270E-05
CGA:   9    -0.379063484925E+03   -0.47672E-05   -0.53581E-05 10080   0.133E-04 0.108E-04
 101 F= -.37906348E+03 E0= -.37906302E+03  d E =0.417551E-02  mag=     8.0000
       N       E                     dE             d eps       ncg     rms          ort
SDA:   1    -0.378885463470E+03    0.17802E+00    0.00000E+00 10080   0.455E+00 0.000E+00
CGA:   2    -0.379003676670E+03   -0.11821E+00   -0.11784E+00 10080   0.162E+00 0.684E-02
CGA:   3    -0.379035476553E+03   -0.31800E-01   -0.31778E-01 10080   0.798E-01-0.169E-02
CGA:   4    -0.379045212604E+03   -0.97361E-02   -0.96642E-02 10080   0.119E-01-0.187E-03
CGA:   5    -0.379047576040E+03   -0.23634E-02   -0.23609E-02 10080   0.428E-02-0.616E-03
CGA:   6    -0.379048181945E+03   -0.60591E-03   -0.61000E-03 10080   0.129E-02 0.895E-04
CGA:   7    -0.379048475239E+03   -0.29329E-03   -0.29369E-03 10080   0.553E-03-0.159E-04
CGA:   8    -0.379048619199E+03   -0.14396E-03   -0.14160E-03 10080   0.309E-03 0.410E-04
CGA:   9    -0.379048684629E+03   -0.65430E-04   -0.15642E-03 10080   0.148E-02-0.339E-03
CGA:  10    -0.379048783343E+03   -0.98714E-04   -0.11480E-03 10080   0.140E-03 0.126E-03
CGA:  11    -0.379048819577E+03   -0.36234E-04   -0.36331E-04 10080   0.658E-04-0.347E-05
CGA:  12    -0.379048237687E+03    0.58189E-03   -0.31790E-03 10080   0.796E-02-0.570E-03
CGA:  13    -0.379048803569E+03   -0.56588E-03   -0.60028E-03 10080   0.298E-03 0.382E-03
CGA:  14    -0.379048872115E+03   -0.68545E-04   -0.71703E-04 10080   0.195E-03 0.227E-04
CGA:  15    -0.379048908677E+03   -0.36563E-04   -0.30753E-04 10080   0.367E-04-0.262E-04
CGA:  16    -0.379048910338E+03   -0.16603E-05   -0.39633E-05 10080   0.142E-04 0.101E-04
 102 F= -.37904891E+03 E0= -.37904847E+03  d E =0.145746E-01  mag=     8.0000
       N       E                     dE             d eps       ncg     rms          ort
SDA:   1    -0.378868044034E+03    0.18086E+00    0.00000E+00 10080   0.432E+00 0.000E+00
CGA:   2    -0.379005705751E+03   -0.13766E+00   -0.13763E+00 10080   0.173E+00-0.172E-02
CGA:   3    -0.379035003001E+03   -0.29297E-01   -0.29247E-01 10080   0.515E-01 0.520E-03
CGA:   4    -0.379042882657E+03   -0.78797E-02   -0.78799E-02 10080   0.109E-01-0.158E-04
CGA:   5    -0.379044845083E+03   -0.19624E-02   -0.19621E-02 10080   0.311E-02 0.193E-04
CGA:   6    -0.379045380444E+03   -0.53536E-03   -0.52096E-03 10080   0.142E-02-0.102E-03
CGA:   7    -0.379045594878E+03   -0.21443E-03   -0.22133E-03 10080   0.415E-03 0.528E-04
CGA:   8    -0.379045739856E+03   -0.14498E-03   -0.19515E-03 10080   0.797E-03-0.318E-03
CGA:   9    -0.379045811081E+03   -0.71225E-04   -0.87557E-04 10080   0.148E-03 0.869E-04
CGA:  10    -0.379045845764E+03   -0.34683E-04   -0.33540E-04 10080   0.564E-04-0.125E-04
CGA:  11    -0.379045841387E+03    0.43773E-05   -0.34626E-04 10080   0.509E-03-0.102E-03
CGA:  12    -0.379045895105E+03   -0.53717E-04   -0.48080E-04 10080   0.689E-04-0.260E-04
CGA:  13    -0.379045902776E+03   -0.76710E-05   -0.10275E-04 10080   0.140E-04 0.185E-04
 103 F= -.37904590E+03 E0= -.37904546E+03  d E =0.300756E-02  mag=     8.0000
       N       E                     dE             d eps       ncg     rms          ort
SDA:   1    -0.378909348736E+03    0.13655E+00    0.00000E+00 10080   0.389E+00 0.000E+00
CGA:   2    -0.379022777771E+03   -0.11343E+00   -0.11343E+00 10080   0.143E+00-0.269E-02
CGA:   3    -0.379050487353E+03   -0.27710E-01   -0.27825E-01 10080   0.476E-01 0.145E-02
CGA:   4    -0.379057047456E+03   -0.65601E-02   -0.66114E-02 10080   0.824E-02 0.455E-03
CGA:   5    -0.379058733921E+03   -0.16865E-02   -0.17036E-02 10080   0.207E-02 0.244E-03
CGA:   6    -0.379059209098E+03   -0.47518E-03   -0.46220E-03 10080   0.127E-02-0.220E-03
CGA:   7    -0.379059342947E+03   -0.13385E-03   -0.14844E-03 10080   0.418E-03 0.108E-03
CGA:   8    -0.379059420549E+03   -0.77602E-04   -0.85989E-04 10080   0.200E-03 0.111E-03
CGA:   9    -0.379059466294E+03   -0.45745E-04   -0.46813E-04 10080   0.170E-03 0.144E-04
CGA:  10    -0.379059485899E+03   -0.19605E-04   -0.26106E-04 10080   0.712E-04 0.569E-04
CGA:  11    -0.379059494596E+03   -0.86975E-05   -0.12373E-04 10080   0.448E-04 0.304E-04
CGA:  12    -0.379059507696E+03   -0.13100E-04   -0.13188E-04 10080   0.302E-04 0.231E-05
CGA:  13    -0.379059508387E+03   -0.69084E-06   -0.28956E-05 10080   0.153E-04 0.145E-04
 104 F= -.37905951E+03 E0= -.37905906E+03  d E =-.136056E-01  mag=     8.0000
       N       E                     dE             d eps       ncg     rms          ort
SDA:   1    -0.379018022715E+03    0.41485E-01    0.00000E+00 10080   0.949E-01 0.000E+00
CGA:   2    -0.379045940831E+03   -0.27918E-01   -0.27859E-01 10080   0.364E-01 0.906E-03
CGA:   3    -0.379052533318E+03   -0.65925E-02   -0.65802E-02 10080   0.129E-01-0.184E-03
CGA:   4    -0.379054570239E+03   -0.20369E-02   -0.20080E-02 10080   0.239E-02-0.372E-03
CGA:   5    -0.379055064977E+03   -0.49474E-03   -0.49380E-03 10080   0.599E-03-0.758E-04
CGA:   6    -0.379055175250E+03   -0.11027E-03   -0.11135E-03 10080   0.195E-03 0.345E-04
CGA:   7    -0.379055221224E+03   -0.45974E-04   -0.45974E-04 10080   0.987E-04 0.135E-05
CGA:   8    -0.379055241703E+03   -0.20479E-04   -0.46312E-04 10080   0.315E-03-0.106E-03
CGA:   9    -0.379055269012E+03   -0.27309E-04   -0.29775E-04 10080   0.405E-04 0.190E-04
CGA:  10    -0.379055281264E+03   -0.12252E-04   -0.13968E-04 10080   0.305E-04-0.176E-04
CGA:  11    -0.379055284304E+03   -0.30400E-05   -0.26668E-05 10080   0.184E-04-0.473E-05
 105 F= -.37905528E+03 E0= -.37905485E+03  d E =0.422408E-02  mag=     8.0000
       N       E                     dE             d eps       ncg     rms          ort
SDA:   1    -0.379042702030E+03    0.12579E-01    0.00000E+00 10080   0.302E-01 0.000E+00
CGA:   2    -0.379051882909E+03   -0.91809E-02   -0.91377E-02 10080   0.139E-01 0.592E-03
CGA:   3    -0.379053904160E+03   -0.20213E-02   -0.19909E-02 10080   0.517E-02-0.332E-03
CGA:   4    -0.379054698726E+03   -0.79457E-03   -0.79624E-03 10080   0.954E-03 0.339E-04
CGA:   5    -0.379054886188E+03   -0.18746E-03   -0.18444E-03 10080   0.412E-03-0.925E-04
CGA:   6    -0.379054927649E+03   -0.41461E-04   -0.46648E-04 10080   0.900E-04 0.544E-04
CGA:   7    -0.379054946990E+03   -0.19341E-04   -0.19761E-04 10080   0.407E-04 0.176E-04
CGA:   8    -0.379054959153E+03   -0.12163E-04   -0.14339E-04 10080   0.871E-04-0.276E-04
CGA:   9    -0.379054963199E+03   -0.40456E-05   -0.65073E-05 10080   0.109E-04 0.172E-04
 106 F= -.37905496E+03 E0= -.37905453E+03  d E =0.321106E-03  mag=     8.0000
