       N       E                     dE             d eps       ncg     rms          ort
DAV:   1     0.264956588167E+04    0.26496E+04   -0.14503E+05  6048   0.161E+03
DAV:   2    -0.153465069253E+03   -0.28030E+04   -0.26268E+04  6048   0.429E+02
DAV:   3    -0.456936722491E+03   -0.30347E+03   -0.29937E+03  6048   0.157E+02
DAV:   4    -0.466971726272E+03   -0.10035E+02   -0.98361E+01  6048   0.275E+01
DAV:   5    -0.467621775210E+03   -0.65005E+00   -0.64775E+00  6048   0.523E+00
SDA:   6    -0.305541276295E+03    0.16208E+03   -0.64775E+00  6048   0.381E+03 0.000E+00
CGA:   7    -0.355083228122E+03   -0.49542E+02   -0.52613E+02  6048   0.520E+02 0.657E+01
CGA:   8    -0.363841457302E+03   -0.87582E+01   -0.87479E+01  6048   0.131E+02 0.730E-01
CGA:   9    -0.366645397054E+03   -0.28039E+01   -0.28033E+01  6048   0.556E+01 0.281E-01
CGA:  10    -0.367743473999E+03   -0.10981E+01   -0.10981E+01  6048   0.219E+01-0.121E-01
CGA:  11    -0.368245358429E+03   -0.50188E+00   -0.50311E+00  6048   0.797E+00-0.414E-01
CGA:  12    -0.368423779248E+03   -0.17842E+00   -0.17910E+00  6048   0.286E+00-0.225E-01
CGA:  13    -0.368491656497E+03   -0.67877E-01   -0.67653E-01  6048   0.835E-01 0.482E-02
CGA:  14    -0.368512584170E+03   -0.20928E-01   -0.20683E-01  6048   0.266E-01 0.580E-02
CGA:  15    -0.368521847414E+03   -0.92632E-02   -0.96241E-02  6048   0.129E-01-0.269E-02
CGA:  16    -0.368525396726E+03   -0.35493E-02   -0.36403E-02  6048   0.543E-02-0.899E-03
CGA:  17    -0.368527018190E+03   -0.16215E-02   -0.16735E-02  6048   0.216E-02-0.455E-03
CGA:  18    -0.368527732012E+03   -0.71382E-03   -0.80382E-03  6048   0.114E-02-0.490E-03
CGA:  19    -0.368527925268E+03   -0.19326E-03   -0.19544E-03  6048   0.441E-03 0.258E-03
CGA:  20    -0.368528037739E+03   -0.11247E-03   -0.11465E-03  6048   0.159E-03 0.117E-03
CGA:  21    -0.368527826723E+03    0.21102E-03   -0.22456E-03  6048   0.131E-02-0.490E-03
CGA:  22    -0.368527989599E+03   -0.16288E-03   -0.22081E-03  6048   0.279E-03 0.551E-03
CGA:  23    -0.368528057078E+03   -0.67479E-04   -0.75365E-04  6048   0.579E-04 0.100E-03
CGA:  24    -0.368528134016E+03   -0.76939E-04    0.12306E-04  6048   0.174E-04 0.954E-05
CGA:  25    -0.368528135604E+03   -0.15872E-05   -0.29718E-05  6048   0.889E-05 0.117E-04
   1 F= -.36852814E+03 E0= -.36852814E+03  d E =-.368528E+03  mag=    20.0000
       N       E                     dE             d eps       ncg     rms          ort
SDA:   1    -0.368537024174E+03   -0.88902E-02    0.00000E+00  6048   0.262E-02 0.000E+00
CGA:   2    -0.368537582931E+03   -0.55876E-03   -0.56574E-03  6048   0.727E-03 0.215E-03
CGA:   3    -0.368537776638E+03   -0.19371E-03   -0.19369E-03  6048   0.364E-03-0.489E-04
CGA:   4    -0.368537837700E+03   -0.61062E-04   -0.58071E-04  6048   0.864E-04-0.399E-04
CGA:   5    -0.368537849558E+03   -0.11858E-04   -0.12457E-04  6048   0.229E-04 0.740E-05
CGA:   6    -0.368537851378E+03   -0.18204E-05   -0.30616E-05  6048   0.868E-05 0.107E-04
   2 F= -.36853785E+03 E0= -.36853785E+03  d E =-.971577E-02  mag=    20.0000
       N       E                     dE             d eps       ncg     rms          ort
SDA:   1    -0.366796495149E+03    0.17414E+01    0.00000E+00  6048   0.631E+01 0.000E+00
CGA:   2    -0.368287761817E+03   -0.14913E+01   -0.14911E+01  6048   0.199E+01 0.167E-01
CGA:   3    -0.368714633972E+03   -0.42687E+00   -0.42678E+00  6048   0.771E+00-0.784E-02
CGA:   4    -0.368842701067E+03   -0.12807E+00   -0.12779E+00  6048   0.163E+00-0.500E-02
CGA:   5    -0.368873553714E+03   -0.30853E-01   -0.30872E-01  6048   0.484E-01 0.579E-03
CGA:   6    -0.368883392248E+03   -0.98385E-02   -0.98664E-02  6048   0.181E-01 0.146E-02
CGA:   7    -0.368888351073E+03   -0.49588E-02   -0.49420E-02  6048   0.854E-02 0.371E-03
CGA:   8    -0.368891010160E+03   -0.26591E-02   -0.27053E-02  6048   0.487E-02-0.531E-03
CGA:   9    -0.368892351707E+03   -0.13415E-02   -0.13507E-02  6048   0.193E-02-0.134E-03
CGA:  10    -0.368892888776E+03   -0.53707E-03   -0.53169E-03  6048   0.698E-03 0.102E-03
CGA:  11    -0.368893109347E+03   -0.22057E-03   -0.21705E-03  6048   0.284E-03 0.566E-04
CGA:  12    -0.368893204848E+03   -0.95501E-04   -0.92055E-04  6048   0.118E-03 0.546E-04
CGA:  13    -0.368893263260E+03   -0.58412E-04   -0.66615E-04  6048   0.925E-04-0.352E-04
CGA:  14    -0.368893281502E+03   -0.18242E-04   -0.33365E-04  6048   0.722E-04-0.577E-04
CGA:  15    -0.368893288993E+03   -0.74910E-05   -0.11310E-04  6048   0.216E-04 0.354E-04
   3 F= -.36889329E+03 E0= -.36889329E+03  d E =-.355438E+00  mag=    20.0000
       N       E                     dE             d eps       ncg     rms          ort
SDA:   1    -0.365279753384E+03    0.36135E+01    0.00000E+00  6048   0.122E+02 0.000E+00
CGA:   2    -0.368070816627E+03   -0.27911E+01   -0.27920E+01  6048   0.358E+01 0.187E-01
CGA:   3    -0.368842861714E+03   -0.77205E+00   -0.77171E+00  6048   0.139E+01-0.104E-01
CGA:   4    -0.369073455818E+03   -0.23059E+00   -0.23030E+00  6048   0.301E+00-0.456E-02
CGA:   5    -0.369130648678E+03   -0.57193E-01   -0.57205E-01  6048   0.899E-01 0.211E-03
CGA:   6    -0.369149510562E+03   -0.18862E-01   -0.18906E-01  6048   0.368E-01 0.134E-02
CGA:   7    -0.369159720089E+03   -0.10210E-01   -0.10195E-01  6048   0.187E-01 0.459E-03
CGA:   8    -0.369165537208E+03   -0.58171E-02   -0.58463E-02  6048   0.103E-01-0.452E-03
CGA:   9    -0.369168468245E+03   -0.29310E-02   -0.29325E-02  6048   0.390E-02-0.330E-04
CGA:  10    -0.369169590563E+03   -0.11223E-02   -0.11158E-02  6048   0.136E-02 0.172E-03
CGA:  11    -0.369170023447E+03   -0.43288E-03   -0.42846E-03  6048   0.545E-03 0.880E-04
CGA:  12    -0.369170212778E+03   -0.18933E-03   -0.18431E-03  6048   0.226E-03 0.778E-04
CGA:  13    -0.369170318100E+03   -0.10532E-03   -0.11258E-03  6048   0.132E-03-0.407E-04
CGA:  14    -0.369170357902E+03   -0.39802E-04   -0.46520E-04  6048   0.617E-04-0.410E-04
CGA:  15    -0.369170361793E+03   -0.38907E-05   -0.63712E-05  6048   0.302E-04 0.200E-04
   4 F= -.36917036E+03 E0= -.36917036E+03  d E =-.277073E+00  mag=    20.0000
       N       E                     dE             d eps       ncg     rms          ort
SDA:   1    -0.366808577490E+03    0.23618E+01    0.00000E+00  6048   0.782E+01 0.000E+00
CGA:   2    -0.368552294387E+03   -0.17437E+01   -0.17443E+01  6048   0.240E+01 0.716E-02
CGA:   3    -0.369053265603E+03   -0.50097E+00   -0.50088E+00  6048   0.953E+00-0.288E-02
CGA:   4    -0.369213944494E+03   -0.16068E+00   -0.16060E+00  6048   0.204E+00-0.155E-02
CGA:   5    -0.369252445296E+03   -0.38501E-01   -0.38471E-01  6048   0.624E-01-0.549E-03
CGA:   6    -0.369265650820E+03   -0.13206E-01   -0.13212E-01  6048   0.259E-01 0.187E-03
CGA:   7    -0.369272756902E+03   -0.71061E-02   -0.71015E-02  6048   0.136E-01 0.168E-03
CGA:   8    -0.369276918224E+03   -0.41613E-02   -0.41668E-02  6048   0.738E-02-0.102E-03
CGA:   9    -0.369279082693E+03   -0.21645E-02   -0.21613E-02  6048   0.285E-02 0.687E-04
CGA:  10    -0.369279923610E+03   -0.84092E-03   -0.83774E-03  6048   0.101E-02 0.844E-04
CGA:  11    -0.369280255155E+03   -0.33154E-03   -0.33352E-03  6048   0.428E-03-0.299E-04
CGA:  12    -0.369280389045E+03   -0.13389E-03   -0.13204E-03  6048   0.165E-03 0.310E-04
CGA:  13    -0.369280449354E+03   -0.60309E-04   -0.59718E-04  6048   0.602E-04 0.769E-05
CGA:  14    -0.369280474303E+03   -0.24949E-04   -0.30095E-04  6048   0.390E-04-0.242E-04
CGA:  15    -0.369280476382E+03   -0.20792E-05   -0.34367E-05  6048   0.205E-04 0.106E-04
   5 F= -.36928048E+03 E0= -.36928048E+03  d E =-.110115E+00  mag=    20.0000
       N       E                     dE             d eps       ncg     rms          ort
SDA:   1    -0.365048159567E+03    0.42323E+01    0.00000E+00  6048   0.121E+02 0.000E+00
CGA:   2    -0.368042234559E+03   -0.29941E+01   -0.29943E+01  6048   0.459E+01 0.536E-02
CGA:   3    -0.368947576186E+03   -0.90534E+00   -0.90526E+00  6048   0.161E+01-0.341E-02
CGA:   4    -0.369211797906E+03   -0.26422E+00   -0.26421E+00  6048   0.321E+00-0.104E-02
CGA:   5    -0.369272016497E+03   -0.60219E-01   -0.60200E-01  6048   0.989E-01-0.464E-03
CGA:   6    -0.369292730022E+03   -0.20714E-01   -0.20714E-01  6048   0.383E-01-0.571E-05
CGA:   7    -0.369302767809E+03   -0.10038E-01   -0.10038E-01  6048   0.186E-01 0.457E-05
CGA:   8    -0.369308324559E+03   -0.55568E-02   -0.55638E-02  6048   0.999E-02-0.149E-03
CGA:   9    -0.369311320531E+03   -0.29960E-02   -0.29926E-02  6048   0.407E-02 0.625E-04
CGA:  10    -0.369312547630E+03   -0.12271E-02   -0.12252E-02  6048   0.152E-02 0.416E-04
CGA:  11    -0.369313051981E+03   -0.50435E-03   -0.51236E-03  6048   0.698E-03-0.104E-03
CGA:  12    -0.369313270193E+03   -0.21821E-03   -0.21715E-03  6048   0.290E-03 0.141E-04
CGA:  13    -0.369313373574E+03   -0.10338E-03   -0.10314E-03  6048   0.110E-03 0.269E-05
CGA:  14    -0.369313414053E+03   -0.40479E-04   -0.41772E-04  6048   0.408E-04-0.118E-04
CGA:  15    -0.369313421581E+03   -0.75281E-05   -0.80970E-05  6048   0.123E-04 0.112E-04
   6 F= -.36931342E+03 E0= -.36931342E+03  d E =-.329452E-01  mag=    20.0000
       N       E                     dE             d eps       ncg     rms          ort
SDA:   1    -0.367670034844E+03    0.16434E+01    0.00000E+00  6048   0.425E+01 0.000E+00
CGA:   2    -0.368925940358E+03   -0.12559E+01   -0.12558E+01  6048   0.185E+01 0.437E-02
CGA:   3    -0.369251028601E+03   -0.32509E+00   -0.32501E+00  6048   0.529E+00-0.205E-02
CGA:   4    -0.369337196243E+03   -0.86168E-01   -0.86071E-01  6048   0.108E+00-0.115E-02
CGA:   5    -0.369357508498E+03   -0.20312E-01   -0.20292E-01  6048   0.335E-01-0.313E-03
CGA:   6    -0.369364255599E+03   -0.67471E-02   -0.67498E-02  6048   0.113E-01 0.352E-04
CGA:   7    -0.369367022459E+03   -0.27669E-02   -0.27679E-02  6048   0.468E-02 0.844E-04
CGA:   8    -0.369368382212E+03   -0.13598E-02   -0.13628E-02  6048   0.234E-02-0.936E-04
CGA:   9    -0.369369080258E+03   -0.69805E-03   -0.70044E-03  6048   0.966E-03-0.505E-04
CGA:  10    -0.369369354176E+03   -0.27392E-03   -0.27297E-03  6048   0.348E-03 0.328E-04
CGA:  11    -0.369369478320E+03   -0.12414E-03   -0.12922E-03  6048   0.191E-03-0.520E-04
CGA:  12    -0.369369537905E+03   -0.59585E-04   -0.62008E-04  6048   0.101E-03-0.211E-04
CGA:  13    -0.369369565801E+03   -0.27896E-04   -0.27541E-04  6048   0.381E-04 0.104E-04
CGA:  14    -0.369369581598E+03   -0.15797E-04   -0.16799E-04  6048   0.205E-04-0.798E-05
CGA:  15    -0.369369586128E+03   -0.45307E-05   -0.45312E-05  6048   0.709E-05 0.914E-06
   7 F= -.36936959E+03 E0= -.36936959E+03  d E =-.561645E-01  mag=    20.0000
       N       E                     dE             d eps       ncg     rms          ort
SDA:   1    -0.367875002591E+03    0.14946E+01    0.00000E+00  6048   0.372E+01 0.000E+00
CGA:   2    -0.369048028750E+03   -0.11730E+01   -0.11727E+01  6048   0.149E+01 0.786E-02
CGA:   3    -0.369303362364E+03   -0.25533E+00   -0.25517E+00  6048   0.403E+00-0.259E-02
CGA:   4    -0.369369459834E+03   -0.66097E-01   -0.65923E-01  6048   0.856E-01-0.169E-02
CGA:   5    -0.369385675589E+03   -0.16216E-01   -0.16187E-01  6048   0.255E-01-0.368E-03
CGA:   6    -0.369390576294E+03   -0.49007E-02   -0.49056E-02  6048   0.767E-02 0.545E-04
CGA:   7    -0.369392397287E+03   -0.18210E-02   -0.18242E-02  6048   0.295E-02 0.109E-03
CGA:   8    -0.369393233927E+03   -0.83664E-03   -0.83664E-03  6048   0.140E-02-0.345E-06
CGA:   9    -0.369393660649E+03   -0.42672E-03   -0.42756E-03  6048   0.572E-03-0.204E-04
CGA:  10    -0.369393823371E+03   -0.16272E-03   -0.16247E-03  6048   0.195E-03 0.113E-04
CGA:  11    -0.369393890240E+03   -0.66869E-04   -0.69553E-04  6048   0.994E-04-0.331E-04
CGA:  12    -0.369393918995E+03   -0.28755E-04   -0.29239E-04  6048   0.476E-04-0.590E-05
CGA:  13    -0.369393930722E+03   -0.11727E-04   -0.11867E-04  6048   0.194E-04 0.126E-04
CGA:  14    -0.369393936505E+03   -0.57822E-05   -0.60175E-05  6048   0.839E-05 0.774E-05
   8 F= -.36939394E+03 E0= -.36939394E+03  d E =-.243504E-01  mag=    20.0000
       N       E                     dE             d eps       ncg     rms          ort
SDA:   1    -0.366124873979E+03    0.32691E+01    0.00000E+00  6048   0.794E+01 0.000E+00
CGA:   2    -0.368721956528E+03   -0.25971E+01   -0.25965E+01  6048   0.308E+01 0.944E-02
CGA:   3    -0.369249772678E+03   -0.52782E+00   -0.52768E+00  6048   0.795E+00-0.398E-02
CGA:   4    -0.369377922834E+03   -0.12815E+00   -0.12791E+00  6048   0.163E+00-0.260E-02
CGA:   5    -0.369408957363E+03   -0.31035E-01   -0.31005E-01  6048   0.484E-01-0.451E-03
CGA:   6    -0.369418246328E+03   -0.92890E-02   -0.93035E-02  6048   0.141E-01 0.193E-03
CGA:   7    -0.369421549077E+03   -0.33027E-02   -0.33073E-02  6048   0.548E-02 0.192E-03
CGA:   8    -0.369423140355E+03   -0.15913E-02   -0.15917E-02  6048   0.274E-02-0.151E-04
CGA:   9    -0.369423993002E+03   -0.85265E-03   -0.85490E-03  6048   0.119E-02-0.415E-04
CGA:  10    -0.369424332867E+03   -0.33986E-03   -0.33898E-03  6048   0.402E-03 0.292E-04
CGA:  11    -0.369424465221E+03   -0.13235E-03   -0.13439E-03  6048   0.179E-03-0.319E-04
CGA:  12    -0.369424525633E+03   -0.60411E-04   -0.61453E-04  6048   0.954E-04-0.978E-05
CGA:  13    -0.369424555268E+03   -0.29636E-04   -0.28812E-04  6048   0.411E-04 0.169E-04
CGA:  14    -0.369424570912E+03   -0.15644E-04   -0.15258E-04  6048   0.169E-04 0.902E-05
CGA:  15    -0.369424577008E+03   -0.60955E-05   -0.60188E-05  6048   0.579E-05 0.464E-05
   9 F= -.36942458E+03 E0= -.36942458E+03  d E =-.306405E-01  mag=    20.0000
       N       E                     dE             d eps       ncg     rms          ort
SDA:   1    -0.362619917331E+03    0.68047E+01    0.00000E+00  6048   0.163E+02 0.000E+00
CGA:   2    -0.367998564302E+03   -0.53786E+01   -0.53778E+01  6048   0.624E+01 0.113E-01
CGA:   3    -0.369067487848E+03   -0.10689E+01   -0.10692E+01  6048   0.160E+01-0.360E-02
CGA:   4    -0.369323696966E+03   -0.25621E+00   -0.25601E+00  6048   0.334E+00-0.253E-02
CGA:   5    -0.369388564106E+03   -0.64867E-01   -0.64848E-01  6048   0.103E+00-0.366E-03
CGA:   6    -0.369408482841E+03   -0.19919E-01   -0.19935E-01  6048   0.310E-01 0.168E-03
CGA:   7    -0.369415914700E+03   -0.74319E-02   -0.74372E-02  6048   0.125E-01 0.218E-03
CGA:   8    -0.369419452011E+03   -0.35373E-02   -0.35367E-02  6048   0.595E-02 0.256E-04
CGA:   9    -0.369421261310E+03   -0.18093E-02   -0.18112E-02  6048   0.238E-02-0.478E-04
CGA:  10    -0.369421955727E+03   -0.69442E-03   -0.69450E-03  6048   0.809E-03-0.375E-05
CGA:  11    -0.369422211733E+03   -0.25601E-03   -0.25960E-03  6048   0.346E-03-0.656E-04
CGA:  12    -0.369422331621E+03   -0.11989E-03   -0.12425E-03  6048   0.198E-03-0.361E-04
CGA:  13    -0.369422398197E+03   -0.66575E-04   -0.65612E-04  6048   0.931E-04 0.996E-05
CGA:  14    -0.369422432637E+03   -0.34440E-04   -0.33756E-04  6048   0.355E-04 0.104E-04
CGA:  15    -0.369422446562E+03   -0.13926E-04   -0.13825E-04  6048   0.123E-04 0.148E-05
CGA:  16    -0.369422451895E+03   -0.53327E-05   -0.71668E-05  6048   0.104E-04-0.678E-05
  10 F= -.36942245E+03 E0= -.36942245E+03  d E =0.212511E-02  mag=    20.0000
       N       E                     dE             d eps       ncg     rms          ort
SDA:   1    -0.368813107366E+03    0.60934E+00    0.00000E+00  6048   0.157E+01 0.000E+00
CGA:   2    -0.369296428056E+03   -0.48332E+00   -0.48328E+00  6048   0.693E+00 0.257E-02
CGA:   3    -0.369412731271E+03   -0.11630E+00   -0.11642E+00  6048   0.192E+00 0.473E-03
CGA:   4    -0.369445610369E+03   -0.32879E-01   -0.32843E-01  6048   0.427E-01-0.367E-03
CGA:   5    -0.369453715012E+03   -0.81046E-02   -0.80824E-02  6048   0.133E-01-0.257E-03
CGA:   6    -0.369456389113E+03   -0.26741E-02   -0.26665E-02  6048   0.447E-02-0.104E-03
CGA:   7    -0.369457463564E+03   -0.10745E-02   -0.10765E-02  6048   0.176E-02 0.645E-04
CGA:   8    -0.369457908856E+03   -0.44529E-03   -0.44765E-03  6048   0.688E-03 0.108E-03
CGA:   9    -0.369458124658E+03   -0.21580E-03   -0.21527E-03  6048   0.258E-03 0.223E-04
CGA:  10    -0.369458212327E+03   -0.87669E-04   -0.90969E-04  6048   0.129E-03-0.477E-04
CGA:  11    -0.369458240471E+03   -0.28143E-04   -0.28099E-04  6048   0.418E-04-0.480E-05
CGA:  12    -0.369458250490E+03   -0.10019E-04   -0.10166E-04  6048   0.160E-04 0.646E-05
CGA:  13    -0.369458256894E+03   -0.64042E-05   -0.64549E-05  6048   0.105E-04-0.682E-06
  11 F= -.36945826E+03 E0= -.36945826E+03  d E =-.358050E-01  mag=    20.0000
       N       E                     dE             d eps       ncg     rms          ort
SDA:   1    -0.369361901673E+03    0.96349E-01    0.00000E+00  6048   0.259E+00 0.000E+00
CGA:   2    -0.369438779121E+03   -0.76877E-01   -0.76896E-01  6048   0.120E+00-0.101E-02
CGA:   3    -0.369458127941E+03   -0.19349E-01   -0.19459E-01  6048   0.316E-01 0.891E-03
CGA:   4    -0.369463517888E+03   -0.53899E-02   -0.54324E-02  6048   0.703E-02 0.413E-03
CGA:   5    -0.369464836303E+03   -0.13184E-02   -0.13148E-02  6048   0.207E-02-0.472E-04
CGA:   6    -0.369465266536E+03   -0.43023E-03   -0.42522E-03  6048   0.706E-03-0.920E-04
CGA:   7    -0.369465421520E+03   -0.15498E-03   -0.15533E-03  6048   0.259E-03 0.118E-04
CGA:   8    -0.369465476573E+03   -0.55054E-04   -0.57114E-04  6048   0.888E-04 0.510E-04
CGA:   9    -0.369465505258E+03   -0.28684E-04   -0.28463E-04  6048   0.387E-04 0.177E-04
CGA:  10    -0.369465521604E+03   -0.16347E-04   -0.22180E-04  6048   0.555E-04-0.263E-04
CGA:  11    -0.369465528774E+03   -0.71697E-05   -0.83335E-05  6048   0.703E-05 0.994E-05
  12 F= -.36946553E+03 E0= -.36946553E+03  d E =-.727188E-02  mag=    20.0000
       N       E                     dE             d eps       ncg     rms          ort
SDA:   1    -0.369096034929E+03    0.36949E+00    0.00000E+00  6048   0.933E+00 0.000E+00
CGA:   2    -0.369373823767E+03   -0.27779E+00   -0.27772E+00  6048   0.483E+00 0.139E-02
CGA:   3    -0.369448618227E+03   -0.74794E-01   -0.74950E-01  6048   0.107E+00 0.117E-02
CGA:   4    -0.369467016250E+03   -0.18398E-01   -0.18402E-01  6048   0.238E-01 0.114E-04
CGA:   5    -0.369471317428E+03   -0.43012E-02   -0.42815E-02  6048   0.660E-02-0.280E-03
CGA:   6    -0.369472625643E+03   -0.13082E-02   -0.12993E-02  6048   0.196E-02-0.180E-03
CGA:   7    -0.369473036259E+03   -0.41062E-03   -0.41254E-03  6048   0.648E-03 0.618E-04
CGA:   8    -0.369473184320E+03   -0.14806E-03   -0.15044E-03  6048   0.232E-03 0.118E-03
CGA:   9    -0.369473262116E+03   -0.77796E-04   -0.76311E-04  6048   0.105E-03 0.431E-04
CGA:  10    -0.369473306533E+03   -0.44417E-04   -0.48920E-04  6048   0.830E-04-0.307E-04
CGA:  11    -0.369473319439E+03   -0.12905E-04   -0.12869E-04  6048   0.321E-04-0.109E-05
CGA:  12    -0.369473325125E+03   -0.56863E-05   -0.59625E-05  6048   0.139E-04 0.434E-05
  13 F= -.36947333E+03 E0= -.36947333E+03  d E =-.779635E-02  mag=    20.0000
       N       E                     dE             d eps       ncg     rms          ort
SDA:   1    -0.365332436689E+03    0.41409E+01    0.00000E+00  6048   0.102E+02 0.000E+00
CGA:   2    -0.368384457513E+03   -0.30520E+01   -0.30516E+01  6048   0.538E+01 0.462E-02
CGA:   3    -0.369214037285E+03   -0.82958E+00   -0.83043E+00  6048   0.116E+01 0.651E-02
CGA:   4    -0.369411705825E+03   -0.19767E+00   -0.19769E+00  6048   0.261E+00-0.177E-03
CGA:   5    -0.369458308618E+03   -0.46603E-01   -0.46573E-01  6048   0.731E-01-0.577E-03
CGA:   6    -0.369472600851E+03   -0.14292E-01   -0.14286E-01  6048   0.213E-01-0.166E-03
CGA:   7    -0.369477377276E+03   -0.47764E-02   -0.47803E-02  6048   0.755E-02 0.238E-03
CGA:   8    -0.369479375568E+03   -0.19983E-02   -0.19910E-02  6048   0.315E-02 0.352E-03
CGA:   9    -0.369480391123E+03   -0.10156E-02   -0.10093E-02  6048   0.134E-02 0.951E-04
CGA:  10    -0.369480825715E+03   -0.43459E-03   -0.44292E-03  6048   0.558E-03-0.108E-03
CGA:  11    -0.369480966952E+03   -0.14124E-03   -0.14134E-03  6048   0.175E-03-0.383E-05
CGA:  12    -0.369481024415E+03   -0.57463E-04   -0.58393E-04  6048   0.786E-04-0.108E-04
CGA:  13    -0.369481055243E+03   -0.30828E-04   -0.38117E-04  6048   0.735E-04-0.278E-04
CGA:  14    -0.369481067761E+03   -0.12518E-04   -0.12541E-04  6048   0.352E-04 0.739E-05
CGA:  15    -0.369481077495E+03   -0.97342E-05   -0.97582E-05  6048   0.131E-04 0.159E-05
CGA:  16    -0.369481004904E+03    0.72591E-04   -0.39092E-04  6048   0.270E-03-0.659E-04
CGA:  17    -0.369481058565E+03   -0.53660E-04   -0.65552E-04  6048   0.345E-04 0.490E-04
CGA:  18    -0.369481014823E+03    0.43741E-04   -0.54782E-04  6048   0.318E-03-0.113E-03
CGA:  19    -0.369481042141E+03   -0.27318E-04   -0.64077E-04  6048   0.638E-04 0.116E-03
CGA:  20    -0.369481076404E+03   -0.34263E-04   -0.31660E-04  6048   0.137E-04-0.189E-04
CGA:  21    -0.369481094716E+03   -0.18311E-04    0.25646E-05  6048   0.111E-04-0.744E-05
CGA:  22    -0.369481091622E+03    0.30939E-05   -0.64580E-06  6048   0.641E-05 0.858E-05
  14 F= -.36948109E+03 E0= -.36948109E+03  d E =-.776650E-02  mag=    20.0000
       N       E                     dE             d eps       ncg     rms          ort
SDA:   1    -0.346293189157E+03    0.23188E+02    0.00000E+00  6048   0.512E+02 0.000E+00
CGA:   2    -0.362341129145E+03   -0.16048E+02   -0.16092E+02  6048   0.168E+02 0.301E-02
CGA:   3    -0.365967395655E+03   -0.36263E+01   -0.36413E+01  6048   0.534E+01 0.375E-01
CGA:   4    -0.366837769257E+03   -0.87037E+00   -0.87363E+00  6048   0.151E+01 0.964E-02
CGA:   5    -0.367151101768E+03   -0.31333E+00   -0.31358E+00  6048   0.477E+00 0.220E-02
CGA:   6    -0.367253374575E+03   -0.10227E+00   -0.10240E+00  6048   0.209E+00 0.384E-03
CGA:   7    -0.367305184067E+03   -0.51809E-01   -0.51738E-01  6048   0.791E-01-0.704E-03
CGA:   8    -0.367325885647E+03   -0.20702E-01   -0.20672E-01  6048   0.328E-01-0.258E-03
CGA:   9    -0.367334424103E+03   -0.85385E-02   -0.85978E-02  6048   0.101E-01 0.487E-03
CGA:  10    -0.367337341168E+03   -0.29171E-02   -0.29178E-02  6048   0.331E-02 0.579E-05
CGA:  11    -0.367338323485E+03   -0.98232E-03   -0.97013E-03  6048   0.118E-02-0.150E-03
CGA:  12    -0.367338662809E+03   -0.33932E-03   -0.33950E-03  6048   0.434E-03 0.213E-05
CGA:  13    -0.367338850326E+03   -0.18752E-03   -0.19829E-03  6048   0.314E-03-0.122E-03
CGA:  14    -0.367338901226E+03   -0.50899E-04   -0.56904E-04  6048   0.138E-03 0.501E-04
CGA:  15    -0.367338936094E+03   -0.34869E-04   -0.37761E-04  6048   0.530E-04 0.223E-04
CGA:  16    -0.367338958558E+03   -0.22464E-04   -0.41114E-04  6048   0.116E-03-0.604E-04
CGA:  17    -0.367338960285E+03   -0.17262E-05   -0.15633E-04  6048   0.319E-04 0.580E-04
CGA:  18    -0.367338970751E+03   -0.10467E-04   -0.10535E-04  6048   0.351E-05 0.211E-05
CGA:  19    -0.367338978825E+03   -0.80740E-05    0.33982E-06  6048   0.137E-05 0.955E-06
  15 F= -.36733898E+03 E0= -.36733898E+03  d E =0.214211E+01  mag=    20.0000
       N       E                     dE             d eps       ncg     rms          ort
SDA:   1    -0.364070213783E+03    0.32688E+01    0.00000E+00  6048   0.116E+02 0.000E+00
CGA:   2    -0.367822207659E+03   -0.37520E+01   -0.37507E+01  6048   0.360E+01-0.345E-01
CGA:   3    -0.368690725869E+03   -0.86852E+00   -0.86970E+00  6048   0.807E+00 0.108E-03
CGA:   4    -0.368846477883E+03   -0.15575E+00   -0.15587E+00  6048   0.298E+00 0.322E-03
CGA:   5    -0.368902157958E+03   -0.55680E-01   -0.55738E-01  6048   0.830E-01 0.510E-03
CGA:   6    -0.368922496097E+03   -0.20338E-01   -0.20360E-01  6048   0.407E-01 0.260E-03
CGA:   7    -0.368931930570E+03   -0.94345E-02   -0.94307E-02  6048   0.150E-01-0.627E-04
CGA:   8    -0.368936090711E+03   -0.41601E-02   -0.41525E-02  6048   0.608E-02-0.195E-03
CGA:   9    -0.368937620941E+03   -0.15302E-02   -0.15371E-02  6048   0.185E-02 0.117E-03
CGA:  10    -0.368938146885E+03   -0.52594E-03   -0.52566E-03  6048   0.562E-03-0.898E-05
CGA:  11    -0.368938322819E+03   -0.17593E-03   -0.17616E-03  6048   0.216E-03-0.460E-04
CGA:  12    -0.368938355889E+03   -0.33069E-04   -0.40256E-04  6048   0.756E-04 0.670E-04
CGA:  13    -0.368938377362E+03   -0.21474E-04   -0.22997E-04  6048   0.364E-04 0.209E-04
CGA:  14    -0.368938411427E+03   -0.34064E-04    0.31978E-04  6048   0.217E-04 0.763E-05
CGA:  15    -0.368938421546E+03   -0.10119E-04   -0.10469E-04  6048   0.171E-04-0.365E-05
CGA:  16    -0.368938421493E+03    0.53016E-07   -0.15784E-05  6048   0.114E-04 0.835E-05
  16 F= -.36893842E+03 E0= -.36893842E+03  d E =-.159944E+01  mag=    20.0000
       N       E                     dE             d eps       ncg     rms          ort
SDA:   1    -0.367646504999E+03    0.12919E+01    0.00000E+00  6048   0.413E+01 0.000E+00
CGA:   2    -0.368979459460E+03   -0.13330E+01   -0.13328E+01  6048   0.131E+01 0.141E-02
CGA:   3    -0.369292392878E+03   -0.31293E+00   -0.31301E+00  6048   0.318E+00 0.548E-03
CGA:   4    -0.369350756228E+03   -0.58363E-01   -0.58375E-01  6048   0.112E+00-0.831E-04
CGA:   5    -0.369372189534E+03   -0.21433E-01   -0.21438E-01  6048   0.311E-01 0.234E-04
CGA:   6    -0.369379680309E+03   -0.74908E-02   -0.74964E-02  6048   0.154E-01 0.149E-03
CGA:   7    -0.369383219071E+03   -0.35388E-02   -0.35407E-02  6048   0.555E-02 0.378E-04
CGA:   8    -0.369384774980E+03   -0.15559E-02   -0.15564E-02  6048   0.229E-02-0.674E-04
CGA:   9    -0.369385350512E+03   -0.57553E-03   -0.57637E-03  6048   0.695E-03 0.450E-04
CGA:  10    -0.369385553180E+03   -0.20267E-03   -0.20283E-03  6048   0.216E-03-0.114E-04
CGA:  11    -0.369385621778E+03   -0.68598E-04   -0.70572E-04  6048   0.925E-04-0.332E-04
CGA:  12    -0.369385633151E+03   -0.11373E-04   -0.14188E-04  6048   0.340E-04 0.297E-04
CGA:  13    -0.369385639534E+03   -0.63826E-05   -0.78011E-05  6048   0.149E-04 0.146E-04
CGA:  14    -0.369385650976E+03   -0.11443E-04    0.28064E-03  6048   0.100E-04 0.348E-05
CGA:  15    -0.369385658072E+03   -0.70957E-05    0.20657E-04  6048   0.648E-05 0.185E-05
  17 F= -.36938566E+03 E0= -.36938566E+03  d E =-.447237E+00  mag=    20.0000
       N       E                     dE             d eps       ncg     rms          ort
SDA:   1    -0.368577374833E+03    0.80828E+00    0.00000E+00  6048   0.218E+01 0.000E+00
CGA:   2    -0.369274561627E+03   -0.69719E+00   -0.69668E+00  6048   0.699E+00 0.613E-02
CGA:   3    -0.369443740509E+03   -0.16918E+00   -0.16921E+00  6048   0.170E+00 0.108E-02
CGA:   4    -0.369474975236E+03   -0.31235E-01   -0.31215E-01  6048   0.591E-01-0.343E-03
CGA:   5    -0.369486340719E+03   -0.11365E-01   -0.11345E-01  6048   0.163E-01-0.339E-03
CGA:   6    -0.369490330955E+03   -0.39902E-02   -0.39901E-02  6048   0.788E-02-0.286E-04
CGA:   7    -0.369492122458E+03   -0.17915E-02   -0.17936E-02  6048   0.286E-02 0.806E-04
CGA:   8    -0.369492905500E+03   -0.78304E-03   -0.78201E-03  6048   0.113E-02 0.534E-04
CGA:   9    -0.369493210894E+03   -0.30539E-03   -0.30554E-03  6048   0.372E-03-0.113E-04
CGA:  10    -0.369493323308E+03   -0.11241E-03   -0.11510E-03  6048   0.127E-03-0.453E-04
CGA:  11    -0.369493357731E+03   -0.34423E-04   -0.35583E-04  6048   0.464E-04-0.184E-04
CGA:  12    -0.369493365822E+03   -0.80908E-05   -0.85571E-05  6048   0.151E-04 0.106E-04
  18 F= -.36949337E+03 E0= -.36949337E+03  d E =-.107708E+00  mag=    20.0000
       N       E                     dE             d eps       ncg     rms          ort
SDA:   1    -0.369465231326E+03    0.28126E-01    0.00000E+00  6048   0.915E-01 0.000E+00
CGA:   2    -0.369494355336E+03   -0.29124E-01   -0.29075E-01  6048   0.280E-01 0.778E-03
CGA:   3    -0.369501081778E+03   -0.67264E-02   -0.67327E-02  6048   0.810E-02 0.276E-03
CGA:   4    -0.369502429752E+03   -0.13480E-02   -0.13394E-02  6048   0.248E-02-0.942E-04
CGA:   5    -0.369502960364E+03   -0.53061E-03   -0.51924E-03  6048   0.921E-03-0.266E-03
CGA:   6    -0.369503155743E+03   -0.19538E-03   -0.19271E-03  6048   0.469E-03-0.149E-03
CGA:   7    -0.369503232533E+03   -0.76789E-04   -0.78432E-04  6048   0.127E-03 0.316E-04
CGA:   8    -0.369503248529E+03   -0.15996E-04   -0.21042E-04  6048   0.496E-04 0.542E-04
CGA:   9    -0.369503257215E+03   -0.86863E-05   -0.11029E-04  6048   0.197E-04 0.266E-04
CGA:  10    -0.369503268871E+03   -0.11656E-04    0.10161E-04  6048   0.844E-05 0.639E-05
CGA:  11    -0.369503274083E+03   -0.52115E-05   -0.71978E-05  6048   0.833E-05-0.491E-05
  19 F= -.36950327E+03 E0= -.36950327E+03  d E =-.990826E-02  mag=    20.0000
       N       E                     dE             d eps       ncg     rms          ort
SDA:   1    -0.369435967315E+03    0.67302E-01    0.00000E+00  6048   0.175E+00 0.000E+00
CGA:   2    -0.369491490407E+03   -0.55523E-01   -0.55440E-01  6048   0.551E-01 0.139E-02
CGA:   3    -0.369504196169E+03   -0.12706E-01   -0.12716E-01  6048   0.179E-01 0.278E-03
CGA:   4    -0.369507070662E+03   -0.28745E-02   -0.28648E-02  6048   0.467E-02-0.106E-03
CGA:   5    -0.369508078676E+03   -0.10080E-02   -0.99280E-03  6048   0.176E-02-0.365E-03
CGA:   6    -0.369508448391E+03   -0.36972E-03   -0.36265E-03  6048   0.872E-03-0.231E-03
CGA:   7    -0.369508610424E+03   -0.16203E-03   -0.16259E-03  6048   0.261E-03 0.146E-04
CGA:   8    -0.369508649862E+03   -0.39438E-04   -0.46237E-04  6048   0.893E-04 0.889E-04
CGA:   9    -0.369508668187E+03   -0.18324E-04   -0.21057E-04  6048   0.348E-04 0.386E-04
CGA:  10    -0.369508684726E+03   -0.16539E-04   -0.18935E-04  6048   0.330E-04-0.175E-04
CGA:  11    -0.369508691915E+03   -0.71890E-05   -0.71531E-05  6048   0.498E-05-0.109E-05
  20 F= -.36950869E+03 E0= -.36950869E+03  d E =-.541783E-02  mag=    20.0000
       N       E                     dE             d eps       ncg     rms          ort
SDA:   1    -0.369506864811E+03    0.18199E-02    0.00000E+00  6048   0.605E-02 0.000E+00
CGA:   2    -0.369508603773E+03   -0.17390E-02   -0.17287E-02  6048   0.233E-02 0.271E-03
CGA:   3    -0.369509043888E+03   -0.44011E-03   -0.44165E-03  6048   0.780E-03 0.209E-04
CGA:   4    -0.369509189684E+03   -0.14580E-03   -0.14265E-03  6048   0.195E-03-0.484E-04
CGA:   5    -0.369509235711E+03   -0.46026E-04   -0.47456E-04  6048   0.156E-03-0.930E-04
CGA:   6    -0.369509255595E+03   -0.19885E-04   -0.19506E-04  6048   0.866E-04-0.606E-04
CGA:   7    -0.369509260686E+03   -0.50910E-05   -0.68594E-05  6048   0.369E-04 0.154E-04
  21 F= -.36950926E+03 E0= -.36950926E+03  d E =-.568772E-03  mag=    20.0000
       N       E                     dE             d eps       ncg     rms          ort
SDA:   1    -0.368930361333E+03    0.57889E+00    0.00000E+00  6048   0.144E+01 0.000E+00
CGA:   2    -0.369342432445E+03   -0.41207E+00   -0.41177E+00  6048   0.753E+00 0.477E-02
CGA:   3    -0.369463999600E+03   -0.12157E+00   -0.12161E+00  6048   0.186E+00 0.119E-03
CGA:   4    -0.369496531031E+03   -0.32531E-01   -0.32479E-01  6048   0.433E-01-0.101E-02
CGA:   5    -0.369504225599E+03   -0.76946E-02   -0.76525E-02  6048   0.124E-01-0.874E-03
CGA:   6    -0.369506744733E+03   -0.25191E-02   -0.25115E-02  6048   0.421E-02-0.449E-03
CGA:   7    -0.369507642278E+03   -0.89754E-03   -0.89780E-03  6048   0.145E-02 0.100E-03
CGA:   8    -0.369507999051E+03   -0.35677E-03   -0.35401E-03  6048   0.525E-03 0.178E-03
CGA:   9    -0.369508185377E+03   -0.18633E-03   -0.18802E-03  6048   0.253E-03-0.180E-04
CGA:  10    -0.369508263580E+03   -0.78203E-04   -0.92038E-04  6048   0.169E-03-0.937E-04
CGA:  11    -0.369508291643E+03   -0.28063E-04   -0.29514E-04  6048   0.652E-04-0.356E-04
CGA:  12    -0.369508305976E+03   -0.14333E-04   -0.14527E-04  6048   0.303E-04-0.445E-05
CGA:  13    -0.369508310645E+03   -0.46695E-05   -0.52530E-05  6048   0.147E-04 0.107E-04
  22 F= -.36950831E+03 E0= -.36950831E+03  d E =0.950041E-03  mag=    20.0000
       N       E                     dE             d eps       ncg     rms          ort
SDA:   1    -0.369429488560E+03    0.78817E-01    0.00000E+00  6048   0.207E+00 0.000E+00
CGA:   2    -0.369492093846E+03   -0.62605E-01   -0.62693E-01  6048   0.766E-01-0.126E-02
CGA:   3    -0.369506325109E+03   -0.14231E-01   -0.14210E-01  6048   0.285E-01-0.481E-03
CGA:   4    -0.369511170860E+03   -0.48458E-02   -0.48545E-02  6048   0.573E-02 0.130E-03
CGA:   5    -0.369512124946E+03   -0.95409E-03   -0.98522E-03  6048   0.160E-02 0.521E-03
CGA:   6    -0.369512434645E+03   -0.30970E-03   -0.32473E-03  6048   0.543E-03 0.356E-03
CGA:   7    -0.369512612763E+03   -0.17812E-03   -0.17677E-03  6048   0.284E-03 0.328E-04
CGA:   8    -0.369512703953E+03   -0.91190E-04   -0.13187E-03  6048   0.369E-03-0.193E-03
CGA:   9    -0.369512745386E+03   -0.41433E-04   -0.49661E-04  6048   0.520E-04 0.793E-04
CGA:  10    -0.369512750767E+03   -0.53811E-05   -0.84626E-05  6048   0.216E-04 0.311E-04
  23 F= -.36951275E+03 E0= -.36951275E+03  d E =-.444012E-02  mag=    20.0000
       N       E                     dE             d eps       ncg     rms          ort
SDA:   1    -0.369501035785E+03    0.11710E-01    0.00000E+00  6048   0.309E-01 0.000E+00
CGA:   2    -0.369510516503E+03   -0.94807E-02   -0.94743E-02  6048   0.127E-01 0.805E-04
CGA:   3    -0.369512789349E+03   -0.22728E-02   -0.22529E-02  6048   0.408E-02-0.345E-03
CGA:   4    -0.369513460741E+03   -0.67139E-03   -0.66853E-03  6048   0.839E-03-0.454E-04
CGA:   5    -0.369513569901E+03   -0.10916E-03   -0.12148E-03  6048   0.203E-03 0.147E-03
CGA:   6    -0.369513593270E+03   -0.23369E-04   -0.32201E-04  6048   0.739E-04 0.975E-04
CGA:   7    -0.369513606544E+03   -0.13274E-04   -0.16275E-04  6048   0.349E-04 0.412E-04
CGA:   8    -0.369513626717E+03   -0.20173E-04    0.11649E-04  6048   0.186E-04 0.117E-04
CGA:   9    -0.369513600630E+03    0.26087E-04   -0.16519E-04  6048   0.184E-03-0.526E-04
CGA:  10    -0.369513623117E+03   -0.22486E-04   -0.29487E-04  6048   0.381E-04 0.295E-04
CGA:  11    -0.369513624249E+03   -0.11327E-05   -0.66095E-05  6048   0.156E-04 0.232E-04
  24 F= -.36951362E+03 E0= -.36951362E+03  d E =-.873482E-03  mag=    20.0000
       N       E                     dE             d eps       ncg     rms          ort
SDA:   1    -0.369333337813E+03    0.18029E+00    0.00000E+00  6048   0.452E+00 0.000E+00
CGA:   2    -0.369466340500E+03   -0.13300E+00   -0.13307E+00  6048   0.236E+00 0.711E-03
CGA:   3    -0.369503892877E+03   -0.37552E-01   -0.37490E-01  6048   0.540E-01-0.458E-03
CGA:   4    -0.369513069719E+03   -0.91768E-02   -0.91344E-02  6048   0.117E-01-0.243E-03
CGA:   5    -0.369515109665E+03   -0.20399E-02   -0.20550E-02  6048   0.312E-02 0.849E-04
CGA:   6    -0.369515706143E+03   -0.59648E-03   -0.61239E-03  6048   0.892E-03 0.110E-03
CGA:   7    -0.369515922005E+03   -0.21586E-03   -0.21542E-03  6048   0.338E-03-0.484E-05
CGA:   8    -0.369516030622E+03   -0.10862E-03   -0.10844E-03  6048   0.213E-03-0.629E-04
CGA:   9    -0.369516072401E+03   -0.41779E-04   -0.42547E-04  6048   0.725E-04 0.951E-05
CGA:  10    -0.369516082074E+03   -0.96736E-05   -0.13410E-04  6048   0.252E-04 0.259E-04
  25 F= -.36951608E+03 E0= -.36951608E+03  d E =-.245782E-02  mag=    20.0000
       N       E                     dE             d eps       ncg     rms          ort
SDA:   1    -0.367123128139E+03    0.23929E+01    0.00000E+00  6048   0.600E+01 0.000E+00
CGA:   2    -0.368849236841E+03   -0.17261E+01   -0.17262E+01  6048   0.321E+01 0.208E-02
CGA:   3    -0.369354111445E+03   -0.50487E+00   -0.50512E+00  6048   0.734E+00-0.106E-03
CGA:   4    -0.369477387963E+03   -0.12328E+00   -0.12323E+00  6048   0.161E+00-0.437E-03
CGA:   5    -0.369505658934E+03   -0.28271E-01   -0.28297E-01  6048   0.442E-01 0.175E-03
CGA:   6    -0.369514376399E+03   -0.87175E-02   -0.87385E-02  6048   0.130E-01 0.222E-03
CGA:   7    -0.369517307400E+03   -0.29310E-02   -0.29308E-02  6048   0.459E-02-0.839E-05
CGA:   8    -0.369518562088E+03   -0.12547E-02   -0.12541E-02  6048   0.207E-02-0.936E-04
CGA:   9    -0.369519163928E+03   -0.60184E-03   -0.60186E-03  6048   0.811E-03-0.175E-05
CGA:  10    -0.369519382442E+03   -0.21851E-03   -0.21903E-03  6048   0.252E-03 0.557E-04
CGA:  11    -0.369519463441E+03   -0.80999E-04   -0.81051E-04  6048   0.911E-04-0.249E-05
CGA:  12    -0.369519497782E+03   -0.34341E-04   -0.37272E-04  6048   0.614E-04-0.221E-04
CGA:  13    -0.369519512701E+03   -0.14920E-04   -0.14827E-04  6048   0.282E-04 0.290E-05
CGA:  14    -0.369519523473E+03   -0.10772E-04   -0.10934E-04  6048   0.158E-04-0.201E-05
CGA:  15    -0.369519529121E+03   -0.56483E-05   -0.69398E-05  6048   0.117E-04-0.716E-05
  26 F= -.36951953E+03 E0= -.36951953E+03  d E =-.344705E-02  mag=    20.0000
       N       E                     dE             d eps       ncg     rms          ort
SDA:   1    -0.362023812743E+03    0.74957E+01    0.00000E+00  6048   0.184E+02 0.000E+00
CGA:   2    -0.367514919158E+03   -0.54911E+01   -0.54911E+01  6048   0.977E+01 0.530E-02
CGA:   3    -0.369029083526E+03   -0.15142E+01   -0.15156E+01  6048   0.218E+01 0.765E-02
CGA:   4    -0.369393451806E+03   -0.36437E+00   -0.36432E+00  6048   0.477E+00-0.537E-03
CGA:   5    -0.369477528450E+03   -0.84077E-01   -0.84129E-01  6048   0.133E+00 0.327E-03
CGA:   6    -0.369503852410E+03   -0.26324E-01   -0.26360E-01  6048   0.394E-01 0.399E-03
CGA:   7    -0.369512729157E+03   -0.88767E-02   -0.88749E-02  6048   0.140E-01-0.534E-04
CGA:   8    -0.369516558898E+03   -0.38297E-02   -0.38299E-02  6048   0.632E-02-0.112E-03
CGA:   9    -0.369518419622E+03   -0.18607E-02   -0.18596E-02  6048   0.248E-02 0.458E-04
CGA:  10    -0.369519136084E+03   -0.71646E-03   -0.71566E-03  6048   0.820E-03 0.589E-04
CGA:  11    -0.369519390653E+03   -0.25457E-03   -0.25567E-03  6048   0.298E-03-0.364E-04
CGA:  12    -0.369519492566E+03   -0.10191E-03   -0.10558E-03  6048   0.157E-03-0.386E-04
CGA:  13    -0.369519540437E+03   -0.47872E-04   -0.47183E-04  6048   0.705E-04 0.106E-04
CGA:  14    -0.369519568044E+03   -0.27607E-04   -0.27036E-04  6048   0.322E-04 0.750E-05
CGA:  15    -0.369519582522E+03   -0.14478E-04   -0.15133E-04  6048   0.171E-04-0.478E-05
CGA:  16    -0.369519587640E+03   -0.51178E-05   -0.51429E-05  6048   0.588E-05-0.430E-06
  27 F= -.36951959E+03 E0= -.36951959E+03  d E =-.585187E-04  mag=    20.0000
       N       E                     dE             d eps       ncg     rms          ort
SDA:   1    -0.368003466698E+03    0.15161E+01    0.00000E+00  6048   0.359E+01 0.000E+00
CGA:   2    -0.369112227147E+03   -0.11088E+01   -0.11087E+01  6048   0.141E+01 0.230E-02
CGA:   3    -0.369366239077E+03   -0.25401E+00   -0.25440E+00  6048   0.441E+00 0.240E-02
CGA:   4    -0.369439334681E+03   -0.73096E-01   -0.73164E-01  6048   0.100E+00 0.408E-03
CGA:   5    -0.369459154908E+03   -0.19820E-01   -0.19758E-01  6048   0.321E-01-0.712E-03
CGA:   6    -0.369465727293E+03   -0.65724E-02   -0.65364E-02  6048   0.119E-01-0.452E-03
CGA:   7    -0.369468605287E+03   -0.28780E-02   -0.28814E-02  6048   0.474E-02 0.906E-04
CGA:   8    -0.369469781162E+03   -0.11759E-02   -0.11851E-02  6048   0.182E-02 0.288E-03
CGA:   9    -0.369470338520E+03   -0.55736E-03   -0.55710E-03  6048   0.657E-03 0.254E-04
CGA:  10    -0.369470554019E+03   -0.21550E-03   -0.22138E-03  6048   0.301E-03-0.111E-03
CGA:  11    -0.369470616904E+03   -0.62885E-04   -0.62898E-04  6048   0.903E-04 0.353E-06
CGA:  12    -0.369470646523E+03   -0.29619E-04   -0.30148E-04  6048   0.461E-04-0.100E-04
CGA:  13    -0.369470661461E+03   -0.14938E-04   -0.24011E-04  6048   0.681E-04-0.300E-04
CGA:  14    -0.369470666681E+03   -0.52200E-05   -0.96137E-05  6048   0.148E-04 0.280E-04
  28 F= -.36947067E+03 E0= -.36947067E+03  d E =0.489210E-01  mag=    20.0000
       N       E                     dE             d eps       ncg     rms          ort
SDA:   1    -0.367214074591E+03    0.22566E+01    0.00000E+00  6048   0.545E+01 0.000E+00
CGA:   2    -0.369062271517E+03   -0.18482E+01   -0.18483E+01  6048   0.200E+01-0.286E-02
CGA:   3    -0.369410654587E+03   -0.34838E+00   -0.34850E+00  6048   0.556E+00-0.829E-03
CGA:   4    -0.369498868484E+03   -0.88214E-01   -0.88235E-01  6048   0.121E+00-0.535E-05
CGA:   5    -0.369522451146E+03   -0.23583E-01   -0.23592E-01  6048   0.371E-01 0.908E-04
CGA:   6    -0.369529756870E+03   -0.73057E-02   -0.73122E-02  6048   0.124E-01 0.795E-04
CGA:   7    -0.369532767245E+03   -0.30104E-02   -0.30111E-02  6048   0.492E-02 0.303E-04
CGA:   8    -0.369534126741E+03   -0.13595E-02   -0.13600E-02  6048   0.227E-02-0.441E-04
CGA:   9    -0.369534791086E+03   -0.66434E-03   -0.66666E-03  6048   0.840E-03-0.766E-04
CGA:  10    -0.369535035018E+03   -0.24393E-03   -0.24585E-03  6048   0.287E-03-0.538E-04
CGA:  11    -0.369535100720E+03   -0.65702E-04   -0.66337E-04  6048   0.851E-04 0.288E-04
CGA:  12    -0.369535124285E+03   -0.23565E-04   -0.23846E-04  6048   0.359E-04 0.221E-04
CGA:  13    -0.369535143861E+03   -0.19576E-04   -0.23067E-04  6048   0.471E-04-0.144E-04
CGA:  14    -0.369535150623E+03   -0.67625E-05   -0.66838E-05  6048   0.341E-04-0.192E-05
  29 F= -.36953515E+03 E0= -.36953515E+03  d E =-.644839E-01  mag=    20.0000
       N       E                     dE             d eps       ncg     rms          ort
SDA:   1    -0.369506206361E+03    0.28937E-01    0.00000E+00  6048   0.900E-01 0.000E+00
CGA:   2    -0.369524460881E+03   -0.18255E-01   -0.18262E-01  6048   0.470E-01 0.353E-04
CGA:   3    -0.369533199198E+03   -0.87383E-02   -0.87830E-02  6048   0.140E-01 0.516E-03
CGA:   4    -0.369535577350E+03   -0.23782E-02   -0.24000E-02  6048   0.318E-02 0.222E-03
CGA:   5    -0.369536159056E+03   -0.58171E-03   -0.57613E-03  6048   0.861E-03-0.697E-04
CGA:   6    -0.369536354427E+03   -0.19537E-03   -0.19181E-03  6048   0.364E-03-0.127E-03
CGA:   7    -0.369536418986E+03   -0.64559E-04   -0.64283E-04  6048   0.116E-03-0.594E-05
CGA:   8    -0.369536432716E+03   -0.13729E-04   -0.17786E-04  6048   0.379E-04 0.418E-04
CGA:   9    -0.369536436670E+03   -0.39539E-05   -0.67315E-05  6048   0.170E-04 0.238E-04
  30 F= -.36953644E+03 E0= -.36953644E+03  d E =-.128605E-02  mag=    20.0000
       N       E                     dE             d eps       ncg     rms          ort
SDA:   1    -0.369282531227E+03    0.25390E+00    0.00000E+00  6048   0.617E+00 0.000E+00
CGA:   2    -0.369480635662E+03   -0.19810E+00   -0.19812E+00  6048   0.272E+00-0.344E-03
CGA:   3    -0.369523740919E+03   -0.43105E-01   -0.43240E-01  6048   0.662E-01 0.120E-02
CGA:   4    -0.369534492208E+03   -0.10751E-01   -0.10781E-01  6048   0.140E-01 0.310E-03
CGA:   5    -0.369537048835E+03   -0.25566E-02   -0.25459E-02  6048   0.430E-02-0.163E-03
CGA:   6    -0.369537893729E+03   -0.84489E-03   -0.83817E-03  6048   0.129E-02-0.139E-03
CGA:   7    -0.369538165563E+03   -0.27183E-03   -0.27264E-03  6048   0.439E-03 0.320E-04
CGA:   8    -0.369538273513E+03   -0.10795E-03   -0.10807E-03  6048   0.173E-03 0.725E-04
CGA:   9    -0.369538335820E+03   -0.62307E-04   -0.61112E-04  6048   0.870E-04 0.198E-04
CGA:  10    -0.369538369165E+03   -0.33345E-04   -0.35120E-04  6048   0.552E-04-0.152E-04
CGA:  11    -0.369538381291E+03   -0.12126E-04   -0.12181E-04  6048   0.198E-04-0.333E-05
CGA:  12    -0.369538387633E+03   -0.63422E-05   -0.81074E-05  6048   0.178E-04-0.956E-05
  31 F= -.36953839E+03 E0= -.36953839E+03  d E =-.195096E-02  mag=    20.0000
       N       E                     dE             d eps       ncg     rms          ort
SDA:   1    -0.358783411091E+03    0.10755E+02    0.00000E+00  6048   0.257E+02 0.000E+00
CGA:   2    -0.367251638166E+03   -0.84682E+01   -0.84672E+01  6048   0.105E+02 0.396E-02
CGA:   3    -0.368971453979E+03   -0.17198E+01   -0.17212E+01  6048   0.256E+01 0.126E-01
CGA:   4    -0.369382369351E+03   -0.41092E+00   -0.41118E+00  6048   0.538E+00 0.184E-02
CGA:   5    -0.369483682673E+03   -0.10131E+00   -0.10128E+00  6048   0.162E+00-0.654E-03
CGA:   6    -0.369515102995E+03   -0.31420E-01   -0.31403E-01  6048   0.479E-01-0.341E-03
CGA:   7    -0.369526201999E+03   -0.11099E-01   -0.11104E-01  6048   0.187E-01 0.204E-03
CGA:   8    -0.369531542035E+03   -0.53400E-02   -0.53313E-02  6048   0.912E-02 0.274E-03
CGA:   9    -0.369534409076E+03   -0.28670E-02   -0.28645E-02  6048   0.395E-02 0.420E-04
CGA:  10    -0.369535635193E+03   -0.12261E-02   -0.12318E-02  6048   0.148E-02-0.109E-03
CGA:  11    -0.369536078714E+03   -0.44352E-03   -0.44836E-03  6048   0.595E-03-0.931E-04
CGA:  12    -0.369536282269E+03   -0.20356E-03   -0.20964E-03  6048   0.317E-03-0.537E-04
CGA:  13    -0.369536389091E+03   -0.10682E-03   -0.10498E-03  6048   0.142E-03 0.189E-04
CGA:  14    -0.369536442007E+03   -0.52916E-04   -0.51718E-04  6048   0.526E-04 0.171E-04
CGA:  15    -0.369536465994E+03   -0.23987E-04   -0.26243E-04  6048   0.285E-04-0.134E-04
CGA:  16    -0.369536471272E+03   -0.52780E-05   -0.54115E-05  6048   0.100E-04 0.440E-05
  32 F= -.36953647E+03 E0= -.36953647E+03  d E =0.191636E-02  mag=    20.0000
       N       E                     dE             d eps       ncg     rms          ort
SDA:   1    -0.368640066654E+03    0.89640E+00    0.00000E+00  6048   0.220E+01 0.000E+00
CGA:   2    -0.369319942675E+03   -0.67988E+00   -0.67979E+00  6048   0.100E+01 0.213E-02
CGA:   3    -0.369482001136E+03   -0.16206E+00   -0.16193E+00  6048   0.263E+00-0.193E-02
CGA:   4    -0.369525900077E+03   -0.43899E-01   -0.43793E-01  6048   0.562E-01-0.104E-02
CGA:   5    -0.369535925351E+03   -0.10025E-01   -0.10013E-01  6048   0.161E-01-0.151E-03
CGA:   6    -0.369539112607E+03   -0.31873E-02   -0.31925E-02  6048   0.499E-02 0.728E-04
CGA:   7    -0.369540261148E+03   -0.11485E-02   -0.11498E-02  6048   0.184E-02 0.359E-04
CGA:   8    -0.369540778798E+03   -0.51765E-03   -0.51836E-03  6048   0.866E-03-0.406E-04
CGA:   9    -0.369541043843E+03   -0.26504E-03   -0.26864E-03  6048   0.369E-03-0.658E-04
CGA:  10    -0.369541148024E+03   -0.10418E-03   -0.10620E-03  6048   0.136E-03-0.432E-04
CGA:  11    -0.369541179328E+03   -0.31304E-04   -0.31321E-04  6048   0.393E-04 0.256E-05
CGA:  12    -0.369541187444E+03   -0.81159E-05   -0.87445E-05  6048   0.151E-04 0.130E-04
  33 F= -.36954119E+03 E0= -.36954119E+03  d E =-.471617E-02  mag=    20.0000
       N       E                     dE             d eps       ncg     rms          ort
SDA:   1    -0.368712117986E+03    0.82906E+00    0.00000E+00  6048   0.199E+01 0.000E+00
CGA:   2    -0.369360894127E+03   -0.64878E+00   -0.64876E+00  6048   0.813E+00-0.895E-04
CGA:   3    -0.369498480673E+03   -0.13759E+00   -0.13743E+00  6048   0.211E+00-0.223E-02
CGA:   4    -0.369532051523E+03   -0.33571E-01   -0.33547E-01  6048   0.432E-01-0.312E-03
CGA:   5    -0.369540003992E+03   -0.79525E-02   -0.79927E-02  6048   0.128E-01 0.545E-03
CGA:   6    -0.369542490933E+03   -0.24869E-02   -0.25089E-02  6048   0.387E-02 0.358E-03
CGA:   7    -0.369543471503E+03   -0.98057E-03   -0.98028E-03  6048   0.168E-02-0.713E-04
CGA:   8    -0.369543981673E+03   -0.51017E-03   -0.52219E-03  6048   0.100E-02-0.181E-03
CGA:   9    -0.369544228619E+03   -0.24695E-03   -0.24653E-03  6048   0.368E-03 0.183E-04
CGA:  10    -0.369544322123E+03   -0.93504E-04   -0.93759E-04  6048   0.120E-03 0.538E-04
CGA:  11    -0.369544358267E+03   -0.36144E-04   -0.35999E-04  6048   0.465E-04 0.181E-04
CGA:  12    -0.369544372430E+03   -0.14163E-04   -0.14054E-04  6048   0.214E-04 0.142E-04
CGA:  13    -0.369544383967E+03   -0.11537E-04   -0.11944E-04  6048   0.192E-04-0.239E-05
CGA:  14    -0.369544393540E+03   -0.95727E-05    0.37565E-04  6048   0.103E-04 0.277E-05
  34 F= -.36954439E+03 E0= -.36954439E+03  d E =-.320610E-02  mag=    20.0000
       N       E                     dE             d eps       ncg     rms          ort
SDA:   1    -0.369467882720E+03    0.76501E-01    0.00000E+00  6048   0.183E+00 0.000E+00
CGA:   2    -0.369529865723E+03   -0.61983E-01   -0.62009E-01  6048   0.693E-01-0.379E-03
CGA:   3    -0.369541647461E+03   -0.11782E-01   -0.11793E-01  6048   0.187E-01 0.763E-04
CGA:   4    -0.369544652742E+03   -0.30053E-02   -0.30163E-02  6048   0.392E-02 0.102E-03
CGA:   5    -0.369545346497E+03   -0.69376E-03   -0.71033E-03  6048   0.114E-02 0.208E-03
CGA:   6    -0.369545557454E+03   -0.21096E-03   -0.21947E-03  6048   0.330E-03 0.118E-03
CGA:   7    -0.369545654268E+03   -0.96814E-04   -0.96956E-04  6048   0.159E-03-0.990E-05
CGA:   8    -0.369545700902E+03   -0.46634E-04   -0.47952E-04  6048   0.900E-04-0.229E-04
CGA:   9    -0.369545713512E+03   -0.12610E-04   -0.14193E-04  6048   0.304E-04 0.223E-04
CGA:  10    -0.369545716058E+03   -0.25460E-05   -0.47724E-05  6048   0.125E-04 0.177E-04
  35 F= -.36954572E+03 E0= -.36954572E+03  d E =-.132252E-02  mag=    20.0000
       N       E                     dE             d eps       ncg     rms          ort
SDA:   1    -0.369532351529E+03    0.13362E-01    0.00000E+00  6048   0.378E-01 0.000E+00
CGA:   2    -0.369541280944E+03   -0.89294E-02   -0.89296E-02  6048   0.205E-01 0.848E-05
CGA:   3    -0.369544770079E+03   -0.34891E-02   -0.35111E-02  6048   0.550E-02 0.298E-03
CGA:   4    -0.369545713155E+03   -0.94308E-03   -0.95033E-03  6048   0.126E-02 0.104E-03
CGA:   5    -0.369545963234E+03   -0.25008E-03   -0.24535E-03  6048   0.407E-03-0.110E-03
CGA:   6    -0.369546057243E+03   -0.94008E-04   -0.99231E-04  6048   0.271E-03-0.154E-03
CGA:   7    -0.369546087733E+03   -0.30491E-04   -0.30117E-04  6048   0.895E-04-0.671E-05
CGA:   8    -0.369546092474E+03   -0.47404E-05   -0.95548E-05  6048   0.392E-04 0.393E-04
  36 F= -.36954609E+03 E0= -.36954609E+03  d E =-.376415E-03  mag=    20.0000
       N       E                     dE             d eps       ncg     rms          ort
SDA:   1    -0.369505238994E+03    0.40849E-01    0.00000E+00  6048   0.103E+00 0.000E+00
CGA:   2    -0.369534818042E+03   -0.29579E-01   -0.29590E-01  6048   0.588E-01-0.207E-03
CGA:   3    -0.369543894801E+03   -0.90768E-02   -0.91099E-02  6048   0.123E-01 0.459E-03
CGA:   4    -0.369545882022E+03   -0.19872E-02   -0.19981E-02  6048   0.274E-02 0.183E-03
CGA:   5    -0.369546390176E+03   -0.50815E-03   -0.50648E-03  6048   0.797E-03-0.510E-04
CGA:   6    -0.369546558211E+03   -0.16804E-03   -0.16811E-03  6048   0.278E-03-0.924E-04
CGA:   7    -0.369546607549E+03   -0.49337E-04   -0.49378E-04  6048   0.837E-04 0.308E-05
CGA:   8    -0.369546620015E+03   -0.12467E-04   -0.13997E-04  6048   0.289E-04 0.318E-04
CGA:   9    -0.369546625040E+03   -0.50248E-05   -0.60617E-05  6048   0.137E-04 0.176E-04
CGA:  10    -0.369546606291E+03    0.18749E-04   -0.11026E-04  6048   0.212E-03-0.332E-04
CGA:  11    -0.369546634706E+03   -0.28415E-04   -0.31605E-04  6048   0.133E-04 0.138E-04
CGA:  12    -0.369546636925E+03   -0.22183E-05   -0.27674E-05  6048   0.226E-05 0.319E-05
  37 F= -.36954664E+03 E0= -.36954664E+03  d E =-.544451E-03  mag=    20.0000
       N       E                     dE             d eps       ncg     rms          ort
SDA:   1    -0.368756771767E+03    0.78986E+00    0.00000E+00  6048   0.193E+01 0.000E+00
CGA:   2    -0.369370220856E+03   -0.61345E+00   -0.61348E+00  6048   0.759E+00 0.438E-03
CGA:   3    -0.369497931295E+03   -0.12771E+00   -0.12774E+00  6048   0.202E+00-0.217E-03
CGA:   4    -0.369531162493E+03   -0.33231E-01   -0.33187E-01  6048   0.436E-01-0.287E-03
CGA:   5    -0.369539250030E+03   -0.80875E-02   -0.80917E-02  6048   0.126E-01 0.116E-04
CGA:   6    -0.369541643264E+03   -0.23932E-02   -0.24063E-02  6048   0.370E-02 0.864E-04
CGA:   7    -0.369542515132E+03   -0.87187E-03   -0.87525E-03  6048   0.142E-02 0.348E-04
CGA:   8    -0.369542909385E+03   -0.39425E-03   -0.39461E-03  6048   0.658E-03 0.686E-05
CGA:   9    -0.369543104679E+03   -0.19529E-03   -0.19557E-03  6048   0.255E-03 0.104E-04
CGA:  10    -0.369543180898E+03   -0.76219E-04   -0.76204E-04  6048   0.887E-04-0.663E-06
CGA:  11    -0.369543207083E+03   -0.26186E-04   -0.26144E-04  6048   0.315E-04-0.176E-05
CGA:  12    -0.369543216379E+03   -0.92956E-05   -0.93506E-05  6048   0.130E-04 0.349E-05
  38 F= -.36954322E+03 E0= -.36954322E+03  d E =0.342055E-02  mag=    20.0000
       N       E                     dE             d eps       ncg     rms          ort
SDA:   1    -0.368575351483E+03    0.96786E+00    0.00000E+00  6048   0.235E+01 0.000E+00
CGA:   2    -0.369287637734E+03   -0.71229E+00   -0.71235E+00  6048   0.120E+01 0.160E-02
CGA:   3    -0.369476749649E+03   -0.18911E+00   -0.18904E+00  6048   0.278E+00-0.122E-02
CGA:   4    -0.369524702692E+03   -0.47953E-01   -0.47813E-01  6048   0.626E-01-0.103E-02
CGA:   5    -0.369535976152E+03   -0.11273E-01   -0.11251E-01  6048   0.179E-01-0.194E-03
CGA:   6    -0.369539536458E+03   -0.35603E-02   -0.35748E-02  6048   0.565E-02 0.131E-03
CGA:   7    -0.369540858311E+03   -0.13219E-02   -0.13290E-02  6048   0.219E-02 0.104E-03
CGA:   8    -0.369541479531E+03   -0.62122E-03   -0.62088E-03  6048   0.102E-02-0.178E-04
CGA:   9    -0.369541787921E+03   -0.30839E-03   -0.30876E-03  6048   0.413E-03-0.400E-04
CGA:  10    -0.369541898059E+03   -0.11014E-03   -0.11026E-03  6048   0.133E-03 0.616E-05
CGA:  11    -0.369541939328E+03   -0.41269E-04   -0.41333E-04  6048   0.504E-04-0.680E-05
CGA:  12    -0.369541954706E+03   -0.15378E-04   -0.15304E-04  6048   0.223E-04 0.313E-05
CGA:  13    -0.369541962690E+03   -0.79838E-05   -0.78525E-05  6048   0.109E-04 0.387E-05
  39 F= -.36954196E+03 E0= -.36954196E+03  d E =0.125369E-02  mag=    20.0000
       N       E                     dE             d eps       ncg     rms          ort
SDA:   1    -0.368942072259E+03    0.59988E+00    0.00000E+00  6048   0.151E+01 0.000E+00
CGA:   2    -0.369387100254E+03   -0.44503E+00   -0.44505E+00  6048   0.660E+00 0.563E-03
CGA:   3    -0.369498439948E+03   -0.11134E+00   -0.11148E+00  6048   0.197E+00 0.606E-03
CGA:   4    -0.369531636315E+03   -0.33196E-01   -0.33253E-01  6048   0.415E-01 0.377E-03
CGA:   5    -0.369539204975E+03   -0.75687E-02   -0.75408E-02  6048   0.124E-01-0.262E-03
CGA:   6    -0.369541820109E+03   -0.26151E-02   -0.25893E-02  6048   0.448E-02-0.333E-03
CGA:   7    -0.369542867000E+03   -0.10469E-02   -0.10448E-02  6048   0.179E-02-0.475E-04
CGA:   8    -0.369543318129E+03   -0.45113E-03   -0.45359E-03  6048   0.739E-03 0.908E-04
CGA:   9    -0.369543553454E+03   -0.23533E-03   -0.23515E-03  6048   0.305E-03 0.807E-05
CGA:  10    -0.369543653134E+03   -0.99680E-04   -0.10106E-03  6048   0.140E-03-0.311E-04
CGA:  11    -0.369543694310E+03   -0.41177E-04   -0.42486E-04  6048   0.666E-04-0.245E-04
CGA:  12    -0.369543712368E+03   -0.18058E-04   -0.32322E-04  6048   0.997E-04-0.475E-04
CGA:  13    -0.369543724897E+03   -0.12528E-04   -0.16200E-04  6048   0.148E-04 0.262E-04
CGA:  14    -0.369543726097E+03   -0.11999E-05   -0.26704E-05  6048   0.692E-05 0.963E-05
  40 F= -.36954373E+03 E0= -.36954373E+03  d E =-.176341E-02  mag=    20.0000
       N       E                     dE             d eps       ncg     rms          ort
SDA:   1    -0.368890351288E+03    0.65337E+00    0.00000E+00  6048   0.156E+01 0.000E+00
CGA:   2    -0.369405741554E+03   -0.51539E+00   -0.51546E+00  6048   0.605E+00-0.190E-02
CGA:   3    -0.369509857241E+03   -0.10412E+00   -0.10426E+00  6048   0.166E+00 0.917E-03
CGA:   4    -0.369536508649E+03   -0.26651E-01   -0.26727E-01  6048   0.353E-01 0.571E-03
CGA:   5    -0.369543270418E+03   -0.67618E-02   -0.67848E-02  6048   0.108E-01 0.262E-03
CGA:   6    -0.369545456855E+03   -0.21864E-02   -0.21901E-02  6048   0.369E-02 0.493E-04
CGA:   7    -0.369546369716E+03   -0.91286E-03   -0.91172E-03  6048   0.153E-02-0.527E-04
CGA:   8    -0.369546786800E+03   -0.41708E-03   -0.41718E-03  6048   0.712E-03-0.100E-04
CGA:   9    -0.369546976292E+03   -0.18949E-03   -0.18949E-03  6048   0.238E-03 0.548E-04
CGA:  10    -0.369547044502E+03   -0.68210E-04   -0.68274E-04  6048   0.806E-04 0.326E-04
CGA:  11    -0.369547073677E+03   -0.29175E-04   -0.29246E-04  6048   0.385E-04-0.142E-05
CGA:  12    -0.369547088267E+03   -0.14590E-04   -0.21880E-04  6048   0.537E-04-0.237E-04
CGA:  13    -0.369547098345E+03   -0.10078E-04   -0.10770E-04  6048   0.842E-05 0.813E-05
CGA:  14    -0.369547101494E+03   -0.31493E-05   -0.30882E-05  6048   0.327E-05 0.164E-05
  41 F= -.36954710E+03 E0= -.36954710E+03  d E =-.337540E-02  mag=    20.0000
       N       E                     dE             d eps       ncg     rms          ort
SDA:   1    -0.369199265305E+03    0.34783E+00    0.00000E+00  6048   0.859E+00 0.000E+00
CGA:   2    -0.369466417395E+03   -0.26715E+00   -0.26714E+00  6048   0.362E+00 0.244E-03
CGA:   3    -0.369527200876E+03   -0.60783E-01   -0.60731E-01  6048   0.102E+00-0.688E-03
CGA:   4    -0.369544330462E+03   -0.17130E-01   -0.17090E-01  6048   0.215E-01-0.391E-03
CGA:   5    -0.369548143038E+03   -0.38126E-02   -0.38306E-02  6048   0.611E-02 0.184E-03
CGA:   6    -0.369549344187E+03   -0.12011E-02   -0.12159E-02  6048   0.193E-02 0.205E-03
CGA:   7    -0.369549821157E+03   -0.47697E-03   -0.47779E-03  6048   0.778E-03 0.318E-04
CGA:   8    -0.369550049696E+03   -0.22854E-03   -0.22940E-03  6048   0.399E-03-0.331E-04
CGA:   9    -0.369550157188E+03   -0.10749E-03   -0.10736E-03  6048   0.143E-03 0.809E-05
CGA:  10    -0.369550197056E+03   -0.39868E-04   -0.39806E-04  6048   0.476E-04 0.860E-05
CGA:  11    -0.369550209552E+03   -0.12496E-04   -0.12635E-04  6048   0.159E-04 0.870E-05
CGA:  12    -0.369550212808E+03   -0.32566E-05   -0.37750E-05  6048   0.725E-05 0.809E-05
  42 F= -.36955021E+03 E0= -.36955021E+03  d E =-.311131E-02  mag=    20.0000
       N       E                     dE             d eps       ncg     rms          ort
SDA:   1    -0.368815629019E+03    0.73458E+00    0.00000E+00  6048   0.172E+01 0.000E+00
CGA:   2    -0.369385068321E+03   -0.56944E+00   -0.56969E+00  6048   0.642E+00 0.498E-03
CGA:   3    -0.369497069796E+03   -0.11200E+00   -0.11199E+00  6048   0.187E+00-0.472E-03
CGA:   4    -0.369527368781E+03   -0.30299E-01   -0.30256E-01  6048   0.415E-01-0.182E-03
CGA:   5    -0.369535179984E+03   -0.78112E-02   -0.77493E-02  6048   0.130E-01-0.259E-03
CGA:   6    -0.369537801238E+03   -0.26213E-02   -0.25856E-02  6048   0.434E-02-0.160E-03
CGA:   7    -0.369538847017E+03   -0.10458E-02   -0.10542E-02  6048   0.169E-02 0.480E-04
CGA:   8    -0.369539293508E+03   -0.44649E-03   -0.45556E-03  6048   0.744E-03 0.632E-04
CGA:   9    -0.369539542590E+03   -0.24908E-03   -0.24445E-03  6048   0.320E-03-0.549E-04
CGA:  10    -0.369539642925E+03   -0.10033E-03   -0.96654E-04  6048   0.134E-03-0.521E-04
CGA:  11    -0.369539672227E+03   -0.29302E-04   -0.29269E-04  6048   0.419E-04-0.293E-06
CGA:  12    -0.369539684235E+03   -0.12008E-04   -0.12348E-04  6048   0.184E-04 0.371E-05
CGA:  13    -0.369539690506E+03   -0.62715E-05   -0.64464E-05  6048   0.980E-05 0.289E-05
  43 F= -.36953969E+03 E0= -.36953969E+03  d E =0.105223E-01  mag=    20.0000
       N       E                     dE             d eps       ncg     rms          ort
SDA:   1    -0.369203247159E+03    0.33644E+00    0.00000E+00  6048   0.832E+00 0.000E+00
CGA:   2    -0.369473646345E+03   -0.27040E+00   -0.27038E+00  6048   0.328E+00-0.554E-03
CGA:   3    -0.369530035946E+03   -0.56390E-01   -0.56448E-01  6048   0.949E-01 0.144E-03
CGA:   4    -0.369545363623E+03   -0.15328E-01   -0.15370E-01  6048   0.200E-01 0.176E-03
CGA:   5    -0.369549141246E+03   -0.37776E-02   -0.37909E-02  6048   0.615E-02 0.764E-04
CGA:   6    -0.369550394676E+03   -0.12534E-02   -0.12540E-02  6048   0.216E-02 0.202E-05
CGA:   7    -0.369550928778E+03   -0.53410E-03   -0.53123E-03  6048   0.886E-03-0.327E-04
CGA:   8    -0.369551167812E+03   -0.23903E-03   -0.23854E-03  6048   0.404E-03-0.887E-05
CGA:   9    -0.369551273667E+03   -0.10586E-03   -0.10736E-03  6048   0.132E-03 0.252E-04
CGA:  10    -0.369551308311E+03   -0.34643E-04   -0.36004E-04  6048   0.427E-04 0.198E-04
CGA:  11    -0.369551324115E+03   -0.15804E-04   -0.15806E-04  6048   0.206E-04-0.184E-05
CGA:  12    -0.369551331798E+03   -0.76827E-05   -0.12079E-04  6048   0.334E-04-0.152E-04
  44 F= -.36955133E+03 E0= -.36955133E+03  d E =-.116413E-01  mag=    20.0000
       N       E                     dE             d eps       ncg     rms          ort
SDA:   1    -0.369383434523E+03    0.16789E+00    0.00000E+00  6048   0.396E+00 0.000E+00
CGA:   2    -0.369517013619E+03   -0.13358E+00   -0.13358E+00  6048   0.140E+00-0.523E-03
CGA:   3    -0.369542506495E+03   -0.25493E-01   -0.25470E-01  6048   0.411E-01-0.233E-03
CGA:   4    -0.369548936122E+03   -0.64296E-02   -0.64611E-02  6048   0.855E-02 0.179E-03
CGA:   5    -0.369550523044E+03   -0.15869E-02   -0.16261E-02  6048   0.254E-02 0.315E-03
CGA:   6    -0.369551035779E+03   -0.51274E-03   -0.52675E-03  6048   0.869E-03 0.131E-03
CGA:   7    -0.369551279945E+03   -0.24417E-03   -0.24268E-03  6048   0.409E-03-0.416E-04
CGA:   8    -0.369551398533E+03   -0.11859E-03   -0.11888E-03  6048   0.221E-03-0.516E-04
CGA:   9    -0.369551437120E+03   -0.38587E-04   -0.41341E-04  6048   0.642E-04 0.318E-04
CGA:  10    -0.369551445227E+03   -0.81069E-05   -0.11908E-04  6048   0.239E-04 0.285E-04
  45 F= -.36955145E+03 E0= -.36955145E+03  d E =-.113430E-03  mag=    20.0000
       N       E                     dE             d eps       ncg     rms          ort
SDA:   1    -0.369487543969E+03    0.63893E-01    0.00000E+00  6048   0.154E+00 0.000E+00
CGA:   2    -0.369540944987E+03   -0.53401E-01   -0.53395E-01  6048   0.503E-01 0.739E-04
CGA:   3    -0.369549990145E+03   -0.90452E-02   -0.90261E-02  6048   0.135E-01-0.204E-03
CGA:   4    -0.369552133775E+03   -0.21436E-02   -0.21455E-02  6048   0.306E-02 0.118E-04
CGA:   5    -0.369552734618E+03   -0.60084E-03   -0.59811E-03  6048   0.885E-03-0.354E-04
CGA:   6    -0.369552915250E+03   -0.18063E-03   -0.17723E-03  6048   0.311E-03-0.505E-04
CGA:   7    -0.369552982351E+03   -0.67101E-04   -0.67159E-04  6048   0.110E-03 0.146E-05
CGA:   8    -0.369553007966E+03   -0.25615E-04   -0.26023E-04  6048   0.414E-04 0.143E-04
CGA:   9    -0.369553023876E+03   -0.15910E-04   -0.16530E-04  6048   0.242E-04-0.690E-05
CGA:  10    -0.369553030322E+03   -0.64460E-05   -0.71051E-05  6048   0.128E-04-0.781E-05
  46 F= -.36955303E+03 E0= -.36955303E+03  d E =-.158509E-02  mag=    20.0000
       N       E                     dE             d eps       ncg     rms          ort
SDA:   1    -0.369150740398E+03    0.40228E+00    0.00000E+00  6048   0.934E+00 0.000E+00
CGA:   2    -0.369480727090E+03   -0.32999E+00   -0.32997E+00  6048   0.297E+00 0.101E-03
CGA:   3    -0.369533766813E+03   -0.53040E-01   -0.53010E-01  6048   0.794E-01-0.468E-03
CGA:   4    -0.369546616742E+03   -0.12850E-01   -0.12853E-01  6048   0.178E-01 0.308E-05
CGA:   5    -0.369550148516E+03   -0.35318E-02   -0.35116E-02  6048   0.523E-02-0.307E-03
CGA:   6    -0.369551195356E+03   -0.10468E-02   -0.10348E-02  6048   0.180E-02-0.205E-03
CGA:   7    -0.369551590177E+03   -0.39482E-03   -0.39580E-03  6048   0.642E-03 0.343E-04
CGA:   8    -0.369551757830E+03   -0.16765E-03   -0.16766E-03  6048   0.267E-03 0.503E-04
CGA:   9    -0.369551855789E+03   -0.97960E-04   -0.10407E-03  6048   0.157E-03-0.583E-04
CGA:  10    -0.369551889598E+03   -0.33809E-04   -0.34083E-04  6048   0.513E-04-0.164E-04
CGA:  11    -0.369551902515E+03   -0.12917E-04   -0.13108E-04  6048   0.183E-04-0.828E-05
CGA:  12    -0.369551820903E+03    0.81612E-04   -0.43957E-04  6048   0.423E-03-0.762E-04
CGA:  13    -0.369551891409E+03   -0.70506E-04   -0.84040E-04  6048   0.438E-04 0.479E-04
CGA:  14    -0.369551908029E+03   -0.16620E-04   -0.16407E-04  6048   0.873E-05-0.165E-05
CGA:  15    -0.369551908513E+03   -0.48315E-06   -0.15245E-05  6048   0.271E-05 0.374E-05
  47 F= -.36955191E+03 E0= -.36955191E+03  d E =0.112181E-02  mag=    20.0000
       N       E                     dE             d eps       ncg     rms          ort
SDA:   1    -0.367383325791E+03    0.21686E+01    0.00000E+00  6048   0.505E+01 0.000E+00
CGA:   2    -0.369174797571E+03   -0.17915E+01   -0.17917E+01  6048   0.165E+01-0.165E-03
CGA:   3    -0.369461568820E+03   -0.28677E+00   -0.28684E+00  6048   0.419E+00-0.542E-03
CGA:   4    -0.369528174426E+03   -0.66606E-01   -0.66719E-01  6048   0.915E-01 0.386E-03
CGA:   5    -0.369545930327E+03   -0.17756E-01   -0.17739E-01  6048   0.265E-01-0.102E-03
CGA:   6    -0.369551025678E+03   -0.50954E-02   -0.50530E-02  6048   0.790E-02-0.218E-03
CGA:   7    -0.369552876026E+03   -0.18503E-02   -0.18456E-02  6048   0.301E-02-0.345E-04
CGA:   8    -0.369553702937E+03   -0.82691E-03   -0.82883E-03  6048   0.140E-02 0.189E-04
CGA:   9    -0.369554131650E+03   -0.42871E-03   -0.42636E-03  6048   0.555E-03-0.347E-04
CGA:  10    -0.369554289963E+03   -0.15831E-03   -0.15746E-03  6048   0.169E-03-0.114E-04
CGA:  11    -0.369554343824E+03   -0.53861E-04   -0.52570E-04  6048   0.630E-04-0.291E-04
CGA:  12    -0.369554364799E+03   -0.20975E-04   -0.23109E-04  6048   0.455E-04-0.257E-04
CGA:  13    -0.369554368135E+03   -0.33364E-05   -0.51192E-05  6048   0.218E-04 0.102E-04
  48 F= -.36955437E+03 E0= -.36955437E+03  d E =-.245962E-02  mag=    20.0000
       N       E                     dE             d eps       ncg     rms          ort
SDA:   1    -0.349256306355E+03    0.20298E+02    0.00000E+00  6048   0.468E+02 0.000E+00
CGA:   2    -0.363708385990E+03   -0.14452E+02   -0.14448E+02  6048   0.151E+02-0.863E-01
CGA:   3    -0.366905244457E+03   -0.31969E+01   -0.31997E+01  6048   0.547E+01-0.924E-02
CGA:   4    -0.367805442095E+03   -0.90020E+00   -0.89934E+00  6048   0.124E+01 0.523E-02
CGA:   5    -0.368053276864E+03   -0.24783E+00   -0.24821E+00  6048   0.415E+00 0.503E-02
CGA:   6    -0.368142069379E+03   -0.88793E-01   -0.89216E-01  6048   0.169E+00 0.401E-02
CGA:   7    -0.368184728878E+03   -0.42659E-01   -0.42669E-01  6048   0.675E-01 0.771E-04
CGA:   8    -0.368203190447E+03   -0.18462E-01   -0.18396E-01  6048   0.289E-01-0.159E-02
CGA:   9    -0.368210505311E+03   -0.73149E-02   -0.73293E-02  6048   0.837E-02 0.285E-03
CGA:  10    -0.368212717022E+03   -0.22117E-02   -0.22344E-02  6048   0.246E-02 0.508E-03
CGA:  11    -0.368213435672E+03   -0.71865E-03   -0.72163E-03  6048   0.795E-03 0.966E-04
CGA:  12    -0.368213670706E+03   -0.23503E-03   -0.23687E-03  6048   0.289E-03 0.993E-04
CGA:  13    -0.368213810681E+03   -0.13998E-03   -0.16191E-03  6048   0.278E-03-0.113E-03
CGA:  14    -0.368213847837E+03   -0.37156E-04   -0.10403E-03  6048   0.355E-03-0.222E-03
CGA:  15    -0.368213912664E+03   -0.64826E-04   -0.76455E-04  6048   0.797E-04 0.102E-03
CGA:  16    -0.368213943736E+03   -0.31072E-04   -0.31459E-04  6048   0.291E-04 0.225E-04
CGA:  17    -0.368213948882E+03   -0.51458E-05   -0.73846E-05  6048   0.121E-04 0.180E-04
  49 F= -.36821395E+03 E0= -.36821395E+03  d E =0.134042E+01  mag=    20.0000
       N       E                     dE             d eps       ncg     rms          ort
SDA:   1    -0.367001820746E+03    0.12121E+01    0.00000E+00  6048   0.480E+01 0.000E+00
CGA:   2    -0.368534954942E+03   -0.15331E+01   -0.15332E+01  6048   0.159E+01-0.383E-02
CGA:   3    -0.368886271287E+03   -0.35132E+00   -0.35157E+00  6048   0.489E+00 0.157E-02
CGA:   4    -0.368964213599E+03   -0.77942E-01   -0.78108E-01  6048   0.131E+00 0.827E-03
CGA:   5    -0.368991347200E+03   -0.27134E-01   -0.27060E-01  6048   0.414E-01-0.796E-03
CGA:   6    -0.369000520835E+03   -0.91736E-02   -0.91122E-02  6048   0.190E-01-0.843E-03
CGA:   7    -0.369004971113E+03   -0.44503E-02   -0.44460E-02  6048   0.704E-02-0.862E-04
CGA:   8    -0.369006758190E+03   -0.17871E-02   -0.17953E-02  6048   0.274E-02 0.248E-03
CGA:   9    -0.369007521159E+03   -0.76297E-03   -0.76305E-03  6048   0.911E-03 0.398E-05
CGA:  10    -0.369007806317E+03   -0.28516E-03   -0.28823E-03  6048   0.352E-03-0.105E-03
CGA:  11    -0.369007901438E+03   -0.95121E-04   -0.96269E-04  6048   0.137E-03-0.549E-04
CGA:  12    -0.369007940206E+03   -0.38768E-04   -0.39701E-04  6048   0.605E-04-0.172E-04
CGA:  13    -0.369007954807E+03   -0.14601E-04   -0.14738E-04  6048   0.223E-04 0.105E-04
CGA:  14    -0.369007961162E+03   -0.63550E-05   -0.66343E-05  6048   0.942E-05 0.734E-05
  50 F= -.36900796E+03 E0= -.36900796E+03  d E =-.794012E+00  mag=    20.0000
       N       E                     dE             d eps       ncg     rms          ort
SDA:   1    -0.368448604073E+03    0.55935E+00    0.00000E+00  6048   0.210E+01 0.000E+00
CGA:   2    -0.369116946490E+03   -0.66834E+00   -0.66830E+00  6048   0.673E+00 0.516E-03
CGA:   3    -0.369269357083E+03   -0.15241E+00   -0.15253E+00  6048   0.213E+00 0.170E-02
CGA:   4    -0.369303183968E+03   -0.33827E-01   -0.33895E-01  6048   0.558E-01 0.405E-03
CGA:   5    -0.369314849804E+03   -0.11666E-01   -0.11597E-01  6048   0.180E-01-0.100E-02
CGA:   6    -0.369318922721E+03   -0.40729E-02   -0.40379E-02  6048   0.854E-02-0.787E-03
CGA:   7    -0.369320798184E+03   -0.18755E-02   -0.18765E-02  6048   0.302E-02 0.240E-04
CGA:   8    -0.369321523544E+03   -0.72536E-03   -0.73306E-03  6048   0.110E-02 0.283E-03
CGA:   9    -0.369321853798E+03   -0.33025E-03   -0.33024E-03  6048   0.401E-03 0.144E-05
CGA:  10    -0.369321988828E+03   -0.13503E-03   -0.14674E-03  6048   0.229E-03-0.120E-03
CGA:  11    -0.369322034162E+03   -0.45334E-04   -0.45983E-04  6048   0.889E-04-0.457E-04
CGA:  12    -0.369322056966E+03   -0.22805E-04   -0.23743E-04  6048   0.432E-04-0.157E-04
CGA:  13    -0.369322064746E+03   -0.77796E-05   -0.82199E-05  6048   0.184E-04 0.960E-05
  51 F= -.36932206E+03 E0= -.36932206E+03  d E =-.314104E+00  mag=    20.0000
       N       E                     dE             d eps       ncg     rms          ort
SDA:   1    -0.368247329423E+03    0.10747E+01    0.00000E+00  6048   0.307E+01 0.000E+00
CGA:   2    -0.369219123296E+03   -0.97179E+00   -0.97149E+00  6048   0.930E+00 0.418E-02
CGA:   3    -0.369438747834E+03   -0.21962E+00   -0.21975E+00  6048   0.308E+00 0.338E-02
CGA:   4    -0.369486948865E+03   -0.48201E-01   -0.48251E-01  6048   0.782E-01 0.140E-03
CGA:   5    -0.369503257135E+03   -0.16308E-01   -0.16205E-01  6048   0.262E-01-0.186E-02
CGA:   6    -0.369509112821E+03   -0.58557E-02   -0.58171E-02  6048   0.123E-01-0.118E-02
CGA:   7    -0.369511770955E+03   -0.26581E-02   -0.26634E-02  6048   0.422E-02 0.168E-03
CGA:   8    -0.369512799762E+03   -0.10288E-02   -0.10361E-02  6048   0.152E-02 0.475E-03
CGA:   9    -0.369513268741E+03   -0.46898E-03   -0.46938E-03  6048   0.571E-03-0.197E-04
CGA:  10    -0.369513455625E+03   -0.18688E-03   -0.20825E-03  6048   0.336E-03-0.191E-03
CGA:  11    -0.369513518635E+03   -0.63010E-04   -0.65447E-04  6048   0.134E-03-0.826E-04
CGA:  12    -0.369513551644E+03   -0.33010E-04   -0.36193E-04  6048   0.723E-04-0.344E-04
CGA:  13    -0.369513559986E+03   -0.83416E-05   -0.10069E-04  6048   0.338E-04 0.210E-04
  52 F= -.36951356E+03 E0= -.36951356E+03  d E =-.191495E+00  mag=    20.0000
       N       E                     dE             d eps       ncg     rms          ort
SDA:   1    -0.369349025549E+03    0.16453E+00    0.00000E+00  6048   0.492E+00 0.000E+00
CGA:   2    -0.369501692852E+03   -0.15267E+00   -0.15262E+00  6048   0.138E+00 0.757E-03
CGA:   3    -0.369535056650E+03   -0.33364E-01   -0.33396E-01  6048   0.503E-01 0.164E-02
CGA:   4    -0.369542902061E+03   -0.78454E-02   -0.78254E-02  6048   0.114E-01-0.228E-03
CGA:   5    -0.369545498459E+03   -0.25964E-02   -0.25606E-02  6048   0.486E-02-0.121E-02
CGA:   6    -0.369546480057E+03   -0.98160E-03   -0.96382E-03  6048   0.216E-02-0.575E-03
CGA:   7    -0.369546856553E+03   -0.37650E-03   -0.38553E-03  6048   0.638E-03 0.184E-03
CGA:   8    -0.369546967863E+03   -0.11131E-03   -0.12575E-03  6048   0.228E-03 0.214E-03
CGA:   9    -0.369547031962E+03   -0.64099E-04   -0.65794E-04  6048   0.909E-04 0.577E-04
CGA:  10    -0.369547034233E+03   -0.22712E-05   -0.79800E-04  6048   0.369E-03-0.170E-03
CGA:  11    -0.369547086766E+03   -0.52532E-04   -0.58800E-04  6048   0.450E-04 0.582E-04
CGA:  12    -0.369547080906E+03    0.58593E-05   -0.41860E-04  6048   0.185E-03-0.882E-04
CGA:  13    -0.369547117533E+03   -0.36626E-04   -0.38818E-04  6048   0.146E-04 0.276E-04
CGA:  14    -0.369547117256E+03    0.27712E-06   -0.17117E-05  6048   0.659E-05 0.109E-04
  53 F= -.36954712E+03 E0= -.36954712E+03  d E =-.335573E-01  mag=    20.0000
       N       E                     dE             d eps       ncg     rms          ort
SDA:   1    -0.369264412232E+03    0.28271E+00    0.00000E+00  6048   0.754E+00 0.000E+00
CGA:   2    -0.369495118518E+03   -0.23071E+00   -0.23064E+00  6048   0.215E+00 0.130E-02
CGA:   3    -0.369544797719E+03   -0.49679E-01   -0.49757E-01  6048   0.860E-01 0.204E-02
CGA:   4    -0.369558491916E+03   -0.13694E-01   -0.13672E-01  6048   0.174E-01-0.272E-03
CGA:   5    -0.369562423116E+03   -0.39312E-02   -0.38755E-02  6048   0.737E-02-0.154E-02
CGA:   6    -0.369563943699E+03   -0.15206E-02   -0.14940E-02  6048   0.314E-02-0.734E-03
CGA:   7    -0.369564526643E+03   -0.58294E-03   -0.59439E-03  6048   0.994E-03 0.244E-03
CGA:   8    -0.369564719390E+03   -0.19275E-03   -0.20920E-03  6048   0.335E-03 0.278E-03
CGA:   9    -0.369564825953E+03   -0.10656E-03   -0.10668E-03  6048   0.140E-03 0.423E-04
CGA:  10    -0.369564865417E+03   -0.39464E-04   -0.84174E-04  6048   0.289E-03-0.158E-03
CGA:  11    -0.369564911277E+03   -0.45860E-04   -0.47817E-04  6048   0.326E-04 0.195E-04
CGA:  12    -0.369564741832E+03    0.16944E-03   -0.91301E-04  6048   0.834E-03-0.161E-03
CGA:  13    -0.369564906999E+03   -0.16517E-03   -0.18044E-03  6048   0.101E-03 0.588E-04
CGA:  14    -0.369564925113E+03   -0.18114E-04   -0.23782E-04  6048   0.130E-04 0.233E-04
CGA:  15    -0.369564925545E+03   -0.43205E-06   -0.26561E-05  6048   0.447E-05 0.782E-05
  54 F= -.36956493E+03 E0= -.36956493E+03  d E =-.178083E-01  mag=    20.0000
       N       E                     dE             d eps       ncg     rms          ort
SDA:   1    -0.369562585216E+03    0.23399E-02    0.00000E+00  6048   0.799E-02 0.000E+00
CGA:   2    -0.369564588978E+03   -0.20038E-02   -0.20240E-02  6048   0.393E-02 0.114E-03
CGA:   3    -0.369565270370E+03   -0.68139E-03   -0.69513E-03  6048   0.119E-02 0.543E-04
CGA:   4    -0.369565498367E+03   -0.22800E-03   -0.22239E-03  6048   0.302E-03-0.260E-04
CGA:   5    -0.369565569269E+03   -0.70902E-04   -0.61447E-04  6048   0.124E-03-0.511E-04
CGA:   6    -0.369565598837E+03   -0.29569E-04   -0.24816E-04  6048   0.621E-04-0.331E-04
CGA:   7    -0.369565606387E+03   -0.75501E-05   -0.83041E-05  6048   0.181E-04 0.386E-05
  55 F= -.36956561E+03 E0= -.36956561E+03  d E =-.680842E-03  mag=    20.0000
       N       E                     dE             d eps       ncg     rms          ort
SDA:   1    -0.369510227812E+03    0.55371E-01    0.00000E+00  6048   0.156E+00 0.000E+00
CGA:   2    -0.369545110495E+03   -0.34883E-01   -0.34985E-01  6048   0.801E-01 0.659E-03
CGA:   3    -0.369559381638E+03   -0.14271E-01   -0.14346E-01  6048   0.240E-01 0.397E-03
CGA:   4    -0.369563764634E+03   -0.43830E-02   -0.43696E-02  6048   0.619E-02-0.938E-04
CGA:   5    -0.369564902176E+03   -0.11375E-02   -0.10973E-02  6048   0.178E-02-0.265E-03
CGA:   6    -0.369565307368E+03   -0.40519E-03   -0.38305E-03  6048   0.757E-03-0.225E-03
CGA:   7    -0.369565456276E+03   -0.14891E-03   -0.14706E-03  6048   0.264E-03-0.195E-04
CGA:   8    -0.369565493319E+03   -0.37043E-04   -0.46463E-04  6048   0.786E-04 0.707E-04
CGA:   9    -0.369565506086E+03   -0.12767E-04   -0.17420E-04  6048   0.318E-04 0.351E-04
CGA:  10    -0.369565518593E+03   -0.12507E-04   -0.12553E-04  6048   0.166E-04 0.166E-05
CGA:  11    -0.369565531219E+03   -0.12625E-04    0.12439E-04  6048   0.833E-05-0.714E-06
CGA:  12    -0.369565538277E+03   -0.70577E-05    0.24927E-05  6048   0.410E-05-0.119E-05
  56 F= -.36956554E+03 E0= -.36956554E+03  d E =0.681110E-04  mag=    20.0000
       N       E                     dE             d eps       ncg     rms          ort
SDA:   1    -0.369558651435E+03    0.68798E-02    0.00000E+00  6048   0.210E-01 0.000E+00
CGA:   2    -0.369562846361E+03   -0.41949E-02   -0.42300E-02  6048   0.997E-02 0.339E-03
CGA:   3    -0.369564784624E+03   -0.19383E-02   -0.19415E-02  6048   0.324E-02 0.260E-04
CGA:   4    -0.369565374724E+03   -0.59010E-03   -0.57404E-03  6048   0.765E-03-0.144E-03
CGA:   5    -0.369565505452E+03   -0.13073E-03   -0.12705E-03  6048   0.213E-03-0.337E-04
CGA:   6    -0.369565536651E+03   -0.31199E-04   -0.34130E-04  6048   0.558E-04 0.265E-04
CGA:   7    -0.369565545510E+03   -0.88594E-05   -0.10743E-04  6048   0.193E-04 0.185E-04
  57 F= -.36956555E+03 E0= -.36956555E+03  d E =-.723386E-05  mag=    20.0000
       N       E                     dE             d eps       ncg     rms          ort
SDA:   1    -0.369177064857E+03    0.38847E+00    0.00000E+00  6048   0.116E+01 0.000E+00
CGA:   2    -0.369407695103E+03   -0.23063E+00   -0.23095E+00  6048   0.583E+00 0.347E-02
CGA:   3    -0.369520256180E+03   -0.11256E+00   -0.11258E+00  6048   0.184E+00-0.155E-04
CGA:   4    -0.369551099549E+03   -0.30843E-01   -0.30717E-01  6048   0.396E-01-0.145E-02
CGA:   5    -0.369557782069E+03   -0.66825E-02   -0.66559E-02  6048   0.104E-01-0.325E-03
CGA:   6    -0.369559781258E+03   -0.19992E-02   -0.20136E-02  6048   0.314E-02 0.257E-03
CGA:   7    -0.369560475035E+03   -0.69378E-03   -0.69858E-03  6048   0.104E-02 0.155E-03
CGA:   8    -0.369560774901E+03   -0.29987E-03   -0.30101E-03  6048   0.490E-03-0.378E-04
CGA:   9    -0.369560919819E+03   -0.14492E-03   -0.14660E-03  6048   0.231E-03-0.270E-04
CGA:  10    -0.369560974666E+03   -0.54847E-04   -0.54833E-04  6048   0.802E-04 0.282E-04
CGA:  11    -0.369560995632E+03   -0.20966E-04   -0.21281E-04  6048   0.302E-04 0.219E-04
CGA:  12    -0.369561006111E+03   -0.10479E-04   -0.10337E-04  6048   0.142E-04 0.760E-05
CGA:  13    -0.369561011813E+03   -0.57028E-05   -0.55087E-05  6048   0.772E-05 0.334E-05
  58 F= -.36956101E+03 E0= -.36956101E+03  d E =0.453370E-02  mag=    20.0000
       N       E                     dE             d eps       ncg     rms          ort
SDA:   1    -0.369496860516E+03    0.64146E-01    0.00000E+00  6048   0.160E+00 0.000E+00
CGA:   2    -0.369541323715E+03   -0.44463E-01   -0.44459E-01  6048   0.822E-01 0.260E-03
CGA:   3    -0.369555470202E+03   -0.14146E-01   -0.14157E-01  6048   0.231E-01 0.498E-04
CGA:   4    -0.369559478077E+03   -0.40079E-02   -0.40144E-02  6048   0.546E-02 0.670E-04
CGA:   5    -0.369560534408E+03   -0.10563E-02   -0.10517E-02  6048   0.181E-02-0.731E-04
CGA:   6    -0.369560916262E+03   -0.38185E-03   -0.37751E-03  6048   0.689E-03-0.102E-03
CGA:   7    -0.369561071380E+03   -0.15512E-03   -0.15501E-03  6048   0.274E-03-0.790E-05
CGA:   8    -0.369561129010E+03   -0.57629E-04   -0.58832E-04  6048   0.861E-04 0.350E-04
CGA:   9    -0.369561157483E+03   -0.28473E-04   -0.28397E-04  6048   0.369E-04 0.177E-05
CGA:  10    -0.369561166909E+03   -0.94265E-05   -0.19878E-04  6048   0.736E-04-0.380E-04
CGA:  11    -0.369561176323E+03   -0.94138E-05   -0.10699E-04  6048   0.720E-05 0.107E-04
  59 F= -.36956118E+03 E0= -.36956118E+03  d E =-.164510E-03  mag=    20.0000
       N       E                     dE             d eps       ncg     rms          ort
SDA:   1    -0.369537872816E+03    0.23294E-01    0.00000E+00  6048   0.737E-01 0.000E+00
CGA:   2    -0.369554402833E+03   -0.16530E-01   -0.16510E-01  6048   0.385E-01-0.660E-03
CGA:   3    -0.369561334491E+03   -0.69317E-02   -0.69330E-02  6048   0.114E-01-0.455E-05
CGA:   4    -0.369563207420E+03   -0.18729E-02   -0.18944E-02  6048   0.243E-02 0.249E-03
CGA:   5    -0.369563637067E+03   -0.42965E-03   -0.43697E-03  6048   0.680E-03 0.102E-03
CGA:   6    -0.369563787670E+03   -0.15060E-03   -0.15047E-03  6048   0.238E-03-0.441E-05
CGA:   7    -0.369563849210E+03   -0.61540E-04   -0.62110E-04  6048   0.114E-03-0.273E-04
CGA:   8    -0.369563873120E+03   -0.23910E-04   -0.23911E-04  6048   0.412E-04 0.129E-06
[...]
  69 F= -.36956427E+03 E0= -.36956427E+03  d E =-.166239E-02  mag=    20.0000
       N       E                     dE             d eps       ncg     rms          ort
SDA:   1    -0.369455237547E+03    0.10903E+00    0.00000E+00  6048   0.292E+00 0.000E+00
CGA:   2    -0.369533041061E+03   -0.77804E-01   -0.77877E-01  6048   0.164E+00 0.302E-03
CGA:   3    -0.369560127516E+03   -0.27086E-01   -0.27140E-01  6048   0.380E-01 0.107E-03
CGA:   4    -0.369566572902E+03   -0.64454E-02   -0.64362E-02  6048   0.866E-02-0.460E-04
CGA:   5    -0.369568161668E+03   -0.15888E-02   -0.15603E-02  6048   0.253E-02-0.141E-03
CGA:   6    -0.369568697514E+03   -0.53585E-03   -0.51569E-03  6048   0.841E-03-0.120E-03
CGA:   7    -0.369568873368E+03   -0.17585E-03   -0.17576E-03  6048   0.287E-03-0.916E-06
CGA:   8    -0.369568928257E+03   -0.54888E-04   -0.61712E-04  6048   0.921E-04 0.469E-04
CGA:   9    -0.369568955889E+03   -0.27632E-04   -0.28739E-04  6048   0.373E-04 0.130E-04
CGA:  10    -0.369568968728E+03   -0.12840E-04   -0.26848E-04  6048   0.111E-03-0.496E-04
CGA:  11    -0.369568981440E+03   -0.12711E-04   -0.16407E-04  6048   0.116E-04 0.171E-04
CGA:  12    -0.369568983682E+03   -0.22427E-05   -0.27261E-05  6048   0.305E-05 0.326E-05
  70 F= -.36956898E+03 E0= -.36956898E+03  d E =-.471171E-02  mag=    20.0000
       N       E                     dE             d eps       ncg     rms          ort
SDA:   1    -0.369210590214E+03    0.35839E+00    0.00000E+00  6048   0.852E+00 0.000E+00
CGA:   2    -0.369501264650E+03   -0.29067E+00   -0.29067E+00  6048   0.304E+00-0.199E-03
CGA:   3    -0.369552907908E+03   -0.51643E-01   -0.51756E-01  6048   0.800E-01 0.461E-03
CGA:   4    -0.369565666397E+03   -0.12758E-01   -0.12782E-01  6048   0.169E-01 0.114E-03
CGA:   5    -0.369568958443E+03   -0.32920E-02   -0.32451E-02  6048   0.524E-02-0.352E-03
CGA:   6    -0.369569983730E+03   -0.10253E-02   -0.99835E-03  6048   0.160E-02-0.216E-03
CGA:   7    -0.369570318523E+03   -0.33479E-03   -0.33796E-03  6048   0.547E-03 0.332E-04
CGA:   8    -0.369570447621E+03   -0.12910E-03   -0.13416E-03  6048   0.213E-03 0.732E-04
CGA:   9    -0.369570529815E+03   -0.82194E-04   -0.82867E-04  6048   0.120E-03-0.181E-04
CGA:  10    -0.369570565523E+03   -0.35708E-04   -0.36289E-04  6048   0.569E-04-0.249E-04
CGA:  11    -0.369570579775E+03   -0.14251E-04   -0.14483E-04  6048   0.254E-04-0.185E-04
CGA:  12    -0.369570590471E+03   -0.10696E-04    0.31247E-03  6048   0.105E-04-0.287E-05
CGA:  13    -0.369570590676E+03   -0.20565E-06   -0.12151E-05  6048   0.584E-05 0.565E-05
  71 F= -.36957059E+03 E0= -.36957059E+03  d E =-.160699E-02  mag=    20.0000
       N       E                     dE             d eps       ncg     rms          ort
SDA:   1    -0.319807495936E+03    0.49763E+02    0.00000E+00  6048   0.115E+03 0.000E+00
CGA:   2    -0.354445945876E+03   -0.34638E+02   -0.34643E+02  6048   0.391E+02-0.340E+00
CGA:   3    -0.362211788712E+03   -0.77658E+01   -0.77749E+01  6048   0.136E+02 0.141E-02
CGA:   4    -0.364526678935E+03   -0.23149E+01   -0.23171E+01  6048   0.331E+01 0.155E-01
CGA:   5    -0.365182834978E+03   -0.65616E+00   -0.65650E+00  6048   0.110E+01 0.983E-02
CGA:   6    -0.365416030051E+03   -0.23320E+00   -0.23360E+00  6048   0.450E+00 0.620E-02
CGA:   7    -0.365528612122E+03   -0.11258E+00   -0.11259E+00  6048   0.177E+00 0.101E-03
CGA:   8    -0.365575601517E+03   -0.46989E-01   -0.46967E-01  6048   0.754E-01-0.343E-02
CGA:   9    -0.365595333296E+03   -0.19732E-01   -0.19731E-01  6048   0.232E-01-0.923E-04
CGA:  10    -0.365601552065E+03   -0.62188E-02   -0.62212E-02  6048   0.745E-02 0.101E-02
CGA:  11    -0.365603782179E+03   -0.22301E-02   -0.22298E-02  6048   0.263E-02 0.184E-04
CGA:  12    -0.365604615482E+03   -0.83330E-03   -0.82820E-03  6048   0.105E-02 0.119E-03
CGA:  13    -0.365605062349E+03   -0.44687E-03   -0.47911E-03  6048   0.719E-03-0.201E-03
CGA:  14    -0.365605267993E+03   -0.20564E-03   -0.34957E-03  6048   0.845E-03-0.453E-03
CGA:  15    -0.365605396989E+03   -0.12900E-03   -0.15597E-03  6048   0.154E-03 0.238E-03
CGA:  16    -0.365605450821E+03   -0.53832E-04   -0.54464E-04  6048   0.642E-04 0.369E-04
CGA:  17    -0.365605475374E+03   -0.24553E-04   -0.24410E-04  6048   0.285E-04 0.938E-05
CGA:  18    -0.365605477642E+03   -0.22674E-05   -0.49245E-05  6048   0.146E-04 0.188E-04
CGA:  19    -0.365605435293E+03    0.42349E-04   -0.23545E-04  6048   0.261E-03-0.463E-04
CGA:  20    -0.365605525719E+03   -0.90426E-04   -0.76069E-04  6048   0.646E-04-0.629E-04
CGA:  21    -0.365605517588E+03    0.81308E-05   -0.46041E-05  6048   0.277E-04 0.307E-04
  72 F= -.36560552E+03 E0= -.36560552E+03  d E =0.396507E+01  mag=    20.0000
       N       E                     dE             d eps       ncg     rms          ort
SDA:   1    -0.349522095898E+03    0.16083E+02    0.00000E+00  6048   0.467E+02 0.000E+00
CGA:   2    -0.364636665572E+03   -0.15115E+02   -0.15116E+02  6048   0.135E+02-0.258E-01
CGA:   3    -0.367967514550E+03   -0.33308E+01   -0.33474E+01  6048   0.315E+01 0.102E-01
CGA:   4    -0.368596560303E+03   -0.62905E+00   -0.62902E+00  6048   0.117E+01 0.395E-02
CGA:   5    -0.368810238735E+03   -0.21368E+00   -0.21362E+00  6048   0.344E+00 0.500E-03
CGA:   6    -0.368895908425E+03   -0.85670E-01   -0.85550E-01  6048   0.169E+00-0.793E-03
CGA:   7    -0.368933998640E+03   -0.38090E-01   -0.38019E-01  6048   0.619E-01-0.505E-03
CGA:   8    -0.368950633550E+03   -0.16635E-01   -0.16708E-01  6048   0.242E-01 0.520E-03
CGA:   9    -0.368956794693E+03   -0.61611E-02   -0.62194E-02  6048   0.777E-02 0.397E-03
CGA:  10    -0.368959170321E+03   -0.23756E-02   -0.23379E-02  6048   0.260E-02-0.396E-03
CGA:  11    -0.368959925785E+03   -0.75546E-03   -0.74485E-03  6048   0.942E-03-0.126E-03
CGA:  12    -0.368960159550E+03   -0.23377E-03   -0.24499E-03  6048   0.338E-03 0.102E-03
CGA:  13    -0.368960304076E+03   -0.14453E-03   -0.14473E-03  6048   0.205E-03-0.223E-04
CGA:  14    -0.368960376773E+03   -0.72698E-04   -0.72728E-04  6048   0.112E-03-0.117E-04
CGA:  15    -0.368960394438E+03   -0.17665E-04   -0.23480E-04  6048   0.475E-04 0.373E-04
CGA:  16    -0.368960413859E+03   -0.19420E-04   -0.19315E-04  6048   0.252E-04-0.167E-05
CGA:  17    -0.368960432779E+03   -0.18921E-04    0.71053E-04  6048   0.151E-04-0.321E-05
CGA:  18    -0.368960431570E+03    0.12096E-05   -0.12311E-05  6048   0.986E-05 0.893E-05
  73 F= -.36896043E+03 E0= -.36896043E+03  d E =-.335491E+01  mag=    20.0000
       N       E                     dE             d eps       ncg     rms          ort
SDA:   1    -0.367065802021E+03    0.18946E+01    0.00000E+00  6048   0.557E+01 0.000E+00
CGA:   2    -0.368822256723E+03   -0.17565E+01   -0.17570E+01  6048   0.161E+01 0.108E-01
CGA:   3    -0.369224884019E+03   -0.40263E+00   -0.40307E+00  6048   0.441E+00 0.522E-02
CGA:   4    -0.369302551422E+03   -0.77667E-01   -0.77577E-01  6048   0.140E+00-0.980E-03
CGA:   5    -0.369329715192E+03   -0.27164E-01   -0.26938E-01  6048   0.421E-01-0.180E-02
CGA:   6    -0.369339800913E+03   -0.10086E-01   -0.10009E-01  6048   0.206E-01-0.999E-03
CGA:   7    -0.369344257360E+03   -0.44564E-02   -0.44692E-02  6048   0.726E-02 0.133E-03
CGA:   8    -0.369346111973E+03   -0.18546E-02   -0.18815E-02  6048   0.269E-02 0.504E-03
CGA:   9    -0.369346874951E+03   -0.76298E-03   -0.76251E-03  6048   0.948E-03-0.120E-04
CGA:  10    -0.369347186262E+03   -0.31131E-03   -0.31674E-03  6048   0.399E-03-0.183E-03
CGA:  11    -0.369347286731E+03   -0.10047E-03   -0.10099E-03  6048   0.156E-03-0.808E-04
CGA:  12    -0.369347331977E+03   -0.45246E-04   -0.52454E-04  6048   0.112E-03-0.640E-04
CGA:  13    -0.369347338117E+03   -0.61404E-05   -0.10695E-04  6048   0.569E-04 0.299E-04
  74 F= -.36934734E+03 E0= -.36934734E+03  d E =-.386907E+00  mag=    20.0000
       N       E                     dE             d eps       ncg     rms          ort
SDA:   1    -0.367792350262E+03    0.15550E+01    0.00000E+00  6048   0.431E+01 0.000E+00
CGA:   2    -0.369115203263E+03   -0.13229E+01   -0.13227E+01  6048   0.120E+01 0.975E-02
CGA:   3    -0.369415485371E+03   -0.30028E+00   -0.30062E+00  6048   0.411E+00 0.713E-02
CGA:   4    -0.369480185598E+03   -0.64700E-01   -0.64605E-01  6048   0.102E+00-0.124E-02
CGA:   5    -0.369501498011E+03   -0.21312E-01   -0.21071E-01  6048   0.346E-01-0.304E-02
CGA:   6    -0.369509140039E+03   -0.76420E-02   -0.75626E-02  6048   0.158E-01-0.138E-02
CGA:   7    -0.369512544488E+03   -0.34044E-02   -0.34227E-02  6048   0.550E-02 0.333E-03
CGA:   8    -0.369513883763E+03   -0.13393E-02   -0.13621E-02  6048   0.197E-02 0.646E-03
CGA:   9    -0.369514488140E+03   -0.60438E-03   -0.60435E-03  6048   0.721E-03-0.195E-04
CGA:  10    -0.369514726821E+03   -0.23868E-03   -0.25747E-03  6048   0.393E-03-0.222E-03
CGA:  11    -0.369514810651E+03   -0.83830E-04   -0.97377E-04  6048   0.227E-03-0.174E-03
CGA:  12    -0.369514847162E+03   -0.36511E-04   -0.58553E-04  6048   0.195E-03-0.123E-03
CGA:  13    -0.369514862735E+03   -0.15573E-04   -0.27970E-04  6048   0.506E-04 0.829E-04
CGA:  14    -0.369514862558E+03    0.17643E-06   -0.76601E-05  6048   0.282E-04 0.437E-04
  75 F= -.36951486E+03 E0= -.36951486E+03  d E =-.167524E+00  mag=    20.0000
       N       E                     dE             d eps       ncg     rms          ort
SDA:   1    -0.368935264881E+03    0.57960E+00    0.00000E+00  6048   0.161E+01 0.000E+00
CGA:   2    -0.369424869480E+03   -0.48960E+00   -0.48943E+00  6048   0.467E+00 0.375E-02
CGA:   3    -0.369534782948E+03   -0.10991E+00   -0.11009E+00  6048   0.184E+00 0.451E-02
CGA:   4    -0.369563524371E+03   -0.28741E-01   -0.28682E-01  6048   0.400E-01-0.682E-03
CGA:   5    -0.369572118807E+03   -0.85944E-02   -0.84768E-02  6048   0.150E-01-0.228E-02
CGA:   6    -0.369575269879E+03   -0.31511E-02   -0.31064E-02  6048   0.656E-02-0.106E-02
CGA:   7    -0.369576606098E+03   -0.13362E-02   -0.13460E-02  6048   0.217E-02 0.248E-03
CGA:   8    -0.369577063285E+03   -0.45719E-03   -0.47798E-03  6048   0.720E-03 0.456E-03
CGA:   9    -0.369577290606E+03   -0.22732E-03   -0.22698E-03  6048   0.280E-03 0.710E-04
CGA:  10    -0.369577391499E+03   -0.10089E-03   -0.13667E-03  6048   0.340E-03-0.190E-03
CGA:  11    -0.369577446249E+03   -0.54750E-04   -0.56261E-04  6048   0.375E-04 0.150E-04
CGA:  12    -0.369577468968E+03   -0.22719E-04    0.45126E-04  6048   0.823E-05 0.528E-05
CGA:  13    -0.369577477414E+03   -0.84459E-05    0.16811E-05  6048   0.302E-05 0.303E-05
  76 F= -.36957748E+03 E0= -.36957748E+03  d E =-.626149E-01  mag=    20.0000
       N       E                     dE             d eps       ncg     rms          ort
SDA:   1    -0.369487372757E+03    0.90096E-01    0.00000E+00  6048   0.248E+00 0.000E+00
CGA:   2    -0.369559213912E+03   -0.71841E-01   -0.71804E-01  6048   0.923E-01 0.895E-03
CGA:   3    -0.369576367977E+03   -0.17154E-01   -0.17268E-01  6048   0.348E-01 0.161E-02
CGA:   4    -0.369582512927E+03   -0.61449E-02   -0.61516E-02  6048   0.782E-02 0.737E-04
CGA:   5    -0.369584156354E+03   -0.16434E-02   -0.16106E-02  6048   0.314E-02-0.796E-03
CGA:   6    -0.369584813804E+03   -0.65745E-03   -0.64971E-03  6048   0.148E-02-0.547E-03
CGA:   7    -0.369585063964E+03   -0.25016E-03   -0.25207E-03  6048   0.452E-03 0.503E-04
CGA:   8    -0.369585118794E+03   -0.54830E-04   -0.70934E-04  6048   0.157E-03 0.178E-03
CGA:   9    -0.369585139127E+03   -0.20333E-04   -0.30028E-04  6048   0.683E-04 0.961E-04
CGA:  10    -0.369584975261E+03    0.16387E-03   -0.90639E-04  6048   0.136E-02-0.211E-03
CGA:  11    -0.369585156355E+03   -0.18109E-03   -0.21111E-03  6048   0.876E-04 0.111E-03
CGA:  12    -0.369585187996E+03   -0.31642E-04   -0.30181E-04  6048   0.318E-04-0.158E-04
CGA:  13    -0.369585191720E+03   -0.37234E-05   -0.19773E-04  6048   0.907E-04-0.457E-04
CGA:  14    -0.369585195556E+03   -0.38366E-05   -0.13028E-04  6048   0.156E-04 0.328E-04
  77 F= -.36958520E+03 E0= -.36958520E+03  d E =-.771814E-02  mag=    20.0000
       N       E                     dE             d eps       ncg     rms          ort
SDA:   1    -0.369567502543E+03    0.17689E-01    0.00000E+00  6048   0.496E-01 0.000E+00
CGA:   2    -0.369579375204E+03   -0.11873E-01   -0.11912E-01  6048   0.252E-01 0.219E-03
CGA:   3    -0.369583563937E+03   -0.41887E-02   -0.43045E-02  6048   0.738E-02 0.519E-03
CGA:   4    -0.369584883269E+03   -0.13193E-02   -0.13446E-02  6048   0.183E-02 0.125E-03
CGA:   5    -0.369585271016E+03   -0.38775E-03   -0.35922E-03  6048   0.625E-03-0.165E-03
CGA:   6    -0.369585428702E+03   -0.15769E-03   -0.13935E-03  6048   0.338E-03-0.162E-03
CGA:   7    -0.369585476491E+03   -0.47789E-04   -0.48216E-04  6048   0.104E-03 0.257E-05
CGA:   8    -0.369585479110E+03   -0.26185E-05   -0.13094E-04  6048   0.411E-04 0.477E-04
  78 F= -.36958548E+03 E0= -.36958548E+03  d E =-.283553E-03  mag=    20.0000
       N       E                     dE             d eps       ncg     rms          ort
SDA:   1    -0.369501122762E+03    0.84354E-01    0.00000E+00  6048   0.257E+00 0.000E+00
CGA:   2    -0.369550027477E+03   -0.48905E-01   -0.48967E-01  6048   0.130E+00 0.206E-03
CGA:   3    -0.369574998831E+03   -0.24971E-01   -0.25147E-01  6048   0.414E-01 0.136E-02
CGA:   4    -0.369581854280E+03   -0.68554E-02   -0.69297E-02  6048   0.925E-02 0.499E-03
CGA:   5    -0.369583503964E+03   -0.16497E-02   -0.16413E-02  6048   0.253E-02-0.698E-04
CGA:   6    -0.369584030394E+03   -0.52643E-03   -0.51696E-03  6048   0.848E-03-0.107E-03
CGA:   7    -0.369584202109E+03   -0.17172E-03   -0.17334E-03  6048   0.275E-03 0.205E-04
CGA:   8    -0.369584252568E+03   -0.50459E-04   -0.56118E-04  6048   0.873E-04 0.646E-04
CGA:   9    -0.369584273250E+03   -0.20682E-04   -0.22956E-04  6048   0.372E-04 0.325E-04
CGA:  10    -0.369584289629E+03   -0.16379E-04   -0.16387E-04  6048   0.251E-04-0.242E-06
CGA:  11    -0.369584281913E+03    0.77161E-05   -0.21565E-04  6048   0.110E-03-0.502E-04
CGA:  12    -0.369584299401E+03   -0.17488E-04   -0.19745E-04  6048   0.189E-04 0.172E-04
CGA:  13    -0.369584303414E+03   -0.40133E-05   -0.47686E-05  6048   0.716E-05 0.878E-05
  79 F= -.36958430E+03 E0= -.36958430E+03  d E =0.117570E-02  mag=    20.0000
       N       E                     dE             d eps       ncg     rms          ort
SDA:   1    -0.369530946488E+03    0.53353E-01    0.00000E+00  6048   0.150E+00 0.000E+00
CGA:   2    -0.369566984607E+03   -0.36038E-01   -0.36064E-01  6048   0.768E-01 0.350E-03
CGA:   3    -0.369580224604E+03   -0.13240E-01   -0.13289E-01  6048   0.219E-01 0.360E-03
CGA:   4    -0.369583912772E+03   -0.36882E-02   -0.36880E-02  6048   0.483E-02-0.924E-05
CGA:   5    -0.369584731927E+03   -0.81915E-03   -0.83353E-03  6048   0.127E-02 0.129E-03
CGA:   6    -0.369584947845E+03   -0.21592E-03   -0.23300E-03  6048   0.358E-03 0.173E-03
CGA:   7    -0.369585029697E+03   -0.81852E-04   -0.86078E-04  6048   0.136E-03 0.698E-04
CGA:   8    -0.369585083807E+03   -0.54110E-04   -0.56508E-04  6048   0.113E-03-0.303E-04
CGA:   9    -0.369585101885E+03   -0.18078E-04   -0.18503E-04  6048   0.516E-04 0.684E-05
CGA:  10    -0.369585106591E+03   -0.47056E-05   -0.74692E-05  6048   0.227E-04 0.207E-04
  80 F= -.36958511E+03 E0= -.36958511E+03  d E =-.803177E-03  mag=    20.0000
       N       E                     dE             d eps       ncg     rms          ort
SDA:   1    -0.369397917729E+03    0.18718E+00    0.00000E+00  6048   0.509E+00 0.000E+00
CGA:   2    -0.369518762393E+03   -0.12084E+00   -0.12087E+00  6048   0.268E+00 0.112E-02
CGA:   3    -0.369565533112E+03   -0.46771E-01   -0.46833E-01  6048   0.763E-01 0.615E-03
CGA:   4    -0.369578250579E+03   -0.12717E-01   -0.12704E-01  6048   0.165E-01-0.183E-03
CGA:   5    -0.369581061741E+03   -0.28112E-02   -0.28267E-02  6048   0.444E-02 0.202E-03
CGA:   6    -0.369581879674E+03   -0.81793E-03   -0.83771E-03  6048   0.131E-02 0.348E-03
CGA:   7    -0.369582187997E+03   -0.30832E-03   -0.31113E-03  6048   0.481E-03 0.142E-03
CGA:   8    -0.369582353557E+03   -0.16556E-03   -0.17040E-03  6048   0.312E-03-0.604E-04
CGA:   9    -0.369582423062E+03   -0.69505E-04   -0.69319E-04  6048   0.128E-03 0.168E-04
CGA:  10    -0.369582444048E+03   -0.20986E-04   -0.23977E-04  6048   0.486E-04 0.457E-04
CGA:  11    -0.369582453281E+03   -0.92331E-05   -0.11066E-04  6048   0.210E-04 0.251E-04
CGA:  12    -0.369582412988E+03    0.40293E-04   -0.22828E-04  6048   0.328E-03-0.555E-04
CGA:  13    -0.369582462242E+03   -0.49254E-04   -0.57538E-04  6048   0.219E-04 0.322E-04
CGA:  14    -0.369582472259E+03   -0.10016E-04   -0.14197E-04  6048   0.362E-04-0.244E-04
CGA:  15    -0.369582477766E+03   -0.55070E-05   -0.71164E-05  6048   0.239E-05 0.696E-05
CGA:  16    -0.369582424937E+03    0.52829E-04   -0.28728E-04  6048   0.221E-03-0.269E-04
CGA:  17    -0.369582462995E+03   -0.38059E-04   -0.54257E-04  6048   0.118E-04 0.315E-04
CGA:  18    -0.369582483408E+03   -0.20412E-04    0.14646E-03  6048   0.367E-04-0.220E-04
CGA:  19    -0.369582479619E+03    0.37882E-05   -0.53973E-05  6048   0.759E-05 0.157E-04
  81 F= -.36958248E+03 E0= -.36958248E+03  d E =0.262697E-02  mag=    20.0000
       N       E                     dE             d eps       ncg     rms          ort
SDA:   1    -0.369555726117E+03    0.26757E-01    0.00000E+00  6048   0.735E-01 0.000E+00
CGA:   2    -0.369575500900E+03   -0.19775E-01   -0.19749E-01  6048   0.337E-01-0.128E-03
CGA:   3    -0.369581613337E+03   -0.61124E-02   -0.61393E-02  6048   0.110E-01 0.330E-04
CGA:   4    -0.369583450929E+03   -0.18376E-02   -0.18761E-02  6048   0.244E-02 0.792E-04
CGA:   5    -0.369583933121E+03   -0.48219E-03   -0.46775E-03  6048   0.805E-03-0.357E-04
CGA:   6    -0.369584133431E+03   -0.20031E-03   -0.17460E-03  6048   0.334E-03-0.704E-04
CGA:   7    -0.369584215451E+03   -0.82020E-04   -0.75904E-04  6048   0.140E-03-0.192E-04
CGA:   8    -0.369584235308E+03   -0.19858E-04   -0.27227E-04  6048   0.437E-04 0.213E-04
CGA:   9    -0.369584244500E+03   -0.91917E-05   -0.11974E-04  6048   0.165E-04 0.933E-05
  82 F= -.36958424E+03 E0= -.36958424E+03  d E =-.176488E-02  mag=    20.0000
       N       E                     dE             d eps       ncg     rms          ort
SDA:   1    -0.369577829916E+03    0.64054E-02    0.00000E+00  6048   0.213E-01 0.000E+00
CGA:   2    -0.369582189468E+03   -0.43596E-02   -0.43571E-02  6048   0.111E-01-0.258E-04
CGA:   3    -0.369584333899E+03   -0.21444E-02   -0.20919E-02  6048   0.367E-02-0.174E-03
CGA:   4    -0.369584944049E+03   -0.61015E-03   -0.59258E-03  6048   0.914E-03-0.564E-04
CGA:   5    -0.369585096283E+03   -0.15223E-03   -0.14871E-03  6048   0.244E-03-0.120E-04
CGA:   6    -0.369585152487E+03   -0.56204E-04   -0.51888E-04  6048   0.861E-04-0.182E-04
CGA:   7    -0.369585176132E+03   -0.23645E-04   -0.21085E-04  6048   0.405E-04-0.145E-04
CGA:   8    -0.369585183118E+03   -0.69865E-05   -0.74350E-05  6048   0.130E-04 0.210E-05
  83 F= -.36958518E+03 E0= -.36958518E+03  d E =-.938618E-03  mag=    20.0000
       N       E                     dE             d eps       ncg     rms          ort
SDA:   1    -0.369571658989E+03    0.13517E-01    0.00000E+00  6048   0.440E-01 0.000E+00
CGA:   2    -0.369579530790E+03   -0.78718E-02   -0.79081E-02  6048   0.213E-01 0.115E-03
CGA:   3    -0.369584009617E+03   -0.44788E-02   -0.44208E-02  6048   0.750E-02-0.313E-03
CGA:   4    -0.369585287253E+03   -0.12776E-02   -0.12351E-02  6048   0.168E-02-0.194E-03
CGA:   5    -0.369585585866E+03   -0.29861E-03   -0.28727E-03  6048   0.470E-03-0.562E-04
CGA:   6    -0.369585684038E+03   -0.98173E-04   -0.93711E-04  6048   0.155E-03-0.276E-04
CGA:   7    -0.369585717931E+03   -0.33892E-04   -0.32754E-04  6048   0.535E-04-0.837E-05
CGA:   8    -0.369585727833E+03   -0.99025E-05   -0.10735E-04  6048   0.159E-04 0.582E-05
  84 F= -.36958573E+03 E0= -.36958573E+03  d E =-.544715E-03  mag=    20.0000
