 vasp.6.1.2 22Jul20 (build Mar 19 2021 09:51:12) complex                        
  
 executed on             LinuxIFC date 2021.07.24  18:41:02
 running on   12 total cores
 distrk:  each k-point on   12 cores,    1 groups
 distr:  one band on NCORE=   4 cores,    3 groups


--------------------------------------------------------------------------------------------------------


 INCAR:
 POTCAR:    PAW_PBE Ca_sv 06Sep2000               
 POTCAR:    PAW_PBE Mn_pv 02Aug2007               
 POTCAR:    PAW_PBE O 08Apr2002                   
 POTCAR:    PAW_PBE Ca_sv 06Sep2000               
   VRHFIN =Ca: 3s3p4s                                                                               
   LEXCH  = PE                                                                                      
   EATOM  =  1006.0909 eV,   73.9456 Ry                                                             
                                                                                                    
   TITEL  = PAW_PBE Ca_sv 06Sep2000                                                                 
   LULTRA =        F    use ultrasoft PP ?                                                          
   IUNSCR =        1    unscreen: 0-lin 1-nonlin 2-no                                               
   RPACOR =    2.000    partial core radius                                                         
   POMASS =   40.078; ZVAL   =   10.000    mass and valenz                                          
   RCORE  =    2.300    outmost cutoff radius                                                       
   RWIGS  =    2.500; RWIGS  =    1.323    wigner-seitz radius (au A)                               
   ENMAX  =  266.622; ENMIN  =  199.967 eV                                                          
   RCLOC  =    1.808    cutoff for local pot                                                        
   LCOR   =        T    correct aug charges                                                         
   LPAW   =        T    paw PP                                                                      
   EAUG   =  420.852                                                                                
   RMAX   =    2.359    core radius for proj-oper                                                   
   RAUG   =    1.300    factor for augmentation sphere                                              
   RDEP   =    2.392    radius for radial grids                                                     
   RDEPT  =    1.987    core radius for aug-charge                                                  
                                                                                                    
   Atomic configuration                                                                             
    7 entries                                                                                       
     n  l   j            E        occ.                                                              
     1  0  0.50     -3949.1705   2.0000                                                             
     2  0  0.50      -414.3434   2.0000                                                             
     2  1  1.50      -334.7047   6.0000                                                             
     3  0  0.50       -47.0896   2.0000                                                             
     4  0  0.50        -3.7663   2.0000                                                             
     3  1  1.50       -28.0061   6.0000                                                             
     3  2  1.50        -4.0817   0.0000                                                             
   Description                                                                                      
     l       E           TYP  RCUT    TYP  RCUT                                                     
     0    -47.0896403     23  2.300                                                                 
     0     -3.7663320     23  2.300                                                                 
     1    -28.0060855     23  2.300                                                                 
     1      6.8029130     23  2.300                                                                 
     2     -4.0817478     23  2.300                                                                 
     2      0.4464412     23  2.300                                                                 
  local pseudopotential read in
  partial core-charges read in
  partial kinetic energy density read in
  atomic valenz-charges read in
  non local Contribution for L=           0  read in
    real space projection operators read in
  non local Contribution for L=           0  read in
    real space projection operators read in
  non local Contribution for L=           1  read in
    real space projection operators read in
  non local Contribution for L=           1  read in
    real space projection operators read in
  non local Contribution for L=           2  read in
    real space projection operators read in
  non local Contribution for L=           2  read in
    real space projection operators read in
    PAW grid and wavefunctions read in
 
   number of l-projection  operators is LMAX  =           6
   number of lm-projection operators is LMMAX =          18
 
 POTCAR:    PAW_PBE Mn_pv 02Aug2007               
   VRHFIN =Mn: 3p4s3d                                                                               
   LEXCH  = PE                                                                                      
   EATOM  =  2025.2664 eV,  148.8529 Ry                                                             
                                                                                                    
   TITEL  = PAW_PBE Mn_pv 02Aug2007                                                                 
   LULTRA =        F    use ultrasoft PP ?                                                          
   IUNSCR =        1    unscreen: 0-lin 1-nonlin 2-no                                               
   RPACOR =    2.080    partial core radius                                                         
   POMASS =   54.938; ZVAL   =   13.000    mass and valenz                                          
   RCORE  =    2.300    outmost cutoff radius                                                       
   RWIGS  =    2.500; RWIGS  =    1.323    wigner-seitz radius (au A)                               
   ENMAX  =  269.864; ENMIN  =  202.398 eV                                                          
   ICORE  =        3    local potential                                                             
   LCOR   =        T    correct aug charges                                                         
   LPAW   =        T    paw PP                                                                      
   EAUG   =  569.085                                                                                
   DEXC   =    0.000                                                                                
   RMAX   =    2.343    core radius for proj-oper                                                   
   RAUG   =    1.300    factor for augmentation sphere                                              
   RDEP   =    2.338    radius for radial grids                                                     
   RDEPT  =    1.798    core radius for aug-charge                                                  
                                                                                                    
   Atomic configuration                                                                             
    8 entries                                                                                       
     n  l   j            E        occ.                                                              
     1  0  0.50     -6424.8287   2.0000                                                             
     2  0  0.50      -739.1154   2.0000                                                             
     2  1  1.50      -625.3949   6.0000                                                             
     3  0  0.50       -81.6100   2.0000                                                             
     3  1  1.50       -50.4667   6.0000                                                             
     3  2  2.50        -3.3745   6.0000                                                             
     4  0  0.50        -4.1331   1.0000                                                             
     4  3  2.50        -1.3606   0.0000                                                             
   Description                                                                                      
     l       E           TYP  RCUT    TYP  RCUT                                                     
     1    -50.4666628     23  2.000                                                                 
     1     -1.3605826     23  2.000                                                                 
     2     -3.3744729     23  2.300                                                                 
     2     -4.7350555     23  2.300                                                                 
     0     -4.1331431     23  2.300                                                                 
     0      7.6656591     23  2.300                                                                 
     3      9.5240782     23  2.300                                                                 
  local pseudopotential read in
  partial core-charges read in
  partial kinetic energy density read in
  atomic valenz-charges read in
  non local Contribution for L=           1  read in
    real space projection operators read in
  non local Contribution for L=           1  read in
    real space projection operators read in
  non local Contribution for L=           2  read in
    real space projection operators read in
  non local Contribution for L=           2  read in
    real space projection operators read in
  non local Contribution for L=           0  read in
    real space projection operators read in
  non local Contribution for L=           0  read in
    real space projection operators read in
    PAW grid and wavefunctions read in
 
   number of l-projection  operators is LMAX  =           6
   number of lm-projection operators is LMMAX =          18
 
 POTCAR:    PAW_PBE O 08Apr2002                   
   VRHFIN =O: s2p4                                                                                  
   LEXCH  = PE                                                                                      
   EATOM  =   432.3788 eV,   31.7789 Ry                                                             
                                                                                                    
   TITEL  = PAW_PBE O 08Apr2002                                                                     
   LULTRA =        F    use ultrasoft PP ?                                                          
   IUNSCR =        1    unscreen: 0-lin 1-nonlin 2-no                                               
   RPACOR =    1.200    partial core radius                                                         
   POMASS =   16.000; ZVAL   =    6.000    mass and valenz                                          
   RCORE  =    1.520    outmost cutoff radius                                                       
   RWIGS  =    1.550; RWIGS  =    0.820    wigner-seitz radius (au A)                               
   ENMAX  =  400.000; ENMIN  =  300.000 eV                                                          
   ICORE  =        2    local potential                                                             
   LCOR   =        T    correct aug charges                                                         
   LPAW   =        T    paw PP                                                                      
   EAUG   =  605.392                                                                                
   DEXC   =    0.000                                                                                
   RMAX   =    1.553    core radius for proj-oper                                                   
   RAUG   =    1.300    factor for augmentation sphere                                              
   RDEP   =    1.550    radius for radial grids                                                     
   RDEPT  =    1.329    core radius for aug-charge                                                  
                                                                                                    
   Atomic configuration                                                                             
    4 entries                                                                                       
     n  l   j            E        occ.                                                              
     1  0  0.50      -514.6923   2.0000                                                             
     2  0  0.50       -23.9615   2.0000                                                             
     2  1  0.50        -9.0305   4.0000                                                             
     3  2  1.50        -9.5241   0.0000                                                             
   Description                                                                                      
     l       E           TYP  RCUT    TYP  RCUT                                                     
     0    -23.9615318     23  1.200                                                                 
     0     -9.5240782     23  1.200                                                                 
     1     -9.0304911     23  1.520                                                                 
     1      8.1634956     23  1.520                                                                 
     2     -9.5240782      7  1.500                                                                 
  local pseudopotential read in
  partial core-charges read in
  partial kinetic energy density read in
  kinetic energy density of atom read in
  atomic valenz-charges read in
  non local Contribution for L=           0  read in
    real space projection operators read in
  non local Contribution for L=           0  read in
    real space projection operators read in
  non local Contribution for L=           1  read in
    real space projection operators read in
  non local Contribution for L=           1  read in
    real space projection operators read in
    PAW grid and wavefunctions read in
 
   number of l-projection  operators is LMAX  =           4
   number of lm-projection operators is LMMAX =           8
 
 Optimization of the real space projectors (new method)

 maximal supplied QI-value         = 16.25
 optimisation between [QCUT,QGAM] = [ 11.54, 23.24] = [ 37.28,151.24] Ry 
 Optimized for a Real-space Cutoff    1.58 Angstroem

   l    n(q)    QCUT    max X(q) W(low)/X(q) W(high)/X(q)  e(spline) 
   0     11    11.539    11.817    0.25E-04    0.22E-05    0.26E-07
   0     11    11.539     8.461    0.39E-04    0.49E-05    0.55E-07
   1     11    11.539     3.957    0.21E-05    0.44E-05    0.32E-07
   1     11    11.539     4.314    0.56E-04    0.44E-04    0.19E-06
   2     10    11.539    14.565    0.25E-03    0.21E-04    0.75E-06
   2     10    11.539    14.552    0.23E-03    0.22E-04    0.72E-06
 Optimization of the real space projectors (new method)

 maximal supplied QI-value         = 16.25
 optimisation between [QCUT,QGAM] = [ 11.54, 23.24] = [ 37.28,151.24] Ry 
 Optimized for a Real-space Cutoff    1.45 Angstroem

   l    n(q)    QCUT    max X(q) W(low)/X(q) W(high)/X(q)  e(spline) 
   1     10    11.539     3.658    0.56E-04    0.12E-03    0.13E-06
   1     10    11.539     5.612    0.11E-03    0.23E-03    0.24E-06
   2      9    11.539    55.373    0.45E-04    0.92E-04    0.22E-06
   2      9    11.539    50.863    0.47E-04    0.95E-04    0.22E-06
   0     10    11.539    79.536    0.46E-04    0.27E-04    0.11E-06
   0     10    11.539    38.668    0.38E-04    0.25E-04    0.10E-06
 Optimization of the real space projectors (new method)

 maximal supplied QI-value         = 24.76
 optimisation between [QCUT,QGAM] = [ 11.64, 23.27] = [ 37.91,151.63] Ry 
 Optimized for a Real-space Cutoff    1.14 Angstroem

   l    n(q)    QCUT    max X(q) W(low)/X(q) W(high)/X(q)  e(spline) 
   0      8    11.635    20.381    0.10E-03    0.33E-03    0.24E-06
   0      8    11.635    15.268    0.11E-03    0.35E-03    0.26E-06
   1      7    11.635     5.964    0.24E-03    0.31E-03    0.30E-06
   1      7    11.635     5.382    0.22E-03    0.25E-03    0.26E-06
  PAW_PBE Ca_sv 06Sep2000               :
 energy of atom  1       EATOM=-1006.0909
 kinetic energy error for atom=    0.0022 (will be added to EATOM!!)
  PAW_PBE Mn_pv 02Aug2007               :
 energy of atom  2       EATOM=-2025.2664
 kinetic energy error for atom=    0.0058 (will be added to EATOM!!)
  PAW_PBE O 08Apr2002                   :
 energy of atom  3       EATOM= -432.3788
 kinetic energy error for atom=    0.0208 (will be added to EATOM!!)
 
 
 POSCAR: Ca4 Mn4 O12
  positions in direct lattice
  velocities in cartesian coordinates

 METAGGA = SCAN     LMAXTAU =  6    LMIXTAU =  F

 exchange correlation table for  LEXCH =        8
   RHO(1)=    0.500       N(1)  =     2000
   RHO(2)=  100.500       N(2)  =     4000
 


--------------------------------------------------------------------------------------------------------


 ion  position               nearest neighbor table
   1  0.537  0.250  0.507-  10 2.32  20 2.33  14 2.33   9 2.42  19 2.56  13 2.56   7 3.08   5 3.08

   2  0.037  0.250  0.993-   9 2.32  19 2.33  13 2.33  10 2.42  14 2.56  20 2.56   6 3.08   8 3.08

   3  0.463  0.750  0.493-  12 2.32  16 2.33  18 2.33  11 2.42  17 2.56  15 2.56   5 3.08   7 3.08

   4  0.963  0.750  0.007-  11 2.32  15 2.33  17 2.33  12 2.42  18 2.56  16 2.56   8 3.08   6 3.08

   5  0.000  1.000  0.500-  11 1.90   9 1.90  20 1.90  16 1.91  17 1.91  13 1.91   3 3.08   1 3.08

   6  0.500  0.500  0.000-  12 1.90  10 1.90  19 1.90  15 1.91  18 1.91  14 1.91   4 3.08   2 3.08

   7  0.000  0.500  0.500-  11 1.90   9 1.90  14 1.90  18 1.91  15 1.91  19 1.91   3 3.08   1 3.08

   8  0.500  1.000  0.000-  12 1.90  10 1.90  13 1.90  17 1.91  16 1.91  20 1.91   4 3.08   2 3.08

   9  0.988  0.250  0.431-   5 1.90   7 1.90   2 2.32   1 2.42
  10  0.488  0.250  0.069-   6 1.90   8 1.90   1 2.32   2 2.42
  11  0.012  0.750  0.569-   5 1.90   7 1.90   4 2.32   3 2.42
  12  0.512  0.750  0.931-   6 1.90   8 1.90   3 2.32   4 2.42
  13  0.789  0.035  0.789-   8 1.90   5 1.91   2 2.33   1 2.56
  14  0.289  0.465  0.711-   7 1.90   6 1.91   1 2.33   2 2.56
  15  0.211  0.535  0.211-   6 1.91   7 1.91   4 2.33   3 2.56
  16  0.711  0.965  0.289-   5 1.91   8 1.91   3 2.33   4 2.56
  17  0.211  0.965  0.211-   8 1.91   5 1.91   4 2.33   3 2.56
  18  0.711  0.535  0.289-   7 1.91   6 1.91   3 2.33   4 2.56
  19  0.789  0.465  0.789-   6 1.90   7 1.91   2 2.33   1 2.56
  20  0.289  0.035  0.711-   5 1.90   8 1.91   1 2.33   2 2.56
 

IMPORTANT INFORMATION: All symmetrisations will be switched off!
NOSYMM: (Re-)initialisation of all symmetry stuff for point group C_1.


----------------------------------------------------------------------------------------

                                     Primitive cell                                     

  volume of cell :     207.5732

  direct lattice vectors                    reciprocal lattice vectors
     5.289838544  0.000000085 -0.000000011     0.189041687 -0.000000003  0.000000000
     0.000000125  7.452132901  0.000000559    -0.000000002  0.134189770 -0.000000010
    -0.000000013  0.000000399  5.265606181     0.000000000 -0.000000014  0.189911658

  length of vectors
     5.289838544  7.452132901  5.265606181     0.189041687  0.134189770  0.189911658

  position of ions in fractional coordinates (direct lattice)
     0.537483209  0.250000025  0.507140194
     0.037483178  0.250000028  0.992859817
     0.462515341  0.749999986  0.492872217
     0.962515333  0.749999973  0.007127774
     0.000050288  0.999989576  0.499977792
     0.500050126  0.500010400  0.000022161
     0.000050162  0.500010398  0.499977857
     0.500050306  0.999989587  0.000022188
     0.987827060  0.249999940  0.430730518
     0.487827051  0.250000087  0.069269499
     0.012131616  0.750000059  0.569249814
     0.512131596  0.749999920  0.930750180
     0.788548315  0.035478265  0.789413205
     0.288548206  0.464521764  0.710586872
     0.211423055  0.535481481  0.210575743
     0.711423022  0.964518504  0.289424324
     0.211422898  0.964518492  0.210575804
     0.711422953  0.535481482  0.289424096
     0.788548096  0.464521760  0.789413309
     0.288548190  0.035478273  0.710586634

  ion indices of the primitive-cell ions
   primitive index   ion index
                 1           1
                 2           2
                 3           3
                 4           4
                 5           5
                 6           6
                 7           7
                 8           8
                 9           9
                10          10
                11          11
                12          12
                13          13
                14          14
                15          15
                16          16
                17          17
                18          18
                19          19
                20          20

----------------------------------------------------------------------------------------

 
 
 KPOINTS: K-points file                           

Automatic generation of k-mesh.
Space group operators:
 irot       det(A)        alpha          n_x          n_y          n_z        tau_x        tau_y        tau_z
    1     1.000000     0.000000     1.000000     0.000000     0.000000     0.000000     0.000000     0.000000
 
 Subroutine IBZKPT returns following result:
 ===========================================
 
 Found    123 irreducible k-points:
 
 Following reciprocal coordinates:
            Coordinates               Weight
  0.000000  0.000000  0.000000      1.000000
  0.142857  0.000000 -0.000000      2.000000
  0.285714 -0.000000  0.000000      2.000000
  0.428571  0.000000 -0.000000      2.000000
 -0.000000  0.200000 -0.000000      2.000000
  0.142857  0.200000 -0.000000      2.000000
  0.142857 -0.200000 -0.000000      2.000000
  0.285714  0.200000  0.000000      2.000000
  0.285714 -0.200000 -0.000000      2.000000
  0.428571  0.200000 -0.000000      2.000000
  0.428571 -0.200000 -0.000000      2.000000
  0.000000  0.400000 -0.000000      2.000000
  0.142857  0.400000 -0.000000      2.000000
  0.142857 -0.400000  0.000000      2.000000
  0.285714  0.400000  0.000000      2.000000
  0.285714 -0.400000 -0.000000      2.000000
  0.428571  0.400000 -0.000000      2.000000
  0.428571 -0.400000 -0.000000      2.000000
  0.000000 -0.000000  0.142857      2.000000
  0.142857 -0.000000  0.142857      2.000000
 -0.142857  0.000000  0.142857      2.000000
  0.285714 -0.000000  0.142857      2.000000
 -0.285714 -0.000000  0.142857      2.000000
  0.428571 -0.000000  0.142857      2.000000
 -0.428571 -0.000000  0.142857      2.000000
 -0.000000  0.200000  0.142857      2.000000
  0.000000 -0.200000  0.142857      2.000000
  0.142857  0.200000  0.142857      2.000000
 -0.142857 -0.200000  0.142857      2.000000
  0.142857 -0.200000 -0.142857      2.000000
 -0.142857  0.200000 -0.142857      2.000000
  0.285714  0.200000  0.142857      2.000000
 -0.285714 -0.200000  0.142857      2.000000
  0.285714 -0.200000 -0.142857      2.000000
 -0.285714  0.200000 -0.142857      2.000000
  0.428571  0.200000  0.142857      2.000000
 -0.428571 -0.200000  0.142857      2.000000
  0.428571 -0.200000 -0.142857      2.000000
 -0.428571  0.200000 -0.142857      2.000000
 -0.000000  0.400000  0.142857      2.000000
 -0.000000 -0.400000  0.142857      2.000000
  0.142857  0.400000  0.142857      2.000000
 -0.142857 -0.400000  0.142857      2.000000
  0.142857 -0.400000 -0.142857      2.000000
 -0.142857  0.400000 -0.142857      2.000000
  0.285714  0.400000  0.142857      2.000000
 -0.285714 -0.400000  0.142857      2.000000
  0.285714 -0.400000 -0.142857      2.000000
 -0.285714  0.400000 -0.142857      2.000000
  0.428571  0.400000  0.142857      2.000000
 -0.428571 -0.400000  0.142857      2.000000
  0.428571 -0.400000 -0.142857      2.000000
 -0.428571  0.400000 -0.142857      2.000000
  0.000000 -0.000000  0.285714      2.000000
  0.142857 -0.000000  0.285714      2.000000
 -0.142857 -0.000000  0.285714      2.000000
  0.285714 -0.000000  0.285714      2.000000
 -0.285714  0.000000  0.285714      2.000000
  0.428571  0.000000  0.285714      2.000000
 -0.428571 -0.000000  0.285714      2.000000
 -0.000000  0.200000  0.285714      2.000000
  0.000000 -0.200000  0.285714      2.000000
  0.142857  0.200000  0.285714      2.000000
 -0.142857 -0.200000  0.285714      2.000000
  0.142857 -0.200000 -0.285714      2.000000
 -0.142857  0.200000 -0.285714      2.000000
  0.285714  0.200000  0.285714      2.000000
 -0.285714 -0.200000  0.285714      2.000000
  0.285714 -0.200000 -0.285714      2.000000
 -0.285714  0.200000 -0.285714      2.000000
  0.428571  0.200000  0.285714      2.000000
 -0.428571 -0.200000  0.285714      2.000000
  0.428571 -0.200000 -0.285714      2.000000
 -0.428571  0.200000 -0.285714      2.000000
 -0.000000  0.400000  0.285714      2.000000
  0.000000 -0.400000  0.285714      2.000000
  0.142857  0.400000  0.285714      2.000000
 -0.142857 -0.400000  0.285714      2.000000
  0.142857 -0.400000 -0.285714      2.000000
 -0.142857  0.400000 -0.285714      2.000000
  0.285714  0.400000  0.285714      2.000000
 -0.285714 -0.400000  0.285714      2.000000
  0.285714 -0.400000 -0.285714      2.000000
 -0.285714  0.400000 -0.285714      2.000000
  0.428571  0.400000  0.285714      2.000000
 -0.428571 -0.400000  0.285714      2.000000
  0.428571 -0.400000 -0.285714      2.000000
 -0.428571  0.400000 -0.285714      2.000000
  0.000000  0.000000  0.428571      2.000000
  0.142857  0.000000  0.428571      2.000000
 -0.142857 -0.000000  0.428571      2.000000
  0.285714  0.000000  0.428571      2.000000
 -0.285714 -0.000000  0.428571      2.000000
  0.428571 -0.000000  0.428571      2.000000
 -0.428571 -0.000000  0.428571      2.000000
 -0.000000  0.200000  0.428571      2.000000
  0.000000 -0.200000  0.428571      2.000000
  0.142857  0.200000  0.428571      2.000000
 -0.142857 -0.200000  0.428571      2.000000
  0.142857 -0.200000 -0.428571      2.000000
 -0.142857  0.200000 -0.428571      2.000000
  0.285714  0.200000  0.428571      2.000000
 -0.285714 -0.200000  0.428571      2.000000
  0.285714 -0.200000 -0.428571      2.000000
 -0.285714  0.200000 -0.428571      2.000000
  0.428571  0.200000  0.428571      2.000000
 -0.428571 -0.200000  0.428571      2.000000
  0.428571 -0.200000 -0.428571      2.000000
 -0.428571  0.200000 -0.428571      2.000000
 -0.000000  0.400000  0.428571      2.000000
 -0.000000 -0.400000  0.428571      2.000000
  0.142857  0.400000  0.428571      2.000000
 -0.142857 -0.400000  0.428571      2.000000
  0.142857 -0.400000 -0.428571      2.000000
 -0.142857  0.400000 -0.428571      2.000000
  0.285714  0.400000  0.428571      2.000000
 -0.285714 -0.400000  0.428571      2.000000
  0.285714 -0.400000 -0.428571      2.000000
 -0.285714  0.400000 -0.428571      2.000000
  0.428571  0.400000  0.428571      2.000000
 -0.428571 -0.400000  0.428571      2.000000
  0.428571 -0.400000 -0.428571      2.000000
 -0.428571  0.400000 -0.428571      2.000000
 
 Following cartesian coordinates:
            Coordinates               Weight
  0.000000  0.000000  0.000000      1.000000
  0.027006 -0.000000  0.000000      2.000000
  0.054012 -0.000000  0.000000      2.000000
  0.081018 -0.000000  0.000000      2.000000
 -0.000000  0.026838 -0.000000      2.000000
  0.027006  0.026838 -0.000000      2.000000
  0.027006 -0.026838  0.000000      2.000000
  0.054012  0.026838 -0.000000      2.000000
  0.054012 -0.026838  0.000000      2.000000
  0.081018  0.026838 -0.000000      2.000000
  0.081018 -0.026838  0.000000      2.000000
 -0.000000  0.053676 -0.000000      2.000000
  0.027006  0.053676 -0.000000      2.000000
  0.027006 -0.053676  0.000000      2.000000
  0.054012  0.053676 -0.000000      2.000000
  0.054012 -0.053676  0.000000      2.000000
  0.081018  0.053676 -0.000000      2.000000
  0.081018 -0.053676  0.000000      2.000000
  0.000000 -0.000000  0.027130      2.000000
  0.027006 -0.000000  0.027130      2.000000
 -0.027006 -0.000000  0.027130      2.000000
  0.054012 -0.000000  0.027130      2.000000
 -0.054012 -0.000000  0.027130      2.000000
  0.081018 -0.000000  0.027130      2.000000
 -0.081018 -0.000000  0.027130      2.000000
 -0.000000  0.026838  0.027130      2.000000
  0.000000 -0.026838  0.027130      2.000000
  0.027006  0.026838  0.027130      2.000000
 -0.027006 -0.026838  0.027130      2.000000
  0.027006 -0.026838 -0.027130      2.000000
 -0.027006  0.026838 -0.027130      2.000000
  0.054012  0.026838  0.027130      2.000000
 -0.054012 -0.026838  0.027130      2.000000
  0.054012 -0.026838 -0.027130      2.000000
 -0.054012  0.026838 -0.027130      2.000000
  0.081018  0.026838  0.027130      2.000000
 -0.081018 -0.026838  0.027130      2.000000
  0.081018 -0.026838 -0.027130      2.000000
 -0.081018  0.026838 -0.027130      2.000000
 -0.000000  0.053676  0.027130      2.000000
  0.000000 -0.053676  0.027130      2.000000
  0.027006  0.053676  0.027130      2.000000
 -0.027006 -0.053676  0.027130      2.000000
  0.027006 -0.053676 -0.027130      2.000000
 -0.027006  0.053676 -0.027130      2.000000
  0.054012  0.053676  0.027130      2.000000
 -0.054012 -0.053676  0.027130      2.000000
  0.054012 -0.053676 -0.027130      2.000000
 -0.054012  0.053676 -0.027130      2.000000
  0.081018  0.053676  0.027130      2.000000
 -0.081018 -0.053676  0.027130      2.000000
  0.081018 -0.053676 -0.027130      2.000000
 -0.081018  0.053676 -0.027130      2.000000
  0.000000 -0.000000  0.054260      2.000000
  0.027006 -0.000000  0.054260      2.000000
 -0.027006 -0.000000  0.054260      2.000000
  0.054012 -0.000000  0.054260      2.000000
 -0.054012 -0.000000  0.054260      2.000000
  0.081018 -0.000000  0.054260      2.000000
 -0.081018 -0.000000  0.054260      2.000000
 -0.000000  0.026838  0.054260      2.000000
  0.000000 -0.026838  0.054260      2.000000
  0.027006  0.026838  0.054260      2.000000
 -0.027006 -0.026838  0.054260      2.000000
  0.027006 -0.026838 -0.054260      2.000000
 -0.027006  0.026838 -0.054260      2.000000
  0.054012  0.026838  0.054260      2.000000
 -0.054012 -0.026838  0.054260      2.000000
  0.054012 -0.026838 -0.054260      2.000000
 -0.054012  0.026838 -0.054260      2.000000
  0.081018  0.026838  0.054260      2.000000
 -0.081018 -0.026838  0.054260      2.000000
  0.081018 -0.026838 -0.054260      2.000000
 -0.081018  0.026838 -0.054260      2.000000
 -0.000000  0.053676  0.054260      2.000000
  0.000000 -0.053676  0.054260      2.000000
  0.027006  0.053676  0.054260      2.000000
 -0.027006 -0.053676  0.054260      2.000000
  0.027006 -0.053676 -0.054260      2.000000
 -0.027006  0.053676 -0.054260      2.000000
  0.054012  0.053676  0.054260      2.000000
 -0.054012 -0.053676  0.054260      2.000000
  0.054012 -0.053676 -0.054260      2.000000
 -0.054012  0.053676 -0.054260      2.000000
  0.081018  0.053676  0.054260      2.000000
 -0.081018 -0.053676  0.054260      2.000000
  0.081018 -0.053676 -0.054260      2.000000
 -0.081018  0.053676 -0.054260      2.000000
  0.000000 -0.000000  0.081391      2.000000
  0.027006 -0.000000  0.081391      2.000000
 -0.027006 -0.000000  0.081391      2.000000
  0.054012 -0.000000  0.081391      2.000000
 -0.054012 -0.000000  0.081391      2.000000
  0.081018 -0.000000  0.081391      2.000000
 -0.081018 -0.000000  0.081391      2.000000
 -0.000000  0.026838  0.081391      2.000000
  0.000000 -0.026838  0.081391      2.000000
  0.027006  0.026838  0.081391      2.000000
 -0.027006 -0.026838  0.081391      2.000000
  0.027006 -0.026838 -0.081391      2.000000
 -0.027006  0.026838 -0.081391      2.000000
  0.054012  0.026838  0.081391      2.000000
 -0.054012 -0.026838  0.081391      2.000000
  0.054012 -0.026838 -0.081391      2.000000
 -0.054012  0.026838 -0.081391      2.000000
  0.081018  0.026838  0.081391      2.000000
 -0.081018 -0.026838  0.081391      2.000000
  0.081018 -0.026838 -0.081391      2.000000
 -0.081018  0.026838 -0.081391      2.000000
 -0.000000  0.053676  0.081391      2.000000
  0.000000 -0.053676  0.081391      2.000000
  0.027006  0.053676  0.081391      2.000000
 -0.027006 -0.053676  0.081391      2.000000
  0.027006 -0.053676 -0.081391      2.000000
 -0.027006  0.053676 -0.081391      2.000000
  0.054012  0.053676  0.081391      2.000000
 -0.054012 -0.053676  0.081391      2.000000
  0.054012 -0.053676 -0.081391      2.000000
 -0.054012  0.053676 -0.081391      2.000000
  0.081018  0.053676  0.081391      2.000000
 -0.081018 -0.053676  0.081391      2.000000
  0.081018 -0.053676 -0.081391      2.000000
 -0.081018  0.053676 -0.081391      2.000000
 


--------------------------------------------------------------------------------------------------------




 Dimension of arrays:
   k-points           NKPTS =    123   k-points in BZ     NKDIM =    123   number of bands    NBANDS=    105
   number of dos      NEDOS =    301   number of ions     NIONS =     20
   non local maximal  LDIM  =      6   non local SUM 2l+1 LMDIM =     18
   total plane-waves  NPLWV =  89600
   max r-space proj   IRMAX =   7179   max aug-charges    IRDMAX=  20792
   dimension x,y,z NGX =    40 NGY =   56 NGZ =   40
   dimension x,y,z NGXF=    80 NGYF=  112 NGZF=   80
   support grid    NGXF=    80 NGYF=  112 NGZF=   80
   ions per type =               4   4  12
   NGX,Y,Z   is equivalent  to a cutoff of  12.57, 12.49, 12.63 a.u.
   NGXF,Y,Z  is equivalent  to a cutoff of  25.14, 24.99, 25.26 a.u.

 SYSTEM =  unknown system                          
 POSCAR =  Ca4 Mn4 O12                             

 Startparameter for this run:
   NWRITE =      2    write-flag & timer
   PREC   = accura    normal or accurate (medium, high low for compatibility)
   ISTART =      0    job   : 0-new  1-cont  2-samecut
   ICHARG =      1    charge: 1-file 2-atom 10-const
   ISPIN  =      2    spin polarized calculation?
   LNONCOLLINEAR =      F non collinear calculations
   LSORBIT =      F    spin-orbit coupling
   INIWAV =      1    electr: 0-lowe 1-rand  2-diag
   LASPH  =      T    aspherical Exc in radial PAW
   METAGGA=      F    non-selfconsistent MetaGGA calc.

 Electronic Relaxation 1
   ENCUT  =  520.0 eV  38.22 Ry    6.18 a.u.   9.84 13.86  9.79*2*pi/ulx,y,z
   ENINI  =  520.0     initial cutoff
   ENAUG  =  605.4 eV  augmentation charge cutoff
   NELM   =    100;   NELMIN=  6; NELMDL= -5     # of ELM steps 
   EDIFF  = 0.1E-04   stopping-criterion for ELM
   LREAL  =      T    real-space projection
   NLSPLINE    = F    spline interpolate recip. space projectors
   LCOMPAT=      F    compatible to vasp.4.4
   GGA_COMPAT  = T    GGA compatible to vasp.4.4-vasp.4.6
   LMAXPAW     = -100 max onsite density
   LMAXMIX     =    4 max onsite mixed and CHGCAR
   VOSKOWN=      0    Vosko Wilk Nusair interpolation
   ROPT   =   -0.00025  -0.00025  -0.00025
 Ionic relaxation
   EDIFFG = -.3E-01   stopping-criterion for IOM
   NSW    =     99    number of steps for IOM
   NBLOCK =      1;   KBLOCK =     99    inner block; outer block 
   IBRION =      2    ionic relax: 0-MD 1-quasi-New 2-CG
   NFREE  =      1    steps in history (QN), initial steepest desc. (CG)
   ISIF   =      3    stress and relaxation
   IWAVPR =     11    prediction:  0-non 1-charg 2-wave 3-comb
   ISYM   =      0    0-nonsym 1-usesym 2-fastsym
   LCORR  =      T    Harris-Foulkes like correction to forces

   POTIM  = 0.5000    time-step for ionic-motion
   TEIN   =    0.0    initial temperature
   TEBEG  =    0.0;   TEEND  =   0.0 temperature during run
   SMASS  =  -3.00    Nose mass-parameter (am)
   estimated Nose-frequenzy (Omega)   =  0.10E-29 period in steps = 0.13E+47 mass=  -0.639E-27a.u.
   SCALEE = 1.0000    scale energy and forces
   NPACO  =    256;   APACO  = 16.0  distance and # of slots for P.C.
   PSTRESS=    0.0 pullay stress

  Mass of Ions in am
   POMASS =  40.08 54.94 16.00
  Ionic Valenz
   ZVAL   =  10.00 13.00  6.00
  Atomic Wigner-Seitz radii
   RWIGS  =  -1.00 -1.00 -1.00
  virtual crystal weights 
   VCA    =   1.00  1.00  1.00
   NELECT =     164.0000    total number of electrons
   NUPDOWN=      -1.0000    fix difference up-down

 DOS related values:
   EMIN   =  10.00;   EMAX   =-10.00  energy-range for DOS
   EFERMI =   0.00
   ISMEAR =     0;   SIGMA  =   0.05  broadening in eV -4-tet -1-fermi 0-gaus

 Electronic relaxation 2 (details)
   IALGO  =     38    algorithm
   LDIAG  =      T    sub-space diagonalisation (order eigenvalues)
   LSUBROT=      F    optimize rotation matrix (better conditioning)
   TURBO    =      0    0=normal 1=particle mesh
   IRESTART =      0    0=no restart 2=restart with 2 vectors
   NREBOOT  =      0    no. of reboots
   NMIN     =      0    reboot dimension
   EREF     =   0.00    reference energy to select bands
   IMIX   =      4    mixing-type and parameters
     AMIX     =   0.40;   BMIX     =  1.00
     AMIX_MAG =   1.60;   BMIX_MAG =  1.00
     AMIN     =   0.10
     WC   =   100.;   INIMIX=   1;  MIXPRE=   1;  MAXMIX= -45

 Intra band minimization:
   WEIMIN = 0.0010     energy-eigenvalue tresh-hold
   EBREAK =  0.24E-07  absolut break condition
   DEPER  =   0.30     relativ break condition  

   TIME   =   0.40     timestep for ELM

  volume/ion in A,a.u.               =      10.38        70.04
  Fermi-wavevector in a.u.,A,eV,Ry     =   1.513442  2.859990 31.164217  2.290505
  Thomas-Fermi vector in A             =   2.623232
 
 Write flags
   LWAVE        =      F    write WAVECAR
   LDOWNSAMPLE  =      F    k-point downsampling of WAVECAR
   LCHARG       =      T    write CHGCAR
   LVTOT        =      F    write LOCPOT, total local potential
   LVHAR        =      F    write LOCPOT, Hartree potential only
   LELF         =      F    write electronic localiz. function (ELF)
   LORBIT       =     11    0 simple, 1 ext, 2 COOP (PROOUT), +10 PAW based schemes


 Dipole corrections
   LMONO  =      F    monopole corrections only (constant potential shift)
   LDIPOL =      F    correct potential (dipole corrections)
   IDIPOL =      0    1-x, 2-y, 3-z, 4-all directions 
   EPSILON=  1.0000000 bulk dielectric constant

 LDA+U is selected, type is set to LDAUTYPE =  2
   angular momentum for each species LDAUL =    -1    2   -1
   U (eV)           for each species LDAUU =   0.0  2.7  0.0
   J (eV)           for each species LDAUJ =   0.0  0.0  0.0
 Exchange correlation treatment:
   GGA     =    --    GGA type
   LEXCH   =     8    internal setting for exchange type
   VOSKOWN=      0    Vosko Wilk Nusair interpolation
   LHFCALC =     F    Hartree Fock is set to
   LHFONE  =     F    Hartree Fock one center treatment
   AEXX    =    0.0000 exact exchange contribution

 Linear response parameters
   LEPSILON=     F    determine dielectric tensor
   LRPA    =     F    only Hartree local field effects (RPA)
   LNABLA  =     F    use nabla operator in PAW spheres
   LVEL    =     F    velocity operator in full k-point grid
   LINTERFAST=   F  fast interpolation
   KINTER  =     0    interpolate to denser k-point grid
   CSHIFT  =0.1000    complex shift for real part using Kramers Kronig
   OMEGAMAX=  -1.0    maximum frequency
   DEG_THRESHOLD= 0.2000000E-02 threshold for treating states as degnerate
   RTIME   =   -0.100 relaxation time in fs
  (WPLASMAI=    0.000 imaginary part of plasma frequency in eV, 0.658/RTIME)
   DFIELD  = 0.0000000 0.0000000 0.0000000 field for delta impulse in time
 
 Orbital magnetization related:
   ORBITALMAG=     F  switch on orbital magnetization
   LCHIMAG   =     F  perturbation theory with respect to B field
   DQ        =  0.001000  dq finite difference perturbation B field
   LLRAUG    =     F  two centre corrections for induced B field



--------------------------------------------------------------------------------------------------------


 conjugate gradient relaxation of ions
 charge density and potential will be updated during run
 spin polarized calculation
 Variant of blocked Davidson
 Davidson routine will perform the subspace rotation
 perform sub-space diagonalisation
    after iterative eigenvector-optimisation
 modified Broyden-mixing scheme, WC =      100.0
 initial mixing is a Kerker type mixing with AMIX =  0.4000 and BMIX =      1.0000
 Hartree-type preconditioning will be used
 using additional bands           23
 real space projection scheme for non local part
 use partial core corrections
 calculate Harris-corrections to forces 
   (improved forces if not selfconsistent)
 use gradient corrections 
 use of overlap-Matrix (Vanderbilt PP)
 Gauss-broadening in eV      SIGMA  =   0.05


--------------------------------------------------------------------------------------------------------


  energy-cutoff  :      520.00
  volume of cell :      207.57
      direct lattice vectors                 reciprocal lattice vectors
     5.289838544  0.000000085 -0.000000011     0.189041687 -0.000000003  0.000000000
     0.000000125  7.452132901  0.000000559    -0.000000002  0.134189770 -0.000000010
    -0.000000013  0.000000399  5.265606181     0.000000000 -0.000000014  0.189911658

  length of vectors
     5.289838544  7.452132901  5.265606181     0.189041687  0.134189770  0.189911658


 
 k-points in units of 2pi/SCALE and weight: K-points file                           
   0.00000000  0.00000000  0.00000000       0.004
   0.02700596 -0.00000000  0.00000000       0.008
   0.05401191 -0.00000000  0.00000000       0.008
   0.08101787 -0.00000000  0.00000000       0.008
  -0.00000000  0.02683795 -0.00000000       0.008
   0.02700595  0.02683795 -0.00000000       0.008
   0.02700596 -0.02683795  0.00000000       0.008
   0.05401191  0.02683795 -0.00000000       0.008
   0.05401191 -0.02683795  0.00000000       0.008
   0.08101787  0.02683795 -0.00000000       0.008
   0.08101787 -0.02683796  0.00000000       0.008
  -0.00000000  0.05367591 -0.00000000       0.008
   0.02700595  0.05367591 -0.00000000       0.008
   0.02700596 -0.05367591  0.00000000       0.008
   0.05401191  0.05367591 -0.00000000       0.008
   0.05401191 -0.05367591  0.00000000       0.008
   0.08101786  0.05367591 -0.00000000       0.008
   0.08101787 -0.05367591  0.00000000       0.008
   0.00000000 -0.00000000  0.02713024       0.008
   0.02700596 -0.00000000  0.02713024       0.008
  -0.02700596 -0.00000000  0.02713024       0.008
   0.05401191 -0.00000000  0.02713024       0.008
  -0.05401191 -0.00000000  0.02713024       0.008
   0.08101787 -0.00000000  0.02713024       0.008
  -0.08101787 -0.00000000  0.02713024       0.008
  -0.00000000  0.02683795  0.02713023       0.008
   0.00000000 -0.02683796  0.02713024       0.008
   0.02700595  0.02683795  0.02713023       0.008
  -0.02700595 -0.02683796  0.02713024       0.008
   0.02700596 -0.02683795 -0.02713023       0.008
  -0.02700596  0.02683796 -0.02713024       0.008
   0.05401191  0.02683795  0.02713023       0.008
  -0.05401191 -0.02683796  0.02713024       0.008
   0.05401191 -0.02683795 -0.02713023       0.008
  -0.05401191  0.02683796 -0.02713024       0.008
   0.08101787  0.02683795  0.02713024       0.008
  -0.08101787 -0.02683795  0.02713024       0.008
   0.08101787 -0.02683795 -0.02713023       0.008
  -0.08101787  0.02683796 -0.02713024       0.008
  -0.00000000  0.05367591  0.02713023       0.008
   0.00000000 -0.05367591  0.02713024       0.008
   0.02700595  0.05367591  0.02713023       0.008
  -0.02700595 -0.05367591  0.02713024       0.008
   0.02700596 -0.05367591 -0.02713023       0.008
  -0.02700596  0.05367591 -0.02713024       0.008
   0.05401191  0.05367591  0.02713023       0.008
  -0.05401191 -0.05367591  0.02713024       0.008
   0.05401191 -0.05367591 -0.02713023       0.008
  -0.05401191  0.05367591 -0.02713024       0.008
   0.08101786  0.05367590  0.02713023       0.008
  -0.08101786 -0.05367591  0.02713024       0.008
   0.08101787 -0.05367591 -0.02713023       0.008
  -0.08101787  0.05367591 -0.02713024       0.008
   0.00000000 -0.00000000  0.05426047       0.008
   0.02700596 -0.00000000  0.05426047       0.008
  -0.02700596 -0.00000000  0.05426047       0.008
   0.05401191 -0.00000000  0.05426047       0.008
  -0.05401191 -0.00000000  0.05426047       0.008
   0.08101787 -0.00000001  0.05426047       0.008
  -0.08101787 -0.00000000  0.05426047       0.008
  -0.00000000  0.02683795  0.05426047       0.008
   0.00000000 -0.02683796  0.05426048       0.008
   0.02700595  0.02683795  0.05426047       0.008
  -0.02700595 -0.02683796  0.05426048       0.008
   0.02700596 -0.02683795 -0.05426047       0.008
  -0.02700596  0.02683796 -0.05426048       0.008
   0.05401191  0.02683795  0.05426047       0.008
  -0.05401191 -0.02683796  0.05426048       0.008
   0.05401191 -0.02683795 -0.05426047       0.008
  -0.05401191  0.02683796 -0.05426048       0.008
   0.08101787  0.02683795  0.05426047       0.008
  -0.08101787 -0.02683796  0.05426048       0.008
   0.08101787 -0.02683795 -0.05426047       0.008
  -0.08101787  0.02683796 -0.05426048       0.008
  -0.00000000  0.05367590  0.05426047       0.008
   0.00000000 -0.05367591  0.05426048       0.008
   0.02700595  0.05367590  0.05426047       0.008
  -0.02700595 -0.05367591  0.05426048       0.008
   0.02700596 -0.05367590 -0.05426047       0.008
  -0.02700596  0.05367591 -0.05426048       0.008
   0.05401191  0.05367590  0.05426047       0.008
  -0.05401191 -0.05367591  0.05426048       0.008
   0.05401191 -0.05367590 -0.05426047       0.008
  -0.05401191  0.05367591 -0.05426048       0.008
   0.08101786  0.05367590  0.05426047       0.008
  -0.08101786 -0.05367591  0.05426048       0.008
   0.08101787 -0.05367591 -0.05426047       0.008
  -0.08101787  0.05367591 -0.05426048       0.008
   0.00000000 -0.00000001  0.08139071       0.008
   0.02700596 -0.00000001  0.08139071       0.008
  -0.02700596 -0.00000001  0.08139071       0.008
   0.05401191 -0.00000001  0.08139071       0.008
  -0.05401191 -0.00000001  0.08139071       0.008
   0.08101787 -0.00000001  0.08139071       0.008
  -0.08101787 -0.00000000  0.08139071       0.008
  -0.00000000  0.02683795  0.08139071       0.008
   0.00000000 -0.02683796  0.08139071       0.008
   0.02700595  0.02683795  0.08139071       0.008
  -0.02700595 -0.02683796  0.08139071       0.008
   0.02700596 -0.02683795 -0.08139071       0.008
  -0.02700596  0.02683796 -0.08139071       0.008
   0.05401191  0.02683795  0.08139071       0.008
  -0.05401191 -0.02683796  0.08139071       0.008
   0.05401191 -0.02683795 -0.08139071       0.008
  -0.05401191  0.02683796 -0.08139071       0.008
   0.08101787  0.02683795  0.08139071       0.008
  -0.08101787 -0.02683796  0.08139071       0.008
   0.08101787 -0.02683795 -0.08139071       0.008
  -0.08101787  0.02683796 -0.08139071       0.008
  -0.00000000  0.05367590  0.08139071       0.008
   0.00000000 -0.05367591  0.08139071       0.008
   0.02700595  0.05367590  0.08139071       0.008
  -0.02700595 -0.05367591  0.08139071       0.008
   0.02700596 -0.05367590 -0.08139071       0.008
  -0.02700596  0.05367591 -0.08139071       0.008
   0.05401191  0.05367590  0.08139071       0.008
  -0.05401191 -0.05367591  0.08139071       0.008
   0.05401191 -0.05367590 -0.08139071       0.008
  -0.05401191  0.05367592 -0.08139071       0.008
   0.08101786  0.05367590  0.08139071       0.008
  -0.08101786 -0.05367591  0.08139071       0.008
   0.08101787 -0.05367590 -0.08139071       0.008
  -0.08101787  0.05367592 -0.08139071       0.008
 
 k-points in reciprocal lattice and weights: K-points file                           
   0.00000000  0.00000000  0.00000000       0.004
   0.14285714  0.00000000 -0.00000000       0.008
   0.28571429 -0.00000000  0.00000000       0.008
   0.42857143  0.00000000 -0.00000000       0.008
  -0.00000000  0.20000000 -0.00000000       0.008
   0.14285714  0.20000000 -0.00000000       0.008
   0.14285714 -0.20000000 -0.00000000       0.008
   0.28571429  0.20000000  0.00000000       0.008
   0.28571429 -0.20000000 -0.00000000       0.008
   0.42857143  0.20000000 -0.00000000       0.008
   0.42857143 -0.20000000 -0.00000000       0.008
   0.00000000  0.40000000 -0.00000000       0.008
   0.14285714  0.40000000 -0.00000000       0.008
   0.14285714 -0.40000000  0.00000000       0.008
   0.28571429  0.40000000  0.00000000       0.008
   0.28571429 -0.40000000 -0.00000000       0.008
   0.42857143  0.40000000 -0.00000000       0.008
   0.42857143 -0.40000000 -0.00000000       0.008
   0.00000000 -0.00000000  0.14285714       0.008
   0.14285714 -0.00000000  0.14285714       0.008
  -0.14285714  0.00000000  0.14285714       0.008
   0.28571429 -0.00000000  0.14285714       0.008
  -0.28571429 -0.00000000  0.14285714       0.008
   0.42857143 -0.00000000  0.14285714       0.008
  -0.42857143 -0.00000000  0.14285714       0.008
  -0.00000000  0.20000000  0.14285714       0.008
   0.00000000 -0.20000000  0.14285714       0.008
   0.14285714  0.20000000  0.14285714       0.008
  -0.14285714 -0.20000000  0.14285714       0.008
   0.14285714 -0.20000000 -0.14285714       0.008
  -0.14285714  0.20000000 -0.14285714       0.008
   0.28571429  0.20000000  0.14285714       0.008
  -0.28571429 -0.20000000  0.14285714       0.008
   0.28571429 -0.20000000 -0.14285714       0.008
  -0.28571429  0.20000000 -0.14285714       0.008
   0.42857143  0.20000000  0.14285714       0.008
  -0.42857143 -0.20000000  0.14285714       0.008
   0.42857143 -0.20000000 -0.14285714       0.008
  -0.42857143  0.20000000 -0.14285714       0.008
  -0.00000000  0.40000000  0.14285714       0.008
  -0.00000000 -0.40000000  0.14285714       0.008
   0.14285714  0.40000000  0.14285714       0.008
  -0.14285714 -0.40000000  0.14285714       0.008
   0.14285714 -0.40000000 -0.14285714       0.008
  -0.14285714  0.40000000 -0.14285714       0.008
   0.28571429  0.40000000  0.14285714       0.008
  -0.28571429 -0.40000000  0.14285714       0.008
   0.28571429 -0.40000000 -0.14285714       0.008
  -0.28571429  0.40000000 -0.14285714       0.008
   0.42857143  0.40000000  0.14285714       0.008
  -0.42857143 -0.40000000  0.14285714       0.008
   0.42857143 -0.40000000 -0.14285714       0.008
  -0.42857143  0.40000000 -0.14285714       0.008
   0.00000000 -0.00000000  0.28571429       0.008
   0.14285714 -0.00000000  0.28571429       0.008
  -0.14285714 -0.00000000  0.28571429       0.008
   0.28571429 -0.00000000  0.28571429       0.008
  -0.28571429  0.00000000  0.28571429       0.008
   0.42857143  0.00000000  0.28571429       0.008
  -0.42857143 -0.00000000  0.28571429       0.008
  -0.00000000  0.20000000  0.28571429       0.008
   0.00000000 -0.20000000  0.28571429       0.008
   0.14285714  0.20000000  0.28571429       0.008
  -0.14285714 -0.20000000  0.28571429       0.008
   0.14285714 -0.20000000 -0.28571429       0.008
  -0.14285714  0.20000000 -0.28571429       0.008
   0.28571429  0.20000000  0.28571429       0.008
  -0.28571429 -0.20000000  0.28571429       0.008
   0.28571429 -0.20000000 -0.28571429       0.008
  -0.28571429  0.20000000 -0.28571429       0.008
   0.42857143  0.20000000  0.28571429       0.008
  -0.42857143 -0.20000000  0.28571429       0.008
   0.42857143 -0.20000000 -0.28571429       0.008
  -0.42857143  0.20000000 -0.28571429       0.008
  -0.00000000  0.40000000  0.28571429       0.008
   0.00000000 -0.40000000  0.28571429       0.008
   0.14285714  0.40000000  0.28571429       0.008
  -0.14285714 -0.40000000  0.28571429       0.008
   0.14285714 -0.40000000 -0.28571429       0.008
  -0.14285714  0.40000000 -0.28571429       0.008
   0.28571429  0.40000000  0.28571429       0.008
  -0.28571429 -0.40000000  0.28571429       0.008
   0.28571429 -0.40000000 -0.28571429       0.008
  -0.28571429  0.40000000 -0.28571429       0.008
   0.42857143  0.40000000  0.28571429       0.008
  -0.42857143 -0.40000000  0.28571429       0.008
   0.42857143 -0.40000000 -0.28571429       0.008
  -0.42857143  0.40000000 -0.28571429       0.008
   0.00000000  0.00000000  0.42857143       0.008
   0.14285714  0.00000000  0.42857143       0.008
  -0.14285714 -0.00000000  0.42857143       0.008
   0.28571429  0.00000000  0.42857143       0.008
  -0.28571429 -0.00000000  0.42857143       0.008
   0.42857143 -0.00000000  0.42857143       0.008
  -0.42857143 -0.00000000  0.42857143       0.008
  -0.00000000  0.20000000  0.42857143       0.008
   0.00000000 -0.20000000  0.42857143       0.008
   0.14285714  0.20000000  0.42857143       0.008
  -0.14285714 -0.20000000  0.42857143       0.008
   0.14285714 -0.20000000 -0.42857143       0.008
  -0.14285714  0.20000000 -0.42857143       0.008
   0.28571429  0.20000000  0.42857143       0.008
  -0.28571429 -0.20000000  0.42857143       0.008
   0.28571429 -0.20000000 -0.42857143       0.008
  -0.28571429  0.20000000 -0.42857143       0.008
   0.42857143  0.20000000  0.42857143       0.008
  -0.42857143 -0.20000000  0.42857143       0.008
   0.42857143 -0.20000000 -0.42857143       0.008
  -0.42857143  0.20000000 -0.42857143       0.008
  -0.00000000  0.40000000  0.42857143       0.008
  -0.00000000 -0.40000000  0.42857143       0.008
   0.14285714  0.40000000  0.42857143       0.008
  -0.14285714 -0.40000000  0.42857143       0.008
   0.14285714 -0.40000000 -0.42857143       0.008
  -0.14285714  0.40000000 -0.42857143       0.008
   0.28571429  0.40000000  0.42857143       0.008
  -0.28571429 -0.40000000  0.42857143       0.008
   0.28571429 -0.40000000 -0.42857143       0.008
  -0.28571429  0.40000000 -0.42857143       0.008
   0.42857143  0.40000000  0.42857143       0.008
  -0.42857143 -0.40000000  0.42857143       0.008
   0.42857143 -0.40000000 -0.42857143       0.008
  -0.42857143  0.40000000 -0.42857143       0.008
 
 position of ions in fractional coordinates (direct lattice) 
   0.53748321  0.25000002  0.50714019
   0.03748318  0.25000003  0.99285982
   0.46251534  0.74999999  0.49287222
   0.96251533  0.74999997  0.00712777
   0.00005029  0.99998958  0.49997779
   0.50005013  0.50001040  0.00002216
   0.00005016  0.50001040  0.49997786
   0.50005031  0.99998959  0.00002219
   0.98782706  0.24999994  0.43073052
   0.48782705  0.25000009  0.06926950
   0.01213162  0.75000006  0.56924981
   0.51213160  0.74999992  0.93075018
   0.78854831  0.03547827  0.78941321
   0.28854821  0.46452176  0.71058687
   0.21142305  0.53548148  0.21057574
   0.71142302  0.96451850  0.28942432
   0.21142290  0.96451849  0.21057580
   0.71142295  0.53548148  0.28942410
   0.78854810  0.46452176  0.78941331
   0.28854819  0.03547827  0.71058663
 
 position of ions in cartesian coordinates  (Angst):
   2.84319942  1.86303366  2.67040067
   0.19827998  1.86303383  5.22800893
   2.44663157  5.58909980  2.59527140
   5.09155080  5.58909956  0.03753246
   0.00026613  7.45205542  2.63268671
   2.64518449  3.72614400  0.00011697
   0.00026540  3.72614414  2.63268678
   2.64518551  7.45205534  0.00011739
   5.22544568  1.86303303  2.26805741
   2.58052636  1.86303394  0.36474604
   0.06417438  5.58910035  2.99744576
   2.70909353  5.58909949  4.90096431
   4.17129326  0.26438913  4.15673906
   1.52637347  3.46167823  3.74167088
   1.11839389  3.99047926  1.10880923
   3.76331304  7.18772025  1.52399504
   1.11839311  7.18772009  1.10880979
   3.76331262  3.99047934  1.52399360
   4.17129216  3.46167827  4.15673985
   1.52637333  0.26438912  3.74166939
 


--------------------------------------------------------------------------------------------------------


 k-point   1 :   0.0000 0.0000 0.0000  plane waves:    5515
 k-point   2 :   0.1429 0.0000-0.0000  plane waves:    5577
 k-point   3 :   0.2857-0.0000 0.0000  plane waves:    5594
 k-point   4 :   0.4286 0.0000-0.0000  plane waves:    5586
 k-point   5 :  -0.0000 0.2000-0.0000  plane waves:    5560
 k-point   6 :   0.1429 0.2000-0.0000  plane waves:    5589
 k-point   7 :   0.1429-0.2000-0.0000  plane waves:    5589
 k-point   8 :   0.2857 0.2000 0.0000  plane waves:    5589
 k-point   9 :   0.2857-0.2000-0.0000  plane waves:    5589
 k-point  10 :   0.4286 0.2000-0.0000  plane waves:    5593
 k-point  11 :   0.4286-0.2000-0.0000  plane waves:    5593
 k-point  12 :   0.0000 0.4000-0.0000  plane waves:    5596
 k-point  13 :   0.1429 0.4000-0.0000  plane waves:    5581
 k-point  14 :   0.1429-0.4000 0.0000  plane waves:    5581
 k-point  15 :   0.2857 0.4000 0.0000  plane waves:    5596
 k-point  16 :   0.2857-0.4000-0.0000  plane waves:    5596
 k-point  17 :   0.4286 0.4000-0.0000  plane waves:    5616
 k-point  18 :   0.4286-0.4000-0.0000  plane waves:    5616
 k-point  19 :   0.0000-0.0000 0.1429  plane waves:    5577
 k-point  20 :   0.1429-0.0000 0.1429  plane waves:    5576
 k-point  21 :  -0.1429 0.0000 0.1429  plane waves:    5576
 k-point  22 :   0.2857-0.0000 0.1429  plane waves:    5581
 k-point  23 :  -0.2857-0.0000 0.1429  plane waves:    5581
 k-point  24 :   0.4286-0.0000 0.1429  plane waves:    5579
 k-point  25 :  -0.4286-0.0000 0.1429  plane waves:    5579
 k-point  26 :  -0.0000 0.2000 0.1429  plane waves:    5575
 k-point  27 :   0.0000-0.2000 0.1429  plane waves:    5575
 k-point  28 :   0.1429 0.2000 0.1429  plane waves:    5578
 k-point  29 :  -0.1429-0.2000 0.1429  plane waves:    5578
 k-point  30 :   0.1429-0.2000-0.1429  plane waves:    5578
 k-point  31 :  -0.1429 0.2000-0.1429  plane waves:    5578
 k-point  32 :   0.2857 0.2000 0.1429  plane waves:    5588
 k-point  33 :  -0.2857-0.2000 0.1429  plane waves:    5588
 k-point  34 :   0.2857-0.2000-0.1429  plane waves:    5588
 k-point  35 :  -0.2857 0.2000-0.1429  plane waves:    5588
 k-point  36 :   0.4286 0.2000 0.1429  plane waves:    5588
 k-point  37 :  -0.4286-0.2000 0.1429  plane waves:    5588
 k-point  38 :   0.4286-0.2000-0.1429  plane waves:    5588
 k-point  39 :  -0.4286 0.2000-0.1429  plane waves:    5588
 k-point  40 :  -0.0000 0.4000 0.1429  plane waves:    5587
 k-point  41 :  -0.0000-0.4000 0.1429  plane waves:    5587
 k-point  42 :   0.1429 0.4000 0.1429  plane waves:    5591
 k-point  43 :  -0.1429-0.4000 0.1429  plane waves:    5591
 k-point  44 :   0.1429-0.4000-0.1429  plane waves:    5591
 k-point  45 :  -0.1429 0.4000-0.1429  plane waves:    5591
 k-point  46 :   0.2857 0.4000 0.1429  plane waves:    5599
 k-point  47 :  -0.2857-0.4000 0.1429  plane waves:    5599
 k-point  48 :   0.2857-0.4000-0.1429  plane waves:    5599
 k-point  49 :  -0.2857 0.4000-0.1429  plane waves:    5599
 k-point  50 :   0.4286 0.4000 0.1429  plane waves:    5604
 k-point  51 :  -0.4286-0.4000 0.1429  plane waves:    5604
 k-point  52 :   0.4286-0.4000-0.1429  plane waves:    5604
 k-point  53 :  -0.4286 0.4000-0.1429  plane waves:    5604
 k-point  54 :   0.0000-0.0000 0.2857  plane waves:    5600
 k-point  55 :   0.1429-0.0000 0.2857  plane waves:    5588
 k-point  56 :  -0.1429-0.0000 0.2857  plane waves:    5588
 k-point  57 :   0.2857-0.0000 0.2857  plane waves:    5595
 k-point  58 :  -0.2857 0.0000 0.2857  plane waves:    5595
 k-point  59 :   0.4286 0.0000 0.2857  plane waves:    5591
 k-point  60 :  -0.4286-0.0000 0.2857  plane waves:    5591
 k-point  61 :  -0.0000 0.2000 0.2857  plane waves:    5582
 k-point  62 :   0.0000-0.2000 0.2857  plane waves:    5582
 k-point  63 :   0.1429 0.2000 0.2857  plane waves:    5576
 k-point  64 :  -0.1429-0.2000 0.2857  plane waves:    5576
 k-point  65 :   0.1429-0.2000-0.2857  plane waves:    5576
 k-point  66 :  -0.1429 0.2000-0.2857  plane waves:    5576
 k-point  67 :   0.2857 0.2000 0.2857  plane waves:    5594
 k-point  68 :  -0.2857-0.2000 0.2857  plane waves:    5594
 k-point  69 :   0.2857-0.2000-0.2857  plane waves:    5594
 k-point  70 :  -0.2857 0.2000-0.2857  plane waves:    5594
 k-point  71 :   0.4286 0.2000 0.2857  plane waves:    5597
 k-point  72 :  -0.4286-0.2000 0.2857  plane waves:    5597
 k-point  73 :   0.4286-0.2000-0.2857  plane waves:    5597
 k-point  74 :  -0.4286 0.2000-0.2857  plane waves:    5597
 k-point  75 :  -0.0000 0.4000 0.2857  plane waves:    5591
 k-point  76 :   0.0000-0.4000 0.2857  plane waves:    5591
 k-point  77 :   0.1429 0.4000 0.2857  plane waves:    5591
 k-point  78 :  -0.1429-0.4000 0.2857  plane waves:    5591
 k-point  79 :   0.1429-0.4000-0.2857  plane waves:    5591
 k-point  80 :  -0.1429 0.4000-0.2857  plane waves:    5591
 k-point  81 :   0.2857 0.4000 0.2857  plane waves:    5585
 k-point  82 :  -0.2857-0.4000 0.2857  plane waves:    5585
 k-point  83 :   0.2857-0.4000-0.2857  plane waves:    5585
 k-point  84 :  -0.2857 0.4000-0.2857  plane waves:    5585
 k-point  85 :   0.4286 0.4000 0.2857  plane waves:    5586
 k-point  86 :  -0.4286-0.4000 0.2857  plane waves:    5586
 k-point  87 :   0.4286-0.4000-0.2857  plane waves:    5586
 k-point  88 :  -0.4286 0.4000-0.2857  plane waves:    5586
 k-point  89 :   0.0000 0.0000 0.4286  plane waves:    5596
 k-point  90 :   0.1429 0.0000 0.4286  plane waves:    5577
 k-point  91 :  -0.1429-0.0000 0.4286  plane waves:    5577
 k-point  92 :   0.2857 0.0000 0.4286  plane waves:    5592
 k-point  93 :  -0.2857-0.0000 0.4286  plane waves:    5592
 k-point  94 :   0.4286-0.0000 0.4286  plane waves:    5604
 k-point  95 :  -0.4286-0.0000 0.4286  plane waves:    5604
 k-point  96 :  -0.0000 0.2000 0.4286  plane waves:    5587
 k-point  97 :   0.0000-0.2000 0.4286  plane waves:    5587
 k-point  98 :   0.1429 0.2000 0.4286  plane waves:    5585
 k-point  99 :  -0.1429-0.2000 0.4286  plane waves:    5585
 k-point 100 :   0.1429-0.2000-0.4286  plane waves:    5585
 k-point 101 :  -0.1429 0.2000-0.4286  plane waves:    5585
 k-point 102 :   0.2857 0.2000 0.4286  plane waves:    5591
 k-point 103 :  -0.2857-0.2000 0.4286  plane waves:    5591
 k-point 104 :   0.2857-0.2000-0.4286  plane waves:    5591
 k-point 105 :  -0.2857 0.2000-0.4286  plane waves:    5591
 k-point 106 :   0.4286 0.2000 0.4286  plane waves:    5611
 k-point 107 :  -0.4286-0.2000 0.4286  plane waves:    5611
 k-point 108 :   0.4286-0.2000-0.4286  plane waves:    5611
 k-point 109 :  -0.4286 0.2000-0.4286  plane waves:    5611
 k-point 110 :  -0.0000 0.4000 0.4286  plane waves:    5609
 k-point 111 :  -0.0000-0.4000 0.4286  plane waves:    5609
 k-point 112 :   0.1429 0.4000 0.4286  plane waves:    5595
 k-point 113 :  -0.1429-0.4000 0.4286  plane waves:    5595
 k-point 114 :   0.1429-0.4000-0.4286  plane waves:    5595
 k-point 115 :  -0.1429 0.4000-0.4286  plane waves:    5595
 k-point 116 :   0.2857 0.4000 0.4286  plane waves:    5591
 k-point 117 :  -0.2857-0.4000 0.4286  plane waves:    5591
 k-point 118 :   0.2857-0.4000-0.4286  plane waves:    5591
 k-point 119 :  -0.2857 0.4000-0.4286  plane waves:    5591
 k-point 120 :   0.4286 0.4000 0.4286  plane waves:    5583
 k-point 121 :  -0.4286-0.4000 0.4286  plane waves:    5583
 k-point 122 :   0.4286-0.4000-0.4286  plane waves:    5583
 k-point 123 :  -0.4286 0.4000-0.4286  plane waves:    5583

 maximum and minimum number of plane-waves per node :      1440     1360

 maximum number of plane-waves:      5616
 maximum index in each direction: 
   IXMAX=   10   IYMAX=   14   IZMAX=   10
   IXMIN=  -10   IYMIN=  -14   IZMIN=  -10


 real space projection operators:
  total allocation   :       8832.42 KBytes
  max/ min on nodes  :       2227.48       2193.19


 parallel 3D FFT for wavefunctions:
    minimum data exchange during FFTs selected (reduces bandwidth)
 parallel 3D FFT for charge:
    minimum data exchange during FFTs selected (reduces bandwidth)


 total amount of memory used by VASP MPI-rank0   250540. kBytes
=======================================================================

   base      :      30000. kBytes
   nonlr-proj:       5168. kBytes
   fftplans  :       2806. kBytes
   grid      :       9904. kBytes
   one-center:        155. kBytes
   wavefun   :     202507. kBytes
 
     INWAV:  cpu time    0.0000: real time    0.0000
 Broyden mixing: mesh for mixing (old mesh)
   NGX = 19   NGY = 27   NGZ = 19
  (NGX  = 80   NGY  =112   NGZ  = 80)
  gives a total of   9747 points

 initial charge density was supplied:
 number of electron     163.9999977 magnetization      12.0000004
 keeping initial charge density in first step


--------------------------------------------------------------------------------------------------------


 Maximum index for non-local projection operator         1753
 Maximum index for augmentation-charges         2008 (set IRDMAX)


--------------------------------------------------------------------------------------------------------


 First call to EWALD:  gamma=   0.299
 Maximum number of real-space cells 3x 2x 3
 Maximum number of reciprocal cells 3x 3x 2

    FEWALD:  cpu time    0.0012: real time    0.0012


--------------------------------------- Iteration      1(   1)  ---------------------------------------


    POTLOK:  cpu time    0.2152: real time    0.2153
    SETDIJ:  cpu time    1.4749: real time    1.4751
atom =   5  type =  2  l = 2
 
 onsite density matrix
 
spin component  1
 
  0.9627 -0.0031  0.0071 -0.0642 -0.0184
 -0.0031  0.9444 -0.0546  0.0032 -0.0954
  0.0071 -0.0546  0.8392  0.0852 -0.1964
 -0.0642  0.0032  0.0852  0.4929 -0.0482
 -0.0184 -0.0954 -0.1964 -0.0482  0.5999
 
spin component  2
 
  0.1197  0.0015  0.0028  0.0300  0.0068
  0.0015  0.1238  0.0252 -0.0020  0.0432
  0.0028  0.0252  0.1655 -0.0393  0.0773
  0.0300 -0.0020 -0.0393  0.2992  0.0219
  0.0068  0.0432  0.0773  0.0219  0.2612
 
 occupancies and eigenvectors
 
  o =  0.1070  v =  0.0000  0.0000  0.0000  0.0000  0.0000  0.5907  0.1132 -0.6810 -0.2670  0.3213      0.0000  0.0000  0.0000  0.0000  0.0000  0.0000  0.0000  0.0000  0.0000  0.0000
  o =  0.1109  v =  0.0000  0.0000  0.0000  0.0000  0.0000  0.0962 -0.9613  0.0574 -0.0423  0.2483      0.0000  0.0000  0.0000  0.0000  0.0000  0.0000  0.0000  0.0000  0.0000  0.0000
  o =  0.1196  v =  0.0000  0.0000  0.0000  0.0000  0.0000  0.7863  0.0229  0.5200  0.0234 -0.3321      0.0000  0.0000  0.0000  0.0000  0.0000  0.0000  0.0000  0.0000  0.0000  0.0000
  o =  0.3143  v =  0.0000  0.0000  0.0000  0.0000  0.0000 -0.1390  0.0596  0.2867 -0.9443  0.0575      0.0000  0.0000  0.0000  0.0000  0.0000  0.0000  0.0000  0.0000  0.0000  0.0000
  o =  0.3175  v =  0.0000  0.0000  0.0000  0.0000  0.0000  0.0653  0.2431  0.4247  0.1864  0.8494      0.0000  0.0000  0.0000  0.0000  0.0000  0.0000  0.0000  0.0000  0.0000  0.0000
  o =  0.4628  v = -0.1107 -0.1530 -0.2141 -0.6858 -0.6694  0.0000  0.0000  0.0000  0.0000  0.0000      0.0000  0.0000  0.0000  0.0000  0.0000  0.0000  0.0000  0.0000  0.0000  0.0000
  o =  0.4653  v =  0.0747 -0.1626 -0.4612  0.6873 -0.5318  0.0000  0.0000  0.0000  0.0000  0.0000      0.0000  0.0000  0.0000  0.0000  0.0000  0.0000  0.0000  0.0000  0.0000  0.0000
  o =  0.9684  v = -0.5230 -0.1189  0.7255  0.2364 -0.3607  0.0000  0.0000  0.0000  0.0000  0.0000      0.0000  0.0000  0.0000  0.0000  0.0000  0.0000  0.0000  0.0000  0.0000  0.0000
  o =  0.9695  v =  0.0985  0.9482  0.0701  0.0351 -0.2915  0.0000  0.0000  0.0000  0.0000  0.0000      0.0000  0.0000  0.0000  0.0000  0.0000  0.0000  0.0000  0.0000  0.0000  0.0000
  o =  0.9730  v = -0.8360  0.1919 -0.4585  0.0084  0.2324  0.0000  0.0000  0.0000  0.0000  0.0000      0.0000  0.0000  0.0000  0.0000  0.0000  0.0000  0.0000  0.0000  0.0000  0.0000
atom =   6  type =  2  l = 2
 
 onsite density matrix
 
spin component  1
 
  0.9627  0.0031 -0.0071 -0.0642  0.0184
  0.0031  0.9444 -0.0546 -0.0032 -0.0954
 -0.0071 -0.0546  0.8392 -0.0852 -0.1964
 -0.0642 -0.0032 -0.0852  0.4929  0.0482
  0.0184 -0.0954 -0.1964  0.0482  0.5999
 
spin component  2
 
  0.1197 -0.0015 -0.0028  0.0300 -0.0068
 -0.0015  0.1238  0.0252  0.0020  0.0432
 -0.0028  0.0252  0.1655  0.0393  0.0773
  0.0300  0.0020  0.0393  0.2992 -0.0219
 -0.0068  0.0432  0.0773 -0.0219  0.2612
 
 occupancies and eigenvectors
 
  o =  0.1070  v =  0.0000  0.0000  0.0000  0.0000  0.0000  0.5907 -0.1132  0.6810 -0.2670 -0.3213      0.0000  0.0000  0.0000  0.0000  0.0000  0.0000  0.0000  0.0000  0.0000  0.0000
  o =  0.1109  v =  0.0000  0.0000  0.0000  0.0000  0.0000 -0.0962 -0.9613  0.0574  0.0423  0.2483      0.0000  0.0000  0.0000  0.0000  0.0000  0.0000  0.0000  0.0000  0.0000  0.0000
  o =  0.1196  v =  0.0000  0.0000  0.0000  0.0000  0.0000  0.7863 -0.0229 -0.5200  0.0234  0.3321      0.0000  0.0000  0.0000  0.0000  0.0000  0.0000  0.0000  0.0000  0.0000  0.0000
  o =  0.3143  v =  0.0000  0.0000  0.0000  0.0000  0.0000 -0.1390 -0.0596 -0.2867 -0.9443 -0.0575      0.0000  0.0000  0.0000  0.0000  0.0000  0.0000  0.0000  0.0000  0.0000  0.0000
  o =  0.3176  v =  0.0000  0.0000  0.0000  0.0000  0.0000  0.0653 -0.2431 -0.4248  0.1864 -0.8494      0.0000  0.0000  0.0000  0.0000  0.0000  0.0000  0.0000  0.0000  0.0000  0.0000
  o =  0.4628  v =  0.1107 -0.1530 -0.2142  0.6858 -0.6695  0.0000  0.0000  0.0000  0.0000  0.0000      0.0000  0.0000  0.0000  0.0000  0.0000  0.0000  0.0000  0.0000  0.0000  0.0000
  o =  0.4653  v = -0.0747 -0.1626 -0.4612 -0.6874 -0.5318  0.0000  0.0000  0.0000  0.0000  0.0000      0.0000  0.0000  0.0000  0.0000  0.0000  0.0000  0.0000  0.0000  0.0000  0.0000
  o =  0.9684  v = -0.5229  0.1188 -0.7255  0.2364  0.3607  0.0000  0.0000  0.0000  0.0000  0.0000      0.0000  0.0000  0.0000  0.0000  0.0000  0.0000  0.0000  0.0000  0.0000  0.0000
  o =  0.9695  v = -0.0986  0.9483  0.0700 -0.0351 -0.2914  0.0000  0.0000  0.0000  0.0000  0.0000      0.0000  0.0000  0.0000  0.0000  0.0000  0.0000  0.0000  0.0000  0.0000  0.0000
  o =  0.9730  v = -0.8360 -0.1919  0.4584  0.0084 -0.2323  0.0000  0.0000  0.0000  0.0000  0.0000      0.0000  0.0000  0.0000  0.0000  0.0000  0.0000  0.0000  0.0000  0.0000  0.0000
atom =   7  type =  2  l = 2
 
 onsite density matrix
 
spin component  1
 
  0.9627 -0.0031 -0.0071  0.0642  0.0184
 -0.0031  0.9444  0.0546 -0.0032  0.0954
 -0.0071  0.0546  0.8392  0.0852 -0.1964
  0.0642 -0.0032  0.0852  0.4929 -0.0482
  0.0184  0.0954 -0.1964 -0.0482  0.5999
 
spin component  2
 
  0.1197  0.0015 -0.0028 -0.0300 -0.0068
  0.0015  0.1238 -0.0252  0.0020 -0.0432
 -0.0028 -0.0252  0.1655 -0.0393  0.0773
 -0.0300  0.0020 -0.0393  0.2992  0.0219
 -0.0068 -0.0432  0.0773  0.0219  0.2612
 
 occupancies and eigenvectors
 
  o =  0.1070  v =  0.0000  0.0000  0.0000  0.0000  0.0000  0.5907  0.1132  0.6810  0.2670 -0.3213      0.0000  0.0000  0.0000  0.0000  0.0000  0.0000  0.0000  0.0000  0.0000  0.0000
  o =  0.1109  v =  0.0000  0.0000  0.0000  0.0000  0.0000 -0.0962  0.9613  0.0574 -0.0423  0.2483      0.0000  0.0000  0.0000  0.0000  0.0000  0.0000  0.0000  0.0000  0.0000  0.0000
  o =  0.1196  v =  0.0000  0.0000  0.0000  0.0000  0.0000  0.7863  0.0229 -0.5200 -0.0234  0.3321      0.0000  0.0000  0.0000  0.0000  0.0000  0.0000  0.0000  0.0000  0.0000  0.0000
  o =  0.3143  v =  0.0000  0.0000  0.0000  0.0000  0.0000 -0.1390  0.0596 -0.2867  0.9443 -0.0575      0.0000  0.0000  0.0000  0.0000  0.0000  0.0000  0.0000  0.0000  0.0000  0.0000
  o =  0.3175  v =  0.0000  0.0000  0.0000  0.0000  0.0000  0.0653  0.2431 -0.4247 -0.1864 -0.8494      0.0000  0.0000  0.0000  0.0000  0.0000  0.0000  0.0000  0.0000  0.0000  0.0000
  o =  0.4628  v =  0.1106  0.1530 -0.2142 -0.6858 -0.6695  0.0000  0.0000  0.0000  0.0000  0.0000      0.0000  0.0000  0.0000  0.0000  0.0000  0.0000  0.0000  0.0000  0.0000  0.0000
  o =  0.4653  v = -0.0747  0.1626 -0.4612  0.6874 -0.5318  0.0000  0.0000  0.0000  0.0000  0.0000      0.0000  0.0000  0.0000  0.0000  0.0000  0.0000  0.0000  0.0000  0.0000  0.0000
  o =  0.9684  v =  0.5229  0.1188  0.7255  0.2364 -0.3607  0.0000  0.0000  0.0000  0.0000  0.0000      0.0000  0.0000  0.0000  0.0000  0.0000  0.0000  0.0000  0.0000  0.0000  0.0000
  o =  0.9695  v = -0.0986 -0.9483  0.0700  0.0351 -0.2914  0.0000  0.0000  0.0000  0.0000  0.0000      0.0000  0.0000  0.0000  0.0000  0.0000  0.0000  0.0000  0.0000  0.0000  0.0000
  o =  0.9730  v =  0.8361 -0.1919 -0.4584  0.0084  0.2323  0.0000  0.0000  0.0000  0.0000  0.0000      0.0000  0.0000  0.0000  0.0000  0.0000  0.0000  0.0000  0.0000  0.0000  0.0000
atom =   8  type =  2  l = 2
 
 onsite density matrix
 
spin component  1
 
  0.9627  0.0031  0.0071  0.0642 -0.0184
  0.0031  0.9444  0.0546  0.0032  0.0954
  0.0071  0.0546  0.8392 -0.0852 -0.1964
  0.0642  0.0032 -0.0852  0.4929  0.0482
 -0.0184  0.0954 -0.1964  0.0482  0.5999
 
spin component  2
 
  0.1197 -0.0015  0.0028 -0.0300  0.0068
 -0.0015  0.1238 -0.0252 -0.0020 -0.0432
  0.0028 -0.0252  0.1655  0.0393  0.0773
 -0.0300 -0.0020  0.0393  0.2992 -0.0219
  0.0068 -0.0432  0.0773 -0.0219  0.2612
 
 occupancies and eigenvectors
 
  o =  0.1070  v =  0.0000  0.0000  0.0000  0.0000  0.0000  0.5907 -0.1132 -0.6810  0.2670  0.3213      0.0000  0.0000  0.0000  0.0000  0.0000  0.0000  0.0000  0.0000  0.0000  0.0000
  o =  0.1109  v =  0.0000  0.0000  0.0000  0.0000  0.0000  0.0961  0.9613  0.0574  0.0423  0.2483      0.0000  0.0000  0.0000  0.0000  0.0000  0.0000  0.0000  0.0000  0.0000  0.0000
  o =  0.1196  v =  0.0000  0.0000  0.0000  0.0000  0.0000  0.7863 -0.0229  0.5200 -0.0234 -0.3321      0.0000  0.0000  0.0000  0.0000  0.0000  0.0000  0.0000  0.0000  0.0000  0.0000
  o =  0.3143  v =  0.0000  0.0000  0.0000  0.0000  0.0000 -0.1390 -0.0596  0.2867  0.9443  0.0575      0.0000  0.0000  0.0000  0.0000  0.0000  0.0000  0.0000  0.0000  0.0000  0.0000
  o =  0.3175  v =  0.0000  0.0000  0.0000  0.0000  0.0000  0.0653 -0.2431  0.4248 -0.1864  0.8494      0.0000  0.0000  0.0000  0.0000  0.0000  0.0000  0.0000  0.0000  0.0000  0.0000
  o =  0.4628  v = -0.1107  0.1530 -0.2142  0.6858 -0.6694  0.0000  0.0000  0.0000  0.0000  0.0000      0.0000  0.0000  0.0000  0.0000  0.0000  0.0000  0.0000  0.0000  0.0000  0.0000
  o =  0.4653  v =  0.0747  0.1626 -0.4612 -0.6874 -0.5318  0.0000  0.0000  0.0000  0.0000  0.0000      0.0000  0.0000  0.0000  0.0000  0.0000  0.0000  0.0000  0.0000  0.0000  0.0000
  o =  0.9684  v =  0.5230 -0.1189 -0.7255  0.2364  0.3607  0.0000  0.0000  0.0000  0.0000  0.0000      0.0000  0.0000  0.0000  0.0000  0.0000  0.0000  0.0000  0.0000  0.0000  0.0000
  o =  0.9695  v =  0.0985 -0.9483  0.0701 -0.0351 -0.2915  0.0000  0.0000  0.0000  0.0000  0.0000      0.0000  0.0000  0.0000  0.0000  0.0000  0.0000  0.0000  0.0000  0.0000  0.0000
  o =  0.9730  v =  0.8360  0.1919  0.4585  0.0084 -0.2324  0.0000  0.0000  0.0000  0.0000  0.0000      0.0000  0.0000  0.0000  0.0000  0.0000  0.0000  0.0000  0.0000  0.0000  0.0000
     EDDAV:  cpu time  192.7951: real time  192.8226
       DOS:  cpu time    0.0167: real time    0.0167
    --------------------------------------------
      LOOP:  cpu time  194.5019: real time  194.5296

 eigenvalue-minimisations  : 53334
 total energy-change (2. order) : 0.2087996E+04  (-0.8912519E+04)
 number of electron     163.9999977 magnetization      12.0000004
 augmentation part      163.9999977 magnetization      12.0000004

 Free energy of the ion-electron system (eV)
  ---------------------------------------------------
  alpha Z        PSCENC =       913.92253112
  Ewald energy   TEWEN  =    -12913.29546012
  -Hartree energ DENC   =     -4151.54904078
  -exchange      EXHF   =         0.00000000
  -V(xc)+E(xc)   XCENC  =       914.61308950
  PAW double counting   =     17694.04605406   -17997.35274907
  entropy T*S    EENTRO =        -0.00445063
  eigenvalues    EBANDS =       313.92314726
  atomic energy  EATOM  =     17313.69303802
  Solvation  Ediel_sol  =         0.00000000
  ---------------------------------------------------
  free energy    TOTEN  =      2087.99615933 eV

  energy without entropy =     2088.00060996  energy(sigma->0) =     2087.99838465


--------------------------------------------------------------------------------------------------------




--------------------------------------- Iteration      1(   2)  ---------------------------------------


     EDDAV:  cpu time  191.8057: real time  191.8586
       DOS:  cpu time    0.0193: real time    0.0192
    --------------------------------------------
      LOOP:  cpu time  191.8250: real time  191.8779

 eigenvalue-minimisations  : 51975
 total energy-change (2. order) :-0.2064798E+04  (-0.1962399E+04)
 number of electron     163.9999977 magnetization      12.0000004
 augmentation part      163.9999977 magnetization      12.0000004

 Free energy of the ion-electron system (eV)
  ---------------------------------------------------
  alpha Z        PSCENC =       913.92253112
  Ewald energy   TEWEN  =    -12913.29546012
  -Hartree energ DENC   =     -4151.54904078
  -exchange      EXHF   =         0.00000000
  -V(xc)+E(xc)   XCENC  =       914.61308950
  PAW double counting   =     17694.04605406   -17997.35274907
  entropy T*S    EENTRO =        -0.01060398
  eigenvalues    EBANDS =     -1750.86841518
  atomic energy  EATOM  =     17313.69303802
  Solvation  Ediel_sol  =         0.00000000
  ---------------------------------------------------
  free energy    TOTEN  =        23.19844355 eV

  energy without entropy =       23.20904753  energy(sigma->0) =       23.20374554


--------------------------------------------------------------------------------------------------------




--------------------------------------- Iteration      1(   3)  ---------------------------------------


     EDDAV:  cpu time  220.9470: real time  220.9663
       DOS:  cpu time    0.0071: real time    0.0071
    --------------------------------------------
      LOOP:  cpu time  220.9541: real time  220.9734

 eigenvalue-minimisations  : 63105
 total energy-change (2. order) :-0.2799633E+03  (-0.2546817E+03)
 number of electron     163.9999977 magnetization      12.0000004
 augmentation part      163.9999977 magnetization      12.0000004

 Free energy of the ion-electron system (eV)
  ---------------------------------------------------
  alpha Z        PSCENC =       913.92253112
  Ewald energy   TEWEN  =    -12913.29546012
  -Hartree energ DENC   =     -4151.54904078
  -exchange      EXHF   =         0.00000000
  -V(xc)+E(xc)   XCENC  =       914.61308950
  PAW double counting   =     17694.04605406   -17997.35274907
  entropy T*S    EENTRO =        -0.00000000
  eigenvalues    EBANDS =     -2030.84230253
  atomic energy  EATOM  =     17313.69303802
  Solvation  Ediel_sol  =         0.00000000
  ---------------------------------------------------
  free energy    TOTEN  =      -256.76483983 eV

  energy without entropy =     -256.76483983  energy(sigma->0) =     -256.76483983


--------------------------------------------------------------------------------------------------------




--------------------------------------- Iteration      1(   4)  ---------------------------------------


     EDDAV:  cpu time  226.7691: real time  226.7869
       DOS:  cpu time    0.0052: real time    0.0052
    --------------------------------------------
      LOOP:  cpu time  226.7742: real time  226.7920

 eigenvalue-minimisations  : 65562
 total energy-change (2. order) :-0.2067623E+02  (-0.2053950E+02)
 number of electron     163.9999977 magnetization      12.0000004
 augmentation part      163.9999977 magnetization      12.0000004

[...]
  0.002  -0.002   0.000  -0.003   0.007  -0.000   0.005  -0.015
  0.000  -0.000  -0.011   0.000  -0.000   0.008  -0.000   0.000
 -0.000  -0.000   0.015   0.000   0.000  -0.013  -0.000  -0.000
  0.009  -0.001   0.000  -0.026   0.000  -0.000   0.024   0.002
 -0.024   0.002   0.000  -0.003   0.007  -0.000   0.002  -0.007
  0.001  -0.001   0.000  -0.004   0.008  -0.000   0.003  -0.010
 pseudopotential strength for first ion, spin component:           2
-17.891  -4.723  -0.000  -0.001  -0.002   0.000   0.001  -0.000
 -4.723  -2.101  -0.000  -0.001  -0.001   0.000   0.001   0.002
 -0.000  -0.000 -18.769  -0.000   0.000   5.677   0.000  -0.000
 -0.001  -0.001  -0.000 -18.755  -0.018   0.000   5.673   0.013
 -0.002  -0.001   0.000  -0.018 -18.766  -0.000   0.013   5.678
  0.000   0.000   5.677   0.000  -0.000   9.384   0.000  -0.000
  0.001   0.001   0.000   5.673   0.013   0.000   9.349   0.026
 -0.000   0.002  -0.000   0.013   5.678  -0.000   0.026   9.367
  0.000  -0.000  -0.008   0.000  -0.000   0.011  -0.000   0.000
 -0.000   0.000   0.011  -0.000   0.000  -0.019   0.000  -0.000
  0.008  -0.003   0.000  -0.017  -0.000  -0.000   0.028   0.003
 -0.019   0.005   0.000  -0.004   0.005  -0.000   0.006  -0.009
  0.002  -0.002   0.000  -0.003   0.005  -0.000   0.005  -0.010
  0.000  -0.000  -0.009   0.000  -0.000   0.007  -0.000   0.000
 -0.000   0.000   0.012  -0.000   0.000  -0.012   0.000  -0.000
  0.009  -0.001   0.000  -0.020  -0.000  -0.000   0.019   0.002
 -0.022   0.001   0.000  -0.004   0.005  -0.000   0.003  -0.006
  0.002  -0.001   0.000  -0.003   0.005  -0.000   0.003  -0.007
 total augmentation occupancy for first ion, spin component:           1
  2.003   0.010   0.000   0.000   0.000  -0.000   0.000  -0.000   0.000  -0.000  -0.001   0.003   0.000  -0.000   0.000   0.000
  0.010   0.458   0.000   0.002  -0.000  -0.000  -0.002  -0.000   0.000  -0.000   0.025  -0.072   0.001  -0.000   0.000  -0.015
  0.000   0.000   2.008   0.000  -0.000   0.002   0.000  -0.000   0.008  -0.012   0.000  -0.000  -0.000  -0.003   0.004  -0.000
  0.000   0.002   0.000   2.008  -0.000   0.000   0.001   0.003   0.000   0.000   0.022   0.003   0.003  -0.000  -0.000  -0.007
  0.000  -0.000  -0.000  -0.000   2.008  -0.000   0.003   0.002  -0.000  -0.000   0.004  -0.009  -0.010   0.000   0.000  -0.001
 -0.000  -0.000   0.002   0.000  -0.000   0.030  -0.000   0.000  -0.016   0.032   0.000   0.000   0.000   0.009  -0.018  -0.000
  0.000  -0.002   0.000   0.001   0.003  -0.000   0.032  -0.005   0.000  -0.000  -0.047  -0.012  -0.007  -0.000   0.000   0.027
 -0.000  -0.000  -0.000   0.003   0.002   0.000  -0.005   0.031  -0.000   0.000  -0.014   0.021   0.027   0.000  -0.000   0.008
  0.000   0.000   0.008   0.000  -0.000  -0.016   0.000  -0.000   0.384  -0.125  -0.000  -0.000  -0.000  -0.223   0.073   0.000
 -0.000  -0.000  -0.012   0.000  -0.000   0.032  -0.000   0.000  -0.125   0.347   0.000   0.000   0.000   0.073  -0.202  -0.000
 -0.001   0.025   0.000   0.022   0.004   0.000  -0.047  -0.014  -0.000   0.000   0.378   0.089  -0.028   0.000  -0.000  -0.220
  0.003  -0.072  -0.000   0.003  -0.009   0.000  -0.012   0.021  -0.000   0.000   0.089   0.285  -0.009   0.000  -0.000  -0.051
  0.000   0.001  -0.000   0.003  -0.010   0.000  -0.007   0.027  -0.000   0.000  -0.028  -0.009   0.275   0.000  -0.000   0.018
 -0.000  -0.000  -0.003  -0.000   0.000   0.009  -0.000   0.000  -0.223   0.073   0.000   0.000   0.000   0.131  -0.044  -0.000
  0.000   0.000   0.004  -0.000   0.000  -0.018   0.000  -0.000   0.073  -0.202  -0.000  -0.000  -0.000  -0.044   0.120   0.000
  0.000  -0.015  -0.000  -0.007  -0.001  -0.000   0.027   0.008   0.000  -0.000  -0.220  -0.051   0.018  -0.000   0.000   0.129
  0.000   0.042   0.000  -0.001   0.003  -0.000   0.007  -0.012   0.000  -0.000  -0.051  -0.162   0.005  -0.000   0.000   0.029
 -0.000  -0.000   0.000  -0.001   0.003  -0.000   0.004  -0.015   0.000  -0.000   0.018   0.005  -0.157  -0.000   0.000  -0.011
 total augmentation occupancy for first ion, spin component:           2
 -0.000  -0.001   0.000   0.000  -0.000  -0.000   0.000  -0.000  -0.000   0.000   0.000   0.000  -0.000   0.000  -0.000  -0.000
 -0.001   0.012  -0.000   0.000  -0.000  -0.000  -0.001   0.000  -0.000   0.000   0.000  -0.001   0.000   0.000  -0.000  -0.000
  0.000  -0.000  -0.000  -0.000   0.000  -0.000  -0.000   0.000   0.000  -0.000   0.000  -0.000  -0.000   0.000  -0.000  -0.000
  0.000   0.000  -0.000  -0.000  -0.000  -0.000  -0.000   0.000   0.000   0.000   0.000  -0.000  -0.000  -0.000  -0.000   0.000
 -0.000  -0.000   0.000  -0.000  -0.000  -0.000   0.000  -0.000  -0.000  -0.000  -0.000   0.000   0.000   0.000   0.000   0.000
 -0.000  -0.000  -0.000  -0.000  -0.000   0.000   0.000   0.000  -0.001   0.001   0.000   0.000  -0.000   0.000  -0.000  -0.000
  0.000  -0.001  -0.000  -0.000   0.000   0.000   0.001  -0.000   0.000   0.000  -0.002   0.001   0.001   0.000  -0.000   0.001
 -0.000   0.000   0.000   0.000  -0.000   0.000  -0.000   0.000   0.000   0.000   0.001   0.000   0.000   0.000  -0.000  -0.000
 -0.000  -0.000   0.000   0.000  -0.000  -0.001   0.000   0.000  -0.001  -0.003  -0.000   0.000   0.000   0.000   0.001   0.000
  0.000   0.000  -0.000   0.000  -0.000   0.001   0.000   0.000  -0.003   0.002   0.000   0.000  -0.000   0.001  -0.000  -0.000
  0.000   0.000   0.000   0.000  -0.000   0.000  -0.002   0.001  -0.000   0.000   0.002   0.000   0.002   0.000  -0.000  -0.001
  0.000  -0.001  -0.000  -0.000   0.000   0.000   0.001   0.000   0.000   0.000   0.000   0.006  -0.001  -0.000  -0.000  -0.000
 -0.000   0.000  -0.000  -0.000   0.000  -0.000   0.001   0.000   0.000  -0.000   0.002  -0.001   0.007  -0.000   0.000  -0.001
  0.000   0.000   0.000  -0.000   0.000   0.000   0.000   0.000   0.000   0.001   0.000  -0.000  -0.000   0.000  -0.001  -0.000
 -0.000  -0.000  -0.000  -0.000   0.000  -0.000  -0.000  -0.000   0.001  -0.000  -0.000  -0.000   0.000  -0.001   0.000   0.000
 -0.000  -0.000  -0.000   0.000   0.000  -0.000   0.001  -0.000   0.000  -0.000  -0.001  -0.000  -0.001  -0.000   0.000   0.001
 -0.000   0.001   0.000   0.000  -0.000  -0.000  -0.000  -0.000  -0.000  -0.000  -0.000  -0.003   0.000   0.000   0.000   0.000
  0.000  -0.000   0.000   0.000  -0.000   0.000  -0.000  -0.000  -0.000   0.000  -0.001   0.000  -0.003   0.000  -0.000   0.001


------------------------ aborting loop because EDIFF is reached ----------------------------------------


 


 total charge     
 
# of ion       s       p       d       tot
------------------------------------------
    1        2.026   5.875   0.262   8.163
    2        2.026   5.875   0.262   8.163
    3        2.026   5.875   0.262   8.163
    4        2.026   5.875   0.262   8.163
    5        0.372   6.450   4.776  11.598
    6        0.372   6.450   4.776  11.598
    7        0.372   6.450   4.776  11.598
    8        0.372   6.450   4.776  11.598
    9        1.571   3.522   0.000   5.093
   10        1.571   3.522   0.000   5.093
   11        1.571   3.522   0.000   5.093
   12        1.571   3.522   0.000   5.093
   13        1.571   3.516   0.000   5.087
   14        1.571   3.516   0.000   5.087
   15        1.571   3.516   0.000   5.087
   16        1.571   3.516   0.000   5.087
   17        1.571   3.516   0.000   5.087
   18        1.571   3.516   0.000   5.087
   19        1.571   3.516   0.000   5.087
   20        1.571   3.516   0.000   5.087
--------------------------------------------------
tot         28.440  91.520  20.151 140.110
 


 magnetization (x)
 
# of ion       s       p       d       tot
------------------------------------------
    1        0.001   0.001   0.004   0.006
    2        0.001   0.001   0.004   0.006
    3        0.001   0.001   0.004   0.006
    4        0.001   0.001   0.004   0.006
    5        0.009   0.019   2.869   2.897
    6        0.009   0.019   2.869   2.897
    7        0.009   0.019   2.869   2.897
    8        0.009   0.019   2.869   2.897
    9        0.001   0.010   0.000   0.011
   10        0.001   0.010   0.000   0.011
   11        0.001   0.011   0.000   0.011
   12        0.001   0.011   0.000   0.011
   13        0.001   0.006   0.000   0.006
   14        0.001   0.006   0.000   0.006
   15        0.001   0.006   0.000   0.006
   16        0.001   0.006   0.000   0.006
   17        0.001   0.006   0.000   0.006
   18        0.001   0.006   0.000   0.006
   19        0.001   0.006   0.000   0.006
   20        0.001   0.006   0.000   0.006
--------------------------------------------------
tot          0.050   0.166  11.492  11.708
 
    CHARGE:  cpu time    2.2701: real time    2.2702
    FORLOC:  cpu time    0.0081: real time    0.0081
    FORNL :  cpu time   30.1970: real time   30.2044
    STRESS:  cpu time  436.4119: real time  436.4822
    FORCOR:  cpu time    0.1950: real time    0.1950
    FORHAR:  cpu time    0.0191: real time    0.0191
    MIXING:  cpu time    0.0054: real time    0.0054
    OFIELD:  cpu time    0.0001: real time    0.0001

  FORCE on cell =-STRESS in cart. coord.  units (eV):
  Direction    XX          YY          ZZ          XY          YZ          ZX
  --------------------------------------------------------------------------------------
  Alpha Z   913.92253   913.92253   913.92253
  Ewald   -4363.68715 -4261.49945 -4288.14882     0.00029    -0.00006     0.00009
  Hartree  1352.52527  1410.68839  1388.39323     0.00015     0.00001     0.00005
  E(xc)    -912.24125  -912.26550  -912.32721     0.00000    -0.00000     0.00000
  Local     294.27768   135.99464   186.95114    -0.00044     0.00005    -0.00013
  n-local  -543.82962  -542.90500  -543.59154    -0.00000     0.00002    -0.00000
  augment   626.10297   625.92500   625.51964     0.00000     0.00000     0.00000
  Kinetic  2633.13683  2630.49284  2629.18060    -0.00001    -0.00003     0.00001
  Fock        0.00000     0.00000     0.00000     0.00000     0.00000     0.00000
  -------------------------------------------------------------------------------------
  Total       0.20727     0.35344    -0.10043    -0.00001    -0.00001     0.00001
  in kB       1.59986     2.72807    -0.77519    -0.00004    -0.00005     0.00005
  external pressure =        1.18 kB  Pullay stress =        0.00 kB


 VOLUME and BASIS-vectors are now :
 -----------------------------------------------------------------------------
  energy-cutoff  :      520.00
  volume of cell :      207.57
      direct lattice vectors                 reciprocal lattice vectors
     5.289838544  0.000000085 -0.000000011     0.189041687 -0.000000003  0.000000000
     0.000000125  7.452132901  0.000000559    -0.000000002  0.134189770 -0.000000010
    -0.000000013  0.000000399  5.265606181     0.000000000 -0.000000014  0.189911658

  length of vectors
     5.289838544  7.452132901  5.265606181     0.189041687  0.134189770  0.189911658


 FORCES acting on ions
    electron-ion (+dipol)            ewald-force                    non-local-force                 convergence-correction
 -----------------------------------------------------------------------------------------------
   0.429E+02 0.890E-04 0.125E+02   -.429E+02 -.949E-04 -.127E+02   -.936E-01 0.585E-05 0.196E+00   0.475E-04 0.201E-05 -.432E-04
   0.429E+02 0.218E-03 -.125E+02   -.429E+02 -.221E-03 0.127E+02   -.936E-01 0.311E-05 -.196E+00   0.511E-04 -.128E-05 0.557E-04
   -.430E+02 -.419E-04 -.126E+02   0.429E+02 0.462E-04 0.128E+02   0.898E-01 -.309E-05 -.197E+00   -.380E-04 -.355E-05 0.445E-04
   -.430E+02 -.156E-03 0.126E+02   0.429E+02 0.156E-03 -.128E+02   0.898E-01 -.127E-04 0.197E+00   -.463E-04 -.140E-05 -.509E-04
   0.111E+00 -.137E+00 -.737E-01   -.101E+00 0.116E+00 0.771E-01   -.627E-02 0.207E-01 -.440E-02   0.160E-04 -.800E-05 -.219E-04
   0.111E+00 0.137E+00 0.735E-01   -.101E+00 -.116E+00 -.770E-01   -.627E-02 -.207E-01 0.439E-02   0.117E-04 0.200E-04 0.236E-04
   0.111E+00 0.137E+00 -.735E-01   -.101E+00 -.116E+00 0.770E-01   -.627E-02 -.207E-01 -.439E-02   0.145E-04 0.103E-04 -.207E-04
   0.111E+00 -.137E+00 0.737E-01   -.101E+00 0.116E+00 -.771E-01   -.626E-02 0.207E-01 0.440E-02   0.119E-04 -.146E-04 0.165E-04
   -.130E+02 -.433E-03 0.497E+02   0.135E+02 0.400E-03 -.547E+02   -.541E+00 -.236E-05 0.502E+01   -.123E-03 0.398E-04 -.260E-03
   -.130E+02 0.780E-03 -.497E+02   0.135E+02 -.769E-03 0.547E+02   -.541E+00 0.143E-04 -.502E+01   -.126E-03 -.334E-04 0.254E-03
   0.131E+02 0.496E-03 -.498E+02   -.136E+02 -.471E-03 0.548E+02   0.559E+00 0.991E-05 -.503E+01   0.117E-03 -.404E-04 0.256E-03
   0.131E+02 -.690E-03 0.498E+02   -.136E+02 0.670E-03 -.548E+02   0.559E+00 -.480E-05 0.503E+01   0.116E-03 0.329E-04 -.248E-03
   -.242E+02 -.274E+02 -.284E+02   0.270E+02 0.306E+02 0.314E+02   -.278E+01 -.321E+01 -.300E+01   0.129E-03 0.164E-03 0.180E-03
   -.242E+02 0.274E+02 0.284E+02   0.270E+02 -.306E+02 -.314E+02   -.278E+01 0.321E+01 0.300E+01   0.143E-03 -.163E-03 -.165E-03
   0.240E+02 -.273E+02 0.287E+02   -.268E+02 0.305E+02 -.317E+02   0.277E+01 -.321E+01 0.304E+01   -.176E-03 0.169E-03 -.128E-03
   0.240E+02 0.273E+02 -.287E+02   -.268E+02 -.305E+02 0.317E+02   0.277E+01 0.321E+01 -.304E+01   -.197E-03 -.170E-03 0.115E-03
   0.240E+02 0.273E+02 0.287E+02   -.268E+02 -.305E+02 -.317E+02   0.277E+01 0.321E+01 0.304E+01   -.128E-03 -.165E-03 -.181E-03
   0.240E+02 -.273E+02 -.287E+02   -.268E+02 0.305E+02 0.317E+02   0.277E+01 -.321E+01 -.304E+01   -.142E-03 0.168E-03 0.166E-03
   -.242E+02 0.274E+02 -.284E+02   0.270E+02 -.306E+02 0.314E+02   -.278E+01 0.321E+01 -.300E+01   0.180E-03 -.165E-03 0.128E-03
   -.242E+02 -.274E+02 0.284E+02   0.270E+02 0.306E+02 -.314E+02   -.278E+01 -.321E+01 0.300E+01   0.197E-03 0.168E-03 -.114E-03
 -----------------------------------------------------------------------------------------------
   0.770E-01 -.164E-04 -.504E-05   -.249E-13 -.675E-13 0.746E-13   -.537E-01 -.165E-04 -.625E-05   0.588E-04 0.843E-05 0.569E-05
 
 
 POSITION                                       TOTAL-FORCE (eV/Angst)
 -----------------------------------------------------------------------------------
      2.84320      1.86303      2.67040        -0.020971      0.000003     -0.011212
      0.19828      1.86303      5.22801        -0.020971     -0.000000      0.011212
      2.44663      5.58910      2.59527         0.020224     -0.000001      0.012857
      5.09155      5.58910      0.03753         0.020227     -0.000014     -0.012866
      0.00027      7.45206      2.63269         0.002235     -0.000268     -0.000663
      2.64518      3.72614      0.00012         0.002225      0.000270      0.000663
      0.00027      3.72614      2.63269         0.002224      0.000270     -0.000662
      2.64519      7.45206      0.00012         0.002230     -0.000271      0.000665
      5.22545      1.86303      2.26806        -0.014919      0.000005     -0.006442
      2.58053      1.86303      0.36475        -0.014919     -0.000007      0.006441
      0.06417      5.58910      2.99745         0.013238     -0.000004      0.005285
      2.70909      5.58910      4.90096         0.013237      0.000009     -0.005282
      4.17129      0.26439      4.15674         0.006457      0.026373     -0.011170
      1.52637      3.46168      3.74167         0.006461     -0.026372      0.011171
      1.11839      3.99048      1.10881        -0.007478      0.026408      0.010691
      3.76331      7.18772      1.52400        -0.007479     -0.026406     -0.010695
      1.11839      7.18772      1.10881        -0.007472     -0.026405      0.010687
      3.76331      3.99048      1.52399        -0.007478      0.026409     -0.010687
      4.17129      3.46168      4.15674         0.006463     -0.026372     -0.011175
      1.52637      0.26439      3.74167         0.006467      0.026372      0.011180
 -----------------------------------------------------------------------------------
    total drift:                                0.023320     -0.000025     -0.000006


--------------------------------------------------------------------------------------------------------



  FREE ENERGIE OF THE ION-ELECTRON SYSTEM (eV)
  ---------------------------------------------------
  free  energy   TOTEN  =      -233.16924250 eV

  energy  without entropy=     -233.16924250  energy(sigma->0) =     -233.16924250
 


--------------------------------------------------------------------------------------------------------


    POTLOK:  cpu time    1.9091: real time    1.9091


--------------------------------------------------------------------------------------------------------




--------------------------------------------------------------------------------------------------------


  
 reached required accuracy - stopping structural energy minimisation
     LOOP+:  cpu time 4940.3247: real time 4940.9692
    4ORBIT:  cpu time    0.0000: real time    0.0000
 


 total charge     
 
# of ion       s       p       d       tot
------------------------------------------
    1        2.026   5.875   0.262   8.163
    2        2.026   5.875   0.262   8.163
    3        2.026   5.875   0.262   8.163
    4        2.026   5.875   0.262   8.163
    5        0.372   6.450   4.776  11.598
    6        0.372   6.450   4.776  11.598
    7        0.372   6.450   4.776  11.598
    8        0.372   6.450   4.776  11.598
    9        1.571   3.522   0.000   5.093
   10        1.571   3.522   0.000   5.093
   11        1.571   3.522   0.000   5.093
   12        1.571   3.522   0.000   5.093
   13        1.571   3.516   0.000   5.087
   14        1.571   3.516   0.000   5.087
   15        1.571   3.516   0.000   5.087
   16        1.571   3.516   0.000   5.087
   17        1.571   3.516   0.000   5.087
   18        1.571   3.516   0.000   5.087
   19        1.571   3.516   0.000   5.087
   20        1.571   3.516   0.000   5.087
--------------------------------------------------
tot         28.440  91.520  20.151 140.110
 


 magnetization (x)
 
# of ion       s       p       d       tot
------------------------------------------
    1        0.001   0.001   0.004   0.006
    2        0.001   0.001   0.004   0.006
    3        0.001   0.001   0.004   0.006
    4        0.001   0.001   0.004   0.006
    5        0.009   0.019   2.869   2.897
    6        0.009   0.019   2.869   2.897
    7        0.009   0.019   2.869   2.897
    8        0.009   0.019   2.869   2.897
    9        0.001   0.010   0.000   0.011
   10        0.001   0.010   0.000   0.011
   11        0.001   0.011   0.000   0.011
   12        0.001   0.011   0.000   0.011
   13        0.001   0.006   0.000   0.006
   14        0.001   0.006   0.000   0.006
   15        0.001   0.006   0.000   0.006
   16        0.001   0.006   0.000   0.006
   17        0.001   0.006   0.000   0.006
   18        0.001   0.006   0.000   0.006
   19        0.001   0.006   0.000   0.006
   20        0.001   0.006   0.000   0.006
--------------------------------------------------
tot          0.050   0.166  11.492  11.708
 

 total amount of memory used by VASP MPI-rank0   250540. kBytes
=======================================================================

   base      :      30000. kBytes
   nonlr-proj:       5168. kBytes
   fftplans  :       2806. kBytes
   grid      :       9904. kBytes
   one-center:        155. kBytes
   wavefun   :     202507. kBytes
 
  
  
 General timing and accounting informations for this job:
 ========================================================
  
                  Total CPU time used (sec):     4968.590
                            User time (sec):     4965.103
                          System time (sec):        3.488
                         Elapsed time (sec):     4969.488
  
                   Maximum memory used (kb):      460768.
                   Average memory used (kb):           0.
  
                          Minor page faults:        74802
                          Major page faults:            0
                 Voluntary context switches:           64
