       N       E                     dE             d eps       ncg     rms          ort
DAV:   1     0.265522157545E+04    0.26552E+04   -0.14838E+05  6336   0.156E+03
DAV:   2    -0.261676382957E+03   -0.29169E+04   -0.28158E+04  6336   0.431E+02
DAV:   3    -0.511419769236E+03   -0.24974E+03   -0.24526E+03  6336   0.141E+02
DAV:   4    -0.522399962945E+03   -0.10980E+02   -0.10853E+02  6336   0.310E+01
DAV:   5    -0.523053034872E+03   -0.65307E+00   -0.65059E+00  6336   0.463E+00
SDA:   6    -0.350923491974E+03    0.17213E+03   -0.65059E+00  6336   0.540E+03 0.000E+00
CGA:   7    -0.397766625288E+03   -0.46843E+02   -0.60573E+02  6336   0.265E+03 0.106E+02
CGA:   8    -0.406402015941E+03   -0.86354E+01   -0.13109E+02  6336   0.378E+03-0.333E+02
CGA:   9    -0.395391250138E+03    0.11011E+02   -0.15043E+02  6336   0.223E+03-0.120E+03
CGA:  10    -0.410316917549E+03   -0.14926E+02   -0.49329E+01  6336   0.110E+03-0.767E+02
CGA:  11    -0.412973046993E+03   -0.26561E+01   -0.38392E+01  6336   0.377E+03-0.141E+03
CGA:  12    -0.414425122730E+03   -0.14521E+01   -0.30359E+02  6336   0.651E+02-0.169E+02
CGA:  13    -0.405674968844E+03    0.87502E+01   -0.34384E+01  6336   0.452E+03-0.154E+03
CGA:  14    -0.415982977042E+03   -0.10308E+02   -0.22189E+02  6336   0.421E+02-0.320E+02
CGA:  15    -0.411862362201E+03    0.41206E+01   -0.18433E+01  6336   0.744E+03-0.373E+03
CGA:  16    -0.417187679870E+03   -0.53253E+01   -0.52805E+02  6336   0.967E+02-0.223E+02
CGA:  17    -0.406111510398E+03    0.11076E+02   -0.45173E+01  6336   0.590E+03-0.204E+03
CGA:  18    -0.415690111836E+03   -0.95786E+01   -0.35235E+02  6336   0.379E+02-0.356E+02
CGA:  19    -0.420468277579E+03   -0.47782E+01   -0.15031E+01  6336   0.575E+02-0.980E+02
CGA:  20    -0.421076946687E+03   -0.60867E+00   -0.16955E+01  6336   0.125E+03-0.275E+01
CGA:  21    -0.410510190883E+03    0.10567E+02   -0.36376E+01  6336   0.435E+03-0.304E+03
CGA:  22    -0.417451444554E+03   -0.69413E+01   -0.26518E+02  6336   0.609E+02-0.407E+02
CGA:  23    -0.416362036699E+03    0.10894E+01   -0.21103E+01  6336   0.268E+03-0.170E+03
CGA:  24    -0.415171431598E+03    0.11906E+01   -0.14022E+02  6336   0.510E+03-0.108E+03
CGA:  25    -0.416552505418E+03   -0.13811E+01   -0.15961E+02  6336   0.648E+02-0.472E+02
CGA:  26    -0.420859443383E+03   -0.43069E+01   -0.16105E+01  6336   0.695E+02 0.816E+01
CGA:  27    -0.418707947318E+03    0.21515E+01   -0.17499E+01  6336   0.215E+03-0.159E+03
CGA:  28    -0.421026982401E+03   -0.23190E+01   -0.82380E+01  6336   0.896E+02-0.121E+03
CGA:  29    -0.423811754841E+03   -0.27848E+01   -0.24138E+01  6336   0.375E+01-0.406E+01
CGA:  30    -0.423953908219E+03   -0.14215E+00   -0.84921E-01  6336   0.184E+01 0.213E+01
CGA:  31    -0.424011915550E+03   -0.58007E-01   -0.46671E-01  6336   0.100E+01 0.386E+00
CGA:  32    -0.424071919217E+03   -0.60004E-01   -0.57904E-01  6336   0.279E+01-0.241E-01
CGA:  33    -0.424179542058E+03   -0.10762E+00   -0.74551E-01  6336   0.433E+01 0.102E+01
CGA:  34    -0.424288375704E+03   -0.10883E+00   -0.64986E-01  6336   0.258E+01 0.397E+01
CGA:  35    -0.424346087909E+03   -0.57712E-01   -0.68834E-01  6336   0.462E+00-0.341E+00
CGA:  36    -0.424385692809E+03   -0.39605E-01   -0.38912E-01  6336   0.155E+01 0.147E-01
CGA:  37    -0.424485506252E+03   -0.99813E-01   -0.99362E-01  6336   0.198E+01-0.250E-01
CGA:  38    -0.424576923126E+03   -0.91417E-01   -0.84563E-01  6336   0.418E+00-0.812E-02
CGA:  39    -0.424595360204E+03   -0.18437E-01   -0.18327E-01  6336   0.199E+00-0.728E-02
CGA:  40    -0.424610755900E+03   -0.15396E-01   -0.15506E-01  6336   0.358E+00-0.180E-01
CGA:  41    -0.424631892924E+03   -0.21137E-01   -0.21336E-01  6336   0.874E-01 0.544E-02
CGA:  42    -0.424636610124E+03   -0.47172E-02   -0.45468E-02  6336   0.838E-01-0.112E-01
CGA:  43    -0.424641751345E+03   -0.51412E-02   -0.51370E-02  6336   0.936E-01-0.533E-02
CGA:  44    -0.424648020722E+03   -0.62694E-02   -0.62704E-02  6336   0.469E-01-0.823E-02
CGA:  45    -0.424649558233E+03   -0.15375E-02   -0.15286E-02  6336   0.171E-01-0.138E-02
CGA:  46    -0.424651101827E+03   -0.15436E-02   -0.21210E-02  6336   0.706E-01-0.996E-02
CGA:  47    -0.424652408404E+03   -0.13066E-02   -0.14783E-02  6336   0.822E-02 0.298E-02
CGA:  48    -0.424652717333E+03   -0.30893E-03   -0.34203E-03  6336   0.380E-02 0.113E-02
CGA:  49    -0.424652670904E+03    0.46429E-04   -0.31240E-03  6336   0.132E+00-0.603E-02
CGA:  50    -0.424655307548E+03   -0.26366E-02   -0.27400E-02  6336   0.112E-01-0.812E-03
CGA:  51    -0.424655862938E+03   -0.55539E-03   -0.47887E-03  6336   0.303E-02-0.141E-02
CGA:  52    -0.424656298659E+03   -0.43572E-03   -0.50069E-03  6336   0.124E-01-0.913E-03
CGA:  53    -0.424656697069E+03   -0.39841E-03   -0.31241E-03  6336   0.561E-02 0.120E-04
CGA:  54    -0.424656884119E+03   -0.18705E-03   -0.20084E-03  6336   0.309E-02 0.241E-03
CGA:  55    -0.424657072193E+03   -0.18807E-03   -0.19943E-03  6336   0.762E-02 0.554E-04
CGA:  56    -0.424657797707E+03   -0.72551E-03   -0.14770E-02  6336   0.143E-01-0.908E-02
CGA:  57    -0.424658112292E+03   -0.31459E-03   -0.40669E-03  6336   0.637E-02 0.104E-02
CGA:  58    -0.424658535247E+03   -0.42296E-03   -0.45036E-03  6336   0.421E-02 0.641E-03
CGA:  59    -0.424659019542E+03   -0.48429E-03   -0.47941E-03  6336   0.224E-02-0.161E-02
CGA:  60    -0.424659040162E+03   -0.20620E-04   -0.40455E-04  6336   0.107E-02 0.255E-03
CGA:  61    -0.424659056388E+03   -0.16226E-04   -0.41256E-04  6336   0.865E-03 0.372E-03
CGA:  62    -0.424659123835E+03   -0.67447E-04   -0.79870E-04  6336   0.159E-02 0.406E-03
CGA:  63    -0.424659242723E+03   -0.11889E-03   -0.12932E-03  6336   0.726E-03 0.204E-03
CGA:  64    -0.424659316614E+03   -0.73891E-04   -0.11103E-03  6336   0.290E-02-0.943E-03
CGA:  65    -0.424659357197E+03   -0.40584E-04   -0.87773E-04  6336   0.740E-03 0.732E-03
CGA:  66    -0.424659377757E+03   -0.20560E-04   -0.33395E-04  6336   0.404E-03 0.222E-03
CGA:  67    -0.424659452343E+03   -0.74586E-04   -0.91754E-04  6336   0.881E-03-0.209E-03
CGA:  68    -0.424659518790E+03   -0.66447E-04   -0.55652E-04  6336   0.554E-03-0.344E-03
CGA:  69    -0.424659550404E+03   -0.31614E-04   -0.30383E-04  6336   0.200E-02-0.323E-03
CGA:  70    -0.424659561347E+03   -0.10943E-04   -0.34179E-04  6336   0.190E-03 0.295E-03
CGA:  71    -0.424659556691E+03    0.46554E-05   -0.41218E-05  6336   0.115E-03 0.124E-03
   1 F= -.42465956E+03 E0= -.42464994E+03  d E =-.424660E+03  mag=    10.0000
       N       E                     dE             d eps       ncg     rms          ort
SDA:   1    -0.424659192391E+03    0.36896E-03    0.00000E+00  6336   0.128E+00 0.000E+00
CGA:   2    -0.424661602381E+03   -0.24100E-02   -0.23282E-02  6336   0.588E-02-0.265E-02
CGA:   3    -0.424663056908E+03   -0.14545E-02   -0.13396E-02  6336   0.842E-02 0.754E-03
CGA:   4    -0.424663392971E+03   -0.33606E-03   -0.29195E-03  6336   0.334E-02-0.776E-03
CGA:   5    -0.424663682438E+03   -0.28947E-03   -0.29158E-03  6336   0.380E-02-0.206E-03
CGA:   6    -0.424663848009E+03   -0.16557E-03   -0.15067E-03  6336   0.108E-02-0.355E-03
CGA:   7    -0.424663866039E+03   -0.18029E-04   -0.28982E-04  6336   0.246E-03 0.198E-03
CGA:   8    -0.424663914847E+03   -0.48808E-04    0.36825E-03  6336   0.126E-03 0.191E-03
CGA:   9    -0.424663937591E+03   -0.22745E-04    0.45029E-04  6336   0.232E-03 0.454E-04
CGA:  10    -0.424663964366E+03   -0.26775E-04   -0.26713E-04  6336   0.386E-03 0.164E-04
CGA:  11    -0.424663995994E+03   -0.31628E-04   -0.45683E-04  6336   0.129E-02-0.484E-03
CGA:  12    -0.424664006064E+03   -0.10070E-04   -0.22387E-04  6336   0.157E-03 0.182E-03
CGA:  13    -0.424664010699E+03   -0.46345E-05   -0.76826E-05  6336   0.201E-03 0.833E-04
CGA:  14    -0.424664021822E+03   -0.11123E-04   -0.20349E-04  6336   0.226E-02-0.389E-03
CGA:  15    -0.424664042098E+03   -0.20276E-04   -0.36011E-04  6336   0.768E-04 0.240E-03
CGA:  16    -0.424664041010E+03    0.10881E-05   -0.15888E-05  6336   0.542E-04 0.468E-04
CGA:  17    -0.424664049243E+03   -0.82334E-05    0.45810E-04  6336   0.832E-04 0.273E-04
   2 F= -.42466405E+03 E0= -.42465449E+03  d E =-.449255E-02  mag=    10.0000
       N       E                     dE             d eps       ncg     rms          ort
SDA:   1    -0.424647590575E+03    0.16450E-01    0.00000E+00  6336   0.156E+00 0.000E+00
CGA:   2    -0.424651644798E+03   -0.40542E-02   -0.42053E-02  6336   0.826E-01 0.207E-02
CGA:   3    -0.424667643766E+03   -0.15999E-01   -0.15972E-01  6336   0.358E-01 0.214E-03
CGA:   4    -0.424670131662E+03   -0.24879E-02   -0.24823E-02  6336   0.289E-01-0.176E-02
CGA:   5    -0.424672600949E+03   -0.24693E-02   -0.24591E-02  6336   0.123E-01 0.690E-03
CGA:   6    -0.424673025291E+03   -0.42434E-03   -0.36829E-03  6336   0.488E-02-0.128E-02
CGA:   7    -0.424673453002E+03   -0.42771E-03   -0.50694E-03  6336   0.854E-02-0.182E-02
CGA:   8    -0.424673684323E+03   -0.23132E-03   -0.22247E-03  6336   0.317E-02-0.282E-03
CGA:   9    -0.424673725387E+03   -0.41064E-04   -0.80274E-04  6336   0.787E-03 0.868E-03
CGA:  10    -0.424673728021E+03   -0.26337E-05   -0.23337E-04  6336   0.510E-03 0.439E-03
CGA:  11    -0.424673579245E+03    0.14878E-03   -0.98771E-04  6336   0.184E-01-0.107E-02
CGA:  12    -0.424673832444E+03   -0.25320E-03   -0.33063E-03  6336   0.757E-03 0.465E-03
CGA:  13    -0.424673836171E+03   -0.37270E-05   -0.25911E-04  6336   0.237E-03 0.262E-03
CGA:  14    -0.424673852162E+03   -0.15991E-04   -0.19303E-04  6336   0.362E-03 0.603E-04
CGA:  15    -0.424673884653E+03   -0.32491E-04   -0.29645E-04  6336   0.207E-03-0.612E-04
CGA:  16    -0.424673930604E+03   -0.45951E-04    0.43573E-04  6336   0.682E-03-0.399E-03
CGA:  17    -0.424673924898E+03    0.57055E-05   -0.14107E-04  6336   0.185E-03 0.223E-03
   3 F= -.42467392E+03 E0= -.42466439E+03  d E =-.987566E-02  mag=    10.0000
       N       E                     dE             d eps       ncg     rms          ort
SDA:   1    -0.424592095678E+03    0.81835E-01    0.00000E+00  6336   0.672E+00 0.000E+00
CGA:   2    -0.424608075057E+03   -0.15979E-01   -0.16649E-01  6336   0.267E+00-0.141E-01
CGA:   3    -0.424657006586E+03   -0.48932E-01   -0.49191E-01  6336   0.151E+00-0.290E-02
CGA:   4    -0.424666339946E+03   -0.93334E-02   -0.92588E-02  6336   0.100E+00 0.433E-02
CGA:   5    -0.424671911039E+03   -0.55711E-02   -0.55531E-02  6336   0.111E+00-0.169E-02
CGA:   6    -0.424677397188E+03   -0.54861E-02   -0.54583E-02  6336   0.144E-01-0.112E-02
CGA:   7    -0.424678494506E+03   -0.10973E-02   -0.10380E-02  6336   0.134E-01-0.297E-02
CGA:   8    -0.424679503334E+03   -0.10088E-02   -0.10081E-02  6336   0.730E-02 0.906E-03
CGA:   9    -0.424679690302E+03   -0.18697E-03   -0.20199E-03  6336   0.149E-02 0.115E-03
CGA:  10    -0.424679779933E+03   -0.89631E-04   -0.10293E-03  6336   0.119E-02 0.582E-03
CGA:  11    -0.424679972785E+03   -0.19285E-03   -0.30678E-03  6336   0.651E-02-0.119E-02
CGA:  12    -0.424680051378E+03   -0.78594E-04   -0.12451E-03  6336   0.660E-03 0.588E-03
CGA:  13    -0.424680058183E+03   -0.68049E-05   -0.21145E-04  6336   0.267E-03 0.237E-03
CGA:  14    -0.424680079577E+03   -0.21394E-04   -0.22401E-04  6336   0.613E-03 0.380E-04
CGA:  15    -0.424680122073E+03   -0.42496E-04   -0.41237E-04  6336   0.383E-03-0.464E-04
CGA:  16    -0.424680144725E+03   -0.22653E-04   -0.12465E-04  6336   0.285E-03-0.205E-03
CGA:  17    -0.424680164873E+03   -0.20148E-04   -0.14214E-04  6336   0.623E-03-0.184E-03
CGA:  18    -0.424680168034E+03   -0.31610E-05   -0.10151E-04  6336   0.752E-04 0.107E-03
   4 F= -.42468017E+03 E0= -.42467064E+03  d E =-.624314E-02  mag=    10.0000
       N       E                     dE             d eps       ncg     rms          ort
SDA:   1    -0.424671899409E+03    0.82655E-02    0.00000E+00  6336   0.280E+00 0.000E+00
CGA:   2    -0.424676684528E+03   -0.47851E-02   -0.49855E-02  6336   0.138E-01 0.132E-02
CGA:   3    -0.424679805084E+03   -0.31206E-02   -0.29647E-02  6336   0.579E-02 0.110E-02
CGA:   4    -0.424680521243E+03   -0.71616E-03   -0.87859E-03  6336   0.332E-01-0.268E-02
CGA:   5    -0.424680911494E+03   -0.39025E-03   -0.34741E-03  6336   0.237E-01-0.674E-03
CGA:   6    -0.424681151309E+03   -0.23982E-03   -0.28384E-03  6336   0.575E-02 0.542E-03
CGA:   7    -0.424681190012E+03   -0.38702E-04   -0.87712E-04  6336   0.346E-02 0.842E-03
CGA:   8    -0.424681215592E+03   -0.25580E-04   -0.68067E-04  6336   0.206E-02 0.822E-03
CGA:   9    -0.424681243370E+03   -0.27778E-04   -0.42862E-04  6336   0.115E-02 0.274E-03
CGA:  10    -0.424681299993E+03   -0.56623E-04   -0.51178E-04  6336   0.297E-02-0.197E-03
CGA:  11    -0.424681375222E+03   -0.75229E-04   -0.60309E-04  6336   0.378E-02-0.360E-03
CGA:  12    -0.424681418149E+03   -0.42928E-04   -0.37235E-04  6336   0.131E-02-0.104E-03
CGA:  13    -0.424681429016E+03   -0.10867E-04   -0.12176E-04  6336   0.490E-03 0.230E-04
CGA:  14    -0.424681435198E+03   -0.61816E-05   -0.69591E-05  6336   0.443E-03 0.159E-04
CGA:  15    -0.424681448666E+03   -0.13469E-04   -0.11161E-04  6336   0.684E-03-0.720E-04
CGA:  16    -0.424681466690E+03   -0.18024E-04   -0.11426E-04  6336   0.885E-03-0.188E-03
CGA:  17    -0.424681484600E+03   -0.17910E-04   -0.11514E-04  6336   0.126E-02-0.182E-03
CGA:  18    -0.424681501034E+03   -0.16433E-04   -0.15375E-04  6336   0.127E-02-0.305E-04
CGA:  19    -0.424681506626E+03   -0.55926E-05   -0.12371E-04  6336   0.554E-03 0.171E-03
   5 F= -.42468151E+03 E0= -.42467198E+03  d E =-.133859E-02  mag=    10.0000
       N       E                     dE             d eps       ncg     rms          ort
SDA:   1    -0.423363025511E+03    0.13185E+01    0.00000E+00  6336   0.667E+01 0.000E+00
CGA:   2    -0.423685557342E+03   -0.32253E+00   -0.32164E+00  6336   0.698E+01 0.191E+00
CGA:   3    -0.424114745100E+03   -0.42919E+00   -0.42834E+00  6336   0.536E+01 0.732E-01
CGA:   4    -0.424367500104E+03   -0.25276E+00   -0.25265E+00  6336   0.138E+01 0.361E+00
CGA:   5    -0.424485825062E+03   -0.11832E+00   -0.11625E+00  6336   0.283E+01 0.583E-01
CGA:   6    -0.424608585242E+03   -0.12276E+00   -0.12288E+00  6336   0.942E+00 0.213E-01
CGA:   7    -0.424649216754E+03   -0.40632E-01   -0.40846E-01  6336   0.208E+00 0.273E-03
CGA:   8    -0.424656571559E+03   -0.73548E-02   -0.72425E-02  6336   0.182E+00-0.814E-02
CGA:   9    -0.424674509708E+03   -0.17938E-01   -0.17529E-01  6336   0.305E-01 0.749E-02
CGA:  10    -0.424675826267E+03   -0.13166E-02   -0.13234E-02  6336   0.308E-01 0.729E-03
CGA:  11    -0.424678147713E+03   -0.23214E-02   -0.24145E-02  6336   0.351E-01-0.348E-02
CGA:  12    -0.424680097662E+03   -0.19499E-02   -0.19370E-02  6336   0.594E-02 0.111E-02
CGA:  13    -0.424680303061E+03   -0.20540E-03   -0.23108E-03  6336   0.328E-02 0.194E-02
CGA:  14    -0.424680621218E+03   -0.31816E-03   -0.29605E-03  6336   0.508E-02 0.126E-02
CGA:  15    -0.424681277579E+03   -0.65636E-03   -0.68422E-03  6336   0.205E-02-0.611E-03
CGA:  16    -0.424681366241E+03   -0.88662E-04   -0.13725E-03  6336   0.696E-02-0.216E-02
CGA:  17    -0.424681462238E+03   -0.95997E-04   -0.13308E-03  6336   0.121E-02 0.100E-02
CGA:  18    -0.424681497323E+03   -0.35086E-04   -0.48349E-04  6336   0.965E-03 0.732E-03
CGA:  19    -0.424681514705E+03   -0.17381E-04   -0.12762E-03  6336   0.120E-01-0.138E-02
CGA:  20    -0.424681680605E+03   -0.16590E-03   -0.20055E-03  6336   0.408E-03 0.792E-03
CGA:  21    -0.424681684226E+03   -0.36204E-05   -0.11297E-04  6336   0.336E-03 0.272E-03
CGA:  22    -0.424681721220E+03   -0.36995E-04   -0.42327E-04  6336   0.213E-02-0.738E-04
CGA:  23    -0.424681812654E+03   -0.91433E-04   -0.91956E-04  6336   0.222E-02 0.456E-03
CGA:  24    -0.424681853810E+03   -0.41156E-04   -0.50062E-04  6336   0.277E-03 0.223E-03
CGA:  25    -0.424681896953E+03   -0.43143E-04    0.27738E-04  6336   0.283E-03 0.903E-04
CGA:  26    -0.424681611166E+03    0.28579E-03   -0.15501E-03  6336   0.241E-01-0.144E-02
CGA:  27    -0.424681960602E+03   -0.34944E-03   -0.42580E-03  6336   0.754E-03 0.547E-03
CGA:  28    -0.424681959464E+03    0.11377E-05   -0.20205E-04  6336   0.194E-03 0.313E-03
   6 F= -.42468196E+03 E0= -.42467227E+03  d E =-.452838E-03  mag=    10.0000
       N       E                     dE             d eps       ncg     rms          ort
SDA:   1    -0.423841869358E+03    0.84009E+00    0.00000E+00  6336   0.253E+02 0.000E+00
CGA:   2    -0.424248340598E+03   -0.40647E+00   -0.72615E+00  6336   0.106E+02-0.166E+02
CGA:   3    -0.424430306436E+03   -0.18197E+00   -0.25886E+00  6336   0.231E+01-0.378E+01
CGA:   4    -0.424515384491E+03   -0.85078E-01   -0.84551E-01  6336   0.943E+00-0.173E-02
CGA:   5    -0.424565160112E+03   -0.49776E-01   -0.50086E-01  6336   0.911E+00-0.859E-02
CGA:   6    -0.424635335784E+03   -0.70176E-01   -0.70210E-01  6336   0.640E+00 0.125E-01
CGA:   7    -0.424660210755E+03   -0.24875E-01   -0.24500E-01  6336   0.184E+00-0.729E-02
CGA:   8    -0.424669811185E+03   -0.96004E-02   -0.95980E-02  6336   0.140E+00 0.962E-03
CGA:   9    -0.424679355343E+03   -0.95442E-02   -0.95252E-02  6336   0.982E-01-0.325E-02
CGA:  10    -0.424682711817E+03   -0.33565E-02   -0.34459E-02  6336   0.169E-01 0.190E-02
CGA:  11    -0.424683705554E+03   -0.99374E-03   -0.95972E-03  6336   0.202E-01-0.193E-02
CGA:  12    -0.424685209845E+03   -0.15043E-02   -0.15041E-02  6336   0.119E-01 0.194E-04
CGA:  13    -0.424685677995E+03   -0.46815E-03   -0.45175E-03  6336   0.384E-02-0.552E-03
CGA:  14    -0.424685818524E+03   -0.14053E-03   -0.15669E-03  6336   0.198E-02 0.551E-03
CGA:  15    -0.424686051010E+03   -0.23249E-03   -0.51057E-03  6336   0.183E-01-0.179E-02
CGA:  16    -0.424686319698E+03   -0.26869E-03   -0.33325E-03  6336   0.110E-02 0.100E-02
CGA:  17    -0.424686341285E+03   -0.21587E-04   -0.34191E-04  6336   0.334E-03 0.285E-03
CGA:  18    -0.424686376108E+03   -0.34823E-04   -0.35582E-04  6336   0.140E-02-0.657E-04
CGA:  19    -0.424686428919E+03   -0.52811E-04   -0.48842E-04  6336   0.234E-02-0.132E-03
CGA:  20    -0.424686475743E+03   -0.46825E-04   -0.38664E-04  6336   0.908E-03-0.146E-03
CGA:  21    -0.424686510827E+03   -0.35084E-04   -0.21380E-04  6336   0.585E-03-0.315E-03
CGA:  22    -0.424686539064E+03   -0.28237E-04   -0.23063E-04  6336   0.203E-02-0.797E-03
CGA:  23    -0.424686565146E+03   -0.26082E-04   -0.48556E-04  6336   0.361E-03 0.539E-03
CGA:  24    -0.424686571667E+03   -0.65207E-05   -0.12634E-04  6336   0.190E-03 0.167E-03
CGA:  25    -0.424686594353E+03   -0.22686E-04   -0.21455E-04  6336   0.392E-03 0.840E-04
CGA:  26    -0.424686622407E+03   -0.28054E-04   -0.28005E-04  6336   0.810E-04-0.317E-05
CGA:  27    -0.424686642051E+03   -0.19644E-04    0.26547E-05  6336   0.171E-03-0.802E-04
CGA:  28    -0.424686640211E+03    0.18405E-05   -0.22718E-05  6336   0.535E-04 0.830E-04
   7 F= -.42468664E+03 E0= -.42467709E+03  d E =-.468075E-02  mag=    10.0000
       N       E                     dE             d eps       ncg     rms          ort
SDA:   1    -0.424621035330E+03    0.65607E-01    0.00000E+00  6336   0.366E+00 0.000E+00
CGA:   2    -0.424632627998E+03   -0.11593E-01   -0.11475E-01  6336   0.276E+00-0.854E-02
CGA:   3    -0.424674814037E+03   -0.42186E-01   -0.42578E-01  6336   0.970E-01-0.393E-02
CGA:   4    -0.424682288237E+03   -0.74742E-02   -0.74428E-02  6336   0.608E-01 0.325E-02
CGA:   5    -0.424687386167E+03   -0.50979E-02   -0.50393E-02  6336   0.628E-01 0.320E-02
CGA:   6    -0.424689440591E+03   -0.20544E-02   -0.19696E-02  6336   0.921E-02-0.273E-02
CGA:   7    -0.424690097926E+03   -0.65734E-03   -0.65657E-03  6336   0.104E-01 0.490E-04
CGA:   8    -0.424690676763E+03   -0.57884E-03   -0.58104E-03  6336   0.593E-02 0.301E-03
CGA:   9    -0.424690819925E+03   -0.14316E-03   -0.18163E-03  6336   0.768E-03 0.120E-02
CGA:  10    -0.424690906748E+03   -0.86822E-04   -0.29322E-04  6336   0.554E-02-0.834E-03
CGA:  11    -0.424691102139E+03   -0.19539E-03   -0.20729E-03  6336   0.448E-03 0.176E-03
CGA:  12    -0.424691109775E+03   -0.76358E-05   -0.21960E-04  6336   0.285E-03 0.244E-03
CGA:  13    -0.424691076930E+03    0.32844E-04   -0.74111E-04  6336   0.849E-02-0.683E-03
CGA:  14    -0.424691183767E+03   -0.10684E-03   -0.14860E-03  6336   0.366E-03 0.431E-03
CGA:  15    -0.424691182760E+03    0.10070E-05   -0.97566E-05  6336   0.838E-04 0.135E-03
   8 F= -.42469118E+03 E0= -.42468158E+03  d E =-.454255E-02  mag=    10.0000
       N       E                     dE             d eps       ncg     rms          ort
SDA:   1    -0.424668789660E+03    0.22394E-01    0.00000E+00  6336   0.926E-01 0.000E+00
CGA:   2    -0.424674553832E+03   -0.57642E-02   -0.56708E-02  6336   0.176E+00-0.275E-02
CGA:   3    -0.424684880821E+03   -0.10327E-01   -0.10352E-01  6336   0.291E-01 0.822E-03
CGA:   4    -0.424688752953E+03   -0.38721E-02   -0.37592E-02  6336   0.433E-01 0.341E-02
CGA:   5    -0.424690825139E+03   -0.20722E-02   -0.19677E-02  6336   0.229E-01-0.192E-02
CGA:   6    -0.424691645958E+03   -0.82082E-03   -0.77186E-03  6336   0.378E-02-0.634E-03
CGA:   7    -0.424691961919E+03   -0.31596E-03   -0.31820E-03  6336   0.224E-02 0.551E-03
CGA:   8    -0.424692167645E+03   -0.20573E-03   -0.20706E-03  6336   0.866E-03 0.131E-03
CGA:   9    -0.424692231471E+03   -0.63826E-04   -0.57886E-04  6336   0.156E-02-0.223E-03
CGA:  10    -0.424692267895E+03   -0.36425E-04   -0.41488E-04  6336   0.610E-03 0.945E-04
CGA:  11    -0.424692276952E+03   -0.90567E-05   -0.15033E-04  6336   0.343E-03 0.943E-04
CGA:  12    -0.424692295369E+03   -0.18418E-04   -0.18243E-04  6336   0.278E-03-0.514E-05
CGA:  13    -0.424692309054E+03   -0.13685E-04   -0.12310E-04  6336   0.451E-03-0.389E-04
CGA:  14    -0.424692317624E+03   -0.85700E-05   -0.12474E-04  6336   0.261E-03 0.833E-04
   9 F= -.42469232E+03 E0= -.42468271E+03  d E =-.113486E-02  mag=    10.0000
       N       E                     dE             d eps       ncg     rms          ort
SDA:   1    -0.421949593167E+03    0.27427E+01    0.00000E+00  6336   0.346E+02 0.000E+00
CGA:   2    -0.422516111418E+03   -0.56652E+00   -0.11205E+01  6336   0.230E+02-0.158E+02
CGA:   3    -0.423789232677E+03   -0.12731E+01   -0.13003E+01  6336   0.735E+01-0.579E+00
CGA:   4    -0.424105757869E+03   -0.31653E+00   -0.35075E+00  6336   0.329E+01-0.279E-02
CGA:   5    -0.424273302803E+03   -0.16754E+00   -0.16730E+00  6336   0.396E+01-0.197E-01
CGA:   6    -0.424536013087E+03   -0.26271E+00   -0.26253E+00  6336   0.107E+01-0.266E-02
CGA:   7    -0.424589497195E+03   -0.53484E-01   -0.55046E-01  6336   0.415E+00 0.680E-02
CGA:   8    -0.424617032776E+03   -0.27536E-01   -0.27517E-01  6336   0.641E+00-0.589E-02
CGA:   9    -0.424646853338E+03   -0.29821E-01   -0.30021E-01  6336   0.974E-01 0.605E-02
CGA:  10    -0.424652536303E+03   -0.56830E-02   -0.56887E-02  6336   0.404E-01-0.151E-03
CGA:  11    -0.424655133188E+03   -0.25969E-02   -0.26076E-02  6336   0.597E-01 0.289E-02
CGA:  12    -0.424658868344E+03   -0.37352E-02   -0.37337E-02  6336   0.264E-01-0.441E-03
CGA:  13    -0.424660400067E+03   -0.15317E-02   -0.15157E-02  6336   0.124E-01-0.189E-02
CGA:  14    -0.424660941844E+03   -0.54178E-03   -0.53976E-03  6336   0.108E-01-0.161E-03
CGA:  15    -0.424661529844E+03   -0.58800E-03   -0.60700E-03  6336   0.351E-02 0.208E-02
CGA:  16    -0.424661379466E+03    0.15038E-03   -0.12169E-02  6336   0.484E-01-0.596E-02
CGA:  17    -0.424662395807E+03   -0.10163E-02   -0.11702E-02  6336   0.723E-02 0.359E-02
CGA:  18    -0.424662531468E+03   -0.13566E-03   -0.19138E-03  6336   0.834E-03 0.114E-02
CGA:  19    -0.424662582085E+03   -0.50617E-04   -0.54648E-04  6336   0.115E-02 0.268E-03
CGA:  20    -0.424662683776E+03   -0.10169E-03   -0.10207E-03  6336   0.153E-02 0.935E-04
CGA:  21    -0.424662811192E+03   -0.12742E-03   -0.14960E-03  6336   0.957E-03-0.112E-02
CGA:  22    -0.424662824208E+03   -0.13016E-04   -0.27132E-04  6336   0.532E-03 0.323E-03
CGA:  23    -0.424662859513E+03   -0.35305E-04   -0.39927E-04  6336   0.363E-03 0.344E-03
CGA:  24    -0.424662924954E+03   -0.65440E-04    0.40193E-04  6336   0.515E-03-0.608E-04
CGA:  25    -0.424662958511E+03   -0.33557E-04   -0.39540E-04  6336   0.159E-02-0.259E-03
CGA:  26    -0.424662978585E+03   -0.20074E-04   -0.31432E-04  6336   0.218E-03 0.216E-03
CGA:  27    -0.424662974005E+03    0.45799E-05   -0.36066E-05  6336   0.108E-03 0.155E-03
  10 F= -.42466297E+03 E0= -.42465335E+03  d E =0.293436E-01  mag=    10.0000
       N       E                     dE             d eps       ncg     rms          ort
SDA:   1    -0.423460880439E+03    0.12021E+01    0.00000E+00  6336   0.851E+01 0.000E+00
CGA:   2    -0.423703060913E+03   -0.24218E+00   -0.26553E+00  6336   0.559E+01-0.598E+00
CGA:   3    -0.424238990482E+03   -0.53593E+00   -0.54005E+00  6336   0.375E+01-0.784E-01
CGA:   4    -0.424416865089E+03   -0.17787E+00   -0.18570E+00  6336   0.128E+01 0.153E+00
CGA:   5    -0.424610579055E+03   -0.19371E+00   -0.19457E+00  6336   0.122E+01-0.132E-01
CGA:   6    -0.424657021326E+03   -0.46442E-01   -0.45586E-01  6336   0.420E+00-0.610E-02
CGA:   7    -0.424671403525E+03   -0.14382E-01   -0.14206E-01  6336   0.126E+00-0.168E-01
CGA:   8    -0.424687477862E+03   -0.16074E-01   -0.15663E-01  6336   0.111E+00 0.609E-02
CGA:   9    -0.424690568795E+03   -0.30909E-02   -0.30572E-02  6336   0.204E-01-0.200E-02
CGA:  10    -0.424692719600E+03   -0.21508E-02   -0.21699E-02  6336   0.424E-01-0.469E-03
CGA:  11    -0.424694780965E+03   -0.20614E-02   -0.20365E-02  6336   0.137E-01-0.154E-02
CGA:  12    -0.424695163445E+03   -0.38248E-03   -0.43285E-03  6336   0.324E-02 0.148E-02
CGA:  13    -0.424695683106E+03   -0.51966E-03   -0.49986E-03  6336   0.895E-02 0.258E-03
CGA:  14    -0.424696079280E+03   -0.39617E-03   -0.40066E-03  6336   0.186E-02 0.151E-03
CGA:  15    -0.424696180444E+03   -0.10116E-03   -0.21126E-03  6336   0.117E-01-0.247E-02
CGA:  16    -0.424696337164E+03   -0.15672E-03   -0.21476E-03  6336   0.114E-02 0.107E-02
CGA:  17    -0.424696347796E+03   -0.10631E-04   -0.32755E-04  6336   0.512E-03 0.553E-03
CGA:  18    -0.424696364153E+03   -0.16357E-04   -0.25283E-04  6336   0.516E-03 0.283E-03
CGA:  19    -0.424696248270E+03    0.11588E-03   -0.11535E-03  6336   0.144E-01-0.144E-02
CGA:  20    -0.424696518733E+03   -0.27046E-03   -0.28839E-03  6336   0.117E-02 0.130E-03
CGA:  21    -0.424696518591E+03    0.14242E-06   -0.22877E-04  6336   0.243E-03 0.473E-03
  11 F= -.42469652E+03 E0= -.42468698E+03  d E =-.335446E-01  mag=    10.0000
       N       E                     dE             d eps       ncg     rms          ort
SDA:   1    -0.424625705085E+03    0.70814E-01    0.00000E+00  6336   0.206E+00 0.000E+00
CGA:   2    -0.424662331538E+03   -0.36626E-01   -0.37011E-01  6336   0.541E+00-0.338E-02
CGA:   3    -0.424679075816E+03   -0.16744E-01   -0.16826E-01  6336   0.186E+00-0.410E-02
CGA:   4    -0.424688487305E+03   -0.94115E-02   -0.94090E-02  6336   0.550E-01 0.816E-02
CGA:   5    -0.424697362164E+03   -0.88749E-02   -0.94503E-02  6336   0.265E-01-0.583E-02
CGA:   6    -0.424698110004E+03   -0.74784E-03   -0.73723E-03  6336   0.112E-01-0.287E-03
CGA:   7    -0.424698611258E+03   -0.50125E-03   -0.52540E-03  6336   0.843E-02 0.114E-02
CGA:   8    -0.424699494115E+03   -0.88286E-03   -0.90698E-03  6336   0.228E-02-0.826E-03
CGA:   9    -0.424699571035E+03   -0.76921E-04   -0.67530E-04  6336   0.179E-02-0.263E-03
CGA:  10    -0.424699703109E+03   -0.13207E-03   -0.12718E-03  6336   0.982E-03 0.391E-03
CGA:  11    -0.424699771098E+03   -0.67989E-04   -0.66910E-04  6336   0.110E-02-0.866E-04
CGA:  12    -0.424699823494E+03   -0.52397E-04   -0.44654E-04  6336   0.863E-03-0.334E-03
CGA:  13    -0.424699836773E+03   -0.13279E-04   -0.20251E-04  6336   0.385E-03 0.212E-03
CGA:  14    -0.424699837880E+03   -0.11069E-05   -0.85419E-05  6336   0.129E-03 0.157E-03
  12 F= -.42469984E+03 E0= -.42469029E+03  d E =-.331929E-02  mag=    10.0000
       N       E                     dE             d eps       ncg     rms          ort
SDA:   1    -0.423505170628E+03    0.11947E+01    0.00000E+00  6336   0.414E+01 0.000E+00
CGA:   2    -0.423718062900E+03   -0.21289E+00   -0.21538E+00  6336   0.689E+01 0.746E-01
CGA:   3    -0.424438063670E+03   -0.72000E+00   -0.71861E+00  6336   0.308E+01 0.378E-01
CGA:   4    -0.424556029171E+03   -0.11797E+00   -0.13031E+00  6336   0.719E+00-0.921E-02
CGA:   5    -0.424663001521E+03   -0.10697E+00   -0.10726E+00  6336   0.909E+00-0.477E-02
CGA:   6    -0.424685056486E+03   -0.22055E-01   -0.21703E-01  6336   0.134E+00-0.126E-01
CGA:   7    -0.424693254253E+03   -0.81978E-02   -0.81954E-02  6336   0.905E-01-0.403E-02
CGA:   8    -0.424703392135E+03   -0.10138E-01   -0.10036E-01  6336   0.211E-01 0.211E-02
CGA:   9    -0.424704377132E+03   -0.98500E-03   -0.99708E-03  6336   0.207E-01 0.588E-03
CGA:  10    -0.424705865986E+03   -0.14889E-02   -0.14966E-02  6336   0.232E-01-0.181E-02
CGA:  11    -0.424707021271E+03   -0.11553E-02   -0.11710E-02  6336   0.236E-02 0.151E-02
CGA:  12    -0.424707285856E+03   -0.26458E-03   -0.36825E-03  6336   0.135E-01-0.128E-02
CGA:  13    -0.424707551783E+03   -0.26593E-03   -0.29408E-03  6336   0.219E-02 0.625E-03
CGA:  14    -0.424707662243E+03   -0.11046E-03   -0.10936E-03  6336   0.138E-02-0.591E-04
CGA:  15    -0.424707890332E+03   -0.22809E-03   -0.19311E-03  6336   0.171E-02 0.448E-03
CGA:  16    -0.424708052874E+03   -0.16254E-03   -0.16397E-03  6336   0.343E-02-0.616E-03
CGA:  17    -0.424708182951E+03   -0.13008E-03   -0.92680E-04  6336   0.306E-02-0.136E-02
CGA:  18    -0.424708252347E+03   -0.69396E-04   -0.63481E-04  6336   0.344E-02-0.177E-03
CGA:  19    -0.424708296205E+03   -0.43858E-04   -0.73754E-04  6336   0.106E-02 0.702E-03
CGA:  20    -0.424708299134E+03   -0.29299E-05   -0.21787E-04  6336   0.580E-03 0.393E-03
CGA:  21    -0.424708317194E+03   -0.18059E-04   -0.28384E-04  6336   0.103E-02 0.385E-03
CGA:  22    -0.424708379816E+03   -0.62622E-04   -0.57361E-04  6336   0.303E-02-0.962E-03
CGA:  23    -0.424708410866E+03   -0.31051E-04   -0.49029E-04  6336   0.248E-03 0.394E-03
CGA:  24    -0.424708414343E+03   -0.34770E-05   -0.83436E-05  6336   0.284E-03 0.169E-03
CGA:  25    -0.424708416697E+03   -0.23537E-05   -0.37652E-04  6336   0.421E-02-0.470E-03
CGA:  26    -0.424708465413E+03   -0.48716E-04   -0.66496E-04  6336   0.114E-03 0.385E-03
CGA:  27    -0.424708466654E+03   -0.12404E-05   -0.32192E-05  6336   0.111E-03 0.600E-04
CGA:  28    -0.424708481056E+03   -0.14403E-04    0.23681E-04  6336   0.212E-03 0.183E-04
CGA:  29    -0.424708511948E+03   -0.30892E-04   -0.26483E-04  6336   0.368E-04 0.879E-04
CGA:  30    -0.424708518802E+03   -0.68540E-05    0.14443E-04  6336   0.554E-04 0.276E-04
  13 F= -.42470852E+03 E0= -.42469902E+03  d E =-.868092E-02  mag=    10.0000
       N       E                     dE             d eps       ncg     rms          ort
SDA:   1    -0.418795454496E+03    0.59131E+01    0.00000E+00  6336   0.152E+02 0.000E+00
CGA:   2    -0.421712391561E+03   -0.29169E+01   -0.25847E+01  6336   0.300E+02 0.341E+01
CGA:   3    -0.423311449024E+03   -0.15991E+01   -0.14712E+01  6336   0.135E+02-0.347E+01
CGA:   4    -0.424081176923E+03   -0.76973E+00   -0.76795E+00  6336   0.401E+01 0.306E+00
CGA:   5    -0.424375779087E+03   -0.29460E+00   -0.29992E+00  6336   0.428E+01-0.301E+00
CGA:   6    -0.424539174652E+03   -0.16340E+00   -0.16414E+00  6336   0.210E+01-0.249E-01
CGA:   7    -0.424636054782E+03   -0.96880E-01   -0.99195E-01  6336   0.404E+00 0.119E-01
CGA:   8    -0.424663388165E+03   -0.27333E-01   -0.27444E-01  6336   0.289E+00-0.951E-02
CGA:   9    -0.424677781327E+03   -0.14393E-01   -0.14391E-01  6336   0.372E+00-0.263E-02
CGA:  10    -0.424696747891E+03   -0.18967E-01   -0.18998E-01  6336   0.552E-01 0.270E-02
CGA:  11    -0.424700645358E+03   -0.38975E-02   -0.38903E-02  6336   0.568E-01 0.657E-03
CGA:  12    -0.424703290990E+03   -0.26456E-02   -0.26000E-02  6336   0.592E-01-0.325E-02
CGA:  13    -0.424707265892E+03   -0.39749E-02   -0.39808E-02  6336   0.196E-01-0.841E-03
CGA:  14    -0.424708112914E+03   -0.84702E-03   -0.89416E-03  6336   0.794E-02 0.349E-02
CGA:  15    -0.424708684561E+03   -0.57165E-03   -0.57178E-03  6336   0.187E-01-0.138E-03
CGA:  16    -0.424710810876E+03   -0.21263E-02   -0.23268E-02  6336   0.143E-01-0.301E-02
CGA:  17    -0.424711092901E+03   -0.28202E-03   -0.25727E-03  6336   0.478E-02-0.607E-03
CGA:  18    -0.424711394851E+03   -0.30195E-03   -0.31213E-03  6336   0.963E-02-0.148E-02
CGA:  19    -0.424711775564E+03   -0.38071E-03   -0.37641E-03  6336   0.187E-01-0.916E-03
CGA:  20    -0.424712336154E+03   -0.56059E-03   -0.58728E-03  6336   0.527E-02 0.103E-02
CGA:  21    -0.424712426198E+03   -0.90044E-04   -0.10758E-03  6336   0.158E-02 0.414E-03
CGA:  22    -0.424712543402E+03   -0.11720E-03   -0.12318E-03  6336   0.396E-02-0.416E-03
CGA:  23    -0.424712706787E+03   -0.16339E-03   -0.15438E-03  6336   0.837E-02-0.160E-02
CGA:  24    -0.424712883739E+03   -0.17695E-03   -0.14150E-03  6336   0.854E-02-0.122E-02
CGA:  25    -0.424713005871E+03   -0.12213E-03   -0.12920E-03  6336   0.374E-02 0.126E-03
CGA:  26    -0.424713033272E+03   -0.27402E-04   -0.58512E-04  6336   0.210E-02 0.821E-03
CGA:  27    -0.424713039666E+03   -0.63938E-05   -0.38861E-04  6336   0.134E-02 0.883E-03
CGA:  28    -0.424713045538E+03   -0.58716E-05   -0.30903E-04  6336   0.109E-02 0.724E-03
CGA:  29    -0.424713156588E+03   -0.11105E-03    0.84589E-03  6336   0.657E-03 0.720E-03
CGA:  30    -0.424713302559E+03   -0.14597E-03   -0.10733E-03  6336   0.723E-03 0.338E-03
CGA:  31    -0.424713330520E+03   -0.27961E-04   -0.24985E-04  6336   0.683E-03-0.149E-03
CGA:  32    -0.424713406234E+03   -0.75714E-04   -0.64134E-04  6336   0.668E-03 0.178E-03
CGA:  33    -0.424713456210E+03   -0.49975E-04   -0.49969E-04  6336   0.737E-03 0.162E-05
CGA:  34    -0.424713485157E+03   -0.28947E-04   -0.28225E-04  6336   0.478E-03-0.409E-04
CGA:  35    -0.424713495343E+03   -0.10187E-04   -0.15830E-04  6336   0.251E-03 0.266E-03
CGA:  36    -0.424713500455E+03   -0.51118E-05   -0.63581E-05  6336   0.108E-03 0.405E-04
CGA:  37    -0.424713516128E+03   -0.15673E-04    0.20037E-04  6336   0.102E-03 0.605E-04
CGA:  38    -0.424713523130E+03   -0.70020E-05   -0.13056E-04  6336   0.613E-03-0.818E-04
CGA:  39    -0.424713528669E+03   -0.55391E-05   -0.10933E-04  6336   0.103E-03 0.134E-03
  14 F= -.42471353E+03 E0= -.42470388E+03  d E =-.500987E-02  mag=    10.0000
       N       E                     dE             d eps       ncg     rms          ort
SDA:   1    -0.421108439306E+03    0.36051E+01    0.00000E+00  6336   0.908E+01 0.000E+00
CGA:   2    -0.423368184871E+03   -0.22597E+01   -0.22950E+01  6336   0.236E+02-0.304E+00
CGA:   3    -0.424038932147E+03   -0.67075E+00   -0.67040E+00  6336   0.514E+01-0.122E+01
CGA:   4    -0.424336842584E+03   -0.29791E+00   -0.29801E+00  6336   0.333E+01 0.191E-01
CGA:   5    -0.424548457721E+03   -0.21162E+00   -0.21153E+00  6336   0.323E+01 0.391E-01
CGA:   6    -0.424667612767E+03   -0.11916E+00   -0.11658E+00  6336   0.443E+00 0.706E-01
CGA:   7    -0.424690037161E+03   -0.22424E-01   -0.22363E-01  6336   0.360E+00-0.551E-02
CGA:   8    -0.424715737597E+03   -0.25700E-01   -0.25730E-01  6336   0.384E+00-0.273E-02
CGA:   9    -0.424731232673E+03   -0.15495E-01   -0.15450E-01  6336   0.569E-01-0.560E-02
CGA:  10    -0.424733853039E+03   -0.26204E-02   -0.26486E-02  6336   0.637E-01 0.182E-02
CGA:  11    -0.424741171838E+03   -0.73188E-02   -0.74084E-02  6336   0.402E-01-0.177E-02
CGA:  12    -0.424742124744E+03   -0.95291E-03   -0.98992E-03  6336   0.797E-02 0.843E-03
CGA:  13    -0.424744031794E+03   -0.19070E-02   -0.20006E-02  6336   0.300E-01-0.495E-03
CGA:  14    -0.424744678465E+03   -0.64667E-03   -0.70550E-03  6336   0.294E-02 0.109E-02
CGA:  15    -0.424744987721E+03   -0.30926E-03   -0.27815E-03  6336   0.418E-02 0.129E-02
CGA:  16    -0.424745433892E+03   -0.44617E-03   -0.45029E-03  6336   0.123E-01-0.666E-03
CGA:  17    -0.424745895390E+03   -0.46150E-03   -0.43955E-03  6336   0.823E-02-0.837E-03
CGA:  18    -0.424745991201E+03   -0.95812E-04   -0.10088E-03  6336   0.144E-02 0.566E-04
CGA:  19    -0.424746015385E+03   -0.24184E-04   -0.31541E-04  6336   0.167E-02 0.164E-03
CGA:  20    -0.424746143402E+03   -0.12802E-03   -0.12602E-03  6336   0.540E-02 0.385E-03
CGA:  21    -0.424746359852E+03   -0.21645E-03   -0.21639E-03  6336   0.190E-02-0.122E-04
CGA:  22    -0.424746430339E+03   -0.70487E-04   -0.65123E-04  6336   0.111E-02-0.209E-03
CGA:  23    -0.424746445005E+03   -0.14666E-04   -0.20187E-04  6336   0.497E-03 0.138E-03
CGA:  24    -0.424746451716E+03   -0.67107E-05   -0.14403E-04  6336   0.640E-03 0.238E-03
CGA:  25    -0.424746493474E+03   -0.41758E-04   -0.45420E-04  6336   0.713E-03 0.439E-03
CGA:  26    -0.424746511666E+03   -0.18193E-04   -0.60032E-04  6336   0.609E-02-0.149E-02
CGA:  27    -0.424746584313E+03   -0.72647E-04   -0.97338E-04  6336   0.228E-03 0.561E-03
CGA:  28    -0.424746581257E+03    0.30564E-05   -0.36770E-05  6336   0.154E-03 0.166E-03
  15 F= -.42474658E+03 E0= -.42473694E+03  d E =-.330526E-01  mag=    10.0000
       N       E                     dE             d eps       ncg     rms          ort
SDA:   1    -0.424300514765E+03    0.44607E+00    0.00000E+00  6336   0.127E+01 0.000E+00
CGA:   2    -0.424592947416E+03   -0.29243E+00   -0.29224E+00  6336   0.794E+00-0.554E-03
CGA:   3    -0.424662383874E+03   -0.69436E-01   -0.68498E-01  6336   0.104E+01 0.257E-01
CGA:   4    -0.424704296255E+03   -0.41912E-01   -0.41735E-01  6336   0.586E+00-0.634E-02
CGA:   5    -0.424736686714E+03   -0.32390E-01   -0.32345E-01  6336   0.796E-01 0.923E-02
CGA:   6    -0.424741065689E+03   -0.43790E-02   -0.43894E-02  6336   0.113E+00 0.101E-02
CGA:   7    -0.424748891844E+03   -0.78262E-02   -0.77965E-02  6336   0.210E-01 0.349E-02
CGA:   8    -0.424750063351E+03   -0.11715E-02   -0.11415E-02  6336   0.226E-01-0.390E-02
CGA:   9    -0.424751172820E+03   -0.11095E-02   -0.11093E-02  6336   0.206E-01-0.133E-02
CGA:  10    -0.424752082771E+03   -0.90995E-03   -0.93509E-03  6336   0.238E-02 0.220E-02
CGA:  11    -0.424752401827E+03   -0.31906E-03   -0.28694E-03  6336   0.349E-02 0.649E-03
CGA:  12    -0.424752640569E+03   -0.23874E-03   -0.23780E-03  6336   0.441E-02-0.120E-03
CGA:  13    -0.424752909149E+03   -0.26858E-03   -0.27234E-03  6336   0.139E-02-0.171E-02
CGA:  14    -0.424752928137E+03   -0.18987E-04   -0.30347E-04  6336   0.828E-03 0.431E-03
CGA:  15    -0.424752964529E+03   -0.36392E-04   -0.46824E-04  6336   0.594E-03 0.599E-03
CGA:  16    -0.424753042291E+03   -0.77762E-04    0.18364E-03  6336   0.670E-03 0.220E-03
CGA:  17    -0.424753112876E+03   -0.70585E-04   -0.70670E-04  6336   0.111E-02-0.807E-05
CGA:  18    -0.424753148005E+03   -0.35129E-04   -0.39104E-04  6336   0.173E-03 0.159E-03
CGA:  19    -0.424753147376E+03    0.62845E-06   -0.40234E-05  6336   0.118E-03 0.119E-03
  16 F= -.42475315E+03 E0= -.42474356E+03  d E =-.656612E-02  mag=    10.0000
       N       E                     dE             d eps       ncg     rms          ort
SDA:   1    -0.423600137292E+03    0.11530E+01    0.00000E+00  6336   0.297E+01 0.000E+00
CGA:   2    -0.424139009254E+03   -0.53887E+00   -0.52279E+00  6336   0.116E+02 0.169E+00
CGA:   3    -0.424563744316E+03   -0.42474E+00   -0.41676E+00  6336   0.997E+00-0.104E+00
CGA:   4    -0.424644012798E+03   -0.80268E-01   -0.80683E-01  6336   0.182E+01-0.171E-01
CGA:   5    -0.424731152872E+03   -0.87140E-01   -0.86870E-01  6336   0.479E+00-0.168E-01
CGA:   6    -0.424747580625E+03   -0.16428E-01   -0.16361E-01  6336   0.991E-01 0.108E-01
CGA:   7    -0.424753957695E+03   -0.63771E-02   -0.63787E-02  6336   0.153E+00-0.101E-02
CGA:   8    -0.424764393689E+03   -0.10436E-01   -0.10457E-01  6336   0.279E-01-0.214E-02
CGA:   9    -0.424765412366E+03   -0.10187E-02   -0.10216E-02  6336   0.185E-01 0.178E-04
CGA:  10    -0.424766690375E+03   -0.12780E-02   -0.12533E-02  6336   0.118E-01 0.288E-02
CGA:  11    -0.424767959564E+03   -0.12692E-02   -0.13432E-02  6336   0.131E-01-0.190E-02
CGA:  12    -0.424768269175E+03   -0.30961E-03   -0.29713E-03  6336   0.345E-02-0.355E-03
CGA:  13    -0.424768488120E+03   -0.21894E-03   -0.21953E-03  6336   0.313E-02-0.104E-03
CGA:  14    -0.424768638209E+03   -0.15009E-03   -0.15414E-03  6336   0.381E-02 0.426E-03
CGA:  15    -0.424768833940E+03   -0.19573E-03   -0.20336E-03  6336   0.177E-02 0.609E-03
CGA:  16    -0.424766994622E+03    0.18393E-02   -0.10211E-02  6336   0.647E-01-0.827E-02
CGA:  17    -0.424768758607E+03   -0.17640E-02   -0.19791E-02  6336   0.131E-01 0.376E-02
CGA:  18    -0.424768974859E+03   -0.21625E-03   -0.32212E-03  6336   0.178E-02 0.152E-02
CGA:  19    -0.424769105383E+03   -0.13052E-03   -0.13998E-03  6336   0.194E-02 0.327E-03
CGA:  20    -0.424769281755E+03   -0.17637E-03   -0.17148E-03  6336   0.391E-02-0.212E-03
CGA:  21    -0.424769381130E+03   -0.99376E-04   -0.10164E-03  6336   0.587E-03 0.220E-04
CGA:  22    -0.424769385458E+03   -0.43275E-05   -0.91958E-05  6336   0.167E-03 0.595E-04
  17 F= -.42476939E+03 E0= -.42475984E+03  d E =-.162381E-01  mag=    10.0000
       N       E                     dE             d eps       ncg     rms          ort
SDA:   1    -0.423639336608E+03    0.11300E+01    0.00000E+00  6336   0.340E+01 0.000E+00
CGA:   2    -0.423898979839E+03   -0.25964E+00   -0.26245E+00  6336   0.877E+01 0.907E-01
CGA:   3    -0.424524621320E+03   -0.62564E+00   -0.62558E+00  6336   0.202E+01-0.177E-01
CGA:   4    -0.424624409401E+03   -0.99788E-01   -0.10928E+00  6336   0.107E+01-0.287E-01
CGA:   5    -0.424716005681E+03   -0.91596E-01   -0.91540E-01  6336   0.121E+01 0.109E-01
CGA:   6    -0.424747952825E+03   -0.31947E-01   -0.33264E-01  6336   0.164E+00-0.326E-01
CGA:   7    -0.424760399861E+03   -0.12447E-01   -0.12439E-01  6336   0.116E+00-0.748E-02
CGA:   8    -0.424768671191E+03   -0.82713E-02   -0.83111E-02  6336   0.888E-01 0.608E-02
CGA:   9    -0.424771251105E+03   -0.25799E-02   -0.27111E-02  6336   0.215E-01 0.387E-03
CGA:  10    -0.424772933586E+03   -0.16825E-02   -0.16825E-02  6336   0.205E-01-0.159E-03
CGA:  11    -0.424774410302E+03   -0.14767E-02   -0.14747E-02  6336   0.199E-01-0.389E-03
CGA:  12    -0.424774959645E+03   -0.54934E-03   -0.58448E-03  6336   0.308E-02 0.543E-03
CGA:  13    -0.424775489328E+03   -0.52968E-03   -0.63920E-03  6336   0.109E-01-0.866E-03
CGA:  14    -0.424775730119E+03   -0.24079E-03   -0.26201E-03  6336   0.454E-02 0.383E-03
CGA:  15    -0.424775861579E+03   -0.13146E-03   -0.14433E-03  6336   0.148E-02 0.320E-03
CGA:  16    -0.424775969793E+03   -0.10821E-03   -0.10177E-03  6336   0.429E-02-0.496E-03
CGA:  17    -0.424776149524E+03   -0.17973E-03   -0.15811E-03  6336   0.793E-02-0.104E-02
CGA:  18    -0.424776270611E+03   -0.12109E-03   -0.11341E-03  6336   0.458E-02-0.149E-03
CGA:  19    -0.424776334937E+03   -0.64326E-04   -0.90397E-04  6336   0.291E-02 0.531E-03
CGA:  20    -0.424776357037E+03   -0.22100E-04   -0.52095E-04  6336   0.104E-02 0.598E-03
CGA:  21    -0.424776358910E+03   -0.18725E-05   -0.18728E-04  6336   0.612E-03 0.319E-03
CGA:  22    -0.424776361724E+03   -0.28139E-05   -0.17514E-04  6336   0.823E-03 0.343E-03
CGA:  23    -0.424776410581E+03   -0.48857E-04   -0.47014E-04  6336   0.184E-02-0.343E-03
CGA:  24    -0.424776090392E+03    0.32019E-03   -0.22460E-03  6336   0.137E-01-0.369E-02
CGA:  25    -0.424776504302E+03   -0.41391E-03   -0.49615E-03  6336   0.886E-03 0.286E-02
CGA:  26    -0.424776510904E+03   -0.66020E-05   -0.27636E-04  6336   0.350E-03 0.503E-03
CGA:  27    -0.424776541380E+03   -0.30476E-04   -0.27797E-04  6336   0.304E-03 0.199E-03
CGA:  28    -0.424776552080E+03   -0.10700E-04   -0.11425E-04  6336   0.310E-03 0.237E-04
CGA:  29    -0.424776449263E+03    0.10282E-03   -0.65241E-04  6336   0.375E-02-0.689E-03
CGA:  30    -0.424776506937E+03   -0.57674E-04   -0.88014E-04  6336   0.940E-03 0.334E-03
CGA:  31    -0.424776524108E+03   -0.17172E-04   -0.37163E-04  6336   0.299E-03 0.264E-03
CGA:  32    -0.424776550312E+03   -0.26204E-04   -0.28856E-04  6336   0.728E-03 0.753E-04
CGA:  33    -0.424776598422E+03   -0.48110E-04   -0.47996E-04  6336   0.157E-03-0.414E-05
CGA:  34    -0.424776657595E+03   -0.59173E-04    0.10449E-04  6336   0.400E-03-0.254E-03
CGA:  35    -0.424776647524E+03    0.10071E-04   -0.77412E-05  6336   0.119E-03 0.208E-03
CGA:  36    -0.424776642156E+03    0.53683E-05   -0.18239E-05  6336   0.618E-04 0.838E-04
  18 F= -.42477664E+03 E0= -.42476712E+03  d E =-.725670E-02  mag=    10.0000
       N       E                     dE             d eps       ncg     rms          ort
SDA:   1    -0.420379080053E+03    0.43976E+01    0.00000E+00  6336   0.115E+02 0.000E+00
CGA:   2    -0.422062845406E+03   -0.16838E+01   -0.16109E+01  6336   0.364E+02 0.143E+01
CGA:   3    -0.423842372354E+03   -0.17795E+01   -0.18870E+01  6336   0.115E+02-0.521E+01
CGA:   4    -0.424233659209E+03   -0.39129E+00   -0.37202E+00  6336   0.348E+01-0.167E+00
CGA:   5    -0.424465888375E+03   -0.23223E+00   -0.23421E+00  6336   0.398E+01 0.594E-02
CGA:   6    -0.424672294750E+03   -0.20641E+00   -0.20734E+00  6336   0.139E+01-0.193E-01
CGA:   7    -0.424716163708E+03   -0.43869E-01   -0.45684E-01  6336   0.362E+00-0.708E-01
CGA:   8    -0.424737538885E+03   -0.21375E-01   -0.21276E-01  6336   0.425E+00-0.164E-02
CGA:   9    -0.424763333717E+03   -0.25795E-01   -0.25916E-01  6336   0.182E+00 0.464E-03
CGA:  10    -0.424768914885E+03   -0.55812E-02   -0.58532E-02  6336   0.533E-01 0.229E-02
CGA:  11    -0.424773803615E+03   -0.48887E-02   -0.49137E-02  6336   0.102E+00-0.248E-02
CGA:  12    -0.424778567537E+03   -0.47639E-02   -0.47681E-02  6336   0.242E-01-0.468E-04
CGA:  13    -0.424779601338E+03   -0.10338E-02   -0.10419E-02  6336   0.149E-01 0.684E-04
CGA:  14    -0.424780499752E+03   -0.89841E-03   -0.92668E-03  6336   0.145E-01 0.184E-02
CGA:  15    -0.424782086373E+03   -0.15866E-02   -0.16291E-02  6336   0.203E-01-0.182E-02
CGA:  16    -0.424782642604E+03   -0.55623E-03   -0.55583E-03  6336   0.475E-02-0.589E-04
CGA:  17    -0.424783018979E+03   -0.37638E-03   -0.37463E-03  6336   0.418E-02 0.416E-03
CGA:  18    -0.424783643727E+03   -0.62475E-03   -0.58122E-03  6336   0.463E-02 0.827E-03
CGA:  19    -0.424783947229E+03   -0.30350E-03   -0.28369E-03  6336   0.473E-02-0.746E-03
CGA:  20    -0.424784182054E+03   -0.23483E-03   -0.19688E-03  6336   0.344E-02-0.143E-02
CGA:  21    -0.424784269165E+03   -0.87111E-04   -0.11165E-03  6336   0.115E-02 0.851E-03
CGA:  22    -0.424784277415E+03   -0.82505E-05   -0.33554E-04  6336   0.595E-03 0.501E-03
CGA:  23    -0.424784318076E+03   -0.40661E-04   -0.47955E-04  6336   0.914E-03 0.482E-03
CGA:  24    -0.424784236841E+03    0.81236E-04   -0.14102E-03  6336   0.183E-01-0.266E-02
CGA:  25    -0.424784486606E+03   -0.24977E-03   -0.32925E-03  6336   0.124E-02 0.131E-02
CGA:  26    -0.424784486887E+03   -0.28077E-06   -0.27210E-04  6336   0.341E-03 0.532E-03
  19 F= -.42478449E+03 E0= -.42477493E+03  d E =-.784473E-02  mag=    10.0000
       N       E                     dE             d eps       ncg     rms          ort
SDA:   1    -0.415945383563E+03    0.88391E+01    0.00000E+00  6336   0.232E+02 0.000E+00
CGA:   2    -0.420621174086E+03   -0.46758E+01   -0.44882E+01  6336   0.462E+02 0.125E+01
CGA:   3    -0.423029085863E+03   -0.24079E+01   -0.21400E+01  6336   0.161E+02-0.262E+01
CGA:   4    -0.423731929336E+03   -0.70284E+00   -0.72116E+00  6336   0.809E+01-0.234E+00
CGA:   5    -0.424311179204E+03   -0.57925E+00   -0.57871E+00  6336   0.869E+01 0.143E+00
CGA:   6    -0.424624102974E+03   -0.31292E+00   -0.31639E+00  6336   0.129E+01-0.728E-01
CGA:   7    -0.424686091814E+03   -0.61989E-01   -0.61039E-01  6336   0.104E+01-0.151E-01
CGA:   8    -0.424751231602E+03   -0.65140E-01   -0.65095E-01  6336   0.837E+00-0.186E-01
CGA:   9    -0.424785880476E+03   -0.34649E-01   -0.35043E-01  6336   0.243E+00 0.105E-01
CGA:  10    -0.424796055631E+03   -0.10175E-01   -0.10318E-01  6336   0.149E+00 0.224E-02
CGA:  11    -0.424806463261E+03   -0.10408E-01   -0.10400E-01  6336   0.162E+00 0.136E-02
CGA:  12    -0.424816453101E+03   -0.99898E-02   -0.99790E-02  6336   0.855E-01-0.508E-02
CGA:  13    -0.424818915465E+03   -0.24624E-02   -0.25436E-02  6336   0.228E-01 0.138E-02
CGA:  14    -0.424821555520E+03   -0.26401E-02   -0.25118E-02  6336   0.410E-01 0.276E-02
CGA:  15    -0.424823841403E+03   -0.22859E-02   -0.23008E-02  6336   0.294E-01 0.797E-03
CGA:  16    -0.424825792462E+03   -0.19511E-02   -0.19528E-02  6336   0.224E-01-0.416E-02
CGA:  17    -0.424826569634E+03   -0.77717E-03   -0.79386E-03  6336   0.107E-01 0.569E-03
CGA:  18    -0.424827428650E+03   -0.85902E-03   -0.83574E-03  6336   0.911E-02 0.184E-02
CGA:  19    -0.424828182130E+03   -0.75348E-03   -0.75625E-03  6336   0.169E-01-0.455E-03
CGA:  20    -0.424829347484E+03   -0.11654E-02   -0.12098E-02  6336   0.840E-02-0.411E-02
CGA:  21    -0.424829495836E+03   -0.14835E-03   -0.17919E-03  6336   0.214E-02 0.833E-03
CGA:  22    -0.424829567227E+03   -0.71391E-04   -0.95676E-04  6336   0.205E-02 0.108E-02
CGA:  23    -0.424829722951E+03   -0.15572E-03   -0.27218E-03  6336   0.132E-01-0.165E-02
CGA:  24    -0.424829930788E+03   -0.20784E-03   -0.26175E-03  6336   0.163E-02 0.113E-02
CGA:  25    -0.424829960080E+03   -0.29292E-04   -0.48637E-04  6336   0.687E-03 0.551E-03
CGA:  26    -0.424830019855E+03   -0.59775E-04   -0.58988E-04  6336   0.187E-02 0.310E-03
CGA:  27    -0.424830285902E+03   -0.26605E-03   -0.25129E-03  6336   0.926E-03 0.472E-03
CGA:  28    -0.424830362219E+03   -0.76317E-04   -0.79348E-04  6336   0.185E-02-0.597E-03
CGA:  29    -0.424830396173E+03   -0.33954E-04   -0.44865E-04  6336   0.494E-03 0.278E-03
CGA:  30    -0.424830406866E+03   -0.10693E-04   -0.18436E-04  6336   0.339E-03 0.266E-03
CGA:  31    -0.424830455102E+03   -0.48235E-04    0.55050E-04  6336   0.292E-03 0.137E-03
CGA:  32    -0.424830529559E+03   -0.74457E-04   -0.97396E-04  6336   0.197E-02-0.130E-03
CGA:  33    -0.424830538394E+03   -0.88357E-05   -0.12366E-04  6336   0.109E-02 0.560E-04
CGA:  34    -0.424830544512E+03   -0.61178E-05   -0.10576E-04  6336   0.332E-03 0.728E-04
  20 F= -.42483054E+03 E0= -.42482081E+03  d E =-.460576E-01  mag=    10.0000
       N       E                     dE             d eps       ncg     rms          ort
SDA:   1    -0.409536219741E+03    0.15294E+02    0.00000E+00  6336   0.394E+02 0.000E+00
CGA:   2    -0.417979065608E+03   -0.84428E+01   -0.91415E+01  6336   0.853E+02-0.232E+01
CGA:   3    -0.421901360703E+03   -0.39223E+01   -0.36359E+01  6336   0.274E+02-0.160E+02
CGA:   4    -0.422810655785E+03   -0.90930E+00   -0.98543E+00  6336   0.161E+02-0.152E+01
CGA:   5    -0.424043467913E+03   -0.12328E+01   -0.12610E+01  6336   0.136E+02-0.107E+01
CGA:   6    -0.424413412508E+03   -0.36994E+00   -0.37112E+00  6336   0.224E+01-0.285E+00
CGA:   7    -0.424523796978E+03   -0.11038E+00   -0.11042E+00  6336   0.180E+01 0.337E-02
CGA:   8    -0.424676756542E+03   -0.15296E+00   -0.15431E+00  6336   0.145E+01-0.566E-01
CGA:   9    -0.424715445240E+03   -0.38689E-01   -0.38160E-01  6336   0.266E+00-0.844E-02
CGA:  10    -0.424741239589E+03   -0.25794E-01   -0.25339E-01  6336   0.423E+00 0.136E-01
CGA:  11    -0.424765067764E+03   -0.23828E-01   -0.23760E-01  6336   0.223E+00-0.558E-02
CGA:  12    -0.424772990242E+03   -0.79225E-02   -0.77237E-02  6336   0.755E-01-0.387E-02
CGA:  13    -0.424779042625E+03   -0.60524E-02   -0.60625E-02  6336   0.927E-01-0.909E-03
CGA:  14    -0.424784265281E+03   -0.52227E-02   -0.52222E-02  6336   0.765E-01-0.294E-03
CGA:  15    -0.424787767532E+03   -0.35023E-02   -0.35212E-02  6336   0.310E-01 0.769E-03
CGA:  16    -0.424789705203E+03   -0.19377E-02   -0.19420E-02  6336   0.281E-01 0.339E-02
CGA:  17    -0.424792172048E+03   -0.24668E-02   -0.24914E-02  6336   0.530E-01-0.165E-02
CGA:  18    -0.424795136011E+03   -0.29640E-02   -0.29323E-02  6336   0.125E-01-0.591E-02
CGA:  19    -0.424795660317E+03   -0.52431E-03   -0.53220E-03  6336   0.116E-01 0.396E-03
CGA:  20    -0.424796826666E+03   -0.11663E-02   -0.11343E-02  6336   0.175E-01 0.949E-03
CGA:  21    -0.424797956789E+03   -0.11301E-02   -0.11181E-02  6336   0.108E-01-0.225E-02
CGA:  22    -0.424798416263E+03   -0.45947E-03   -0.43813E-03  6336   0.665E-02-0.123E-02
CGA:  23    -0.424798769228E+03   -0.35297E-03   -0.35129E-03  6336   0.522E-02-0.498E-03
CGA:  24    -0.424799260995E+03   -0.49177E-03   -0.55668E-03  6336   0.139E-01-0.127E-02
CGA:  25    -0.424799682078E+03   -0.42108E-03   -0.42685E-03  6336   0.340E-02-0.236E-04
CGA:  26    -0.424799769652E+03   -0.87574E-04   -0.11765E-03  6336   0.174E-02 0.101E-02
CGA:  27    -0.424799910007E+03   -0.14036E-03   -0.14085E-03  6336   0.371E-02 0.754E-03
CGA:  28    -0.424800529446E+03   -0.61944E-03   -0.61103E-03  6336   0.874E-03 0.142E-03
CGA:  29    -0.424800109884E+03    0.41956E-03   -0.25452E-03  6336   0.286E-01-0.229E-02
CGA:  30    -0.424800767937E+03   -0.65805E-03   -0.69913E-03  6336   0.549E-02 0.424E-03
CGA:  31    -0.424800874860E+03   -0.10692E-03   -0.17344E-03  6336   0.117E-02 0.876E-03
CGA:  32    -0.424800867393E+03    0.74669E-05   -0.40599E-04  6336   0.503E-03 0.605E-03
CGA:  33    -0.424800907344E+03   -0.39951E-04   -0.41679E-04  6336   0.135E-02 0.707E-04
CGA:  34    -0.424801059654E+03   -0.15231E-03   -0.15234E-03  6336   0.111E-02-0.106E-04
CGA:  35    -0.424801099802E+03   -0.40148E-04   -0.36342E-04  6336   0.226E-03-0.428E-04
CGA:  36    -0.424801102439E+03   -0.26374E-05   -0.90018E-05  6336   0.155E-03 0.104E-03
CGA:  37    -0.424801103831E+03   -0.13921E-05   -0.10849E-04  6336   0.116E-03 0.187E-03
CGA:  38    -0.424801135406E+03   -0.31575E-04    0.13209E-04  6336   0.222E-03 0.593E-04
CGA:  39    -0.424801137047E+03   -0.16404E-05   -0.50107E-05  6336   0.101E-03 0.443E-04
  21 F= -.42480114E+03 E0= -.42479168E+03  d E =0.294075E-01  mag=    10.0000
       N       E                     dE             d eps       ncg     rms          ort
SDA:   1    -0.417537377940E+03    0.72638E+01    0.00000E+00  6336   0.194E+02 0.000E+00
CGA:   2    -0.420787787855E+03   -0.32504E+01   -0.36847E+01  6336   0.734E+02-0.271E+01
CGA:   3    -0.423267031187E+03   -0.24792E+01   -0.26206E+01  6336   0.925E+01-0.700E+01
CGA:   4    -0.423710196408E+03   -0.44317E+00   -0.45991E+00  6336   0.137E+02-0.365E+00
CGA:   5    -0.424465231254E+03   -0.75503E+00   -0.74080E+00  6336   0.457E+01 0.187E-01
CGA:   6    -0.424649851254E+03   -0.18462E+00   -0.15038E+00  6336   0.707E+00 0.870E+00
CGA:   7    -0.424722411125E+03   -0.72560E-01   -0.72560E-01  6336   0.129E+01-0.331E-02
CGA:   8    -0.424787054785E+03   -0.64644E-01   -0.65642E-01  6336   0.484E+00-0.163E-01
CGA:   9    -0.424808539082E+03   -0.21484E-01   -0.20638E-01  6336   0.224E+00 0.304E-01
CGA:  10    -0.424816517231E+03   -0.79781E-02   -0.76777E-02  6336   0.121E+00 0.327E-01
CGA:  11    -0.424823603156E+03   -0.70859E-02   -0.71600E-02  6336   0.179E+00 0.747E-02
CGA:  12    -0.424835276820E+03   -0.11674E-01   -0.11584E-01  6336   0.187E+00-0.644E-02
CGA:  13    -0.424839861397E+03   -0.45846E-02   -0.43400E-02  6336   0.323E-01-0.144E-01
CGA:  14    -0.424841125646E+03   -0.12642E-02   -0.11743E-02  6336   0.338E-01-0.410E-02
CGA:  15    -0.424843913614E+03   -0.27880E-02   -0.28375E-02  6336   0.879E-01-0.223E-02
CGA:  16    -0.424846791014E+03   -0.28774E-02   -0.29964E-02  6336   0.205E-01 0.316E-02
CGA:  17    -0.424847263815E+03   -0.47280E-03   -0.52948E-03  6336   0.804E-02 0.187E-02
CGA:  18    -0.424847818274E+03   -0.55446E-03   -0.55620E-03  6336   0.181E-01 0.299E-03
CGA:  19    -0.424849377384E+03   -0.15591E-02   -0.15960E-02  6336   0.240E-01-0.238E-02
CGA:  20    -0.424849886608E+03   -0.50922E-03   -0.50159E-03  6336   0.855E-02-0.558E-03
CGA:  21    -0.424850047028E+03   -0.16042E-03   -0.20418E-03  6336   0.451E-02 0.109E-02
CGA:  22    -0.424850112929E+03   -0.65902E-04   -0.12340E-03  6336   0.335E-02 0.145E-02
CGA:  23    -0.424850200114E+03   -0.87185E-04   -0.13747E-03  6336   0.385E-02 0.156E-02
CGA:  24    -0.424850472582E+03   -0.27247E-03   -0.28509E-03  6336   0.682E-02 0.109E-02
CGA:  25    -0.424850970165E+03   -0.49758E-03   -0.48140E-03  6336   0.515E-02-0.246E-02
CGA:  26    -0.424851101896E+03   -0.13173E-03   -0.65088E-04  6336   0.179E-02-0.165E-02
CGA:  27    -0.424851177971E+03   -0.76074E-04   -0.50694E-04  6336   0.299E-02-0.147E-02
CGA:  28    -0.424851227289E+03   -0.49319E-04   -0.83976E-04  6336   0.125E-02 0.116E-02
CGA:  29    -0.424851275273E+03   -0.47984E-04   -0.66211E-04  6336   0.115E-02 0.975E-03
CGA:  30    -0.424850521034E+03    0.75424E-03   -0.42593E-03  6336   0.429E-01-0.391E-02
CGA:  31    -0.424851585293E+03   -0.10643E-02   -0.11502E-02  6336   0.124E-02 0.566E-02
CGA:  32    -0.424851585759E+03   -0.46633E-06   -0.27600E-04  6336   0.200E-03 0.355E-03
  22 F= -.42485159E+03 E0= -.42484224E+03  d E =-.504487E-01  mag=    10.0000
       N       E                     dE             d eps       ncg     rms          ort
SDA:   1    -0.424259185684E+03    0.59240E+00    0.00000E+00  6336   0.165E+01 0.000E+00
CGA:   2    -0.424415806797E+03   -0.15662E+00   -0.15637E+00  6336   0.522E+01 0.190E-01
CGA:   3    -0.424718893969E+03   -0.30309E+00   -0.30097E+00  6336   0.872E+00-0.195E-01
CGA:   4    -0.424777682317E+03   -0.58788E-01   -0.56413E-01  6336   0.478E+00 0.626E-02
CGA:   5    -0.424797786558E+03   -0.20104E-01   -0.20468E-01  6336   0.474E+00 0.451E-02
CGA:   6    -0.424830835485E+03   -0.33049E-01   -0.33048E-01  6336   0.995E-01-0.456E-02
CGA:   7    -0.424835495296E+03   -0.46598E-02   -0.46500E-02  6336   0.380E-01-0.791E-02
CGA:   8    -0.424839023935E+03   -0.35286E-02   -0.34621E-02  6336   0.503E-01 0.412E-02
CGA:   9    -0.424840553090E+03   -0.15292E-02   -0.16117E-02  6336   0.965E-02 0.626E-03
CGA:  10    -0.424841508826E+03   -0.95574E-03   -0.10195E-02  6336   0.205E-01-0.274E-02
CGA:  11    -0.424842081991E+03   -0.57317E-03   -0.53834E-03  6336   0.773E-02-0.808E-03
CGA:  12    -0.424842262306E+03   -0.18031E-03   -0.26238E-03  6336   0.288E-02 0.192E-02
CGA:  13    -0.424842316200E+03   -0.53895E-04   -0.97424E-04  6336   0.166E-02 0.874E-03
CGA:  14    -0.424842498305E+03   -0.18210E-03   -0.17894E-03  6336   0.264E-02 0.418E-03
CGA:  15    -0.424842736882E+03   -0.23858E-03   -0.23336E-03  6336   0.531E-02-0.111E-02
CGA:  16    -0.424842817707E+03   -0.80826E-04   -0.52754E-04  6336   0.247E-02-0.493E-03
CGA:  17    -0.424842847112E+03   -0.29404E-04   -0.26365E-04  6336   0.835E-03-0.638E-04
CGA:  18    -0.424842859092E+03   -0.11980E-04   -0.17077E-04  6336   0.123E-02 0.102E-03
CGA:  19    -0.424842909615E+03   -0.50524E-04   -0.59356E-04  6336   0.295E-02 0.371E-03
CGA:  20    -0.424843018646E+03   -0.10903E-03   -0.11857E-03  6336   0.174E-02 0.266E-03
CGA:  21    -0.424843091601E+03   -0.72955E-04   -0.60972E-04  6336   0.901E-03-0.388E-03
CGA:  22    -0.424843108851E+03   -0.17250E-04   -0.12774E-04  6336   0.300E-03-0.104E-03
CGA:  23    -0.424843112989E+03   -0.41387E-05   -0.64509E-05  6336   0.378E-03 0.637E-04
CGA:  24    -0.424843128707E+03   -0.15717E-04   -0.19421E-04  6336   0.449E-03 0.233E-03
CGA:  25    -0.424843148310E+03   -0.19603E-04   -0.14814E-04  6336   0.401E-03-0.198E-03
CGA:  26    -0.424843180429E+03   -0.32119E-04    0.22912E-04  6336   0.250E-03 0.147E-03
CGA:  27    -0.424843184066E+03   -0.36375E-05   -0.71273E-05  6336   0.816E-04 0.972E-04
  23 F= -.42484318E+03 E0= -.42483386E+03  d E =0.840169E-02  mag=    10.0000
       N       E                     dE             d eps       ncg     rms          ort
SDA:   1    -0.424661222212E+03    0.18196E+00    0.00000E+00  6336   0.751E+00 0.000E+00
CGA:   2    -0.424689752372E+03   -0.28530E-01   -0.28660E-01  6336   0.882E+00 0.437E-02
CGA:   3    -0.424815402298E+03   -0.12565E+00   -0.12413E+00  6336   0.189E+00 0.166E-01
CGA:   4    -0.424832563920E+03   -0.17162E-01   -0.17135E-01  6336   0.143E+00-0.277E-02
CGA:   5    -0.424841432233E+03   -0.88683E-02   -0.88461E-02  6336   0.182E+00 0.471E-02
CGA:   6    -0.424847386390E+03   -0.59542E-02   -0.61067E-02  6336   0.102E-01 0.590E-02
CGA:   7    -0.424848166935E+03   -0.78055E-03   -0.27056E-02  6336   0.689E-01-0.951E-02
CGA:   8    -0.424849992100E+03   -0.18252E-02   -0.19223E-02  6336   0.223E-02 0.783E-02
CGA:   9    -0.424850035016E+03   -0.42915E-04   -0.79404E-04  6336   0.126E-02 0.111E-02
CGA:  10    -0.424850229202E+03   -0.19419E-03   -0.27320E-03  6336   0.587E-02-0.511E-03
CGA:  11    -0.424850298705E+03   -0.69503E-04   -0.92675E-04  6336   0.335E-02 0.518E-03
CGA:  12    -0.424850342851E+03   -0.44146E-04   -0.69757E-04  6336   0.850E-03 0.566E-03
CGA:  13    -0.424850362673E+03   -0.19822E-04   -0.24002E-04  6336   0.530E-03 0.104E-03
CGA:  14    -0.424849610433E+03    0.75224E-03   -0.40765E-03  6336   0.319E-01-0.281E-02
CGA:  15    -0.424850393995E+03   -0.78356E-03   -0.81527E-03  6336   0.558E-02 0.402E-03
CGA:  16    -0.424850514697E+03   -0.12070E-03   -0.15022E-03  6336   0.760E-03 0.369E-03
CGA:  17    -0.424850514559E+03    0.13835E-06   -0.29542E-04  6336   0.376E-03 0.415E-03
CGA:  18    -0.424850559665E+03   -0.45106E-04   -0.47151E-04  6336   0.158E-02-0.101E-03
CGA:  19    -0.424850607392E+03   -0.47727E-04   -0.38545E-04  6336   0.589E-03-0.129E-03
CGA:  20    -0.424850612238E+03   -0.48456E-05   -0.10433E-04  6336   0.264E-03 0.662E-04
  24 F= -.42485061E+03 E0= -.42484128E+03  d E =-.742817E-02  mag=    10.0000
       N       E                     dE             d eps       ncg     rms          ort
SDA:   1    -0.423878166193E+03    0.97244E+00    0.00000E+00  6336   0.277E+01 0.000E+00
CGA:   2    -0.424138626047E+03   -0.26046E+00   -0.26043E+00  6336   0.880E+01 0.832E-01
CGA:   3    -0.424690511765E+03   -0.55189E+00   -0.54877E+00  6336   0.834E+00-0.169E-01
CGA:   4    -0.424752515312E+03   -0.62004E-01   -0.62140E-01  6336   0.135E+01-0.342E-02
CGA:   5    -0.424819106703E+03   -0.66591E-01   -0.66763E-01  6336   0.652E+00 0.340E-02
CGA:   6    -0.424844193135E+03   -0.25086E-01   -0.24193E-01  6336   0.766E-01 0.178E-01
CGA:   7    -0.424850232108E+03   -0.60390E-02   -0.59691E-02  6336   0.120E+00-0.681E-02
CGA:   8    -0.424855381764E+03   -0.51497E-02   -0.49843E-02  6336   0.701E-01-0.402E-02
CGA:   9    -0.424858882754E+03   -0.35010E-02   -0.36469E-02  6336   0.665E-02 0.686E-02
CGA:  10    -0.424859845790E+03   -0.96304E-03   -0.90169E-03  6336   0.823E-02 0.150E-02
CGA:  11    -0.424860919187E+03   -0.10734E-02   -0.10984E-02  6336   0.353E-02-0.105E-02
CGA:  12    -0.424861100853E+03   -0.18167E-03   -0.16191E-03  6336   0.391E-02-0.609E-03
CGA:  13    -0.424861287317E+03   -0.18646E-03   -0.18216E-03  6336   0.415E-02-0.165E-03
CGA:  14    -0.424861460333E+03   -0.17302E-03   -0.20512E-03  6336   0.104E-02 0.104E-02
CGA:  15    -0.424861580196E+03   -0.11986E-03   -0.13099E-03  6336   0.577E-02-0.591E-03
CGA:  16    -0.424861697940E+03   -0.11774E-03   -0.10994E-03  6336   0.577E-03-0.147E-03
CGA:  17    -0.424861736544E+03   -0.38603E-04   -0.39868E-04  6336   0.520E-03 0.156E-03
CGA:  18    -0.424861809470E+03   -0.72926E-04   -0.66181E-04  6336   0.323E-03 0.314E-03
CGA:  19    -0.424861886460E+03   -0.76990E-04    0.25985E-04  6336   0.704E-03-0.105E-03
CGA:  20    -0.424861973125E+03   -0.86665E-04    0.13071E-03  6336   0.196E-02-0.341E-03
CGA:  21    -0.424862032590E+03   -0.59465E-04   -0.59728E-04  6336   0.258E-02 0.113E-04
CGA:  22    -0.424862051214E+03   -0.18624E-04   -0.55846E-04  6336   0.852E-03 0.657E-03
CGA:  23    -0.424862047575E+03    0.36392E-05   -0.20585E-04  6336   0.315E-03 0.438E-03
  25 F= -.42486205E+03 E0= -.42485270E+03  d E =-.114353E-01  mag=    10.0000
       N       E                     dE             d eps       ncg     rms          ort
SDA:   1    -0.423974904749E+03    0.88715E+00    0.00000E+00  6336   0.234E+01 0.000E+00
CGA:   2    -0.424429960639E+03   -0.45506E+00   -0.47173E+00  6336   0.616E+01-0.161E+00
CGA:   3    -0.424667180932E+03   -0.23722E+00   -0.26089E+00  6336   0.118E+01-0.168E+00
CGA:   4    -0.424756703707E+03   -0.89523E-01   -0.90291E-01  6336   0.100E+01-0.136E+00
CGA:   5    -0.424804300187E+03   -0.47596E-01   -0.47808E-01  6336   0.821E+00-0.907E-03
CGA:   6    -0.424833904102E+03   -0.29604E-01   -0.29797E-01  6336   0.116E+00-0.232E-01
CGA:   7    -0.424841193473E+03   -0.72894E-02   -0.72437E-02  6336   0.122E+00-0.832E-02
CGA:   8    -0.424849546982E+03   -0.83535E-02   -0.83478E-02  6336   0.833E-01 0.482E-02
CGA:   9    -0.424851665126E+03   -0.21181E-02   -0.23014E-02  6336   0.108E-01 0.316E-02
CGA:  10    -0.424852869856E+03   -0.12047E-02   -0.11188E-02  6336   0.156E-01 0.291E-02
CGA:  11    -0.424854195678E+03   -0.13258E-02   -0.13143E-02  6336   0.151E-01-0.228E-02
CGA:  12    -0.424854609507E+03   -0.41383E-03   -0.38849E-03  6336   0.313E-02-0.616E-03
CGA:  13    -0.424854731244E+03   -0.12174E-03   -0.13715E-03  6336   0.201E-02 0.671E-03
CGA:  14    -0.424854911798E+03   -0.18055E-03   -0.17988E-03  6336   0.536E-02 0.109E-03
CGA:  15    -0.424855240016E+03   -0.32822E-03   -0.32553E-03  6336   0.112E-02-0.257E-03
CGA:  16    -0.424855285340E+03   -0.45324E-04   -0.35742E-04  6336   0.123E-02-0.283E-03
CGA:  17    -0.424855428617E+03   -0.14328E-03    0.16523E-03  6336   0.142E-02 0.294E-03
CGA:  18    -0.424855490912E+03   -0.62294E-04   -0.62183E-04  6336   0.133E-02-0.143E-04
CGA:  19    -0.424855513320E+03   -0.22408E-04   -0.42338E-04  6336   0.633E-03 0.615E-03
CGA:  20    -0.424855523443E+03   -0.10123E-04   -0.19128E-04  6336   0.243E-03 0.210E-03
CGA:  21    -0.424855349156E+03    0.17429E-03   -0.99465E-04  6336   0.100E-01-0.932E-03
CGA:  22    -0.424855594219E+03   -0.24506E-03   -0.27481E-03  6336   0.724E-03 0.729E-03
CGA:  23    -0.424855610393E+03   -0.16174E-04   -0.19447E-04  6336   0.199E-03 0.369E-04
CGA:  24    -0.424855671326E+03   -0.60933E-04    0.25830E-04  6336   0.245E-03 0.202E-04
CGA:  25    -0.424855697459E+03   -0.26133E-04   -0.26018E-04  6336   0.159E-03-0.181E-04
CGA:  26    -0.424855692344E+03    0.51148E-05   -0.23452E-05  6336   0.705E-04 0.864E-04
  26 F= -.42485569E+03 E0= -.42484658E+03  d E =0.635523E-02  mag=    10.0000
       N       E                     dE             d eps       ncg     rms          ort
SDA:   1    -0.424275315384E+03    0.58038E+00    0.00000E+00  6336   0.143E+01 0.000E+00
CGA:   2    -0.424660433688E+03   -0.38512E+00   -0.38591E+00  6336   0.260E+01-0.706E-02
CGA:   3    -0.424727946595E+03   -0.67513E-01   -0.75528E-01  6336   0.983E+00-0.288E+00
CGA:   4    -0.424783695067E+03   -0.55748E-01   -0.56536E-01  6336   0.513E+00-0.142E-01
CGA:   5    -0.424817591813E+03   -0.33897E-01   -0.33617E-01  6336   0.444E+00-0.747E-02
CGA:   6    -0.424832037453E+03   -0.14446E-01   -0.14350E-01  6336   0.874E-01 0.124E-01
CGA:   7    -0.424836688047E+03   -0.46506E-02   -0.47536E-02  6336   0.527E-01 0.411E-02
CGA:   8    -0.424841710133E+03   -0.50221E-02   -0.50231E-02  6336   0.769E-01-0.247E-02
CGA:   9    -0.424844074010E+03   -0.23639E-02   -0.22038E-02  6336   0.774E-02-0.253E-02
CGA:  10    -0.424844834734E+03   -0.76072E-03   -0.73535E-03  6336   0.571E-02 0.241E-02
CGA:  11    -0.424845426788E+03   -0.59205E-03   -0.58533E-03  6336   0.153E-01-0.708E-03
CGA:  12    -0.424846003411E+03   -0.57662E-03   -0.53758E-03  6336   0.439E-02-0.826E-03
CGA:  13    -0.424846055576E+03   -0.52164E-04   -0.68808E-04  6336   0.150E-02 0.214E-03
CGA:  14    -0.424846092536E+03   -0.36960E-04   -0.60793E-04  6336   0.237E-02 0.551E-03
CGA:  15    -0.424846220516E+03   -0.12798E-03   -0.14743E-03  6336   0.216E-02 0.562E-03
CGA:  16    -0.424846444477E+03   -0.22396E-03   -0.33964E-03  6336   0.555E-02-0.237E-02
CGA:  17    -0.424846549239E+03   -0.10476E-03   -0.12773E-03  6336   0.122E-02 0.376E-03
CGA:  18    -0.424846607445E+03   -0.58207E-04   -0.60906E-04  6336   0.799E-03 0.923E-04
CGA:  19    -0.424845964777E+03    0.64267E-03   -0.35793E-03  6336   0.132E-01-0.256E-02
CGA:  20    -0.424846240406E+03   -0.27563E-03   -0.41326E-03  6336   0.414E-02 0.165E-02
CGA:  21    -0.424846350794E+03   -0.11039E-03   -0.17518E-03  6336   0.237E-02 0.671E-03
CGA:  22    -0.424846644629E+03   -0.29383E-03   -0.28934E-03  6336   0.186E-02-0.193E-03
CGA:  23    -0.424846843825E+03   -0.19920E-03   -0.16137E-03  6336   0.478E-03-0.116E-02
CGA:  24    -0.424846841733E+03    0.20912E-05   -0.19361E-04  6336   0.195E-03 0.254E-03
CGA:  25    -0.424846843107E+03   -0.13739E-05   -0.10550E-04  6336   0.139E-03 0.137E-03
CGA:  26    -0.424846855480E+03   -0.12372E-04   -0.12193E-04  6336   0.441E-03-0.659E-05
CGA:  27    -0.424846866798E+03   -0.11318E-04   -0.18659E-04  6336   0.659E-04 0.102E-03
CGA:  28    -0.424846865187E+03    0.16109E-05   -0.12507E-05  6336   0.211E-04 0.291E-04
  27 F= -.42484687E+03 E0= -.42483780E+03  d E =0.882716E-02  mag=    10.0000
       N       E                     dE             d eps       ncg     rms          ort
SDA:   1    -0.424277580873E+03    0.56929E+00    0.00000E+00  6336   0.149E+01 0.000E+00
CGA:   2    -0.424699952944E+03   -0.42237E+00   -0.42167E+00  6336   0.853E+00 0.399E-02
CGA:   3    -0.424771217560E+03   -0.71265E-01   -0.67326E-01  6336   0.792E+00 0.293E-02
CGA:   4    -0.424835345477E+03   -0.64128E-01   -0.64515E-01  6336   0.193E+00-0.219E-02
CGA:   5    -0.424842045271E+03   -0.66998E-02   -0.70659E-02  6336   0.145E+00 0.267E-03
CGA:   6    -0.424849086294E+03   -0.70410E-02   -0.72152E-02  6336   0.584E-01 0.979E-02
CGA:   7    -0.424855916530E+03   -0.68302E-02   -0.68631E-02  6336   0.231E-01-0.523E-02
CGA:   8    -0.424856514554E+03   -0.59802E-03   -0.62312E-03  6336   0.146E-01 0.412E-04
CGA:   9    -0.424857483830E+03   -0.96928E-03   -0.10435E-02  6336   0.667E-02 0.279E-02
CGA:  10    -0.424858169459E+03   -0.68563E-03   -0.66312E-03  6336   0.158E-01-0.154E-02
CGA:  11    -0.424858586048E+03   -0.41659E-03   -0.33671E-03  6336   0.604E-02-0.122E-02
CGA:  12    -0.424858667110E+03   -0.81062E-04   -0.11245E-03  6336   0.329E-02 0.410E-03
CGA:  13    -0.424858682934E+03   -0.15824E-04   -0.77133E-04  6336   0.195E-02 0.958E-03
CGA:  14    -0.424858694351E+03   -0.11417E-04   -0.55365E-04  6336   0.160E-02 0.677E-03
CGA:  15    -0.424858767469E+03   -0.73117E-04   -0.95084E-04  6336   0.274E-02 0.558E-03
CGA:  16    -0.424858887367E+03   -0.11990E-03   -0.11888E-03  6336   0.160E-02-0.275E-04
CGA:  17    -0.424858990007E+03   -0.10264E-03   -0.87816E-04  6336   0.225E-02-0.629E-03
CGA:  18    -0.424859014661E+03   -0.24654E-04   -0.18852E-04  6336   0.935E-03-0.983E-04
CGA:  19    -0.424859019464E+03   -0.48034E-05   -0.10414E-04  6336   0.477E-03 0.828E-04
  28 F= -.42485902E+03 E0= -.42484989E+03  d E =-.121543E-01  mag=    10.0000
       N       E                     dE             d eps       ncg     rms          ort
SDA:   1    -0.424757026273E+03    0.10199E+00    0.00000E+00  6336   0.196E+01 0.000E+00
CGA:   2    -0.424793090799E+03   -0.36065E-01   -0.37381E-01  6336   0.214E+00-0.660E-01
CGA:   3    -0.424819601267E+03   -0.26510E-01   -0.26722E-01  6336   0.364E+00-0.378E-02
CGA:   4    -0.424841676689E+03   -0.22075E-01   -0.22059E-01  6336   0.227E+00-0.376E-02
CGA:   5    -0.424848594584E+03   -0.69179E-02   -0.70537E-02  6336   0.602E-01 0.373E-02
CGA:   6    -0.424851221224E+03   -0.26266E-02   -0.27653E-02  6336   0.239E-01 0.742E-02
CGA:   7    -0.424855159203E+03   -0.39380E-02   -0.42364E-02  6336   0.268E-01-0.328E-02
CGA:   8    -0.424855658951E+03   -0.49975E-03   -0.47993E-03  6336   0.429E-02-0.299E-03
CGA:   9    -0.424855916159E+03   -0.25721E-03   -0.25902E-03  6336   0.564E-02 0.246E-03
CGA:  10    -0.424856132147E+03   -0.21599E-03   -0.23402E-03  6336   0.419E-02 0.606E-03
CGA:  11    -0.424856294561E+03   -0.16241E-03   -0.18068E-03  6336   0.108E-02 0.684E-03
CGA:  12    -0.424856377469E+03   -0.82907E-04   -0.88509E-04  6336   0.387E-02-0.111E-02
CGA:  13    -0.424856451111E+03   -0.73643E-04   -0.72732E-04  6336   0.361E-03-0.446E-04
CGA:  14    -0.424856456128E+03   -0.50172E-05   -0.11649E-04  6336   0.177E-03 0.218E-03
  29 F= -.42485646E+03 E0= -.42484736E+03  d E =0.256334E-02  mag=    10.0000
       N       E                     dE             d eps       ncg     rms          ort
SDA:   1    -0.424629520839E+03    0.22693E+00    0.00000E+00  6336   0.643E+00 0.000E+00
CGA:   2    -0.424679292809E+03   -0.49772E-01   -0.49411E-01  6336   0.172E+01 0.172E-01
CGA:   3    -0.424807834793E+03   -0.12854E+00   -0.12839E+00  6336   0.427E+00 0.834E-02
CGA:   4    -0.424826281146E+03   -0.18446E-01   -0.18877E-01  6336   0.143E+00-0.117E-01
CGA:   5    -0.424843400309E+03   -0.17119E-01   -0.17231E-01  6336   0.213E+00-0.196E-02
CGA:   6    -0.424848370540E+03   -0.49702E-02   -0.50937E-02  6336   0.209E-01 0.147E-02
CGA:   7    -0.424849956782E+03   -0.15862E-02   -0.15789E-02  6336   0.148E-01 0.526E-03
CGA:   8    -0.424851356909E+03   -0.14001E-02   -0.13383E-02  6336   0.463E-02 0.249E-02
CGA:   9    -0.424851199209E+03    0.15770E-03   -0.11260E-02  6336   0.347E-01-0.881E-02
CGA:  10    -0.424852145000E+03   -0.94579E-03   -0.11250E-02  6336   0.313E-02 0.609E-02
CGA:  11    -0.424852203167E+03   -0.58167E-04   -0.10393E-03  6336   0.944E-03 0.113E-02
CGA:  12    -0.424852234781E+03   -0.31614E-04   -0.46052E-04  6336   0.591E-03 0.461E-03
CGA:  13    -0.424852343300E+03   -0.10852E-03   -0.13524E-03  6336   0.213E-02-0.304E-03
CGA:  14    -0.424852423237E+03   -0.79937E-04   -0.70734E-04  6336   0.716E-03-0.253E-03
CGA:  15    -0.424852455375E+03   -0.32138E-04   -0.25347E-04  6336   0.486E-03-0.245E-03
CGA:  16    -0.424852518253E+03   -0.62878E-04    0.22916E-04  6336   0.251E-03 0.912E-04
CGA:  17    -0.424852518294E+03   -0.40709E-07   -0.83438E-05  6336   0.130E-03 0.213E-03
  30 F= -.42485252E+03 E0= -.42484344E+03  d E =0.393783E-02  mag=    10.0000
       N       E                     dE             d eps       ncg     rms          ort
SDA:   1    -0.424279863728E+03    0.57265E+00    0.00000E+00  6336   0.156E+01 0.000E+00
CGA:   2    -0.424445884691E+03   -0.16602E+00   -0.16538E+00  6336   0.569E+01 0.135E-01
CGA:   3    -0.424761309469E+03   -0.31542E+00   -0.31453E+00  6336   0.460E+00-0.305E-01
CGA:   4    -0.424805486269E+03   -0.44177E-01   -0.44498E-01  6336   0.710E+00-0.619E-02
CGA:   5    -0.424840444305E+03   -0.34958E-01   -0.34808E-01  6336   0.284E+00-0.527E-02
CGA:   6    -0.424848514916E+03   -0.80706E-02   -0.78453E-02  6336   0.443E-01-0.796E-02
CGA:   7    -0.424854860053E+03   -0.63451E-02   -0.64640E-02  6336   0.859E-01-0.146E-02
CGA:   8    -0.424856975795E+03   -0.21157E-02   -0.21385E-02  6336   0.923E-02-0.358E-03
CGA:   9    -0.424857692134E+03   -0.71634E-03   -0.69158E-03  6336   0.508E-02 0.257E-02
CGA:  10    -0.424858458407E+03   -0.76627E-03   -0.79739E-03  6336   0.158E-01-0.563E-03
CGA:  11    -0.424858834758E+03   -0.37635E-03   -0.35934E-03  6336   0.207E-02-0.428E-03
CGA:  12    -0.424858886141E+03   -0.51383E-04   -0.47228E-04  6336   0.158E-02-0.105E-03
CGA:  13    -0.424858913507E+03   -0.27366E-04   -0.42069E-03  6336   0.178E-01-0.182E-02
CGA:  14    -0.424859223540E+03   -0.31003E-03   -0.34740E-03  6336   0.170E-02 0.462E-03
CGA:  15    -0.424859243865E+03   -0.20325E-04   -0.46146E-04  6336   0.498E-03 0.571E-03
CGA:  16    -0.424859267633E+03   -0.23768E-04   -0.30715E-04  6336   0.742E-03 0.288E-03
CGA:  17    -0.424859317440E+03   -0.49807E-04   -0.44016E-04  6336   0.211E-02-0.604E-03
CGA:  18    -0.424859342885E+03   -0.25445E-04   -0.36423E-04  6336   0.220E-03 0.200E-03
CGA:  19    -0.424859346213E+03   -0.33281E-05   -0.82542E-05  6336   0.212E-03 0.155E-03
CGA:  20    -0.424859346957E+03   -0.74363E-06   -0.33301E-04  6336   0.391E-02-0.355E-03
CGA:  21    -0.424859400323E+03   -0.53366E-04   -0.63760E-04  6336   0.957E-04 0.171E-03
CGA:  22    -0.424859400199E+03    0.12392E-06   -0.26896E-05  6336   0.837E-04 0.713E-04
CGA:  23    -0.424859402400E+03   -0.22015E-05   -0.23499E-04  6336   0.238E-02-0.991E-04
CGA:  24    -0.424859438226E+03   -0.35825E-04   -0.39199E-04  6336   0.401E-04 0.461E-04
CGA:  25    -0.424859447183E+03   -0.89570E-05    0.28679E-05  6336   0.552E-04 0.311E-04
  31 F= -.42485945E+03 E0= -.42485035E+03  d E =-.692889E-02  mag=    10.0000
       N       E                     dE             d eps       ncg     rms          ort
SDA:   1    -0.424803395610E+03    0.56043E-01    0.00000E+00  6336   0.182E+00 0.000E+00
CGA:   2    -0.424814818442E+03   -0.11423E-01   -0.11422E-01  6336   0.408E+00-0.145E-02
CGA:   3    -0.424846035010E+03   -0.31217E-01   -0.31196E-01  6336   0.436E-01 0.248E-02
CGA:   4    -0.424853845957E+03   -0.78109E-02   -0.72060E-02  6336   0.411E-01 0.642E-02
CGA:   5    -0.424855458533E+03   -0.16126E-02   -0.15188E-02  6336   0.185E-01-0.217E-02
CGA:   6    -0.424856445641E+03   -0.98711E-03   -0.93523E-03  6336   0.114E-01-0.265E-02
CGA:   7    -0.424857003026E+03   -0.55739E-03   -0.57044E-03  6336   0.322E-02 0.963E-03
CGA:   8    -0.424857103124E+03   -0.10010E-03   -0.13043E-03  6336   0.169E-02 0.895E-03
CGA:   9    -0.424857218618E+03   -0.11549E-03   -0.12088E-03  6336   0.101E-02 0.389E-03
CGA:  10    -0.424857337624E+03   -0.11901E-03   -0.22521E-03  6336   0.497E-02-0.955E-03
CGA:  11    -0.424857423284E+03   -0.85659E-04   -0.88774E-04  6336   0.348E-03 0.110E-04
CGA:  12    -0.424857430908E+03   -0.76247E-05   -0.15014E-04  6336   0.206E-03 0.258E-03
CGA:  13    -0.424857456105E+03   -0.25196E-04   -0.23892E-04  6336   0.544E-03 0.280E-04
CGA:  14    -0.424857476116E+03   -0.20011E-04   -0.22420E-04  6336   0.753E-04 0.647E-04
CGA:  15    -0.424857474209E+03    0.19071E-05   -0.13660E-05  6336   0.386E-04 0.600E-04
  32 F= -.42485747E+03 E0= -.42484840E+03  d E =0.197297E-02  mag=    10.0000
       N       E                     dE             d eps       ncg     rms          ort
SDA:   1    -0.424845582542E+03    0.11894E-01    0.00000E+00  6336   0.339E-01 0.000E+00
CGA:   2    -0.424852769307E+03   -0.71868E-02   -0.76330E-02  6336   0.132E+00-0.284E-02
CGA:   3    -0.424855540133E+03   -0.27708E-02   -0.28087E-02  6336   0.149E-01 0.577E-03
CGA:   4    -0.424856440413E+03   -0.90028E-03   -0.92090E-03  6336   0.215E-01 0.222E-02
CGA:   5    -0.424857304035E+03   -0.86362E-03   -0.89528E-03  6336   0.841E-02 0.834E-03
CGA:   6    -0.424858089797E+03   -0.78576E-03   -0.92969E-03  6336   0.357E-02-0.384E-02
CGA:   7    -0.424858186172E+03   -0.96375E-04   -0.10402E-03  6336   0.222E-02 0.448E-03
CGA:   8    -0.424858242742E+03   -0.56571E-04   -0.86775E-04  6336   0.960E-03 0.865E-03
CGA:   9    -0.424858307168E+03   -0.64426E-04   -0.72391E-04  6336   0.486E-03 0.578E-03
CGA:  10    -0.424858400200E+03   -0.93031E-04    0.38986E-04  6336   0.223E-03 0.115E-03
CGA:  11    -0.424858417786E+03   -0.17587E-04   -0.17960E-04  6336   0.136E-03 0.159E-03
CGA:  12    -0.424858415917E+03    0.18692E-05   -0.25684E-05  6336   0.825E-04 0.917E-04
  33 F= -.42485842E+03 E0= -.42484935E+03  d E =-.941708E-03  mag=    10.0000
       N       E                     dE             d eps       ncg     rms          ort
SDA:   1    -0.424770693008E+03    0.87725E-01    0.00000E+00  6336   0.226E+00 0.000E+00
CGA:   2    -0.424812551886E+03   -0.41859E-01   -0.41733E-01  6336   0.103E+01 0.969E-03
CGA:   3    -0.424845569296E+03   -0.33017E-01   -0.32981E-01  6336   0.851E-01 0.307E-02
CGA:   4    -0.424852105170E+03   -0.65359E-02   -0.65266E-02  6336   0.732E-01 0.122E-03
CGA:   5    -0.424858281963E+03   -0.61768E-02   -0.61153E-02  6336   0.197E-01 0.423E-02
CGA:   6    -0.424859677851E+03   -0.13959E-02   -0.13868E-02  6336   0.211E-01-0.578E-02
CGA:   7    -0.424860137167E+03   -0.45932E-03   -0.40326E-03  6336   0.830E-02-0.134E-02
[...]
CGA:   8    -0.424808193127E+03   -0.12390E-02   -0.13718E-02  6336   0.240E-01 0.240E-02
CGA:   9    -0.424811889187E+03   -0.36961E-02   -0.37205E-02  6336   0.936E-02-0.425E-03
CGA:  10    -0.424812603097E+03   -0.71391E-03   -0.65672E-03  6336   0.120E-01-0.326E-02
CGA:  11    -0.424812878566E+03   -0.27547E-03   -0.23239E-03  6336   0.687E-02-0.765E-03
CGA:  12    -0.424813132251E+03   -0.25369E-03   -0.30873E-03  6336   0.774E-02 0.147E-02
CGA:  13    -0.424813336153E+03   -0.20390E-03   -0.26283E-03  6336   0.174E-02 0.105E-02
CGA:  14    -0.424813360000E+03   -0.23848E-04   -0.45556E-03  6336   0.229E-01-0.289E-02
CGA:  15    -0.424813834069E+03   -0.47407E-03   -0.55853E-03  6336   0.229E-02 0.185E-02
CGA:  16    -0.424813870787E+03   -0.36718E-04   -0.56353E-04  6336   0.421E-03 0.324E-03
CGA:  17    -0.424813962134E+03   -0.91347E-04   -0.10621E-03  6336   0.295E-02-0.108E-03
CGA:  18    -0.424814036544E+03   -0.74410E-04   -0.57167E-04  6336   0.152E-02-0.277E-03
CGA:  19    -0.424814081072E+03   -0.44528E-04   -0.29635E-04  6336   0.701E-03-0.243E-03
CGA:  20    -0.424814102849E+03   -0.21777E-04   -0.15932E-04  6336   0.519E-03-0.108E-03
CGA:  21    -0.424814110438E+03   -0.75889E-05   -0.13461E-04  6336   0.764E-03 0.117E-03
CGA:  22    -0.424814130342E+03   -0.19904E-04   -0.36852E-04  6336   0.677E-03 0.441E-03
CGA:  23    -0.424814174341E+03   -0.43999E-04   -0.33766E-04  6336   0.111E-02-0.399E-03
CGA:  24    -0.424814199114E+03   -0.24773E-04   -0.22057E-04  6336   0.143E-03-0.574E-04
CGA:  25    -0.424814228259E+03   -0.29146E-04   -0.24021E-04  6336   0.191E-03 0.485E-04
CGA:  26    -0.424814244362E+03   -0.16102E-04   -0.14785E-04  6336   0.394E-03-0.697E-04
CGA:  27    -0.424814263651E+03   -0.19289E-04   -0.22788E-04  6336   0.587E-03-0.236E-03
CGA:  28    -0.424814282220E+03   -0.18569E-04   -0.18110E-04  6336   0.207E-03-0.120E-04
CGA:  29    -0.424814288316E+03   -0.60957E-05   -0.74681E-05  6336   0.112E-03 0.357E-04
  90 F= -.42481429E+03 E0= -.42480533E+03  d E =0.118284E-01  mag=    10.0000
       N       E                     dE             d eps       ncg     rms          ort
SDA:   1    -0.424202162802E+03    0.61212E+00    0.00000E+00  6336   0.167E+01 0.000E+00
CGA:   2    -0.424400446291E+03   -0.19828E+00   -0.19404E+00  6336   0.562E+01 0.851E-01
CGA:   3    -0.424681441615E+03   -0.28100E+00   -0.28011E+00  6336   0.129E+01 0.180E-02
CGA:   4    -0.424753828287E+03   -0.72387E-01   -0.74978E-01  6336   0.413E+00 0.258E-01
CGA:   5    -0.424782643772E+03   -0.28815E-01   -0.28843E-01  6336   0.635E+00 0.547E-02
CGA:   6    -0.424810039711E+03   -0.27396E-01   -0.27708E-01  6336   0.106E+00 0.370E-02
CGA:   7    -0.424815096353E+03   -0.50566E-02   -0.50389E-02  6336   0.434E-01-0.550E-02
CGA:   8    -0.424819178901E+03   -0.40825E-02   -0.41196E-02  6336   0.730E-01-0.130E-02
CGA:   9    -0.424821225371E+03   -0.20465E-02   -0.21091E-02  6336   0.861E-02 0.770E-03
CGA:  10    -0.424821912838E+03   -0.68747E-03   -0.67927E-03  6336   0.548E-02 0.823E-03
CGA:  11    -0.424822487893E+03   -0.57505E-03   -0.54348E-03  6336   0.336E-02 0.144E-02
CGA:  12    -0.424822783883E+03   -0.29599E-03   -0.29608E-03  6336   0.818E-02-0.175E-02
CGA:  13    -0.424822911374E+03   -0.12749E-03   -0.14388E-03  6336   0.597E-03 0.262E-03
CGA:  14    -0.424822941901E+03   -0.30528E-04   -0.34825E-04  6336   0.526E-03 0.408E-03
CGA:  15    -0.424822954513E+03   -0.12612E-04   -0.86507E-04  6336   0.929E-02-0.761E-03
CGA:  16    -0.424823096138E+03   -0.14163E-03   -0.15649E-03  6336   0.279E-03 0.210E-03
CGA:  17    -0.424823101536E+03   -0.53981E-05   -0.11596E-04  6336   0.254E-03 0.220E-03
CGA:  18    -0.424823133252E+03   -0.31715E-04   -0.45096E-04  6336   0.307E-02-0.123E-03
CGA:  19    -0.424823190298E+03   -0.57046E-04   -0.51794E-04  6336   0.654E-02-0.132E-03
CGA:  20    -0.424823305035E+03   -0.11474E-03   -0.11350E-03  6336   0.745E-03-0.670E-04
CGA:  21    -0.424823312953E+03   -0.79183E-05   -0.94562E-05  6336   0.154E-03 0.223E-04
  91 F= -.42482331E+03 E0= -.42481435E+03  d E =-.902464E-02  mag=    10.0000
       N       E                     dE             d eps       ncg     rms          ort
SDA:   1    -0.424116443573E+03    0.70686E+00    0.00000E+00  6336   0.362E+01 0.000E+00
CGA:   2    -0.424223385017E+03   -0.10694E+00   -0.11016E+00  6336   0.274E+01-0.992E-01
CGA:   3    -0.424700074366E+03   -0.47669E+00   -0.47504E+00  6336   0.693E+00 0.133E-01
CGA:   4    -0.424753059548E+03   -0.52985E-01   -0.52571E-01  6336   0.623E+00 0.291E-01
CGA:   5    -0.424799291507E+03   -0.46232E-01   -0.46218E-01  6336   0.494E+00 0.740E-02
CGA:   6    -0.424812159830E+03   -0.12868E-01   -0.13036E-01  6336   0.866E-01-0.784E-02
CGA:   7    -0.424818960435E+03   -0.68006E-02   -0.69502E-02  6336   0.651E-01-0.114E-01
CGA:   8    -0.424823753933E+03   -0.47935E-02   -0.46935E-02  6336   0.265E-01 0.645E-02
CGA:   9    -0.424824567558E+03   -0.81362E-03   -0.87009E-03  6336   0.115E-01 0.130E-02
CGA:  10    -0.424825273495E+03   -0.70594E-03   -0.71346E-03  6336   0.801E-02 0.113E-02
CGA:  11    -0.424826394837E+03   -0.11213E-02   -0.11350E-02  6336   0.224E-02-0.218E-03
CGA:  12    -0.424826565173E+03   -0.17034E-03   -0.18615E-03  6336   0.523E-02-0.960E-03
CGA:  13    -0.424826701672E+03   -0.13650E-03   -0.13248E-03  6336   0.515E-02-0.166E-03
CGA:  14    -0.424826814441E+03   -0.11277E-03   -0.15022E-03  6336   0.200E-02 0.101E-02
CGA:  15    -0.424826842859E+03   -0.28418E-04   -0.48509E-04  6336   0.545E-03 0.427E-03
CGA:  16    -0.424826902254E+03   -0.59396E-04   -0.11185E-03  6336   0.735E-02-0.503E-03
CGA:  17    -0.424827044623E+03   -0.14237E-03   -0.13824E-03  6336   0.483E-03-0.120E-03
CGA:  18    -0.424827055180E+03   -0.10557E-04   -0.16356E-04  6336   0.172E-03 0.179E-03
CGA:  19    -0.424827057191E+03   -0.20110E-05   -0.77505E-05  6336   0.179E-03 0.177E-03
CGA:  20    -0.424827078452E+03   -0.21260E-04   -0.28017E-04  6336   0.132E-02-0.741E-04
CGA:  21    -0.424827113958E+03   -0.35506E-04   -0.32239E-04  6336   0.192E-02-0.126E-03
CGA:  22    -0.424827160498E+03   -0.46540E-04   -0.42596E-04  6336   0.121E-02-0.105E-03
CGA:  23    -0.424827188684E+03   -0.28186E-04   -0.29211E-04  6336   0.514E-03 0.224E-04
CGA:  24    -0.424827189591E+03   -0.90708E-06   -0.74170E-05  6336   0.201E-03 0.132E-03
  92 F= -.42482719E+03 E0= -.42481836E+03  d E =-.387664E-02  mag=    10.0000
       N       E                     dE             d eps       ncg     rms          ort
SDA:   1    -0.424563842602E+03    0.26335E+00    0.00000E+00  6336   0.992E+00 0.000E+00
CGA:   2    -0.424611420739E+03   -0.47578E-01   -0.47308E-01  6336   0.138E+01-0.239E-01
CGA:   3    -0.424740976998E+03   -0.12956E+00   -0.13041E+00  6336   0.117E+01-0.231E-01
CGA:   4    -0.424793669933E+03   -0.52693E-01   -0.50822E-01  6336   0.178E+00 0.511E-02
CGA:   5    -0.424802610448E+03   -0.89405E-02   -0.90186E-02  6336   0.223E+00 0.843E-02
CGA:   6    -0.424818963176E+03   -0.16353E-01   -0.16328E-01  6336   0.594E-01 0.203E-02
CGA:   7    -0.424822401167E+03   -0.34380E-02   -0.34279E-02  6336   0.319E-01-0.678E-02
CGA:   8    -0.424823386776E+03   -0.98561E-03   -0.95401E-03  6336   0.162E-01-0.149E-02
CGA:   9    -0.424824752513E+03   -0.13657E-02   -0.12696E-02  6336   0.352E-02 0.388E-02
CGA:  10    -0.424825091575E+03   -0.33906E-03   -0.67018E-03  6336   0.181E-01-0.346E-02
CGA:  11    -0.424825525282E+03   -0.43371E-03   -0.49632E-03  6336   0.855E-03 0.236E-02
CGA:  12    -0.424825555322E+03   -0.30040E-04   -0.36509E-04  6336   0.686E-03 0.272E-03
CGA:  13    -0.424825701406E+03   -0.14608E-03   -0.18155E-03  6336   0.293E-02-0.253E-03
CGA:  14    -0.424825760069E+03   -0.58663E-04   -0.42653E-04  6336   0.147E-02-0.362E-03
CGA:  15    -0.424825791679E+03   -0.31610E-04   -0.25120E-04  6336   0.675E-03-0.149E-03
CGA:  16    -0.424825799485E+03   -0.78056E-05   -0.12908E-04  6336   0.568E-03 0.123E-03
CGA:  17    -0.424825802666E+03   -0.31815E-05   -0.14959E-04  6336   0.594E-03 0.306E-03
CGA:  18    -0.424825834844E+03   -0.32177E-04   -0.32455E-04  6336   0.426E-03 0.643E-04
CGA:  19    -0.424825518332E+03    0.31651E-03   -0.17351E-03  6336   0.214E-01-0.155E-02
CGA:  20    -0.424825878433E+03   -0.36010E-03   -0.38559E-03  6336   0.950E-03-0.556E-04
CGA:  21    -0.424825879630E+03   -0.11970E-05   -0.31691E-04  6336   0.294E-03 0.446E-03
CGA:  22    -0.424825879066E+03    0.56340E-06   -0.14596E-04  6336   0.230E-03 0.232E-03
CGA:  23    -0.424825926615E+03   -0.47549E-04    0.14005E-03  6336   0.678E-03-0.126E-04
CGA:  24    -0.424825977233E+03   -0.50618E-04   -0.43436E-04  6336   0.435E-03-0.257E-03
CGA:  25    -0.424825972550E+03    0.46830E-05   -0.49774E-05  6336   0.199E-03 0.127E-03
  93 F= -.42482597E+03 E0= -.42481706E+03  d E =0.121704E-02  mag=    10.0000
       N       E                     dE             d eps       ncg     rms          ort
SDA:   1    -0.424799888818E+03    0.26088E-01    0.00000E+00  6336   0.986E-01 0.000E+00
CGA:   2    -0.424808627088E+03   -0.87383E-02   -0.87423E-02  6336   0.139E+00-0.529E-02
CGA:   3    -0.424814579004E+03   -0.59519E-02   -0.58490E-02  6336   0.120E+00-0.217E-02
CGA:   4    -0.424821547002E+03   -0.69680E-02   -0.70078E-02  6336   0.198E-01 0.375E-02
CGA:   5    -0.424823135496E+03   -0.15885E-02   -0.16052E-02  6336   0.171E-01 0.353E-02
CGA:   6    -0.424824718799E+03   -0.15833E-02   -0.15761E-02  6336   0.111E-01-0.149E-02
CGA:   7    -0.424824957959E+03   -0.23916E-03   -0.23589E-03  6336   0.231E-02-0.877E-04
CGA:   8    -0.424825025340E+03   -0.67381E-04   -0.10293E-03  6336   0.144E-02 0.102E-02
CGA:   9    -0.424825089166E+03   -0.63826E-04   -0.82837E-04  6336   0.141E-02 0.490E-03
CGA:  10    -0.424825250431E+03   -0.16127E-03   -0.16433E-03  6336   0.554E-03-0.292E-03
CGA:  11    -0.424825279485E+03   -0.29054E-04   -0.27627E-04  6336   0.316E-03-0.102E-03
CGA:  12    -0.424825319692E+03   -0.40207E-04    0.41051E-03  6336   0.334E-03 0.869E-04
CGA:  13    -0.424825337129E+03   -0.17437E-04   -0.19517E-04  6336   0.168E-03 0.675E-04
CGA:  14    -0.424825338498E+03   -0.13688E-05   -0.58312E-05  6336   0.515E-04 0.968E-04
  94 F= -.42482534E+03 E0= -.42481644E+03  d E =0.634052E-03  mag=    10.0000
       N       E                     dE             d eps       ncg     rms          ort
SDA:   1    -0.424817066241E+03    0.82709E-02    0.00000E+00  6336   0.305E-01 0.000E+00
CGA:   2    -0.424818761382E+03   -0.16951E-02   -0.17369E-02  6336   0.252E-01 0.345E-02
CGA:   3    -0.424822990326E+03   -0.42289E-02   -0.43522E-02  6336   0.478E-01-0.151E-02
CGA:   4    -0.424824009037E+03   -0.10187E-02   -0.98138E-03  6336   0.413E-02-0.559E-03
CGA:   5    -0.424824516377E+03   -0.50734E-03   -0.57830E-03  6336   0.188E-01-0.104E-02
CGA:   6    -0.424824855660E+03   -0.33928E-03   -0.30572E-03  6336   0.421E-02-0.643E-03
CGA:   7    -0.424824904995E+03   -0.49335E-04   -0.53709E-04  6336   0.999E-03 0.360E-04
CGA:   8    -0.424824915490E+03   -0.10495E-04   -0.24852E-04  6336   0.125E-02 0.311E-03
CGA:   9    -0.424824942266E+03   -0.26775E-04   -0.51412E-04  6336   0.856E-03 0.676E-03
CGA:  10    -0.424824995798E+03   -0.53532E-04   -0.45472E-04  6336   0.191E-02-0.623E-03
CGA:  11    -0.424825028539E+03   -0.32741E-04   -0.35083E-04  6336   0.184E-03 0.348E-04
CGA:  12    -0.424825032955E+03   -0.44156E-05   -0.76856E-05  6336   0.139E-03 0.148E-03
CGA:  13    -0.424825047015E+03   -0.14061E-04   -0.21245E-04  6336   0.120E-02-0.804E-04
CGA:  14    -0.424825066686E+03   -0.19671E-04   -0.20947E-04  6336   0.492E-04 0.169E-04
CGA:  15    -0.424825065867E+03    0.81931E-06   -0.10170E-05  6336   0.397E-04 0.420E-04
  95 F= -.42482507E+03 E0= -.42481617E+03  d E =0.272631E-03  mag=    10.0000
       N       E                     dE             d eps       ncg     rms          ort
SDA:   1    -0.424752126012E+03    0.72941E-01    0.00000E+00  6336   0.197E+00 0.000E+00
CGA:   2    -0.424769544663E+03   -0.17419E-01   -0.17225E-01  6336   0.594E+00 0.630E-02
CGA:   3    -0.424810351359E+03   -0.40807E-01   -0.40782E-01  6336   0.100E+00 0.398E-02
CGA:   4    -0.424816094368E+03   -0.57430E-02   -0.56931E-02  6336   0.629E-01-0.103E-01
CGA:   5    -0.424819780806E+03   -0.36864E-02   -0.36901E-02  6336   0.682E-01-0.143E-02
CGA:   6    -0.424821986316E+03   -0.22055E-02   -0.23233E-02  6336   0.127E-01 0.402E-02
CGA:   7    -0.424822664288E+03   -0.67797E-03   -0.69175E-03  6336   0.268E-02 0.148E-02
CGA:   8    -0.424823087540E+03   -0.42325E-03   -0.57074E-04  6336   0.350E-02-0.223E-02
CGA:   9    -0.424823269846E+03   -0.18231E-03   -0.20298E-03  6336   0.337E-02 0.399E-03
CGA:  10    -0.424823416337E+03   -0.14649E-03   -0.16598E-03  6336   0.194E-02 0.290E-03
CGA:  11    -0.424823534738E+03   -0.11840E-03   -0.11869E-03  6336   0.454E-03 0.219E-05
CGA:  12    -0.424823096710E+03    0.43803E-03   -0.14055E-03  6336   0.317E-01-0.280E-02
CGA:  13    -0.424823594284E+03   -0.49757E-03   -0.62514E-03  6336   0.286E-02 0.868E-03
CGA:  14    -0.424823603396E+03   -0.91116E-05   -0.72158E-04  6336   0.394E-03 0.792E-03
CGA:  15    -0.424823597133E+03    0.62626E-05   -0.11068E-04  6336   0.200E-03 0.212E-03
CGA:  16    -0.424823610743E+03   -0.13610E-04   -0.14281E-04  6336   0.326E-03 0.233E-04
CGA:  17    -0.424823629789E+03   -0.19046E-04   -0.19988E-04  6336   0.201E-03 0.206E-04
CGA:  18    -0.424823640179E+03   -0.10390E-04   -0.10259E-04  6336   0.397E-04-0.316E-05
CGA:  19    -0.424823664566E+03   -0.24387E-04    0.78604E-06  6336   0.209E-03-0.505E-04
CGA:  20    -0.424823662876E+03    0.16898E-05   -0.28861E-05  6336   0.252E-04 0.563E-04
  96 F= -.42482366E+03 E0= -.42481474E+03  d E =0.140299E-02  mag=    10.0000
       N       E                     dE             d eps       ncg     rms          ort
SDA:   1    -0.424813941271E+03    0.97233E-02    0.00000E+00  6336   0.435E-01 0.000E+00
CGA:   2    -0.424816360617E+03   -0.24193E-02   -0.22945E-02  6336   0.637E-01-0.424E-02
CGA:   3    -0.424820159375E+03   -0.37988E-02   -0.37183E-02  6336   0.511E-01-0.435E-02
CGA:   4    -0.424822684446E+03   -0.25251E-02   -0.26535E-02  6336   0.121E-01 0.553E-02
CGA:   5    -0.424823161947E+03   -0.47750E-03   -0.53063E-03  6336   0.666E-02 0.137E-02
CGA:   6    -0.424823467385E+03   -0.30544E-03   -0.32154E-03  6336   0.545E-02 0.443E-03
CGA:   7    -0.424824060259E+03   -0.59287E-03   -0.61479E-03  6336   0.717E-03-0.785E-03
CGA:   8    -0.424824092651E+03   -0.32391E-04   -0.36712E-04  6336   0.529E-03 0.224E-03
CGA:   9    -0.424824164150E+03   -0.71499E-04   -0.71661E-04  6336   0.507E-03-0.706E-05
CGA:  10    -0.424824176209E+03   -0.12059E-04   -0.11384E-04  6336   0.678E-04-0.143E-04
CGA:  11    -0.424824176311E+03   -0.10227E-06   -0.22817E-05  6336   0.518E-04 0.519E-04
  97 F= -.42482418E+03 E0= -.42481524E+03  d E =-.513435E-03  mag=    10.0000
       N       E                     dE             d eps       ncg     rms          ort
SDA:   1    -0.424527411605E+03    0.29676E+00    0.00000E+00  6336   0.114E+01 0.000E+00
CGA:   2    -0.424573832680E+03   -0.46421E-01   -0.46601E-01  6336   0.148E+01-0.708E-02
CGA:   3    -0.424779342363E+03   -0.20551E+00   -0.20570E+00  6336   0.235E+00-0.354E-02
CGA:   4    -0.424798979996E+03   -0.19638E-01   -0.19603E-01  6336   0.293E+00 0.832E-02
CGA:   5    -0.424815161350E+03   -0.16181E-01   -0.16123E-01  6336   0.212E+00-0.234E-02
CGA:   6    -0.424822422738E+03   -0.72614E-02   -0.69832E-02  6336   0.339E-01-0.950E-02
CGA:   7    -0.424824551008E+03   -0.21283E-02   -0.21203E-02  6336   0.186E-01-0.115E-02
CGA:   8    -0.424826294111E+03   -0.17431E-02   -0.17232E-02  6336   0.223E-01 0.817E-03
CGA:   9    -0.424826864257E+03   -0.57015E-03   -0.61547E-03  6336   0.250E-02 0.920E-03
CGA:  10    -0.424827159878E+03   -0.29562E-03   -0.27166E-03  6336   0.273E-02 0.728E-03
CGA:  11    -0.424827400174E+03   -0.24030E-03   -0.23699E-03  6336   0.421E-02-0.559E-03
CGA:  12    -0.424827539726E+03   -0.13955E-03   -0.12499E-03  6336   0.119E-02-0.416E-03
CGA:  13    -0.424827544955E+03   -0.52293E-05   -0.24256E-04  6336   0.591E-03 0.393E-03
CGA:  14    -0.424827542331E+03    0.26240E-05   -0.15683E-04  6336   0.328E-03 0.376E-03
CGA:  15    -0.424827506859E+03    0.35472E-04   -0.10462E-03  6336   0.951E-02-0.558E-03
CGA:  16    -0.424827663164E+03   -0.15631E-03   -0.17086E-03  6336   0.366E-03 0.129E-03
CGA:  17    -0.424827661911E+03    0.12527E-05   -0.75391E-05  6336   0.102E-03 0.159E-03
  98 F= -.42482766E+03 E0= -.42481874E+03  d E =-.348560E-02  mag=    10.0000
       N       E                     dE             d eps       ncg     rms          ort
SDA:   1    -0.424748405550E+03    0.79258E-01    0.00000E+00  6336   0.210E+00 0.000E+00
CGA:   2    -0.424778611360E+03   -0.30206E-01   -0.29316E-01  6336   0.614E+00 0.125E-01
CGA:   3    -0.424808589549E+03   -0.29978E-01   -0.29915E-01  6336   0.287E+00-0.255E-02
CGA:   4    -0.424819933607E+03   -0.11344E-01   -0.11087E-01  6336   0.593E-01-0.113E-01
CGA:   5    -0.424824305811E+03   -0.43722E-02   -0.43805E-02  6336   0.586E-01-0.145E-02
CGA:   6    -0.424826742721E+03   -0.24369E-02   -0.24798E-02  6336   0.331E-01 0.122E-02
CGA:   7    -0.424828182469E+03   -0.14397E-02   -0.14593E-02  6336   0.416E-02 0.771E-03
CGA:   8    -0.424828511511E+03   -0.32904E-03   -0.32368E-03  6336   0.599E-02 0.684E-03
CGA:   9    -0.424828919759E+03   -0.40825E-03   -0.40258E-03  6336   0.460E-02-0.542E-03
CGA:  10    -0.424829131947E+03   -0.21219E-03   -0.19540E-03  6336   0.124E-02-0.792E-03
CGA:  11    -0.424829161195E+03   -0.29247E-04   -0.35926E-04  6336   0.531E-03 0.203E-03
CGA:  12    -0.424829175012E+03   -0.13818E-04   -0.24308E-04  6336   0.270E-03 0.400E-03
CGA:  13    -0.424829216105E+03   -0.41092E-04    0.46742E-04  6336   0.233E-03 0.171E-03
CGA:  14    -0.424829221376E+03   -0.52714E-05   -0.80462E-05  6336   0.203E-03 0.928E-04
CGA:  15    -0.424829237525E+03   -0.16149E-04   -0.16832E-04  6336   0.118E-03 0.192E-03
CGA:  16    -0.424829262347E+03   -0.24822E-04    0.55046E-05  6336   0.165E-03 0.256E-04
CGA:  17    -0.424829289062E+03   -0.26715E-04    0.94349E-04  6336   0.171E-03 0.918E-04
CGA:  18    -0.424829286098E+03    0.29641E-05   -0.21754E-05  6336   0.785E-04 0.103E-03
  99 F= -.42482929E+03 E0= -.42482038E+03  d E =-.162419E-02  mag=    10.0000
       N       E                     dE             d eps       ncg     rms          ort
SDA:   1    -0.424728923337E+03    0.10037E+00    0.00000E+00  6336   0.248E+00 0.000E+00
CGA:   2    -0.424782331353E+03   -0.53408E-01   -0.56203E-01  6336   0.768E+00-0.137E-01
CGA:   3    -0.424808877809E+03   -0.26546E-01   -0.26817E-01  6336   0.284E+00 0.550E-02
CGA:   4    -0.424816331531E+03   -0.74537E-02   -0.75820E-02  6336   0.523E-01 0.181E-01
CGA:   5    -0.424821084045E+03   -0.47525E-02   -0.46371E-02  6336   0.879E-01 0.576E-02
CGA:   6    -0.424824563069E+03   -0.34790E-02   -0.34586E-02  6336   0.338E-01-0.781E-03
CGA:   7    -0.424826524342E+03   -0.19613E-02   -0.19396E-02  6336   0.593E-02-0.530E-02
CGA:   8    -0.424826815489E+03   -0.29115E-03   -0.29601E-03  6336   0.382E-02 0.161E-02
CGA:   9    -0.424827200413E+03   -0.38492E-03   -0.37033E-03  6336   0.205E-02 0.102E-02
CGA:  10    -0.424827381593E+03   -0.18118E-03   -0.20615E-03  6336   0.704E-02-0.152E-02
CGA:  11    -0.424827489777E+03   -0.10818E-03   -0.12328E-03  6336   0.385E-03 0.265E-03
CGA:  12    -0.424827503500E+03   -0.13724E-04   -0.16969E-04  6336   0.265E-03 0.173E-03
CGA:  13    -0.424827527222E+03   -0.23721E-04   -0.82271E-04  6336   0.394E-02-0.383E-03
CGA:  14    -0.424827596213E+03   -0.68991E-04   -0.71398E-04  6336   0.198E-03 0.352E-04
CGA:  15    -0.424827604899E+03   -0.86857E-05   -0.90989E-05  6336   0.804E-04 0.204E-04
 100 F= -.42482760E+03 E0= -.42481872E+03  d E =0.168120E-02  mag=    10.0000
