       N       E                     dE             d eps       ncg     rms          rms(c)
DAV:   1     0.292720508124E+04    0.29272E+04   -0.13868E+05 26736   0.150E+03
DAV:   2     0.172111671792E+02   -0.29100E+04   -0.27253E+04 27876   0.427E+02
DAV:   3    -0.306163792686E+03   -0.32337E+03   -0.31850E+03 29988   0.153E+02
DAV:   4    -0.319578090272E+03   -0.13414E+02   -0.13205E+02 39204   0.282E+01
DAV:   5    -0.320205672664E+03   -0.62758E+00   -0.62658E+00 40068   0.476E+00    0.712E+01
DAV:   6    -0.281489020022E+03    0.38717E+02   -0.33802E+02 33684   0.531E+01    0.653E+01
DAV:   7    -0.277900275086E+03    0.35887E+01   -0.76241E+01 32016   0.565E+01    0.326E+01
DAV:   8    -0.279260580943E+03   -0.13603E+01   -0.23409E+01 33228   0.114E+01    0.265E+01
DAV:   9    -0.278380203545E+03    0.88038E+00   -0.18019E+01 33120   0.133E+01    0.224E+01
DAV:  10    -0.278213309413E+03    0.16689E+00   -0.56502E+00 35136   0.779E+00    0.143E+01
DAV:  11    -0.278115162775E+03    0.98147E-01   -0.26512E+00 32232   0.600E+00    0.898E+00
DAV:  12    -0.278094729592E+03    0.20433E-01   -0.11240E+00 33288   0.330E+00    0.651E+00
DAV:  13    -0.278084929256E+03    0.98003E-02   -0.10720E+00 33732   0.273E+00    0.466E+00
DAV:  14    -0.278078017995E+03    0.69113E-02   -0.25463E-01 32892   0.149E+00    0.410E+00
DAV:  15    -0.278064616546E+03    0.13401E-01   -0.16048E-01 32760   0.101E+00    0.101E+00
DAV:  16    -0.278071275865E+03   -0.66593E-02   -0.17761E-02 32388   0.400E-01    0.926E-01
DAV:  17    -0.278071371399E+03   -0.95534E-04   -0.58471E-03 31128   0.245E-01    0.299E-01
DAV:  18    -0.278071989793E+03   -0.61839E-03   -0.38410E-03 31512   0.121E-01    0.432E-01
DAV:  19    -0.278071980672E+03    0.91207E-05   -0.78762E-04 30528   0.971E-02    0.252E-01
DAV:  20    -0.278072052870E+03   -0.72198E-04   -0.17832E-03 36300   0.749E-02    0.253E-01
DAV:  21    -0.278072050516E+03    0.23540E-05   -0.11727E-04 28704   0.498E-02    0.176E-01
DAV:  22    -0.278072032942E+03    0.17574E-04   -0.23119E-04 27240   0.300E-02    0.237E-02
DAV:  23    -0.278072055848E+03   -0.22906E-04   -0.72660E-05 18852   0.137E-02    0.844E-02
DAV:  24    -0.278072050520E+03    0.53276E-05   -0.13310E-05 17604   0.141E-02
   1 F= -.27807205E+03 E0= -.27806893E+03  d E =-.278072E+03  mag=    17.9998
       N       E                     dE             d eps       ncg     rms          rms(c)
DAV:   1    -0.278131464101E+03   -0.59408E-01   -0.25176E-02 28716   0.472E-01    0.590E-02
DAV:   2    -0.278131549978E+03   -0.85877E-04   -0.13009E-03 30324   0.956E-02    0.112E-01
DAV:   3    -0.278131549438E+03    0.53957E-06   -0.28463E-04 33720   0.437E-02    0.110E-01
DAV:   4    -0.278131535548E+03    0.13891E-04   -0.58278E-05 28056   0.298E-02    0.510E-02
DAV:   5    -0.278131536172E+03   -0.62429E-06   -0.63947E-05 20856   0.203E-02
   2 F= -.27813154E+03 E0= -.27812841E+03  d E =-.594857E-01  mag=    18.0000
       N       E                     dE             d eps       ncg     rms          rms(c)
DAV:   1    -0.279869889024E+03   -0.17384E+01   -0.39878E+01 27072   0.188E+01    0.240E+00
DAV:   2    -0.280034518384E+03   -0.16463E+00   -0.22142E+00 29988   0.398E+00    0.526E+00
DAV:   3    -0.280020916004E+03    0.13602E-01   -0.44192E-01 35196   0.181E+00    0.281E+00
DAV:   4    -0.280011760156E+03    0.91558E-02   -0.61699E-02 35880   0.100E+00    0.214E+00
DAV:   5    -0.280008853063E+03    0.29071E-02   -0.85020E-02 35016   0.746E-01    0.207E+00
DAV:   6    -0.280005515713E+03    0.33373E-02   -0.43298E-02 33564   0.672E-01    0.125E+00
DAV:   7    -0.280005866287E+03   -0.35057E-03   -0.10592E-02 34932   0.368E-01    0.102E+00
DAV:   8    -0.280004970250E+03    0.89604E-03   -0.69380E-03 33804   0.196E-01    0.266E-01
DAV:   9    -0.280005395246E+03   -0.42500E-03   -0.32454E-03 34992   0.113E-01    0.409E-01
DAV:  10    -0.280005310426E+03    0.84820E-04   -0.77562E-04 32496   0.937E-02    0.216E-01
DAV:  11    -0.280005307885E+03    0.25412E-05   -0.58582E-04 36912   0.510E-02    0.112E-01
DAV:  12    -0.280005324163E+03   -0.16278E-04   -0.74177E-05 23580   0.271E-02    0.101E-01
DAV:  13    -0.280005316579E+03    0.75843E-05   -0.77889E-05 19128   0.198E-02
   3 F= -.28000532E+03 E0= -.28000215E+03  d E =-.187378E+01  mag=    18.0000
       N       E                     dE             d eps       ncg     rms          rms(c)
DAV:   1    -0.281285634451E+03   -0.12803E+01   -0.13586E+02 27216   0.384E+01    0.426E+00
DAV:   2    -0.282087814381E+03   -0.80218E+00   -0.92503E+00 29172   0.812E+00    0.110E+01
DAV:   3    -0.282010867059E+03    0.76947E-01   -0.14586E+00 35040   0.349E+00    0.346E+00
DAV:   4    -0.282002093322E+03    0.87737E-02   -0.89976E-02 32700   0.140E+00    0.286E+00
DAV:   5    -0.282002703835E+03   -0.61051E-03   -0.29430E-01 36300   0.122E+00    0.466E+00
DAV:   6    -0.281985819708E+03    0.16884E-01   -0.13911E-01 35640   0.123E+00    0.323E+00
DAV:   7    -0.281978750608E+03    0.70691E-02   -0.95918E-02 36600   0.754E-01    0.124E+00
DAV:   8    -0.281981516038E+03   -0.27654E-02   -0.11780E-02 33072   0.430E-01    0.728E-01
DAV:   9    -0.281981357094E+03    0.15894E-03   -0.98896E-03 38592   0.226E-01    0.377E-01
DAV:  10    -0.281981511113E+03   -0.15402E-03   -0.80724E-04 31752   0.125E-01    0.190E-01
DAV:  11    -0.281981495531E+03    0.15582E-04   -0.35069E-04 35844   0.506E-02    0.448E-02
DAV:  12    -0.281981523413E+03   -0.27882E-04   -0.13709E-04 28944   0.302E-02    0.936E-02
DAV:  13    -0.281981515414E+03    0.79985E-05   -0.61705E-05 19380   0.231E-02
   4 F= -.28198152E+03 E0= -.28197828E+03  d E =-.197620E+01  mag=    18.0000
       N       E                     dE             d eps       ncg     rms          rms(c)
DAV:   1    -0.282125439724E+03   -0.14392E+00   -0.10638E+02 28080   0.385E+01    0.406E+00
DAV:   2    -0.282876840651E+03   -0.75140E+00   -0.83672E+00 28260   0.786E+00    0.101E+01
DAV:   3    -0.282795599184E+03    0.81241E-01   -0.11074E+00 35436   0.333E+00    0.285E+00
DAV:   4    -0.282796296373E+03   -0.69719E-03   -0.66346E-02 32580   0.117E+00    0.223E+00
DAV:   5    -0.282792924708E+03    0.33717E-02   -0.19209E-01 35796   0.105E+00    0.306E+00
DAV:   6    -0.282792170285E+03    0.75442E-03   -0.10932E-01 37776   0.958E-01    0.367E+00
DAV:   7    -0.282781472070E+03    0.10698E-01   -0.63050E-02 36216   0.682E-01    0.199E+00
DAV:   8    -0.282781771292E+03   -0.29922E-03   -0.39375E-02 36120   0.504E-01    0.531E-01
DAV:   9    -0.282782948000E+03   -0.11767E-02   -0.54965E-03 35916   0.254E-01    0.250E-01
DAV:  10    -0.282782996770E+03   -0.48769E-04   -0.11810E-03 33840   0.120E-01    0.120E-01
DAV:  11    -0.282782989663E+03    0.71072E-05   -0.28202E-04 37152   0.628E-02    0.786E-02
DAV:  12    -0.282782994379E+03   -0.47161E-05   -0.18525E-04 31284   0.389E-02    0.580E-02
DAV:  13    -0.282782993490E+03    0.88861E-06   -0.26053E-05 17688   0.176E-02
   5 F= -.28278299E+03 E0= -.28277970E+03  d E =-.801478E+00  mag=    18.0000
       N       E                     dE             d eps       ncg     rms          rms(c)
DAV:   1    -0.282536147543E+03    0.24685E+00   -0.78726E+01 27984   0.366E+01    0.378E+00
DAV:   2    -0.283155722773E+03   -0.61958E+00   -0.67309E+00 28080   0.720E+00    0.745E+00
DAV:   3    -0.283137558839E+03    0.18164E-01   -0.10091E+00 36060   0.283E+00    0.498E+00
DAV:   4    -0.283120862427E+03    0.16696E-01   -0.13502E-01 35856   0.143E+00    0.193E+00
DAV:   5    -0.283118686955E+03    0.21755E-02   -0.79093E-02 35508   0.898E-01    0.172E+00
DAV:   6    -0.283117992802E+03    0.69415E-03   -0.81071E-02 38892   0.840E-01    0.208E+00
DAV:   7    -0.283113032143E+03    0.49607E-02   -0.18825E-02 36348   0.566E-01    0.679E-01
DAV:   8    -0.283113158349E+03   -0.12621E-03   -0.10188E-02 36840   0.286E-01    0.423E-01
DAV:   9    -0.283113280853E+03   -0.12250E-03   -0.38922E-03 33732   0.192E-01    0.284E-01
DAV:  10    -0.283113257277E+03    0.23576E-04   -0.14257E-03 34452   0.102E-01    0.191E-01
DAV:  11    -0.283113242935E+03    0.14343E-04   -0.33041E-04 30300   0.579E-02    0.636E-02
DAV:  12    -0.283113250980E+03   -0.80449E-05   -0.89097E-05 27660   0.292E-02
   6 F= -.28311325E+03 E0= -.28311010E+03  d E =-.330257E+00  mag=    18.0000
       N       E                     dE             d eps       ncg     rms          rms(c)
DAV:   1    -0.282299790527E+03    0.81345E+00   -0.11366E+02 27624   0.470E+01    0.481E+00
DAV:   2    -0.283313943756E+03   -0.10142E+01   -0.10843E+01 27648   0.924E+00    0.545E+00
DAV:   3    -0.283353407979E+03   -0.39464E-01   -0.13054E+00 36012   0.334E+00    0.633E+00
DAV:   4    -0.283332064507E+03    0.21343E-01   -0.54617E-01 35628   0.196E+00    0.565E+00
DAV:   5    -0.283300948962E+03    0.31116E-01   -0.12775E-01 34596   0.126E+00    0.144E+00
DAV:   6    -0.283314122285E+03   -0.13173E-01   -0.23605E-01 37812   0.897E-01    0.373E+00
DAV:   7    -0.283302044000E+03    0.12078E-01   -0.43911E-02 32460   0.804E-01    0.264E+00
DAV:   8    -0.283296730560E+03    0.53134E-02   -0.63809E-02 36612   0.535E-01    0.368E-01
DAV:   9    -0.283299906041E+03   -0.31755E-02   -0.41294E-03 31764   0.240E-01    0.490E-01
DAV:  10    -0.283299830089E+03    0.75952E-04   -0.16114E-03 35496   0.124E-01    0.335E-01
DAV:  11    -0.283299752556E+03    0.77533E-04   -0.15461E-03 36888   0.862E-02    0.122E-01
DAV:  12    -0.283299794089E+03   -0.41534E-04   -0.16318E-04 30024   0.457E-02    0.748E-02
DAV:  13    -0.283299793503E+03    0.58684E-06   -0.48867E-05 21180   0.258E-02
   7 F= -.28329979E+03 E0= -.28329649E+03  d E =-.186543E+00  mag=    18.0000
       N       E                     dE             d eps       ncg     rms          rms(c)
DAV:   1    -0.283102990842E+03    0.19680E+00   -0.51137E+01 27612   0.285E+01    0.290E+00
DAV:   2    -0.283406140218E+03   -0.30315E+00   -0.34076E+00 27684   0.547E+00    0.403E+00
DAV:   3    -0.283412525262E+03   -0.63850E-02   -0.50951E-01 33840   0.207E+00    0.365E+00
DAV:   4    -0.283408238948E+03    0.42863E-02   -0.21294E-01 35964   0.117E+00    0.409E+00
DAV:   5    -0.283392395786E+03    0.15843E-01   -0.64153E-02 32964   0.813E-01    0.102E+00
DAV:   6    -0.283398468991E+03   -0.60732E-02   -0.10647E-01 38556   0.638E-01    0.226E+00
DAV:   7    -0.283394246260E+03    0.42227E-02   -0.12443E-02 31584   0.494E-01    0.176E+00
DAV:   8    -0.283391411844E+03    0.28344E-02   -0.17137E-02 37092   0.292E-01    0.423E-01
DAV:   9    -0.283392521666E+03   -0.11098E-02   -0.44005E-03 35280   0.134E-01    0.281E-01
DAV:  10    -0.283392647590E+03   -0.12592E-03   -0.45696E-04 31704   0.777E-02    0.199E-01
DAV:  11    -0.283392609651E+03    0.37939E-04   -0.42714E-04 35976   0.508E-02    0.259E-02
DAV:  12    -0.283392625114E+03   -0.15463E-04   -0.31611E-05 19872   0.188E-02    0.368E-02
DAV:  13    -0.283392625670E+03   -0.55553E-06   -0.28759E-05 17868   0.156E-02
   8 F= -.28339263E+03 E0= -.28338931E+03  d E =-.928322E-01  mag=    18.0000
       N       E                     dE             d eps       ncg     rms          rms(c)
DAV:   1    -0.283362628805E+03    0.29996E-01   -0.15632E+01 26784   0.167E+01    0.191E+00
DAV:   2    -0.283495904560E+03   -0.13328E+00   -0.14243E+00 29664   0.333E+00    0.569E+00
DAV:   3    -0.283472478433E+03    0.23426E-01   -0.27868E-01 31500   0.153E+00    0.140E+00
DAV:   4    -0.283479369756E+03   -0.68913E-02   -0.22203E-02 32484   0.586E-01    0.139E+00
DAV:   5    -0.283477324510E+03    0.20452E-02   -0.23959E-02 33756   0.441E-01    0.981E-01
DAV:   6    -0.283477242493E+03    0.82017E-04   -0.20853E-02 35076   0.341E-01    0.115E+00
DAV:   7    -0.283476170535E+03    0.10720E-02   -0.25172E-03 30996   0.221E-01    0.801E-01
DAV:   8    -0.283475759574E+03    0.41096E-03   -0.68487E-03 36108   0.156E-01    0.175E-01
DAV:   9    -0.283476067673E+03   -0.30810E-03   -0.40336E-04 30276   0.882E-02    0.138E-01
DAV:  10    -0.283476053555E+03    0.14118E-04   -0.13628E-04 30072   0.385E-02    0.106E-01
DAV:  11    -0.283476052995E+03    0.56060E-06   -0.26017E-04 24072   0.329E-02    0.892E-02
DAV:  12    -0.283476054324E+03   -0.13295E-05   -0.14197E-05 18984   0.208E-02
   9 F= -.28347605E+03 E0= -.28347265E+03  d E =-.834287E-01  mag=    18.0000
       N       E                     dE             d eps       ncg     rms          rms(c)
DAV:   1    -0.283467510621E+03    0.85424E-02   -0.69506E+00 26928   0.109E+01    0.115E+00
DAV:   2    -0.283518191043E+03   -0.50680E-01   -0.52894E-01 28188   0.203E+00    0.181E+00
DAV:   3    -0.283520293449E+03   -0.21024E-02   -0.10564E-01 35160   0.870E-01    0.230E+00
DAV:   4    -0.283516885534E+03    0.34079E-02   -0.30283E-02 32496   0.524E-01    0.962E-01
DAV:   5    -0.283516853821E+03    0.31713E-04   -0.83054E-03 33768   0.280E-01    0.270E-01
DAV:   6    -0.283516678916E+03    0.17490E-03   -0.23336E-03 31284   0.170E-01    0.345E-01
DAV:   7    -0.283516493277E+03    0.18564E-03   -0.13982E-03 33420   0.146E-01    0.125E-01
DAV:   8    -0.283516540534E+03   -0.47257E-04   -0.65181E-04 35016   0.646E-02    0.212E-01
DAV:   9    -0.283516496917E+03    0.43617E-04   -0.34867E-04 30684   0.537E-02    0.291E-02
DAV:  10    -0.283516510572E+03   -0.13655E-04   -0.38697E-05 18192   0.204E-02    0.398E-02
DAV:  11    -0.283516508948E+03    0.16245E-05   -0.15798E-05 16104   0.135E-02
  10 F= -.28351651E+03 E0= -.28351301E+03  d E =-.404546E-01  mag=    18.0000
       N       E                     dE             d eps       ncg     rms          rms(c)
DAV:   1    -0.283426277517E+03    0.90233E-01   -0.21527E+01 26784   0.187E+01    0.185E+00
DAV:   2    -0.283562862838E+03   -0.13659E+00   -0.14209E+00 28680   0.350E+00    0.294E+00
DAV:   3    -0.283563242439E+03   -0.37960E-03   -0.22490E-01 33816   0.139E+00    0.202E+00
DAV:   4    -0.283559391067E+03    0.38514E-02   -0.16937E-02 32604   0.609E-01    0.836E-01
DAV:   5    -0.283559229309E+03    0.16176E-03   -0.31306E-02 35964   0.385E-01    0.150E+00
DAV:   6    -0.283558089885E+03    0.11394E-02   -0.16146E-02 33900   0.327E-01    0.108E+00
DAV:   7    -0.283556770388E+03    0.13195E-02   -0.91715E-03 33936   0.278E-01    0.400E-01
DAV:   8    -0.283557039191E+03   -0.26880E-03   -0.20365E-03 33960   0.165E-01    0.178E-01
DAV:   9    -0.283557065894E+03   -0.26702E-04   -0.48120E-04 34920   0.701E-02    0.822E-02
DAV:  10    -0.283557069376E+03   -0.34822E-05   -0.15644E-04 29880   0.391E-02    0.605E-02
DAV:  11    -0.283557066828E+03    0.25482E-05   -0.31482E-05 18372   0.221E-02
  11 F= -.28355707E+03 E0= -.28355340E+03  d E =-.405579E-01  mag=    18.0000
       N       E                     dE             d eps       ncg     rms          rms(c)
DAV:   1    -0.283102223973E+03    0.45485E+00   -0.72588E+01 26796   0.358E+01    0.340E+00
DAV:   2    -0.283607885229E+03   -0.50566E+00   -0.52033E+00 27828   0.678E+00    0.524E+00
DAV:   3    -0.283609363206E+03   -0.14780E-02   -0.71133E-01 32736   0.251E+00    0.313E+00
DAV:   4    -0.283601855200E+03    0.75080E-02   -0.44326E-02 34596   0.101E+00    0.151E+00
DAV:   5    -0.283598013736E+03    0.38415E-02   -0.72843E-02 35244   0.668E-01    0.222E+00
DAV:   6    -0.283595622719E+03    0.23910E-02   -0.53560E-02 35184   0.547E-01    0.160E+00
DAV:   7    -0.283593069600E+03    0.25531E-02   -0.13222E-02 33204   0.450E-01    0.948E-01
DAV:   8    -0.283592529317E+03    0.54028E-03   -0.95790E-03 35388   0.290E-01    0.198E-01
DAV:   9    -0.283592964511E+03   -0.43519E-03   -0.21114E-03 33348   0.120E-01    0.356E-01
DAV:  10    -0.283592878033E+03    0.86478E-04   -0.77826E-04 32292   0.857E-02    0.118E-01
DAV:  11    -0.283592902548E+03   -0.24515E-04   -0.40109E-04 34044   0.490E-02    0.132E-01
DAV:  12    -0.283592892771E+03    0.97771E-05   -0.77739E-05 22488   0.322E-02
  12 F= -.28359289E+03 E0= -.28358919E+03  d E =-.358259E-01  mag=    18.0000
       N       E                     dE             d eps       ncg     rms          rms(c)
DAV:   1    -0.283189657842E+03    0.40324E+00   -0.59762E+01 26928   0.335E+01    0.325E+00
DAV:   2    -0.283647907827E+03   -0.45825E+00   -0.46940E+00 27792   0.640E+00    0.469E+00
DAV:   3    -0.283653850669E+03   -0.59428E-02   -0.62577E-01 33672   0.242E+00    0.438E+00
DAV:   4    -0.283649242948E+03    0.46077E-02   -0.24778E-01 33348   0.129E+00    0.365E+00
DAV:   5    -0.283638191932E+03    0.11051E-01   -0.37294E-02 32616   0.767E-01    0.138E+00
DAV:   6    -0.283640483260E+03   -0.22913E-02   -0.97303E-02 38184   0.583E-01    0.205E+00
DAV:   7    -0.283636320833E+03    0.41624E-02   -0.12513E-02 31788   0.517E-01    0.144E+00
DAV:   8    -0.283634637853E+03    0.16830E-02   -0.20931E-02 35988   0.309E-01    0.280E-01
DAV:   9    -0.283635774205E+03   -0.11364E-02   -0.17473E-03 31476   0.145E-01    0.424E-01
DAV:  10    -0.283635652425E+03    0.12178E-03   -0.75306E-04 36336   0.789E-02    0.258E-01
DAV:  11    -0.283635621382E+03    0.31043E-04   -0.83642E-04 36588   0.619E-02    0.770E-02
DAV:  12    -0.283635654392E+03   -0.33009E-04   -0.53213E-05 25524   0.278E-02    0.961E-02
DAV:  13    -0.283635645173E+03    0.92188E-05   -0.41536E-05 19836   0.192E-02
  13 F= -.28363565E+03 E0= -.28363179E+03  d E =-.427524E-01  mag=    18.0000
       N       E                     dE             d eps       ncg     rms          rms(c)
DAV:   1    -0.283521759674E+03    0.11389E+00   -0.19770E+01 26784   0.179E+01    0.197E+00
DAV:   2    -0.283651980777E+03   -0.13022E+00   -0.13366E+00 28812   0.347E+00    0.396E+00
DAV:   3    -0.283641803138E+03    0.10178E-01   -0.22806E-01 32316   0.151E+00    0.165E+00
DAV:   4    -0.283642454935E+03   -0.65180E-03   -0.18596E-02 30720   0.546E-01    0.118E+00
DAV:   5    -0.283641368203E+03    0.10867E-02   -0.23068E-02 33252   0.362E-01    0.123E+00
DAV:   6    -0.283640010461E+03    0.13577E-02   -0.14595E-02 33720   0.348E-01    0.725E-01
DAV:   7    -0.283639412096E+03    0.59836E-03   -0.44668E-03 30288   0.233E-01    0.328E-01
DAV:   8    -0.283639463910E+03   -0.51814E-04   -0.22004E-03 35772   0.111E-01    0.154E-01
DAV:   9    -0.283639497686E+03   -0.33776E-04   -0.23285E-04 29952   0.641E-02    0.861E-02
DAV:  10    -0.283639491733E+03    0.59532E-05   -0.10017E-04 23064   0.265E-02    0.461E-02
DAV:  11    -0.283639492875E+03   -0.11418E-05   -0.50727E-05 23064   0.236E-02
  14 F= -.28363949E+03 E0= -.28363556E+03  d E =-.384770E-02  mag=    18.0000
       N       E                     dE             d eps       ncg     rms          rms(c)
DAV:   1    -0.283645041063E+03   -0.55493E-02   -0.43620E+00 26784   0.805E+00    0.122E+00
DAV:   2    -0.283671616316E+03   -0.26575E-01   -0.28730E-01 28968   0.163E+00    0.148E+00
DAV:   3    -0.283670882374E+03    0.73394E-03   -0.60838E-02 32412   0.796E-01    0.146E+00
DAV:   4    -0.283669204556E+03    0.16778E-02   -0.25264E-02 31992   0.458E-01    0.118E+00
DAV:   5    -0.283668333167E+03    0.87139E-03   -0.95131E-03 31944   0.274E-01    0.308E-01
DAV:   6    -0.283668330410E+03    0.27562E-05   -0.22110E-03 31800   0.165E-01    0.381E-01
DAV:   7    -0.283668141872E+03    0.18854E-03   -0.16241E-03 33540   0.127E-01    0.892E-02
DAV:   8    -0.283668192334E+03   -0.50462E-04   -0.20747E-04 32712   0.519E-02    0.125E-01
DAV:   9    -0.283668175934E+03    0.16400E-04   -0.11114E-04 22536   0.285E-02    0.242E-02
DAV:  10    -0.283668180339E+03   -0.44050E-05   -0.32867E-05 23088   0.190E-02
  15 F= -.28366818E+03 E0= -.28366437E+03  d E =-.286875E-01  mag=    18.0000
       N       E                     dE             d eps       ncg     rms          rms(c)
DAV:   1    -0.283667846184E+03    0.32975E-03   -0.12600E+00 26784   0.431E+00    0.418E-01
DAV:   2    -0.283675146677E+03   -0.73005E-02   -0.74138E-02 28512   0.799E-01    0.783E-01
DAV:   3    -0.283674923969E+03    0.22271E-03   -0.11847E-02 31812   0.319E-01    0.513E-01
DAV:   4    -0.283674990211E+03   -0.66243E-04   -0.37268E-03 32520   0.166E-01    0.555E-01
DAV:   5    -0.283674715726E+03    0.27449E-03   -0.11893E-03 31872   0.109E-01    0.129E-01
DAV:   6    -0.283674793152E+03   -0.77426E-04   -0.14421E-03 34212   0.730E-02    0.325E-01
DAV:   7    -0.283674686100E+03    0.10705E-03   -0.44248E-04 30732   0.708E-02    0.120E-01
DAV:   8    -0.283674697882E+03   -0.11782E-04   -0.24003E-04 27900   0.317E-02    0.538E-02
DAV:   9    -0.283674705717E+03   -0.78347E-05   -0.16367E-05 18300   0.186E-02
  16 F= -.28367471E+03 E0= -.28367091E+03  d E =-.652538E-02  mag=    18.0000
       N       E                     dE             d eps       ncg     rms          rms(c)
DAV:   1    -0.283534487114E+03    0.14021E+00   -0.37188E+01 27612   0.225E+01    0.184E+00
DAV:   2    -0.283709224467E+03   -0.17474E+00   -0.18004E+00 28176   0.403E+00    0.355E+00
DAV:   3    -0.283703209345E+03    0.60151E-02   -0.22217E-01 32184   0.146E+00    0.180E+00
DAV:   4    -0.283703154327E+03    0.55018E-04   -0.37791E-02 33516   0.614E-01    0.175E+00
DAV:   5    -0.283700221676E+03    0.29327E-02   -0.16936E-02 32052   0.384E-01    0.568E-01
DAV:   6    -0.283699960125E+03    0.26155E-03   -0.13971E-02 35100   0.326E-01    0.927E-01
DAV:   7    -0.283698693885E+03    0.12662E-02   -0.56666E-03 30660   0.280E-01    0.324E-01
DAV:   8    -0.283698859741E+03   -0.16586E-03   -0.27026E-03 35352   0.113E-01    0.211E-01
DAV:   9    -0.283698875511E+03   -0.15771E-04   -0.30055E-04 31056   0.714E-02    0.802E-02
DAV:  10    -0.283698875945E+03   -0.43369E-06   -0.12094E-04 29724   0.273E-02    0.264E-02
DAV:  11    -0.283698879190E+03   -0.32446E-05   -0.12132E-05 16512   0.156E-02
  17 F= -.28369888E+03 E0= -.28369503E+03  d E =-.241735E-01  mag=    18.0000
       N       E                     dE             d eps       ncg     rms          rms(c)
DAV:   1    -0.282394111079E+03    0.13048E+01   -0.91926E+01 26796   0.323E+01    0.804E+00
DAV:   2    -0.282892302949E+03   -0.49819E+00   -0.56426E+00 30552   0.680E+00    0.614E+00
DAV:   3    -0.282914458724E+03   -0.22156E-01   -0.20552E+00 31968   0.428E+00    0.845E+00
DAV:   4    -0.282838723191E+03    0.75736E-01   -0.71812E-01 32328   0.284E+00    0.810E+00
DAV:   5    -0.282789452516E+03    0.49271E-01   -0.60778E-01 33336   0.191E+00    0.286E+00
DAV:   6    -0.282818241159E+03   -0.28789E-01   -0.29760E-01 34044   0.118E+00    0.467E+00
DAV:   7    -0.282788382860E+03    0.29858E-01   -0.96364E-02 32388   0.107E+00    0.117E+00
DAV:   8    -0.282792843526E+03   -0.44607E-02   -0.25281E-02 34476   0.379E-01    0.435E-01
DAV:   9    -0.282794290923E+03   -0.14474E-02   -0.32943E-03 30756   0.174E-01    0.712E-01
DAV:  10    -0.282793650452E+03    0.64047E-03   -0.45739E-03 38268   0.165E-01    0.143E-01
DAV:  11    -0.282793937482E+03   -0.28703E-03   -0.14379E-03 29652   0.633E-02    0.376E-01
DAV:  12    -0.282793783279E+03    0.15420E-03   -0.59188E-04 34776   0.727E-02    0.106E-01
DAV:  13    -0.282793824009E+03   -0.40730E-04   -0.23927E-04 28560   0.261E-02    0.474E-02
DAV:  14    -0.282793835493E+03   -0.11484E-04   -0.13459E-05 17460   0.143E-02    0.617E-02
DAV:  15    -0.282793831892E+03    0.36010E-05   -0.54114E-05 16884   0.167E-02
  18 F= -.28279383E+03 E0= -.28278938E+03  d E =0.905047E+00  mag=    18.0000
       N       E                     dE             d eps       ncg     rms          rms(c)
DAV:   1    -0.283470904137E+03   -0.67707E+00   -0.16455E+01 26736   0.106E+01    0.364E+00
DAV:   2    -0.283537397341E+03   -0.66493E-01   -0.84147E-01 31188   0.242E+00    0.333E+00
DAV:   3    -0.283544678906E+03   -0.72816E-02   -0.50160E-01 33552   0.193E+00    0.491E+00
DAV:   4    -0.283540933848E+03    0.37451E-02   -0.45609E-01 33528   0.150E+00    0.566E+00
DAV:   5    -0.283509615233E+03    0.31319E-01   -0.77289E-02 32100   0.114E+00    0.204E+00
DAV:   6    -0.283513753512E+03   -0.41383E-02   -0.16351E-01 35424   0.740E-01    0.205E+00
DAV:   7    -0.283511734682E+03    0.20188E-02   -0.12503E-02 31236   0.508E-01    0.144E+00
DAV:   8    -0.283510090702E+03    0.16440E-02   -0.83735E-03 34980   0.226E-01    0.566E-01
DAV:   9    -0.283510616735E+03   -0.52603E-03   -0.52747E-03 35904   0.121E-01    0.275E-01
DAV:  10    -0.283510824125E+03   -0.20739E-03   -0.35853E-04 29172   0.779E-02    0.266E-01
DAV:  11    -0.283510740296E+03    0.83829E-04   -0.79323E-04 37104   0.672E-02    0.396E-02
DAV:  12    -0.283510776236E+03   -0.35940E-04   -0.74348E-05 26964   0.271E-02    0.888E-02
DAV:  13    -0.283510766934E+03    0.93022E-05   -0.55731E-05 18564   0.206E-02
  19 F= -.28351077E+03 E0= -.28350653E+03  d E =-.716935E+00  mag=    18.0000
       N       E                     dE             d eps       ncg     rms          rms(c)
DAV:   1    -0.283652283715E+03   -0.14151E+00   -0.34221E+00 26496   0.494E+00    0.153E+00
DAV:   2    -0.283666106725E+03   -0.13823E-01   -0.17127E-01 30972   0.112E+00    0.158E+00
DAV:   3    -0.283667369092E+03   -0.12624E-02   -0.99563E-02 32868   0.834E-01    0.224E+00
DAV:   4    -0.283665804829E+03    0.15643E-02   -0.76552E-02 34152   0.647E-01    0.260E+00
DAV:   5    -0.283659742615E+03    0.60622E-02   -0.21440E-02 31692   0.488E-01    0.684E-01
DAV:   6    -0.283661455339E+03   -0.17127E-02   -0.22787E-02 35340   0.251E-01    0.100E+00
DAV:   7    -0.283660738749E+03    0.71659E-03   -0.32073E-03 30552   0.216E-01    0.444E-01
DAV:   8    -0.283660726615E+03    0.12134E-04   -0.21603E-03 37584   0.905E-02    0.656E-02
DAV:   9    -0.283660849712E+03   -0.12310E-03   -0.20104E-04 27660   0.416E-02    0.143E-01
DAV:  10    -0.283660828167E+03    0.21545E-04   -0.15111E-04 27756   0.319E-02    0.298E-02
DAV:  11    -0.283660836430E+03   -0.82633E-05   -0.39786E-05 16692   0.142E-02
  20 F= -.28366084E+03 E0= -.28365674E+03  d E =-.150069E+00  mag=    18.0000
       N       E                     dE             d eps       ncg     rms          rms(c)
DAV:   1    -0.283705411812E+03   -0.44584E-01   -0.39727E+00 27216   0.549E+00    0.157E+00
DAV:   2    -0.283721595291E+03   -0.16183E-01   -0.19924E-01 31020   0.120E+00    0.184E+00
DAV:   3    -0.283723538532E+03   -0.19432E-02   -0.13102E-01 33372   0.879E-01    0.298E+00
DAV:   4    -0.283717128737E+03    0.64098E-02   -0.53742E-02 33540   0.701E-01    0.150E+00
DAV:   5    -0.283715608200E+03    0.15205E-02   -0.13902E-02 33036   0.447E-01    0.294E-01
DAV:   6    -0.283715857977E+03   -0.24978E-03   -0.50207E-03 34020   0.191E-01    0.486E-01
DAV:   7    -0.283715596348E+03    0.26163E-03   -0.36210E-03 33984   0.171E-01    0.201E-01
DAV:   8    -0.283715631454E+03   -0.35105E-04   -0.62192E-04 33552   0.897E-02    0.896E-02
DAV:   9    -0.283715632821E+03   -0.13677E-05   -0.10415E-04 27360   0.378E-02    0.615E-02
DAV:  10    -0.283715628265E+03    0.45566E-05   -0.56180E-05 20424   0.211E-02
  21 F= -.28371563E+03 E0= -.28371172E+03  d E =-.547918E-01  mag=    18.0000
       N       E                     dE             d eps       ncg     rms          rms(c)
DAV:   1    -0.283717658260E+03   -0.20254E-02   -0.10934E-01 27780   0.114E+00    0.211E-01
DAV:   2    -0.283718158207E+03   -0.49995E-03   -0.56145E-03 30588   0.217E-01    0.741E-02
DAV:   3    -0.283718164064E+03   -0.58568E-05   -0.60469E-04 32592   0.676E-02    0.237E-01
DAV:   4    -0.283718114124E+03    0.49940E-04   -0.33444E-04 29292   0.501E-02    0.416E-02
DAV:   5    -0.283718122087E+03   -0.79633E-05   -0.77958E-05 26784   0.212E-02
  22 F= -.28371812E+03 E0= -.28371423E+03  d E =-.249382E-02  mag=    18.0000
       N       E                     dE             d eps       ncg     rms          rms(c)
DAV:   1    -0.283718823470E+03   -0.70935E-03   -0.48568E-01 26880   0.264E+00    0.402E-01
DAV:   2    -0.283721633506E+03   -0.28100E-02   -0.30220E-02 30180   0.495E-01    0.557E-01
DAV:   3    -0.283721959790E+03   -0.32628E-03   -0.12122E-02 33348   0.257E-01    0.903E-01
DAV:   4    -0.283721280929E+03    0.67886E-03   -0.24591E-03 31656   0.178E-01    0.252E-01
DAV:   5    -0.283721437306E+03   -0.15638E-03   -0.19997E-03 35232   0.783E-02    0.297E-01
DAV:   6    -0.283721497388E+03   -0.60082E-04   -0.57698E-04 30600   0.634E-02    0.408E-01
DAV:   7    -0.283721345651E+03    0.15174E-03   -0.42450E-04 28464   0.531E-02    0.162E-01
DAV:   8    -0.283721379068E+03   -0.33417E-04   -0.29564E-04 23928   0.245E-02    0.505E-02
DAV:   9    -0.283721396246E+03   -0.17177E-04   -0.31005E-05 18396   0.205E-02    0.523E-02
DAV:  10    -0.283721393715E+03    0.25308E-05   -0.21872E-05 16464   0.121E-02
  23 F= -.28372139E+03 E0= -.28371748E+03  d E =-.327163E-02  mag=    18.0000
       N       E                     dE             d eps       ncg     rms          rms(c)
DAV:   1    -0.283722004289E+03   -0.60804E-03   -0.28248E-02 28476   0.647E-01    0.728E-02
DAV:   2    -0.283722166336E+03   -0.16205E-03   -0.16215E-03 29808   0.115E-01    0.730E-02
DAV:   3    -0.283722181594E+03   -0.15258E-04   -0.31906E-04 25812   0.462E-02    0.157E-01
DAV:   4    -0.283722160313E+03    0.21281E-04   -0.13482E-04 21024   0.342E-02    0.575E-02
DAV:   5    -0.283722162175E+03   -0.18618E-05   -0.30287E-05 16716   0.164E-02
  24 F= -.28372216E+03 E0= -.28371824E+03  d E =-.768460E-03  mag=    18.0000
       N       E                     dE             d eps       ncg     rms          rms(c)
DAV:   1    -0.283719145452E+03    0.30149E-02   -0.13245E+00 27384   0.427E+00    0.443E-01
DAV:   2    -0.283727691504E+03   -0.85461E-02   -0.89030E-02 30180   0.805E-01    0.180E+00
DAV:   3    -0.283725186123E+03    0.25054E-02   -0.18385E-02 30912   0.407E-01    0.229E-01
DAV:   4    -0.283726131635E+03   -0.94551E-03   -0.36844E-03 33396   0.135E-01    0.513E-01
DAV:   5    -0.283725966521E+03    0.16511E-03   -0.10075E-03 31572   0.111E-01    0.405E-01
DAV:   6    -0.283725816122E+03    0.15040E-03   -0.18451E-03 32772   0.805E-02    0.141E-01
DAV:   7    -0.283725942980E+03   -0.12686E-03   -0.72252E-04 30624   0.549E-02    0.392E-01
DAV:   8    -0.283725824116E+03    0.11886E-03   -0.22806E-04 30324   0.482E-02    0.247E-01
DAV:   9    -0.283725807016E+03    0.17100E-04   -0.32158E-04 23292   0.279E-02    0.402E-02
DAV:  10    -0.283725839822E+03   -0.32805E-04   -0.78419E-05 18384   0.162E-02    0.557E-02
DAV:  11    -0.283725840631E+03   -0.80966E-06   -0.37155E-06 16752   0.104E-02
  25 F= -.28372584E+03 E0= -.28372194E+03  d E =-.367846E-02  mag=    18.0000
       N       E                     dE             d eps       ncg     rms          rms(c)
DAV:   1    -0.283718670906E+03    0.71689E-02   -0.29359E+00 27300   0.601E+00    0.840E-01
DAV:   2    -0.283748286133E+03   -0.29615E-01   -0.33585E-01 30564   0.141E+00    0.493E+00
DAV:   3    -0.283726470395E+03    0.21816E-01   -0.86999E-02 29796   0.980E-01    0.139E+00
DAV:   4    -0.283730214820E+03   -0.37444E-02   -0.24373E-02 31896   0.293E-01    0.523E-01
DAV:   5    -0.283731675334E+03   -0.14605E-02   -0.45365E-03 30132   0.182E-01    0.825E-01
DAV:   6    -0.283730919165E+03    0.75617E-03   -0.22684E-03 31548   0.133E-01    0.276E-01
DAV:   7    -0.283731228310E+03   -0.30914E-03   -0.51282E-03 36096   0.113E-01    0.589E-01
DAV:   8    -0.283731190115E+03    0.38195E-04   -0.35336E-04 29280   0.794E-02    0.626E-01
DAV:   9    -0.283730909081E+03    0.28103E-03   -0.73782E-04 35412   0.548E-02    0.311E-01
DAV:  10    -0.283730963604E+03   -0.54524E-04   -0.62342E-04 29064   0.332E-02    0.235E-02
DAV:  11    -0.283731031008E+03   -0.67404E-04   -0.12664E-04 18912   0.169E-02    0.109E-01
DAV:  12    -0.283731022342E+03    0.86665E-05   -0.26882E-05 17796   0.188E-02
  26 F= -.28373102E+03 E0= -.28372714E+03  d E =-.518171E-02  mag=    18.0000
       N       E                     dE             d eps       ncg     rms          rms(c)
DAV:   1    -0.283505829324E+03    0.22520E+00   -0.63729E+01 26376   0.262E+01    0.289E+00
DAV:   2    -0.283862480428E+03   -0.35665E+00   -0.39960E+00 29748   0.542E+00    0.109E+01
DAV:   3    -0.283743627833E+03    0.11885E+00   -0.68206E-01 30372   0.296E+00    0.335E+00
DAV:   4    -0.283754159719E+03   -0.10532E-01   -0.19982E-01 32556   0.110E+00    0.204E+00
DAV:   5    -0.283753684464E+03    0.47525E-03   -0.21318E-02 31176   0.666E-01    0.132E+00
DAV:   6    -0.283750967993E+03    0.27165E-02   -0.40952E-02 35124   0.466E-01    0.128E+00
DAV:   7    -0.283751029140E+03   -0.61147E-04   -0.14177E-02 30000   0.393E-01    0.183E+00
DAV:   8    -0.283748033538E+03    0.29956E-02   -0.14787E-02 34020   0.287E-01    0.410E-01
DAV:   9    -0.283749196023E+03   -0.11625E-02   -0.39226E-03 32028   0.110E-01    0.278E-01
DAV:  10    -0.283749302851E+03   -0.10683E-03   -0.30297E-04 30396   0.744E-02    0.251E-01
DAV:  11    -0.283749240129E+03    0.62722E-04   -0.46796E-04 35940   0.497E-02    0.276E-02
DAV:  12    -0.283749283329E+03   -0.43200E-04   -0.18595E-04 21732   0.198E-02    0.146E-01
DAV:  13    -0.283749265197E+03    0.18132E-04   -0.45035E-05 18852   0.246E-02    0.684E-02
DAV:  14    -0.283749266941E+03   -0.17435E-05   -0.42756E-05 16296   0.109E-02
  27 F= -.28374927E+03 E0= -.28374550E+03  d E =-.182446E-01  mag=    18.0000
       N       E                     dE             d eps       ncg     rms          rms(c)
DAV:   1    -0.282267091464E+03    0.14822E+01   -0.92371E+01 26796   0.341E+01    0.100E+01
DAV:   2    -0.282988200917E+03   -0.72111E+00   -0.88882E+00 31764   0.844E+00    0.154E+01
DAV:   3    -0.282736817057E+03    0.25138E+00   -0.37215E+00 30480   0.632E+00    0.712E+00
DAV:   4    -0.282695267376E+03    0.41550E-01   -0.16732E-01 31092   0.206E+00    0.369E+00
DAV:   5    -0.282668757715E+03    0.26510E-01   -0.35896E-01 34464   0.155E+00    0.323E+00
DAV:   6    -0.282659464502E+03    0.92932E-02   -0.78870E-02 32652   0.106E+00    0.642E-01
DAV:   7    -0.282661678108E+03   -0.22136E-02   -0.20612E-02 34368   0.527E-01    0.738E-01
DAV:   8    -0.282661558601E+03    0.11951E-03   -0.74677E-03 35484   0.300E-01    0.398E-01
DAV:   9    -0.282661405777E+03    0.15282E-03   -0.10870E-03 33708   0.134E-01    0.150E-01
DAV:  10    -0.282661420177E+03   -0.14400E-04   -0.73993E-04 32760   0.890E-02    0.122E-01
DAV:  11    -0.282661420771E+03   -0.59383E-06   -0.14588E-04 32844   0.460E-02    0.142E-01
DAV:  12    -0.282661401382E+03    0.19388E-04   -0.25077E-04 36300   0.431E-02    0.265E-02
DAV:  13    -0.282661417558E+03   -0.16175E-04   -0.42738E-05 21444   0.180E-02    0.742E-02
DAV:  14    -0.282661411164E+03    0.63933E-05   -0.28007E-05 16956   0.171E-02
  28 F= -.28266141E+03 E0= -.28265938E+03  d E =0.108786E+01  mag=    18.0000
       N       E                     dE             d eps       ncg     rms          rms(c)
DAV:   1    -0.283581471583E+03   -0.92005E+00   -0.32756E+01 26328   0.145E+01    0.548E+00
DAV:   2    -0.283813063969E+03   -0.23159E+00   -0.29661E+00 31464   0.466E+00    0.892E+00
DAV:   3    -0.283685107604E+03    0.12796E+00   -0.65507E-01 31980   0.330E+00    0.256E+00
DAV:   4    -0.283683336767E+03    0.17708E-02   -0.16235E-01 30696   0.805E-01    0.445E+00
DAV:   5    -0.283678152777E+03    0.51840E-02   -0.61582E-01 33000   0.166E+00    0.388E+00
DAV:   6    -0.283668263896E+03    0.98889E-02   -0.31575E-02 32616   0.898E-01    0.286E+00
DAV:   7    -0.283660973071E+03    0.72908E-02   -0.31514E-02 35844   0.455E-01    0.111E+00
DAV:   8    -0.283662542950E+03   -0.15699E-02   -0.19142E-02 35052   0.276E-01    0.393E-01
DAV:   9    -0.283663301243E+03   -0.75829E-03   -0.18260E-03 29592   0.162E-01    0.485E-01
DAV:  10    -0.283663049576E+03    0.25167E-03   -0.86036E-04 36324   0.101E-01    0.209E-01
DAV:  11    -0.283663139648E+03   -0.90072E-04   -0.17210E-03 34560   0.726E-02    0.299E-01
DAV:  12    -0.283663085685E+03    0.53963E-04   -0.16599E-04 30072   0.577E-02    0.173E-01
DAV:  13    -0.283663076358E+03    0.93274E-05   -0.33735E-04 32340   0.328E-02    0.423E-02
DAV:  14    -0.283663093096E+03   -0.16738E-04   -0.17504E-05 18648   0.171E-02    0.654E-02
DAV:  15    -0.283663088954E+03    0.41420E-05   -0.39129E-05 16848   0.149E-02
  29 F= -.28366309E+03 E0= -.28366009E+03  d E =-.100168E+01  mag=    18.0000
       N       E                     dE             d eps       ncg     rms          rms(c)
DAV:   1    -0.283740702099E+03   -0.77609E-01   -0.41034E+00 27576   0.568E+00    0.206E+00
DAV:   2    -0.283792479054E+03   -0.51777E-01   -0.59771E-01 32136   0.205E+00    0.599E+00
DAV:   3    -0.283747054882E+03    0.45424E-01   -0.19086E-01 31116   0.158E+00    0.880E-01
DAV:   4    -0.283760566269E+03   -0.13511E-01   -0.14558E-01 34620   0.555E-01    0.362E+00
DAV:   5    -0.283747363373E+03    0.13203E-01   -0.54600E-02 31200   0.693E-01    0.103E+00
DAV:   6    -0.283749949605E+03   -0.25862E-02   -0.14029E-02 34536   0.275E-01    0.512E-01
DAV:   7    -0.283750585696E+03   -0.63609E-03   -0.32209E-03 34596   0.163E-01    0.653E-01
DAV:   8    -0.283750393286E+03    0.19241E-03   -0.10138E-03 34404   0.117E-01    0.607E-01
DAV:   9    -0.283750121199E+03    0.27209E-03   -0.10009E-03 37176   0.699E-02    0.245E-01
DAV:  10    -0.283750211203E+03   -0.90005E-04   -0.97241E-04 35004   0.467E-02    0.124E-01
DAV:  11    -0.283750269765E+03   -0.58562E-04   -0.10386E-04 21528   0.281E-02    0.212E-01
DAV:  12    -0.283750224083E+03    0.45682E-04   -0.15007E-04 23148   0.304E-02    0.654E-02
DAV:  13    -0.283750237180E+03   -0.13097E-04   -0.75823E-05 16920   0.120E-02    0.338E-02
DAV:  14    -0.283750240110E+03   -0.29294E-05   -0.25697E-06 16416   0.840E-03
  30 F= -.28375024E+03 E0= -.28374688E+03  d E =-.871512E-01  mag=    18.0000
       N       E                     dE             d eps       ncg     rms          rms(c)
DAV:   1    -0.283756318592E+03   -0.60814E-02   -0.10351E+00 26484   0.325E+00    0.116E+00
DAV:   2    -0.283781163670E+03   -0.24845E-01   -0.27584E-01 32940   0.133E+00    0.484E+00
DAV:   3    -0.283755370101E+03    0.25794E-01   -0.93440E-02 30660   0.107E+00    0.957E-01
DAV:   4    -0.283762551584E+03   -0.71815E-02   -0.68666E-02 35652   0.381E-01    0.222E+00
DAV:   5    -0.283761880625E+03    0.67096E-03   -0.92506E-03 29892   0.341E-01    0.219E+00
DAV:   6    -0.283757858402E+03    0.40222E-02   -0.13752E-02 34440   0.242E-01    0.779E-01
DAV:   7    -0.283759203275E+03   -0.13449E-02   -0.85134E-03 34728   0.150E-01    0.363E-01
DAV:   8    -0.283759768500E+03   -0.56522E-03   -0.14029E-03 29400   0.994E-02    0.590E-01
DAV:   9    -0.283759571775E+03    0.19672E-03   -0.20261E-04 30984   0.517E-02    0.494E-01
DAV:  10    -0.283759416227E+03    0.15555E-03   -0.69456E-04 34776   0.487E-02    0.177E-01
DAV:  11    -0.283759499989E+03   -0.83762E-04   -0.57752E-04 23436   0.294E-02    0.113E-01
DAV:  12    -0.283759522573E+03   -0.22584E-04   -0.23315E-05 20604   0.239E-02    0.113E-01
DAV:  13    -0.283759515763E+03    0.68103E-05   -0.74075E-06 16416   0.878E-03
  31 F= -.28375952E+03 E0= -.28375589E+03  d E =-.927565E-02  mag=    18.0000
       N       E                     dE             d eps       ncg     rms          rms(c)
DAV:   1    -0.283765572959E+03   -0.60504E-02   -0.30123E-01 26340   0.175E+00    0.426E-01
DAV:   2    -0.283767612667E+03   -0.20397E-02   -0.23720E-02 30324   0.400E-01    0.116E+00
DAV:   3    -0.283766457217E+03    0.11555E-02   -0.98698E-03 31176   0.285E-01    0.250E-01
DAV:   4    -0.283766924212E+03   -0.46700E-03   -0.24456E-03 31308   0.133E-01    0.555E-01
DAV:   5    -0.283766636128E+03    0.28808E-03   -0.11273E-03 31212   0.113E-01    0.349E-01
DAV:   6    -0.283766589191E+03    0.46936E-04   -0.16868E-03 30948   0.733E-02    0.153E-01
DAV:   7    -0.283766652300E+03   -0.63108E-04   -0.16424E-04 28584   0.413E-02    0.221E-01
DAV:   8    -0.283766610174E+03    0.42125E-04   -0.77385E-05 22152   0.261E-02    0.124E-01
DAV:   9    -0.283766609043E+03    0.11309E-05   -0.12775E-04 18024   0.172E-02    0.191E-02
DAV:  10    -0.283766619976E+03   -0.10933E-04   -0.25392E-05 16752   0.106E-02    0.530E-02
DAV:  11    -0.283766618069E+03    0.19072E-05   -0.22201E-06 15960   0.681E-03
  32 F= -.28376662E+03 E0= -.28376299E+03  d E =-.710231E-02  mag=    18.0000
       N       E                     dE             d eps       ncg     rms          rms(c)
DAV:   1    -0.283767318058E+03   -0.69808E-03   -0.49962E-01 26616   0.242E+00    0.501E-01
DAV:   2    -0.283769667820E+03   -0.23498E-02   -0.26733E-02 29520   0.467E-01    0.438E-01
DAV:   3    -0.283770202489E+03   -0.53467E-03   -0.11230E-02 32400   0.292E-01    0.972E-01
DAV:   4    -0.283769429511E+03    0.77298E-03   -0.59275E-03 32244   0.220E-01    0.528E-01
DAV:   5    -0.283769294219E+03    0.13529E-03   -0.15751E-03 31980   0.127E-01    0.902E-02
DAV:   6    -0.283769355768E+03   -0.61549E-04   -0.60716E-04 30600   0.530E-02    0.182E-01
DAV:   7    -0.283769320293E+03    0.35475E-04   -0.25652E-04 30396   0.491E-02    0.461E-02
DAV:   8    -0.283769326526E+03   -0.62328E-05   -0.61041E-05 18996   0.191E-02
  33 F= -.28376933E+03 E0= -.28376572E+03  d E =-.270846E-02  mag=    18.0000
       N       E                     dE             d eps       ncg     rms          rms(c)
DAV:   1    -0.283768848522E+03    0.47177E-03   -0.11258E-01 26856   0.145E+00    0.181E-01
DAV:   2    -0.283769813455E+03   -0.96493E-03   -0.99741E-03 28776   0.296E-01    0.515E-01
DAV:   3    -0.283769620921E+03    0.19253E-03   -0.23292E-03 31068   0.145E-01    0.160E-01
DAV:   4    -0.283769700464E+03   -0.79543E-04   -0.47520E-04 28644   0.702E-02    0.193E-01
DAV:   5    -0.283769656019E+03    0.44445E-04   -0.23094E-04 26484   0.492E-02    0.893E-02
DAV:   6    -0.283769658010E+03   -0.19901E-05   -0.20972E-04 23736   0.327E-02    0.920E-02
DAV:   7    -0.283769654580E+03    0.34300E-05   -0.35041E-05 22932   0.237E-02
  34 F= -.28376965E+03 E0= -.28376601E+03  d E =-.328054E-03  mag=    18.0000
       N       E                     dE             d eps       ncg     rms          rms(c)
DAV:   1    -0.283760917108E+03    0.87409E-02   -0.13357E+00 26964   0.494E+00    0.505E-01
DAV:   2    -0.283771500434E+03   -0.10583E-01   -0.10967E-01 28620   0.962E-01    0.152E+00
DAV:   3    -0.283770034460E+03    0.14660E-02   -0.20562E-02 31356   0.420E-01    0.412E-01
DAV:   4    -0.283770561520E+03   -0.52706E-03   -0.11138E-03 33552   0.147E-01    0.397E-01
DAV:   5    -0.283770372290E+03    0.18923E-03   -0.10950E-03 33936   0.946E-02    0.196E-01
DAV:   6    -0.283770456680E+03   -0.84389E-04   -0.20290E-03 35520   0.880E-02    0.409E-01
DAV:   7    -0.283770338973E+03    0.11771E-03   -0.22395E-04 32268   0.704E-02    0.291E-01
DAV:   8    -0.283770289322E+03    0.49651E-04   -0.58274E-04 31872   0.400E-02    0.267E-02
DAV:   9    -0.283770333690E+03   -0.44368E-04   -0.69856E-05 21300   0.214E-02    0.724E-02
DAV:  10    -0.283770330426E+03    0.32635E-05   -0.86831E-06 16812   0.130E-02
  35 F= -.28377033E+03 E0= -.28376678E+03  d E =-.675847E-03  mag=    18.0000
       N       E                     dE             d eps       ncg     rms          rms(c)
DAV:   1    -0.283764416488E+03    0.59172E-02   -0.19049E+00 27180   0.494E+00    0.808E-01
DAV:   2    -0.283786445648E+03   -0.22029E-01   -0.25453E-01 30660   0.125E+00    0.463E+00
DAV:   3    -0.283767849788E+03    0.18596E-01   -0.77448E-02 29484   0.903E-01    0.111E+00
DAV:   4    -0.283772164253E+03   -0.43145E-02   -0.23460E-02 34188   0.270E-01    0.774E-01
DAV:   5    -0.283773124063E+03   -0.95981E-03   -0.47567E-03 30636   0.210E-01    0.998E-01
DAV:   6    -0.283772006632E+03    0.11174E-02   -0.30198E-03 32280   0.149E-01    0.323E-01
DAV:   7    -0.283772370022E+03   -0.36339E-03   -0.46745E-03 35796   0.109E-01    0.490E-01
DAV:   8    -0.283772413486E+03   -0.43464E-04   -0.37861E-04 29424   0.777E-02    0.529E-01
DAV:   9    -0.283772208113E+03    0.20537E-03   -0.45308E-04 33108   0.479E-02    0.282E-01
DAV:  10    -0.283772227432E+03   -0.19320E-04   -0.35890E-04 25632   0.287E-02    0.552E-02
DAV:  11    -0.283772273320E+03   -0.45887E-04   -0.12393E-04 18012   0.150E-02    0.789E-02
DAV:  12    -0.283772272006E+03    0.13138E-05   -0.11511E-05 17328   0.163E-02
  36 F= -.28377227E+03 E0= -.28376884E+03  d E =-.194158E-02  mag=    18.0000
       N       E                     dE             d eps       ncg     rms          rms(c)
DAV:   1    -0.283740818223E+03    0.31455E-01   -0.11524E+01 27240   0.112E+01    0.146E+00
DAV:   2    -0.283825512236E+03   -0.84694E-01   -0.98217E-01 29856   0.254E+00    0.777E+00
DAV:   3    -0.283770655950E+03    0.54856E-01   -0.23991E-01 29280   0.165E+00    0.217E+00
DAV:   4    -0.283779310495E+03   -0.86545E-02   -0.60871E-02 32544   0.503E-01    0.957E-01
DAV:   5    -0.283781871719E+03   -0.25612E-02   -0.99607E-03 31416   0.323E-01    0.114E+00
DAV:   6    -0.283779989694E+03    0.18820E-02   -0.66913E-03 33696   0.244E-01    0.244E-01
DAV:   7    -0.283780877073E+03   -0.88738E-03   -0.11057E-02 34788   0.186E-01    0.104E+00
DAV:   8    -0.283780229807E+03    0.64727E-03   -0.10201E-03 29808   0.143E-01    0.772E-01
DAV:   9    -0.283779907835E+03    0.32197E-03   -0.19716E-03 36960   0.762E-02    0.271E-01
DAV:  10    -0.283780096822E+03   -0.18899E-03   -0.77236E-04 29976   0.426E-02    0.661E-02
DAV:  11    -0.283780165483E+03   -0.68661E-04   -0.10003E-04 20184   0.226E-02    0.162E-01
DAV:  12    -0.283780137065E+03    0.28418E-04   -0.74727E-05 20640   0.256E-02    0.612E-02
DAV:  13    -0.283780142310E+03   -0.52442E-05   -0.43967E-05 16464   0.108E-02
  37 F= -.28378014E+03 E0= -.28377687E+03  d E =-.787030E-02  mag=    18.0000
       N       E                     dE             d eps       ncg     rms          rms(c)
DAV:   1    -0.282170598501E+03    0.16095E+01   -0.14951E+02 27228   0.507E+01    0.883E+00
DAV:   2    -0.283453920344E+03   -0.12833E+01   -0.14774E+01 28920   0.117E+01    0.132E+01
DAV:   3    -0.283281296248E+03    0.17262E+00   -0.25125E+00 30924   0.610E+00    0.824E+00
DAV:   4    -0.283221456946E+03    0.59839E-01   -0.11394E+00 33252   0.312E+00    0.470E+00
DAV:   5    -0.283216571224E+03    0.48857E-02   -0.29427E-01 33516   0.165E+00    0.446E+00
DAV:   6    -0.283199064945E+03    0.17506E-01   -0.40604E-01 32940   0.181E+00    0.279E+00
DAV:   7    -0.283191593950E+03    0.74710E-02   -0.83865E-02 32868   0.970E-01    0.195E+00
DAV:   8    -0.283188026292E+03    0.35677E-02   -0.59806E-02 34236   0.654E-01    0.450E-01
DAV:   9    -0.283189297229E+03   -0.12709E-02   -0.37080E-03 32028   0.249E-01    0.404E-01
DAV:  10    -0.283189023099E+03    0.27413E-03   -0.21045E-03 36756   0.134E-01    0.164E-01
DAV:  11    -0.283189037225E+03   -0.14126E-04   -0.44708E-04 31932   0.691E-02    0.536E-02
DAV:  12    -0.283189067064E+03   -0.29839E-04   -0.22468E-04 30660   0.459E-02    0.132E-01
DAV:  13    -0.283189039930E+03    0.27134E-04   -0.16182E-04 28248   0.395E-02    0.220E-02
DAV:  14    -0.283189048280E+03   -0.83495E-05   -0.21097E-05 17004   0.129E-02
  38 F= -.28318905E+03 E0= -.28318517E+03  d E =0.591094E+00  mag=    18.0000
       N       E                     dE             d eps       ncg     rms          rms(c)
DAV:   1    -0.283684368720E+03   -0.49533E+00   -0.34798E+01 26136   0.164E+01    0.530E+00
DAV:   2    -0.283935606077E+03   -0.25124E+00   -0.33738E+00 31296   0.489E+00    0.110E+01
DAV:   3    -0.283782380582E+03    0.15323E+00   -0.10223E+00 30516   0.364E+00    0.264E+00
DAV:   4    -0.283792710933E+03   -0.10330E-01   -0.15002E-01 32280   0.138E+00    0.316E+00
DAV:   5    -0.283774201114E+03    0.18510E-01   -0.71420E-02 32352   0.115E+00    0.118E+00
DAV:   6    -0.283778400420E+03   -0.41993E-02   -0.82211E-02 36072   0.665E-01    0.266E+00
DAV:   7    -0.283771051947E+03    0.73485E-02   -0.37287E-02 34764   0.654E-01    0.613E-01
DAV:   8    -0.283773058319E+03   -0.20064E-02   -0.16441E-02 35040   0.247E-01    0.763E-01
DAV:   9    -0.283772643308E+03    0.41501E-03   -0.25629E-03 33204   0.192E-01    0.240E-01
DAV:  10    -0.283772684846E+03   -0.41538E-04   -0.77361E-04 31680   0.667E-02    0.823E-02
DAV:  11    -0.283772743672E+03   -0.58826E-04   -0.52704E-04 31560   0.547E-02    0.199E-01
DAV:  12    -0.283772707529E+03    0.36142E-04   -0.13259E-04 28308   0.420E-02    0.103E-01
DAV:  13    -0.283772708138E+03   -0.60815E-06   -0.14097E-04 20160   0.214E-02    0.339E-02
DAV:  14    -0.283772715107E+03   -0.69696E-05   -0.84497E-06 16488   0.120E-02
  39 F= -.28377272E+03 E0= -.28376952E+03  d E =-.583667E+00  mag=    18.0000
       N       E                     dE             d eps       ncg     rms          rms(c)
DAV:   1    -0.283778574098E+03   -0.58660E-02   -0.32042E-01 26808   0.224E+00    0.467E-01
DAV:   2    -0.283783477556E+03   -0.49035E-02   -0.54369E-02 29244   0.622E-01    0.213E+00
DAV:   3    -0.283779489331E+03    0.39882E-02   -0.18703E-02 30912   0.435E-01    0.338E-01
DAV:   4    -0.283780752416E+03   -0.12631E-02   -0.68235E-03 34584   0.132E-01    0.640E-01
DAV:   5    -0.283780462490E+03    0.28993E-03   -0.95364E-04 30792   0.135E-01    0.383E-01
DAV:   6    -0.283780374896E+03    0.87595E-04   -0.10168E-03 34296   0.641E-02    0.977E-02
DAV:   7    -0.283780456237E+03   -0.81341E-04   -0.52796E-04 33480   0.518E-02    0.204E-01
DAV:   8    -0.283780436237E+03    0.20000E-04   -0.43400E-05 26040   0.329E-02    0.165E-01
DAV:   9    -0.283780417209E+03    0.19028E-04   -0.67200E-05 17592   0.179E-02    0.728E-02
DAV:  10    -0.283780423104E+03   -0.58954E-05   -0.66976E-05 18612   0.118E-02
  40 F= -.28378042E+03 E0= -.28377724E+03  d E =-.770800E-02  mag=    18.0000
       N       E                     dE             d eps       ncg     rms          rms(c)
DAV:   1    -0.283750362220E+03    0.30055E-01   -0.75402E+00 26772   0.117E+01    0.214E+00
DAV:   2    -0.283856428973E+03   -0.10607E+00   -0.12560E+00 29016   0.308E+00    0.795E+00
DAV:   3    -0.283792065288E+03    0.64364E-01   -0.32960E-01 31452   0.202E+00    0.109E+00
DAV:   4    -0.283807119806E+03   -0.15055E-01   -0.77684E-02 35412   0.568E-01    0.194E+00
DAV:   5    -0.283803426697E+03    0.36931E-02   -0.11519E-02 31116   0.513E-01    0.121E+00
DAV:   6    -0.283802075570E+03    0.13511E-02   -0.17368E-02 36528   0.278E-01    0.445E-01
DAV:   7    -0.283803078049E+03   -0.10025E-02   -0.46421E-03 34692   0.192E-01    0.908E-01
DAV:   8    -0.283802414730E+03    0.66332E-03   -0.17627E-03 31944   0.138E-01    0.637E-01
DAV:   9    -0.283802211566E+03    0.20316E-03   -0.17498E-03 37500   0.819E-02    0.184E-01
DAV:  10    -0.283802367523E+03   -0.15596E-03   -0.58366E-04 30732   0.446E-02    0.108E-01
DAV:  11    -0.283802395048E+03   -0.27525E-04   -0.48228E-05 20892   0.272E-02    0.135E-01
DAV:  12    -0.283802373750E+03    0.21298E-04   -0.14261E-04 22176   0.281E-02    0.914E-03
DAV:  13    -0.283802382050E+03   -0.83005E-05   -0.14219E-05 16440   0.126E-02
  41 F= -.28380238E+03 E0= -.28379940E+03  d E =-.219589E-01  mag=    18.0000
       N       E                     dE             d eps       ncg     rms          rms(c)
DAV:   1    -0.283802134649E+03    0.23910E-03   -0.21484E-01 26736   0.181E+00    0.346E-01
DAV:   2    -0.283804596669E+03   -0.24620E-02   -0.26049E-02 28812   0.464E-01    0.128E+00
DAV:   3    -0.283803057427E+03    0.15392E-02   -0.78693E-03 31164   0.299E-01    0.173E-01
DAV:   4    -0.283803534314E+03   -0.47689E-03   -0.24585E-03 33972   0.110E-01    0.444E-01
DAV:   5    -0.283803418265E+03    0.11605E-03   -0.81483E-04 31548   0.973E-02    0.363E-01
DAV:   6    -0.283803298941E+03    0.11932E-03   -0.86632E-04 28752   0.633E-02    0.409E-02
DAV:   7    -0.283803368313E+03   -0.69372E-04   -0.29197E-04 30228   0.334E-02    0.163E-01
DAV:   8    -0.283803352158E+03    0.16155E-04   -0.34549E-05 19164   0.249E-02    0.130E-01
DAV:   9    -0.283803340341E+03    0.11817E-04   -0.51924E-05 17280   0.147E-02    0.507E-02
DAV:  10    -0.283803344662E+03   -0.43209E-05   -0.27071E-05 16416   0.959E-03
  42 F= -.28380334E+03 E0= -.28380036E+03  d E =-.962611E-03  mag=    18.0000
       N       E                     dE             d eps       ncg     rms          rms(c)
DAV:   1    -0.283801659014E+03    0.16813E-02   -0.30139E-01 27060   0.250E+00    0.367E-01
DAV:   2    -0.283805846249E+03   -0.41872E-02   -0.44437E-02 28656   0.592E-01    0.168E+00
DAV:   3    -0.283803554835E+03    0.22914E-02   -0.12662E-02 31128   0.364E-01    0.213E-01
DAV:   4    -0.283804289414E+03   -0.73458E-03   -0.25221E-03 34344   0.910E-02    0.382E-01
DAV:   5    -0.283804180974E+03    0.10844E-03   -0.43179E-04 30624   0.887E-02    0.213E-01
DAV:   6    -0.283804155343E+03    0.25631E-04   -0.58898E-04 27888   0.488E-02    0.892E-02
DAV:   7    -0.283804199098E+03   -0.43755E-04   -0.25180E-04 31224   0.411E-02    0.216E-01
DAV:   8    -0.283804160409E+03    0.38689E-04   -0.47239E-05 21036   0.294E-02    0.143E-01
DAV:   9    -0.283804151646E+03    0.87625E-05   -0.67097E-05 17076   0.154E-02
  43 F= -.28380415E+03 E0= -.28380117E+03  d E =-.806985E-03  mag=    18.0000
       N       E                     dE             d eps       ncg     rms          rms(c)
DAV:   1    -0.283766366939E+03    0.37793E-01   -0.40772E+00 27204   0.960E+00    0.109E+00
DAV:   2    -0.283814362318E+03   -0.47995E-01   -0.51131E-01 28164   0.201E+00    0.381E+00
DAV:   3    -0.283803454724E+03    0.10908E-01   -0.90346E-02 31608   0.959E-01    0.512E-01
DAV:   4    -0.283807039350E+03   -0.35846E-02   -0.84963E-03 34932   0.267E-01    0.790E-01
DAV:   5    -0.283806111296E+03    0.92805E-03   -0.41317E-03 33888   0.234E-01    0.293E-01
DAV:   6    -0.283806598781E+03   -0.48749E-03   -0.80235E-03 38628   0.183E-01    0.874E-01
DAV:   7    -0.283806111959E+03    0.48682E-03   -0.18600E-03 34848   0.162E-01    0.630E-01
DAV:   8    -0.283805849807E+03    0.26215E-03   -0.13270E-03 35820   0.891E-02    0.192E-01
DAV:   9    -0.283805990542E+03   -0.14074E-03   -0.63663E-04 34524   0.427E-02    0.103E-01
DAV:  10    -0.283806015811E+03   -0.25268E-04   -0.39271E-05 20604   0.268E-02    0.114E-01
DAV:  11    -0.283806001335E+03    0.14475E-04   -0.85871E-05 21444   0.230E-02    0.144E-02
DAV:  12    -0.283806008033E+03   -0.66978E-05   -0.26387E-05 17052   0.955E-03
  44 F= -.28380601E+03 E0= -.28380303E+03  d E =-.185639E-02  mag=    18.0000
       N       E                     dE             d eps       ncg     rms          rms(c)
DAV:   1    -0.283789412880E+03    0.16588E-01   -0.17807E+00 27012   0.602E+00    0.739E-01
DAV:   2    -0.283805854554E+03   -0.16442E-01   -0.17221E-01 28248   0.119E+00    0.166E+00
DAV:   3    -0.283804563726E+03    0.12908E-02   -0.33608E-02 31452   0.547E-01    0.834E-01
DAV:   4    -0.283804640033E+03   -0.76307E-04   -0.21948E-03 34296   0.232E-01    0.454E-01
DAV:   5    -0.283804399232E+03    0.24080E-03   -0.22572E-03 35028   0.136E-01    0.236E-01
DAV:   6    -0.283804571652E+03   -0.17242E-03   -0.25902E-03 37788   0.114E-01    0.539E-01
DAV:   7    -0.283804294058E+03    0.27759E-03   -0.74039E-04 31584   0.934E-02    0.231E-01
DAV:   8    -0.283804316027E+03   -0.21969E-04   -0.52221E-04 32784   0.365E-02    0.460E-02
DAV:   9    -0.283804348086E+03   -0.32058E-04   -0.33683E-05 19464   0.238E-02    0.680E-02
DAV:  10    -0.283804342945E+03    0.51408E-05   -0.19487E-05 16488   0.142E-02
  45 F= -.28380434E+03 E0= -.28380146E+03  d E =0.166509E-02  mag=    18.0000
       N       E                     dE             d eps       ncg     rms          rms(c)
DAV:   1    -0.283798265455E+03    0.60826E-02   -0.93947E-01 26784   0.377E+00    0.603E-01
DAV:   2    -0.283804149265E+03   -0.58838E-02   -0.62773E-02 28884   0.726E-01    0.596E-01
DAV:   3    -0.283804979636E+03   -0.83037E-03   -0.17784E-02 33204   0.357E-01    0.123E+00
DAV:   4    -0.283803442827E+03    0.15368E-02   -0.49220E-03 31860   0.265E-01    0.297E-01
DAV:   5    -0.283803831755E+03   -0.38893E-03   -0.45547E-03 33984   0.128E-01    0.570E-01
DAV:   6    -0.283803768524E+03    0.63231E-04   -0.86827E-04 31212   0.103E-01    0.559E-01
DAV:   7    -0.283803520849E+03    0.24768E-03   -0.74123E-04 29028   0.628E-02    0.236E-01
DAV:   8    -0.283803574414E+03   -0.53564E-04   -0.46682E-04 28320   0.308E-02    0.326E-02
DAV:   9    -0.283803611167E+03   -0.36753E-04   -0.50035E-05 18912   0.214E-02    0.692E-02
DAV:  10    -0.283803606369E+03    0.47982E-05   -0.23773E-05 16764   0.174E-02
  46 F= -.28380361E+03 E0= -.28380069E+03  d E =0.736576E-03  mag=    18.0000
       N       E                     dE             d eps       ncg     rms          rms(c)
DAV:   1    -0.283806791380E+03   -0.31802E-02   -0.20468E-01 26772   0.131E+00    0.287E-01
DAV:   2    -0.283807609777E+03   -0.81840E-03   -0.94800E-03 30780   0.265E-01    0.540E-01
DAV:   3    -0.283807435698E+03    0.17408E-03   -0.38721E-03 31428   0.174E-01    0.328E-01
DAV:   4    -0.283807354154E+03    0.81543E-04   -0.30924E-04 29688   0.862E-02    0.174E-01
DAV:   5    -0.283807329633E+03    0.24522E-04   -0.50042E-04 31152   0.576E-02    0.991E-02
DAV:   6    -0.283807342787E+03   -0.13154E-04   -0.21375E-04 27636   0.402E-02    0.159E-01
DAV:   7    -0.283807318880E+03    0.23907E-04   -0.69649E-05 23616   0.287E-02    0.655E-02
DAV:   8    -0.283807321232E+03   -0.23525E-05   -0.42534E-05 16656   0.110E-02
  47 F= -.28380732E+03 E0= -.28380445E+03  d E =-.371486E-02  mag=    18.0000
       N       E                     dE             d eps       ncg     rms          rms(c)
DAV:   1    -0.283806268727E+03    0.10502E-02   -0.13730E+00 26436   0.370E+00    0.498E-01
DAV:   2    -0.283813717543E+03   -0.74488E-02   -0.81218E-02 29532   0.782E-01    0.223E+00
DAV:   3    -0.283809751544E+03    0.39660E-02   -0.23561E-02 30312   0.480E-01    0.257E-01
DAV:   4    -0.283810954772E+03   -0.12032E-02   -0.47230E-03 31836   0.119E-01    0.505E-01
DAV:   5    -0.283810715056E+03    0.23972E-03   -0.11724E-03 31296   0.128E-01    0.217E-01
DAV:   6    -0.283810719414E+03   -0.43576E-05   -0.92943E-04 34800   0.692E-02    0.191E-01
DAV:   7    -0.283810738706E+03   -0.19292E-04   -0.33364E-04 31524   0.581E-02    0.253E-01
DAV:   8    -0.283810682959E+03    0.55747E-04   -0.14141E-04 28776   0.363E-02    0.132E-01
DAV:   9    -0.283810684424E+03   -0.14648E-05   -0.10167E-04 18420   0.186E-02    0.195E-02
DAV:  10    -0.283810694753E+03   -0.10329E-04   -0.30035E-05 16704   0.960E-03    0.429E-02
DAV:  11    -0.283810694228E+03    0.52527E-06   -0.18796E-06 15552   0.691E-03
  48 F= -.28381069E+03 E0= -.28380792E+03  d E =-.337300E-02  mag=    18.0000
       N       E                     dE             d eps       ncg     rms          rms(c)
DAV:   1    -0.283758387654E+03    0.52307E-01   -0.15147E+01 26532   0.124E+01    0.159E+00
DAV:   2    -0.283844370055E+03   -0.85982E-01   -0.96380E-01 29268   0.264E+00    0.716E+00
DAV:   3    -0.283801189464E+03    0.43181E-01   -0.25831E-01 29892   0.163E+00    0.909E-01
DAV:   4    -0.283812519916E+03   -0.11330E-01   -0.40565E-02 31200   0.415E-01    0.139E+00
DAV:   5    -0.283811228063E+03    0.12919E-02   -0.64380E-03 31752   0.371E-01    0.943E-01
DAV:   6    -0.283810002972E+03    0.12251E-02   -0.95253E-03 35040   0.236E-01    0.265E-01
DAV:   7    -0.283810601535E+03   -0.59856E-03   -0.49496E-03 31248   0.167E-01    0.809E-01
DAV:   8    -0.283810156050E+03    0.44549E-03   -0.98203E-04 32544   0.120E-01    0.609E-01
DAV:   9    -0.283809918458E+03    0.23759E-03   -0.14637E-03 36180   0.777E-02    0.168E-01
DAV:  10    -0.283810061508E+03   -0.14305E-03   -0.59142E-04 30276   0.398E-02    0.121E-01
DAV:  11    -0.283810081127E+03   -0.19619E-04   -0.50028E-05 20616   0.268E-02    0.137E-01
DAV:  12    -0.283810058983E+03    0.22144E-04   -0.10443E-04 21636   0.260E-02    0.259E-02
DAV:  13    -0.283810066178E+03   -0.71944E-05   -0.21953E-05 16428   0.101E-02
  49 F= -.28381007E+03 E0= -.28380756E+03  d E =0.628050E-03  mag=    18.0000
       N       E                     dE             d eps       ncg     rms          rms(c)
DAV:   1    -0.276142812134E+03    0.76672E+01   -0.40948E+02 28080   0.531E+01    0.240E+01
DAV:   2    -0.278092608437E+03   -0.19498E+01   -0.24915E+01 31080   0.120E+01    0.123E+01
DAV:   3    -0.278071682375E+03    0.20926E-01   -0.94693E+00 32124   0.991E+00    0.189E+01
DAV:   4    -0.277682553089E+03    0.38913E+00   -0.38248E+00 31920   0.637E+00    0.147E+01
DAV:   5    -0.277493707205E+03    0.18885E+00   -0.20271E+00 34656   0.311E+00    0.392E+00
DAV:   6    -0.277503253355E+03   -0.95461E-02   -0.18746E-01 31248   0.168E+00    0.277E+00
DAV:   7    -0.277494338861E+03    0.89145E-02   -0.12566E-01 34920   0.125E+00    0.287E+00
DAV:   8    -0.277482584450E+03    0.11754E-01   -0.55383E-02 35400   0.833E-01    0.901E-01
DAV:   9    -0.277484037399E+03   -0.14529E-02   -0.15141E-02 32724   0.368E-01    0.487E-01
DAV:  10    -0.277484591200E+03   -0.55380E-03   -0.73561E-03 33360   0.220E-01    0.681E-01
DAV:  11    -0.277484211486E+03    0.37971E-03   -0.28943E-03 33084   0.187E-01    0.799E-02
DAV:  12    -0.277484405218E+03   -0.19373E-03   -0.46565E-04 30780   0.574E-02    0.116E-01
DAV:  13    -0.277484404633E+03    0.58545E-06   -0.68787E-05 29712   0.326E-02
  50 F= -.27748440E+03 E0= -.27748014E+03  d E =0.632566E+01  mag=    18.0000
       N       E                     dE             d eps       ncg     rms          rms(c)
DAV:   1    -0.281695888809E+03   -0.42115E+01   -0.27715E+02 25920   0.346E+01    0.108E+01
DAV:   2    -0.282478849709E+03   -0.78296E+00   -0.12185E+01 31356   0.783E+00    0.103E+01
DAV:   3    -0.282425941117E+03    0.52909E-01   -0.23183E+00 31044   0.448E+00    0.114E+01
DAV:   4    -0.282261752600E+03    0.16419E+00   -0.60014E-01 34152   0.305E+00    0.678E+00
DAV:   5    -0.282332594049E+03   -0.70841E-01   -0.16777E+00 33528   0.342E+00    0.139E+01
DAV:   6    -0.282140322710E+03    0.19227E+00   -0.11839E+00 32460   0.344E+00    0.687E+00
DAV:   7    -0.282143158926E+03   -0.28362E-02   -0.54904E-01 32340   0.220E+00    0.208E+00
DAV:   8    -0.282159176332E+03   -0.16017E-01   -0.19100E-01 33864   0.864E-01    0.337E+00
DAV:   9    -0.282145671264E+03    0.13505E-01   -0.32500E-02 31944   0.695E-01    0.161E+00
DAV:  10    -0.282144993339E+03    0.67792E-03   -0.27015E-02 37680   0.294E-01    0.391E-01
DAV:  11    -0.282146506956E+03   -0.15136E-02   -0.23056E-03 29724   0.188E-01    0.576E-01
DAV:  12    -0.282146180949E+03    0.32601E-03   -0.39974E-03 37308   0.148E-01    0.168E-01
DAV:  13    -0.282146344156E+03   -0.16321E-03   -0.38200E-04 29004   0.549E-02    0.298E-01
DAV:  14    -0.282146248743E+03    0.95413E-04   -0.27227E-04 34512   0.467E-02    0.116E-01
DAV:  15    -0.282146277504E+03   -0.28761E-04   -0.36197E-04 29652   0.302E-02    0.110E-01
DAV:  16    -0.282146280022E+03   -0.25181E-05   -0.17853E-05 19380   0.216E-02
  51 F= -.28214628E+03 E0= -.28214264E+03  d E =-.466188E+01  mag=    18.0000
       N       E                     dE             d eps       ncg     rms          rms(c)
DAV:   1    -0.282681427674E+03   -0.53515E+00   -0.99453E+00 27216   0.882E+00    0.231E+00
DAV:   2    -0.282750968649E+03   -0.69541E-01   -0.87135E-01 31512   0.235E+00    0.671E+00
DAV:   3    -0.282707940255E+03    0.43028E-01   -0.29926E-01 31008   0.169E+00    0.120E+00
DAV:   4    -0.282716253435E+03   -0.83132E-02   -0.38647E-02 31716   0.582E-01    0.211E+00
DAV:   5    -0.282710470197E+03    0.57832E-02   -0.26880E-02 32868   0.641E-01    0.104E+00
DAV:   6    -0.282712313824E+03   -0.18436E-02   -0.46443E-02 35784   0.466E-01    0.177E+00
DAV:   7    -0.282709743329E+03    0.25705E-02   -0.68914E-03 33696   0.338E-01    0.873E-01
DAV:   8    -0.282709677536E+03    0.65793E-04   -0.53655E-03 35640   0.127E-01    0.134E-01
DAV:   9    -0.282710097254E+03   -0.41972E-03   -0.95447E-04 32412   0.652E-02    0.216E-01
DAV:  10    -0.282710103438E+03   -0.61843E-05   -0.74100E-05 28680   0.378E-02
  52 F= -.28271010E+03 E0= -.28270716E+03  d E =-.563823E+00  mag=    18.0000
       N       E                     dE             d eps       ncg     rms          rms(c)
DAV:   1    -0.283351527972E+03   -0.64143E+00   -0.42896E+01 27216   0.172E+01    0.476E+00
DAV:   2    -0.283568171081E+03   -0.21664E+00   -0.26918E+00 30816   0.413E+00    0.926E+00
DAV:   3    -0.283502806690E+03    0.65364E-01   -0.11594E+00 31704   0.310E+00    0.438E+00
DAV:   4    -0.283492246041E+03    0.10561E-01   -0.42588E-02 30444   0.111E+00    0.260E+00
DAV:   5    -0.283486659113E+03    0.55869E-02   -0.22852E-01 34524   0.107E+00    0.333E+00
DAV:   6    -0.283481041532E+03    0.56176E-02   -0.46910E-02 31344   0.846E-01    0.271E+00
DAV:   7    -0.283476001990E+03    0.50395E-02   -0.23865E-02 32112   0.390E-01    0.115E+00
DAV:   8    -0.283477112254E+03   -0.11103E-02   -0.10787E-02 35208   0.219E-01    0.319E-01
DAV:   9    -0.283477947215E+03   -0.83496E-03   -0.23704E-03 30444   0.110E-01    0.194E-01
DAV:  10    -0.283478115972E+03   -0.16876E-03   -0.56386E-04 31980   0.657E-02    0.362E-01
DAV:  11    -0.283477970493E+03    0.14548E-03   -0.69407E-04 34368   0.748E-02    0.783E-02
DAV:  12    -0.283478014339E+03   -0.43847E-04   -0.18292E-04 28704   0.281E-02    0.571E-02
DAV:  13    -0.283478017158E+03   -0.28184E-05   -0.14917E-05 19260   0.195E-02
  53 F= -.28347802E+03 E0= -.28347555E+03  d E =-.767914E+00  mag=    18.0000
       N       E                     dE             d eps       ncg     rms          rms(c)
DAV:   1    -0.283637579147E+03   -0.15956E+00   -0.53079E+00 27216   0.579E+00    0.156E+00
DAV:   2    -0.283651351820E+03   -0.13773E-01   -0.18046E-01 31428   0.103E+00    0.635E-01
DAV:   3    -0.283653125679E+03   -0.17739E-02   -0.46263E-02 32544   0.607E-01    0.213E+00
DAV:   4    -0.283648165834E+03    0.49598E-02   -0.20737E-02 32940   0.492E-01    0.335E-01
DAV:   5    -0.283649127919E+03   -0.96208E-03   -0.93102E-03 31512   0.179E-01    0.830E-01
DAV:   6    -0.283648469209E+03    0.65871E-03   -0.25773E-03 31632   0.183E-01    0.252E-01
DAV:   7    -0.283648568517E+03   -0.99308E-04   -0.15489E-03 35760   0.734E-02    0.166E-01
DAV:   8    -0.283648608222E+03   -0.39705E-04   -0.16188E-04 29580   0.499E-02    0.180E-01
DAV:   9    -0.283648576103E+03    0.32119E-04   -0.63109E-05 20904   0.270E-02    0.946E-02
DAV:  10    -0.283648573768E+03    0.23353E-05   -0.91137E-05 27228   0.227E-02
  54 F= -.28364857E+03 E0= -.28364617E+03  d E =-.170557E+00  mag=    18.0000
       N       E                     dE             d eps       ncg     rms          rms(c)
DAV:   1    -0.283764809177E+03   -0.11623E+00   -0.32502E+01 26784   0.137E+01    0.431E+00
DAV:   2    -0.283838448727E+03   -0.73640E-01   -0.10412E+00 31308   0.257E+00    0.285E+00
DAV:   3    -0.283876864981E+03   -0.38416E-01   -0.83693E-01 35640   0.229E+00    0.839E+00
DAV:   4    -0.283804988760E+03    0.71876E-01   -0.30887E-01 31788   0.179E+00    0.126E+00
DAV:   5    -0.283820248741E+03   -0.15260E-01   -0.71251E-02 32568   0.590E-01    0.175E+00
DAV:   6    -0.283819441296E+03    0.80745E-03   -0.87383E-03 30912   0.401E-01    0.161E+00
DAV:   7    -0.283816298149E+03    0.31431E-02   -0.71136E-03 34560   0.260E-01    0.741E-01
DAV:   8    -0.283816513896E+03   -0.21575E-03   -0.67388E-03 37080   0.160E-01    0.303E-01
DAV:   9    -0.283816806516E+03   -0.29262E-03   -0.70683E-04 30228   0.993E-02    0.344E-01
DAV:  10    -0.283816674913E+03    0.13160E-03   -0.83660E-04 36360   0.758E-02    0.889E-02
DAV:  11    -0.283816706745E+03   -0.31832E-04   -0.14608E-04 31188   0.388E-02    0.403E-02
DAV:  12    -0.283816710314E+03   -0.35687E-05   -0.13697E-05 18576   0.179E-02
  55 F= -.28381671E+03 E0= -.28381425E+03  d E =-.168137E+00  mag=    18.0000
       N       E                     dE             d eps       ncg     rms          rms(c)
DAV:   1    -0.283822499468E+03   -0.57927E-02   -0.22678E-01 29952   0.224E+00    0.389E-01
DAV:   2    -0.283824982890E+03   -0.24834E-02   -0.25714E-02 30480   0.422E-01    0.357E-01
DAV:   3    -0.283825338690E+03   -0.35580E-03   -0.62758E-03 32196   0.230E-01    0.777E-01
DAV:   4    -0.283824756015E+03    0.58268E-03   -0.25294E-03 31056   0.171E-01    0.115E-01
DAV:   5    -0.283824876820E+03   -0.12081E-03   -0.62486E-04 31800   0.650E-02    0.205E-01
DAV:   6    -0.283824841222E+03    0.35598E-04   -0.16823E-04 30576   0.548E-02    0.132E-01
DAV:   7    -0.283824827290E+03    0.13932E-04   -0.17958E-04 24780   0.333E-02    0.281E-02
DAV:   8    -0.283824834481E+03   -0.71910E-05   -0.20286E-05 19296   0.185E-02
  56 F= -.28382483E+03 E0= -.28382231E+03  d E =-.812417E-02  mag=    18.0000
       N       E                     dE             d eps       ncg     rms          rms(c)
DAV:   1    -0.283821735716E+03    0.30916E-02   -0.63620E-01 29616   0.421E+00    0.622E-01
DAV:   2    -0.283830373393E+03   -0.86377E-02   -0.85107E-02 30132   0.757E-01    0.679E-01
DAV:   3    -0.283831369347E+03   -0.99595E-03   -0.18862E-02 31764   0.397E-01    0.123E+00
DAV:   4    -0.283830084407E+03    0.12849E-02   -0.60313E-03 31164   0.267E-01    0.199E-01
DAV:   5    -0.283830382793E+03   -0.29839E-03   -0.13864E-03 32544   0.831E-02    0.279E-01
DAV:   6    -0.283830319779E+03    0.63014E-04   -0.30791E-04 32124   0.779E-02    0.144E-01
DAV:   7    -0.283830313771E+03    0.60082E-05   -0.39624E-04 32472   0.487E-02    0.819E-02
DAV:   8    -0.283830316640E+03   -0.28692E-05   -0.45498E-05 22992   0.303E-02
  57 F= -.28383032E+03 E0= -.28382773E+03  d E =-.548216E-02  mag=    18.0000
       N       E                     dE             d eps       ncg     rms          rms(c)
DAV:   1    -0.283818787610E+03    0.11526E-01   -0.79246E-01 31608   0.544E+00    0.646E-01
DAV:   2    -0.283834273966E+03   -0.15486E-01   -0.14825E-01 29208   0.973E-01    0.154E+00
DAV:   3    -0.283833390860E+03    0.88311E-03   -0.28327E-02 30168   0.508E-01    0.669E-01
DAV:   4    -0.283833785181E+03   -0.39432E-03   -0.12583E-03 31512   0.191E-01    0.330E-01
DAV:   5    -0.283833663298E+03    0.12188E-03   -0.15975E-03 34524   0.878E-02    0.158E-01
DAV:   6    -0.283833680617E+03   -0.17318E-04   -0.19658E-04 31380   0.641E-02    0.157E-01
DAV:   7    -0.283833658137E+03    0.22480E-04   -0.17311E-04 28164   0.456E-02    0.781E-02
DAV:   8    -0.283833660144E+03   -0.20077E-05   -0.85255E-05 21312   0.281E-02
  58 F= -.28383366E+03 E0= -.28383119E+03  d E =-.334350E-02  mag=    18.0000
       N       E                     dE             d eps       ncg     rms          rms(c)
DAV:   1    -0.283798791927E+03    0.34866E-01   -0.38559E+00 28512   0.948E+00    0.123E+00
DAV:   2    -0.283853294611E+03   -0.54503E-01   -0.55607E-01 29196   0.198E+00    0.535E+00
DAV:   3    -0.283832025577E+03    0.21269E-01   -0.13756E-01 29424   0.121E+00    0.623E-01
DAV:   4    -0.283838850743E+03   -0.68252E-02   -0.19310E-02 30852   0.275E-01    0.861E-01
DAV:   5    -0.283838339609E+03    0.51113E-03   -0.40558E-03 30720   0.250E-01    0.429E-01
DAV:   6    -0.283838161295E+03    0.17831E-03   -0.22289E-03 35268   0.127E-01    0.235E-01
DAV:   7    -0.283838261358E+03   -0.10006E-03   -0.80853E-04 33192   0.925E-02    0.437E-01
DAV:   8    -0.283838109005E+03    0.15235E-03   -0.33213E-04 34740   0.761E-02    0.271E-01
DAV:   9    -0.283838081677E+03    0.27329E-04   -0.43216E-04 34428   0.436E-02    0.466E-02
DAV:  10    -0.283838113001E+03   -0.31324E-04   -0.84685E-05 18804   0.185E-02    0.478E-02
DAV:  11    -0.283838112320E+03    0.68042E-06   -0.19053E-05 17112   0.177E-02
  59 F= -.28383811E+03 E0= -.28383569E+03  d E =-.445218E-02  mag=    18.0000
       N       E                     dE             d eps       ncg     rms          rms(c)
DAV:   1    -0.283736953277E+03    0.10116E+00   -0.18941E+01 26784   0.158E+01    0.203E+00
DAV:   2    -0.283842732174E+03   -0.10578E+00   -0.11195E+00 28896   0.309E+00    0.511E+00
DAV:   3    -0.283827201805E+03    0.15530E-01   -0.26797E-01 30804   0.156E+00    0.155E+00
DAV:   4    -0.283829868105E+03   -0.26663E-02   -0.12349E-02 29700   0.540E-01    0.109E+00
DAV:   5    -0.283827290812E+03    0.25773E-02   -0.16822E-02 34488   0.361E-01    0.371E-01
DAV:   6    -0.283827490757E+03   -0.19995E-03   -0.39061E-03 30684   0.197E-01    0.677E-01
DAV:   7    -0.283827063215E+03    0.42754E-03   -0.20520E-03 34488   0.154E-01    0.321E-01
DAV:   8    -0.283827063336E+03   -0.12032E-06   -0.13058E-03 35724   0.920E-02    0.623E-02
DAV:   9    -0.283827103629E+03   -0.40293E-04   -0.10959E-04 28956   0.397E-02    0.530E-02
DAV:  10    -0.283827098502E+03    0.51275E-05   -0.38472E-05 25644   0.231E-02
  60 F= -.28382710E+03 E0= -.28382518E+03  d E =0.110138E-01  mag=    18.0000
       N       E                     dE             d eps       ncg     rms          rms(c)
DAV:   1    -0.283820588973E+03    0.65147E-02   -0.32845E+00 26784   0.712E+00    0.113E+00
DAV:   2    -0.283842279578E+03   -0.21691E-01   -0.23021E-01 30468   0.143E+00    0.160E+00
DAV:   3    -0.283842682390E+03   -0.40281E-03   -0.52828E-02 31356   0.742E-01    0.147E+00
DAV:   4    -0.283840310603E+03    0.23718E-02   -0.83307E-03 31836   0.396E-01    0.473E-01
DAV:   5    -0.283840345378E+03   -0.34775E-04   -0.55808E-03 34836   0.230E-01    0.540E-01
DAV:   6    -0.283840225538E+03    0.11984E-03   -0.18714E-03 32868   0.159E-01    0.445E-01
DAV:   7    -0.283840025934E+03    0.19960E-03   -0.10814E-03 35856   0.968E-02    0.866E-02
DAV:   8    -0.283840091551E+03   -0.65617E-04   -0.25974E-04 33084   0.379E-02    0.704E-02
DAV:   9    -0.283840093035E+03   -0.14842E-05   -0.31402E-05 20880   0.249E-02
  61 F= -.28384009E+03 E0= -.28383810E+03  d E =-.129945E-01  mag=    18.0000
       N       E                     dE             d eps       ncg     rms          rms(c)
DAV:   1    -0.283837681334E+03    0.24102E-02   -0.25084E+00 27984   0.645E+00    0.102E+00
DAV:   2    -0.283854022396E+03   -0.16341E-01   -0.17327E-01 29844   0.125E+00    0.839E-01
DAV:   3    -0.283855501291E+03   -0.14789E-02   -0.27415E-02 32352   0.595E-01    0.143E+00
DAV:   4    -0.283853196458E+03    0.23048E-02   -0.13234E-02 32436   0.415E-01    0.437E-01
DAV:   5    -0.283853194983E+03    0.14750E-05   -0.21005E-03 32868   0.188E-01    0.224E-01
DAV:   6    -0.283853111749E+03    0.83234E-04   -0.89543E-04 35244   0.126E-01    0.168E-01
DAV:   7    -0.283853089553E+03    0.22196E-04   -0.41475E-04 33408   0.848E-02    0.687E-02
DAV:   8    -0.283853090452E+03   -0.89857E-06   -0.93255E-05 29364   0.316E-02
  62 F= -.28385309E+03 E0= -.28385089E+03  d E =-.129974E-01  mag=    18.0000
       N       E                     dE             d eps       ncg     rms          rms(c)
DAV:   1    -0.283788069151E+03    0.65020E-01   -0.14797E+01 26748   0.140E+01    0.135E+00
DAV:   2    -0.283865108160E+03   -0.77039E-01   -0.79670E-01 28260   0.265E+00    0.360E+00
DAV:   3    -0.283858643777E+03    0.64644E-02   -0.11711E-01 31632   0.114E+00    0.108E+00
DAV:   4    -0.283859824425E+03   -0.11806E-02   -0.62672E-03 30864   0.384E-01    0.661E-01
DAV:   5    -0.283858791616E+03    0.10328E-02   -0.74748E-03 34704   0.259E-01    0.383E-01
DAV:   6    -0.283858939321E+03   -0.14771E-03   -0.31588E-03 33336   0.201E-01    0.702E-01
DAV:   7    -0.283858452036E+03    0.48729E-03   -0.14485E-03 33912   0.148E-01    0.308E-01
DAV:   8    -0.283858474987E+03   -0.22951E-04   -0.72496E-04 36264   0.589E-02    0.469E-02
DAV:   9    -0.283858518115E+03   -0.43128E-04   -0.77005E-05 27600   0.331E-02    0.352E-02
DAV:  10    -0.283858517349E+03    0.76629E-06   -0.19126E-05 18720   0.178E-02
  63 F= -.28385852E+03 E0= -.28385644E+03  d E =-.542690E-02  mag=    18.0000
       N       E                     dE             d eps       ncg     rms          rms(c)
DAV:   1    -0.276650081967E+03    0.72084E+01   -0.43809E+02 27624   0.652E+01    0.275E+01
DAV:   2    -0.278744381604E+03   -0.20943E+01   -0.29025E+01 31380   0.152E+01    0.149E+01
DAV:   3    -0.278606552838E+03    0.13783E+00   -0.88012E+00 32616   0.119E+01    0.203E+01
DAV:   4    -0.278247785512E+03    0.35877E+00   -0.45194E+00 32172   0.696E+00    0.712E+00
DAV:   5    -0.278182752582E+03    0.65033E-01   -0.44691E-01 32568   0.317E+00    0.377E+00
DAV:   6    -0.278171020665E+03    0.11732E-01   -0.67982E-01 34992   0.192E+00    0.627E+00
DAV:   7    -0.278131626613E+03    0.39394E-01   -0.58016E-01 33840   0.205E+00    0.213E+00
DAV:   8    -0.278135015448E+03   -0.33888E-02   -0.69088E-02 33660   0.103E+00    0.611E-01
DAV:   9    -0.278135257356E+03   -0.24191E-03   -0.15545E-02 34176   0.455E-01    0.343E-01
DAV:  10    -0.278135222954E+03    0.34402E-04   -0.29703E-03 32400   0.202E-01    0.139E-01
DAV:  11    -0.278135260058E+03   -0.37104E-04   -0.64545E-04 33360   0.891E-02    0.806E-02
DAV:  12    -0.278135289349E+03   -0.29290E-04   -0.12187E-04 31356   0.395E-02    0.393E-02
DAV:  13    -0.278135301315E+03   -0.11966E-04   -0.26695E-05 22452   0.180E-02    0.186E-02
DAV:  14    -0.278135308326E+03   -0.70108E-05   -0.13293E-05 17748   0.117E-02
  64 F= -.27813531E+03 E0= -.27813486E+03  d E =0.572321E+01  mag=    18.0000
       N       E                     dE             d eps       ncg     rms          rms(c)
DAV:   1    -0.282476267048E+03   -0.43410E+01   -0.34941E+02 25932   0.450E+01    0.128E+01
DAV:   2    -0.283950625527E+03   -0.14744E+01   -0.20215E+01 31320   0.112E+01    0.176E+01
DAV:   3    -0.283834472119E+03    0.11615E+00   -0.76835E+00 32652   0.637E+00    0.117E+01
DAV:   4    -0.283668031336E+03    0.16644E+00   -0.58649E-01 32016   0.342E+00    0.723E+00
DAV:   5    -0.283553190884E+03    0.11484E+00   -0.45519E-01 33432   0.282E+00    0.621E+00
DAV:   6    -0.283746957616E+03   -0.19377E+00   -0.32001E+00 36264   0.359E+00    0.152E+01
DAV:   7    -0.283462140934E+03    0.28482E+00   -0.56858E-01 33888   0.285E+00    0.709E+00
DAV:   8    -0.283471459857E+03   -0.93189E-02   -0.40522E-01 35676   0.125E+00    0.159E+00
DAV:   9    -0.283496120890E+03   -0.24661E-01   -0.39952E-02 33648   0.895E-01    0.172E+00
DAV:  10    -0.283494692338E+03    0.14286E-02   -0.11713E-02 32604   0.410E-01    0.139E+00
DAV:  11    -0.283492057070E+03    0.26353E-02   -0.60175E-03 34260   0.278E-01    0.679E-01
DAV:  12    -0.283491990392E+03    0.66678E-04   -0.29243E-03 36096   0.163E-01    0.165E-01
DAV:  13    -0.283492200817E+03   -0.21043E-03   -0.80741E-04 33336   0.103E-01    0.747E-02
DAV:  14    -0.283492211354E+03   -0.10537E-04   -0.16834E-04 30240   0.425E-02    0.394E-02
DAV:  15    -0.283492213499E+03   -0.21449E-05   -0.22646E-05 18384   0.169E-02
  65 F= -.28349221E+03 E0= -.28348828E+03  d E =-.535691E+01  mag=    18.0000
       N       E                     dE             d eps       ncg     rms          rms(c)
DAV:   1    -0.283691879926E+03   -0.19967E+00   -0.60581E+00 27972   0.823E+00    0.203E+00
DAV:   2    -0.283728361211E+03   -0.36481E-01   -0.41202E-01 31056   0.177E+00    0.370E+00
DAV:   3    -0.283722756525E+03    0.56047E-02   -0.14521E-01 31944   0.116E+00    0.228E+00
DAV:   4    -0.283720168914E+03    0.25876E-02   -0.25472E-02 30660   0.683E-01    0.145E+00
DAV:   5    -0.283716763574E+03    0.34053E-02   -0.14067E-02 33984   0.462E-01    0.878E-01
DAV:   6    -0.283716468421E+03    0.29515E-03   -0.11981E-02 36216   0.323E-01    0.873E-01
DAV:   7    -0.283716111327E+03    0.35709E-03   -0.21825E-03 33756   0.208E-01    0.454E-01
DAV:   8    -0.283716047852E+03    0.63475E-04   -0.12270E-03 37128   0.786E-02    0.889E-02
DAV:   9    -0.283716140469E+03   -0.92617E-04   -0.18408E-04 31308   0.519E-02    0.107E-01
DAV:  10    -0.283716130717E+03    0.97515E-05   -0.60279E-05 23196   0.297E-02
  66 F= -.28371613E+03 E0= -.28371253E+03  d E =-.223917E+00  mag=    18.0000
       N       E                     dE             d eps       ncg     rms          rms(c)
[...]
DAV:   4    -0.284047804522E+03    0.42557E-04   -0.20249E-04 34620   0.537E-02    0.718E-02
DAV:   5    -0.284047786354E+03    0.18168E-04   -0.10805E-04 30936   0.436E-02    0.343E-02
DAV:   6    -0.284047785077E+03    0.12772E-05   -0.26113E-05 20340   0.214E-02
 104 F= -.28404779E+03 E0= -.28404775E+03  d E =-.411797E-03  mag=    18.0000
       N       E                     dE             d eps       ncg     rms          rms(c)
DAV:   1    -0.284029700793E+03    0.18086E-01   -0.51790E+00 26352   0.743E+00    0.577E-01
DAV:   2    -0.284048106820E+03   -0.18406E-01   -0.19004E-01 27780   0.128E+00    0.288E-01
DAV:   3    -0.284048057197E+03    0.49623E-04   -0.44806E-03 34212   0.219E-01    0.176E-01
DAV:   4    -0.284047818241E+03    0.23896E-03   -0.96836E-04 34428   0.115E-01    0.140E-01
DAV:   5    -0.284047739132E+03    0.79109E-04   -0.50148E-04 34884   0.953E-02    0.931E-02
DAV:   6    -0.284047733167E+03    0.59655E-05   -0.15544E-04 33228   0.514E-02    0.328E-02
DAV:   7    -0.284047733581E+03   -0.41463E-06   -0.46216E-05 25860   0.222E-02
 105 F= -.28404773E+03 E0= -.28404768E+03  d E =0.514954E-04  mag=    18.0000
       N       E                     dE             d eps       ncg     rms          rms(c)
DAV:   1    -0.283929280863E+03    0.11845E+00   -0.33292E+01 26364   0.188E+01    0.142E+00
DAV:   2    -0.284046768920E+03   -0.11749E+00   -0.12175E+00 27480   0.321E+00    0.736E-01
DAV:   3    -0.284046378777E+03    0.39014E-03   -0.29225E-02 34380   0.560E-01    0.495E-01
DAV:   4    -0.284045072191E+03    0.13066E-02   -0.67976E-03 35244   0.320E-01    0.434E-01
DAV:   5    -0.284044099768E+03    0.97242E-03   -0.41504E-03 32952   0.266E-01    0.152E-01
DAV:   6    -0.284044110396E+03   -0.10628E-04   -0.11001E-03 31488   0.111E-01    0.833E-02
DAV:   7    -0.284044107012E+03    0.33845E-05   -0.42443E-04 32808   0.671E-02    0.716E-02
DAV:   8    -0.284044106528E+03    0.48349E-06   -0.92345E-05 28572   0.408E-02
 106 F= -.28404411E+03 E0= -.28404403E+03  d E =0.362705E-02  mag=    18.0000
       N       E                     dE             d eps       ncg     rms          rms(c)
DAV:   1    -0.283995788475E+03    0.48319E-01   -0.11418E+01 26388   0.112E+01    0.116E+00
DAV:   2    -0.284038824282E+03   -0.43036E-01   -0.45805E-01 29136   0.203E+00    0.536E-01
DAV:   3    -0.284038272946E+03    0.55134E-03   -0.15503E-02 33084   0.470E-01    0.470E-01
DAV:   4    -0.284037668942E+03    0.60400E-03   -0.39625E-03 35112   0.260E-01    0.271E-01
DAV:   5    -0.284037165878E+03    0.50306E-03   -0.16748E-03 31584   0.162E-01    0.114E-01
DAV:   6    -0.284037170929E+03   -0.50516E-05   -0.53731E-04 32100   0.705E-02    0.548E-02
DAV:   7    -0.284037160502E+03    0.10427E-04   -0.16288E-04 33216   0.444E-02    0.422E-02
DAV:   8    -0.284037160194E+03    0.30824E-06   -0.48856E-05 23304   0.271E-02
 107 F= -.28403716E+03 E0= -.28403713E+03  d E =0.694633E-02  mag=    18.0000
       N       E                     dE             d eps       ncg     rms          rms(c)
DAV:   1    -0.283950537357E+03    0.86623E-01   -0.28497E+01 26364   0.173E+01    0.148E+00
DAV:   2    -0.284052337603E+03   -0.10180E+00   -0.10523E+00 28464   0.299E+00    0.727E-01
DAV:   3    -0.284051783875E+03    0.55373E-03   -0.28470E-02 33936   0.572E-01    0.502E-01
DAV:   4    -0.284050547857E+03    0.12360E-02   -0.59160E-03 34980   0.308E-01    0.384E-01
DAV:   5    -0.284049562670E+03    0.98519E-03   -0.36759E-03 32184   0.255E-01    0.144E-01
DAV:   6    -0.284049572411E+03   -0.97409E-05   -0.11319E-03 31836   0.116E-01    0.913E-02
DAV:   7    -0.284049563515E+03    0.88965E-05   -0.32482E-04 33048   0.624E-02    0.636E-02
DAV:   8    -0.284049561682E+03    0.18330E-05   -0.74703E-05 27624   0.352E-02
 108 F= -.28404956E+03 E0= -.28404952E+03  d E =-.124015E-01  mag=    18.0000
       N       E                     dE             d eps       ncg     rms          rms(c)
DAV:   1    -0.284045463922E+03    0.40996E-02   -0.67869E-01 27648   0.286E+00    0.456E-01
DAV:   2    -0.284048399073E+03   -0.29352E-02   -0.32002E-02 30792   0.529E-01    0.176E-01
DAV:   3    -0.284048284734E+03    0.11434E-03   -0.16325E-03 30816   0.156E-01    0.165E-01
DAV:   4    -0.284048221411E+03    0.63323E-04   -0.45908E-04 34020   0.903E-02    0.951E-02
DAV:   5    -0.284048180892E+03    0.40519E-04   -0.16396E-04 33408   0.502E-02    0.439E-02
DAV:   6    -0.284048178579E+03    0.23138E-05   -0.47010E-05 29208   0.241E-02
 109 F= -.28404818E+03 E0= -.28404815E+03  d E =0.138310E-02  mag=    18.0000
       N       E                     dE             d eps       ncg     rms          rms(c)
DAV:   1    -0.284048775603E+03   -0.59471E-03   -0.16202E-01 27648   0.144E+00    0.263E-01
DAV:   2    -0.284049573313E+03   -0.79771E-03   -0.91675E-03 29340   0.288E-01    0.116E-01
DAV:   3    -0.284049526250E+03    0.47063E-04   -0.67491E-04 32784   0.108E-01    0.137E-01
DAV:   4    -0.284049491656E+03    0.34594E-04   -0.20114E-04 31212   0.621E-02    0.492E-02
DAV:   5    -0.284049478052E+03    0.13604E-04   -0.49336E-05 28404   0.259E-02    0.248E-02
DAV:   6    -0.284049477216E+03    0.83573E-06   -0.15998E-05 18768   0.135E-02
 110 F= -.28404948E+03 E0= -.28404943E+03  d E =-.129864E-02  mag=    18.0000
       N       E                     dE             d eps       ncg     rms          rms(c)
DAV:   1    -0.284049004811E+03    0.47324E-03   -0.54705E-02 27468   0.822E-01    0.843E-02
DAV:   2    -0.284049231677E+03   -0.22687E-03   -0.24276E-03 28008   0.145E-01    0.371E-02
DAV:   3    -0.284049228445E+03    0.32321E-05   -0.65396E-05 28740   0.295E-02    0.306E-02
DAV:   4    -0.284049225721E+03    0.27243E-05   -0.18757E-05 18348   0.189E-02
 111 F= -.28404923E+03 E0= -.28404918E+03  d E =0.251496E-03  mag=    18.0000
       N       E                     dE             d eps       ncg     rms          rms(c)
DAV:   1    -0.283954825801E+03    0.94403E-01   -0.22717E+01 26364   0.160E+01    0.137E+00
DAV:   2    -0.284039189691E+03   -0.84364E-01   -0.90196E-01 27084   0.278E+00    0.658E-01
DAV:   3    -0.284038348162E+03    0.84153E-03   -0.21581E-02 33288   0.494E-01    0.413E-01
DAV:   4    -0.284037121484E+03    0.12267E-02   -0.53328E-03 35232   0.273E-01    0.354E-01
DAV:   5    -0.284036828989E+03    0.29249E-03   -0.29604E-03 35916   0.216E-01    0.227E-01
DAV:   6    -0.284036771407E+03    0.57583E-04   -0.10519E-03 34332   0.130E-01    0.104E-01
DAV:   7    -0.284036758648E+03    0.12759E-04   -0.30880E-04 35556   0.628E-02    0.533E-02
DAV:   8    -0.284036758303E+03    0.34499E-06   -0.74531E-05 27372   0.345E-02
 112 F= -.28403676E+03 E0= -.28403655E+03  d E =0.124674E-01  mag=    18.0000
       N       E                     dE             d eps       ncg     rms          rms(c)
DAV:   1    -0.279636939767E+03    0.43998E+01   -0.27600E+02 26352   0.465E+01    0.166E+01
DAV:   2    -0.280599009150E+03   -0.96207E+00   -0.12839E+01 31296   0.102E+01    0.761E+00
DAV:   3    -0.280550885040E+03    0.48124E-01   -0.34197E+00 34548   0.744E+00    0.973E+00
DAV:   4    -0.280390250993E+03    0.16063E+00   -0.43180E-01 33768   0.374E+00    0.395E+00
DAV:   5    -0.280305961955E+03    0.84289E-01   -0.15385E-01 36672   0.220E+00    0.192E+00
DAV:   6    -0.280307840573E+03   -0.18786E-02   -0.26245E-01 36312   0.153E+00    0.580E+00
DAV:   7    -0.280282935165E+03    0.24905E-01   -0.25875E-01 31764   0.134E+00    0.158E+00
DAV:   8    -0.280292716387E+03   -0.97812E-02   -0.20663E-02 34164   0.635E-01    0.119E+00
DAV:   9    -0.280291552756E+03    0.11636E-02   -0.30664E-03 33012   0.188E-01    0.101E+00
DAV:  10    -0.280289945102E+03    0.16077E-02   -0.38824E-03 37140   0.194E-01    0.393E-01
DAV:  11    -0.280290170389E+03   -0.22529E-03   -0.21348E-03 32460   0.111E-01    0.167E-01
DAV:  12    -0.280290253193E+03   -0.82805E-04   -0.24149E-04 30348   0.705E-02    0.731E-02
DAV:  13    -0.280290265250E+03   -0.12057E-04   -0.16122E-04 33948   0.351E-02    0.710E-02
DAV:  14    -0.280290263914E+03    0.13365E-05   -0.27010E-05 21024   0.257E-02
 113 F= -.28029026E+03 E0= -.28028775E+03  d E =0.374649E+01  mag=    18.0000
       N       E                     dE             d eps       ncg     rms          rms(c)
DAV:   1    -0.283193841753E+03   -0.29036E+01   -0.10469E+02 26304   0.271E+01    0.841E+00
DAV:   2    -0.283626297233E+03   -0.43246E+00   -0.58223E+00 30972   0.640E+00    0.627E+00
DAV:   3    -0.283572073724E+03    0.54224E-01   -0.10629E+00 32196   0.404E+00    0.614E+00
DAV:   4    -0.283507036598E+03    0.65037E-01   -0.13725E-01 32952   0.195E+00    0.289E+00
DAV:   5    -0.283490705928E+03    0.16331E-01   -0.30138E-01 34212   0.200E+00    0.383E+00
DAV:   6    -0.283475600799E+03    0.15105E-01   -0.20341E-01 32916   0.156E+00    0.104E+00
DAV:   7    -0.283478310580E+03   -0.27098E-02   -0.17449E-02 32364   0.512E-01    0.559E-01
DAV:   8    -0.283477325866E+03    0.98471E-03   -0.34809E-03 33396   0.230E-01    0.321E-01
DAV:   9    -0.283477007853E+03    0.31801E-03   -0.24463E-03 33528   0.156E-01    0.111E-01
DAV:  10    -0.283477029978E+03   -0.22126E-04   -0.40764E-04 32724   0.723E-02    0.607E-02
DAV:  11    -0.283477034005E+03   -0.40267E-05   -0.15837E-04 32412   0.473E-02    0.506E-02
DAV:  12    -0.283477037823E+03   -0.38185E-05   -0.39752E-05 24276   0.239E-02
 114 F= -.28347704E+03 E0= -.28347685E+03  d E =-.318677E+01  mag=    18.0000
       N       E                     dE             d eps       ncg     rms          rms(c)
DAV:   1    -0.283852992153E+03   -0.37596E+00   -0.20197E+01 26352   0.128E+01    0.350E+00
DAV:   2    -0.283924019173E+03   -0.71027E-01   -0.94134E-01 30816   0.285E+00    0.172E+00
DAV:   3    -0.283914342534E+03    0.96766E-02   -0.14091E-01 32688   0.150E+00    0.225E+00
DAV:   4    -0.283905841517E+03    0.85010E-02   -0.35353E-02 33768   0.884E-01    0.735E-01
DAV:   5    -0.283903318332E+03    0.25232E-02   -0.10172E-02 32124   0.359E-01    0.424E-01
DAV:   6    -0.283903127397E+03    0.19093E-03   -0.65114E-03 33912   0.299E-01    0.320E-01
DAV:   7    -0.283903098124E+03    0.29273E-04   -0.22765E-03 33948   0.189E-01    0.193E-01
DAV:   8    -0.283903046941E+03    0.51184E-04   -0.38138E-04 36048   0.792E-02    0.702E-02
DAV:   9    -0.283903044528E+03    0.24123E-05   -0.17510E-04 32268   0.468E-02    0.569E-02
DAV:  10    -0.283903041014E+03    0.35149E-05   -0.79384E-05 29376   0.356E-02
 115 F= -.28390304E+03 E0= -.28390304E+03  d E =-.426003E+00  mag=    18.0000
       N       E                     dE             d eps       ncg     rms          rms(c)
DAV:   1    -0.283974215151E+03   -0.71171E-01   -0.66282E+00 26472   0.744E+00    0.204E+00
DAV:   2    -0.283995881190E+03   -0.21666E-01   -0.28030E-01 31392   0.156E+00    0.805E-01
DAV:   3    -0.283993219715E+03    0.26615E-02   -0.34506E-02 32184   0.759E-01    0.111E+00
DAV:   4    -0.283991412484E+03    0.18072E-02   -0.11262E-02 33696   0.465E-01    0.336E-01
DAV:   5    -0.283990892304E+03    0.52018E-03   -0.18230E-03 31776   0.163E-01    0.190E-01
DAV:   6    -0.283990849953E+03    0.42351E-04   -0.85572E-04 33312   0.929E-02    0.108E-01
DAV:   7    -0.283990848832E+03    0.11216E-05   -0.33758E-04 34680   0.691E-02    0.108E-01
DAV:   8    -0.283990839271E+03    0.95608E-05   -0.98684E-05 28992   0.408E-02
 116 F= -.28399084E+03 E0= -.28399075E+03  d E =-.877983E-01  mag=    18.0000
       N       E                     dE             d eps       ncg     rms          rms(c)
DAV:   1    -0.284024521184E+03   -0.33672E-01   -0.17645E+00 26736   0.386E+00    0.103E+00
DAV:   2    -0.284029867893E+03   -0.53467E-02   -0.67639E-02 31536   0.730E-01    0.283E-01
DAV:   3    -0.284029109003E+03    0.75889E-03   -0.38573E-03 32460   0.226E-01    0.221E-01
DAV:   4    -0.284028979433E+03    0.12957E-03   -0.12966E-03 33096   0.143E-01    0.190E-01
DAV:   5    -0.284028898943E+03    0.80490E-04   -0.56629E-04 35784   0.944E-02    0.805E-02
DAV:   6    -0.284028899159E+03   -0.21671E-06   -0.11747E-04 30588   0.407E-02    0.461E-02
DAV:   7    -0.284028897557E+03    0.16027E-05   -0.27933E-05 18792   0.199E-02
 117 F= -.28402890E+03 E0= -.28402882E+03  d E =-.380583E-01  mag=    18.0000
       N       E                     dE             d eps       ncg     rms          rms(c)
DAV:   1    -0.284040015941E+03   -0.11117E-01   -0.17883E+00 26256   0.391E+00    0.103E+00
DAV:   2    -0.284045612414E+03   -0.55965E-02   -0.71934E-02 30288   0.743E-01    0.319E-01
DAV:   3    -0.284044674583E+03    0.93783E-03   -0.42294E-03 31956   0.241E-01    0.252E-01
DAV:   4    -0.284044524635E+03    0.14995E-03   -0.16177E-03 33852   0.155E-01    0.207E-01
DAV:   5    -0.284044420248E+03    0.10439E-03   -0.52969E-04 33396   0.966E-02    0.901E-02
DAV:   6    -0.284044416522E+03    0.37259E-05   -0.11328E-04 33036   0.380E-02    0.495E-02
DAV:   7    -0.284044413308E+03    0.32138E-05   -0.30556E-05 22788   0.179E-02
 118 F= -.28404441E+03 E0= -.28404438E+03  d E =-.155158E-01  mag=    18.0000
       N       E                     dE             d eps       ncg     rms          rms(c)
DAV:   1    -0.284044052171E+03    0.36435E-03   -0.88526E-02 28332   0.105E+00    0.198E-01
DAV:   2    -0.284044445409E+03   -0.39324E-03   -0.47284E-03 29508   0.208E-01    0.871E-02
DAV:   3    -0.284044429929E+03    0.15480E-04   -0.37061E-04 32940   0.817E-02    0.105E-01
DAV:   4    -0.284044414349E+03    0.15580E-04   -0.10598E-04 30300   0.441E-02    0.367E-02
DAV:   5    -0.284044410578E+03    0.37711E-05   -0.17829E-05 23436   0.151E-02
 119 F= -.28404441E+03 E0= -.28404438E+03  d E =0.273022E-05  mag=    18.0000
       N       E                     dE             d eps       ncg     rms          rms(c)
DAV:   1    -0.284040593680E+03    0.38207E-02   -0.38540E-01 28128   0.252E+00    0.322E-01
DAV:   2    -0.284042933954E+03   -0.23403E-02   -0.26742E-02 28536   0.484E-01    0.152E-01
DAV:   3    -0.284042935899E+03   -0.19456E-05   -0.13231E-03 32676   0.147E-01    0.175E-01
DAV:   4    -0.284042891468E+03    0.44431E-04   -0.34669E-04 34944   0.779E-02    0.721E-02
DAV:   5    -0.284042876679E+03    0.14788E-04   -0.76353E-05 29028   0.300E-02    0.377E-02
DAV:   6    -0.284042875408E+03    0.12717E-05   -0.19916E-05 22140   0.157E-02
 120 F= -.28404288E+03 E0= -.28404284E+03  d E =0.153517E-02  mag=    18.0000
       N       E                     dE             d eps       ncg     rms          rms(c)
DAV:   1    -0.284040420771E+03    0.24559E-02   -0.20802E-01 27336   0.200E+00    0.221E-01
DAV:   2    -0.284042007918E+03   -0.15871E-02   -0.17346E-02 28248   0.385E-01    0.104E-01
DAV:   3    -0.284042025291E+03   -0.17373E-04   -0.52833E-04 33192   0.759E-02    0.678E-02
DAV:   4    -0.284042010166E+03    0.15125E-04   -0.91731E-05 32628   0.369E-02    0.566E-02
DAV:   5    -0.284042003897E+03    0.62691E-05   -0.50148E-05 25200   0.309E-02
 121 F= -.28404200E+03 E0= -.28404197E+03  d E =0.871510E-03  mag=    18.0000
       N       E                     dE             d eps       ncg     rms          rms(c)
DAV:   1    -0.284039625738E+03    0.23844E-02   -0.18139E-01 27372   0.189E+00    0.259E-01
DAV:   2    -0.284041117258E+03   -0.14915E-02   -0.15686E-02 28716   0.370E-01    0.125E-01
DAV:   3    -0.284041114012E+03    0.32460E-05   -0.67510E-04 33096   0.994E-02    0.114E-01
DAV:   4    -0.284041090438E+03    0.23573E-04   -0.20570E-04 31608   0.589E-02    0.648E-02
DAV:   5    -0.284041076027E+03    0.14412E-04   -0.55233E-05 28380   0.309E-02    0.223E-02
DAV:   6    -0.284041076214E+03   -0.18670E-06   -0.15276E-05 17016   0.143E-02
 122 F= -.28404108E+03 E0= -.28404104E+03  d E =0.927684E-03  mag=    18.0000
       N       E                     dE             d eps       ncg     rms          rms(c)
DAV:   1    -0.284040793331E+03    0.28270E-03   -0.89205E-02 26964   0.105E+00    0.216E-01
DAV:   2    -0.284041267133E+03   -0.47380E-03   -0.51712E-03 30264   0.201E-01    0.821E-02
DAV:   3    -0.284041224613E+03    0.42520E-04   -0.20888E-04 31020   0.538E-02    0.500E-02
DAV:   4    -0.284041213517E+03    0.11097E-04   -0.74523E-05 29208   0.358E-02    0.496E-02
DAV:   5    -0.284041208517E+03    0.49996E-05   -0.35477E-05 21480   0.256E-02
 123 F= -.28404121E+03 E0= -.28404116E+03  d E =-.132303E-03  mag=    18.0000
       N       E                     dE             d eps       ncg     rms          rms(c)
DAV:   1    -0.284041506380E+03   -0.29286E-03   -0.48716E-02 26928   0.770E-01    0.125E-01
DAV:   2    -0.284041733800E+03   -0.22742E-03   -0.24822E-03 28824   0.146E-01    0.478E-02
DAV:   3    -0.284041725426E+03    0.83743E-05   -0.13489E-04 31212   0.469E-02    0.583E-02
DAV:   4    -0.284041719301E+03    0.61247E-05   -0.42400E-05 21552   0.283E-02
 124 F= -.28404172E+03 E0= -.28404168E+03  d E =-.510784E-03  mag=    18.0000
       N       E                     dE             d eps       ncg     rms          rms(c)
DAV:   1    -0.284041351144E+03    0.37428E-03   -0.85183E-02 26856   0.983E-01    0.103E-01
DAV:   2    -0.284041680103E+03   -0.32896E-03   -0.34557E-03 28572   0.173E-01    0.488E-02
DAV:   3    -0.284041676709E+03    0.33938E-05   -0.10218E-04 32340   0.372E-02    0.359E-02
DAV:   4    -0.284041671576E+03    0.51328E-05   -0.22052E-05 19296   0.198E-02
 125 F= -.28404167E+03 E0= -.28404164E+03  d E =0.477247E-04  mag=    18.0000
       N       E                     dE             d eps       ncg     rms          rms(c)
DAV:   1    -0.284038797154E+03    0.28796E-02   -0.43161E-01 26772   0.236E+00    0.222E-01
DAV:   2    -0.284040806427E+03   -0.20093E-02   -0.21400E-02 28236   0.424E-01    0.121E-01
DAV:   3    -0.284040806590E+03   -0.16272E-06   -0.70463E-04 33828   0.102E-01    0.113E-01
DAV:   4    -0.284040779363E+03    0.27227E-04   -0.15440E-04 30984   0.522E-02    0.551E-02
DAV:   5    -0.284040759905E+03    0.19457E-04   -0.59555E-05 28056   0.310E-02    0.262E-02
DAV:   6    -0.284040760473E+03   -0.56777E-06   -0.20664E-05 22392   0.157E-02
 126 F= -.28404076E+03 E0= -.28404073E+03  d E =0.911103E-03  mag=    18.0000
       N       E                     dE             d eps       ncg     rms          rms(c)
DAV:   1    -0.284036769666E+03    0.39902E-02   -0.44065E-01 26736   0.253E+00    0.277E-01
DAV:   2    -0.284039295813E+03   -0.25261E-02   -0.27612E-02 27960   0.468E-01    0.129E-01
DAV:   3    -0.284039290521E+03    0.52918E-05   -0.76402E-04 34896   0.984E-02    0.102E-01
DAV:   4    -0.284039266687E+03    0.23834E-04   -0.21851E-04 33852   0.599E-02    0.825E-02
DAV:   5    -0.284039247731E+03    0.18956E-04   -0.88132E-05 29964   0.395E-02    0.329E-02
DAV:   6    -0.284039247245E+03    0.48619E-06   -0.14420E-05 20112   0.143E-02
 127 F= -.28403925E+03 E0= -.28403922E+03  d E =0.151323E-02  mag=    18.0000
       N       E                     dE             d eps       ncg     rms          rms(c)
DAV:   1    -0.284039365224E+03   -0.11749E-03   -0.63134E-02 27996   0.841E-01    0.150E-01
DAV:   2    -0.284039629551E+03   -0.26433E-03   -0.29980E-03 30084   0.167E-01    0.749E-02
DAV:   3    -0.284039618679E+03    0.10872E-04   -0.31696E-04 32064   0.732E-02    0.992E-02
DAV:   4    -0.284039603400E+03    0.15279E-04   -0.80056E-05 27204   0.396E-02    0.326E-02
DAV:   5    -0.284039598627E+03    0.47733E-05   -0.20553E-05 20844   0.137E-02
 128 F= -.28403960E+03 E0= -.28403957E+03  d E =-.351381E-03  mag=    18.0000
       N       E                     dE             d eps       ncg     rms          rms(c)
DAV:   1    -0.284039455841E+03    0.14756E-03   -0.93639E-03 26868   0.346E-01    0.414E-02
DAV:   2    -0.284039500130E+03   -0.44289E-04   -0.47779E-04 28548   0.634E-02    0.228E-02
DAV:   3    -0.284039499874E+03    0.25652E-06   -0.14937E-05 22368   0.165E-02    0.189E-02
DAV:   4    -0.284039499206E+03    0.66761E-06   -0.49291E-06 15552   0.985E-03
 129 F= -.28403950E+03 E0= -.28403947E+03  d E =0.994206E-04  mag=    18.0000
