       N       E                     dE             d eps       ncg     rms          ort
DAV:   1     0.250983357084E+04    0.25098E+04   -0.13814E+05 10206   0.169E+03
DAV:   2    -0.165660509751E+03   -0.26755E+04   -0.24651E+04 10206   0.435E+02
DAV:   3    -0.480135403092E+03   -0.31447E+03   -0.30936E+03 10206   0.171E+02
DAV:   4    -0.491619247213E+03   -0.11484E+02   -0.11374E+02 10206   0.317E+01
DAV:   5    -0.491932522993E+03   -0.31328E+00   -0.31264E+00 10206   0.446E+00
SDA:   6    -0.185290159177E+03    0.30664E+03   -0.31264E+00 10206   0.103E+04 0.000E+00
CGA:   7    -0.271376594639E+03   -0.86086E+02   -0.10609E+03 10206   0.134E+04-0.324E+03
CGA:   8    -0.313757258210E+03   -0.42381E+02   -0.45672E+02 10206   0.323E+03-0.701E+00
CGA:   9    -0.327084257657E+03   -0.13327E+02   -0.28846E+02 10206   0.156E+03-0.533E+02
CGA:  10    -0.345765549271E+03   -0.18681E+02   -0.14136E+02 10206   0.616E+02 0.320E+01
CGA:  11    -0.351938273457E+03   -0.61727E+01   -0.60707E+01 10206   0.561E+02-0.697E+01
CGA:  12    -0.354528235148E+03   -0.25900E+01   -0.40137E+01 10206   0.450E+02-0.741E+01
CGA:  13    -0.356944904368E+03   -0.24167E+01   -0.18407E+01 10206   0.167E+02 0.194E+01
CGA:  14    -0.358459221281E+03   -0.15143E+01   -0.15675E+01 10206   0.352E+02-0.361E+00
CGA:  15    -0.359419465754E+03   -0.96024E+00   -0.13622E+01 10206   0.107E+02-0.691E+01
CGA:  16    -0.359794481030E+03   -0.37502E+00   -0.64440E+00 10206   0.456E+01-0.849E+00
CGA:  17    -0.360377177428E+03   -0.58270E+00   -0.58427E+00 10206   0.209E+01 0.190E-01
CGA:  18    -0.360696439765E+03   -0.31926E+00   -0.31942E+00 10206   0.103E+01-0.367E-01
CGA:  19    -0.360874065857E+03   -0.17763E+00   -0.17785E+00 10206   0.672E+00 0.464E-02
CGA:  20    -0.360978603454E+03   -0.10454E+00   -0.10434E+00 10206   0.311E+00 0.388E-01
CGA:  21    -0.361032527253E+03   -0.53924E-01   -0.53865E-01 10206   0.171E+00 0.293E-02
CGA:  22    -0.361069194356E+03   -0.36667E-01   -0.36825E-01 10206   0.882E-01-0.127E-02
CGA:  23    -0.361081924527E+03   -0.12730E-01   -0.12708E-01 10206   0.423E-01-0.101E-02
CGA:  24    -0.361092627999E+03   -0.10703E-01   -0.10840E-01 10206   0.310E-01-0.110E-02
CGA:  25    -0.361096554545E+03   -0.39265E-02   -0.39597E-02 10206   0.122E-01 0.182E-02
CGA:  26    -0.361099187049E+03   -0.26325E-02   -0.25667E-02 10206   0.886E-02 0.189E-02
CGA:  27    -0.361101064235E+03   -0.18772E-02   -0.19215E-02 10206   0.616E-02-0.151E-02
CGA:  28    -0.361101545098E+03   -0.48086E-03   -0.24212E-02 10206   0.107E-01-0.610E-02
CGA:  29    -0.361103201637E+03   -0.16565E-02   -0.16964E-02 10206   0.411E-02 0.219E-02
CGA:  30    -0.361104492736E+03   -0.12911E-02   -0.16548E-02 10206   0.410E-02-0.234E-02
CGA:  31    -0.361104984106E+03   -0.49137E-03   -0.50568E-03 10206   0.911E-03 0.262E-03
CGA:  32    -0.361105436495E+03   -0.45239E-03    0.30595E-03 10206   0.292E-03 0.141E-03
CGA:  33    -0.361105629350E+03   -0.19285E-03    0.52879E-04 10206   0.205E-03 0.219E-03
CGA:  34    -0.361105703291E+03   -0.73941E-04   -0.79250E-04 10206   0.521E-03-0.251E-04
CGA:  35    -0.361106101775E+03   -0.39848E-03    0.34403E-04 10206   0.331E-03 0.183E-03
CGA:  36    -0.361106550988E+03   -0.44921E-03    0.26389E-04 10206   0.328E-03 0.357E-04
CGA:  37    -0.361106881828E+03   -0.33084E-03    0.25229E-04 10206   0.177E-03-0.259E-04
CGA:  38    -0.361107012874E+03   -0.13105E-03    0.14302E-04 10206   0.156E-03 0.379E-04
CGA:  39    -0.361107191508E+03   -0.17863E-03    0.12472E-04 10206   0.810E-04-0.420E-04
CGA:  40    -0.361107309693E+03   -0.11819E-03    0.13487E-05 10206   0.439E-04 0.364E-04
CGA:  41    -0.361107386164E+03   -0.76471E-04    0.28552E-05 10206   0.233E-04-0.168E-05
CGA:  42    -0.361107443970E+03   -0.57806E-04    0.37360E-06 10206   0.170E-04 0.219E-05
CGA:  43    -0.361107451453E+03   -0.74822E-05    0.35560E-04 10206   0.577E-05 0.670E-05
   1 F= -.36110745E+03 E0= -.36110745E+03  d E =-.361107E+03  mag=    16.0000
       N       E                     dE             d eps       ncg     rms          ort
SDA:   1    -0.361184630439E+03   -0.77186E-01    0.00000E+00 10206   0.122E-01 0.000E+00
CGA:   2    -0.361187501679E+03   -0.28712E-02   -0.28907E-02 10206   0.399E-02-0.369E-03
CGA:   3    -0.361187913473E+03   -0.41179E-03   -0.46461E-03 10206   0.139E-02 0.812E-03
CGA:   4    -0.361188327395E+03   -0.41392E-03   -0.45677E-03 10206   0.614E-03-0.472E-03
CGA:   5    -0.361188421993E+03   -0.94598E-04   -0.10207E-03 10206   0.252E-03-0.115E-03
CGA:   6    -0.361188427881E+03   -0.58879E-05   -0.16690E-04 10206   0.121E-03 0.996E-04
CGA:   7    -0.361188436611E+03   -0.87304E-05   -0.15425E-04 10206   0.671E-04 0.721E-04
CGA:   8    -0.361188474508E+03   -0.37897E-04    0.10531E-04 10206   0.389E-04 0.209E-04
CGA:   9    -0.361188474652E+03   -0.14338E-06   -0.38025E-05 10206   0.180E-04 0.348E-04
   2 F= -.36118847E+03 E0= -.36118847E+03  d E =-.810232E-01  mag=    16.0000
       N       E                     dE             d eps       ncg     rms          ort
SDA:   1    -0.357844697909E+03    0.33438E+01    0.00000E+00 10206   0.177E+02 0.000E+00
CGA:   2    -0.362231236889E+03   -0.43865E+01   -0.43923E+01 10206   0.396E+01-0.770E-01
CGA:   3    -0.363200470441E+03   -0.96923E+00   -0.97132E+00 10206   0.180E+01-0.270E-01
CGA:   4    -0.363441520897E+03   -0.24105E+00   -0.24172E+00 10206   0.546E+00-0.174E-01
CGA:   5    -0.363547806468E+03   -0.10629E+00   -0.10625E+00 10206   0.147E+00 0.329E-02
CGA:   6    -0.363584105779E+03   -0.36299E-01   -0.36517E-01 10206   0.813E-01-0.305E-02
CGA:   7    -0.363602621058E+03   -0.18515E-01   -0.18311E-01 10206   0.417E-01 0.400E-02
CGA:   8    -0.363612633833E+03   -0.10013E-01   -0.10217E-01 10206   0.283E-01-0.395E-02
CGA:   9    -0.363616869511E+03   -0.42357E-02   -0.42787E-02 10206   0.864E-02 0.262E-02
CGA:  10    -0.363619301305E+03   -0.24318E-02   -0.24409E-02 10206   0.339E-02-0.117E-03
CGA:  11    -0.363620364936E+03   -0.10636E-02   -0.11817E-02 10206   0.294E-02-0.707E-03
CGA:  12    -0.363620575991E+03   -0.21106E-03   -0.25487E-03 10206   0.124E-02 0.515E-03
CGA:  13    -0.363620813382E+03   -0.23739E-03   -0.24466E-03 10206   0.879E-03 0.316E-03
CGA:  14    -0.363621027452E+03   -0.21407E-03   -0.21738E-03 10206   0.689E-03-0.426E-03
CGA:  15    -0.363621048211E+03   -0.20759E-04   -0.32465E-04 10206   0.467E-03 0.119E-03
CGA:  16    -0.363621063201E+03   -0.14990E-04   -0.37973E-04 10206   0.201E-03 0.199E-03
CGA:  17    -0.363621084357E+03   -0.21156E-04   -0.28752E-04 10206   0.134E-03 0.962E-04
CGA:  18    -0.363621121232E+03   -0.36875E-04   -0.41304E-04 10206   0.106E-03-0.134E-03
CGA:  19    -0.363621120385E+03    0.84703E-06   -0.69245E-05 10206   0.487E-04 0.697E-04
   3 F= -.36362112E+03 E0= -.36362112E+03  d E =-.243265E+01  mag=    16.0000
       N       E                     dE             d eps       ncg     rms          ort
SDA:   1    -0.353092656170E+03    0.10528E+02    0.00000E+00 10206   0.390E+02 0.000E+00
CGA:   2    -0.362384294076E+03   -0.92916E+01   -0.92885E+01 10206   0.105E+02-0.793E-02
CGA:   3    -0.364165373964E+03   -0.17811E+01   -0.17796E+01 10206   0.614E+01-0.244E+00
CGA:   4    -0.365098515238E+03   -0.93314E+00   -0.93578E+00 10206   0.108E+01 0.313E-01
CGA:   5    -0.365349010980E+03   -0.25050E+00   -0.25054E+00 10206   0.321E+00-0.332E-03
CGA:   6    -0.365422558874E+03   -0.73548E-01   -0.73398E-01 10206   0.171E+00 0.271E-02
CGA:   7    -0.365462001879E+03   -0.39443E-01   -0.39570E-01 10206   0.111E+00-0.277E-02
CGA:   8    -0.365482733127E+03   -0.20731E-01   -0.20707E-01 10206   0.481E-01 0.258E-02
CGA:   9    -0.365494866532E+03   -0.12133E-01   -0.12214E-01 10206   0.213E-01-0.119E-02
CGA:  10    -0.365499494974E+03   -0.46284E-02   -0.45701E-02 10206   0.773E-02 0.160E-02
CGA:  11    -0.365501886233E+03   -0.23913E-02   -0.25864E-02 10206   0.700E-02-0.156E-02
CGA:  12    -0.365502509444E+03   -0.62321E-03   -0.69333E-03 10206   0.277E-02 0.104E-02
CGA:  13    -0.365503063759E+03   -0.55431E-03   -0.56202E-03 10206   0.200E-02 0.656E-03
CGA:  14    -0.365503539099E+03   -0.47534E-03   -0.47938E-03 10206   0.134E-02-0.680E-03
CGA:  15    -0.365503620627E+03   -0.81528E-04   -0.10510E-03 10206   0.780E-03 0.338E-03
CGA:  16    -0.365503668874E+03   -0.48247E-04   -0.84903E-04 10206   0.353E-03 0.375E-03
CGA:  17    -0.365503738848E+03   -0.69974E-04   -0.74375E-04 10206   0.170E-03 0.117E-03
CGA:  18    -0.365503712538E+03    0.26309E-04   -0.95393E-04 10206   0.135E-02-0.500E-03
CGA:  19    -0.365503743579E+03   -0.31040E-04   -0.87128E-04 10206   0.229E-03 0.449E-03
CGA:  20    -0.365503742578E+03    0.10007E-05   -0.18194E-04 10206   0.116E-03 0.155E-03
CGA:  21    -0.365503787398E+03   -0.44820E-04    0.12185E-03 10206   0.360E-04 0.458E-04
CGA:  22    -0.365503785896E+03    0.15022E-05   -0.28734E-05 10206   0.178E-04 0.364E-04
   4 F= -.36550379E+03 E0= -.36550379E+03  d E =-.188267E+01  mag=    16.0000
       N       E                     dE             d eps       ncg     rms          ort
SDA:   1    -0.358495504571E+03    0.70083E+01    0.00000E+00 10206   0.246E+02 0.000E+00
CGA:   2    -0.364251585968E+03   -0.57561E+01   -0.57542E+01 10206   0.626E+01 0.116E-01
CGA:   3    -0.365453933190E+03   -0.12023E+01   -0.12048E+01 10206   0.363E+01-0.579E-01
CGA:   4    -0.365966270777E+03   -0.51234E+00   -0.51375E+00 10206   0.705E+00-0.141E-01
CGA:   5    -0.366110180021E+03   -0.14391E+00   -0.14370E+00 10206   0.189E+00 0.631E-02
CGA:   6    -0.366151744267E+03   -0.41564E-01   -0.41567E-01 10206   0.886E-01-0.996E-04
CGA:   7    -0.366171647147E+03   -0.19903E-01   -0.19722E-01 10206   0.551E-01 0.369E-02
CGA:   8    -0.366184298948E+03   -0.12652E-01   -0.12793E-01 10206   0.336E-01-0.303E-02
CGA:   9    -0.366191316460E+03   -0.70175E-02   -0.69734E-02 10206   0.147E-01 0.109E-02
CGA:  10    -0.366195157903E+03   -0.38414E-02   -0.39197E-02 10206   0.724E-02-0.988E-03
CGA:  11    -0.366196418071E+03   -0.12602E-02   -0.12577E-02 10206   0.329E-02 0.848E-03
CGA:  12    -0.366197380641E+03   -0.96257E-03   -0.10421E-02 10206   0.229E-02-0.796E-03
CGA:  13    -0.366197589128E+03   -0.20849E-03   -0.23541E-03 10206   0.103E-02 0.509E-03
CGA:  14    -0.366197807269E+03   -0.21814E-03   -0.22072E-03 10206   0.515E-03 0.264E-03
CGA:  15    -0.366197933892E+03   -0.12662E-03   -0.18992E-03 10206   0.130E-02-0.589E-03
CGA:  16    -0.366197980794E+03   -0.46902E-04   -0.90232E-04 10206   0.190E-03 0.359E-03
CGA:  17    -0.366197989952E+03   -0.91579E-05   -0.19780E-04 10206   0.101E-03 0.103E-03
CGA:  18    -0.366198038162E+03   -0.48210E-04    0.27400E-04 10206   0.627E-04 0.746E-05
CGA:  19    -0.366198037116E+03    0.10456E-05   -0.41690E-05 10206   0.283E-04 0.444E-04
   5 F= -.36619804E+03 E0= -.36619804E+03  d E =-.694251E+00  mag=    16.0000
       N       E                     dE             d eps       ncg     rms          ort
SDA:   1    -0.360872357404E+03    0.53257E+01    0.00000E+00 10206   0.172E+02 0.000E+00
CGA:   2    -0.365032898470E+03   -0.41605E+01   -0.41586E+01 10206   0.483E+01 0.143E-01
CGA:   3    -0.365976521853E+03   -0.94362E+00   -0.94559E+00 10206   0.278E+01-0.419E-01
CGA:   4    -0.366357094289E+03   -0.38057E+00   -0.38179E+00 10206   0.506E+00-0.115E-01
CGA:   5    -0.366459164069E+03   -0.10207E+00   -0.10195E+00 10206   0.130E+00 0.399E-02
CGA:   6    -0.366487773449E+03   -0.28609E-01   -0.28677E-01 10206   0.577E-01-0.138E-02
CGA:   7    -0.366501563905E+03   -0.13790E-01   -0.13633E-01 10206   0.340E-01 0.247E-02
CGA:   8    -0.366509729355E+03   -0.81655E-02   -0.83010E-02 10206   0.249E-01-0.241E-02
CGA:   9    -0.366514254333E+03   -0.45250E-02   -0.45038E-02 10206   0.103E-01 0.147E-02
CGA:  10    -0.366517153067E+03   -0.28987E-02   -0.29778E-02 10206   0.448E-02-0.843E-03
CGA:  11    -0.366518168137E+03   -0.10151E-02   -0.98636E-03 10206   0.168E-02 0.527E-03
CGA:  12    -0.366518649949E+03   -0.48181E-03   -0.73137E-03 10206   0.356E-02-0.124E-02
CGA:  13    -0.366518826060E+03   -0.17611E-03   -0.27754E-03 10206   0.567E-03 0.850E-03
CGA:  14    -0.366518895863E+03   -0.69803E-04   -0.86101E-04 10206   0.311E-03 0.234E-03
CGA:  15    -0.366518926340E+03   -0.30477E-04   -0.17180E-03 10206   0.144E-02-0.697E-03
CGA:  16    -0.366518985853E+03   -0.59512E-04   -0.11438E-03 10206   0.303E-03 0.461E-03
CGA:  17    -0.366519021882E+03   -0.36029E-04   -0.45909E-04 10206   0.129E-03 0.127E-03
CGA:  18    -0.366517621504E+03    0.14004E-02   -0.76032E-03 10206   0.113E-01-0.159E-02
CGA:  19    -0.366518485165E+03   -0.86366E-03   -0.11145E-02 10206   0.213E-02 0.111E-02
CGA:  20    -0.366519050971E+03   -0.56581E-03   -0.55402E-03 10206   0.112E-03-0.124E-03
CGA:  21    -0.366519155474E+03   -0.10450E-03    0.34286E-04 10206   0.472E-03-0.155E-03
CGA:  22    -0.366519134706E+03    0.20767E-04   -0.25023E-04 10206   0.621E-04 0.168E-03
CGA:  23    -0.366519123994E+03    0.10712E-04   -0.24205E-05 10206   0.200E-04 0.461E-04
CGA:  24    -0.366519120228E+03    0.37663E-05   -0.47623E-06 10206   0.120E-04 0.154E-04
   6 F= -.36651912E+03 E0= -.36651912E+03  d E =-.321083E+00  mag=    16.0000
       N       E                     dE             d eps       ncg     rms          ort
SDA:   1    -0.360294807523E+03    0.62243E+01    0.00000E+00 10206   0.173E+02 0.000E+00
CGA:   2    -0.364959680665E+03   -0.46649E+01   -0.46652E+01 10206   0.739E+01 0.373E-01
CGA:   3    -0.366043216883E+03   -0.10835E+01   -0.10327E+01 10206   0.285E+01 0.239E+00
CGA:   4    -0.366553317490E+03   -0.51010E+00   -0.51161E+00 10206   0.470E+00-0.117E-01
CGA:   5    -0.366645712661E+03   -0.92395E-01   -0.92621E-01 10206   0.136E+00 0.386E-02
CGA:   6    -0.366672611399E+03   -0.26899E-01   -0.26844E-01 10206   0.566E-01-0.979E-03
CGA:   7    -0.366683754965E+03   -0.11144E-01   -0.11229E-01 10206   0.307E-01 0.171E-02
CGA:   8    -0.366691310483E+03   -0.75555E-02   -0.75414E-02 10206   0.193E-01-0.112E-02
CGA:   9    -0.366695261918E+03   -0.39514E-02   -0.39918E-02 10206   0.974E-02 0.114E-02
CGA:  10    -0.366697997330E+03   -0.27354E-02   -0.27472E-02 10206   0.506E-02-0.708E-03
CGA:  11    -0.366698696065E+03   -0.69874E-03   -0.76882E-03 10206   0.205E-02 0.813E-03
CGA:  12    -0.366699308295E+03   -0.61223E-03   -0.61329E-03 10206   0.859E-03-0.965E-04
CGA:  13    -0.366699443970E+03   -0.13567E-03   -0.15413E-03 10206   0.372E-03 0.316E-03
CGA:  14    -0.366699570646E+03   -0.12668E-03   -0.12640E-03 10206   0.170E-03 0.605E-04
CGA:  15    -0.366699586732E+03   -0.16086E-04   -0.28108E-04 10206   0.927E-04 0.118E-03
CGA:  16    -0.366699597374E+03   -0.10642E-04   -0.14788E-04 10206   0.393E-04 0.522E-04
CGA:  17    -0.366699598057E+03   -0.68390E-06   -0.46045E-05 10206   0.307E-04 0.333E-04
   7 F= -.36669960E+03 E0= -.36669960E+03  d E =-.180478E+00  mag=    16.0000
       N       E                     dE             d eps       ncg     rms          ort
SDA:   1    -0.355152187481E+03    0.11547E+02    0.00000E+00 10206   0.287E+02 0.000E+00
CGA:   2    -0.363528809038E+03   -0.83766E+01   -0.83297E+01 10206   0.174E+02 0.480E+00
CGA:   3    -0.365817868113E+03   -0.22891E+01   -0.21344E+01 10206   0.377E+01 0.770E+00
CGA:   4    -0.366593358065E+03   -0.77549E+00   -0.77569E+00 10206   0.720E+00-0.745E-03
CGA:   5    -0.366732181324E+03   -0.13882E+00   -0.13888E+00 10206   0.214E+00 0.192E-02
CGA:   6    -0.366773597787E+03   -0.41416E-01   -0.41439E-01 10206   0.766E-01 0.879E-03
CGA:   7    -0.366789985620E+03   -0.16388E-01   -0.16379E-01 10206   0.357E-01-0.263E-02
CGA:   8    -0.366797449626E+03   -0.74640E-02   -0.74637E-02 10206   0.188E-01 0.143E-02
CGA:   9    -0.366802021649E+03   -0.45720E-02   -0.46118E-02 10206   0.131E-01-0.212E-02
CGA:  10    -0.366804302527E+03   -0.22809E-02   -0.22941E-02 10206   0.467E-02 0.675E-03
CGA:  11    -0.366805634468E+03   -0.13319E-02   -0.13677E-02 10206   0.226E-02-0.576E-03
CGA:  12    -0.366806120204E+03   -0.48574E-03   -0.48278E-03 10206   0.854E-03 0.121E-03
CGA:  13    -0.366806406665E+03   -0.28646E-03   -0.32659E-03 10206   0.833E-03-0.282E-03
CGA:  14    -0.366806486376E+03   -0.79711E-04   -0.83044E-04 10206   0.461E-03 0.422E-04
CGA:  15    -0.366806599480E+03   -0.11310E-03   -0.11373E-03 10206   0.260E-03-0.590E-04
CGA:  16    -0.366806651183E+03   -0.51704E-04   -0.52977E-04 10206   0.313E-03-0.144E-03
CGA:  17    -0.366806662245E+03   -0.11061E-04   -0.24723E-04 10206   0.639E-04 0.937E-04
CGA:  18    -0.366806669049E+03   -0.68044E-05   -0.97705E-05 10206   0.391E-04 0.297E-04
CGA:  19    -0.366806672444E+03   -0.33952E-05   -0.24310E-04 10206   0.165E-03-0.987E-04
CGA:  20    -0.366806677533E+03   -0.50884E-05   -0.13805E-04 10206   0.435E-04 0.626E-04
   8 F= -.36680668E+03 E0= -.36680668E+03  d E =-.107079E+00  mag=    16.0000
       N       E                     dE             d eps       ncg     rms          ort
SDA:   1    -0.365402339313E+03    0.14043E+01    0.00000E+00 10206   0.360E+01 0.000E+00
CGA:   2    -0.366619912110E+03   -0.12176E+01   -0.12189E+01 10206   0.120E+01-0.104E-01
CGA:   3    -0.366822116160E+03   -0.20220E+00   -0.20248E+00 10206   0.392E+00 0.712E-02
CGA:   4    -0.366883993103E+03   -0.61877E-01   -0.61751E-01 10206   0.902E-01-0.293E-02
CGA:   5    -0.366898702533E+03   -0.14709E-01   -0.14849E-01 10206   0.239E-01 0.299E-02
CGA:   6    -0.366903944201E+03   -0.52417E-02   -0.52433E-02 10206   0.846E-02-0.137E-02
CGA:   7    -0.366905550259E+03   -0.16061E-02   -0.16106E-02 10206   0.300E-02 0.493E-03
CGA:   8    -0.366906410440E+03   -0.86018E-03   -0.92005E-03 10206   0.255E-02-0.760E-03
CGA:   9    -0.366906601478E+03   -0.19104E-03   -0.23095E-03 10206   0.103E-02 0.430E-03
CGA:  10    -0.366906748585E+03   -0.14711E-03   -0.16623E-03 10206   0.534E-03 0.266E-03
CGA:  11    -0.366906892203E+03   -0.14362E-03   -0.14772E-03 10206   0.508E-03-0.307E-03
CGA:  12    -0.366906905700E+03   -0.13497E-04   -0.39331E-04 10206   0.124E-03 0.199E-03
CGA:  13    -0.366906912598E+03   -0.68974E-05   -0.15236E-04 10206   0.595E-04 0.743E-04
CGA:  14    -0.366906948844E+03   -0.36246E-04    0.10309E-04 10206   0.539E-04 0.534E-05
CGA:  15    -0.366906948750E+03    0.93325E-07   -0.46682E-05 10206   0.289E-04 0.412E-04
   9 F= -.36690695E+03 E0= -.36690695E+03  d E =-.100271E+00  mag=    16.0000
       N       E                     dE             d eps       ncg     rms          ort
SDA:   1    -0.365572078308E+03    0.13349E+01    0.00000E+00 10206   0.331E+01 0.000E+00
CGA:   2    -0.366680440418E+03   -0.11084E+01   -0.11107E+01 10206   0.122E+01-0.146E-01
CGA:   3    -0.366867077457E+03   -0.18664E+00   -0.18673E+00 10206   0.414E+00 0.885E-02
CGA:   4    -0.366930090293E+03   -0.63013E-01   -0.63008E-01 10206   0.864E-01-0.205E-02
CGA:   5    -0.366944433813E+03   -0.14344E-01   -0.14397E-01 10206   0.220E-01 0.304E-02
CGA:   6    -0.366949316454E+03   -0.48826E-02   -0.49266E-02 10206   0.785E-02-0.140E-02
CGA:   7    -0.366950616961E+03   -0.13005E-02   -0.13063E-02 10206   0.283E-02 0.683E-03
CGA:   8    -0.366951381466E+03   -0.76451E-03   -0.80593E-03 10206   0.205E-02-0.545E-03
CGA:   9    -0.366951572503E+03   -0.19104E-03   -0.21814E-03 10206   0.827E-03 0.472E-03
CGA:  10    -0.366951715830E+03   -0.14333E-03   -0.15341E-03 10206   0.423E-03 0.280E-03
CGA:  11    -0.366951832962E+03   -0.11713E-03   -0.12143E-03 10206   0.387E-03-0.145E-03
CGA:  12    -0.366951834543E+03   -0.15807E-05   -0.17246E-04 10206   0.271E-03 0.132E-03
CGA:  13    -0.366951831720E+03    0.28226E-05   -0.19700E-04 10206   0.120E-03 0.178E-03
CGA:  14    -0.366951850688E+03   -0.18967E-04   -0.19553E-04 10206   0.353E-04 0.558E-04
CGA:  15    -0.366951858105E+03   -0.74173E-05   -0.79309E-05 10206   0.188E-04 0.250E-04
  10 F= -.36695186E+03 E0= -.36695186E+03  d E =-.449094E-01  mag=    16.0000
       N       E                     dE             d eps       ncg     rms          ort
SDA:   1    -0.362198404018E+03    0.47534E+01    0.00000E+00 10206   0.112E+02 0.000E+00
CGA:   2    -0.366074159664E+03   -0.38758E+01   -0.38799E+01 10206   0.488E+01-0.177E-01
CGA:   3    -0.366703400554E+03   -0.62924E+00   -0.62490E+00 10206   0.137E+01 0.161E-01
CGA:   4    -0.366931896435E+03   -0.22850E+00   -0.22854E+00 10206   0.261E+00-0.245E-02
CGA:   5    -0.366980366843E+03   -0.48470E-01   -0.48425E-01 10206   0.711E-01 0.388E-02
CGA:   6    -0.366994837963E+03   -0.14471E-01   -0.14532E-01 10206   0.239E-01-0.225E-02
CGA:   7    -0.366999168918E+03   -0.43310E-02   -0.43273E-02 10206   0.916E-02 0.336E-03
CGA:   8    -0.367001273415E+03   -0.21045E-02   -0.21444E-02 10206   0.493E-02-0.732E-03
CGA:   9    -0.367002069975E+03   -0.79656E-03   -0.79815E-03 10206   0.190E-02 0.564E-03
CGA:  10    -0.367002636421E+03   -0.56645E-03   -0.58041E-03 10206   0.786E-03-0.146E-03
CGA:  11    -0.367002762197E+03   -0.12578E-03   -0.12763E-03 10206   0.259E-03 0.246E-03
CGA:  12    -0.367002849986E+03   -0.87789E-04   -0.92789E-04 10206   0.157E-03-0.555E-04
CGA:  13    -0.367002861878E+03   -0.11892E-04   -0.15354E-04 10206   0.886E-04 0.546E-04
CGA:  14    -0.367002875860E+03   -0.13982E-04   -0.15840E-04 10206   0.362E-04 0.358E-04
CGA:  15    -0.367002710338E+03    0.16552E-03   -0.89223E-04 10206   0.123E-02-0.225E-03
CGA:  16    -0.367002786002E+03   -0.75664E-04   -0.13556E-03 10206   0.259E-03 0.272E-03
CGA:  17    -0.367002847235E+03   -0.61233E-04   -0.60961E-04 10206   0.300E-04-0.211E-05
CGA:  18    -0.367002871281E+03   -0.24046E-04    0.16406E-04 10206   0.419E-04-0.121E-04
CGA:  19    -0.367002867989E+03    0.32914E-05   -0.98476E-06 10206   0.283E-04 0.156E-04
  11 F= -.36700287E+03 E0= -.36700287E+03  d E =-.510099E-01  mag=    16.0000
       N       E                     dE             d eps       ncg     rms          ort
SDA:   1    -0.344363488564E+03    0.22639E+02    0.00000E+00 10206   0.562E+02 0.000E+00
CGA:   2    -0.360544578063E+03   -0.16181E+02   -0.16178E+02 10206   0.380E+02 0.141E+01
CGA:   3    -0.364373501392E+03   -0.38289E+01   -0.26004E+01 10206   0.963E+01 0.185E+02
CGA:   4    -0.365710356241E+03   -0.13369E+01   -0.12319E+01 10206   0.476E+01 0.113E+01
CGA:   5    -0.366569549373E+03   -0.85919E+00   -0.86011E+00 10206   0.283E+01 0.233E-02
CGA:   6    -0.366806154386E+03   -0.23661E+00   -0.24339E+00 10206   0.883E+00-0.101E+00
CGA:   7    -0.366926149846E+03   -0.12000E+00   -0.11934E+00 10206   0.520E+00-0.786E-02
CGA:   8    -0.366973951081E+03   -0.47801E-01   -0.47920E-01 10206   0.150E+00 0.118E-01
CGA:   9    -0.366995287609E+03   -0.21337E-01   -0.21716E-01 10206   0.131E+00 0.450E-02
CGA:  10    -0.367013800834E+03   -0.18513E-01   -0.18286E-01 10206   0.577E-01-0.272E-02
CGA:  11    -0.367022690318E+03   -0.88895E-02   -0.85722E-02 10206   0.503E-01-0.428E-02
CGA:  12    -0.367028989822E+03   -0.62995E-02   -0.63369E-02 10206   0.182E-01 0.500E-03
CGA:  13    -0.367030527486E+03   -0.15377E-02   -0.17609E-02 10206   0.850E-02 0.187E-02
CGA:  14    -0.367032113779E+03   -0.15863E-02   -0.16176E-02 10206   0.606E-02 0.746E-03
CGA:  15    -0.367033097529E+03   -0.98375E-03   -0.89136E-03 10206   0.284E-02-0.121E-02
CGA:  16    -0.367033598104E+03   -0.50057E-03   -0.50240E-03 10206   0.198E-02-0.152E-03
CGA:  17    -0.367033729233E+03   -0.13113E-03   -0.18048E-03 10206   0.870E-03 0.438E-03
CGA:  18    -0.367033873168E+03   -0.14393E-03   -0.15674E-03 10206   0.783E-03 0.228E-03
CGA:  19    -0.367034082190E+03   -0.20902E-03   -0.21767E-03 10206   0.571E-03-0.447E-03
CGA:  20    -0.367034127034E+03   -0.44844E-04   -0.67331E-04 10206   0.202E-03 0.268E-03
CGA:  21    -0.367034176820E+03   -0.49786E-04   -0.51436E-04 10206   0.686E-04 0.675E-04
CGA:  22    -0.367033930292E+03    0.24653E-03   -0.13404E-03 10206   0.223E-02-0.353E-03
CGA:  23    -0.367034020228E+03   -0.89936E-04   -0.20576E-03 10206   0.442E-03 0.442E-03
CGA:  24    -0.367034102112E+03   -0.81884E-04   -0.10036E-03 10206   0.191E-03 0.119E-03
CGA:  25    -0.367034186498E+03   -0.84386E-04   -0.75390E-04 10206   0.704E-03-0.341E-03
CGA:  26    -0.367034176719E+03    0.97789E-05   -0.44645E-04 10206   0.776E-04 0.201E-03
  12 F= -.36703418E+03 E0= -.36703418E+03  d E =-.313087E-01  mag=    16.0000
       N       E                     dE             d eps       ncg     rms          ort
SDA:   1    -0.365643676081E+03    0.13905E+01    0.00000E+00 10206   0.341E+01 0.000E+00
CGA:   2    -0.366765308031E+03   -0.11216E+01   -0.11216E+01 10206   0.125E+01 0.254E-02
CGA:   3    -0.366975538690E+03   -0.21023E+00   -0.21015E+00 10206   0.384E+00-0.942E-04
CGA:   4    -0.367038990957E+03   -0.63452E-01   -0.63199E-01 10206   0.903E-01-0.171E-02
CGA:   5    -0.367053762562E+03   -0.14772E-01   -0.14819E-01 10206   0.258E-01 0.388E-03
CGA:   6    -0.367058442057E+03   -0.46795E-02   -0.47757E-02 10206   0.734E-02 0.918E-03
CGA:   7    -0.367060074775E+03   -0.16327E-02   -0.16481E-02 10206   0.300E-02 0.228E-03
CGA:   8    -0.367060666784E+03   -0.59201E-03   -0.61661E-03 10206   0.133E-02 0.304E-03
CGA:   9    -0.367061092087E+03   -0.42530E-03   -0.43329E-03 10206   0.142E-02-0.428E-03
CGA:  10    -0.367061170253E+03   -0.78166E-04   -0.10847E-03 10206   0.588E-03 0.184E-03
CGA:  11    -0.367061211857E+03   -0.41604E-04   -0.68851E-04 10206   0.318E-03 0.164E-03
CGA:  12    -0.367061281706E+03   -0.69849E-04   -0.68332E-04 10206   0.139E-03-0.165E-04
CGA:  13    -0.367061316165E+03   -0.34458E-04   -0.35188E-04 10206   0.216E-03-0.663E-04
CGA:  14    -0.367061311928E+03    0.42367E-05   -0.54612E-05 10206   0.157E-03 0.463E-04
  13 F= -.36706131E+03 E0= -.36706131E+03  d E =-.271352E-01  mag=    16.0000
       N       E                     dE             d eps       ncg     rms          ort
SDA:   1    -0.366855034568E+03    0.20628E+00    0.00000E+00 10206   0.519E+00 0.000E+00
CGA:   2    -0.367037769522E+03   -0.18273E+00   -0.18254E+00 10206   0.151E+00 0.157E-02
CGA:   3    -0.367066789649E+03   -0.29020E-01   -0.28949E-01 10206   0.510E-01-0.140E-02
CGA:   4    -0.367074581591E+03   -0.77919E-02   -0.77644E-02 10206   0.116E-01-0.328E-03
CGA:   5    -0.367076734218E+03   -0.21526E-02   -0.21257E-02 10206   0.381E-02-0.540E-03
CGA:   6    -0.367077407572E+03   -0.67335E-03   -0.67464E-03 10206   0.119E-02 0.279E-04
CGA:   7    -0.367077725403E+03   -0.31783E-03   -0.33351E-03 10206   0.894E-03-0.321E-03
CGA:   8    -0.367077809202E+03   -0.83800E-04   -0.93137E-04 10206   0.346E-03 0.104E-03
CGA:   9    -0.367077899784E+03   -0.90582E-04   -0.91249E-04 10206   0.247E-03-0.880E-04
CGA:  10    -0.367077990723E+03   -0.90939E-04    0.27010E-03 10206   0.220E-03-0.931E-04
CGA:  11    -0.367078021508E+03   -0.30785E-04   -0.29196E-04 10206   0.149E-03-0.104E-03
CGA:  12    -0.367078063311E+03   -0.41803E-04    0.51508E-04 10206   0.912E-04-0.307E-04
CGA:  13    -0.367078097641E+03   -0.34330E-04    0.20031E-03 10206   0.896E-04-0.328E-04
CGA:  14    -0.367078108909E+03   -0.11268E-04   -0.10667E-04 10206   0.566E-04-0.144E-04
CGA:  15    -0.367078142046E+03   -0.33137E-04    0.98317E-05 10206   0.436E-04-0.535E-05
CGA:  16    -0.367078184011E+03   -0.41965E-04    0.32886E-05 10206   0.449E-04-0.244E-04
CGA:  17    -0.367078181359E+03    0.26516E-05   -0.22665E-05 10206   0.191E-04 0.281E-04
  14 F= -.36707818E+03 E0= -.36707818E+03  d E =-.168694E-01  mag=    16.0000
       N       E                     dE             d eps       ncg     rms          ort
SDA:   1    -0.366908728752E+03    0.16946E+00    0.00000E+00 10206   0.428E+00 0.000E+00
CGA:   2    -0.367049979546E+03   -0.14125E+00   -0.14106E+00 10206   0.151E+00 0.150E-02
CGA:   3    -0.367076880267E+03   -0.26901E-01   -0.26874E-01 10206   0.460E-01-0.717E-03
CGA:   4    -0.367084220691E+03   -0.73404E-02   -0.72609E-02 10206   0.108E-01-0.147E-02
CGA:   5    -0.367085879029E+03   -0.16583E-02   -0.16755E-02 10206   0.297E-02 0.338E-03
CGA:   6    -0.367086517091E+03   -0.63806E-03   -0.63822E-03 10206   0.104E-02-0.255E-03
CGA:   7    -0.367086701518E+03   -0.18443E-03   -0.18551E-03 10206   0.347E-03 0.857E-04
CGA:   8    -0.367086720714E+03   -0.19196E-04   -0.23100E-03 10206   0.154E-02-0.519E-03
CGA:   9    -0.367086859441E+03   -0.13873E-03   -0.17259E-03 10206   0.242E-03 0.294E-03
CGA:  10    -0.367086916718E+03   -0.57277E-04   -0.10547E-03 10206   0.555E-03-0.336E-03
CGA:  11    -0.367086938425E+03   -0.21707E-04   -0.47809E-04 10206   0.103E-03 0.183E-03
CGA:  12    -0.367086955277E+03   -0.16853E-04   -0.18241E-04 10206   0.242E-04 0.156E-04
CGA:  13    -0.367086990772E+03   -0.35495E-04    0.15680E-05 10206   0.364E-04-0.190E-04
CGA:  14    -0.367086987363E+03    0.34095E-05   -0.12114E-05 10206   0.179E-04 0.251E-04
  15 F= -.36708699E+03 E0= -.36708699E+03  d E =-.880600E-02  mag=    16.0000
       N       E                     dE             d eps       ncg     rms          ort
SDA:   1    -0.365643196423E+03    0.14438E+01    0.00000E+00 10206   0.340E+01 0.000E+00
CGA:   2    -0.366832898938E+03   -0.11897E+01   -0.11908E+01 10206   0.129E+01-0.725E-02
CGA:   3    -0.367022376035E+03   -0.18948E+00   -0.18966E+00 10206   0.390E+00 0.787E-02
CGA:   4    -0.367083821184E+03   -0.61445E-01   -0.61120E-01 10206   0.842E-01-0.819E-02
CGA:   5    -0.367097637973E+03   -0.13817E-01   -0.13909E-01 10206   0.212E-01 0.285E-02
CGA:   6    -0.367102158677E+03   -0.45207E-02   -0.45255E-02 10206   0.674E-02-0.786E-03
CGA:   7    -0.367103342859E+03   -0.11842E-02   -0.11924E-02 10206   0.244E-02 0.492E-03
CGA:   8    -0.367104038673E+03   -0.69581E-03   -0.76745E-03 10206   0.231E-02-0.762E-03
CGA:   9    -0.367104260661E+03   -0.22199E-03   -0.22839E-03 10206   0.996E-03 0.108E-03
CGA:  10    -0.367104462479E+03   -0.20182E-03   -0.20193E-03 10206   0.627E-03 0.155E-04
CGA:  11    -0.367104594953E+03   -0.13247E-03   -0.15173E-03 10206   0.869E-03-0.514E-03
CGA:  12    -0.367104644907E+03   -0.49954E-04   -0.73276E-04 10206   0.145E-03 0.198E-03
CGA:  13    -0.367104678206E+03   -0.33299E-04   -0.33389E-04 10206   0.827E-04 0.989E-05
CGA:  14    -0.367104719300E+03   -0.41094E-04    0.46914E-04 10206   0.927E-04-0.505E-04
CGA:  15    -0.367104718948E+03    0.35242E-06   -0.58061E-05 10206   0.297E-04 0.461E-04
  16 F= -.36710472E+03 E0= -.36710472E+03  d E =-.177316E-01  mag=    16.0000
       N       E                     dE             d eps       ncg     rms          ort
SDA:   1    -0.344606439183E+03    0.22498E+02    0.00000E+00 10206   0.554E+02 0.000E+00
CGA:   2    -0.360528957438E+03   -0.15923E+02   -0.15687E+02 10206   0.384E+02 0.196E+01
CGA:   3    -0.365491661788E+03   -0.49627E+01   -0.46695E+01 10206   0.586E+01 0.936E+00
CGA:   4    -0.366794136151E+03   -0.13025E+01   -0.13020E+01 10206   0.119E+01 0.509E-02
CGA:   5    -0.367005259967E+03   -0.21112E+00   -0.21114E+00 10206   0.430E+00 0.911E-03
CGA:   6    -0.367078099834E+03   -0.72840E-01   -0.72853E-01 10206   0.129E+00 0.561E-03
CGA:   7    -0.367104906666E+03   -0.26807E-01   -0.26812E-01 10206   0.554E-01-0.298E-03
CGA:   8    -0.367117238347E+03   -0.12332E-01   -0.12370E-01 10206   0.299E-01-0.105E-02
CGA:   9    -0.367124179095E+03   -0.69407E-02   -0.70555E-02 10206   0.160E-01-0.223E-02
CGA:  10    -0.367127336630E+03   -0.31575E-02   -0.31629E-02 10206   0.634E-02-0.241E-03
CGA:  11    -0.367128664897E+03   -0.13283E-02   -0.13358E-02 10206   0.243E-02-0.344E-03
CGA:  12    -0.367129207274E+03   -0.54238E-03   -0.57289E-03 10206   0.154E-02-0.548E-03
CGA:  13    -0.367129411714E+03   -0.20444E-03   -0.20245E-03 10206   0.528E-03-0.765E-04
CGA:  14    -0.367129564976E+03   -0.15326E-03   -0.15621E-03 10206   0.268E-03-0.259E-04
CGA:  15    -0.367129590677E+03   -0.25701E-04   -0.34774E-04 10206   0.148E-03 0.141E-03
CGA:  16    -0.367129591392E+03   -0.71494E-06   -0.10968E-03 10206   0.844E-03-0.201E-03
CGA:  17    -0.367129618026E+03   -0.26634E-04   -0.66297E-04 10206   0.155E-03 0.272E-03
CGA:  18    -0.367129618927E+03   -0.90061E-06   -0.15410E-04 10206   0.677E-04 0.102E-03
CGA:  19    -0.367129636889E+03   -0.17962E-04   -0.20589E-04 10206   0.915E-04-0.279E-04
CGA:  20    -0.367129632192E+03    0.46970E-05   -0.18915E-05 10206   0.651E-04 0.367E-04
  17 F= -.36712963E+03 E0= -.36712963E+03  d E =-.249132E-01  mag=    16.0000
       N       E                     dE             d eps       ncg     rms          ort
SDA:   1    -0.366838677820E+03    0.29096E+00    0.00000E+00 10206   0.708E+00 0.000E+00
CGA:   2    -0.367087911706E+03   -0.24923E+00   -0.24957E+00 10206   0.271E+00-0.223E-02
CGA:   3    -0.367126631198E+03   -0.38719E-01   -0.38848E-01 10206   0.876E-01 0.301E-02
CGA:   4    -0.367141032165E+03   -0.14401E-01   -0.14345E-01 10206   0.170E-01-0.156E-02
CGA:   5    -0.367144180738E+03   -0.31486E-02   -0.31508E-02 10206   0.476E-02 0.202E-03
CGA:   6    -0.367145181360E+03   -0.10006E-02   -0.10044E-02 10206   0.182E-02-0.405E-03
CGA:   7    -0.367145500974E+03   -0.31961E-03   -0.31980E-03 10206   0.674E-03 0.242E-04
CGA:   8    -0.367145650870E+03   -0.14990E-03   -0.14918E-03 10206   0.267E-03 0.370E-04
CGA:   9    -0.367145717963E+03   -0.67093E-04   -0.67136E-04 10206   0.162E-03-0.118E-05
CGA:  10    -0.367145745585E+03   -0.27622E-04   -0.28109E-04 10206   0.520E-04 0.176E-04
CGA:  11    -0.367145770816E+03   -0.25231E-04    0.63768E-04 10206   0.164E-04 0.136E-04
CGA:  12    -0.367145772026E+03   -0.12107E-05   -0.23167E-05 10206   0.783E-05 0.125E-04
  18 F= -.36714577E+03 E0= -.36714577E+03  d E =-.161398E-01  mag=    16.0000
       N       E                     dE             d eps       ncg     rms          ort
SDA:   1    -0.365136279507E+03    0.20095E+01    0.00000E+00 10206   0.462E+01 0.000E+00
CGA:   2    -0.366815239965E+03   -0.16790E+01   -0.16812E+01 10206   0.145E+01-0.127E-01
CGA:   3    -0.367053572577E+03   -0.23833E+00   -0.23873E+00 10206   0.449E+00 0.125E-01
CGA:   4    -0.367119841607E+03   -0.66269E-01   -0.66069E-01 10206   0.101E+00-0.517E-02
CGA:   5    -0.367136742872E+03   -0.16901E-01   -0.16982E-01 10206   0.274E-01 0.289E-02
CGA:   6    -0.367142542877E+03   -0.58000E-02   -0.58135E-02 10206   0.894E-02-0.172E-02
CGA:   7    -0.367144063987E+03   -0.15211E-02   -0.15331E-02 10206   0.317E-02 0.776E-03
CGA:   8    -0.367144955997E+03   -0.89201E-03   -0.94253E-03 10206   0.256E-02-0.670E-03
CGA:   9    -0.367145223629E+03   -0.26763E-03   -0.28970E-03 10206   0.103E-02 0.382E-03
CGA:  10    -0.367145442745E+03   -0.21912E-03   -0.22104E-03 10206   0.533E-03 0.162E-03
CGA:  11    -0.367145575400E+03   -0.13265E-03   -0.17113E-03 10206   0.108E-02-0.486E-03
CGA:  12    -0.367145615008E+03   -0.39608E-04   -0.77650E-04 10206   0.158E-03 0.293E-03
CGA:  13    -0.367145622113E+03   -0.71057E-05   -0.16930E-04 10206   0.832E-04 0.880E-04
CGA:  14    -0.367145661072E+03   -0.38958E-04    0.34005E-04 10206   0.606E-04 0.678E-05
CGA:  15    -0.367145660711E+03    0.36089E-06   -0.47893E-05 10206   0.300E-04 0.440E-04
  19 F= -.36714566E+03 E0= -.36714566E+03  d E =0.111315E-03  mag=    16.0000
       N       E                     dE             d eps       ncg     rms          ort
SDA:   1    -0.364063911852E+03    0.30817E+01    0.00000E+00 10206   0.752E+01 0.000E+00
CGA:   2    -0.366302529021E+03   -0.22386E+01   -0.22381E+01 10206   0.382E+01 0.438E-02
CGA:   3    -0.366898247182E+03   -0.59572E+00   -0.59565E+00 10206   0.105E+01-0.128E-01
CGA:   4    -0.367060858443E+03   -0.16261E+00   -0.16263E+00 10206   0.258E+00 0.258E-02
CGA:   5    -0.367106640175E+03   -0.45782E-01   -0.45775E-01 10206   0.706E-01-0.207E-02
CGA:   6    -0.367119897529E+03   -0.13257E-01   -0.13249E-01 10206   0.201E-01 0.910E-03
CGA:   7    -0.367124513194E+03   -0.46157E-02   -0.46332E-02 10206   0.745E-02-0.371E-03
CGA:   8    -0.367126298012E+03   -0.17848E-02   -0.18065E-02 10206   0.308E-02-0.338E-03
CGA:   9    -0.367127052802E+03   -0.75479E-03   -0.75111E-03 10206   0.118E-02 0.528E-04
CGA:  10    -0.367127304251E+03   -0.25145E-03   -0.53776E-03 10206   0.320E-02-0.112E-02
CGA:  11    -0.367127505017E+03   -0.20077E-03   -0.26503E-03 10206   0.382E-03 0.545E-03
CGA:  12    -0.367127574038E+03   -0.69022E-04   -0.71638E-04 10206   0.164E-03 0.720E-04
CGA:  13    -0.367126088525E+03    0.14855E-02   -0.80788E-03 10206   0.156E-01-0.162E-02
CGA:  14    -0.367127246810E+03   -0.11583E-02   -0.13519E-02 10206   0.140E-02 0.954E-03
CGA:  15    -0.367127634619E+03   -0.38781E-03   -0.38518E-03 10206   0.254E-03-0.319E-04
CGA:  16    -0.367127713383E+03   -0.78763E-04   -0.54407E-04 10206   0.435E-03-0.207E-03
CGA:  17    -0.367127713456E+03   -0.73287E-07   -0.28272E-04 10206   0.389E-04 0.107E-03
  20 F= -.36712771E+03 E0= -.36712771E+03  d E =0.179473E-01  mag=    16.0000
       N       E                     dE             d eps       ncg     rms          ort
SDA:   1    -0.366292042803E+03    0.83567E+00    0.00000E+00 10206   0.210E+01 0.000E+00
CGA:   2    -0.366940733946E+03   -0.64869E+00   -0.64869E+00 10206   0.959E+00-0.989E-03
CGA:   3    -0.367094991362E+03   -0.15426E+00   -0.15461E+00 10206   0.281E+00 0.332E-02
CGA:   4    -0.367138632787E+03   -0.43641E-01   -0.43875E-01 10206   0.709E-01 0.161E-02
CGA:   5    -0.367151045613E+03   -0.12413E-01   -0.12380E-01 10206   0.200E-01-0.293E-03
CGA:   6    -0.367154865297E+03   -0.38197E-02   -0.38297E-02 10206   0.616E-02 0.103E-03
CGA:   7    -0.367156332193E+03   -0.14669E-02   -0.14532E-02 10206   0.269E-02-0.302E-03
CGA:   8    -0.367156754500E+03   -0.42231E-03   -0.46059E-03 10206   0.978E-03 0.392E-03
CGA:   9    -0.367157068834E+03   -0.31433E-03   -0.31618E-03 10206   0.815E-03-0.203E-03
CGA:  10    -0.367157108839E+03   -0.40004E-04   -0.73547E-04 10206   0.339E-03 0.210E-03
CGA:  11    -0.367157133750E+03   -0.24912E-04   -0.46609E-04 10206   0.166E-03 0.139E-03
CGA:  12    -0.367157185012E+03   -0.51262E-04   -0.48961E-04 10206   0.110E-03-0.480E-04
CGA:  13    -0.367157189406E+03   -0.43938E-05   -0.86848E-05 10206   0.800E-04 0.296E-04
  21 F= -.36715719E+03 E0= -.36715719E+03  d E =-.294759E-01  mag=    16.0000
       N       E                     dE             d eps       ncg     rms          ort
SDA:   1    -0.367087185340E+03    0.70000E-01    0.00000E+00 10206   0.177E+00 0.000E+00
CGA:   2    -0.367142368812E+03   -0.55183E-01   -0.55211E-01 10206   0.819E-01-0.414E-03
CGA:   3    -0.367154777488E+03   -0.12409E-01   -0.12474E-01 10206   0.230E-01 0.720E-03
CGA:   4    -0.367158270073E+03   -0.34926E-02   -0.35449E-02 10206   0.557E-02 0.614E-03
CGA:   5    -0.367159328832E+03   -0.10588E-02   -0.10480E-02 10206   0.160E-02-0.213E-03
CGA:   6    -0.367159591989E+03   -0.26316E-03   -0.26900E-03 10206   0.416E-03 0.101E-03
CGA:   7    -0.367159708037E+03   -0.11605E-03   -0.11987E-03 10206   0.266E-03-0.914E-04
CGA:   8    -0.367159712068E+03   -0.40318E-05   -0.18560E-04 10206   0.120E-03 0.102E-03
CGA:   9    -0.367159714778E+03   -0.27099E-05   -0.13343E-04 10206   0.523E-04 0.741E-04
CGA:  10    -0.367159740772E+03   -0.25993E-04    0.38878E-04 10206   0.332E-04 0.882E-05
CGA:  11    -0.367159737235E+03    0.35361E-05   -0.17110E-05 10206   0.203E-04 0.304E-04
  22 F= -.36715974E+03 E0= -.36715974E+03  d E =-.254783E-02  mag=    16.0000
       N       E                     dE             d eps       ncg     rms          ort
SDA:   1    -0.365830595565E+03    0.13291E+01    0.00000E+00 10206   0.313E+01 0.000E+00
CGA:   2    -0.366904166333E+03   -0.10736E+01   -0.10747E+01 10206   0.121E+01-0.814E-02
CGA:   3    -0.367088478911E+03   -0.18431E+00   -0.18482E+00 10206   0.344E+00 0.102E-01
CGA:   4    -0.367142835588E+03   -0.54357E-01   -0.54181E-01 10206   0.832E-01-0.418E-02
CGA:   5    -0.367156343552E+03   -0.13508E-01   -0.13585E-01 10206   0.215E-01 0.215E-02
CGA:   6    -0.367160836024E+03   -0.44925E-02   -0.44982E-02 10206   0.692E-02-0.134E-02
CGA:   7    -0.367161995783E+03   -0.11598E-02   -0.11725E-02 10206   0.228E-02 0.672E-03
CGA:   8    -0.367162609546E+03   -0.61376E-03   -0.62721E-03 10206   0.141E-02-0.257E-03
CGA:   9    -0.367162776620E+03   -0.16707E-03   -0.18398E-03 10206   0.546E-03 0.309E-03
CGA:  10    -0.367162923510E+03   -0.14689E-03   -0.14588E-03 10206   0.263E-03 0.489E-04
CGA:  11    -0.367162864784E+03    0.58726E-04   -0.16726E-03 10206   0.235E-02-0.588E-03
CGA:  12    -0.367162980213E+03   -0.11543E-03   -0.17739E-03 10206   0.237E-03 0.437E-03
CGA:  13    -0.367162997940E+03   -0.17727E-04   -0.29517E-04 10206   0.121E-03 0.110E-03
CGA:  14    -0.367163032829E+03   -0.34889E-04   -0.34468E-04 10206   0.344E-04-0.348E-04
CGA:  15    -0.367163033869E+03   -0.10402E-05   -0.25826E-05 10206   0.227E-04 0.154E-04
  23 F= -.36716303E+03 E0= -.36716303E+03  d E =-.329663E-02  mag=    16.0000
       N       E                     dE             d eps       ncg     rms          ort
SDA:   1    -0.355599774105E+03    0.11563E+02    0.00000E+00 10206   0.275E+02 0.000E+00
CGA:   2    -0.364524913720E+03   -0.89251E+01   -0.88983E+01 10206   0.126E+02 0.194E+00
CGA:   3    -0.366265052926E+03   -0.17401E+01   -0.17182E+01 10206   0.371E+01 0.593E-01
CGA:   4    -0.366869626677E+03   -0.60457E+00   -0.60612E+00 10206   0.742E+00 0.156E-02
CGA:   5    -0.367010935065E+03   -0.14131E+00   -0.14134E+00 10206   0.197E+00 0.551E-02
CGA:   6    -0.367049893242E+03   -0.38958E-01   -0.38960E-01 10206   0.722E-01-0.335E-02
CGA:   7    -0.367063054499E+03   -0.13161E-01   -0.13179E-01 10206   0.285E-01 0.186E-02
CGA:   8    -0.367069451330E+03   -0.63968E-02   -0.64233E-02 10206   0.149E-01-0.114E-02
CGA:   9    -0.367072333798E+03   -0.28825E-02   -0.28783E-02 10206   0.612E-02 0.947E-03
CGA:  10    -0.367073982649E+03   -0.16489E-02   -0.16740E-02 10206   0.280E-02-0.423E-03
CGA:  11    -0.367074471099E+03   -0.48845E-03   -0.49257E-03 10206   0.103E-02 0.365E-03
CGA:  12    -0.367074766882E+03   -0.29578E-03   -0.31829E-03 10206   0.748E-03-0.311E-03
CGA:  13    -0.367074801405E+03   -0.34523E-04   -0.54515E-04 10206   0.348E-03 0.202E-03
CGA:  14    -0.367074824220E+03   -0.22814E-04   -0.41056E-04 10206   0.174E-03 0.173E-03
CGA:  15    -0.367074853694E+03   -0.29474E-04   -0.33864E-04 10206   0.828E-04 0.698E-04
CGA:  16    -0.367074867099E+03   -0.13405E-04   -0.15739E-04 10206   0.718E-04 0.429E-04
CGA:  17    -0.367074864285E+03    0.28139E-05   -0.41569E-05 10206   0.437E-04 0.540E-04
  24 F= -.36707486E+03 E0= -.36707486E+03  d E =0.881696E-01  mag=    16.0000
       N       E                     dE             d eps       ncg     rms          ort
SDA:   1    -0.364746020492E+03    0.23288E+01    0.00000E+00 10206   0.581E+01 0.000E+00
CGA:   2    -0.366587689097E+03   -0.18417E+01   -0.18409E+01 10206   0.288E+01 0.431E-02
CGA:   3    -0.366970083589E+03   -0.38239E+00   -0.38089E+00 10206   0.824E+00 0.131E-01
CGA:   4    -0.367115666720E+03   -0.14558E+00   -0.14557E+00 10206   0.184E+00-0.703E-02
CGA:   5    -0.367147705020E+03   -0.32038E-01   -0.32049E-01 10206   0.460E-01 0.286E-02
CGA:   6    -0.367157328213E+03   -0.96232E-02   -0.96477E-02 10206   0.167E-01-0.910E-03
CGA:   7    -0.367160516262E+03   -0.31880E-02   -0.31853E-02 10206   0.669E-02 0.205E-03
CGA:   8    -0.367162130449E+03   -0.16142E-02   -0.16733E-02 10206   0.396E-02-0.901E-03
CGA:   9    -0.367162732044E+03   -0.60160E-03   -0.60298E-03 10206   0.155E-02 0.167E-03
CGA:  10    -0.367163160936E+03   -0.42889E-03   -0.46001E-03 10206   0.739E-03-0.308E-03
CGA:  11    -0.367163289872E+03   -0.12894E-03   -0.12711E-03 10206   0.248E-03 0.711E-04
CGA:  12    -0.367162425747E+03    0.86412E-03   -0.46616E-03 10206   0.596E-02-0.114E-02
CGA:  13    -0.367163086495E+03   -0.66075E-03   -0.79415E-03 10206   0.138E-02 0.636E-03
CGA:  14    -0.367163451319E+03   -0.36482E-03   -0.30596E-03 10206   0.460E-03-0.435E-03
CGA:  15    -0.367163463077E+03   -0.11759E-04   -0.35852E-04 10206   0.154E-03 0.112E-03
CGA:  16    -0.367163472115E+03   -0.90378E-05   -0.22057E-04 10206   0.722E-04 0.640E-04
CGA:  17    -0.367163473970E+03   -0.18547E-05   -0.55758E-04 10206   0.519E-03-0.228E-03
CGA:  18    -0.367163491313E+03   -0.17343E-04   -0.52681E-04 10206   0.114E-03 0.162E-03
CGA:  19    -0.367163516503E+03   -0.25190E-04   -0.25881E-04 10206   0.165E-04 0.507E-05
CGA:  20    -0.367163552014E+03   -0.35511E-04    0.10872E-05 10206   0.602E-04-0.242E-04
CGA:  21    -0.367163544884E+03    0.71297E-05   -0.22393E-05 10206   0.211E-04 0.353E-04
  25 F= -.36716354E+03 E0= -.36716354E+03  d E =-.886806E-01  mag=    16.0000
       N       E                     dE             d eps       ncg     rms          ort
SDA:   1    -0.366808765959E+03    0.35479E+00    0.00000E+00 10206   0.851E+00 0.000E+00
CGA:   2    -0.367094715761E+03   -0.28595E+00   -0.28602E+00 10206   0.367E+00-0.126E-02
CGA:   3    -0.367149094391E+03   -0.54379E-01   -0.54416E-01 10206   0.106E+00 0.132E-02
CGA:   4    -0.367166362721E+03   -0.17268E-01   -0.17116E-01 10206   0.251E-01-0.154E-02
CGA:   5    -0.367170564219E+03   -0.42015E-02   -0.42479E-02 10206   0.635E-02 0.496E-03
CGA:   6    -0.367171832829E+03   -0.12686E-02   -0.12739E-02 10206   0.189E-02 0.792E-04
CGA:   7    -0.367172293983E+03   -0.46115E-03   -0.45852E-03 10206   0.867E-03-0.135E-03
CGA:   8    -0.367172446000E+03   -0.15202E-03   -0.15572E-03 10206   0.335E-03 0.574E-04
CGA:   9    -0.367172499039E+03   -0.53039E-04   -0.19294E-03 10206   0.158E-02-0.491E-03
CGA:  10    -0.367172580323E+03   -0.81285E-04   -0.13318E-03 10206   0.201E-03 0.284E-03
CGA:  11    -0.367172614280E+03   -0.33957E-04   -0.37044E-04 10206   0.635E-04 0.297E-04
CGA:  12    -0.367172653592E+03   -0.39312E-04    0.15996E-03 10206   0.137E-03-0.672E-04
CGA:  13    -0.367172648665E+03    0.49268E-05   -0.71718E-05 10206   0.298E-04 0.598E-04
  26 F= -.36717265E+03 E0= -.36717265E+03  d E =-.910378E-02  mag=    16.0000
       N       E                     dE             d eps       ncg     rms          ort
SDA:   1    -0.367112871438E+03    0.59782E-01    0.00000E+00 10206   0.139E+00 0.000E+00
CGA:   2    -0.367159380446E+03   -0.46509E-01   -0.46553E-01 10206   0.574E-01-0.454E-03
CGA:   3    -0.367168013563E+03   -0.86331E-02   -0.86591E-02 10206   0.161E-01 0.319E-03
CGA:   4    -0.367170613955E+03   -0.26004E-02   -0.25720E-02 10206   0.409E-02-0.382E-03
CGA:   5    -0.367171237336E+03   -0.62338E-03   -0.63876E-03 10206   0.988E-03 0.216E-03
CGA:   6    -0.367171466026E+03   -0.22869E-03   -0.22789E-03 10206   0.360E-03-0.931E-04
CGA:   7    -0.367171505958E+03   -0.39931E-04   -0.47460E-04 10206   0.110E-03 0.921E-04
CGA:   8    -0.367171543839E+03   -0.37882E-04   -0.52202E-04 10206   0.188E-03-0.914E-04
CGA:   9    -0.367171561214E+03   -0.17375E-04   -0.22621E-04 10206   0.244E-04 0.474E-04
CGA:  10    -0.367171575443E+03   -0.14229E-04    0.11157E-03 10206   0.142E-04-0.361E-05
CGA:  11    -0.367171577200E+03   -0.17572E-05   -0.20309E-05 10206   0.894E-05 0.476E-05
CGA:  12    -0.367171582645E+03   -0.54452E-05    0.53065E-04 10206   0.504E-05 0.102E-05
  27 F= -.36717158E+03 E0= -.36717158E+03  d E =0.106602E-02  mag=    16.0000
       N       E                     dE             d eps       ncg     rms          ort
SDA:   1    -0.366967342717E+03    0.20423E+00    0.00000E+00 10206   0.468E+00 0.000E+00
CGA:   2    -0.367132975575E+03   -0.16563E+00   -0.16564E+00 10206   0.153E+00-0.723E-04
CGA:   3    -0.367158870635E+03   -0.25895E-01   -0.25915E-01 10206   0.439E-01 0.333E-03
CGA:   4    -0.367165988255E+03   -0.71176E-02   -0.70640E-02 10206   0.106E-01-0.816E-03
CGA:   5    -0.367167673699E+03   -0.16854E-02   -0.17076E-02 10206   0.291E-02 0.376E-03
CGA:   6    -0.367168278931E+03   -0.60523E-03   -0.60233E-03 10206   0.938E-03-0.147E-03
CGA:   7    -0.367168426108E+03   -0.14718E-03   -0.15426E-03 10206   0.287E-03 0.155E-03
CGA:   8    -0.367168525587E+03   -0.99479E-04   -0.11885E-03 10206   0.344E-03-0.139E-03
CGA:   9    -0.367168533258E+03   -0.76709E-05   -0.15490E-04 10206   0.224E-03 0.575E-04
CGA:  10    -0.367168547216E+03   -0.13957E-04   -0.23427E-04 10206   0.960E-04 0.744E-04
CGA:  11    -0.367168572681E+03   -0.25465E-04   -0.24717E-04 10206   0.622E-04-0.436E-04
CGA:  12    -0.367168196022E+03    0.37666E-03   -0.20579E-03 10206   0.190E-02-0.370E-03
CGA:  13    -0.367168382567E+03   -0.18655E-03   -0.25958E-03 10206   0.578E-03 0.300E-03
CGA:  14    -0.367168552690E+03   -0.17012E-03   -0.15082E-03 10206   0.195E-03-0.134E-03
CGA:  15    -0.367168553614E+03   -0.92377E-06   -0.15984E-04 10206   0.675E-04 0.588E-04
  28 F= -.36716855E+03 E0= -.36716855E+03  d E =0.302903E-02  mag=    16.0000
       N       E                     dE             d eps       ncg     rms          ort
SDA:   1    -0.365026591865E+03    0.21420E+01    0.00000E+00 10206   0.486E+01 0.000E+00
CGA:   2    -0.366776755554E+03   -0.17502E+01   -0.17502E+01 10206   0.163E+01-0.230E-02
CGA:   3    -0.367022358593E+03   -0.24560E+00   -0.24275E+00 10206   0.579E+00 0.258E-01
CGA:   4    -0.367110817603E+03   -0.88459E-01   -0.88456E-01 10206   0.104E+00-0.804E-02
CGA:   5    -0.367130835503E+03   -0.20018E-01   -0.20147E-01 10206   0.290E-01 0.120E-02
CGA:   6    -0.367136644387E+03   -0.58089E-02   -0.57175E-02 10206   0.983E-02-0.792E-03
CGA:   7    -0.367138334387E+03   -0.16900E-02   -0.17550E-02 10206   0.388E-02 0.533E-03
CGA:   8    -0.367139439446E+03   -0.11051E-02   -0.10832E-02 10206   0.253E-02-0.591E-03
CGA:   9    -0.367139769892E+03   -0.33045E-03   -0.35920E-03 10206   0.969E-03 0.220E-03
CGA:  10    -0.367140081481E+03   -0.31159E-03   -0.31215E-03 10206   0.452E-03-0.204E-03
CGA:  11    -0.367140199040E+03   -0.11756E-03   -0.12949E-03 10206   0.279E-03-0.173E-03
CGA:  12    -0.367140220809E+03   -0.21769E-04   -0.26286E-04 10206   0.139E-03 0.311E-04
CGA:  13    -0.367140262892E+03   -0.42082E-04   -0.40733E-04 10206   0.852E-04-0.516E-04
CGA:  14    -0.367139836631E+03    0.42626E-03   -0.22992E-03 10206   0.189E-02-0.335E-03
CGA:  15    -0.367140199249E+03   -0.36262E-03   -0.39669E-03 10206   0.576E-03 0.107E-03
CGA:  16    -0.367140312013E+03   -0.11276E-03   -0.97858E-04 10206   0.214E-03-0.437E-04
CGA:  17    -0.367140346239E+03   -0.34226E-04   -0.37675E-04 10206   0.315E-04 0.114E-04
CGA:  18    -0.367140361107E+03   -0.14868E-04   -0.25099E-04 10206   0.110E-03-0.368E-04
CGA:  19    -0.367140350279E+03    0.10828E-04   -0.84812E-05 10206   0.301E-04 0.466E-04
CGA:  20    -0.367140346650E+03    0.36288E-05   -0.37836E-05 10206   0.147E-04 0.193E-04
  29 F= -.36714035E+03 E0= -.36714035E+03  d E =0.282070E-01  mag=    16.0000
       N       E                     dE             d eps       ncg     rms          ort
SDA:   1    -0.366060482968E+03    0.10799E+01    0.00000E+00 10206   0.258E+01 0.000E+00
CGA:   2    -0.366900209715E+03   -0.83973E+00   -0.83997E+00 10206   0.128E+01-0.414E-02
CGA:   3    -0.367066665259E+03   -0.16646E+00   -0.16160E+00 10206   0.323E+00 0.488E-01
CGA:   4    -0.367131327478E+03   -0.64662E-01   -0.64300E-01 10206   0.731E-01-0.323E-02
CGA:   5    -0.367144292159E+03   -0.12965E-01   -0.13148E-01 10206   0.189E-01 0.837E-03
CGA:   6    -0.367148244581E+03   -0.39524E-02   -0.39300E-02 10206   0.699E-02-0.116E-03
CGA:   7    -0.367149499483E+03   -0.12549E-02   -0.13343E-02 10206   0.257E-02 0.391E-03
CGA:   8    -0.367150242092E+03   -0.74261E-03   -0.72111E-03 10206   0.148E-02-0.180E-03
CGA:   9    -0.367150438801E+03   -0.19671E-03   -0.23456E-03 10206   0.645E-03 0.183E-03
CGA:  10    -0.367150617160E+03   -0.17836E-03   -0.17442E-03 10206   0.269E-03-0.310E-04
CGA:  11    -0.367150656806E+03   -0.39646E-04   -0.51095E-04 10206   0.900E-04 0.698E-04
CGA:  12    -0.367150668681E+03   -0.11874E-04   -0.19641E-04 10206   0.391E-04 0.427E-04
CGA:  13    -0.367150680210E+03   -0.11529E-04   -0.13342E-04 10206   0.247E-04 0.157E-04
CGA:  14    -0.367150679271E+03    0.93915E-06   -0.41567E-05 10206   0.173E-04 0.231E-04
  30 F= -.36715068E+03 E0= -.36715068E+03  d E =-.103326E-01  mag=    16.0000
       N       E                     dE             d eps       ncg     rms          ort
SDA:   1    -0.366621935349E+03    0.52874E+00    0.00000E+00 10206   0.128E+01 0.000E+00
CGA:   2    -0.367069131548E+03   -0.44720E+00   -0.44724E+00 10206   0.422E+00-0.156E-02
CGA:   3    -0.367138086668E+03   -0.68955E-01   -0.69023E-01 10206   0.150E+00 0.109E-02
CGA:   4    -0.367160332096E+03   -0.22245E-01   -0.22248E-01 10206   0.314E-01-0.484E-03
CGA:   5    -0.367165731549E+03   -0.53995E-02   -0.54672E-02 10206   0.848E-02 0.548E-03
CGA:   6    -0.367167579102E+03   -0.18476E-02   -0.18095E-02 10206   0.286E-02-0.430E-03
CGA:   7    -0.367168055054E+03   -0.47595E-03   -0.50218E-03 10206   0.105E-02 0.240E-03
CGA:   8    -0.367168401165E+03   -0.34611E-03   -0.35715E-03 10206   0.118E-02-0.451E-03
CGA:   9    -0.367168434640E+03   -0.33475E-04   -0.64306E-04 10206   0.590E-03 0.159E-03
CGA:  10    -0.367168458637E+03   -0.23997E-04   -0.57730E-04 10206   0.289E-03 0.174E-03
CGA:  11    -0.367168519052E+03   -0.60415E-04   -0.58638E-04 10206   0.138E-03-0.156E-04
CGA:  12    -0.367167384317E+03    0.11347E-02   -0.16329E-03 10206   0.121E-01-0.131E-02
CGA:  13    -0.367168163624E+03   -0.77931E-03   -0.10138E-02 10206   0.110E-02 0.113E-02
CGA:  14    -0.367168425888E+03   -0.26226E-03   -0.27382E-03 10206   0.441E-03 0.153E-03
CGA:  15    -0.367168577232E+03   -0.15134E-03   -0.11726E-03 10206   0.886E-03-0.520E-03
CGA:  16    -0.367168577517E+03   -0.28525E-06   -0.56877E-04 10206   0.100E-03 0.246E-03
  31 F= -.36716858E+03 E0= -.36716858E+03  d E =-.178982E-01  mag=    16.0000
       N       E                     dE             d eps       ncg     rms          ort
SDA:   1    -0.367074556434E+03    0.94021E-01    0.00000E+00 10206   0.216E+00 0.000E+00
CGA:   2    -0.367146120884E+03   -0.71564E-01   -0.71605E-01 10206   0.784E-01-0.736E-03
CGA:   3    -0.367159269645E+03   -0.13149E-01   -0.13272E-01 10206   0.263E-01 0.122E-02
CGA:   4    -0.367163461606E+03   -0.41920E-02   -0.41810E-02 10206   0.610E-02-0.114E-03
CGA:   5    -0.367164498788E+03   -0.10372E-02   -0.10473E-02 10206   0.169E-02 0.111E-03
CGA:   6    -0.367164891995E+03   -0.39321E-03   -0.38571E-03 10206   0.720E-03-0.211E-03
CGA:   7    -0.367165046622E+03   -0.15463E-03   -0.15274E-03 10206   0.366E-03-0.119E-03
CGA:   8    -0.367165085393E+03   -0.38771E-04   -0.45518E-04 10206   0.118E-03 0.622E-04
CGA:   9    -0.367165110663E+03   -0.25270E-04   -0.26615E-04 10206   0.504E-04 0.225E-04
CGA:  10    -0.367165116779E+03   -0.61168E-05   -0.85335E-05 10206   0.206E-04 0.226E-04
  32 F= -.36716512E+03 E0= -.36716512E+03  d E =0.346074E-02  mag=    16.0000
       N       E                     dE             d eps       ncg     rms          ort
SDA:   1    -0.367145550575E+03    0.19560E-01    0.00000E+00 10206   0.503E-01 0.000E+00
CGA:   2    -0.367163034634E+03   -0.17484E-01   -0.17455E-01 10206   0.150E-01 0.263E-03
CGA:   3    -0.367165992942E+03   -0.29583E-02   -0.29338E-02 10206   0.633E-02-0.504E-03
CGA:   4    -0.367166920113E+03   -0.92717E-03   -0.90863E-03 10206   0.144E-02-0.201E-03
CGA:   5    -0.367167120564E+03   -0.20045E-03   -0.21353E-03 10206   0.327E-03 0.157E-03
CGA:   6    -0.367167180827E+03   -0.60263E-04   -0.64295E-04 10206   0.105E-03 0.729E-04
CGA:   7    -0.367167193492E+03   -0.12665E-04   -0.17940E-04 10206   0.440E-04 0.590E-04
CGA:   8    -0.367167214161E+03   -0.20668E-04    0.11758E-03 10206   0.246E-04 0.143E-04
CGA:   9    -0.367167221734E+03   -0.75730E-05   -0.75227E-05 10206   0.157E-04 0.961E-05
  33 F= -.36716722E+03 E0= -.36716722E+03  d E =-.210495E-02  mag=    16.0000
       N       E                     dE             d eps       ncg     rms          ort
SDA:   1    -0.367123998711E+03    0.43215E-01    0.00000E+00 10206   0.993E-01 0.000E+00
CGA:   2    -0.367159784235E+03   -0.35786E-01   -0.35803E-01 10206   0.336E-01-0.132E-03
CGA:   3    -0.367164694204E+03   -0.49100E-02   -0.49245E-02 10206   0.117E-01 0.197E-03
CGA:   4    -0.367166563991E+03   -0.18698E-02   -0.18353E-02 10206   0.193E-02-0.482E-03
CGA:   5    -0.367166929772E+03   -0.36578E-03   -0.36759E-03 10206   0.488E-03 0.711E-04
CGA:   6    -0.367166998924E+03   -0.69153E-04   -0.75812E-04 10206   0.130E-03 0.906E-04
CGA:   7    -0.367167043094E+03   -0.44170E-04   -0.58076E-04 10206   0.191E-03-0.891E-04
CGA:   8    -0.367167048246E+03   -0.51514E-05   -0.15292E-04 10206   0.419E-04 0.688E-04
  34 F= -.36716705E+03 E0= -.36716705E+03  d E =0.173488E-03  mag=    16.0000
       N       E                     dE             d eps       ncg     rms          ort
SDA:   1    -0.365234087358E+03    0.19330E+01    0.00000E+00 10206   0.457E+01 0.000E+00
CGA:   2    -0.366754486826E+03   -0.15204E+01   -0.15207E+01 10206   0.167E+01-0.318E-02
CGA:   3    -0.367032681969E+03   -0.27820E+00   -0.27838E+00 10206   0.533E+00 0.772E-02
CGA:   4    -0.367111213521E+03   -0.78532E-01   -0.78168E-01 10206   0.112E+00-0.772E-02
CGA:   5    -0.367129892097E+03   -0.18679E-01   -0.18824E-01 10206   0.296E-01 0.339E-02
CGA:   6    -0.367136155178E+03   -0.62631E-02   -0.62529E-02 10206   0.947E-02-0.128E-02
CGA:   7    -0.367137837126E+03   -0.16819E-02   -0.16979E-02 10206   0.349E-02 0.642E-03
CGA:   8    -0.367138806315E+03   -0.96919E-03   -0.10445E-02 10206   0.332E-02-0.109E-02
CGA:   9    -0.367139092626E+03   -0.28631E-03   -0.30675E-03 10206   0.137E-02 0.258E-03
CGA:  10    -0.367139301031E+03   -0.20840E-03   -0.22252E-03 10206   0.811E-03 0.236E-03
CGA:  11    -0.367139498926E+03   -0.19789E-03   -0.19821E-03 10206   0.619E-03-0.404E-03
CGA:  12    -0.367139540321E+03   -0.41395E-04   -0.41838E-04 10206   0.368E-03 0.597E-05
CGA:  13    -0.367139570731E+03   -0.30410E-04   -0.37994E-04 10206   0.183E-03 0.744E-04
CGA:  14    -0.367139620778E+03   -0.50047E-04   -0.58920E-04 10206   0.162E-03-0.129E-03
CGA:  15    -0.367139642992E+03   -0.22214E-04   -0.76700E-04 10206   0.489E-03-0.200E-03
CGA:  16    -0.367139652918E+03   -0.99260E-05   -0.34713E-04 10206   0.884E-04 0.171E-03
  35 F= -.36713965E+03 E0= -.36713965E+03  d E =0.273953E-01  mag=    16.0000
       N       E                     dE             d eps       ncg     rms          ort
SDA:   1    -0.366792999261E+03    0.34664E+00    0.00000E+00 10206   0.818E+00 0.000E+00
CGA:   2    -0.367074371307E+03   -0.28137E+00   -0.28079E+00 10206   0.318E+00 0.405E-02
CGA:   3    -0.367120533371E+03   -0.46162E-01   -0.46090E-01 10206   0.118E+00-0.389E-02
CGA:   4    -0.367138943789E+03   -0.18410E-01   -0.18504E-01 10206   0.199E-01 0.235E-02
CGA:   5    -0.367143300137E+03   -0.43563E-02   -0.43693E-02 10206   0.634E-02-0.110E-02
CGA:   6    -0.367144475748E+03   -0.11756E-02   -0.11760E-02 10206   0.205E-02 0.565E-04
CGA:   7    -0.367145007321E+03   -0.53157E-03   -0.57950E-03 10206   0.171E-02-0.623E-03
CGA:   8    -0.367145136004E+03   -0.12868E-03   -0.15087E-03 10206   0.642E-03 0.276E-03
CGA:   9    -0.367145229261E+03   -0.93257E-04   -0.10071E-03 10206   0.301E-03 0.109E-03
CGA:  10    -0.367145083359E+03    0.14590E-03   -0.22226E-03 10206   0.283E-02-0.853E-03
CGA:  11    -0.367145263690E+03   -0.18033E-03   -0.25983E-03 10206   0.475E-03 0.617E-03
CGA:  12    -0.367145364191E+03   -0.10050E-03   -0.10133E-03 10206   0.123E-03 0.207E-04
CGA:  13    -0.367145442780E+03   -0.78588E-04    0.31282E-04 10206   0.160E-03-0.812E-04
CGA:  14    -0.367145434421E+03    0.83584E-05   -0.68724E-05 10206   0.531E-04 0.895E-04
  36 F= -.36714543E+03 E0= -.36714543E+03  d E =-.578150E-02  mag=    16.0000
       N       E                     dE             d eps       ncg     rms          ort
SDA:   1    -0.366585829924E+03    0.55961E+00    0.00000E+00 10206   0.139E+01 0.000E+00
CGA:   2    -0.367027963637E+03   -0.44213E+00   -0.44289E+00 10206   0.667E+00-0.662E-02
CGA:   3    -0.367116431805E+03   -0.88468E-01   -0.88457E-01 10206   0.194E+00 0.898E-02
CGA:   4    -0.367149329096E+03   -0.32897E-01   -0.32821E-01 10206   0.337E-01-0.283E-02
CGA:   5    -0.367155525439E+03   -0.61963E-02   -0.62067E-02 10206   0.894E-02 0.997E-03
CGA:   6    -0.367157411514E+03   -0.18861E-02   -0.18908E-02 10206   0.328E-02-0.551E-03
CGA:   7    -0.367157876918E+03   -0.46540E-03   -0.48347E-03 10206   0.101E-02 0.449E-03
CGA:   8    -0.367158187788E+03   -0.31087E-03   -0.32805E-03 10206   0.706E-03-0.188E-03
CGA:   9    -0.367158270256E+03   -0.82467E-04   -0.89162E-04 10206   0.312E-03 0.151E-03
CGA:  10    -0.367158345174E+03   -0.74918E-04   -0.74915E-04 10206   0.142E-03 0.274E-04
CGA:  11    -0.367158294774E+03    0.50400E-04   -0.99889E-04 10206   0.114E-02-0.333E-03
CGA:  12    -0.367158349215E+03   -0.54441E-04   -0.94451E-04 10206   0.191E-03 0.293E-03
CGA:  13    -0.367158371131E+03   -0.21917E-04   -0.28942E-04 10206   0.772E-04 0.756E-04
CGA:  14    -0.367158384718E+03   -0.13587E-04   -0.38559E-04 10206   0.310E-03-0.167E-03
CGA:  15    -0.367158386324E+03   -0.16056E-05   -0.20145E-04 10206   0.670E-04 0.123E-03
  37 F= -.36715839E+03 E0= -.36715839E+03  d E =-.129519E-01  mag=    16.0000
       N       E                     dE             d eps       ncg     rms          ort
SDA:   1    -0.367083654908E+03    0.74730E-01    0.00000E+00 10206   0.167E+00 0.000E+00
CGA:   2    -0.367140787178E+03   -0.57132E-01   -0.56939E-01 10206   0.576E-01 0.137E-02
CGA:   3    -0.367150796913E+03   -0.10010E-01   -0.99795E-02 10206   0.199E-01-0.841E-03
CGA:   4    -0.367153681926E+03   -0.28850E-02   -0.28556E-02 10206   0.433E-02-0.481E-03
CGA:   5    -0.367154434560E+03   -0.75263E-03   -0.75110E-03 10206   0.119E-02-0.603E-04
CGA:   6    -0.367154595100E+03   -0.16054E-03   -0.17458E-03 10206   0.285E-03 0.262E-03
CGA:   7    -0.367154674813E+03   -0.79712E-04   -0.79075E-04 10206   0.135E-03 0.225E-04
CGA:   8    -0.367154692778E+03   -0.17966E-04   -0.21142E-04 10206   0.573E-04 0.577E-04
CGA:   9    -0.367154714940E+03   -0.22162E-04   -0.32447E-04 10206   0.113E-03-0.518E-04
CGA:  10    -0.367154735164E+03   -0.20224E-04   -0.19981E-04 10206   0.185E-04-0.804E-05
CGA:  11    -0.367154733940E+03    0.12243E-05   -0.75346E-06 10206   0.100E-04 0.122E-04
  38 F= -.36715473E+03 E0= -.36715473E+03  d E =0.365238E-02  mag=    16.0000
       N       E                     dE             d eps       ncg     rms          ort
SDA:   1    -0.367116401268E+03    0.38334E-01    0.00000E+00 10206   0.849E-01 0.000E+00
CGA:   2    -0.367147056329E+03   -0.30655E-01   -0.30561E-01 10206   0.241E-01 0.547E-03
CGA:   3    -0.367151740953E+03   -0.46846E-02   -0.46857E-02 10206   0.715E-02 0.174E-03
CGA:   4    -0.367152759816E+03   -0.10189E-02   -0.98918E-03 10206   0.200E-02-0.486E-03
CGA:   5    -0.367153063233E+03   -0.30342E-03   -0.30839E-03 10206   0.397E-03 0.163E-03
CGA:   6    -0.367153174219E+03   -0.11099E-03   -0.12737E-03 10206   0.303E-03-0.161E-03
CGA:   7    -0.367153186739E+03   -0.12521E-04   -0.18677E-04 10206   0.144E-03 0.641E-04
CGA:   8    -0.367153202249E+03   -0.15509E-04   -0.18744E-04 10206   0.548E-04 0.370E-04
CGA:   9    -0.367153231505E+03   -0.29256E-04    0.58429E-04 10206   0.372E-04-0.602E-05
CGA:  10    -0.367153237819E+03   -0.63141E-05   -0.63146E-05 10206   0.236E-04-0.320E-05
  39 F= -.36715324E+03 E0= -.36715324E+03  d E =0.149612E-02  mag=    16.0000
       N       E                     dE             d eps       ncg     rms          ort
SDA:   1    -0.367042880619E+03    0.11035E+00    0.00000E+00 10206   0.244E+00 0.000E+00
CGA:   2    -0.367132273227E+03   -0.89393E-01   -0.89092E-01 10206   0.657E-01 0.165E-02
CGA:   3    -0.367145775806E+03   -0.13503E-01   -0.13518E-01 10206   0.181E-01-0.163E-02
CGA:   4    -0.367147824225E+03   -0.20484E-02   -0.21481E-02 10206   0.409E-02 0.137E-02
CGA:   5    -0.367148812832E+03   -0.98861E-03   -0.10159E-02 10206   0.155E-02-0.690E-03
CGA:   6    -0.367149014918E+03   -0.20209E-03   -0.20596E-03 10206   0.419E-03 0.115E-03
CGA:   7    -0.367149112135E+03   -0.97217E-04   -0.97740E-04 10206   0.180E-03-0.208E-04
CGA:   8    -0.367149158008E+03   -0.45873E-04   -0.55245E-04 10206   0.170E-03-0.720E-04
CGA:   9    -0.367149162592E+03   -0.45838E-05   -0.92746E-05 10206   0.994E-04 0.431E-04
CGA:  10    -0.367149172146E+03   -0.95540E-05   -0.12763E-04 10206   0.433E-04 0.349E-04
CGA:  11    -0.367149195216E+03   -0.23071E-04    0.14403E-03 10206   0.222E-04-0.129E-04
CGA:  12    -0.367149201653E+03   -0.64362E-05    0.17090E-04 10206   0.155E-04-0.120E-05
  40 F= -.36714920E+03 E0= -.36714920E+03  d E =0.403617E-02  mag=    16.0000
       N       E                     dE             d eps       ncg     rms          ort
SDA:   1    -0.366659674905E+03    0.48952E+00    0.00000E+00 10206   0.109E+01 0.000E+00
CGA:   2    -0.367068119270E+03   -0.40844E+00   -0.40869E+00 10206   0.288E+00-0.132E-02
CGA:   3    -0.367123767374E+03   -0.55648E-01   -0.55646E-01 10206   0.801E-01 0.372E-02
CGA:   4    -0.367135062569E+03   -0.11295E-01   -0.11059E-01 10206   0.223E-01-0.439E-02
CGA:   5    -0.367138599505E+03   -0.35369E-02   -0.35712E-02 10206   0.431E-02 0.169E-02
CGA:   6    -0.367139652341E+03   -0.10528E-02   -0.10677E-02 10206   0.173E-02-0.359E-03
CGA:   7    -0.367139939299E+03   -0.28696E-03   -0.28835E-03 10206   0.605E-03 0.151E-03
CGA:   8    -0.367140105811E+03   -0.16651E-03   -0.17537E-03 10206   0.509E-03-0.117E-03
CGA:   9    -0.367140177554E+03   -0.71744E-04   -0.72010E-04 10206   0.222E-03 0.139E-04
CGA:  10    -0.367140231797E+03   -0.54242E-04   -0.55078E-04 10206   0.101E-03-0.175E-04
CGA:  11    -0.367140240971E+03   -0.91742E-05   -0.43277E-04 10206   0.358E-03-0.126E-03
CGA:  12    -0.367140264679E+03   -0.23708E-04   -0.30338E-04 10206   0.455E-04 0.532E-04
CGA:  13    -0.367140274148E+03   -0.94691E-05   -0.96380E-05 10206   0.189E-04 0.903E-05
  41 F= -.36714027E+03 E0= -.36714027E+03  d E =0.892750E-02  mag=    16.0000
       N       E                     dE             d eps       ncg     rms          ort
SDA:   1    -0.366790758224E+03    0.34951E+00    0.00000E+00 10206   0.790E+00 0.000E+00
CGA:   2    -0.367072110157E+03   -0.28135E+00   -0.28159E+00 10206   0.265E+00-0.155E-02
CGA:   3    -0.367113189835E+03   -0.41080E-01   -0.41162E-01 10206   0.966E-01 0.284E-02
CGA:   4    -0.367127225023E+03   -0.14035E-01   -0.13846E-01 10206   0.161E-01-0.341E-02
CGA:   5    -0.367130272630E+03   -0.30476E-02   -0.30528E-02 10206   0.386E-02 0.938E-03
CGA:   6    -0.367131137009E+03   -0.86438E-03   -0.86931E-03 10206   0.183E-02-0.430E-03
CGA:   7    -0.367131327222E+03   -0.19021E-03   -0.21465E-03 10206   0.513E-03 0.350E-03
CGA:   8    -0.367131492690E+03   -0.16547E-03   -0.17701E-03 10206   0.479E-03-0.127E-03
CGA:   9    -0.367131503829E+03   -0.11139E-04   -0.15663E-03 10206   0.159E-02-0.630E-03
CGA:  10    -0.367131595149E+03   -0.91320E-04   -0.13912E-03 10206   0.287E-03 0.376E-03
CGA:  11    -0.367131650943E+03   -0.55794E-04   -0.58200E-04 10206   0.116E-03 0.544E-04
CGA:  12    -0.367131710727E+03   -0.59784E-04    0.27133E-03 10206   0.117E-03-0.689E-04
CGA:  13    -0.367131706216E+03    0.45115E-05   -0.54937E-05 10206   0.371E-04 0.629E-04
  42 F= -.36713171E+03 E0= -.36713171E+03  d E =0.856793E-02  mag=    16.0000
       N       E                     dE             d eps       ncg     rms          ort
SDA:   1    -0.366962995858E+03    0.16871E+00    0.00000E+00 10206   0.402E+00 0.000E+00
CGA:   2    -0.367108079790E+03   -0.14508E+00   -0.14570E+00 10206   0.133E+00-0.360E-02
CGA:   3    -0.367128627258E+03   -0.20547E-01   -0.20705E-01 10206   0.436E-01 0.391E-02
CGA:   4    -0.367135286697E+03   -0.66594E-02   -0.66006E-02 10206   0.938E-02-0.126E-02
CGA:   5    -0.367136855197E+03   -0.15685E-02   -0.15823E-02 10206   0.226E-02 0.658E-03
CGA:   6    -0.367137431697E+03   -0.57650E-03   -0.60556E-03 10206   0.119E-02-0.510E-03
CGA:   7    -0.367137533020E+03   -0.10132E-03   -0.11687E-03 10206   0.396E-03 0.223E-03
CGA:   8    -0.367137600494E+03   -0.67473E-04   -0.71588E-04 10206   0.178E-03 0.101E-03
CGA:   9    -0.367137652705E+03   -0.52211E-04   -0.58713E-04 10206   0.228E-03-0.905E-04
CGA:  10    -0.367137654870E+03   -0.21651E-05   -0.15111E-04 10206   0.620E-04 0.101E-03
  43 F= -.36713765E+03 E0= -.36713765E+03  d E =-.594865E-02  mag=    16.0000
       N       E                     dE             d eps       ncg     rms          ort
SDA:   1    -0.367115620358E+03    0.22032E-01    0.00000E+00 10206   0.571E-01 0.000E+00
CGA:   2    -0.367133091729E+03   -0.17471E-01   -0.17391E-01 10206   0.315E-01 0.654E-03
CGA:   3    -0.367137317489E+03   -0.42258E-02   -0.41937E-02 10206   0.876E-02-0.633E-03
CGA:   4    -0.367138689011E+03   -0.13715E-02   -0.13877E-02 10206   0.143E-02 0.685E-03
CGA:   5    -0.367139046528E+03   -0.35752E-03   -0.36717E-03 10206   0.601E-03-0.180E-03
CGA:   6    -0.367139109733E+03   -0.63205E-04   -0.69099E-04 10206   0.162E-03 0.106E-03
CGA:   7    -0.367139155468E+03   -0.45735E-04   -0.52610E-04 10206   0.155E-03-0.755E-04
CGA:   8    -0.367139166215E+03   -0.10746E-04   -0.10877E-04 10206   0.960E-04 0.228E-05
CGA:   9    -0.367139168951E+03   -0.27365E-05   -0.73327E-05 10206   0.433E-04 0.416E-04
  44 F= -.36713917E+03 E0= -.36713917E+03  d E =-.151408E-02  mag=    16.0000
       N       E                     dE             d eps       ncg     rms          ort
SDA:   1    -0.367106353816E+03    0.32812E-01    0.00000E+00 10206   0.710E-01 0.000E+00
CGA:   2    -0.367132219619E+03   -0.25866E-01   -0.25740E-01 10206   0.188E-01 0.663E-03
CGA:   3    -0.367136167244E+03   -0.39476E-02   -0.39581E-02 10206   0.537E-02-0.421E-03
CGA:   4    -0.367136870091E+03   -0.70285E-03   -0.69477E-03 10206   0.139E-02-0.156E-03
CGA:   5    -0.367137093529E+03   -0.22344E-03   -0.22536E-03 10206   0.282E-03 0.126E-03
CGA:   6    -0.367137162444E+03   -0.68915E-04   -0.70534E-04 10206   0.126E-03-0.338E-04
CGA:   7    -0.367137169953E+03   -0.75089E-05   -0.11657E-04 10206   0.473E-04 0.529E-04
  45 F= -.36713717E+03 E0= -.36713717E+03  d E =0.199900E-02  mag=    16.0000
