       N       E                     dE             d eps       ncg     rms          ort
DAV:   1     0.112734285179E+05    0.11273E+05   -0.60955E+05   720   0.157E+03
DAV:   2    -0.738590120115E+03   -0.12012E+05   -0.11501E+05   720   0.445E+02
DAV:   3    -0.204814190353E+04   -0.13096E+04   -0.12789E+04   720   0.159E+02
DAV:   4    -0.212354001259E+04   -0.75398E+02   -0.74235E+02   720   0.401E+01
DAV:   5    -0.213053524250E+04   -0.69952E+01   -0.69384E+01   720   0.799E+00
SDA:   6    -0.147568474458E+04    0.65485E+03   -0.69384E+01   720   0.193E+04 0.000E+00
CGA:   7    -0.167214730205E+04   -0.19646E+03   -0.21415E+03   720   0.101E+04 0.217E+03
CGA:   8    -0.170073906424E+04   -0.28592E+02   -0.78659E+02   720   0.397E+03-0.591E+02
CGA:   9    -0.170365978148E+04   -0.29207E+01   -0.26232E+02   720   0.435E+03-0.717E+02
CGA:  10    -0.172038678132E+04   -0.16727E+02   -0.17914E+02   720   0.307E+03-0.229E+02
CGA:  11    -0.172664928278E+04   -0.62625E+01   -0.19335E+02   720   0.229E+03 0.328E+02
CGA:  12    -0.171596922112E+04    0.10680E+02   -0.16162E+02   720   0.243E+03-0.587E+02
CGA:  13    -0.172797609642E+04   -0.12007E+02   -0.58599E+01   720   0.189E+03-0.170E+03
CGA:  14    -0.173082973427E+04   -0.28536E+01   -0.15623E+02   720   0.387E+03 0.741E+00
CGA:  15    -0.172915791943E+04    0.16718E+01   -0.16482E+02   720   0.175E+03-0.108E+03
CGA:  16    -0.173731893248E+04   -0.81610E+01   -0.95486E+01   720   0.125E+03-0.729E+02
CGA:  17    -0.173684365367E+04    0.47528E+00   -0.30893E+01   720   0.938E+02-0.401E+02
CGA:  18    -0.173859724414E+04   -0.17536E+01   -0.25853E+01   720   0.139E+03-0.487E+02
CGA:  19    -0.173964878404E+04   -0.10515E+01   -0.78356E+01   720   0.528E+02-0.246E+02
CGA:  20    -0.174124359102E+04   -0.15948E+01   -0.13960E+01   720   0.272E+02 0.378E+01
CGA:  21    -0.174127670865E+04   -0.33118E-01   -0.12342E+01   720   0.349E+02-0.337E+02
CGA:  22    -0.174251515586E+04   -0.12384E+01   -0.10481E+01   720   0.395E+01-0.612E+01
CGA:  23    -0.174267618229E+04   -0.16103E+00   -0.15264E+00   720   0.261E+01 0.767E-01
CGA:  24    -0.174275876234E+04   -0.82580E-01   -0.90761E-01   720   0.295E+01-0.220E+00
CGA:  25    -0.174295615836E+04   -0.19740E+00   -0.13267E+00   720   0.199E+01 0.107E+01
CGA:  26    -0.174301745909E+04   -0.61301E-01   -0.10455E+00   720   0.302E+01-0.847E+00
CGA:  27    -0.174306066268E+04   -0.43204E-01   -0.29260E-01   720   0.339E+01 0.847E+00
CGA:  28    -0.174314648520E+04   -0.85823E-01   -0.63153E-01   720   0.166E+01 0.152E+01
CGA:  29    -0.174318540999E+04   -0.38925E-01   -0.27597E-01   720   0.865E+00 0.952E+00
CGA:  30    -0.174320881599E+04   -0.23406E-01   -0.27985E-01   720   0.610E+00-0.119E+00
CGA:  31    -0.174324013312E+04   -0.31317E-01   -0.30965E-01   720   0.946E+00 0.328E-02
CGA:  32    -0.174332012974E+04   -0.79997E-01   -0.79150E-01   720   0.794E+00-0.906E-01
CGA:  33    -0.174335921368E+04   -0.39084E-01   -0.39612E-01   720   0.531E+00-0.858E-03
CGA:  34    -0.174338779421E+04   -0.28581E-01   -0.28766E-01   720   0.731E+00 0.193E-02
CGA:  35    -0.174341861792E+04   -0.30824E-01   -0.32317E-01   720   0.453E+00-0.900E-02
CGA:  36    -0.174344094319E+04   -0.22325E-01   -0.24085E-01   720   0.297E+00-0.710E-02
CGA:  37    -0.174345483488E+04   -0.13892E-01   -0.13681E-01   720   0.177E+00 0.754E-02
CGA:  38    -0.174346147833E+04   -0.66434E-02   -0.64353E-02   720   0.807E-01 0.608E-02
CGA:  39    -0.174346718575E+04   -0.57074E-02   -0.57239E-02   720   0.108E+00 0.217E-03
CGA:  40    -0.174347374478E+04   -0.65590E-02   -0.66688E-02   720   0.947E-01 0.510E-02
CGA:  41    -0.174347742543E+04   -0.36806E-02   -0.37927E-02   720   0.391E-01-0.201E-02
CGA:  42    -0.174348024561E+04   -0.28202E-02   -0.28214E-02   720   0.620E-01-0.310E-02
CGA:  43    -0.174348500100E+04   -0.47554E-02   -0.48077E-02   720   0.601E-01-0.412E-02
CGA:  44    -0.174348739972E+04   -0.23987E-02   -0.23079E-02   720   0.326E-01-0.536E-02
CGA:  45    -0.174349003289E+04   -0.26332E-02   -0.27984E-02   720   0.513E-01-0.812E-02
CGA:  46    -0.174349216461E+04   -0.21317E-02   -0.20381E-02   720   0.236E-01-0.549E-02
CGA:  47    -0.174349348203E+04   -0.13174E-02   -0.12727E-02   720   0.250E-01-0.340E-02
CGA:  48    -0.174349454954E+04   -0.10675E-02   -0.98881E-03   720   0.155E-01-0.163E-02
CGA:  49    -0.174349564410E+04   -0.10946E-02   -0.10995E-02   720   0.278E-01-0.106E-02
CGA:  50    -0.174349695522E+04   -0.13111E-02   -0.12911E-02   720   0.125E-01-0.173E-02
CGA:  51    -0.174349741601E+04   -0.46078E-03   -0.46811E-03   720   0.738E-02 0.312E-03
CGA:  52    -0.174349778462E+04   -0.36861E-03   -0.39498E-03   720   0.772E-02 0.168E-02
CGA:  53    -0.174349827564E+04   -0.49102E-03   -0.51455E-03   720   0.674E-02 0.180E-02
CGA:  54    -0.174349879172E+04   -0.51609E-03   -0.52068E-03   720   0.770E-02 0.114E-02
CGA:  55    -0.174349914427E+04   -0.35254E-03   -0.39522E-03   720   0.416E-02 0.186E-02
CGA:  56    -0.174349930096E+04   -0.15669E-03   -0.19439E-03   720   0.260E-02 0.130E-02
CGA:  57    -0.174349946793E+04   -0.16697E-03   -0.17874E-03   720   0.255E-02 0.996E-03
CGA:  58    -0.174349961373E+04   -0.14580E-03   -0.16194E-03   720   0.195E-02 0.955E-03
CGA:  59    -0.174349972689E+04   -0.11316E-03   -0.12847E-03   720   0.168E-02 0.104E-02
CGA:  60    -0.174349979877E+04   -0.71879E-04   -0.68119E-04   720   0.102E-02-0.194E-03
CGA:  61    -0.174349988408E+04   -0.85311E-04   -0.86042E-04   720   0.126E-02-0.217E-04
CGA:  62    -0.174349997146E+04   -0.87385E-04   -0.23021E-03   720   0.697E-02-0.115E-02
CGA:  63    -0.174350014864E+04   -0.17718E-03   -0.19710E-03   720   0.898E-03 0.534E-03
CGA:  64    -0.174350020472E+04   -0.56073E-04   -0.55887E-04   720   0.715E-03-0.235E-04
CGA:  65    -0.174350025238E+04   -0.47661E-04   -0.47702E-04   720   0.357E-03-0.210E-04
CGA:  66    -0.174350028511E+04   -0.32733E-04   -0.30723E-04   720   0.598E-03 0.861E-04
CGA:  67    -0.174350033136E+04   -0.46249E-04   -0.47482E-04   720   0.255E-03 0.367E-03
CGA:  68    -0.174350035526E+04   -0.23902E-04   -0.36544E-04   720   0.108E-02-0.168E-03
CGA:  69    -0.174350039440E+04   -0.39143E-04   -0.35768E-04   720   0.248E-03-0.971E-04
CGA:  70    -0.174350039672E+04   -0.23133E-05   -0.65878E-05   720   0.116E-03 0.105E-03
   1 F= -.17435004E+04 E0= -.17434739E+04  d E =-.174350E+04  mag=    46.0000
       N       E                     dE             d eps       ncg     rms          ort
SDA:   1    -0.174349204048E+04    0.83539E-02    0.00000E+00   720   0.529E+00 0.000E+00
CGA:   2    -0.174350213475E+04   -0.10094E-01   -0.11188E-01   720   0.449E-02-0.227E-01
CGA:   3    -0.174350230469E+04   -0.16994E-03   -0.16097E-03   720   0.127E-02-0.314E-03
CGA:   4    -0.174350234173E+04   -0.37041E-04   -0.44401E-04   720   0.440E-03 0.288E-03
CGA:   5    -0.174350239756E+04   -0.55837E-04   -0.50107E-04   720   0.470E-03 0.184E-03
CGA:   6    -0.174350243512E+04   -0.37552E-04   -0.80265E-04   720   0.343E-02-0.750E-03
CGA:   7    -0.174350248287E+04   -0.47756E-04   -0.67530E-04   720   0.212E-03 0.381E-03
CGA:   8    -0.174350248972E+04   -0.68507E-05   -0.92280E-05   720   0.183E-03 0.961E-04
CGA:   9    -0.174350248162E+04    0.81008E-05   -0.57297E-04   720   0.218E-02-0.429E-03
CGA:  10    -0.174350253877E+04   -0.57144E-04   -0.62889E-04   720   0.428E-03 0.120E-03
CGA:  11    -0.174350257092E+04   -0.32155E-04   -0.40806E-04   720   0.870E-03-0.394E-03
CGA:  12    -0.174350258482E+04   -0.13895E-04   -0.22657E-04   720   0.169E-03 0.202E-03
CGA:  13    -0.174350259086E+04   -0.60471E-05   -0.74073E-05   720   0.592E-04 0.445E-04
CGA:  14    -0.174350253252E+04    0.58346E-04   -0.31796E-04   720   0.443E-02-0.262E-03
CGA:  15    -0.174350262244E+04   -0.89920E-04   -0.10886E-03   720   0.453E-03 0.897E-04
CGA:  16    -0.174350265652E+04   -0.34083E-04   -0.26617E-04   720   0.148E-03-0.145E-03
CGA:  17    -0.174350266653E+04   -0.10015E-04   -0.10220E-04   720   0.154E-03 0.196E-04
CGA:  18    -0.174350268028E+04   -0.13744E-04   -0.12757E-04   720   0.191E-03-0.263E-04
CGA:  19    -0.174350268863E+04   -0.83465E-05   -0.10620E-04   720   0.171E-03 0.534E-04
CGA:  20    -0.174350256421E+04    0.12441E-03   -0.10039E-03   720   0.839E-02-0.640E-03
CGA:  21    -0.174350281359E+04   -0.24937E-03   -0.26894E-03   720   0.526E-03 0.339E-03
CGA:  22    -0.174350282664E+04   -0.13056E-04   -0.19792E-04   720   0.910E-04 0.940E-04
CGA:  23    -0.174350283125E+04   -0.46101E-05   -0.54074E-05   720   0.796E-04 0.124E-04
   2 F= -.17435028E+04 E0= -.17434766E+04  d E =-.243454E-02  mag=    46.0000
       N       E                     dE             d eps       ncg     rms          ort
SDA:   1    -0.174328554616E+04    0.21728E+00    0.00000E+00   720   0.159E+01 0.000E+00
CGA:   2    -0.174335145350E+04   -0.65907E-01   -0.78798E-01   720   0.160E+01-0.148E+00
CGA:   3    -0.174349909200E+04   -0.14764E+00   -0.14755E+00   720   0.551E+00-0.103E-02
CGA:   4    -0.174353076498E+04   -0.31673E-01   -0.33995E-01   720   0.361E+00-0.174E-01
CGA:   5    -0.174355429415E+04   -0.23529E-01   -0.23704E-01   720   0.310E+00 0.133E-03
CGA:   6    -0.174356925512E+04   -0.14961E-01   -0.15631E-01   720   0.103E+00-0.843E-02
CGA:   7    -0.174357502523E+04   -0.57701E-02   -0.55391E-02   720   0.380E-01 0.219E-02
CGA:   8    -0.174357755240E+04   -0.25272E-02   -0.25013E-02   720   0.417E-01-0.186E-02
CGA:   9    -0.174358033913E+04   -0.27867E-02   -0.28092E-02   720   0.906E-02 0.710E-03
CGA:  10    -0.174358073485E+04   -0.39572E-03   -0.39527E-03   720   0.505E-02 0.523E-04
CGA:  11    -0.174358127185E+04   -0.53700E-03   -0.56940E-03   720   0.134E-01-0.169E-02
CGA:  12    -0.174358166673E+04   -0.39488E-03   -0.42425E-03   720   0.635E-02 0.627E-03
CGA:  13    -0.174358175561E+04   -0.88881E-04   -0.14805E-03   720   0.185E-02 0.869E-03
CGA:  14    -0.174358182202E+04   -0.66407E-04   -0.86689E-04   720   0.188E-02 0.458E-03
CGA:  15    -0.174358198113E+04   -0.15911E-03   -0.15251E-03   720   0.302E-02-0.291E-03
CGA:  16    -0.174358211458E+04   -0.13345E-03   -0.11933E-03   720   0.307E-02-0.366E-03
CGA:  17    -0.174358218762E+04   -0.73045E-04   -0.73063E-04   720   0.190E-02-0.717E-05
CGA:  18    -0.174358225424E+04   -0.66618E-04   -0.66966E-04   720   0.160E-02-0.228E-04
CGA:  19    -0.174358232652E+04   -0.72281E-04   -0.61572E-04   720   0.113E-02-0.324E-03
CGA:  20    -0.174358237822E+04   -0.51692E-04   -0.44427E-04   720   0.126E-02-0.282E-03
CGA:  21    -0.174358240340E+04   -0.25180E-04   -0.29218E-04   720   0.111E-02 0.895E-04
CGA:  22    -0.174358243542E+04   -0.32022E-04   -0.42646E-04   720   0.110E-02 0.297E-03
CGA:  23    -0.174358248248E+04   -0.47059E-04   -0.52263E-04   720   0.474E-03 0.192E-03
CGA:  24    -0.174358250571E+04   -0.23235E-04   -0.21633E-04   720   0.335E-03-0.524E-04
CGA:  25    -0.174358251454E+04   -0.88330E-05   -0.10959E-04   720   0.268E-03 0.684E-04
CGA:  26    -0.174358252527E+04   -0.10728E-04   -0.12570E-04   720   0.262E-03 0.675E-04
CGA:  27    -0.174358252088E+04    0.43887E-05   -0.62763E-04   720   0.205E-02-0.521E-03
CGA:  28    -0.174358256921E+04   -0.48327E-04   -0.60682E-04   720   0.271E-03 0.298E-03
CGA:  29    -0.174358257478E+04   -0.55712E-05   -0.10043E-04   720   0.118E-03 0.124E-03
   3 F= -.17435826E+04 E0= -.17435570E+04  d E =-.797435E-01  mag=    46.0000
       N       E                     dE             d eps       ncg     rms          ort
SDA:   1    -0.174230486444E+04    0.12777E+01    0.00000E+00   720   0.916E+01 0.000E+00
CGA:   2    -0.174262670783E+04   -0.32184E+00   -0.37673E+00   720   0.614E+01-0.272E+00
CGA:   3    -0.174331179108E+04   -0.68508E+00   -0.69967E+00   720   0.316E+01-0.281E+00
CGA:   4    -0.174344562662E+04   -0.13384E+00   -0.13661E+00   720   0.140E+01 0.531E-03
CGA:   5    -0.174357272549E+04   -0.12710E+00   -0.13012E+00   720   0.193E+01-0.956E-01
CGA:   6    -0.174365213587E+04   -0.79410E-01   -0.81864E-01   720   0.281E+00 0.938E-02
CGA:   7    -0.174367017684E+04   -0.18041E-01   -0.18029E-01   720   0.244E+00-0.396E-02
CGA:   8    -0.174368804870E+04   -0.17872E-01   -0.17873E-01   720   0.160E+00-0.249E-03
CGA:   9    -0.174369567034E+04   -0.76216E-02   -0.75662E-02   720   0.417E-01-0.275E-02
CGA:  10    -0.174369793929E+04   -0.22690E-02   -0.22892E-02   720   0.278E-01 0.180E-02
CGA:  11    -0.174370044790E+04   -0.25086E-02   -0.25798E-02   720   0.350E-01-0.326E-02
CGA:  12    -0.174370235497E+04   -0.19071E-02   -0.19177E-02   720   0.144E-01 0.235E-02
CGA:  13    -0.174370349187E+04   -0.11369E-02   -0.11368E-02   720   0.732E-02 0.281E-03
CGA:  14    -0.174370414490E+04   -0.65304E-03   -0.64666E-03   720   0.922E-02 0.344E-03
CGA:  15    -0.174370524582E+04   -0.11009E-02   -0.11856E-02   720   0.145E-01-0.154E-02
CGA:  16    -0.174370566750E+04   -0.42168E-03   -0.43233E-03   720   0.382E-02 0.166E-03
CGA:  17    -0.174370589977E+04   -0.23227E-03   -0.23254E-03   720   0.404E-02 0.403E-04
CGA:  18    -0.174370620144E+04   -0.30167E-03   -0.30674E-03   720   0.691E-02-0.745E-03
CGA:  19    -0.174370651395E+04   -0.31251E-03   -0.31175E-03   720   0.362E-02-0.571E-04
CGA:  20    -0.174370659799E+04   -0.84040E-04   -0.97561E-04   720   0.137E-02 0.296E-03
CGA:  21    -0.174370666482E+04   -0.66827E-04   -0.70306E-04   720   0.128E-02 0.198E-03
CGA:  22    -0.174370674681E+04   -0.81991E-04   -0.82349E-04   720   0.140E-02 0.526E-04
CGA:  23    -0.174370680443E+04   -0.57624E-04   -0.60299E-04   720   0.791E-03 0.114E-03
CGA:  24    -0.174370684947E+04   -0.45040E-04   -0.45121E-04   720   0.111E-02 0.378E-05
CGA:  25    -0.174370691700E+04   -0.67525E-04   -0.67213E-04   720   0.709E-03-0.125E-03
CGA:  26    -0.174370692947E+04   -0.12472E-04   -0.15937E-04   720   0.364E-03 0.937E-04
CGA:  27    -0.174370693769E+04   -0.82253E-05   -0.12722E-04   720   0.347E-03 0.150E-03
CGA:  28    -0.174370695760E+04   -0.19904E-04   -0.21903E-04   720   0.367E-03 0.135E-03
CGA:  29    -0.174370699173E+04   -0.34135E-04   -0.35391E-04   720   0.459E-03-0.113E-03
CGA:  30    -0.174370699546E+04   -0.37275E-05   -0.57947E-05   720   0.289E-03 0.496E-04
   4 F= -.17437070E+04 E0= -.17436824E+04  d E =-.124421E+00  mag=    46.0000
       N       E                     dE             d eps       ncg     rms          ort
SDA:   1    -0.174264583570E+04    0.10612E+01    0.00000E+00   720   0.608E+01 0.000E+00
CGA:   2    -0.174291014760E+04   -0.26431E+00   -0.27360E+00   720   0.487E+01 0.258E+00
CGA:   3    -0.174348493137E+04   -0.57478E+00   -0.58331E+00   720   0.210E+01-0.152E+00
CGA:   4    -0.174358455042E+04   -0.99619E-01   -0.98924E-01   720   0.114E+01-0.140E-01
CGA:   5    -0.174367786362E+04   -0.93313E-01   -0.94422E-01   720   0.120E+01-0.404E-01
CGA:   6    -0.174374278178E+04   -0.64918E-01   -0.64944E-01   720   0.266E+00 0.974E-02
CGA:   7    -0.174375734477E+04   -0.14563E-01   -0.14586E-01   720   0.145E+00-0.860E-03
CGA:   8    -0.174376897488E+04   -0.11630E-01   -0.11520E-01   720   0.137E+00 0.457E-02
CGA:   9    -0.174377574140E+04   -0.67665E-02   -0.67448E-02   720   0.310E-01-0.439E-02
CGA:  10    -0.174377759097E+04   -0.18496E-02   -0.18435E-02   720   0.195E-01 0.224E-02
CGA:  11    -0.174377989551E+04   -0.23045E-02   -0.24687E-02   720   0.363E-01-0.277E-02
CGA:  12    -0.174378112008E+04   -0.12246E-02   -0.12599E-02   720   0.959E-02 0.127E-02
CGA:  13    -0.174378196205E+04   -0.84197E-03   -0.82299E-03   720   0.127E-01 0.903E-03
CGA:  14    -0.174378270267E+04   -0.74062E-03   -0.72946E-03   720   0.976E-02-0.100E-02
CGA:  15    -0.174378337026E+04   -0.66759E-03   -0.66836E-03   720   0.780E-02-0.619E-04
CGA:  16    -0.174378397509E+04   -0.60483E-03   -0.61156E-03   720   0.100E-01-0.417E-03
CGA:  17    -0.174378446422E+04   -0.48913E-03   -0.48357E-03   720   0.407E-02-0.575E-03
CGA:  18    -0.174378465918E+04   -0.19496E-03   -0.19862E-03   720   0.269E-02 0.321E-03
CGA:  19    -0.174378492777E+04   -0.26859E-03   -0.28902E-03   720   0.584E-02-0.538E-03
CGA:  20    -0.174378512788E+04   -0.20010E-03   -0.20744E-03   720   0.256E-02 0.395E-03
CGA:  21    -0.174378517100E+04   -0.43127E-04   -0.62697E-04   720   0.820E-03 0.497E-03
CGA:  22    -0.174378520519E+04   -0.34190E-04   -0.38847E-04   720   0.848E-03 0.223E-03
CGA:  23    -0.174378528215E+04   -0.76956E-04   -0.11272E-03   720   0.246E-02-0.789E-03
CGA:  24    -0.174378536182E+04   -0.79665E-04   -0.86976E-04   720   0.533E-03 0.277E-03
CGA:  25    -0.174378538677E+04   -0.24954E-04   -0.26475E-04   720   0.181E-03 0.101E-03
CGA:  26    -0.174378539515E+04   -0.83803E-05   -0.99226E-05   720   0.121E-03 0.114E-03
   5 F= -.17437854E+04 E0= -.17437614E+04  d E =-.783997E-01  mag=    46.0000
       N       E                     dE             d eps       ncg     rms          ort
SDA:   1    -0.174201175998E+04    0.17736E+01    0.00000E+00   720   0.849E+01 0.000E+00
CGA:   2    -0.174243381762E+04   -0.42206E+00   -0.42846E+00   720   0.851E+01 0.217E+00
CGA:   3    -0.174338923678E+04   -0.95542E+00   -0.96640E+00   720   0.294E+01-0.224E+00
CGA:   4    -0.174354277710E+04   -0.15354E+00   -0.15201E+00   720   0.186E+01-0.555E-01
CGA:   5    -0.174369442056E+04   -0.15164E+00   -0.15196E+00   720   0.194E+01-0.202E-01
CGA:   6    -0.174378297032E+04   -0.88550E-01   -0.88732E-01   720   0.407E+00 0.140E-01
CGA:   7    -0.174380430105E+04   -0.21331E-01   -0.21459E-01   720   0.216E+00 0.903E-03
CGA:   8    -0.174382001229E+04   -0.15711E-01   -0.15625E-01   720   0.222E+00 0.557E-02
CGA:   9    -0.174383170989E+04   -0.11698E-01   -0.11709E-01   720   0.410E-01-0.272E-02
CGA:  10    -0.174383424100E+04   -0.25311E-02   -0.25282E-02   720   0.324E-01 0.238E-02
CGA:  11    -0.174383741492E+04   -0.31739E-02   -0.32506E-02   720   0.519E-01-0.235E-02
CGA:  12    -0.174383988804E+04   -0.24731E-02   -0.24868E-02   720   0.109E-01 0.635E-03
CGA:  13    -0.174384121827E+04   -0.13302E-02   -0.13581E-02   720   0.181E-01-0.434E-03
CGA:  14    -0.174384222285E+04   -0.10046E-02   -0.10151E-02   720   0.128E-01 0.159E-02
CGA:  15    -0.174384327608E+04   -0.10532E-02   -0.10740E-02   720   0.132E-01-0.182E-02
CGA:  16    -0.174384427712E+04   -0.10010E-02   -0.10139E-02   720   0.777E-02-0.561E-03
CGA:  17    -0.174384463419E+04   -0.35707E-03   -0.36934E-03   720   0.446E-02 0.725E-03
CGA:  18    -0.174384509008E+04   -0.45588E-03   -0.48806E-03   720   0.781E-02-0.944E-03
CGA:  19    -0.174384536388E+04   -0.27381E-03   -0.29103E-03   720   0.457E-02 0.869E-03
CGA:  20    -0.174384552309E+04   -0.15921E-03   -0.17887E-03   720   0.168E-02 0.656E-03
CGA:  21    -0.174384563904E+04   -0.11595E-03   -0.11253E-03   720   0.221E-02-0.519E-03
CGA:  22    -0.174384573739E+04   -0.98359E-04   -0.98253E-04   720   0.261E-02-0.265E-03
CGA:  23    -0.174384580228E+04   -0.64886E-04   -0.70062E-04   720   0.130E-02 0.135E-03
CGA:  24    -0.174384585639E+04   -0.54106E-04   -0.54529E-04   720   0.952E-03 0.977E-05
CGA:  25    -0.174384590309E+04   -0.46706E-04   -0.46839E-04   720   0.101E-02 0.240E-04
CGA:  26    -0.174384592293E+04   -0.19838E-04   -0.29364E-04   720   0.555E-03 0.307E-03
CGA:  27    -0.174384593110E+04   -0.81727E-05   -0.16615E-04   720   0.293E-03 0.231E-03
CGA:  28    -0.174384594822E+04   -0.17119E-04   -0.17892E-04   720   0.374E-03 0.525E-04
CGA:  29    -0.174384595995E+04   -0.11723E-04   -0.52315E-04   720   0.199E-02-0.657E-03
CGA:  30    -0.174384600491E+04   -0.44960E-04   -0.59470E-04   720   0.335E-03 0.485E-03
CGA:  31    -0.174384602210E+04   -0.17196E-04   -0.17063E-04   720   0.721E-04-0.695E-05
CGA:  32    -0.174384602680E+04   -0.46940E-05   -0.45064E-05   720   0.402E-04 0.307E-04
   6 F= -.17438460E+04 E0= -.17438227E+04  d E =-.606316E-01  mag=    46.0000
       N       E                     dE             d eps       ncg     rms          ort
SDA:   1    -0.173820956128E+04    0.56365E+01    0.00000E+00   720   0.203E+02 0.000E+00
CGA:   2    -0.173979571868E+04   -0.15862E+01   -0.15435E+01   720   0.283E+02 0.205E+01
CGA:   3    -0.174237761757E+04   -0.25819E+01   -0.26702E+01   720   0.143E+02-0.308E+01
CGA:   4    -0.174297277535E+04   -0.59516E+00   -0.55462E+00   720   0.584E+01-0.423E+00
CGA:   5    -0.174334429519E+04   -0.37152E+00   -0.36849E+00   720   0.496E+01 0.263E+00
CGA:   6    -0.174363663986E+04   -0.29234E+00   -0.29303E+00   720   0.339E+01 0.126E+00
CGA:   7    -0.174375867376E+04   -0.12203E+00   -0.12577E+00   720   0.702E+00-0.299E-01
CGA:   8    -0.174379362568E+04   -0.34952E-01   -0.35216E-01   720   0.560E+00 0.197E-01
CGA:   9    -0.174383103140E+04   -0.37406E-01   -0.37405E-01   720   0.452E+00-0.693E-02
CGA:  10    -0.174384965526E+04   -0.18624E-01   -0.18882E-01   720   0.136E+00 0.110E-01
CGA:  11    -0.174385625696E+04   -0.66017E-02   -0.66176E-02   720   0.804E-01-0.131E-02
CGA:  12    -0.174386372281E+04   -0.74658E-02   -0.72694E-02   720   0.909E-01 0.516E-02
CGA:  13    -0.174386910237E+04   -0.53796E-02   -0.53804E-02   720   0.491E-01-0.191E-02
CGA:  14    -0.174387133188E+04   -0.22295E-02   -0.22733E-02   720   0.291E-01 0.284E-02
CGA:  15    -0.174387461040E+04   -0.32785E-02   -0.33995E-02   720   0.348E-01-0.225E-02
CGA:  16    -0.174387711358E+04   -0.25032E-02   -0.24551E-02   720   0.203E-01 0.277E-02
CGA:  17    -0.174387851170E+04   -0.13981E-02   -0.14099E-02   720   0.260E-01-0.385E-02
CGA:  18    -0.174388038398E+04   -0.18723E-02   -0.18218E-02   720   0.130E-01 0.197E-02
CGA:  19    -0.174388111789E+04   -0.73391E-03   -0.73961E-03   720   0.782E-02 0.704E-03
CGA:  20    -0.174388201886E+04   -0.90097E-03   -0.10747E-02   720   0.200E-01-0.252E-02
CGA:  21    -0.174388242660E+04   -0.40774E-03   -0.43904E-03   720   0.839E-02 0.861E-03
CGA:  22    -0.174388258727E+04   -0.16067E-03   -0.20256E-03   720   0.374E-02 0.113E-02
CGA:  23    -0.174388276551E+04   -0.17823E-03   -0.18567E-03   720   0.432E-02 0.466E-03
CGA:  24    -0.174388297848E+04   -0.21297E-03   -0.20372E-03   720   0.356E-02-0.316E-03
CGA:  25    -0.174388308408E+04   -0.10560E-03   -0.10735E-03   720   0.296E-02 0.909E-04
CGA:  26    -0.174388317412E+04   -0.90042E-04   -0.99385E-04   720   0.271E-02 0.371E-03
CGA:  27    -0.174388329651E+04   -0.12239E-03   -0.12327E-03   720   0.264E-02 0.397E-04
CGA:  28    -0.174388342449E+04   -0.12798E-03   -0.11997E-03   720   0.213E-02-0.725E-03
CGA:  29    -0.174388346535E+04   -0.40859E-04   -0.38252E-04   720   0.121E-02-0.837E-04
CGA:  30    -0.174388348286E+04   -0.17509E-04   -0.25773E-04   720   0.947E-03 0.259E-03
CGA:  31    -0.174388350553E+04   -0.22668E-04   -0.32470E-04   720   0.947E-03 0.406E-03
SDA:  32    -0.174388354415E+04   -0.38620E-04   -0.43616E-04   720   0.674E-03 0.275E-03
CGA:  33    -0.174388355684E+04   -0.12694E-04   -0.88510E-04   720   0.289E-02-0.938E-03
CGA:  34    -0.174388360738E+04   -0.50538E-04   -0.71234E-04   720   0.415E-03 0.696E-03
CGA:  35    -0.174388362433E+04   -0.16954E-04   -0.17902E-04   720   0.111E-03 0.508E-04
CGA:  36    -0.174388363972E+04   -0.15386E-04    0.16979E-04   720   0.143E-03 0.264E-04
CGA:  37    -0.174388365040E+04   -0.10678E-04   -0.10150E-04   720   0.138E-03 0.102E-03
CGA:  38    -0.174388365169E+04   -0.12912E-05   -0.32372E-05   720   0.513E-04 0.669E-04
   7 F= -.17438837E+04 E0= -.17438610E+04  d E =-.376249E-01  mag=    46.0000
       N       E                     dE             d eps       ncg     rms          ort
SDA:   1    -0.174227649472E+04    0.16072E+01    0.00000E+00   720   0.533E+01 0.000E+00
CGA:   2    -0.174271030996E+04   -0.43382E+00   -0.42044E+00   720   0.903E+01 0.456E+00
CGA:   3    -0.174354071559E+04   -0.83041E+00   -0.87246E+00   720   0.341E+01-0.109E+01
CGA:   4    -0.174366042079E+04   -0.11971E+00   -0.11988E+00   720   0.137E+01 0.250E-01
CGA:   5    -0.174381349110E+04   -0.15307E+00   -0.15516E+00   720   0.125E+01-0.370E-01
CGA:   6    -0.174385584094E+04   -0.42350E-01   -0.43321E-01   720   0.255E+00 0.201E-01
CGA:   7    -0.174387263887E+04   -0.16798E-01   -0.16701E-01   720   0.168E+00 0.513E-02
CGA:   8    -0.174388525213E+04   -0.12613E-01   -0.12515E-01   720   0.132E+00 0.513E-02
CGA:   9    -0.174389128965E+04   -0.60375E-02   -0.60044E-02   720   0.329E-01-0.426E-02
CGA:  10    -0.174389318314E+04   -0.18935E-02   -0.18827E-02   720   0.184E-01 0.337E-02
CGA:  11    -0.174389517051E+04   -0.19874E-02   -0.20155E-02   720   0.288E-01-0.709E-03
CGA:  12    -0.174389642211E+04   -0.12516E-02   -0.12670E-02   720   0.572E-02 0.102E-02
CGA:  13    -0.174389696796E+04   -0.54586E-03   -0.90711E-03   720   0.186E-01-0.374E-02
CGA:  14    -0.174389745425E+04   -0.48629E-03   -0.56200E-03   720   0.308E-02 0.260E-02
CGA:  15    -0.174389765071E+04   -0.19646E-03   -0.19635E-03   720   0.310E-02-0.338E-04
CGA:  16    -0.174389803430E+04   -0.38358E-03   -0.37117E-03   720   0.377E-02 0.211E-03
CGA:  17    -0.174389831331E+04   -0.27902E-03   -0.28255E-03   720   0.317E-02-0.538E-03
CGA:  18    -0.174389851798E+04   -0.20467E-03   -0.22958E-03   720   0.474E-02-0.123E-02
CGA:  19    -0.174389859892E+04   -0.80937E-04   -0.95795E-04   720   0.284E-02 0.445E-03
CGA:  20    -0.174389868364E+04   -0.84725E-04   -0.10214E-03   720   0.217E-02 0.566E-03
CGA:  21    -0.174389885652E+04   -0.17288E-03   -0.17523E-03   720   0.275E-02-0.435E-03
CGA:  22    -0.174389896437E+04   -0.10785E-03   -0.10320E-03   720   0.292E-02-0.300E-03
CGA:  23    -0.174389901997E+04   -0.55598E-04   -0.70213E-04   720   0.144E-02 0.421E-03
CGA:  24    -0.174389904399E+04   -0.24029E-04   -0.37119E-04   720   0.695E-03 0.358E-03
CGA:  25    -0.174389907907E+04   -0.35078E-04   -0.34838E-04   720   0.685E-03-0.119E-04
CGA:  26    -0.174389910804E+04   -0.28964E-04   -0.60354E-04   720   0.216E-02-0.956E-03
CGA:  27    -0.174389915098E+04   -0.42940E-04   -0.59922E-04   720   0.463E-03 0.547E-03
CGA:  28    -0.174389918118E+04   -0.30202E-04   -0.30016E-04   720   0.188E-03-0.311E-04
CGA:  29    -0.174389919042E+04   -0.92448E-05   -0.93007E-05   720   0.118E-03 0.160E-04
   8 F= -.17438992E+04 E0= -.17438767E+04  d E =-.155387E-01  mag=    46.0000
       N       E                     dE             d eps       ncg     rms          ort
SDA:   1    -0.174369306794E+04    0.20611E+00    0.00000E+00   720   0.875E+00 0.000E+00
CGA:   2    -0.174375435392E+04   -0.61286E-01   -0.61893E-01   720   0.148E+01-0.374E-01
CGA:   3    -0.174385637037E+04   -0.10202E+00   -0.10191E+00   720   0.293E+00 0.576E-02
CGA:   4    -0.174387835941E+04   -0.21989E-01   -0.22147E-01   720   0.269E+00-0.578E-02
CGA:   5    -0.174389569003E+04   -0.17331E-01   -0.17342E-01   720   0.202E+00-0.275E-02
CGA:   6    -0.174390500837E+04   -0.93183E-02   -0.93434E-02   720   0.506E-01 0.587E-02
CGA:   7    -0.174390809743E+04   -0.30891E-02   -0.30896E-02   720   0.303E-01-0.157E-03
CGA:   8    -0.174391036848E+04   -0.22711E-02   -0.22389E-02   720   0.224E-01 0.192E-02
CGA:   9    -0.174391140854E+04   -0.10401E-02   -0.10516E-02   720   0.540E-02 0.792E-03
CGA:  10    -0.174391192010E+04   -0.51156E-03   -0.60342E-03   720   0.122E-01-0.181E-02
CGA:  11    -0.174391217555E+04   -0.25545E-03   -0.27080E-03   720   0.531E-02 0.540E-03
CGA:  12    -0.174391229851E+04   -0.12296E-03   -0.14407E-03   720   0.319E-02 0.639E-03
CGA:  13    -0.174391251334E+04   -0.21483E-03   -0.21511E-03   720   0.433E-02-0.676E-04
CGA:  14    -0.174391267431E+04   -0.16097E-03   -0.15107E-03   720   0.305E-02-0.409E-03
CGA:  15    -0.174391275013E+04   -0.75826E-04   -0.85218E-04   720   0.230E-02 0.381E-03
CGA:  16    -0.174391280460E+04   -0.54464E-04   -0.71163E-04   720   0.167E-02 0.613E-03
CGA:  17    -0.174391290727E+04   -0.10268E-03   -0.10316E-03   720   0.228E-02 0.100E-03
CGA:  18    -0.174391303750E+04   -0.13022E-03   -0.13414E-03   720   0.200E-02-0.165E-02
CGA:  19    -0.174391311958E+04   -0.82080E-04   -0.87258E-04   720   0.581E-03 0.545E-03
CGA:  20    -0.174391315405E+04   -0.34473E-04   -0.35582E-04   720   0.219E-03 0.246E-03
CGA:  21    -0.174391317518E+04   -0.21132E-04   -0.20090E-04   720   0.201E-03 0.893E-04
CGA:  22    -0.174391321127E+04   -0.36092E-04   -0.33410E-04   720   0.280E-03 0.409E-04
CGA:  23    -0.174391322873E+04   -0.17456E-04   -0.17727E-04   720   0.155E-03 0.710E-04
CGA:  24    -0.174391306264E+04    0.16609E-03   -0.91696E-04   720   0.361E-02-0.755E-03
CGA:  25    -0.174391323905E+04   -0.17642E-03   -0.18164E-03   720   0.669E-03 0.154E-03
CGA:  26    -0.174391326003E+04   -0.20975E-04   -0.29908E-04   720   0.228E-03 0.166E-03
CGA:  27    -0.174391327877E+04   -0.18738E-04   -0.18785E-04   720   0.170E-03 0.360E-05
CGA:  28    -0.174391328287E+04   -0.41076E-05   -0.79501E-05   720   0.109E-03 0.775E-04
CGA:  29    -0.174391329844E+04   -0.15567E-04   -0.15736E-04   720   0.182E-03-0.273E-04
CGA:  30    -0.174391331244E+04   -0.13999E-04   -0.87244E-05   720   0.148E-03-0.179E-03
CGA:  31    -0.174391330978E+04    0.26628E-05   -0.29091E-05   720   0.540E-04 0.768E-04
   9 F= -.17439133E+04 E0= -.17438906E+04  d E =-.141194E-01  mag=    46.0000
       N       E                     dE             d eps       ncg     rms          ort
SDA:   1    -0.174331546094E+04    0.59785E+00    0.00000E+00   720   0.173E+01 0.000E+00
CGA:   2    -0.174362193291E+04   -0.30647E+00   -0.31068E+00   720   0.487E+01-0.416E-01
CGA:   3    -0.174378890077E+04   -0.16697E+00   -0.17699E+00   720   0.661E+00-0.212E+00
CGA:   4    -0.174386293979E+04   -0.74039E-01   -0.73974E-01   720   0.709E+00 0.361E-02
CGA:   5    -0.174390310659E+04   -0.40167E-01   -0.40700E-01   720   0.115E+00 0.344E-02
CGA:   6    -0.174391264461E+04   -0.95380E-02   -0.95456E-02   720   0.127E+00-0.162E-02
CGA:   7    -0.174391906086E+04   -0.64162E-02   -0.64754E-02   720   0.320E-01 0.550E-02
CGA:   8    -0.174392132581E+04   -0.22649E-02   -0.22539E-02   720   0.208E-01-0.541E-03
CGA:   9    -0.174392246154E+04   -0.11357E-02   -0.11745E-02   720   0.114E-01 0.164E-02
CGA:  10    -0.174392319433E+04   -0.73280E-03   -0.72975E-03   720   0.723E-02-0.300E-03
CGA:  11    -0.174392389945E+04   -0.70511E-03   -0.71488E-03   720   0.479E-02-0.492E-03
CGA:  12    -0.174392421887E+04   -0.31943E-03   -0.32062E-03   720   0.181E-02 0.892E-04
CGA:  13    -0.174392442718E+04   -0.20831E-03   -0.24473E-03   720   0.778E-02-0.725E-03
CGA:  14    -0.174392461409E+04   -0.18690E-03   -0.18375E-03   720   0.637E-02-0.660E-04
CGA:  15    -0.174392471980E+04   -0.10571E-03   -0.12817E-03   720   0.193E-02 0.352E-03
CGA:  16    -0.174392477141E+04   -0.51612E-04   -0.62573E-04   720   0.153E-02 0.223E-03
CGA:  17    -0.174392484634E+04   -0.74926E-04   -0.72260E-04   720   0.177E-02-0.892E-04
CGA:  18    -0.174392497160E+04   -0.12526E-03   -0.12519E-03   720   0.454E-02-0.493E-03
CGA:  19    -0.174392504780E+04   -0.76195E-04   -0.73111E-04   720   0.259E-02-0.575E-04
CGA:  20    -0.174392507525E+04   -0.27451E-04   -0.38900E-04   720   0.961E-03 0.186E-03
CGA:  21    -0.174392508370E+04   -0.84510E-05   -0.19575E-04   720   0.800E-03 0.219E-03
CGA:  22    -0.174392509752E+04   -0.13819E-04   -0.23744E-04   720   0.701E-03 0.252E-03
CGA:  23    -0.174392511524E+04   -0.17725E-04   -0.21430E-04   720   0.446E-03 0.109E-03
CGA:  24    -0.174392513416E+04   -0.18916E-04   -0.18108E-04   720   0.661E-03-0.272E-04
CGA:  25    -0.174392515173E+04   -0.17573E-04   -0.17391E-04   720   0.725E-03-0.630E-05
CGA:  26    -0.174392516527E+04   -0.13541E-04   -0.14491E-04   720   0.516E-03 0.204E-04
CGA:  27    -0.174392518108E+04   -0.15806E-04   -0.14268E-04   720   0.537E-03-0.529E-04
CGA:  28    -0.174392520323E+04   -0.22148E-04   -0.15706E-04   720   0.366E-03-0.273E-03
CGA:  29    -0.174392522238E+04   -0.19158E-04   -0.18431E-04   720   0.367E-03-0.149E-03
CGA:  30    -0.174392522583E+04   -0.34489E-05   -0.65442E-05   720   0.238E-03 0.124E-03
  10 F= -.17439252E+04 E0= -.17439023E+04  d E =-.119161E-01  mag=    46.0000
       N       E                     dE             d eps       ncg     rms          ort
SDA:   1    -0.174027816983E+04    0.36471E+01    0.00000E+00   720   0.969E+01 0.000E+00
CGA:   2    -0.174268873120E+04   -0.24106E+01   -0.24263E+01   720   0.150E+02-0.850E-01
CGA:   3    -0.174318159466E+04   -0.49286E+00   -0.54379E+00   720   0.431E+01-0.493E+00
CGA:   4    -0.174359803930E+04   -0.41644E+00   -0.42793E+00   720   0.528E+01-0.245E+00
CGA:   5    -0.174381264659E+04   -0.21461E+00   -0.21136E+00   720   0.766E+00-0.322E-01
CGA:   6    -0.174385218902E+04   -0.39542E-01   -0.39618E-01   720   0.599E+00 0.111E-01
CGA:   7    -0.174390811877E+04   -0.55930E-01   -0.55893E-01   720   0.259E+00-0.213E-03
CGA:   8    -0.174391814927E+04   -0.10030E-01   -0.10135E-01   720   0.887E-01 0.103E-02
CGA:   9    -0.174392477193E+04   -0.66227E-02   -0.66056E-02   720   0.805E-01 0.115E-02
CGA:  10    -0.174393069328E+04   -0.59214E-02   -0.59416E-02   720   0.558E-01-0.173E-02
CGA:  11    -0.174393307885E+04   -0.23856E-02   -0.24410E-02   720   0.164E-01 0.329E-02
CGA:  12    -0.174393468184E+04   -0.16030E-02   -0.17919E-02   720   0.322E-01-0.461E-02
CGA:  13    -0.174393572915E+04   -0.10473E-02   -0.10642E-02   720   0.148E-01 0.797E-03
CGA:  14    -0.174393635896E+04   -0.62980E-03   -0.67025E-03   720   0.118E-01 0.218E-02
CGA:  15    -0.174393712188E+04   -0.76293E-03   -0.75638E-03   720   0.996E-02-0.662E-03
CGA:  16    -0.174393767153E+04   -0.54965E-03   -0.54614E-03   720   0.853E-02-0.676E-03
CGA:  17    -0.174393802128E+04   -0.34975E-03   -0.35696E-03   720   0.845E-02 0.445E-03
CGA:  18    -0.174393865579E+04   -0.63451E-03   -0.64112E-03   720   0.740E-02-0.672E-03
CGA:  19    -0.174393896593E+04   -0.31014E-03   -0.28944E-03   720   0.443E-02-0.119E-02
CGA:  20    -0.174393910236E+04   -0.13643E-03   -0.14936E-03   720   0.269E-02 0.628E-03
CGA:  21    -0.174393922813E+04   -0.12577E-03   -0.13598E-03   720   0.251E-02 0.686E-03
CGA:  22    -0.174393943707E+04   -0.20894E-03   -0.21499E-03   720   0.227E-02-0.580E-03
CGA:  23    -0.174393950475E+04   -0.67681E-04   -0.72087E-04   720   0.186E-02 0.246E-03
CGA:  24    -0.174393956285E+04   -0.58096E-04   -0.70877E-04   720   0.111E-02 0.535E-03
CGA:  25    -0.174393964462E+04   -0.81778E-04   -0.81813E-04   720   0.920E-03-0.135E-03
CGA:  26    -0.174393885564E+04    0.78898E-03   -0.20861E-03   720   0.262E-01-0.487E-02
CGA:  27    -0.174393947106E+04   -0.61541E-03   -0.73693E-03   720   0.502E-02 0.332E-02
CGA:  28    -0.174393969085E+04   -0.21979E-03   -0.23566E-03   720   0.112E-02 0.854E-03
CGA:  29    -0.174393977858E+04   -0.87736E-04   -0.89801E-04   720   0.101E-02-0.422E-03
CGA:  30    -0.174393978151E+04   -0.29245E-05   -0.12071E-04   720   0.609E-03 0.204E-03
CGA:  31    -0.174393978418E+04   -0.26743E-05   -0.14087E-04   720   0.431E-03 0.264E-03
CGA:  32    -0.174393980336E+04   -0.19182E-04   -0.22744E-04   720   0.497E-03 0.155E-03
CGA:  33    -0.174393984275E+04   -0.39388E-04   -0.43682E-04   720   0.905E-03-0.717E-03
CGA:  34    -0.174393986218E+04   -0.19424E-04   -0.25755E-04   720   0.191E-03 0.210E-03
CGA:  35    -0.174393987602E+04   -0.13846E-04   -0.13958E-04   720   0.874E-04-0.556E-04
CGA:  36    -0.174393987496E+04    0.10605E-05   -0.87290E-06   720   0.634E-04 0.445E-04
  11 F= -.17439399E+04 E0= -.17439168E+04  d E =-.146491E-01  mag=    46.0000
       N       E                     dE             d eps       ncg     rms          ort
SDA:   1    -0.173808538584E+04    0.58545E+01    0.00000E+00   720   0.159E+02 0.000E+00
CGA:   2    -0.174109604448E+04   -0.30107E+01   -0.31581E+01   720   0.549E+02-0.111E+01
CGA:   3    -0.174248628686E+04   -0.13902E+01   -0.16957E+01   720   0.108E+02-0.367E+01
CGA:   4    -0.174296347628E+04   -0.47719E+00   -0.45014E+00   720   0.799E+01-0.379E+00
CGA:   5    -0.174356376347E+04   -0.60029E+00   -0.59321E+00   720   0.509E+01 0.263E+00
CGA:   6    -0.174373329762E+04   -0.16953E+00   -0.17949E+00   720   0.217E+01-0.145E+00
CGA:   7    -0.174380977428E+04   -0.76477E-01   -0.64043E-01   720   0.564E+00 0.229E+00
CGA:   8    -0.174385385499E+04   -0.44081E-01   -0.43899E-01   720   0.105E+01 0.128E-01
CGA:   9    -0.174389762047E+04   -0.43765E-01   -0.44241E-01   720   0.464E+00-0.196E-02
CGA:  10    -0.174391153542E+04   -0.13915E-01   -0.14092E-01   720   0.206E+00-0.143E-01
CGA:  11    -0.174391810827E+04   -0.65729E-02   -0.66806E-02   720   0.822E-01 0.421E-02
CGA:  12    -0.174392338699E+04   -0.52787E-02   -0.52183E-02   720   0.141E+00 0.748E-02
CGA:  13    -0.174393129688E+04   -0.79099E-02   -0.79071E-02   720   0.599E-01-0.108E-02
CGA:  14    -0.174393399165E+04   -0.26948E-02   -0.26511E-02   720   0.391E-01-0.535E-02
CGA:  15    -0.174393526820E+04   -0.12765E-02   -0.12959E-02   720   0.194E-01 0.107E-02
CGA:  16    -0.174393653641E+04   -0.12682E-02   -0.12519E-02   720   0.237E-01 0.171E-02
CGA:  17    -0.174393783941E+04   -0.13030E-02   -0.12937E-02   720   0.199E-01-0.289E-02
CGA:  18    -0.174393933670E+04   -0.14973E-02   -0.15674E-02   720   0.197E-01-0.194E-02
CGA:  19    -0.174393982660E+04   -0.48990E-03   -0.52185E-03   720   0.753E-02 0.122E-02
CGA:  20    -0.174394030047E+04   -0.47388E-03   -0.47269E-03   720   0.886E-02 0.198E-03
CGA:  21    -0.174394082215E+04   -0.52168E-03   -0.52635E-03   720   0.102E-01-0.131E-02
CGA:  22    -0.174394126570E+04   -0.44355E-03   -0.44440E-03   720   0.711E-02 0.300E-03
CGA:  23    -0.174394152414E+04   -0.25844E-03   -0.26761E-03   720   0.502E-02 0.499E-03
CGA:  24    -0.174394190307E+04   -0.37893E-03   -0.39155E-03   720   0.576E-02-0.591E-03
CGA:  25    -0.174394203147E+04   -0.12840E-03   -0.13580E-03   720   0.223E-02 0.359E-03
CGA:  26    -0.174394207935E+04   -0.47882E-04   -0.61614E-04   720   0.162E-02 0.513E-03
CGA:  27    -0.174394217092E+04   -0.91564E-04   -0.93514E-04   720   0.244E-02 0.424E-03
CGA:  28    -0.174394236115E+04   -0.19023E-03   -0.20210E-03   720   0.360E-02-0.828E-03
CGA:  29    -0.174394243824E+04   -0.77095E-04   -0.64366E-04   720   0.259E-02-0.518E-03
CGA:  30    -0.174394248107E+04   -0.42826E-04   -0.43344E-04   720   0.134E-02 0.731E-05
CGA:  31    -0.174394250318E+04   -0.22107E-04   -0.28251E-04   720   0.107E-02 0.216E-03
SDA:  32    -0.174394253875E+04   -0.35575E-04   -0.38632E-04   720   0.123E-02 0.181E-03
CGA:  33    -0.174394259140E+04   -0.52648E-04   -0.11184E-03   720   0.421E-02-0.136E-02
CGA:  34    -0.174394264987E+04   -0.58475E-04   -0.85642E-04   720   0.391E-03 0.968E-03
CGA:  35    -0.174394265359E+04   -0.37141E-05   -0.95637E-05   720   0.198E-03 0.210E-03
CGA:  36    -0.174394267470E+04   -0.21109E-04    0.31074E-04   720   0.149E-03 0.141E-03
CGA:  37    -0.174394267846E+04   -0.37662E-05   -0.51859E-05   720   0.124E-03 0.122E-03
CGA:  38    -0.174394269250E+04   -0.14037E-04    0.11802E-04   720   0.105E-03 0.105E-03
CGA:  39    -0.174394269608E+04   -0.35813E-05   -0.41526E-05   720   0.918E-04 0.900E-04
  12 F= -.17439427E+04 E0= -.17439197E+04  d E =-.282112E-02  mag=    46.0000
       N       E                     dE             d eps       ncg     rms          ort
SDA:   1    -0.174277669626E+04    0.11660E+01    0.00000E+00   720   0.382E+01 0.000E+00
CGA:   2    -0.174318701483E+04   -0.41032E+00   -0.37837E+00   720   0.533E+01 0.626E+00
CGA:   3    -0.174362573342E+04   -0.43872E+00   -0.43991E+00   720   0.311E+01-0.374E-01
CGA:   4    -0.174377383606E+04   -0.14810E+00   -0.14799E+00   720   0.106E+01-0.438E-01
CGA:   5    -0.174385923236E+04   -0.85396E-01   -0.86584E-01   720   0.116E+01-0.339E-01
CGA:   6    -0.174391360581E+04   -0.54373E-01   -0.54445E-01   720   0.269E+00 0.138E-01
CGA:   7    -0.174392816669E+04   -0.14561E-01   -0.14543E-01   720   0.131E+00 0.317E-02
CGA:   8    -0.174393911297E+04   -0.10946E-01   -0.10833E-01   720   0.136E+00 0.337E-02
CGA:   9    -0.174394560472E+04   -0.64918E-02   -0.64670E-02   720   0.319E-01-0.429E-02
CGA:  10    -0.174394741905E+04   -0.18143E-02   -0.18019E-02   720   0.150E-01 0.186E-02
CGA:  11    -0.174394895239E+04   -0.15333E-02   -0.14679E-02   720   0.200E-01 0.160E-02
CGA:  12    -0.174395028577E+04   -0.13334E-02   -0.13655E-02   720   0.127E-01-0.454E-02
CGA:  13    -0.174395068412E+04   -0.39835E-03   -0.42175E-03   720   0.288E-02 0.197E-02
CGA:  14    -0.174395090938E+04   -0.22527E-03   -0.21709E-03   720   0.389E-02 0.733E-03
CGA:  15    -0.174395144171E+04   -0.53233E-03   -0.78792E-03   720   0.130E-01-0.241E-02
CGA:  16    -0.174395167476E+04   -0.23305E-03   -0.28703E-03   720   0.135E-02 0.147E-02
CGA:  17    -0.174395178876E+04   -0.11400E-03   -0.11656E-03   720   0.201E-02-0.131E-03
CGA:  18    -0.174395191078E+04   -0.12202E-03   -0.16087E-03   720   0.419E-02-0.133E-02
CGA:  19    -0.174395196887E+04   -0.58085E-04   -0.97567E-04   720   0.813E-03 0.105E-02
CGA:  20    -0.174395199563E+04   -0.26759E-04   -0.34762E-04   720   0.424E-03 0.328E-03
CGA:  21    -0.174395203027E+04   -0.34648E-04   -0.59271E-04   720   0.190E-02-0.581E-03
CGA:  22    -0.174395206013E+04   -0.29852E-04   -0.45597E-04   720   0.390E-03 0.438E-03
CGA:  23    -0.174395209213E+04   -0.32003E-04   -0.33504E-04   720   0.497E-03-0.126E-03
CGA:  24    -0.174395213449E+04   -0.42359E-04    0.12809E-03   720   0.933E-03-0.109E-03
CGA:  25    -0.174395219521E+04   -0.60724E-04   -0.68825E-04   720   0.173E-02-0.226E-03
CGA:  26    -0.174395220847E+04   -0.13257E-04   -0.26452E-04   720   0.915E-03 0.322E-03
CGA:  27    -0.174395222351E+04   -0.15037E-04   -0.25032E-04   720   0.725E-03 0.283E-03
CGA:  28    -0.174395227230E+04   -0.48791E-04   -0.47857E-04   720   0.781E-03-0.130E-03
CGA:  29    -0.174395230135E+04   -0.29052E-04   -0.16893E-04   720   0.280E-03-0.388E-03
CGA:  30    -0.174395230411E+04   -0.27631E-05   -0.23074E-05   720   0.185E-03-0.127E-04
  13 F= -.17439523E+04 E0= -.17439291E+04  d E =-.960803E-02  mag=    46.0000
       N       E                     dE             d eps       ncg     rms          ort
SDA:   1    -0.174362644835E+04    0.32585E+00    0.00000E+00   720   0.990E+00 0.000E+00
CGA:   2    -0.174375787502E+04   -0.13143E+00   -0.12737E+00   720   0.205E+01 0.588E-01
CGA:   3    -0.174388099025E+04   -0.12312E+00   -0.12322E+00   720   0.838E+00-0.135E-01
CGA:   4    -0.174391696850E+04   -0.35978E-01   -0.36072E-01   720   0.266E+00-0.527E-02
CGA:   5    -0.174394668771E+04   -0.29719E-01   -0.29722E-01   720   0.238E+00-0.326E-03
CGA:   6    -0.174395640383E+04   -0.97161E-02   -0.96107E-02   720   0.559E-01-0.823E-03
CGA:   7    -0.174396028815E+04   -0.38843E-02   -0.39126E-02   720   0.429E-01-0.216E-02
CGA:   8    -0.174396318291E+04   -0.28948E-02   -0.28813E-02   720   0.216E-01 0.966E-03
CGA:   9    -0.174396424065E+04   -0.10577E-02   -0.10531E-02   720   0.834E-02-0.377E-03
CGA:  10    -0.174396499885E+04   -0.75819E-03   -0.86004E-03   720   0.873E-02-0.212E-02
CGA:  11    -0.174396535799E+04   -0.35914E-03   -0.36243E-03   720   0.268E-02 0.854E-03
CGA:  12    -0.174396553583E+04   -0.17784E-03   -0.17753E-03   720   0.198E-02 0.339E-03
CGA:  13    -0.174396565578E+04   -0.11995E-03   -0.12247E-03   720   0.101E-02 0.578E-03
CGA:  14    -0.174396577394E+04   -0.11817E-03   -0.12509E-03   720   0.172E-02-0.191E-03
CGA:  15    -0.174396584269E+04   -0.68743E-04   -0.69872E-04   720   0.109E-02 0.104E-03
CGA:  16    -0.174396587196E+04   -0.29277E-04   -0.34500E-04   720   0.437E-03 0.173E-03
CGA:  17    -0.174396589805E+04   -0.26089E-04   -0.26239E-04   720   0.474E-03 0.220E-04
CGA:  18    -0.174396593592E+04   -0.37869E-04   -0.51922E-04   720   0.127E-02-0.305E-03
CGA:  19    -0.174396598232E+04   -0.46400E-04   -0.49363E-04   720   0.186E-03 0.136E-03
CGA:  20    -0.174396597826E+04    0.40630E-05   -0.28976E-04   720   0.170E-02-0.409E-03
CGA:  21    -0.174396600248E+04   -0.24224E-04   -0.37293E-04   720   0.188E-03 0.310E-03
CGA:  22    -0.174396601053E+04   -0.80495E-05   -0.84306E-05   720   0.698E-04 0.164E-04
CGA:  23    -0.174396602108E+04   -0.10544E-04    0.15478E-04   720   0.124E-03-0.383E-04
CGA:  24    -0.174396602058E+04    0.49398E-06   -0.22001E-05   720   0.446E-04 0.626E-04
  14 F= -.17439660E+04 E0= -.17439431E+04  d E =-.137165E-01  mag=    46.0000
       N       E                     dE             d eps       ncg     rms          ort
SDA:   1    -0.174384795356E+04    0.11807E+00    0.00000E+00   720   0.330E+00 0.000E+00
CGA:   2    -0.174391388384E+04   -0.65930E-01   -0.63917E-01   720   0.742E+00 0.155E-01
CGA:   3    -0.174394306909E+04   -0.29185E-01   -0.27905E-01   720   0.135E+00 0.226E-02
CGA:   4    -0.174395634520E+04   -0.13276E-01   -0.13138E-01   720   0.121E+00 0.394E-02
CGA:   5    -0.174396445316E+04   -0.81080E-02   -0.81090E-02   720   0.646E-01-0.399E-02
CGA:   6    -0.174396673179E+04   -0.22786E-02   -0.23631E-02   720   0.126E-01 0.318E-02
CGA:   7    -0.174396806861E+04   -0.13368E-02   -0.14265E-02   720   0.171E-01-0.207E-02
CGA:   8    -0.174396879206E+04   -0.72345E-03   -0.73372E-03   720   0.545E-02 0.706E-03
CGA:   9    -0.174396899672E+04   -0.20466E-03   -0.22304E-03   720   0.161E-02 0.672E-03
CGA:  10    -0.174396914119E+04   -0.14447E-03   -0.14204E-03   720   0.193E-02 0.178E-03
CGA:  11    -0.174396925536E+04   -0.11417E-03   -0.11551E-03   720   0.106E-02 0.131E-03
CGA:  12    -0.174396934539E+04   -0.90031E-04   -0.96961E-04   720   0.104E-02-0.324E-03
CGA:  13    -0.174396936959E+04   -0.24202E-04   -0.27008E-04   720   0.535E-03 0.101E-03
CGA:  14    -0.174396938995E+04   -0.20362E-04   -0.22084E-04   720   0.304E-03 0.671E-04
CGA:  15    -0.174396941734E+04   -0.27387E-04   -0.37847E-04   720   0.108E-02-0.217E-03
CGA:  16    -0.174396943865E+04   -0.21308E-04   -0.30118E-04   720   0.165E-03 0.238E-03
CGA:  17    -0.174396945243E+04   -0.13778E-04   -0.14415E-04   720   0.210E-03-0.754E-04
CGA:  18    -0.174396925564E+04    0.19679E-03   -0.10660E-03   720   0.536E-02-0.698E-03
CGA:  19    -0.174396943122E+04   -0.17558E-03   -0.20005E-03   720   0.102E-02 0.195E-03
CGA:  20    -0.174396947879E+04   -0.47576E-04   -0.48551E-04   720   0.268E-03 0.295E-04
CGA:  21    -0.174396950601E+04   -0.27218E-04   -0.26922E-04   720   0.159E-03-0.240E-04
CGA:  22    -0.174396950415E+04    0.18630E-05   -0.32973E-05   720   0.605E-04 0.600E-04
  15 F= -.17439695E+04 E0= -.17439466E+04  d E =-.348357E-02  mag=    46.0000
       N       E                     dE             d eps       ncg     rms          ort
SDA:   1    -0.173489750471E+04    0.90720E+01    0.00000E+00   720   0.242E+02 0.000E+00
CGA:   2    -0.173961625945E+04   -0.47188E+01   -0.49164E+01   720   0.799E+02-0.114E+01
CGA:   3    -0.174179668610E+04   -0.21804E+01   -0.32035E+01   720   0.167E+02-0.129E+02
CGA:   4    -0.174265451265E+04   -0.85783E+00   -0.82433E+00   720   0.109E+02 0.146E+00
CGA:   5    -0.174332034905E+04   -0.66584E+00   -0.67795E+00   720   0.885E+01-0.167E+00
CGA:   6    -0.174365320230E+04   -0.33285E+00   -0.40277E+00   720   0.357E+01-0.727E+00
CGA:   7    -0.174376059824E+04   -0.10740E+00   -0.11801E+00   720   0.158E+01-0.214E+00
CGA:   8    -0.174383454543E+04   -0.73947E-01   -0.75533E-01   720   0.111E+01-0.138E-01
CGA:   9    -0.174389571705E+04   -0.61172E-01   -0.60901E-01   720   0.903E+00-0.135E-01
CGA:  10    -0.174392848044E+04   -0.32763E-01   -0.32894E-01   720   0.286E+00 0.129E-01
CGA:  11    -0.174394363750E+04   -0.15157E-01   -0.15010E-01   720   0.216E+00 0.709E-02
CGA:  12    -0.174395548331E+04   -0.11846E-01   -0.11708E-01   720   0.176E+00-0.327E-02
CGA:  13    -0.174396509865E+04   -0.96153E-02   -0.95869E-02   720   0.987E-01-0.551E-03
CGA:  14    -0.174396953549E+04   -0.44368E-02   -0.45022E-02   720   0.528E-01 0.299E-03
CGA:  15    -0.174397228380E+04   -0.27483E-02   -0.27425E-02   720   0.413E-01-0.831E-03
CGA:  16    -0.174397510507E+04   -0.28213E-02   -0.28292E-02   720   0.359E-01 0.621E-03
CGA:  17    -0.174397719540E+04   -0.20903E-02   -0.20756E-02   720   0.175E-01-0.695E-03
CGA:  18    -0.174397804274E+04   -0.84734E-03   -0.83640E-03   720   0.159E-01-0.381E-03
CGA:  19    -0.174397962688E+04   -0.15841E-02   -0.15807E-02   720   0.141E-01 0.121E-03
CGA:  20    -0.174398045244E+04   -0.82556E-03   -0.78746E-03   720   0.119E-01-0.186E-02
CGA:  21    -0.174398110335E+04   -0.65091E-03   -0.64321E-03   720   0.797E-02-0.659E-03
CGA:  22    -0.174398157083E+04   -0.46748E-03   -0.47102E-03   720   0.729E-02 0.255E-03
CGA:  23    -0.174398208721E+04   -0.51638E-03   -0.51375E-03   720   0.600E-02-0.474E-03
CGA:  24    -0.174398237710E+04   -0.28989E-03   -0.30116E-03   720   0.381E-02 0.538E-03
CGA:  25    -0.174398269152E+04   -0.31442E-03   -0.31681E-03   720   0.457E-02-0.732E-03
CGA:  26    -0.174398296211E+04   -0.27059E-03   -0.27095E-03   720   0.451E-02-0.106E-02
CGA:  27    -0.174398303383E+04   -0.71723E-04   -0.10186E-03   720   0.167E-02 0.705E-03
CGA:  28    -0.174398307505E+04   -0.41213E-04   -0.59772E-04   720   0.130E-02 0.466E-03
CGA:  29    -0.174398321072E+04   -0.13567E-03   -0.14195E-03   720   0.268E-02-0.371E-03
CGA:  30    -0.174398328588E+04   -0.75156E-04   -0.61895E-04   720   0.251E-02-0.337E-03
CGA:  31    -0.174398333514E+04   -0.49260E-04   -0.52390E-04   720   0.156E-02 0.708E-04
SDA:  32    -0.174398335856E+04   -0.23422E-04   -0.34260E-04   720   0.923E-03 0.249E-03
CGA:  33    -0.174398342898E+04   -0.70426E-04   -0.76094E-04   720   0.144E-02-0.299E-03
CGA:  34    -0.174398347756E+04   -0.48576E-04   -0.47826E-04   720   0.513E-03-0.541E-04
CGA:  35    -0.174398348391E+04   -0.63538E-05   -0.12534E-04   720   0.279E-03 0.161E-03
CGA:  36    -0.174398349026E+04   -0.63461E-05   -0.11526E-04   720   0.221E-03 0.173E-03
CGA:  37    -0.174398350165E+04   -0.11386E-04   -0.22537E-04   720   0.991E-03-0.265E-03
CGA:  38    -0.174398351312E+04   -0.11477E-04   -0.20245E-04   720   0.769E-04 0.214E-03
CGA:  39    -0.174398351298E+04    0.14801E-06   -0.17214E-05   720   0.448E-04 0.447E-04
  16 F= -.17439835E+04 E0= -.17439609E+04  d E =-.140088E-01  mag=    46.0000
       N       E                     dE             d eps       ncg     rms          ort
SDA:   1    -0.173850016592E+04    0.54833E+01    0.00000E+00   720   0.148E+02 0.000E+00
CGA:   2    -0.174002931733E+04   -0.15292E+01   -0.14255E+01   720   0.255E+02 0.253E+01
CGA:   3    -0.174226876048E+04   -0.22394E+01   -0.23800E+01   720   0.185E+02-0.498E+01
CGA:   4    -0.174291086721E+04   -0.64211E+00   -0.62281E+00   720   0.332E+01-0.186E+00
CGA:   5    -0.174315465852E+04   -0.24379E+00   -0.24662E+00   720   0.625E+01-0.142E+00
CGA:   6    -0.174343578033E+04   -0.28112E+00   -0.28161E+00   720   0.729E+00 0.399E-01
CGA:   7    -0.174348288404E+04   -0.47104E-01   -0.46968E-01   720   0.649E+00 0.163E-01
CGA:   8    -0.174352168720E+04   -0.38803E-01   -0.38791E-01   720   0.527E+00 0.174E-02
CGA:   9    -0.174354845368E+04   -0.26766E-01   -0.26851E-01   720   0.212E+00-0.237E-02
CGA:  10    -0.174355689082E+04   -0.84371E-02   -0.85581E-02   720   0.975E-01 0.371E-02
CGA:  11    -0.174356433539E+04   -0.74446E-02   -0.74701E-02   720   0.996E-01-0.272E-02
CGA:  12    -0.174357279278E+04   -0.84574E-02   -0.83449E-02   720   0.466E-01 0.410E-02
CGA:  13    -0.174357478381E+04   -0.19910E-02   -0.19570E-02   720   0.327E-01-0.338E-02
CGA:  14    -0.174357740289E+04   -0.26191E-02   -0.25504E-02   720   0.188E-01 0.304E-02
CGA:  15    -0.174357870778E+04   -0.13049E-02   -0.13084E-02   720   0.203E-01-0.152E-02
CGA:  16    -0.174358001017E+04   -0.13024E-02   -0.13112E-02   720   0.134E-01-0.107E-02
CGA:  17    -0.174358082836E+04   -0.81819E-03   -0.81733E-03   720   0.458E-02 0.332E-03
CGA:  18    -0.174358110368E+04   -0.27531E-03   -0.27768E-03   720   0.461E-02 0.902E-03
CGA:  19    -0.174358159831E+04   -0.49464E-03   -0.67781E-03   720   0.140E-01-0.300E-02
CGA:  20    -0.174358184739E+04   -0.24908E-03   -0.32403E-03   720   0.214E-02 0.194E-02
CGA:  21    -0.174358195345E+04   -0.10605E-03   -0.10904E-03   720   0.106E-02 0.174E-03
CGA:  22    -0.174358081200E+04    0.11414E-02   -0.63549E-03   720   0.595E-01-0.471E-02
CGA:  23    -0.174358199796E+04   -0.11860E-02   -0.13277E-02   720   0.618E-02 0.454E-02
CGA:  24    -0.174358230241E+04   -0.30445E-03   -0.32138E-03   720   0.215E-02 0.587E-03
CGA:  25    -0.174358239778E+04   -0.95376E-04   -0.85308E-04   720   0.696E-03-0.120E-03
CGA:  26    -0.174358242901E+04   -0.31227E-04   -0.36927E-04   720   0.398E-03 0.131E-03
CGA:  27    -0.174358247087E+04   -0.41861E-04   -0.38592E-04   720   0.108E-02-0.187E-03
CGA:  28    -0.174358249945E+04   -0.28582E-04   -0.22588E-04   720   0.147E-02-0.102E-03
CGA:  29    -0.174358253086E+04   -0.31401E-04   -0.32694E-04   720   0.908E-03 0.122E-04
CGA:  30    -0.174358257048E+04   -0.39620E-04   -0.38407E-04   720   0.109E-02-0.235E-04
CGA:  31    -0.174358260839E+04   -0.37915E-04   -0.32610E-04   720   0.649E-03-0.905E-04
CGA:  32    -0.174358262872E+04   -0.20328E-04   -0.22002E-04   720   0.905E-03 0.291E-04
CGA:  33    -0.174358266539E+04   -0.36672E-04   -0.43600E-04   720   0.963E-03 0.186E-03
CGA:  34    -0.174358270637E+04   -0.40975E-04   -0.38615E-04   720   0.460E-03-0.531E-04
CGA:  35    -0.174358121499E+04    0.14914E-02   -0.85498E-03   720   0.528E-01-0.381E-02
CGA:  36    -0.174358231915E+04   -0.11042E-02   -0.11817E-02   720   0.458E-02 0.609E-02
CGA:  37    -0.174358249465E+04   -0.17550E-03   -0.20622E-03   720   0.214E-02 0.463E-03
CGA:  38    -0.174358263274E+04   -0.13808E-03   -0.13383E-03   720   0.155E-02-0.652E-05
CGA:  39    -0.174358269555E+04   -0.62809E-04   -0.66570E-04   720   0.745E-03 0.476E-04
CGA:  40    -0.174358276259E+04   -0.67047E-04   -0.54779E-04   720   0.109E-02-0.223E-03
CGA:  41    -0.174358279737E+04   -0.34782E-04   -0.29389E-04   720   0.503E-03-0.648E-04
CGA:  42    -0.174358279929E+04   -0.19203E-05   -0.10362E-04   720   0.234E-03 0.841E-04
  17 F= -.17435828E+04 E0= -.17435599E+04  d E =0.400714E+00  mag=    46.0000
       N       E                     dE             d eps       ncg     rms          ort
SDA:   1    -0.174307922811E+04    0.50357E+00    0.00000E+00   720   0.214E+01 0.000E+00
CGA:   2    -0.174337037948E+04   -0.29115E+00   -0.29095E+00   720   0.605E+01 0.633E-02
CGA:   3    -0.174373850510E+04   -0.36813E+00   -0.35970E+00   720   0.112E+01 0.429E-01
CGA:   4    -0.174380108803E+04   -0.62583E-01   -0.63095E-01   720   0.648E+00 0.675E-02
CGA:   5    -0.174382893919E+04   -0.27851E-01   -0.24641E-01   720   0.407E+00 0.835E-01
CGA:   6    -0.174386260031E+04   -0.33661E-01   -0.33924E-01   720   0.376E+00-0.104E-02
CGA:   7    -0.174387678782E+04   -0.14188E-01   -0.14619E-01   720   0.164E+00-0.187E-01
CGA:   8    -0.174388195171E+04   -0.51639E-02   -0.49893E-02   720   0.418E-01 0.101E-01
CGA:   9    -0.174388426665E+04   -0.23149E-02   -0.23713E-02   720   0.537E-01 0.215E-02
CGA:  10    -0.174388759236E+04   -0.33257E-02   -0.33001E-02   720   0.466E-01-0.914E-03
CGA:  11    -0.174388962075E+04   -0.20284E-02   -0.20009E-02   720   0.260E-01-0.531E-03
CGA:  12    -0.174389050138E+04   -0.88063E-03   -0.90981E-03   720   0.104E-01 0.813E-03
CGA:  13    -0.174389095147E+04   -0.45009E-03   -0.43878E-03   720   0.815E-02-0.218E-03
CGA:  14    -0.174389161033E+04   -0.65886E-03   -0.65836E-03   720   0.149E-01-0.469E-03
CGA:  15    -0.174389208191E+04   -0.47159E-03   -0.49634E-03   720   0.602E-02 0.444E-03
CGA:  16    -0.174389233811E+04   -0.25620E-03   -0.24505E-03   720   0.356E-02-0.312E-03
CGA:  17    -0.174389251923E+04   -0.18112E-03   -0.14899E-03   720   0.321E-02-0.953E-03
CGA:  18    -0.174389269341E+04   -0.17418E-03   -0.17420E-03   720   0.370E-02 0.225E-05
CGA:  19    -0.174389277174E+04   -0.78337E-04   -0.10124E-03   720   0.116E-02 0.435E-03
CGA:  20    -0.174389284794E+04   -0.76194E-04   -0.75973E-04   720   0.145E-02-0.117E-04
CGA:  21    -0.174389291151E+04   -0.63572E-04   -0.61794E-04   720   0.985E-03-0.407E-04
CGA:  22    -0.174389292888E+04   -0.17368E-04   -0.28334E-04   720   0.555E-03 0.256E-03
CGA:  23    -0.174389294265E+04   -0.13773E-04   -0.20881E-04   720   0.362E-03 0.174E-03
CGA:  24    -0.174389297876E+04   -0.36108E-04   -0.49212E-04   720   0.144E-02-0.370E-03
CGA:  25    -0.174389301486E+04   -0.36097E-04   -0.39316E-04   720   0.196E-03 0.698E-04
CGA:  26    -0.174389302696E+04   -0.12105E-04   -0.12058E-04   720   0.121E-03-0.485E-05
CGA:  27    -0.174389303795E+04   -0.10990E-04   -0.10697E-04   720   0.143E-03 0.126E-04
CGA:  28    -0.174389303759E+04    0.36133E-06   -0.39941E-05   720   0.836E-04 0.100E-03
CGA:  29    -0.174389303290E+04    0.46878E-05   -0.20091E-04   720   0.824E-03-0.140E-03
CGA:  30    -0.174389307234E+04   -0.39434E-04   -0.32289E-04   720   0.331E-03-0.208E-03
CGA:  31    -0.174389306822E+04    0.41140E-05   -0.39077E-05   720   0.140E-03 0.139E-03
  18 F= -.17438931E+04 E0= -.17438707E+04  d E =-.310269E+00  mag=    46.0000
       N       E                     dE             d eps       ncg     rms          ort
SDA:   1    -0.174371446304E+04    0.17861E+00    0.00000E+00   720   0.754E+00 0.000E+00
CGA:   2    -0.174378007155E+04   -0.65609E-01   -0.66115E-01   720   0.198E+01-0.235E-01
CGA:   3    -0.174393146083E+04   -0.15139E+00   -0.15110E+00   720   0.364E+00 0.202E-01
CGA:   4    -0.174394751584E+04   -0.16055E-01   -0.15828E-01   720   0.218E+00-0.936E-03
CGA:   5    -0.174396028799E+04   -0.12772E-01   -0.12692E-01   720   0.165E+00 0.866E-03
CGA:   6    -0.174397165186E+04   -0.11364E-01   -0.11361E-01   720   0.103E+00 0.325E-03
CGA:   7    -0.174397540227E+04   -0.37504E-02   -0.36632E-02   720   0.281E-01-0.313E-02
CGA:   8    -0.174397700290E+04   -0.16006E-02   -0.16126E-02   720   0.161E-01 0.172E-02
CGA:   9    -0.174397809923E+04   -0.10963E-02   -0.10961E-02   720   0.145E-01-0.265E-03
CGA:  10    -0.174397912265E+04   -0.10234E-02   -0.10328E-02   720   0.101E-01-0.137E-02
CGA:  11    -0.174397943328E+04   -0.31062E-03   -0.35508E-03   720   0.397E-02 0.171E-02
CGA:  12    -0.174397963841E+04   -0.20513E-03   -0.21314E-03   720   0.195E-02 0.523E-03
CGA:  13    -0.174397981514E+04   -0.17673E-03   -0.28011E-03   720   0.111E-01-0.164E-02
CGA:  14    -0.174398001063E+04   -0.19550E-03   -0.24866E-03   720   0.102E-02 0.117E-02
CGA:  15    -0.174398008743E+04   -0.76793E-04   -0.77354E-04   720   0.977E-03-0.136E-03
CGA:  16    -0.174398005714E+04    0.30285E-04   -0.13144E-03   720   0.948E-02-0.178E-02
CGA:  17    -0.174398021680E+04   -0.15965E-03   -0.21664E-03   720   0.103E-02 0.117E-02
CGA:  18    -0.174398025886E+04   -0.42063E-04   -0.48789E-04   720   0.396E-03 0.304E-03
CGA:  19    -0.174398028723E+04   -0.28367E-04   -0.25660E-04   720   0.352E-03-0.164E-03
CGA:  20    -0.174398028826E+04   -0.10291E-05   -0.52017E-05   720   0.327E-03 0.106E-03
  19 F= -.17439803E+04 E0= -.17439580E+04  d E =-.872200E-01  mag=    46.0000
       N       E                     dE             d eps       ncg     rms          ort
SDA:   1    -0.174379520321E+04    0.18508E+00    0.00000E+00   720   0.710E+00 0.000E+00
CGA:   2    -0.174383939623E+04   -0.44193E-01   -0.44171E-01   720   0.103E+01 0.895E-02
CGA:   3    -0.174395412467E+04   -0.11473E+00   -0.11684E+00   720   0.564E+00-0.433E-01
CGA:   4    -0.174397920043E+04   -0.25076E-01   -0.25606E-01   720   0.212E+00 0.218E-02
CGA:   5    -0.174398767883E+04   -0.84784E-02   -0.85349E-02   720   0.101E+00 0.780E-02
CGA:   6    -0.174399838378E+04   -0.10705E-01   -0.10980E-01   720   0.765E-01-0.659E-02
CGA:   7    -0.174400190284E+04   -0.35191E-02   -0.35566E-02   720   0.297E-01 0.260E-02
CGA:   8    -0.174400311057E+04   -0.12077E-02   -0.12542E-02   720   0.124E-01 0.288E-02
CGA:   9    -0.174400407927E+04   -0.96870E-03   -0.97674E-03   720   0.926E-02-0.568E-03
CGA:  10    -0.174400457254E+04   -0.49327E-03   -0.49710E-03   720   0.879E-02 0.613E-03
CGA:  11    -0.174400526680E+04   -0.69427E-03   -0.69887E-03   720   0.308E-02-0.406E-03
CGA:  12    -0.174400539781E+04   -0.13101E-03   -0.12495E-03   720   0.223E-02-0.311E-03
CGA:  13    -0.174400556914E+04   -0.17133E-03   -0.16173E-03   720   0.191E-02 0.504E-03
CGA:  14    -0.174400574865E+04   -0.17951E-03   -0.20004E-03   720   0.341E-02-0.901E-03
CGA:  15    -0.174400579977E+04   -0.51117E-04   -0.49313E-04   720   0.208E-02-0.439E-04
CGA:  16    -0.174400582079E+04   -0.21023E-04   -0.35493E-04   720   0.745E-03 0.320E-03
CGA:  17    -0.174400582562E+04   -0.48238E-05   -0.16447E-04   720   0.525E-03 0.290E-03
CGA:  18    -0.174400583940E+04   -0.13782E-04   -0.20280E-04   720   0.524E-03 0.220E-03
CGA:  19    -0.174400588167E+04   -0.42271E-04   -0.42478E-04   720   0.112E-02-0.223E-03
CGA:  20    -0.174400590263E+04   -0.20957E-04   -0.12994E-04   720   0.133E-02-0.226E-03
CGA:  21    -0.174400592358E+04   -0.20956E-04   -0.16812E-04   720   0.860E-03-0.111E-03
CGA:  22    -0.174400592989E+04   -0.63027E-05   -0.99278E-05   720   0.548E-03 0.952E-04
  20 F= -.17440059E+04 E0= -.17439836E+04  d E =-.256416E-01  mag=    46.0000
       N       E                     dE             d eps       ncg     rms          ort
SDA:   1    -0.174398981628E+04    0.16107E-01    0.00000E+00   720   0.350E+00 0.000E+00
CGA:   2    -0.174399941847E+04   -0.96022E-02   -0.97802E-02   720   0.510E-01-0.725E-02
CGA:   3    -0.174400206157E+04   -0.26431E-02   -0.26346E-02   720   0.245E-01 0.371E-03
CGA:   4    -0.174400439166E+04   -0.23301E-02   -0.24552E-02   720   0.346E-01-0.238E-02
CGA:   5    -0.174400580511E+04   -0.14134E-02   -0.14321E-02   720   0.104E-01 0.405E-02
CGA:   6    -0.174400654586E+04   -0.74075E-03   -0.76495E-03   720   0.618E-02-0.144E-02
CGA:   7    -0.174400682627E+04   -0.28041E-03   -0.27964E-03   720   0.315E-02 0.504E-03
CGA:   8    -0.174400696246E+04   -0.13619E-03   -0.14282E-03   720   0.141E-02 0.737E-03
CGA:   9    -0.174400708389E+04   -0.12143E-03   -0.20216E-03   720   0.307E-02-0.121E-02
CGA:  10    -0.174400715219E+04   -0.68299E-04   -0.79686E-04   720   0.467E-03 0.415E-03
CGA:  11    -0.174400717979E+04   -0.27602E-04   -0.27633E-04   720   0.186E-03 0.884E-04
CGA:  12    -0.174400718240E+04   -0.26084E-05   -0.54335E-05   720   0.813E-04 0.102E-03
  21 F= -.17440072E+04 E0= -.17439847E+04  d E =-.125251E-02  mag=    46.0000
       N       E                     dE             d eps       ncg     rms          ort
SDA:   1    -0.174399464297E+04    0.12537E-01    0.00000E+00   720   0.388E-01 0.000E+00
CGA:   2    -0.174399994160E+04   -0.52986E-02   -0.47902E-02   720   0.805E-01 0.686E-02
CGA:   3    -0.174400576831E+04   -0.58267E-02   -0.58704E-02   720   0.356E-01-0.601E-02
CGA:   4    -0.174400705553E+04   -0.12872E-02   -0.13373E-02   720   0.942E-02 0.352E-02
CGA:   5    -0.174400800977E+04   -0.95424E-03   -0.10133E-02   720   0.156E-01-0.134E-02
CGA:   6    -0.174400866178E+04   -0.65200E-03   -0.64483E-03   720   0.312E-02-0.983E-03
CGA:   7    -0.174400878234E+04   -0.12056E-03   -0.12774E-03   720   0.168E-02 0.631E-03
CGA:   8    -0.174400887781E+04   -0.95477E-04   -0.96971E-04   720   0.739E-03 0.242E-03
CGA:   9    -0.174400893273E+04   -0.54918E-04   -0.53462E-04   720   0.645E-03 0.165E-03
CGA:  10    -0.174400898203E+04   -0.49295E-04   -0.49768E-04   720   0.369E-03-0.582E-04
CGA:  11    -0.174400899575E+04   -0.13728E-04   -0.37906E-04   720   0.844E-03-0.416E-03
CGA:  12    -0.174400900793E+04   -0.12173E-04   -0.20222E-04   720   0.186E-03 0.235E-03
CGA:  13    -0.174400901589E+04   -0.79598E-05   -0.93922E-05   720   0.132E-03 0.862E-04
CGA:  14    -0.174400902792E+04   -0.12033E-04   -0.12248E-04   720   0.129E-03-0.261E-04
CGA:  15    -0.174400902884E+04   -0.92031E-06   -0.24892E-05   720   0.986E-04 0.488E-04
  22 F= -.17440090E+04 E0= -.17439865E+04  d E =-.184644E-02  mag=    46.0000
       N       E                     dE             d eps       ncg     rms          ort
SDA:   1    -0.174400322833E+04    0.57996E-02    0.00000E+00   720   0.434E-01 0.000E+00
CGA:   2    -0.174400455462E+04   -0.13263E-02   -0.14222E-02   720   0.202E-01 0.483E-02
CGA:   3    -0.174400720388E+04   -0.26493E-02   -0.27187E-02   720   0.237E-01-0.109E-02
CGA:   4    -0.174400864698E+04   -0.14431E-02   -0.14539E-02   720   0.177E-01-0.119E-02
CGA:   5    -0.174400933074E+04   -0.68376E-03   -0.70107E-03   720   0.593E-02 0.918E-03
CGA:   6    -0.174400967246E+04   -0.34172E-03   -0.34134E-03   720   0.298E-02-0.829E-03
CGA:   7    -0.174400989534E+04   -0.22288E-03   -0.25256E-03   720   0.426E-02-0.690E-03
CGA:   8    -0.174400996686E+04   -0.71520E-04   -0.85716E-04   720   0.102E-02 0.447E-03
CGA:   9    -0.174400998071E+04   -0.13853E-04   -0.23690E-04   720   0.478E-03 0.286E-03
CGA:  10    -0.174400999991E+04   -0.19198E-04   -0.22421E-04   720   0.490E-03 0.190E-03
CGA:  11    -0.174401003481E+04   -0.34894E-04   -0.34650E-04   720   0.461E-03-0.924E-04
CGA:  12    -0.174401005302E+04   -0.18217E-04   -0.17585E-04   720   0.464E-03-0.106E-03
CGA:  13    -0.174401006116E+04   -0.81344E-05   -0.85742E-05   720   0.252E-03 0.144E-04
  23 F= -.17440101E+04 E0= -.17439876E+04  d E =-.103232E-02  mag=    46.0000
       N       E                     dE             d eps       ncg     rms          ort
SDA:   1    -0.174400601044E+04    0.40426E-02    0.00000E+00   720   0.942E-01 0.000E+00
CGA:   2    -0.174400818171E+04   -0.21713E-02   -0.23007E-02   720   0.101E-01 0.390E-02
CGA:   3    -0.174400897259E+04   -0.79088E-03   -0.75315E-03   720   0.890E-02 0.172E-02
CGA:   4    -0.174400994165E+04   -0.96906E-03   -0.10762E-02   720   0.120E-01-0.199E-02
CGA:   5    -0.174401022270E+04   -0.28105E-03   -0.30510E-03   720   0.474E-02 0.123E-02
CGA:   6    -0.174401039246E+04   -0.16975E-03   -0.18268E-03   720   0.308E-02 0.776E-03
CGA:   7    -0.174401060842E+04   -0.21597E-03   -0.22951E-03   720   0.301E-02-0.103E-02
CGA:   8    -0.174401069126E+04   -0.82832E-04   -0.79143E-04   720   0.186E-02-0.313E-03
CGA:   9    -0.174401072558E+04   -0.34325E-04   -0.42166E-04   720   0.906E-03 0.309E-03
CGA:  10    -0.174401074587E+04   -0.20288E-04   -0.26871E-04   720   0.478E-03 0.292E-03
CGA:  11    -0.174401076258E+04   -0.16715E-04   -0.18556E-04   720   0.242E-03 0.108E-03
CGA:  12    -0.174401077248E+04   -0.98961E-05   -0.10310E-04   720   0.202E-03 0.343E-04
  24 F= -.17440108E+04 E0= -.17439883E+04  d E =-.711323E-03  mag=    46.0000
       N       E                     dE             d eps       ncg     rms          ort
SDA:   1    -0.174395916525E+04    0.51597E-01    0.00000E+00   720   0.376E+00 0.000E+00
CGA:   2    -0.174397295310E+04   -0.13788E-01   -0.13982E-01   720   0.151E+00 0.449E-02
CGA:   3    -0.174399328633E+04   -0.20333E-01   -0.20310E-01   720   0.217E+00-0.164E-02
CGA:   4    -0.174400554913E+04   -0.12263E-01   -0.12234E-01   720   0.715E-01 0.217E-04
CGA:   5    -0.174400945017E+04   -0.39010E-02   -0.38834E-02   720   0.391E-01 0.270E-02
CGA:   6    -0.174401142603E+04   -0.19759E-02   -0.19745E-02   720   0.147E-01-0.101E-02
CGA:   7    -0.174401271938E+04   -0.12934E-02   -0.12194E-02   720   0.669E-02 0.211E-02
CGA:   8    -0.174401312201E+04   -0.40264E-03   -0.40300E-03   720   0.561E-02-0.191E-02
CGA:   9    -0.174401326696E+04   -0.14494E-03   -0.15744E-03   720   0.167E-02 0.962E-03
CGA:  10    -0.174401330747E+04   -0.40517E-04   -0.55443E-04   720   0.108E-02 0.629E-03
CGA:  11    -0.174401342859E+04   -0.12112E-03   -0.12730E-03   720   0.123E-02-0.170E-03
CGA:  12    -0.174401331373E+04    0.11486E-03   -0.13732E-03   720   0.107E-01-0.316E-02
CGA:  13    -0.174401346590E+04   -0.15217E-03   -0.21595E-03   720   0.115E-02 0.175E-02
CGA:  14    -0.174401348883E+04   -0.22934E-04   -0.38445E-04   720   0.692E-03 0.618E-03
CGA:  15    -0.174401348896E+04   -0.13079E-06   -0.92045E-04   720   0.620E-02-0.115E-02
CGA:  16    -0.174401356021E+04   -0.71250E-04   -0.11173E-03   720   0.286E-03 0.101E-02
CGA:  17    -0.174401355939E+04    0.82111E-06   -0.52214E-05   720   0.120E-03 0.152E-03
CGA:  18    -0.174401357237E+04   -0.12981E-04    0.23579E-03   720   0.535E-04 0.626E-04
CGA:  19    -0.174401357889E+04   -0.65159E-05    0.99752E-05   720   0.425E-04 0.360E-04
  25 F= -.17440136E+04 E0= -.17439912E+04  d E =-.280641E-02  mag=    46.0000
       N       E                     dE             d eps       ncg     rms          ort
SDA:   1    -0.174392062905E+04    0.92943E-01    0.00000E+00   720   0.410E+00 0.000E+00
CGA:   2    -0.174394425049E+04   -0.23621E-01   -0.23633E-01   720   0.494E+00-0.318E-02
CGA:   3    -0.174398664839E+04   -0.42398E-01   -0.42093E-01   720   0.203E+00 0.821E-02
CGA:   4    -0.174399708883E+04   -0.10440E-01   -0.10447E-01   720   0.157E+00-0.348E-02
CGA:   5    -0.174401098827E+04   -0.13899E-01   -0.13680E-01   720   0.610E-01 0.685E-02
CGA:   6    -0.174401461049E+04   -0.36222E-02   -0.36206E-02   720   0.180E-01-0.326E-02
CGA:   7    -0.174401534970E+04   -0.73921E-03   -0.77082E-03   720   0.105E-01 0.249E-02
CGA:   8    -0.174401635959E+04   -0.10099E-02   -0.10205E-02   720   0.680E-02-0.404E-03
CGA:   9    -0.174401680764E+04   -0.44805E-03   -0.45238E-03   720   0.175E-02-0.383E-03
CGA:  10    -0.174401691737E+04   -0.10973E-03   -0.10823E-03   720   0.122E-02 0.219E-03
CGA:  11    -0.174401701127E+04   -0.93896E-04   -0.93299E-04   720   0.122E-02 0.650E-04
CGA:  12    -0.174401711348E+04   -0.10222E-03   -0.10939E-03   720   0.659E-03-0.281E-03
CGA:  13    -0.174401712591E+04   -0.12422E-04   -0.15576E-04   720   0.205E-03 0.103E-03
CGA:  14    -0.174401714156E+04   -0.15655E-04   -0.15639E-04   720   0.324E-03 0.231E-05
CGA:  15    -0.174401716637E+04   -0.24809E-04   -0.27656E-04   720   0.645E-03-0.116E-03
CGA:  16    -0.174401717584E+04   -0.94672E-05   -0.11209E-04   720   0.433E-03 0.509E-04
  26 F= -.17440172E+04 E0= -.17439947E+04  d E =-.359695E-02  mag=    46.0000
       N       E                     dE             d eps       ncg     rms          ort
SDA:   1    -0.174351389402E+04    0.50327E+00    0.00000E+00   720   0.143E+01 0.000E+00
CGA:   2    -0.174372169682E+04   -0.20780E+00   -0.20213E+00   720   0.304E+01 0.707E-01
CGA:   3    -0.174390215246E+04   -0.18046E+00   -0.18006E+00   720   0.106E+01-0.418E-01
CGA:   4    -0.174395894328E+04   -0.56791E-01   -0.56095E-01   720   0.443E+00-0.231E-01
CGA:   5    -0.174399032435E+04   -0.31381E-01   -0.31282E-01   720   0.379E+00 0.137E-02
CGA:   6    -0.174401057064E+04   -0.20246E-01   -0.20196E-01   720   0.628E-01 0.596E-02
CGA:   7    -0.174401509754E+04   -0.45269E-02   -0.46047E-02   720   0.661E-01-0.766E-02
CGA:   8    -0.174401871402E+04   -0.36165E-02   -0.36145E-02   720   0.349E-01 0.250E-02
CGA:   9    -0.174402027678E+04   -0.15628E-02   -0.15707E-02   720   0.735E-02 0.797E-03
CGA:  10    -0.174402096568E+04   -0.68890E-03   -0.71984E-03   720   0.123E-01-0.874E-03
CGA:  11    -0.174402156671E+04   -0.60103E-03   -0.60462E-03   720   0.345E-02 0.573E-03
CGA:  12    -0.174402181045E+04   -0.24374E-03   -0.24605E-03   720   0.355E-02-0.391E-03
CGA:  13    -0.174402197943E+04   -0.16898E-03   -0.16694E-03   720   0.199E-02-0.237E-03
CGA:  14    -0.174402211556E+04   -0.13613E-03   -0.14159E-03   720   0.226E-02-0.387E-03
CGA:  15    -0.174402221668E+04   -0.10112E-03   -0.10168E-03   720   0.161E-02 0.823E-04
CGA:  16    -0.174402227181E+04   -0.55136E-04   -0.62701E-04   720   0.516E-03 0.318E-03
CGA:  17    -0.174402230450E+04   -0.32689E-04   -0.32578E-04   720   0.639E-03-0.127E-04
CGA:  18    -0.174402235450E+04   -0.49997E-04   -0.10041E-03   720   0.222E-02-0.503E-03
CGA:  19    -0.174402242617E+04   -0.71672E-04   -0.80430E-04   720   0.249E-03 0.290E-03
CGA:  20    -0.174402243973E+04   -0.13556E-04   -0.29296E-04   720   0.117E-02-0.397E-03
CGA:  21    -0.174402245146E+04   -0.11732E-04   -0.24604E-04   720   0.173E-03 0.281E-03
CGA:  22    -0.174402245585E+04   -0.43945E-05   -0.63410E-05   720   0.756E-04 0.558E-04
CGA:  23    -0.174402221145E+04    0.24441E-03   -0.13298E-03   720   0.929E-02-0.838E-03
CGA:  24    -0.174402242324E+04   -0.21179E-03   -0.25820E-03   720   0.136E-02 0.624E-03
CGA:  25    -0.174402248942E+04   -0.66178E-04   -0.56681E-04   720   0.455E-04-0.139E-03
CGA:  26    -0.174402249119E+04   -0.17680E-05   -0.22104E-05   720   0.274E-04 0.846E-05
  27 F= -.17440225E+04 E0= -.17440002E+04  d E =-.531535E-02  mag=    46.0000
       N       E                     dE             d eps       ncg     rms          ort
SDA:   1    -0.174114586547E+04    0.28766E+01    0.00000E+00   720   0.736E+01 0.000E+00
CGA:   2    -0.174276773386E+04   -0.16219E+01   -0.15752E+01   720   0.197E+02 0.438E+00
CGA:   3    -0.174344344442E+04   -0.67571E+00   -0.89197E+00   720   0.672E+01-0.406E+01
CGA:   4    -0.174370776604E+04   -0.26432E+00   -0.28245E+00   720   0.215E+01-0.158E+00
CGA:   5    -0.174386432209E+04   -0.15656E+00   -0.14856E+00   720   0.181E+01 0.503E-02
CGA:   6    -0.174396942604E+04   -0.10510E+00   -0.10873E+00   720   0.440E+00-0.187E-01
CGA:   7    -0.174399327540E+04   -0.23849E-01   -0.23783E-01   720   0.230E+00 0.561E-02
CGA:   8    -0.174401075731E+04   -0.17482E-01   -0.17484E-01   720   0.230E+00 0.413E-03
CGA:   9    -0.174402252210E+04   -0.11765E-01   -0.11768E-01   720   0.483E-01-0.442E-02
CGA:  10    -0.174402597179E+04   -0.34497E-02   -0.34719E-02   720   0.363E-01 0.918E-03
CGA:  11    -0.174402840572E+04   -0.24339E-02   -0.24676E-02   720   0.278E-01 0.145E-02
CGA:  12    -0.174403049083E+04   -0.20851E-02   -0.20291E-02   720   0.177E-01-0.293E-02
CGA:  13    -0.174403112463E+04   -0.63380E-03   -0.69565E-03   720   0.643E-02 0.136E-02
CGA:  14    -0.174403169129E+04   -0.56665E-03   -0.56407E-03   720   0.678E-02-0.356E-03
CGA:  15    -0.174403236362E+04   -0.67233E-03   -0.68424E-03   720   0.777E-02-0.630E-03
CGA:  16    -0.174403261209E+04   -0.24847E-03   -0.27884E-03   720   0.236E-02 0.595E-03
CGA:  17    -0.174403278083E+04   -0.16874E-03   -0.16428E-03   720   0.262E-02-0.227E-03
CGA:  18    -0.174403299939E+04   -0.21856E-03   -0.21781E-03   720   0.352E-02 0.110E-03
CGA:  19    -0.174403316194E+04   -0.16255E-03   -0.16984E-03   720   0.117E-02 0.189E-03
CGA:  20    -0.174403326153E+04   -0.99590E-04   -0.15008E-03   720   0.479E-02-0.132E-02
CGA:  21    -0.174403333696E+04   -0.75433E-04   -0.11491E-03   720   0.525E-03 0.782E-03
CGA:  22    -0.174403335532E+04   -0.18358E-04   -0.25206E-04   720   0.371E-03 0.173E-03
CGA:  23    -0.174403339766E+04   -0.42336E-04   -0.42806E-04   720   0.668E-03-0.662E-04
CGA:  24    -0.174403341757E+04   -0.19910E-04   -0.23085E-04   720   0.662E-03 0.831E-04
CGA:  25    -0.174403344125E+04   -0.23689E-04   -0.26381E-04   720   0.387E-03 0.666E-04
CGA:  26    -0.174403347415E+04   -0.32894E-04   -0.34988E-04   720   0.685E-03-0.371E-03
CGA:  27    -0.174403349073E+04   -0.16585E-04   -0.21744E-04   720   0.179E-03 0.112E-03
CGA:  28    -0.174403350750E+04   -0.16764E-04   -0.16996E-04   720   0.218E-03-0.308E-04
CGA:  29    -0.174403351260E+04   -0.51055E-05   -0.76805E-05   720   0.166E-03 0.794E-04
CGA:  30    -0.174403352253E+04   -0.99269E-05   -0.10605E-04   720   0.755E-04 0.261E-04
  28 F= -.17440335E+04 E0= -.17440108E+04  d E =-.110313E-01  mag=    46.0000
       N       E                     dE             d eps       ncg     rms          ort
SDA:   1    -0.174026382922E+04    0.37697E+01    0.00000E+00   720   0.973E+01 0.000E+00
CGA:   2    -0.174209610104E+04   -0.18323E+01   -0.16873E+01   720   0.232E+02 0.146E+01
CGA:   3    -0.174327614394E+04   -0.11800E+01   -0.12510E+01   720   0.690E+01-0.966E+00
CGA:   4    -0.174361656101E+04   -0.34042E+00   -0.26373E+00   720   0.167E+01 0.108E+01
CGA:   5    -0.174383668229E+04   -0.22012E+00   -0.20823E+00   720   0.165E+01 0.267E+00
CGA:   6    -0.174395296138E+04   -0.11628E+00   -0.11190E+00   720   0.771E+00-0.300E-01
CGA:   7    -0.174397963836E+04   -0.26677E-01   -0.25907E-01   720   0.269E+00 0.108E-01
CGA:   8    -0.174399671174E+04   -0.17073E-01   -0.17223E-01   720   0.351E+00 0.151E-02
CGA:   9    -0.174401169158E+04   -0.14980E-01   -0.15158E-01   720   0.171E+00 0.443E-02
CGA:  10    -0.174401908109E+04   -0.73895E-02   -0.71884E-02   720   0.565E-01 0.356E-02
CGA:  11    -0.174402144265E+04   -0.23616E-02   -0.23157E-02   720   0.419E-01-0.411E-02
CGA:  12    -0.174402448774E+04   -0.30451E-02   -0.30588E-02   720   0.453E-01-0.128E-02
CGA:  13    -0.174402625887E+04   -0.17711E-02   -0.17900E-02   720   0.178E-01 0.168E-02
CGA:  14    -0.174402712288E+04   -0.86401E-03   -0.83782E-03   720   0.112E-01-0.127E-02
CGA:  15    -0.174402776297E+04   -0.64009E-03   -0.63714E-03   720   0.116E-01-0.666E-03
CGA:  16    -0.174402852726E+04   -0.76429E-03   -0.76204E-03   720   0.933E-02 0.495E-03
CGA:  17    -0.174402893138E+04   -0.40412E-03   -0.38360E-03   720   0.442E-02-0.821E-03
CGA:  18    -0.174402924415E+04   -0.31277E-03   -0.31453E-03   720   0.365E-02-0.118E-03
CGA:  19    -0.174402945598E+04   -0.21182E-03   -0.21336E-03   720   0.276E-02 0.294E-03
CGA:  20    -0.174402964764E+04   -0.19166E-03   -0.19067E-03   720   0.353E-02-0.106E-02
CGA:  21    -0.174402978622E+04   -0.13858E-03   -0.13874E-03   720   0.149E-02 0.186E-03
CGA:  22    -0.174402980436E+04   -0.18135E-04   -0.33418E-04   720   0.410E-03 0.345E-03
CGA:  23    -0.174402982547E+04   -0.21112E-04   -0.23336E-04   720   0.578E-03 0.136E-03
CGA:  24    -0.174402982352E+04    0.19456E-05   -0.14525E-03   720   0.521E-02-0.115E-02
CGA:  25    -0.174402994828E+04   -0.12476E-03   -0.14516E-03   720   0.801E-03 0.528E-03
CGA:  26    -0.174402999507E+04   -0.46789E-04   -0.45690E-04   720   0.330E-03-0.611E-04
CGA:  27    -0.174403000033E+04   -0.52666E-05   -0.99834E-05   720   0.150E-03 0.146E-03
  29 F= -.17440300E+04 E0= -.17440077E+04  d E =0.352220E-02  mag=    46.0000
       N       E                     dE             d eps       ncg     rms          ort
SDA:   1    -0.174326070348E+04    0.76929E+00    0.00000E+00   720   0.235E+01 0.000E+00
CGA:   2    -0.174358665556E+04   -0.32595E+00   -0.31778E+00   720   0.471E+01 0.115E+00
CGA:   3    -0.174381564742E+04   -0.22899E+00   -0.22176E+00   720   0.123E+01-0.362E-01
CGA:   4    -0.174392070195E+04   -0.10505E+00   -0.10599E+00   720   0.995E+00-0.344E-01
CGA:   5    -0.174398680561E+04   -0.66104E-01   -0.66098E-01   720   0.506E+00-0.741E-03
CGA:   6    -0.174400827134E+04   -0.21466E-01   -0.21650E-01   720   0.131E+00 0.140E-02
CGA:   7    -0.174401813294E+04   -0.98616E-02   -0.98997E-02   720   0.116E+00-0.334E-02
CGA:   8    -0.174402443723E+04   -0.63043E-02   -0.63538E-02   720   0.526E-01 0.541E-02
CGA:   9    -0.174402738199E+04   -0.29448E-02   -0.29459E-02   720   0.236E-01-0.124E-02
CGA:  10    -0.174402915943E+04   -0.17774E-02   -0.17589E-02   720   0.136E-01 0.151E-02
CGA:  11    -0.174403015847E+04   -0.99904E-03   -0.10167E-02   720   0.173E-01-0.331E-02
CGA:  12    -0.174403087870E+04   -0.72023E-03   -0.73737E-03   720   0.625E-02 0.193E-02
CGA:  13    -0.174403115074E+04   -0.27204E-03   -0.29717E-03   720   0.363E-02 0.117E-02
CGA:  14    -0.174403144862E+04   -0.29788E-03   -0.30750E-03   720   0.560E-02-0.123E-02
CGA:  15    -0.174403167409E+04   -0.22547E-03   -0.22580E-03   720   0.615E-02 0.115E-03
CGA:  16    -0.174403184610E+04   -0.17201E-03   -0.19534E-03   720   0.247E-02 0.718E-03
CGA:  17    -0.174403199519E+04   -0.14909E-03   -0.14461E-03   720   0.193E-02-0.472E-03
CGA:  18    -0.174403209398E+04   -0.98793E-04   -0.15410E-03   720   0.478E-02-0.150E-02
CGA:  19    -0.174403219256E+04   -0.98580E-04   -0.13360E-03   720   0.115E-02 0.982E-03
CGA:  20    -0.174403226159E+04   -0.69027E-04   -0.71238E-04   720   0.497E-03 0.238E-03
CGA:  21    -0.174403230841E+04   -0.46823E-04   -0.56348E-04   720   0.145E-02-0.285E-03
[...]
CGA:   7    -0.174409260435E+04   -0.11742E-03   -0.14274E-03   720   0.156E-02-0.711E-03
CGA:   8    -0.174409267734E+04   -0.72989E-04   -0.71232E-04   720   0.748E-03-0.962E-04
CGA:   9    -0.174409268654E+04   -0.91989E-05   -0.18436E-04   720   0.195E-03 0.278E-03
  90 F= -.17440927E+04 E0= -.17440692E+04  d E =0.225612E-03  mag=    46.0000
       N       E                     dE             d eps       ncg     rms          ort
SDA:   1    -0.174171884390E+04    0.23738E+01    0.00000E+00   720   0.668E+01 0.000E+00
CGA:   2    -0.174315644525E+04   -0.14376E+01   -0.14433E+01   720   0.135E+02-0.618E-01
CGA:   3    -0.174351732507E+04   -0.36088E+00   -0.43507E+00   720   0.288E+01-0.116E+01
CGA:   4    -0.174378313153E+04   -0.26581E+00   -0.27684E+00   720   0.411E+01-0.231E+00
CGA:   5    -0.174395100073E+04   -0.16787E+00   -0.16629E+00   720   0.113E+01-0.499E-01
CGA:   6    -0.174399945083E+04   -0.48450E-01   -0.49018E-01   720   0.352E+00 0.630E-02
CGA:   7    -0.174402323884E+04   -0.23788E-01   -0.23797E-01   720   0.343E+00-0.255E-02
CGA:   8    -0.174404629346E+04   -0.23055E-01   -0.23095E-01   720   0.120E+00-0.825E-02
CGA:   9    -0.174405072141E+04   -0.44280E-02   -0.44761E-02   720   0.400E-01 0.163E-02
CGA:  10    -0.174405562820E+04   -0.49068E-02   -0.52354E-02   720   0.898E-01-0.499E-02
CGA:  11    -0.174405859865E+04   -0.29705E-02   -0.30799E-02   720   0.175E-01 0.388E-02
CGA:  12    -0.174405949610E+04   -0.89744E-03   -0.90491E-03   720   0.158E-01 0.216E-03
CGA:  13    -0.174406077169E+04   -0.12756E-02   -0.13085E-02   720   0.194E-01-0.208E-02
CGA:  14    -0.174406162701E+04   -0.85533E-03   -0.87606E-03   720   0.131E-01 0.161E-02
CGA:  15    -0.174406253785E+04   -0.91083E-03   -0.91067E-03   720   0.112E-01 0.951E-03
CGA:  16    -0.174406301890E+04   -0.48105E-03   -0.47122E-03   720   0.456E-02 0.217E-03
CGA:  17    -0.174406338163E+04   -0.36273E-03   -0.35499E-03   720   0.842E-02 0.570E-03
CGA:  18    -0.174406415910E+04   -0.77747E-03   -0.79708E-03   720   0.865E-02-0.978E-03
CGA:  19    -0.174406447853E+04   -0.31943E-03   -0.31259E-03   720   0.265E-02-0.281E-03
CGA:  20    -0.174406454836E+04   -0.69823E-04   -0.88761E-04   720   0.164E-02 0.670E-03
CGA:  21    -0.174406469608E+04   -0.14772E-03   -0.14383E-03   720   0.242E-02 0.500E-03
CGA:  22    -0.174406491605E+04   -0.21997E-03   -0.22575E-03   720   0.260E-02-0.614E-03
CGA:  23    -0.174406496996E+04   -0.53908E-04   -0.61902E-04   720   0.147E-02 0.262E-03
CGA:  24    -0.174406501110E+04   -0.41144E-04   -0.48559E-04   720   0.916E-03 0.231E-03
CGA:  25    -0.174406507832E+04   -0.67217E-04   -0.70041E-04   720   0.114E-02-0.448E-03
CGA:  26    -0.174406510636E+04   -0.28039E-04   -0.23235E-04   720   0.135E-02-0.248E-03
CGA:  27    -0.174406514374E+04   -0.37382E-04   -0.40186E-04   720   0.132E-02 0.129E-03
CGA:  28    -0.174406517786E+04   -0.34122E-04   -0.42142E-04   720   0.552E-03 0.309E-03
CGA:  29    -0.174406519262E+04   -0.14762E-04   -0.18589E-04   720   0.268E-03 0.144E-03
CGA:  30    -0.174406519848E+04   -0.58560E-05   -0.91943E-05   720   0.187E-03 0.123E-03
  91 F= -.17440652E+04 E0= -.17440412E+04  d E =0.274881E-01  mag=    46.0000
       N       E                     dE             d eps       ncg     rms          ort
SDA:   1    -0.174250244790E+04    0.15627E+01    0.00000E+00   720   0.468E+01 0.000E+00
CGA:   2    -0.174324167497E+04   -0.73923E+00   -0.86296E+00   720   0.189E+02-0.121E+01
CGA:   3    -0.174361607391E+04   -0.37440E+00   -0.40491E+00   720   0.463E+01-0.520E+00
CGA:   4    -0.174374145673E+04   -0.12538E+00   -0.14550E+00   720   0.233E+01-0.171E+00
CGA:   5    -0.174389808544E+04   -0.15663E+00   -0.15533E+00   720   0.225E+01 0.681E-01
CGA:   6    -0.174401608208E+04   -0.11800E+00   -0.11876E+00   720   0.818E+00 0.452E-01
CGA:   7    -0.174404561476E+04   -0.29533E-01   -0.29687E-01   720   0.258E+00 0.111E-01
CGA:   8    -0.174406214037E+04   -0.16526E-01   -0.16659E-01   720   0.221E+00-0.955E-02
CGA:   9    -0.174407168609E+04   -0.95457E-02   -0.93205E-02   720   0.138E+00-0.413E-02
CGA:  10    -0.174407830054E+04   -0.66144E-02   -0.66165E-02   720   0.914E-01 0.225E-02
CGA:  11    -0.174408212989E+04   -0.38294E-02   -0.39161E-02   720   0.493E-01 0.136E-02
CGA:  12    -0.174408451783E+04   -0.23879E-02   -0.23760E-02   720   0.226E-01-0.332E-02
CGA:  13    -0.174408568703E+04   -0.11692E-02   -0.11664E-02   720   0.229E-01 0.205E-02
CGA:  14    -0.174408734208E+04   -0.16550E-02   -0.16402E-02   720   0.138E-01 0.151E-02
CGA:  15    -0.174408812638E+04   -0.78430E-03   -0.78085E-03   720   0.895E-02-0.199E-02
CGA:  16    -0.174408844357E+04   -0.31720E-03   -0.33012E-03   720   0.636E-02 0.110E-02
CGA:  17    -0.174408905417E+04   -0.61060E-03   -0.60011E-03   720   0.722E-02 0.364E-03
CGA:  18    -0.174408947332E+04   -0.41915E-03   -0.41625E-03   720   0.962E-02-0.291E-02
CGA:  19    -0.174408984602E+04   -0.37269E-03   -0.37697E-03   720   0.739E-02-0.426E-03
CGA:  20    -0.174408995817E+04   -0.11215E-03   -0.15186E-03   720   0.259E-02 0.116E-02
CGA:  21    -0.174409007070E+04   -0.11253E-03   -0.12359E-03   720   0.344E-02 0.875E-03
CGA:  22    -0.174409034261E+04   -0.27191E-03   -0.27340E-03   720   0.368E-02-0.182E-03
CGA:  23    -0.174409051177E+04   -0.16916E-03   -0.16799E-03   720   0.411E-02-0.214E-03
CGA:  24    -0.174409065030E+04   -0.13853E-03   -0.14056E-03   720   0.257E-02 0.110E-03
CGA:  25    -0.174409074612E+04   -0.95817E-04   -0.91311E-04   720   0.130E-02-0.292E-03
CGA:  26    -0.174409081117E+04   -0.65048E-04   -0.77509E-04   720   0.213E-02-0.822E-03
CGA:  27    -0.174409085037E+04   -0.39207E-04   -0.54691E-04   720   0.696E-03 0.575E-03
CGA:  28    -0.174409091682E+04   -0.66441E-04   -0.63392E-04   720   0.771E-03 0.161E-03
CGA:  29    -0.174409097253E+04   -0.55716E-04   -0.58563E-04   720   0.110E-02-0.302E-03
CGA:  30    -0.174409098257E+04   -0.10038E-04   -0.16078E-04   720   0.960E-03 0.208E-03
CGA:  31    -0.174409099639E+04   -0.13826E-04   -0.23334E-04   720   0.443E-03 0.303E-03
CGA:  32    -0.174409102560E+04   -0.29207E-04   -0.29276E-04   720   0.549E-03-0.172E-03
CGA:  33    -0.174409095279E+04    0.72808E-04   -0.36817E-04   720   0.378E-02-0.180E-02
CGA:  34    -0.174409100848E+04   -0.55689E-04   -0.89501E-04   720   0.105E-02 0.119E-02
CGA:  35    -0.174409104349E+04   -0.35006E-04   -0.44585E-04   720   0.489E-03 0.552E-03
CGA:  36    -0.174409017380E+04    0.86969E-03   -0.46425E-03   720   0.479E-01-0.377E-02
CGA:  37    -0.174409099544E+04   -0.82164E-03   -0.99782E-03   720   0.152E-02 0.165E-02
CGA:  38    -0.174409106834E+04   -0.72903E-04   -0.75542E-04   720   0.353E-03 0.261E-04
CGA:  39    -0.174409094492E+04    0.12342E-03   -0.75657E-04   720   0.934E-02-0.158E-02
CGA:  40    -0.174409107545E+04   -0.13053E-03   -0.20534E-03   720   0.874E-03 0.105E-02
CGA:  41    -0.174409109719E+04   -0.21743E-04   -0.34225E-04   720   0.299E-03 0.271E-03
CGA:  42    -0.174409111498E+04   -0.17790E-04   -0.15679E-04   720   0.820E-04-0.257E-04
CGA:  43    -0.174409111372E+04    0.12554E-05   -0.11347E-05   720   0.291E-04 0.350E-04
  92 F= -.17440911E+04 E0= -.17440675E+04  d E =-.259152E-01  mag=    46.0000
       N       E                     dE             d eps       ncg     rms          ort
SDA:   1    -0.174408217612E+04    0.89389E-02    0.00000E+00   720   0.331E-01 0.000E+00
CGA:   2    -0.174408433704E+04   -0.21609E-02   -0.21382E-02   720   0.509E-01-0.207E-02
CGA:   3    -0.174408819095E+04   -0.38539E-02   -0.38452E-02   720   0.216E-01 0.207E-02
CGA:   4    -0.174408934180E+04   -0.11508E-02   -0.11170E-02   720   0.127E-01-0.167E-02
CGA:   5    -0.174409017305E+04   -0.83125E-03   -0.83065E-03   720   0.103E-01-0.148E-03
CGA:   6    -0.174409062975E+04   -0.45670E-03   -0.47495E-03   720   0.184E-02 0.680E-03
CGA:   7    -0.174409076610E+04   -0.13635E-03   -0.13374E-03   720   0.249E-02-0.474E-03
CGA:   8    -0.174409081263E+04   -0.46539E-04   -0.63545E-04   720   0.123E-02 0.448E-03
CGA:   9    -0.174409083030E+04   -0.17669E-04   -0.34883E-04   720   0.517E-03 0.373E-03
CGA:  10    -0.174409085745E+04   -0.27142E-04   -0.27416E-04   720   0.349E-03 0.154E-04
CGA:  11    -0.174409085381E+04    0.36412E-05   -0.49313E-04   720   0.329E-02-0.758E-03
CGA:  12    -0.174409089628E+04   -0.42470E-04   -0.68627E-04   720   0.300E-03 0.552E-03
CGA:  13    -0.174409090322E+04   -0.69414E-05   -0.10537E-04   720   0.121E-03 0.957E-04
  93 F= -.17440909E+04 E0= -.17440673E+04  d E =0.210507E-03  mag=    46.0000
       N       E                     dE             d eps       ncg     rms          ort
SDA:   1    -0.174408538685E+04    0.55094E-02    0.00000E+00   720   0.140E+00 0.000E+00
CGA:   2    -0.174408913119E+04   -0.37443E-02   -0.36754E-02   720   0.176E-01-0.946E-02
CGA:   3    -0.174408969627E+04   -0.56508E-03   -0.61160E-03   720   0.358E-02 0.176E-02
CGA:   4    -0.174409022859E+04   -0.53231E-03   -0.49849E-03   720   0.600E-02 0.541E-03
CGA:   5    -0.174409060310E+04   -0.37452E-03   -0.37002E-03   720   0.292E-02-0.381E-03
CGA:   6    -0.174409075887E+04   -0.15577E-03   -0.15503E-03   720   0.124E-02-0.915E-04
CGA:   7    -0.174409085122E+04   -0.92354E-04   -0.10774E-03   720   0.185E-02-0.622E-03
CGA:   8    -0.174409087584E+04   -0.24615E-04   -0.39924E-04   720   0.270E-03 0.330E-03
CGA:   9    -0.174409088961E+04   -0.13766E-04   -0.15106E-04   720   0.221E-03 0.833E-04
CGA:  10    -0.174409090890E+04   -0.19292E-04   -0.20067E-04   720   0.324E-03-0.126E-03
CGA:  11    -0.174409091052E+04   -0.16222E-05   -0.66015E-05   720   0.800E-04 0.115E-03
  94 F= -.17440909E+04 E0= -.17440673E+04  d E =-.730332E-05  mag=    46.0000
       N       E                     dE             d eps       ncg     rms          ort
SDA:   1    -0.174408069844E+04    0.10210E-01    0.00000E+00   720   0.153E+00 0.000E+00
CGA:   2    -0.174408392187E+04   -0.32234E-02   -0.35492E-02   720   0.193E-01 0.124E-02
CGA:   3    -0.174408773564E+04   -0.38138E-02   -0.37405E-02   720   0.291E-01 0.541E-03
CGA:   4    -0.174408911118E+04   -0.13755E-02   -0.13755E-02   720   0.975E-02 0.312E-03
CGA:   5    -0.174408975911E+04   -0.64793E-03   -0.65026E-03   720   0.850E-02-0.131E-02
CGA:   6    -0.174409016446E+04   -0.40535E-03   -0.40787E-03   720   0.279E-02 0.290E-03
CGA:   7    -0.174409032925E+04   -0.16479E-03   -0.16547E-03   720   0.172E-02 0.109E-03
CGA:   8    -0.174409041301E+04   -0.83761E-04   -0.83936E-04   720   0.578E-03 0.258E-04
CGA:   9    -0.174409045624E+04   -0.43229E-04   -0.43303E-04   720   0.321E-03-0.684E-05
CGA:  10    -0.174409041545E+04    0.40790E-04   -0.84767E-04   720   0.413E-02-0.612E-03
CGA:  11    -0.174409049912E+04   -0.83671E-04   -0.92699E-04   720   0.302E-03 0.158E-03
CGA:  12    -0.174409052016E+04   -0.21035E-04   -0.21011E-04   720   0.189E-03-0.274E-05
CGA:  13    -0.174409052173E+04   -0.15744E-05   -0.56324E-05   720   0.880E-04 0.101E-03
  95 F= -.17440905E+04 E0= -.17440669E+04  d E =0.388791E-03  mag=    46.0000
       N       E                     dE             d eps       ncg     rms          ort
SDA:   1    -0.174405861613E+04    0.31904E-01    0.00000E+00   720   0.875E-01 0.000E+00
CGA:   2    -0.174406957747E+04   -0.10961E-01   -0.10820E-01   720   0.234E+00 0.232E-02
CGA:   3    -0.174408242388E+04   -0.12846E-01   -0.12790E-01   720   0.534E-01-0.269E-02
CGA:   4    -0.174408550999E+04   -0.30861E-02   -0.30966E-02   720   0.305E-01 0.124E-02
CGA:   5    -0.174408835324E+04   -0.28432E-02   -0.29214E-02   720   0.231E-01-0.326E-02
CGA:   6    -0.174408891137E+04   -0.55813E-03   -0.63400E-03   720   0.533E-02 0.184E-02
CGA:   7    -0.174408924360E+04   -0.33223E-03   -0.33699E-03   720   0.315E-02 0.596E-03
CGA:   8    -0.174408947011E+04   -0.22651E-03   -0.22376E-03   720   0.400E-02-0.755E-03
CGA:   9    -0.174408955114E+04   -0.81028E-04   -0.95680E-04   720   0.190E-02 0.417E-03
CGA:  10    -0.174408959194E+04   -0.40802E-04   -0.55561E-04   720   0.121E-02 0.373E-03
CGA:  11    -0.174408967461E+04   -0.82665E-04   -0.80525E-04   720   0.810E-03-0.304E-03
CGA:  12    -0.174408971254E+04   -0.37932E-04   -0.38589E-04   720   0.216E-02-0.988E-03
CGA:  13    -0.174408973154E+04   -0.18995E-04   -0.42129E-04   720   0.372E-03 0.532E-03
CGA:  14    -0.174408973629E+04   -0.47539E-05   -0.12153E-04   720   0.250E-03 0.220E-03
CGA:  15    -0.174408966942E+04    0.66866E-04   -0.49622E-04   720   0.665E-02-0.840E-03
CGA:  16    -0.174408975329E+04   -0.83867E-04   -0.12291E-03   720   0.229E-03 0.783E-03
CGA:  17    -0.174408975658E+04   -0.32915E-05   -0.63284E-05   720   0.108E-03 0.774E-04
CGA:  18    -0.174408977468E+04   -0.18102E-04    0.46863E-03   720   0.646E-04-0.237E-04
CGA:  19    -0.174408978644E+04   -0.11760E-04    0.17599E-05   720   0.155E-03-0.346E-04
CGA:  20    -0.174408978464E+04    0.18025E-05   -0.22658E-05   720   0.616E-04 0.863E-04
  96 F= -.17440898E+04 E0= -.17440662E+04  d E =0.737089E-03  mag=    46.0000
       N       E                     dE             d eps       ncg     rms          ort
SDA:   1    -0.174366420857E+04    0.42558E+00    0.00000E+00   720   0.106E+01 0.000E+00
CGA:   2    -0.174394186736E+04   -0.27766E+00   -0.27820E+00   720   0.175E+01-0.741E-02
CGA:   3    -0.174400609440E+04   -0.64227E-01   -0.67185E-01   720   0.631E+00-0.480E-01
CGA:   4    -0.174403989305E+04   -0.33799E-01   -0.33811E-01   720   0.394E+00 0.959E-02
CGA:   5    -0.174407092413E+04   -0.31031E-01   -0.31147E-01   720   0.127E+00-0.786E-02
CGA:   6    -0.174407773360E+04   -0.68095E-02   -0.68310E-02   720   0.585E-01 0.153E-02
CGA:   7    -0.174408148222E+04   -0.37486E-02   -0.37417E-02   720   0.500E-01-0.378E-02
CGA:   8    -0.174408369458E+04   -0.22124E-02   -0.22523E-02   720   0.143E-01 0.264E-02
CGA:   9    -0.174408510909E+04   -0.14145E-02   -0.14414E-02   720   0.821E-02-0.707E-03
CGA:  10    -0.174408556606E+04   -0.45697E-03   -0.46109E-03   720   0.345E-02 0.623E-03
CGA:  11    -0.174408585440E+04   -0.28834E-03   -0.28553E-03   720   0.419E-02 0.251E-03
CGA:  12    -0.174408620210E+04   -0.34769E-03   -0.37297E-03   720   0.312E-02-0.154E-02
CGA:  13    -0.174408624977E+04   -0.47670E-04   -0.63648E-04   720   0.146E-02 0.449E-03
CGA:  14    -0.174408630250E+04   -0.52738E-04   -0.65560E-04   720   0.111E-02 0.524E-03
CGA:  15    -0.174408637661E+04   -0.74105E-04   -0.73281E-04   720   0.741E-03-0.252E-06
CGA:  16    -0.174408644041E+04   -0.63798E-04   -0.63790E-04   720   0.129E-02 0.218E-05
CGA:  17    -0.174408650979E+04   -0.69387E-04   -0.70041E-04   720   0.969E-03 0.620E-04
CGA:  18    -0.174408656348E+04   -0.53682E-04   -0.50764E-04   720   0.377E-03-0.208E-03
CGA:  19    -0.174408657837E+04   -0.14894E-04   -0.14986E-04   720   0.371E-03 0.729E-05
CGA:  20    -0.174408662002E+04   -0.41650E-04   -0.66613E-04   720   0.135E-02-0.221E-03
CGA:  21    -0.174408665405E+04   -0.34028E-04   -0.37861E-04   720   0.177E-03 0.928E-04
CGA:  22    -0.174408665390E+04    0.14916E-06   -0.44838E-05   720   0.878E-04 0.109E-03
  97 F= -.17440867E+04 E0= -.17440630E+04  d E =0.313074E-02  mag=    46.0000
       N       E                     dE             d eps       ncg     rms          ort
SDA:   1    -0.174404921348E+04    0.37441E-01    0.00000E+00   720   0.216E+00 0.000E+00
CGA:   2    -0.174405698936E+04   -0.77759E-02   -0.78291E-02   720   0.125E+00 0.987E-03
CGA:   3    -0.174407511256E+04   -0.18123E-01   -0.18488E-01   720   0.142E+00-0.452E-02
CGA:   4    -0.174408074114E+04   -0.56286E-02   -0.56777E-02   720   0.277E-01 0.250E-02
CGA:   5    -0.174408389685E+04   -0.31557E-02   -0.31226E-02   720   0.409E-01 0.732E-03
CGA:   6    -0.174408588691E+04   -0.19901E-02   -0.19533E-02   720   0.727E-02-0.203E-02
CGA:   7    -0.174408615089E+04   -0.26397E-03   -0.29165E-03   720   0.293E-02 0.115E-02
CGA:   8    -0.174408649598E+04   -0.34509E-03   -0.36423E-03   720   0.588E-02-0.468E-03
CGA:   9    -0.174408665322E+04   -0.15725E-03   -0.17104E-03   720   0.153E-02 0.409E-03
CGA:  10    -0.174408669101E+04   -0.37783E-04   -0.42810E-04   720   0.609E-03 0.125E-03
CGA:  11    -0.174408673089E+04   -0.39883E-04   -0.75773E-04   720   0.304E-02-0.705E-03
CGA:  12    -0.174408680016E+04   -0.69275E-04   -0.88423E-04   720   0.251E-03 0.531E-03
CGA:  13    -0.174408681436E+04   -0.14195E-04   -0.14237E-04   720   0.177E-03 0.342E-05
CGA:  14    -0.174408683162E+04   -0.17258E-04   -0.16084E-04   720   0.241E-03 0.454E-04
CGA:  15    -0.174408685387E+04   -0.22250E-04   -0.40020E-04   720   0.476E-03-0.265E-03
CGA:  16    -0.174408686187E+04   -0.80078E-05   -0.13871E-04   720   0.944E-04 0.150E-03
  98 F= -.17440869E+04 E0= -.17440632E+04  d E =-.207975E-03  mag=    46.0000
       N       E                     dE             d eps       ncg     rms          ort
SDA:   1    -0.174401625788E+04    0.70596E-01    0.00000E+00   720   0.213E+00 0.000E+00
CGA:   2    -0.174404023137E+04   -0.23973E-01   -0.24009E-01   720   0.379E+00-0.368E-03
CGA:   3    -0.174407501049E+04   -0.34779E-01   -0.34908E-01   720   0.130E+00-0.443E-02
CGA:   4    -0.174408021463E+04   -0.52041E-02   -0.51360E-02   720   0.600E-01-0.302E-02
CGA:   5    -0.174408433176E+04   -0.41171E-02   -0.41100E-02   720   0.416E-01 0.291E-02
CGA:   6    -0.174408725471E+04   -0.29229E-02   -0.29221E-02   720   0.650E-02-0.141E-02
CGA:   7    -0.174408761830E+04   -0.36360E-03   -0.37517E-03   720   0.500E-02 0.144E-02
CGA:   8    -0.174408812018E+04   -0.50187E-03   -0.54103E-03   720   0.909E-02-0.186E-02
CGA:   9    -0.174408828294E+04   -0.16276E-03   -0.17730E-03   720   0.347E-02 0.380E-03
CGA:  10    -0.174408831720E+04   -0.34259E-04   -0.61963E-04   720   0.988E-03 0.551E-03
CGA:  11    -0.174408834089E+04   -0.23694E-04   -0.32783E-04   720   0.914E-03 0.256E-03
CGA:  12    -0.174408840662E+04   -0.65724E-04   -0.64163E-04   720   0.151E-02-0.239E-03
CGA:  13    -0.174408845082E+04   -0.44201E-04   -0.39757E-04   720   0.187E-02-0.172E-03
CGA:  14    -0.174408847502E+04   -0.24207E-04   -0.30577E-04   720   0.760E-03 0.154E-03
CGA:  15    -0.174408847892E+04   -0.38979E-05   -0.11176E-04   720   0.275E-03 0.164E-03
  99 F= -.17440885E+04 E0= -.17440648E+04  d E =-.161705E-02  mag=    46.0000
       N       E                     dE             d eps       ncg     rms          ort
SDA:   1    -0.174407673759E+04    0.11737E-01    0.00000E+00   720   0.113E+00 0.000E+00
CGA:   2    -0.174407953051E+04   -0.27929E-02   -0.29922E-02   720   0.342E-01 0.638E-02
CGA:   3    -0.174408487724E+04   -0.53467E-02   -0.53275E-02   720   0.253E-01 0.291E-03
CGA:   4    -0.174408647876E+04   -0.16015E-02   -0.16225E-02   720   0.239E-01-0.366E-02
CGA:   5    -0.174408745215E+04   -0.97339E-03   -0.99504E-03   720   0.144E-01 0.244E-02
CGA:   6    -0.174408818941E+04   -0.73727E-03   -0.74517E-03   720   0.452E-02 0.705E-03
CGA:   7    -0.174408850722E+04   -0.31781E-03   -0.48737E-03   720   0.152E-01-0.371E-02
CGA:   8    -0.174408872836E+04   -0.22114E-03   -0.29630E-03   720   0.864E-03 0.183E-02
CGA:   9    -0.174408874767E+04   -0.19311E-04   -0.28876E-04   720   0.498E-03 0.350E-03
CGA:  10    -0.174408880152E+04   -0.53851E-04   -0.58932E-04   720   0.112E-02-0.180E-03
CGA:  11    -0.174408882165E+04   -0.20124E-04   -0.20565E-04   720   0.116E-02 0.147E-04
CGA:  12    -0.174408883949E+04   -0.17849E-04   -0.23018E-04   720   0.403E-03 0.140E-03
CGA:  13    -0.174408884733E+04   -0.78359E-05   -0.93290E-05   720   0.192E-03 0.432E-04
CGA:  14    -0.174408885882E+04   -0.11487E-04   -0.13112E-04   720   0.463E-03-0.173E-03
CGA:  15    -0.174408887548E+04   -0.16665E-04   -0.17553E-04   720   0.693E-04 0.598E-04
CGA:  16    -0.174408888330E+04   -0.78156E-05   -0.99836E-05   720   0.258E-03-0.288E-04
 100 F= -.17440889E+04 E0= -.17440652E+04  d E =-.404375E-03  mag=    46.0000
