       N       E                     dE             d eps       ncg     rms          rms(c)
DAV:   1     0.258179658308E+04    0.25818E+04   -0.12912E+05 35480   0.149E+03
DAV:   2     0.104684721847E+02   -0.25713E+04   -0.23994E+04 37124   0.409E+02
DAV:   3    -0.259165733046E+03   -0.26963E+03   -0.26596E+03 38756   0.148E+02
DAV:   4    -0.267601914651E+03   -0.84362E+01   -0.83342E+01 47192   0.251E+01
DAV:   5    -0.267891732432E+03   -0.28982E+00   -0.28910E+00 50328   0.401E+00    0.118E+02
DAV:   6    -0.226079316658E+03    0.41812E+02   -0.18101E+02 43488   0.439E+01    0.729E+01
DAV:   7    -0.271472141413E+03   -0.45393E+02   -0.14311E+02 41796   0.686E+01    0.961E+01
DAV:   8    -0.238279543639E+03    0.33193E+02   -0.72384E+01 38736   0.674E+01    0.582E+01
DAV:   9    -0.243018115754E+03   -0.47386E+01   -0.89749E+01 41592   0.359E+01    0.555E+01
DAV:  10    -0.227141656473E+03    0.15876E+02   -0.49909E+01 40504   0.248E+01    0.421E+01
DAV:  11    -0.225210939755E+03    0.19307E+01   -0.33080E+01 41152   0.131E+01    0.165E+01
DAV:  12    -0.225993141765E+03   -0.78220E+00   -0.61491E+00 42328   0.595E+00    0.228E+01
DAV:  13    -0.226090581168E+03   -0.97439E-01   -0.17776E-01 38608   0.150E+00    0.224E+01
DAV:  14    -0.226170840059E+03   -0.80259E-01   -0.34141E-01 48696   0.240E+00    0.187E+01
DAV:  15    -0.227100848623E+03   -0.93001E+00   -0.10501E+01 45888   0.575E+00    0.210E+01
DAV:  16    -0.227834542856E+03   -0.73369E+00   -0.14234E+00 36512   0.254E+00    0.201E+01
DAV:  17    -0.227901780786E+03   -0.67238E-01   -0.36469E-02 39224   0.678E-01    0.199E+01
DAV:  18    -0.228309385332E+03   -0.40760E+00   -0.13440E-01 44488   0.163E+00    0.183E+01
DAV:  19    -0.230020461114E+03   -0.17111E+01   -0.93327E-01 46312   0.560E+00    0.203E+01
DAV:  20    -0.230321139867E+03   -0.30068E+00   -0.20830E-01 38856   0.246E+00    0.179E+01
DAV:  21    -0.229992190061E+03    0.32895E+00   -0.23488E-01 48936   0.448E+00    0.146E+01
DAV:  22    -0.230149836263E+03   -0.15765E+00   -0.71948E+00 47880   0.418E+00    0.148E+01
DAV:  23    -0.230280201627E+03   -0.13037E+00   -0.13613E-01 37344   0.132E+00    0.146E+01
DAV:  24    -0.230395377602E+03   -0.11518E+00   -0.12588E-02 43088   0.600E-01    0.141E+01
DAV:  25    -0.230611601258E+03   -0.21622E+00   -0.75117E-02 48860   0.187E+00    0.122E+01
DAV:  26    -0.230758125392E+03   -0.14652E+00   -0.10817E-01 48968   0.241E+00    0.989E+00
DAV:  27    -0.230759617013E+03   -0.14916E-02   -0.75560E-02 48960   0.182E+00    0.822E+00
DAV:  28    -0.230751295435E+03    0.83216E-02   -0.42843E-02 46624   0.154E+00    0.673E+00
DAV:  29    -0.230711270518E+03    0.40025E-01   -0.48694E-02 44016   0.143E+00    0.524E+00
DAV:  30    -0.230639355326E+03    0.71915E-01   -0.40492E-02 44288   0.157E+00    0.382E+00
DAV:  31    -0.230601656842E+03    0.37698E-01   -0.20761E-02 44432   0.705E-01    0.330E+00
DAV:  32    -0.230574564565E+03    0.27092E-01   -0.41088E-03 45440   0.418E-01    0.302E+00
DAV:  33    -0.230546459834E+03    0.28105E-01   -0.49092E-03 45120   0.539E-01    0.272E+00
DAV:  34    -0.230524163795E+03    0.22296E-01   -0.54208E-03 42904   0.486E-01    0.241E+00
DAV:  35    -0.230494155340E+03    0.30008E-01   -0.57433E-03 44104   0.559E-01    0.211E+00
DAV:  36    -0.230477027102E+03    0.17128E-01   -0.44668E-03 46664   0.397E-01    0.184E+00
DAV:  37    -0.230453464007E+03    0.23563E-01   -0.56057E-03 43552   0.554E-01    0.150E+00
DAV:  38    -0.230438911766E+03    0.14552E-01   -0.48624E-03 46224   0.403E-01    0.127E+00
DAV:  39    -0.230423166406E+03    0.15745E-01   -0.42631E-03 44224   0.452E-01    0.107E+00
DAV:  40    -0.230408312081E+03    0.14854E-01   -0.62289E-03 45448   0.532E-01    0.799E-01
DAV:  41    -0.230400931805E+03    0.73803E-02   -0.46750E-03 45376   0.399E-01    0.116E+00
DAV:  42    -0.230401332124E+03   -0.40032E-03   -0.17471E-03 37824   0.142E-01    0.227E+00
DAV:  43    -0.230401366655E+03   -0.34532E-04   -0.26479E-04 35536   0.744E-02    0.331E+00
DAV:  44    -0.230400014502E+03    0.13522E-02   -0.24699E-04 35712   0.694E-02    0.414E+00
DAV:  45    -0.230396649222E+03    0.33653E-02   -0.17620E-04 35224   0.844E-02    0.436E+00
DAV:  46    -0.230395327765E+03    0.13215E-02   -0.33578E-04 44376   0.103E-01    0.457E+00
DAV:  47    -0.230394158548E+03    0.11692E-02   -0.13830E-04 41672   0.533E-02    0.451E+00
DAV:  48    -0.230391806136E+03    0.23524E-02   -0.30062E-03 45264   0.198E-01    0.365E+00
DAV:  49    -0.230394704629E+03   -0.28985E-02   -0.31237E-04 35800   0.714E-02    0.374E+00
DAV:  50    -0.230391294561E+03    0.34101E-02   -0.21509E-03 46168   0.192E-01    0.164E+00
DAV:  51    -0.230397879349E+03   -0.65848E-02   -0.50181E-03 37776   0.212E-01    0.178E+00
DAV:  52    -0.230398202914E+03   -0.32357E-03   -0.76389E-04 38568   0.799E-02    0.184E+00
DAV:  53    -0.230401661153E+03   -0.34582E-02   -0.92186E-04 39212   0.113E-01    0.318E+00
DAV:  54    -0.230397447448E+03    0.42137E-02   -0.39821E-04 34340   0.109E-01    0.293E+00
DAV:  55    -0.230396471886E+03    0.97556E-03   -0.17411E-04 41216   0.583E-02    0.240E+00
DAV:  56    -0.230399613998E+03   -0.31421E-02   -0.24325E-03 45360   0.199E-01    0.253E+00
DAV:  57    -0.230398787362E+03    0.82664E-03   -0.32993E-04 39008   0.661E-02    0.223E+00
DAV:  58    -0.230398168194E+03    0.61917E-03   -0.23403E-04 39268   0.890E-02    0.134E+00
DAV:  59    -0.230399924082E+03   -0.17559E-02   -0.52347E-04 35088   0.107E-01    0.108E+00
DAV:  60    -0.230400760709E+03   -0.83663E-03   -0.26344E-04 36500   0.726E-02    0.115E+00
DAV:  61    -0.230401236105E+03   -0.47540E-03   -0.79718E-05 36032   0.500E-02    0.123E+00
DAV:  62    -0.230400548549E+03    0.68756E-03   -0.76470E-05 35840   0.575E-02    0.112E+00
DAV:  63    -0.230400001529E+03    0.54702E-03   -0.12227E-04 43864   0.631E-02    0.101E+00
DAV:  64    -0.230399888788E+03    0.11274E-03   -0.76816E-05 35432   0.427E-02    0.102E+00
DAV:  65    -0.230399873335E+03    0.15453E-04   -0.25982E-05 27012   0.221E-02    0.105E+00
DAV:  66    -0.230399680196E+03    0.19314E-03   -0.24705E-05 28616   0.328E-02    0.107E+00
DAV:  67    -0.230399723197E+03   -0.43001E-04   -0.14734E-05 23136   0.175E-02    0.111E+00
DAV:  68    -0.230399723767E+03   -0.57029E-06   -0.37393E-06 20892   0.750E-03
   1 F= -.23039972E+03 E0= -.23039385E+03  d E =-.230400E+03  mag=     8.1886
       N       E                     dE             d eps       ncg     rms          rms(c)
DAV:   1    -0.230478272875E+03   -0.78550E-01   -0.36389E-02 34552   0.554E-01    0.114E+00
DAV:   2    -0.230490852042E+03   -0.12579E-01   -0.16359E-01 42592   0.148E+00    0.326E+00
DAV:   3    -0.230481506426E+03    0.93456E-02   -0.21627E-02 38988   0.111E+00    0.170E+00
DAV:   4    -0.230478421856E+03    0.30846E-02   -0.31408E-03 37980   0.375E-01    0.970E-01
DAV:   5    -0.230477027379E+03    0.13945E-02   -0.11725E-03 46400   0.187E-01    0.244E-01
DAV:   6    -0.230477424504E+03   -0.39713E-03   -0.81196E-04 43656   0.106E-01    0.160E-01
DAV:   7    -0.230477459912E+03   -0.35408E-04   -0.11679E-04 36560   0.553E-02    0.583E-02
DAV:   8    -0.230477460223E+03   -0.31056E-06   -0.28563E-05 27424   0.236E-02
   2 F= -.23047746E+03 E0= -.23047154E+03  d E =-.777365E-01  mag=     8.1833
       N       E                     dE             d eps       ncg     rms          rms(c)
DAV:   1    -0.232351502822E+03   -0.18740E+01   -0.46254E+01 34552   0.198E+01    0.490E+00
DAV:   2    -0.232573309329E+03   -0.22181E+00   -0.28777E+00 36724   0.392E+00    0.280E+00
DAV:   3    -0.232596052500E+03   -0.22743E-01   -0.21425E-01 50768   0.232E+00    0.381E+00
DAV:   4    -0.232568581009E+03    0.27471E-01   -0.44913E-02 44680   0.149E+00    0.187E+00
DAV:   5    -0.232558175461E+03    0.10406E-01   -0.16957E-02 48928   0.812E-01    0.169E+00
DAV:   6    -0.232558690468E+03   -0.51501E-03   -0.25970E-02 43240   0.677E-01    0.209E+00
DAV:   7    -0.232554676909E+03    0.40136E-02   -0.18964E-02 45408   0.593E-01    0.326E-01
DAV:   8    -0.232556053209E+03   -0.13763E-02   -0.17278E-03 42968   0.206E-01    0.596E-01
DAV:   9    -0.232555775712E+03    0.27750E-03   -0.72239E-04 44464   0.150E-01    0.217E-01
DAV:  10    -0.232555846434E+03   -0.70723E-04   -0.23069E-04 40624   0.663E-02    0.127E-01
DAV:  11    -0.232555837827E+03    0.86076E-05   -0.45964E-05 37480   0.322E-02
   3 F= -.23255584E+03 E0= -.23255071E+03  d E =-.207838E+01  mag=     8.1575
       N       E                     dE             d eps       ncg     rms          rms(c)
DAV:   1    -0.233426063118E+03   -0.87022E+00   -0.77154E+01 34672   0.300E+01    0.525E+00
DAV:   2    -0.233937304532E+03   -0.51124E+00   -0.58865E+00 36688   0.619E+00    0.258E+00
DAV:   3    -0.233947538940E+03   -0.10234E-01   -0.27338E-01 51168   0.195E+00    0.704E+00
DAV:   4    -0.233915515004E+03    0.32024E-01   -0.36468E-02 39760   0.119E+00    0.212E+00
DAV:   5    -0.233927322680E+03   -0.11808E-01   -0.43200E-02 41880   0.938E-01    0.183E+00
DAV:   6    -0.233920372836E+03    0.69498E-02   -0.16308E-02 41624   0.628E-01    0.101E+00
DAV:   7    -0.233919729545E+03    0.64329E-03   -0.64348E-03 42984   0.289E-01    0.267E-01
DAV:   8    -0.233920112591E+03   -0.38305E-03   -0.14415E-03 42624   0.147E-01    0.202E-01
DAV:   9    -0.233920096402E+03    0.16190E-04   -0.29060E-04 48648   0.816E-02    0.116E-01
DAV:  10    -0.233920102767E+03   -0.63653E-05   -0.53382E-05 36744   0.362E-02
   4 F= -.23392010E+03 E0= -.23391585E+03  d E =-.136426E+01  mag=     8.1345
       N       E                     dE             d eps       ncg     rms          rms(c)
DAV:   1    -0.234056375123E+03   -0.13628E+00   -0.42784E+01 34776   0.263E+01    0.313E+00
DAV:   2    -0.234411514442E+03   -0.35514E+00   -0.36976E+00 35440   0.562E+00    0.422E+00
DAV:   3    -0.234389141705E+03    0.22373E-01   -0.20912E-01 47752   0.241E+00    0.175E+00
DAV:   4    -0.234385481681E+03    0.36600E-02   -0.20839E-02 42656   0.577E-01    0.159E+00
DAV:   5    -0.234387466957E+03   -0.19853E-02   -0.14072E-02 45880   0.725E-01    0.201E+00
DAV:   6    -0.234382745382E+03    0.47216E-02   -0.15993E-02 43928   0.641E-01    0.144E+00
DAV:   7    -0.234380175737E+03    0.25696E-02   -0.79752E-03 47080   0.465E-01    0.570E-01
DAV:   8    -0.234380952223E+03   -0.77649E-03   -0.11291E-03 37888   0.180E-01    0.413E-01
DAV:   9    -0.234380830478E+03    0.12175E-03   -0.31024E-04 49248   0.920E-02    0.202E-01
DAV:  10    -0.234380875990E+03   -0.45512E-04   -0.10934E-04 36672   0.599E-02    0.834E-02
DAV:  11    -0.234380874468E+03    0.15215E-05   -0.21049E-05 30008   0.248E-02
   5 F= -.23438087E+03 E0= -.23437570E+03  d E =-.460772E+00  mag=     8.1627
       N       E                     dE             d eps       ncg     rms          rms(c)
DAV:   1    -0.234061634399E+03    0.31924E+00   -0.54518E+01 35904   0.342E+01    0.441E+00
DAV:   2    -0.234746636991E+03   -0.68500E+00   -0.67319E+00 35232   0.800E+00    0.662E+00
DAV:   3    -0.234691017865E+03    0.55619E-01   -0.41270E-01 41904   0.367E+00    0.261E+00
DAV:   4    -0.234676481741E+03    0.14536E-01   -0.57297E-02 48880   0.127E+00    0.352E+00
DAV:   5    -0.234672221735E+03    0.42600E-02   -0.39745E-02 41856   0.121E+00    0.213E+00
DAV:   6    -0.234667869948E+03    0.43518E-02   -0.21160E-02 45408   0.735E-01    0.124E+00
DAV:   7    -0.234676435321E+03   -0.85654E-02   -0.14283E-02 49040   0.624E-01    0.513E+00
DAV:   8    -0.234659415650E+03    0.17020E-01   -0.70550E-03 36848   0.536E-01    0.280E+00
DAV:   9    -0.234661847567E+03   -0.24319E-02   -0.33272E-03 48312   0.267E-01    0.612E-01
DAV:  10    -0.234668513209E+03   -0.66656E-02   -0.16839E-03 35164   0.207E-01    0.118E+00
DAV:  11    -0.234667725788E+03    0.78742E-03   -0.23174E-04 38856   0.102E-01    0.110E+00
DAV:  12    -0.234666780706E+03    0.94508E-03   -0.18609E-04 46820   0.818E-02    0.672E-01
DAV:  13    -0.234666793837E+03   -0.13131E-04   -0.12137E-04 39064   0.506E-02    0.182E-01
DAV:  14    -0.234667051646E+03   -0.25781E-03   -0.53177E-05 30724   0.304E-02    0.127E-01
DAV:  15    -0.234667106919E+03   -0.55272E-04   -0.17596E-05 26472   0.265E-02    0.178E-01
DAV:  16    -0.234667075608E+03    0.31311E-04   -0.80005E-06 26280   0.204E-02    0.381E-02
DAV:  17    -0.234667092181E+03   -0.16573E-04   -0.86217E-06 21576   0.101E-02    0.806E-02
DAV:  18    -0.234667093447E+03   -0.12657E-05   -0.30110E-06 20936   0.851E-03
   6 F= -.23466709E+03 E0= -.23466181E+03  d E =-.286219E+00  mag=     8.1811
       N       E                     dE             d eps       ncg     rms          rms(c)
DAV:   1    -0.233114602728E+03    0.15525E+01   -0.12462E+02 36176   0.539E+01    0.125E+01
DAV:   2    -0.235426980450E+03   -0.23124E+01   -0.22504E+01 36684   0.174E+01    0.214E+01
DAV:   3    -0.234848047191E+03    0.57893E+00   -0.64350E+00 38364   0.102E+01    0.795E+00
DAV:   4    -0.234772356367E+03    0.75691E-01   -0.47812E-01 42424   0.413E+00    0.492E+00
DAV:   5    -0.234707238283E+03    0.65118E-01   -0.20174E-01 47376   0.207E+00    0.337E+00
DAV:   6    -0.234805176561E+03   -0.97938E-01   -0.10016E-01 50096   0.160E+00    0.148E+01
DAV:   7    -0.234618728426E+03    0.18645E+00   -0.98749E-02 38384   0.215E+00    0.120E+00
DAV:   8    -0.234693118979E+03   -0.74391E-01   -0.32185E-02 40048   0.974E-01    0.141E+00
DAV:   9    -0.234695389947E+03   -0.22710E-02   -0.84789E-03 41344   0.498E-01    0.719E-01
DAV:  10    -0.234695868427E+03   -0.47848E-03   -0.15148E-03 48816   0.183E-01    0.127E+00
DAV:  11    -0.234695163088E+03    0.70534E-03   -0.10616E-03 36224   0.199E-01    0.724E-01
DAV:  12    -0.234695214601E+03   -0.51513E-04   -0.20493E-04 45104   0.741E-02    0.335E-01
DAV:  13    -0.234695719918E+03   -0.50532E-03   -0.16259E-04 35136   0.733E-02    0.620E-01
DAV:  14    -0.234695411459E+03    0.30846E-03   -0.59016E-05 35392   0.544E-02    0.350E-01
DAV:  15    -0.234695478072E+03   -0.66613E-04   -0.45603E-05 28984   0.385E-02    0.264E-01
DAV:  16    -0.234695563387E+03   -0.85315E-04   -0.56285E-05 31216   0.483E-02    0.312E-01
DAV:  17    -0.234695486302E+03    0.77085E-04   -0.11450E-05 26824   0.250E-02    0.105E-01
DAV:  18    -0.234695527299E+03   -0.40997E-04   -0.94229E-06 22808   0.113E-02    0.914E-02
DAV:  19    -0.234695543172E+03   -0.15874E-04   -0.51765E-06 22968   0.132E-02    0.146E-01
DAV:  20    -0.234695527470E+03    0.15703E-04   -0.17090E-06 19936   0.101E-02    0.883E-02
DAV:  21    -0.234695530018E+03   -0.25489E-05   -0.22547E-06 19320   0.802E-03
   7 F= -.23469553E+03 E0= -.23468713E+03  d E =-.284366E-01  mag=     8.3254
       N       E                     dE             d eps       ncg     rms          rms(c)
DAV:   1    -0.234763368876E+03   -0.67841E-01   -0.96135E+00 35888   0.128E+01    0.363E+00
DAV:   2    -0.234882652479E+03   -0.11928E+00   -0.72645E-01 38688   0.283E+00    0.135E+01
DAV:   3    -0.234765689084E+03    0.11696E+00   -0.93499E-02 39160   0.213E+00    0.231E+00
DAV:   4    -0.234835583456E+03   -0.69894E-01   -0.26115E-02 37144   0.806E-01    0.277E+00
DAV:   5    -0.234823146987E+03    0.12436E-01   -0.15833E-02 43000   0.716E-01    0.221E+00
DAV:   6    -0.234818024980E+03    0.51220E-02   -0.12784E-02 46384   0.497E-01    0.766E-01
DAV:   7    -0.234820736299E+03   -0.27113E-02   -0.41361E-03 44552   0.278E-01    0.161E+00
DAV:   8    -0.234819125587E+03    0.16107E-02   -0.12339E-03 37184   0.224E-01    0.817E-01
DAV:   9    -0.234819444337E+03   -0.31875E-03   -0.54879E-04 48584   0.109E-01    0.373E-01
DAV:  10    -0.234820040525E+03   -0.59619E-03   -0.25761E-04 35504   0.799E-02    0.596E-01
DAV:  11    -0.234819719663E+03    0.32086E-03   -0.62608E-05 37112   0.572E-02    0.309E-01
DAV:  12    -0.234819765408E+03   -0.45745E-04   -0.49017E-05 35248   0.298E-02    0.815E-02
DAV:  13    -0.234819852182E+03   -0.86774E-04   -0.25141E-05 27776   0.258E-02    0.180E-01
DAV:  14    -0.234819828931E+03    0.23251E-04   -0.58460E-06 24752   0.164E-02    0.126E-01
DAV:  15    -0.234819824675E+03    0.42559E-05   -0.44492E-06 21096   0.118E-02
   8 F= -.23481982E+03 E0= -.23481295E+03  d E =-.124295E+00  mag=     8.2486
       N       E                     dE             d eps       ncg     rms          rms(c)
DAV:   1    -0.234836071338E+03   -0.16242E-01   -0.20477E+00 34680   0.626E+00    0.990E-01
DAV:   2    -0.234874805586E+03   -0.38734E-01   -0.17119E-01 34940   0.145E+00    0.899E+00
DAV:   3    -0.234826021671E+03    0.48784E-01   -0.23099E-02 36388   0.101E+00    0.415E+00
DAV:   4    -0.234842117203E+03   -0.16096E-01   -0.76297E-03 47600   0.439E-01    0.196E+00
DAV:   5    -0.234856394653E+03   -0.14277E-01   -0.61354E-03 33712   0.453E-01    0.214E+00
DAV:   6    -0.234852358473E+03    0.40362E-02   -0.14533E-03 44400   0.222E-01    0.186E+00
DAV:   7    -0.234849381616E+03    0.29769E-02   -0.13659E-03 48176   0.202E-01    0.966E-01
DAV:   8    -0.234850024430E+03   -0.64281E-03   -0.59349E-04 41744   0.109E-01    0.292E-01
DAV:   9    -0.234850875920E+03   -0.85149E-03   -0.27500E-04 34488   0.863E-02    0.624E-01
DAV:  10    -0.234850533417E+03    0.34250E-03   -0.11069E-04 41328   0.689E-02    0.239E-01
DAV:  11    -0.234850650022E+03   -0.11660E-03   -0.48491E-05 30664   0.300E-02    0.162E-01
DAV:  12    -0.234850709565E+03   -0.59544E-04   -0.31332E-05 28376   0.309E-02    0.225E-01
DAV:  13    -0.234850675345E+03    0.34221E-04   -0.43120E-06 25248   0.144E-02    0.169E-01
DAV:  14    -0.234850665860E+03    0.94846E-05   -0.37479E-06 20056   0.106E-02
   9 F= -.23485067E+03 E0= -.23484409E+03  d E =-.308412E-01  mag=     8.2339
       N       E                     dE             d eps       ncg     rms          rms(c)
DAV:   1    -0.234783030229E+03    0.67645E-01   -0.15318E+01 36640   0.183E+01    0.195E+00
DAV:   2    -0.234915354686E+03   -0.13232E+00   -0.11755E+00 35628   0.328E+00    0.712E+00
DAV:   3    -0.234886556037E+03    0.28799E-01   -0.58240E-02 42512   0.136E+00    0.163E+00
DAV:   4    -0.234907475010E+03   -0.20919E-01   -0.11981E-02 37892   0.567E-01    0.186E+00
DAV:   5    -0.234901917083E+03    0.55579E-02   -0.36879E-03 45320   0.352E-01    0.101E+00
DAV:   6    -0.234902016621E+03   -0.99538E-04   -0.32264E-03 47352   0.266E-01    0.863E-01
DAV:   7    -0.234902844991E+03   -0.82837E-03   -0.19680E-03 36784   0.196E-01    0.137E+00
DAV:   8    -0.234901158625E+03    0.16864E-02   -0.50655E-04 45296   0.148E-01    0.245E-01
DAV:   9    -0.234902090643E+03   -0.93202E-03   -0.31188E-04 36068   0.655E-02    0.316E-01
DAV:  10    -0.234902191412E+03   -0.10077E-03   -0.70396E-05 32116   0.513E-02    0.365E-01
DAV:  11    -0.234902062958E+03    0.12845E-03   -0.30044E-05 30320   0.415E-02    0.930E-02
DAV:  12    -0.234902121883E+03   -0.58925E-04   -0.30704E-05 29824   0.201E-02    0.892E-02
DAV:  13    -0.234902132566E+03   -0.10683E-04   -0.62409E-06 23272   0.147E-02    0.111E-01
DAV:  14    -0.234902121711E+03    0.10855E-04   -0.31420E-06 19680   0.109E-02    0.464E-02
DAV:  15    -0.234902125122E+03   -0.34110E-05   -0.20996E-06 18144   0.500E-03
  10 F= -.23490213E+03 E0= -.23489593E+03  d E =-.514593E-01  mag=     8.2120
       N       E                     dE             d eps       ncg     rms          rms(c)
DAV:   1    -0.234769868615E+03    0.13225E+00   -0.18491E+01 35896   0.203E+01    0.203E+00
DAV:   2    -0.234923403066E+03   -0.15353E+00   -0.14742E+00 35612   0.358E+00    0.161E+00
DAV:   3    -0.234954490374E+03   -0.31087E-01   -0.59665E-02 45424   0.121E+00    0.956E+00
DAV:   4    -0.234898687980E+03    0.55802E-01   -0.21008E-02 36828   0.103E+00    0.415E+00
DAV:   5    -0.234917013250E+03   -0.18325E-01   -0.83740E-03 46400   0.437E-01    0.184E+00
DAV:   6    -0.234932152261E+03   -0.15139E-01   -0.68685E-03 34724   0.443E-01    0.204E+00
DAV:   7    -0.234929254653E+03    0.28976E-02   -0.18872E-03 43920   0.227E-01    0.193E+00
DAV:   8    -0.234926573120E+03    0.26815E-02   -0.11367E-03 48484   0.173E-01    0.162E+00
DAV:   9    -0.234925037959E+03    0.15352E-02   -0.38936E-04 47216   0.101E-01    0.114E+00
DAV:  10    -0.234924782429E+03    0.25553E-03   -0.18526E-04 40440   0.694E-02    0.535E-01
DAV:  11    -0.234925218007E+03   -0.43558E-03   -0.13938E-04 34328   0.513E-02    0.460E-02
DAV:  12    -0.234925479020E+03   -0.26101E-03   -0.71278E-05 32456   0.472E-02    0.116E-01
DAV:  13    -0.234925474874E+03    0.41455E-05   -0.12372E-05 27096   0.236E-02
  11 F= -.23492547E+03 E0= -.23491943E+03  d E =-.233498E-01  mag=     8.2038
       N       E                     dE             d eps       ncg     rms          rms(c)
DAV:   1    -0.234657626242E+03    0.26785E+00   -0.39581E+01 36104   0.278E+01    0.278E+00
DAV:   2    -0.234923790881E+03   -0.26616E+00   -0.26040E+00 35576   0.486E+00    0.156E+00
DAV:   3    -0.234939114910E+03   -0.15324E-01   -0.86233E-02 43200   0.129E+00    0.255E+00
DAV:   4    -0.234928870538E+03    0.10244E-01   -0.17470E-02 40112   0.827E-01    0.679E-01
DAV:   5    -0.234931079508E+03   -0.22090E-02   -0.51134E-03 43592   0.326E-01    0.254E+00
DAV:   6    -0.234925486994E+03    0.55925E-02   -0.43015E-03 39496   0.423E-01    0.290E-01
DAV:   7    -0.234928745681E+03   -0.32587E-02   -0.24067E-03 39416   0.202E-01    0.986E-01
DAV:   8    -0.234927995183E+03    0.75050E-03   -0.10388E-03 38584   0.171E-01    0.719E-01
DAV:   9    -0.234927645026E+03    0.35016E-03   -0.25751E-04 47296   0.898E-02    0.304E-01
DAV:  10    -0.234927811782E+03   -0.16676E-03   -0.93962E-05 38656   0.420E-02    0.913E-02
DAV:  11    -0.234927924437E+03   -0.11265E-03   -0.28945E-05 29552   0.298E-02    0.232E-01
DAV:  12    -0.234927869782E+03    0.54655E-04   -0.18562E-05 27368   0.309E-02    0.779E-02
DAV:  13    -0.234927885151E+03   -0.15370E-04   -0.12133E-05 22600   0.116E-02    0.319E-02
DAV:  14    -0.234927890886E+03   -0.57343E-05   -0.25161E-06 20968   0.903E-03
  12 F= -.23492789E+03 E0= -.23492251E+03  d E =-.241601E-02  mag=     8.1780
       N       E                     dE             d eps       ncg     rms          rms(c)
DAV:   1    -0.234902660540E+03    0.25225E-01   -0.11473E+01 35216   0.116E+01    0.221E+00
DAV:   2    -0.234950133644E+03   -0.47473E-01   -0.44999E-01 38312   0.210E+00    0.402E+00
DAV:   3    -0.234946115138E+03    0.40185E-02   -0.32504E-02 40224   0.120E+00    0.223E+00
DAV:   4    -0.234946811524E+03   -0.69639E-03   -0.94664E-03 39176   0.628E-01    0.158E+00
DAV:   5    -0.234942204157E+03    0.46074E-02   -0.29870E-03 45288   0.307E-01    0.934E-01
DAV:   6    -0.234942222232E+03   -0.18075E-04   -0.24876E-03 47864   0.250E-01    0.864E-01
DAV:   7    -0.234942575245E+03   -0.35301E-03   -0.15020E-03 36800   0.186E-01    0.951E-01
DAV:   8    -0.234941745216E+03    0.83003E-03   -0.38953E-04 44616   0.117E-01    0.145E-01
DAV:   9    -0.234942263607E+03   -0.51839E-03   -0.19396E-04 38056   0.535E-02    0.269E-01
DAV:  10    -0.234942257091E+03    0.65154E-05   -0.41831E-05 30520   0.436E-02
  13 F= -.23494226E+03 E0= -.23493779E+03  d E =-.143662E-01  mag=     8.1592
       N       E                     dE             d eps       ncg     rms          rms(c)
DAV:   1    -0.234929954113E+03    0.12309E-01   -0.34870E+00 36720   0.859E+00    0.120E+00
DAV:   2    -0.234955787564E+03   -0.25833E-01   -0.25524E-01 36876   0.153E+00    0.487E-01
DAV:   3    -0.234956168111E+03   -0.38055E-03   -0.88317E-03 41296   0.354E-01    0.329E-01
DAV:   4    -0.234956345298E+03   -0.17719E-03   -0.21545E-03 45384   0.230E-01    0.854E-01
DAV:   5    -0.234955726430E+03    0.61887E-03   -0.61967E-04 41208   0.178E-01    0.298E-01
DAV:   6    -0.234955866854E+03   -0.14042E-03   -0.82580E-04 43200   0.130E-01    0.197E-01
DAV:   7    -0.234955826189E+03    0.40666E-04   -0.19703E-04 41880   0.661E-02    0.433E-02
DAV:   8    -0.234955844054E+03   -0.17865E-04   -0.29570E-05 31728   0.198E-02    0.771E-02
DAV:   9    -0.234955838838E+03    0.52159E-05   -0.85989E-06 22960   0.179E-02
  14 F= -.23495584E+03 E0= -.23495061E+03  d E =-.135817E-01  mag=     8.1665
       N       E                     dE             d eps       ncg     rms          rms(c)
DAV:   1    -0.234953946805E+03    0.18972E-02   -0.20059E+00 35496   0.504E+00    0.518E-01
DAV:   2    -0.234964627625E+03   -0.10681E-01   -0.82618E-02 37548   0.935E-01    0.265E+00
DAV:   3    -0.234959461231E+03    0.51664E-02   -0.61657E-03 37540   0.475E-01    0.337E-01
DAV:   4    -0.234961929334E+03   -0.24681E-02   -0.10689E-03 37224   0.145E-01    0.525E-01
DAV:   5    -0.234961799019E+03    0.13032E-03   -0.42849E-04 39848   0.123E-01    0.292E-01
DAV:   6    -0.234961769454E+03    0.29565E-04   -0.29440E-04 47008   0.910E-02    0.255E-01
DAV:   7    -0.234961878556E+03   -0.10910E-03   -0.21313E-04 38216   0.610E-02    0.449E-01
DAV:   8    -0.234961683938E+03    0.19462E-03   -0.52802E-05 32136   0.489E-02    0.197E-01
DAV:   9    -0.234961733408E+03   -0.49470E-04   -0.36107E-05 29368   0.271E-02    0.534E-02
DAV:  10    -0.234961769480E+03   -0.36072E-04   -0.16988E-05 25128   0.214E-02    0.880E-02
DAV:  11    -0.234961762305E+03    0.71749E-05   -0.25808E-06 20120   0.105E-02
  15 F= -.23496176E+03 E0= -.23495690E+03  d E =-.592347E-02  mag=     8.1578
       N       E                     dE             d eps       ncg     rms          rms(c)
DAV:   1    -0.234195125675E+03    0.76664E+00   -0.21921E+02 34544   0.500E+01    0.481E+00
DAV:   2    -0.234979321116E+03   -0.78420E+00   -0.81393E+00 36360   0.864E+00    0.400E+00
DAV:   3    -0.234995685458E+03   -0.16364E-01   -0.28654E-01 44560   0.281E+00    0.345E+00
DAV:   4    -0.234972750785E+03    0.22935E-01   -0.58267E-02 42888   0.148E+00    0.167E+00
DAV:   5    -0.234961524271E+03    0.11227E-01   -0.18506E-02 45896   0.713E-01    0.101E+00
DAV:   6    -0.234964214064E+03   -0.26898E-02   -0.16120E-02 42568   0.557E-01    0.310E+00
DAV:   7    -0.234955314891E+03    0.88992E-02   -0.12640E-02 43112   0.670E-01    0.528E-01
DAV:   8    -0.234959295090E+03   -0.39802E-02   -0.34664E-03 37180   0.284E-01    0.435E-01
DAV:   9    -0.234958943063E+03    0.35203E-03   -0.65503E-04 42632   0.131E-01    0.244E-01
DAV:  10    -0.234958916655E+03    0.26408E-04   -0.24863E-04 40012   0.641E-02    0.181E-01
DAV:  11    -0.234958877415E+03    0.39240E-04   -0.78625E-05 37776   0.506E-02    0.318E-02
DAV:  12    -0.234958894922E+03   -0.17507E-04   -0.26628E-05 28428   0.244E-02    0.238E-02
DAV:  13    -0.234958895341E+03   -0.41948E-06   -0.79601E-06 21320   0.133E-02
  16 F= -.23495890E+03 E0= -.23495654E+03  d E =0.286696E-02  mag=     8.0617
       N       E                     dE             d eps       ncg     rms          rms(c)
DAV:   1    -0.234039335795E+03    0.91956E+00   -0.23028E+02 34464   0.527E+01    0.665E+00
DAV:   2    -0.234936285244E+03   -0.89695E+00   -0.94139E+00 36444   0.920E+00    0.277E+00
DAV:   3    -0.234931708732E+03    0.45765E-02   -0.26264E-01 40792   0.207E+00    0.200E+00
DAV:   4    -0.234925124793E+03    0.65839E-02   -0.75986E-02 45216   0.117E+00    0.171E+00
DAV:   5    -0.234919504902E+03    0.56199E-02   -0.24406E-02 45432   0.731E-01    0.942E-01
DAV:   6    -0.234919094028E+03    0.41087E-03   -0.94852E-03 39784   0.518E-01    0.671E-01
DAV:   7    -0.234918808356E+03    0.28567E-03   -0.43675E-03 43736   0.407E-01    0.333E-01
DAV:   8    -0.234918878181E+03   -0.69824E-04   -0.85522E-04 40400   0.144E-01    0.997E-02
DAV:   9    -0.234918857050E+03    0.21131E-04   -0.17955E-04 38728   0.582E-02    0.493E-02
DAV:  10    -0.234918850846E+03    0.62043E-05   -0.80933E-05 38232   0.384E-02
  17 F= -.23491885E+03 E0= -.23491762E+03  d E =0.400445E-01  mag=     8.0266
       N       E                     dE             d eps       ncg     rms          rms(c)
DAV:   1    -0.234389191450E+03    0.52967E+00   -0.16932E+02 35032   0.442E+01    0.532E+00
DAV:   2    -0.234978420881E+03   -0.58923E+00   -0.61237E+00 35696   0.766E+00    0.362E+00
DAV:   3    -0.234984005862E+03   -0.55850E-02   -0.26624E-01 41560   0.286E+00    0.771E+00
DAV:   4    -0.234951859936E+03    0.32146E-01   -0.92106E-02 41904   0.201E+00    0.203E+00
DAV:   5    -0.234958124181E+03   -0.62642E-02   -0.23425E-02 40048   0.850E-01    0.152E+00
DAV:   6    -0.234951176396E+03    0.69478E-02   -0.11857E-02 47648   0.572E-01    0.547E-01
DAV:   7    -0.234951675066E+03   -0.49867E-03   -0.45999E-03 39640   0.240E-01    0.270E-01
DAV:   8    -0.234951761044E+03   -0.85978E-04   -0.12250E-03 39408   0.164E-01    0.168E-01
DAV:   9    -0.234951797383E+03   -0.36339E-04   -0.36403E-04 44064   0.782E-02    0.206E-01
DAV:  10    -0.234951740838E+03    0.56545E-04   -0.63519E-05 37672   0.485E-02    0.355E-02
DAV:  11    -0.234951758625E+03   -0.17787E-04   -0.34740E-05 32392   0.238E-02    0.267E-02
DAV:  12    -0.234951760030E+03   -0.14047E-05   -0.57539E-06 20824   0.101E-02
  18 F= -.23495176E+03 E0= -.23494812E+03  d E =-.329092E-01  mag=     8.1037
       N       E                     dE             d eps       ncg     rms          rms(c)
DAV:   1    -0.234429481977E+03    0.52228E+00   -0.10874E+02 34680   0.381E+01    0.680E+00
DAV:   2    -0.234948940265E+03   -0.51946E+00   -0.53040E+00 38832   0.727E+00    0.446E+00
DAV:   3    -0.234946381703E+03    0.25586E-02   -0.33123E-01 39696   0.349E+00    0.857E+00
DAV:   4    -0.234916831342E+03    0.29550E-01   -0.10414E-01 41568   0.229E+00    0.255E+00
DAV:   5    -0.234921866735E+03   -0.50354E-02   -0.26562E-02 40368   0.977E-01    0.181E+00
DAV:   6    -0.234913155931E+03    0.87108E-02   -0.25534E-02 47184   0.883E-01    0.871E-01
DAV:   7    -0.234913938969E+03   -0.78304E-03   -0.13758E-02 40344   0.477E-01    0.102E+00
DAV:   8    -0.234912883157E+03    0.10558E-02   -0.32266E-03 41184   0.332E-01    0.453E-01
DAV:   9    -0.234913136595E+03   -0.25344E-03   -0.90561E-04 40568   0.144E-01    0.259E-01
DAV:  10    -0.234913070494E+03    0.66102E-04   -0.10196E-04 38264   0.474E-02    0.113E-01
DAV:  11    -0.234913086111E+03   -0.15618E-04   -0.66905E-05 38328   0.356E-02    0.849E-02
DAV:  12    -0.234913089502E+03   -0.33905E-05   -0.25090E-05 28936   0.287E-02
  19 F= -.23491309E+03 E0= -.23490923E+03  d E =0.386705E-01  mag=     8.1092
       N       E                     dE             d eps       ncg     rms          rms(c)
DAV:   1    -0.234621435472E+03    0.29165E+00   -0.10283E+02 34680   0.355E+01    0.478E+00
DAV:   2    -0.235019080295E+03   -0.39764E+00   -0.41539E+00 36492   0.630E+00    0.511E+00
DAV:   3    -0.235034903206E+03   -0.15823E-01   -0.23526E-01 42472   0.293E+00    0.367E+00
DAV:   4    -0.235018373263E+03    0.16530E-01   -0.48148E-02 42896   0.137E+00    0.177E+00
DAV:   5    -0.235005456260E+03    0.12917E-01   -0.19018E-02 46392   0.789E-01    0.123E+00
DAV:   6    -0.235002580167E+03    0.28761E-02   -0.17325E-02 47944   0.635E-01    0.912E-01
DAV:   7    -0.235002965395E+03   -0.38523E-03   -0.83769E-03 39280   0.384E-01    0.101E+00
DAV:   8    -0.235001993159E+03    0.97224E-03   -0.26135E-03 47048   0.306E-01    0.416E-01
DAV:   9    -0.235002203047E+03   -0.20989E-03   -0.79373E-04 39088   0.146E-01    0.211E-01
DAV:  10    -0.235002140022E+03    0.63026E-04   -0.10165E-04 40368   0.530E-02    0.464E-02
DAV:  11    -0.235002156467E+03   -0.16445E-04   -0.54984E-05 36664   0.308E-02    0.209E-02
DAV:  12    -0.235002158907E+03   -0.24399E-05   -0.83543E-06 21248   0.121E-02
  20 F= -.23500216E+03 E0= -.23499938E+03  d E =-.890694E-01  mag=     8.0737
       N       E                     dE             d eps       ncg     rms          rms(c)
DAV:   1    -0.234885322260E+03    0.11683E+00   -0.20022E+01 35904   0.159E+01    0.317E+00
DAV:   2    -0.234971500313E+03   -0.86178E-01   -0.91925E-01 39136   0.283E+00    0.144E+00
DAV:   3    -0.234973810824E+03   -0.23105E-02   -0.42481E-02 43408   0.121E+00    0.182E+00
DAV:   4    -0.234967563382E+03    0.62474E-02   -0.15521E-02 44112   0.827E-01    0.583E-01
DAV:   5    -0.234968335906E+03   -0.77252E-03   -0.51459E-03 44720   0.351E-01    0.138E+00
DAV:   6    -0.234966458164E+03    0.18777E-02   -0.33242E-03 41848   0.380E-01    0.346E-01
DAV:   7    -0.234967069024E+03   -0.61086E-03   -0.91806E-04 38880   0.148E-01    0.279E-01
DAV:   8    -0.234966960792E+03    0.10823E-03   -0.31049E-04 42960   0.871E-02    0.140E-01
DAV:   9    -0.234966947805E+03    0.12988E-04   -0.71232E-05 38008   0.411E-02    0.322E-02
DAV:  10    -0.234966957696E+03   -0.98914E-05   -0.27607E-05 29144   0.240E-02
  21 F= -.23496696E+03 E0= -.23496448E+03  d E =0.352012E-01  mag=     8.0634
       N       E                     dE             d eps       ncg     rms          rms(c)
DAV:   1    -0.234948634362E+03    0.18313E-01   -0.15261E+01 35480   0.138E+01    0.246E+00
DAV:   2    -0.235011677985E+03   -0.63044E-01   -0.66559E-01 38600   0.249E+00    0.147E+00
DAV:   3    -0.235019712884E+03   -0.80349E-02   -0.37975E-02 41800   0.118E+00    0.513E+00
DAV:   4    -0.235000536756E+03    0.19176E-01   -0.16708E-02 40768   0.947E-01    0.782E-01
DAV:   5    -0.235008881058E+03   -0.83443E-02   -0.64623E-03 37864   0.401E-01    0.788E-01
DAV:   6    -0.235008006388E+03    0.87467E-03   -0.38318E-03 44496   0.308E-01    0.422E-01
DAV:   7    -0.235007896803E+03    0.10958E-03   -0.11369E-03 44120   0.148E-01    0.119E-01
DAV:   8    -0.235007963106E+03   -0.66303E-04   -0.21054E-04 38424   0.650E-02    0.737E-02
DAV:   9    -0.235007962309E+03    0.79695E-06   -0.26230E-05 31168   0.219E-02
  22 F= -.23500796E+03 E0= -.23500533E+03  d E =-.410046E-01  mag=     8.0752
       N       E                     dE             d eps       ncg     rms          rms(c)
DAV:   1    -0.235008419545E+03   -0.45644E-03   -0.16967E-01 35576   0.152E+00    0.202E-01
DAV:   2    -0.235009220112E+03   -0.80057E-03   -0.77436E-03 38304   0.273E-01    0.256E-01
DAV:   3    -0.235009224661E+03   -0.45494E-05   -0.50250E-04 40648   0.133E-01    0.235E-01
DAV:   4    -0.235009167550E+03    0.57112E-04   -0.99098E-05 36960   0.668E-02    0.707E-02
DAV:   5    -0.235009168102E+03   -0.55158E-06   -0.35859E-05 29000   0.305E-02
  23 F= -.23500917E+03 E0= -.23500621E+03  d E =-.120579E-02  mag=     8.0743
       N       E                     dE             d eps       ncg     rms          rms(c)
DAV:   1    -0.234896321173E+03    0.11285E+00   -0.32798E+01 35496   0.199E+01    0.166E+00
DAV:   2    -0.235019815721E+03   -0.12349E+00   -0.12550E+00 36352   0.333E+00    0.839E-01
DAV:   3    -0.235020707592E+03   -0.89187E-03   -0.33285E-02 40320   0.607E-01    0.598E-01
DAV:   4    -0.235020130548E+03    0.57704E-03   -0.52567E-03 46848   0.349E-01    0.830E-01
DAV:   5    -0.235019217353E+03    0.91320E-03   -0.27107E-03 45032   0.326E-01    0.475E-01
DAV:   6    -0.235019052728E+03    0.16462E-03   -0.21999E-03 42928   0.224E-01    0.263E-01
DAV:   7    -0.235018999444E+03    0.53284E-04   -0.89686E-04 44712   0.136E-01    0.759E-02
DAV:   8    -0.235019035720E+03   -0.36276E-04   -0.15000E-04 38584   0.460E-02    0.517E-02
DAV:   9    -0.235019032169E+03    0.35510E-05   -0.10761E-05 25848   0.197E-02
  24 F= -.23501903E+03 E0= -.23501656E+03  d E =-.986407E-02  mag=     8.0654
       N       E                     dE             d eps       ncg     rms          rms(c)
DAV:   1    -0.234099884943E+03    0.91915E+00   -0.22079E+02 35496   0.498E+01    0.623E+00
DAV:   2    -0.234907658910E+03   -0.80777E+00   -0.85426E+00 38224   0.876E+00    0.323E+00
DAV:   3    -0.234896486623E+03    0.11172E-01   -0.21856E-01 40392   0.193E+00    0.217E+00
DAV:   4    -0.234889108468E+03    0.73782E-02   -0.46089E-02 45088   0.891E-01    0.175E+00
DAV:   5    -0.234886793778E+03    0.23147E-02   -0.21286E-02 45256   0.759E-01    0.170E+00
DAV:   6    -0.234886078522E+03    0.71526E-03   -0.12348E-02 43848   0.737E-01    0.101E+00
DAV:   7    -0.234885684337E+03    0.39419E-03   -0.72059E-03 43328   0.484E-01    0.567E-01
DAV:   8    -0.234885440962E+03    0.24338E-03   -0.25700E-03 42240   0.221E-01    0.263E-01
DAV:   9    -0.234885316206E+03    0.12476E-03   -0.29440E-04 44608   0.867E-02    0.699E-02
DAV:  10    -0.234885320156E+03   -0.39501E-05   -0.13547E-04 38520   0.443E-02    0.381E-02
DAV:  11    -0.234885317923E+03    0.22329E-05   -0.45723E-05 32592   0.286E-02
  25 F= -.23488532E+03 E0= -.23488337E+03  d E =0.133714E+00  mag=     8.0465
       N       E                     dE             d eps       ncg     rms          rms(c)
DAV:   1    -0.234774650106E+03    0.11067E+00   -0.63642E+01 35904   0.270E+01    0.554E+00
DAV:   2    -0.235029819782E+03   -0.25517E+00   -0.26985E+00 39136   0.490E+00    0.235E+00
DAV:   3    -0.235031468800E+03   -0.16490E-02   -0.11684E-01 41480   0.177E+00    0.522E+00
DAV:   4    -0.235017208605E+03    0.14260E-01   -0.55357E-02 42064   0.151E+00    0.162E+00
DAV:   5    -0.235020824055E+03   -0.36154E-02   -0.17350E-02 41216   0.762E-01    0.115E+00
DAV:   6    -0.235017950991E+03    0.28731E-02   -0.10250E-02 43888   0.472E-01    0.671E-01
DAV:   7    -0.235017231877E+03    0.71911E-03   -0.37325E-03 45712   0.299E-01    0.339E-01
DAV:   8    -0.235017334609E+03   -0.10273E-03   -0.81386E-04 40832   0.101E-01    0.135E-01
DAV:   9    -0.235017328217E+03    0.63918E-05   -0.21888E-04 43608   0.722E-02    0.561E-02
DAV:  10    -0.235017331961E+03   -0.37439E-05   -0.12137E-04 38208   0.433E-02    0.546E-02
DAV:  11    -0.235017326899E+03    0.50619E-05   -0.18966E-05 24024   0.224E-02
  26 F= -.23501733E+03 E0= -.23501525E+03  d E =-.132009E+00  mag=     8.0525
       N       E                     dE             d eps       ncg     rms          rms(c)
DAV:   1    -0.234998111993E+03    0.19220E-01   -0.73740E+00 35480   0.890E+00    0.148E+00
DAV:   2    -0.235020274640E+03   -0.22163E-01   -0.24863E-01 39480   0.156E+00    0.895E-01
DAV:   3    -0.235020969705E+03   -0.69506E-03   -0.14020E-02 42344   0.667E-01    0.170E+00
DAV:   4    -0.235018702942E+03    0.22668E-02   -0.56088E-03 42552   0.520E-01    0.663E-01
DAV:   5    -0.235018976151E+03   -0.27321E-03   -0.35222E-03 44672   0.299E-01    0.443E-01
DAV:   6    -0.235018705949E+03    0.27020E-03   -0.20224E-03 45408   0.193E-01    0.175E-01
DAV:   7    -0.235018738303E+03   -0.32354E-04   -0.22847E-04 39464   0.612E-02    0.553E-02
DAV:   8    -0.235018738096E+03    0.20666E-06   -0.52218E-05 32232   0.344E-02
  27 F= -.23501874E+03 E0= -.23501636E+03  d E =-.141120E-02  mag=     8.0651
       N       E                     dE             d eps       ncg     rms          rms(c)
DAV:   1    -0.235015417001E+03    0.33213E-02   -0.22304E+00 35096   0.495E+00    0.773E-01
DAV:   2    -0.235022581157E+03   -0.71642E-02   -0.78170E-02 39184   0.861E-01    0.444E-01
DAV:   3    -0.235022774438E+03   -0.19328E-03   -0.36752E-03 42736   0.349E-01    0.642E-01
DAV:   4    -0.235022188372E+03    0.58607E-03   -0.13816E-03 43856   0.248E-01    0.186E-01
DAV:   5    -0.235022193051E+03   -0.46790E-05   -0.41698E-04 41832   0.943E-02    0.130E-01
DAV:   6    -0.235022184594E+03    0.84571E-05   -0.30714E-04 41296   0.728E-02    0.850E-02
DAV:   7    -0.235022182311E+03    0.22834E-05   -0.78056E-05 30480   0.389E-02
  28 F= -.23502218E+03 E0= -.23501995E+03  d E =-.344421E-02  mag=     8.0576
       N       E                     dE             d eps       ncg     rms          rms(c)
DAV:   1    -0.235020085875E+03    0.20987E-02   -0.94168E-01 34376   0.325E+00    0.339E-01
DAV:   2    -0.235023052550E+03   -0.29667E-02   -0.31360E-02 37272   0.551E-01    0.177E-01
DAV:   3    -0.235023050695E+03    0.18557E-05   -0.90564E-04 41512   0.137E-01    0.221E-01
DAV:   4    -0.235023004371E+03    0.46323E-04   -0.24946E-04 40960   0.922E-02    0.141E-01
DAV:   5    -0.235022974963E+03    0.29408E-04   -0.10361E-04 41432   0.576E-02    0.695E-02
DAV:   6    -0.235022974103E+03    0.86093E-06   -0.10553E-04 39056   0.427E-02    0.445E-02
DAV:   7    -0.235022974102E+03    0.58208E-09   -0.22560E-05 24432   0.227E-02
  29 F= -.23502297E+03 E0= -.23502061E+03  d E =-.791791E-03  mag=     8.0608
       N       E                     dE             d eps       ncg     rms          rms(c)
DAV:   1    -0.234808680029E+03    0.21429E+00   -0.65721E+01 34280   0.274E+01    0.200E+00
DAV:   2    -0.235028856828E+03   -0.22018E+00   -0.22767E+00 35528   0.463E+00    0.116E+00
DAV:   3    -0.235029265775E+03   -0.40895E-03   -0.53072E-02 41176   0.903E-01    0.105E+00
DAV:   4    -0.235027316997E+03    0.19488E-02   -0.89641E-03 44352   0.514E-01    0.756E-01
DAV:   5    -0.235025373084E+03    0.19439E-02   -0.48188E-03 41768   0.373E-01    0.458E-01
DAV:   6    -0.235025082625E+03    0.29046E-03   -0.32547E-03 38712   0.260E-01    0.235E-01
DAV:   7    -0.235025132361E+03   -0.49737E-04   -0.13081E-03 43360   0.153E-01    0.144E-01
DAV:   8    -0.235025137275E+03   -0.49136E-05   -0.24603E-04 39976   0.731E-02    0.604E-02
DAV:   9    -0.235025133719E+03    0.35564E-05   -0.23228E-05 29264   0.257E-02
  30 F= -.23502513E+03 E0= -.23502301E+03  d E =-.215962E-02  mag=     8.0538
       N       E                     dE             d eps       ncg     rms          rms(c)
DAV:   1    -0.233862542318E+03    0.11626E+01   -0.90129E+01 35936   0.324E+01    0.132E+01
DAV:   2    -0.234317056396E+03   -0.45451E+00   -0.58914E+00 41248   0.891E+00    0.915E+00
DAV:   3    -0.234174265286E+03    0.14279E+00   -0.83261E-01 39328   0.653E+00    0.744E+00
DAV:   4    -0.234208450918E+03   -0.34186E-01   -0.12325E+00 42432   0.393E+00    0.595E+00
DAV:   5    -0.234151285474E+03    0.57165E-01   -0.12572E-01 43984   0.241E+00    0.275E+00
DAV:   6    -0.234154628915E+03   -0.33434E-02   -0.48648E-02 46600   0.146E+00    0.762E+00
DAV:   7    -0.234116687092E+03    0.37942E-01   -0.54978E-02 38896   0.145E+00    0.227E+00
DAV:   8    -0.234140219206E+03   -0.23532E-01   -0.13914E-02 36664   0.598E-01    0.227E+00
DAV:   9    -0.234132978643E+03    0.72406E-02   -0.35744E-03 41728   0.358E-01    0.169E+00
DAV:  10    -0.234130457984E+03    0.25207E-02   -0.15212E-03 49232   0.188E-01    0.674E-01
DAV:  11    -0.234131580458E+03   -0.11225E-02   -0.60335E-04 39640   0.128E-01    0.575E-01
DAV:  12    -0.234131951521E+03   -0.37106E-03   -0.53169E-04 35368   0.116E-01    0.650E-01
DAV:  13    -0.234131581296E+03    0.37022E-03   -0.25875E-04 43776   0.761E-02    0.165E-01
DAV:  14    -0.234131781296E+03   -0.20000E-03   -0.83333E-05 34448   0.307E-02    0.181E-01
DAV:  15    -0.234131794309E+03   -0.13014E-04   -0.32821E-05 28864   0.358E-02    0.124E-01
DAV:  16    -0.234131784373E+03    0.99364E-05   -0.98532E-06 26328   0.144E-02
  31 F= -.23413178E+03 E0= -.23412453E+03  d E =0.893349E+00  mag=     8.2659
       N       E                     dE             d eps       ncg     rms          rms(c)
DAV:   1    -0.234684155497E+03   -0.55236E+00   -0.11436E+01 34680   0.101E+01    0.472E+00
DAV:   2    -0.234810115103E+03   -0.12596E+00   -0.71140E-01 41920   0.296E+00    0.140E+01
DAV:   3    -0.234664892521E+03    0.14522E+00   -0.16128E-01 39048   0.255E+00    0.338E+00
DAV:   4    -0.234731273986E+03   -0.66381E-01   -0.39407E-02 37408   0.979E-01    0.263E+00
DAV:   5    -0.234718630680E+03    0.12643E-01   -0.25269E-02 43648   0.894E-01    0.191E+00
DAV:   6    -0.234721188690E+03   -0.25580E-02   -0.20103E-02 44800   0.824E-01    0.412E+00
DAV:   7    -0.234717885564E+03    0.33031E-02   -0.32988E-02 37984   0.649E-01    0.458E+00
DAV:   8    -0.234704566821E+03    0.13319E-01   -0.10701E-02 38912   0.494E-01    0.176E+00
DAV:   9    -0.234711492080E+03   -0.69253E-02   -0.61224E-03 42616   0.224E-01    0.546E-01
DAV:  10    -0.234714779396E+03   -0.32873E-02   -0.11991E-03 34552   0.179E-01    0.759E-01
DAV:  11    -0.234714174967E+03    0.60443E-03   -0.27520E-04 43792   0.886E-02    0.576E-01
DAV:  12    -0.234713841063E+03    0.33390E-03   -0.16744E-04 44920   0.598E-02    0.220E-01
DAV:  13    -0.234713953113E+03   -0.11205E-03   -0.45689E-05 32032   0.272E-02    0.455E-02
DAV:  14    -0.234714002111E+03   -0.48998E-04   -0.14834E-05 26240   0.166E-02    0.763E-02
DAV:  15    -0.234713998851E+03    0.32605E-05   -0.50847E-06 22920   0.144E-02
  32 F= -.23471400E+03 E0= -.23470824E+03  d E =-.582214E+00  mag=     8.1831
       N       E                     dE             d eps       ncg     rms          rms(c)
DAV:   1    -0.234898485289E+03   -0.18448E+00   -0.41332E+00 34680   0.619E+00    0.253E+00
DAV:   2    -0.234929115974E+03   -0.30631E-01   -0.23380E-01 41616   0.160E+00    0.680E+00
DAV:   3    -0.234899414008E+03    0.29702E-01   -0.45135E-02 39440   0.128E+00    0.178E+00
DAV:   4    -0.234914329974E+03   -0.14916E-01   -0.14373E-02 38744   0.606E-01    0.151E+00
DAV:   5    -0.234911144889E+03    0.31851E-02   -0.10312E-02 43584   0.498E-01    0.113E+00
DAV:   6    -0.234909645808E+03    0.14991E-02   -0.73601E-03 45952   0.466E-01    0.624E-01
DAV:   7    -0.234910231979E+03   -0.58617E-03   -0.16093E-03 38928   0.176E-01    0.806E-01
DAV:   8    -0.234909474494E+03    0.75749E-03   -0.31881E-04 44136   0.108E-01    0.197E-01
DAV:   9    -0.234909757464E+03   -0.28297E-03   -0.29855E-04 43448   0.620E-02    0.167E-01
DAV:  10    -0.234909801920E+03   -0.44457E-04   -0.49788E-05 33128   0.374E-02    0.182E-01
DAV:  11    -0.234909762360E+03    0.39560E-04   -0.14749E-05 26632   0.249E-02    0.894E-02
DAV:  12    -0.234909766423E+03   -0.40631E-05   -0.16199E-05 22584   0.132E-02
  33 F= -.23490977E+03 E0= -.23490548E+03  d E =-.195768E+00  mag=     8.1289
       N       E                     dE             d eps       ncg     rms          rms(c)
DAV:   1    -0.234997640062E+03   -0.87878E-01   -0.59222E+00 34680   0.763E+00    0.277E+00
DAV:   2    -0.235026667828E+03   -0.29028E-01   -0.31595E-01 41800   0.197E+00    0.493E+00
DAV:   3    -0.235016029968E+03    0.10638E-01   -0.50871E-02 40240   0.147E+00    0.209E+00
DAV:   4    -0.235018768953E+03   -0.27390E-02   -0.13080E-02 40432   0.616E-01    0.136E+00
DAV:   5    -0.235014731358E+03    0.40376E-02   -0.12682E-02 44992   0.582E-01    0.109E+00
DAV:   6    -0.235013019860E+03    0.17115E-02   -0.81871E-03 46960   0.413E-01    0.409E-01
DAV:   7    -0.235013396593E+03   -0.37673E-03   -0.13742E-03 42208   0.155E-01    0.328E-01
DAV:   8    -0.235013256592E+03    0.14000E-03   -0.32367E-04 41408   0.100E-01    0.814E-02
DAV:   9    -0.235013291059E+03   -0.34467E-04   -0.15158E-04 42016   0.484E-02    0.107E-01
DAV:  10    -0.235013279303E+03    0.11757E-04   -0.19997E-05 27176   0.231E-02    0.614E-02
DAV:  11    -0.235013276665E+03    0.26378E-05   -0.14013E-05 25048   0.202E-02
  34 F= -.23501328E+03 E0= -.23501039E+03  d E =-.103510E+00  mag=     8.0767
       N       E                     dE             d eps       ncg     rms          rms(c)
DAV:   1    -0.235023215909E+03   -0.99366E-02   -0.53930E-01 35216   0.239E+00    0.747E-01
DAV:   2    -0.235024946544E+03   -0.17306E-02   -0.23810E-02 40504   0.545E-01    0.742E-01
DAV:   3    -0.235025134642E+03   -0.18810E-03   -0.39145E-03 41072   0.397E-01    0.725E-01
DAV:   4    -0.235024469305E+03    0.66534E-03   -0.15907E-03 44400   0.249E-01    0.253E-01
DAV:   5    -0.235024501658E+03   -0.32353E-04   -0.14059E-03 45440   0.160E-01    0.211E-01
DAV:   6    -0.235024483048E+03    0.18610E-04   -0.43749E-04 43256   0.859E-02    0.121E-01
DAV:   7    -0.235024467270E+03    0.15778E-04   -0.31026E-05 30048   0.345E-02    0.298E-02
DAV:   8    -0.235024469262E+03   -0.19917E-05   -0.16327E-05 23928   0.171E-02
  35 F= -.23502447E+03 E0= -.23502205E+03  d E =-.111926E-01  mag=     8.0636
       N       E                     dE             d eps       ncg     rms          rms(c)
DAV:   1    -0.235028897700E+03   -0.44304E-02   -0.79788E-01 35176   0.293E+00    0.886E-01
DAV:   2    -0.235031188848E+03   -0.22911E-02   -0.33120E-02 40552   0.618E-01    0.652E-01
DAV:   3    -0.235031544100E+03   -0.35525E-03   -0.45894E-03 42352   0.418E-01    0.760E-01
DAV:   4    -0.235030758803E+03    0.78530E-03   -0.20186E-03 44360   0.297E-01    0.219E-01
DAV:   5    -0.235030838483E+03   -0.79680E-04   -0.11677E-03 46960   0.144E-01    0.208E-01
DAV:   6    -0.235030803996E+03    0.34486E-04   -0.55589E-04 42592   0.987E-02    0.109E-01
DAV:   7    -0.235030795920E+03    0.80766E-05   -0.33606E-05 30024   0.371E-02
  36 F= -.23503080E+03 E0= -.23502873E+03  d E =-.632666E-02  mag=     8.0532
       N       E                     dE             d eps       ncg     rms          rms(c)
DAV:   1    -0.235031287238E+03   -0.48324E-03   -0.18860E-02 36236   0.470E-01    0.120E-01
DAV:   2    -0.235031351281E+03   -0.64043E-04   -0.77116E-04 39992   0.860E-02    0.440E-02
DAV:   3    -0.235031347726E+03    0.35553E-05   -0.40215E-05 35400   0.263E-02    0.312E-02
DAV:   4    -0.235031347593E+03    0.13236E-06   -0.17639E-05 24280   0.198E-02
  37 F= -.23503135E+03 E0= -.23502928E+03  d E =-.551674E-03  mag=     8.0538
       N       E                     dE             d eps       ncg     rms          rms(c)
DAV:   1    -0.235031848593E+03   -0.50087E-03   -0.21486E-01 35368   0.161E+00    0.328E-01
DAV:   2    -0.235032454853E+03   -0.60626E-03   -0.77205E-03 39912   0.279E-01    0.148E-01
DAV:   3    -0.235032490942E+03   -0.36089E-04   -0.56551E-04 41128   0.120E-01    0.272E-01
DAV:   4    -0.235032409153E+03    0.81788E-04   -0.19289E-04 40152   0.925E-02    0.785E-02
DAV:   5    -0.235032413535E+03   -0.43818E-05   -0.50755E-05 36960   0.324E-02
  38 F= -.23503241E+03 E0= -.23503036E+03  d E =-.106594E-02  mag=     8.0544
       N       E                     dE             d eps       ncg     rms          rms(c)
DAV:   1    -0.235032633356E+03   -0.22420E-03   -0.64974E-02 35644   0.925E-01    0.126E-01
DAV:   2    -0.235032834453E+03   -0.20110E-03   -0.24348E-03 39312   0.160E-01    0.929E-02
DAV:   3    -0.235032850702E+03   -0.16249E-04   -0.18278E-04 40220   0.747E-02    0.148E-01
DAV:   4    -0.235032823082E+03    0.27620E-04   -0.46226E-05 31584   0.473E-02    0.256E-02
DAV:   5    -0.235032824940E+03   -0.18576E-05   -0.19047E-05 26896   0.168E-02
  39 F= -.23503282E+03 E0= -.23503072E+03  d E =-.411405E-03  mag=     8.0545
       N       E                     dE             d eps       ncg     rms          rms(c)
DAV:   1    -0.235031624182E+03    0.11989E-02   -0.42741E-01 34984   0.239E+00    0.312E-01
DAV:   2    -0.235033257872E+03   -0.16337E-02   -0.17510E-02 38672   0.416E-01    0.170E-01
DAV:   3    -0.235033340706E+03   -0.82833E-04   -0.82259E-04 43352   0.152E-01    0.316E-01
DAV:   4    -0.235033224199E+03    0.11651E-03   -0.23055E-04 40656   0.102E-01    0.629E-02
DAV:   5    -0.235033231513E+03   -0.73135E-05   -0.82509E-05 37296   0.400E-02
  40 F= -.23503323E+03 E0= -.23503114E+03  d E =-.406573E-03  mag=     8.0551
       N       E                     dE             d eps       ncg     rms          rms(c)
DAV:   1    -0.235029223770E+03    0.40004E-02   -0.96739E-01 34288   0.352E+00    0.450E-01
DAV:   2    -0.235032934248E+03   -0.37105E-02   -0.39407E-02 37328   0.617E-01    0.183E-01
DAV:   3    -0.235032897235E+03    0.37013E-04   -0.13143E-03 40720   0.140E-01    0.143E-01
DAV:   4    -0.235032878211E+03    0.19025E-04   -0.31322E-04 44224   0.870E-02    0.169E-01
DAV:   5    -0.235032839557E+03    0.38654E-04   -0.11527E-04 37872   0.717E-02    0.916E-02
DAV:   6    -0.235032830925E+03    0.86324E-05   -0.56773E-05 33576   0.397E-02
  41 F= -.23503283E+03 E0= -.23503087E+03  d E =0.400588E-03  mag=     8.0504
       N       E                     dE             d eps       ncg     rms          rms(c)
DAV:   1    -0.235033429418E+03   -0.58986E-03   -0.13457E-01 35148   0.124E+00    0.260E-01
DAV:   2    -0.235033884033E+03   -0.45461E-03   -0.56054E-03 39016   0.234E-01    0.109E-01
DAV:   3    -0.235033885338E+03   -0.13048E-05   -0.38371E-04 41032   0.964E-02    0.185E-01
DAV:   4    -0.235033848987E+03    0.36351E-04   -0.11725E-04 38480   0.700E-02    0.703E-02
DAV:   5    -0.235033845028E+03    0.39591E-05   -0.19658E-05 27840   0.271E-02
  42 F= -.23503385E+03 E0= -.23503182E+03  d E =-.101410E-02  mag=     8.0514
       N       E                     dE             d eps       ncg     rms          rms(c)
DAV:   1    -0.235033621582E+03    0.22740E-03   -0.21479E-01 35088   0.154E+00    0.213E-01
DAV:   2    -0.235034252467E+03   -0.63088E-03   -0.73154E-03 37856   0.267E-01    0.144E-01
DAV:   3    -0.235034296375E+03   -0.43908E-04   -0.47276E-04 41672   0.125E-01    0.271E-01
DAV:   4    -0.235034203392E+03    0.92982E-04   -0.13583E-04 38360   0.799E-02    0.387E-02
DAV:   5    -0.235034211164E+03   -0.77713E-05   -0.40644E-05 34944   0.235E-02
  43 F= -.23503421E+03 E0= -.23503217E+03  d E =-.366136E-03  mag=     8.0537
       N       E                     dE             d eps       ncg     rms          rms(c)
DAV:   1    -0.235026793849E+03    0.74095E-02   -0.26401E+00 35088   0.529E+00    0.423E-01
DAV:   2    -0.235034472733E+03   -0.76789E-02   -0.82348E-02 36388   0.870E-01    0.242E-01
DAV:   3    -0.235034441191E+03    0.31542E-04   -0.20375E-03 41152   0.190E-01    0.321E-01
DAV:   4    -0.235034315966E+03    0.12522E-03   -0.50466E-04 42784   0.131E-01    0.156E-01
DAV:   5    -0.235034243816E+03    0.72150E-04   -0.22038E-04 42112   0.771E-02    0.816E-02
DAV:   6    -0.235034239681E+03    0.41356E-05   -0.16172E-04 39448   0.514E-02    0.463E-02
DAV:   7    -0.235034239266E+03    0.41479E-06   -0.42242E-05 28008   0.291E-02
  44 F= -.23503424E+03 E0= -.23503217E+03  d E =-.281021E-04  mag=     8.0520
       N       E                     dE             d eps       ncg     rms          rms(c)
DAV:   1    -0.234731494085E+03    0.30275E+00   -0.89384E+01 35088   0.312E+01    0.290E+00
DAV:   2    -0.235021681297E+03   -0.29019E+00   -0.30640E+00 35568   0.529E+00    0.175E+00
DAV:   3    -0.235028217021E+03   -0.65357E-02   -0.87131E-02 41632   0.149E+00    0.512E+00
DAV:   4    -0.235009097280E+03    0.19120E-01   -0.24344E-02 41448   0.104E+00    0.941E-01
DAV:   5    -0.235014428535E+03   -0.53313E-02   -0.89821E-03 38644   0.451E-01    0.805E-01
DAV:   6    -0.235013190858E+03    0.12377E-02   -0.70919E-03 44448   0.391E-01    0.456E-01
DAV:   7    -0.235013130984E+03    0.59874E-04   -0.26903E-03 44328   0.226E-01    0.177E-01
DAV:   8    -0.235013193383E+03   -0.62399E-04   -0.53261E-04 41056   0.103E-01    0.908E-02
DAV:   9    -0.235013198764E+03   -0.53817E-05   -0.77498E-05 40032   0.308E-02
  45 F= -.23501320E+03 E0= -.23501068E+03  d E =0.210405E-01  mag=     8.0715
       N       E                     dE             d eps       ncg     rms          rms(c)
DAV:   1    -0.234967082474E+03    0.46111E-01   -0.58905E+00 35488   0.966E+00    0.268E+00
DAV:   2    -0.235006101264E+03   -0.39019E-01   -0.42439E-01 39168   0.194E+00    0.120E+00
DAV:   3    -0.235006116876E+03   -0.15612E-04   -0.26327E-02 42728   0.877E-01    0.138E+00
DAV:   4    -0.235003074689E+03    0.30422E-02   -0.98982E-03 42280   0.675E-01    0.615E-01
DAV:   5    -0.235002728857E+03    0.34583E-03   -0.19143E-03 41552   0.241E-01    0.272E-01
DAV:   6    -0.235002722992E+03    0.58654E-05   -0.87156E-04 41216   0.132E-01    0.134E-01
DAV:   7    -0.235002717211E+03    0.57804E-05   -0.28681E-04 41040   0.734E-02    0.888E-02
DAV:   8    -0.235002707579E+03    0.96322E-05   -0.70291E-05 34520   0.382E-02
  46 F= -.23500271E+03 E0= -.23500039E+03  d E =0.104912E-01  mag=     8.0603
       N       E                     dE             d eps       ncg     rms          rms(c)
DAV:   1    -0.234943545112E+03    0.59172E-01   -0.22705E+01 35352   0.172E+01    0.236E+00
DAV:   2    -0.235036636263E+03   -0.93091E-01   -0.97285E-01 36728   0.303E+00    0.122E+00
DAV:   3    -0.235038560447E+03   -0.19242E-02   -0.35078E-02 43984   0.103E+00    0.153E+00
DAV:   4    -0.235034444465E+03    0.41160E-02   -0.11137E-02 43112   0.671E-01    0.528E-01
DAV:   5    -0.235034364521E+03    0.79945E-04   -0.36033E-03 44632   0.295E-01    0.850E-01
DAV:   6    -0.235033561901E+03    0.80262E-03   -0.21579E-03 44312   0.286E-01    0.264E-01
DAV:   7    -0.235033738441E+03   -0.17654E-03   -0.71599E-04 40304   0.135E-01    0.145E-01
DAV:   8    -0.235033721785E+03    0.16656E-04   -0.25299E-04 40808   0.683E-02    0.688E-02
DAV:   9    -0.235033718515E+03    0.32701E-05   -0.26317E-05 28824   0.250E-02
  47 F= -.23503372E+03 E0= -.23503152E+03  d E =-.310109E-01  mag=     8.0557
       N       E                     dE             d eps       ncg     rms          rms(c)
DAV:   1    -0.235032105665E+03    0.16161E-02   -0.20527E-01 35496   0.194E+00    0.323E-01
DAV:   2    -0.235033439700E+03   -0.13340E-02   -0.13659E-02 38536   0.359E-01    0.154E-01
DAV:   3    -0.235033459130E+03   -0.19430E-04   -0.66401E-04 42832   0.113E-01    0.183E-01
DAV:   4    -0.235033436088E+03    0.23042E-04   -0.23383E-04 39896   0.881E-02    0.130E-01
DAV:   5    -0.235033418967E+03    0.17121E-04   -0.73551E-05 35928   0.536E-02    0.660E-02
DAV:   6    -0.235033415667E+03    0.33005E-05   -0.57510E-05 29272   0.344E-02
  48 F= -.23503342E+03 E0= -.23503128E+03  d E =0.302848E-03  mag=     8.0547
       N       E                     dE             d eps       ncg     rms          rms(c)
DAV:   1    -0.235033229259E+03    0.18971E-03   -0.10042E-01 35192   0.113E+00    0.220E-01
DAV:   2    -0.235033640482E+03   -0.41122E-03   -0.44504E-03 37528   0.204E-01    0.866E-02
DAV:   3    -0.235033629865E+03    0.10617E-04   -0.16472E-04 40072   0.619E-02    0.116E-01
DAV:   4    -0.235033621216E+03    0.86487E-05   -0.71916E-05 33480   0.522E-02
  49 F= -.23503362E+03 E0= -.23503159E+03  d E =-.205549E-03  mag=     8.0554
       N       E                     dE             d eps       ncg     rms          rms(c)
DAV:   1    -0.235032582006E+03    0.10479E-02   -0.28048E-01 35112   0.187E+00    0.198E-01
DAV:   2    -0.235033606359E+03   -0.10244E-02   -0.10745E-02 36564   0.318E-01    0.106E-01
DAV:   3    -0.235033608062E+03   -0.17029E-05   -0.34899E-04 41760   0.822E-02    0.116E-01
DAV:   4    -0.235033594554E+03    0.13508E-04   -0.86360E-05 34536   0.558E-02    0.814E-02
DAV:   5    -0.235033586695E+03    0.78582E-05   -0.50913E-05 30600   0.409E-02
  50 F= -.23503359E+03 E0= -.23503133E+03  d E =0.345205E-04  mag=     8.0559
