 vasp.6.1.2 22Jul20 (build Dec 05 2020 14:50:36) complex                        
  
 executed on         CrayXC-Intel date 2021.06.19  01:46:50
 running on   24 total cores
 distrk:  each k-point on   24 cores,    1 groups
 distr:  one band on NCORE=   4 cores,    6 groups


--------------------------------------------------------------------------------------------------------


 INCAR:
 POTCAR:    PAW_PBE Ca_sv 06Sep2000               
 POTCAR:    PAW_PBE V_pv 07Sep2000                
 POTCAR:    PAW_PBE O 08Apr2002                   
 POTCAR:    PAW_PBE Ca_sv 06Sep2000               
   VRHFIN =Ca: 3s3p4s                                                                               
   LEXCH  = PE                                                                                      
   EATOM  =  1006.0909 eV,   73.9456 Ry                                                             
                                                                                                    
   TITEL  = PAW_PBE Ca_sv 06Sep2000                                                                 
   LULTRA =        F    use ultrasoft PP ?                                                          
   IUNSCR =        1    unscreen: 0-lin 1-nonlin 2-no                                               
   RPACOR =    2.000    partial core radius                                                         
   POMASS =   40.078; ZVAL   =   10.000    mass and valenz                                          
   RCORE  =    2.300    outmost cutoff radius                                                       
   RWIGS  =    2.500; RWIGS  =    1.323    wigner-seitz radius (au A)                               
   ENMAX  =  266.622; ENMIN  =  199.967 eV                                                          
   RCLOC  =    1.808    cutoff for local pot                                                        
   LCOR   =        T    correct aug charges                                                         
   LPAW   =        T    paw PP                                                                      
   EAUG   =  420.852                                                                                
   RMAX   =    2.359    core radius for proj-oper                                                   
   RAUG   =    1.300    factor for augmentation sphere                                              
   RDEP   =    2.392    radius for radial grids                                                     
   RDEPT  =    1.987    core radius for aug-charge                                                  
                                                                                                    
   Atomic configuration                                                                             
    7 entries                                                                                       
     n  l   j            E        occ.                                                              
     1  0  0.50     -3949.1705   2.0000                                                             
     2  0  0.50      -414.3434   2.0000                                                             
     2  1  1.50      -334.7047   6.0000                                                             
     3  0  0.50       -47.0896   2.0000                                                             
     4  0  0.50        -3.7663   2.0000                                                             
     3  1  1.50       -28.0061   6.0000                                                             
     3  2  1.50        -4.0817   0.0000                                                             
   Description                                                                                      
     l       E           TYP  RCUT    TYP  RCUT                                                     
     0    -47.0896403     23  2.300                                                                 
     0     -3.7663320     23  2.300                                                                 
     1    -28.0060855     23  2.300                                                                 
     1      6.8029130     23  2.300                                                                 
     2     -4.0817478     23  2.300                                                                 
     2      0.4464412     23  2.300                                                                 
  local pseudopotential read in
  partial core-charges read in
  partial kinetic energy density read in
  atomic valenz-charges read in
  non local Contribution for L=           0  read in
    real space projection operators read in
  non local Contribution for L=           0  read in
    real space projection operators read in
  non local Contribution for L=           1  read in
    real space projection operators read in
  non local Contribution for L=           1  read in
    real space projection operators read in
  non local Contribution for L=           2  read in
    real space projection operators read in
  non local Contribution for L=           2  read in
    real space projection operators read in
    PAW grid and wavefunctions read in
 
   number of l-projection  operators is LMAX  =           6
   number of lm-projection operators is LMMAX =          18
 
 POTCAR:    PAW_PBE V_pv 07Sep2000                
   VRHFIN =V: p6 d4 s1                                                                              
   LEXCH  = PE                                                                                      
   EATOM  =  1321.6206 eV,   97.1364 Ry                                                             
                                                                                                    
   TITEL  = PAW_PBE V_pv 07Sep2000                                                                  
   LULTRA =        F    use ultrasoft PP ?                                                          
   IUNSCR =        1    unscreen: 0-lin 1-nonlin 2-no                                               
   RPACOR =    1.700    partial core radius                                                         
   POMASS =   50.941; ZVAL   =   11.000    mass and valenz                                          
   RCORE  =    2.300    outmost cutoff radius                                                       
   RWIGS  =    2.300; RWIGS  =    1.217    wigner-seitz radius (au A)                               
   ENMAX  =  263.673; ENMIN  =  197.755 eV                                                          
   RCLOC  =    1.779    cutoff for local pot                                                        
   LCOR   =        T    correct aug charges                                                         
   LPAW   =        T    paw PP                                                                      
   EAUG   =  598.473                                                                                
   DEXC   =    0.000                                                                                
   RMAX   =    2.359    core radius for proj-oper                                                   
   RAUG   =    1.300    factor for augmentation sphere                                              
   RDEP   =    2.430    radius for radial grids                                                     
   RDEPT  =    1.700    core radius for aug-charge                                                  
                                                                                                    
   Atomic configuration                                                                             
    8 entries                                                                                       
     n  l   j            E        occ.                                                              
     1  0  0.50     -5360.7193   2.0000                                                             
     2  0  0.50      -598.4546   2.0000                                                             
     2  1  1.50      -499.0155   6.0000                                                             
     3  0  0.50       -66.5711   2.0000                                                             
     3  1  1.50       -40.5282   6.0000                                                             
     3  2  2.50        -2.4291   4.0000                                                             
     4  0  0.50        -3.8743   1.0000                                                             
     4  3  2.50        -1.3606   0.0000                                                             
   Description                                                                                      
     l       E           TYP  RCUT    TYP  RCUT                                                     
     1    -40.5282431     23  2.000                                                                 
     1      5.4423304     23  2.000                                                                 
     2     -2.4290905     23  2.300                                                                 
     2     -1.0472488     23  2.300                                                                 
     0     -3.8742754     23  2.300                                                                 
     0     27.2116520     23  2.300                                                                 
  local pseudopotential read in
  partial core-charges read in
  partial kinetic energy density read in
  atomic valenz-charges read in
  non local Contribution for L=           1  read in
    real space projection operators read in
  non local Contribution for L=           1  read in
    real space projection operators read in
  non local Contribution for L=           2  read in
    real space projection operators read in
  non local Contribution for L=           2  read in
    real space projection operators read in
  non local Contribution for L=           0  read in
    real space projection operators read in
  non local Contribution for L=           0  read in
    real space projection operators read in
    PAW grid and wavefunctions read in
 
   number of l-projection  operators is LMAX  =           6
   number of lm-projection operators is LMMAX =          18
 
 POTCAR:    PAW_PBE O 08Apr2002                   
   VRHFIN =O: s2p4                                                                                  
   LEXCH  = PE                                                                                      
   EATOM  =   432.3788 eV,   31.7789 Ry                                                             
                                                                                                    
   TITEL  = PAW_PBE O 08Apr2002                                                                     
   LULTRA =        F    use ultrasoft PP ?                                                          
   IUNSCR =        1    unscreen: 0-lin 1-nonlin 2-no                                               
   RPACOR =    1.200    partial core radius                                                         
   POMASS =   16.000; ZVAL   =    6.000    mass and valenz                                          
   RCORE  =    1.520    outmost cutoff radius                                                       
   RWIGS  =    1.550; RWIGS  =    0.820    wigner-seitz radius (au A)                               
   ENMAX  =  400.000; ENMIN  =  300.000 eV                                                          
   ICORE  =        2    local potential                                                             
   LCOR   =        T    correct aug charges                                                         
   LPAW   =        T    paw PP                                                                      
   EAUG   =  605.392                                                                                
   DEXC   =    0.000                                                                                
   RMAX   =    1.553    core radius for proj-oper                                                   
   RAUG   =    1.300    factor for augmentation sphere                                              
   RDEP   =    1.550    radius for radial grids                                                     
   RDEPT  =    1.329    core radius for aug-charge                                                  
                                                                                                    
   Atomic configuration                                                                             
    4 entries                                                                                       
     n  l   j            E        occ.                                                              
     1  0  0.50      -514.6923   2.0000                                                             
     2  0  0.50       -23.9615   2.0000                                                             
     2  1  0.50        -9.0305   4.0000                                                             
     3  2  1.50        -9.5241   0.0000                                                             
   Description                                                                                      
     l       E           TYP  RCUT    TYP  RCUT                                                     
     0    -23.9615318     23  1.200                                                                 
     0     -9.5240782     23  1.200                                                                 
     1     -9.0304911     23  1.520                                                                 
     1      8.1634956     23  1.520                                                                 
     2     -9.5240782      7  1.500                                                                 
  local pseudopotential read in
  partial core-charges read in
  partial kinetic energy density read in
  kinetic energy density of atom read in
  atomic valenz-charges read in
  non local Contribution for L=           0  read in
    real space projection operators read in
  non local Contribution for L=           0  read in
    real space projection operators read in
  non local Contribution for L=           1  read in
    real space projection operators read in
  non local Contribution for L=           1  read in
    real space projection operators read in
    PAW grid and wavefunctions read in
 
   number of l-projection  operators is LMAX  =           4
   number of lm-projection operators is LMMAX =           8
 
 Optimization of the real space projectors (new method)

 maximal supplied QI-value         = 16.25
 optimisation between [QCUT,QGAM] = [ 11.54, 23.24] = [ 37.28,151.24] Ry 
 Optimized for a Real-space Cutoff    1.58 Angstroem

   l    n(q)    QCUT    max X(q) W(low)/X(q) W(high)/X(q)  e(spline) 
   0     11    11.539    11.817    0.25E-04    0.22E-05    0.26E-07
   0     11    11.539     8.461    0.39E-04    0.49E-05    0.55E-07
   1     11    11.539     3.957    0.21E-05    0.44E-05    0.32E-07
   1     11    11.539     4.314    0.56E-04    0.44E-04    0.19E-06
   2     10    11.539    14.565    0.25E-03    0.21E-04    0.75E-06
   2     10    11.539    14.552    0.23E-03    0.22E-04    0.72E-06
 Optimization of the real space projectors (new method)

 maximal supplied QI-value         = 16.25
 optimisation between [QCUT,QGAM] = [ 11.54, 23.24] = [ 37.28,151.24] Ry 
 Optimized for a Real-space Cutoff    1.53 Angstroem

   l    n(q)    QCUT    max X(q) W(low)/X(q) W(high)/X(q)  e(spline) 
   1     10    11.539     3.206    0.43E-05    0.46E-05    0.52E-07
   1     10    11.539     4.597    0.39E-04    0.25E-04    0.17E-06
   2     10    11.539    89.000    0.10E-03    0.13E-03    0.24E-06
   2     10    11.539    82.410    0.10E-03    0.13E-03    0.23E-06
   0     11    11.539    36.565    0.42E-04    0.19E-04    0.30E-06
   0     11    11.539    13.729    0.20E-04    0.13E-04    0.22E-06
 Optimization of the real space projectors (new method)

 maximal supplied QI-value         = 24.76
 optimisation between [QCUT,QGAM] = [ 11.64, 23.27] = [ 37.91,151.63] Ry 
 Optimized for a Real-space Cutoff    1.14 Angstroem

   l    n(q)    QCUT    max X(q) W(low)/X(q) W(high)/X(q)  e(spline) 
   0      8    11.635    20.381    0.10E-03    0.33E-03    0.24E-06
   0      8    11.635    15.268    0.11E-03    0.35E-03    0.26E-06
   1      7    11.635     5.964    0.24E-03    0.31E-03    0.30E-06
   1      7    11.635     5.382    0.22E-03    0.25E-03    0.26E-06
  PAW_PBE Ca_sv 06Sep2000               :
 energy of atom  1       EATOM=-1006.0909
 kinetic energy error for atom=    0.0022 (will be added to EATOM!!)
  PAW_PBE V_pv 07Sep2000                :
 energy of atom  2       EATOM=-1321.6206
 kinetic energy error for atom=    0.0054 (will be added to EATOM!!)
  PAW_PBE O 08Apr2002                   :
 energy of atom  3       EATOM= -432.3788
 kinetic energy error for atom=    0.0208 (will be added to EATOM!!)
 
 
 POSCAR: Ca1 V2 O6
  positions in direct lattice
  velocities in cartesian coordinates

 METAGGA = SCAN     LMAXTAU =  6    LMIXTAU =  F

 exchange correlation table for  LEXCH =        8
   RHO(1)=    0.500       N(1)  =     2000
   RHO(2)=  100.500       N(2)  =     4000
 


--------------------------------------------------------------------------------------------------------


 ion  position               nearest neighbor table
   1  1.000  1.000  0.000-   5 2.33   4 2.33   6 2.35   7 2.35   6 2.36   7 2.36
   2  0.230  0.466  0.669-   4 1.64   7 1.69   9 1.90   9 1.91   8 1.99
   3  0.770  0.534  0.331-   5 1.64   6 1.69   8 1.90   8 1.91   9 1.99
   4  0.080  0.165  0.722-   2 1.64   1 2.33
   5  0.920  0.835  0.278-   3 1.64   1 2.33
   6  0.645  0.287  0.123-   3 1.69   1 2.35   1 2.36
   7  0.355  0.713  0.877-   2 1.69   1 2.35   1 2.36
   8  0.250  0.497  0.397-   3 1.90   3 1.91   2 1.99
   9  0.750  0.503  0.603-   2 1.90   2 1.91   3 1.99
 

IMPORTANT INFORMATION: All symmetrisations will be switched off!
NOSYMM: (Re-)initialisation of all symmetry stuff for point group C_1.


----------------------------------------------------------------------------------------

                                     Primitive cell                                     

  volume of cell :     126.5949

  direct lattice vectors                    reciprocal lattice vectors
     0.006719086 -3.641912733 -0.005355318    -0.103190211 -0.274773499  0.001449347
    -4.860103164  1.831819893  1.256078042    -0.205360441 -0.000381951  0.002091221
    -0.072672860 -0.010361154 -7.138456102    -0.036057674  0.000138929 -0.139719431

  length of vectors
     3.641922869  5.343584839  7.138833534     0.293514559  0.205371444  0.144297244

  position of ions in fractional coordinates (direct lattice)
     0.999994690  0.999997041  0.000004247
     0.229640843  0.465553801  0.669282487
     0.770365258  0.534450119  0.330718663
     0.080062985  0.164984849  0.722167115
     0.919926006  0.835009221  0.277834142
     0.644659185  0.286707128  0.123015936
     0.355328523  0.713264884  0.876988344
     0.249557041  0.496547484  0.397153539
     0.750465469  0.503485475  0.602835527

  ion indices of the primitive-cell ions
   primitive index   ion index
                 1           1
                 2           2
                 3           3
                 4           4
                 5           5
                 6           6
                 7           7
                 8           8
                 9           9

----------------------------------------------------------------------------------------

 
 
 KPOINTS: K-points file                           

Automatic generation of k-mesh.
Space group operators:
 irot       det(A)        alpha          n_x          n_y          n_z        tau_x        tau_y        tau_z
    1     1.000000     0.000000     1.000000     0.000000     0.000000     0.000000     0.000000     0.000000
 
 Subroutine IBZKPT returns following result:
 ===========================================
 
 Found    158 irreducible k-points:
 
 Following reciprocal coordinates:
            Coordinates               Weight
  0.000000  0.000000  0.000000      1.000000
  0.111111  0.000000  0.000000      2.000000
  0.222222  0.000000 -0.000000      2.000000
  0.333333  0.000000  0.000000      2.000000
  0.444444  0.000000  0.000000      2.000000
 -0.000000  0.142857 -0.000000      2.000000
  0.111111  0.142857  0.000000      2.000000
  0.222222  0.142857  0.000000      2.000000
  0.333333  0.142857 -0.000000      2.000000
  0.444444  0.142857  0.000000      2.000000
 -0.444444  0.142857  0.000000      2.000000
 -0.333333  0.142857 -0.000000      2.000000
 -0.222222  0.142857  0.000000      2.000000
 -0.111111  0.142857  0.000000      2.000000
  0.000000  0.285714  0.000000      2.000000
  0.111111  0.285714 -0.000000      2.000000
  0.222222  0.285714  0.000000      2.000000
  0.333333  0.285714  0.000000      2.000000
  0.444444  0.285714 -0.000000      2.000000
 -0.444444  0.285714  0.000000      2.000000
 -0.333333  0.285714  0.000000      2.000000
 -0.222222  0.285714 -0.000000      2.000000
 -0.111111  0.285714  0.000000      2.000000
  0.000000  0.428571  0.000000      2.000000
  0.111111  0.428571  0.000000      2.000000
  0.222222  0.428571 -0.000000      2.000000
  0.333333  0.428571  0.000000      2.000000
  0.444444  0.428571  0.000000      2.000000
 -0.444444  0.428571 -0.000000      2.000000
 -0.333333  0.428571  0.000000      2.000000
 -0.222222  0.428571  0.000000      2.000000
 -0.111111  0.428571 -0.000000      2.000000
  0.000000  0.000000  0.200000      2.000000
  0.111111  0.000000  0.200000      2.000000
  0.222222  0.000000  0.200000      2.000000
  0.333333  0.000000  0.200000      2.000000
  0.444444 -0.000000  0.200000      2.000000
 -0.444444 -0.000000  0.200000      2.000000
 -0.333333 -0.000000  0.200000      2.000000
 -0.222222 -0.000000  0.200000      2.000000
 -0.111111 -0.000000  0.200000      2.000000
 -0.000000  0.142857  0.200000      2.000000
  0.111111  0.142857  0.200000      2.000000
  0.222222  0.142857  0.200000      2.000000
  0.333333  0.142857  0.200000      2.000000
  0.444444  0.142857  0.200000      2.000000
 -0.444444  0.142857  0.200000      2.000000
 -0.333333  0.142857  0.200000      2.000000
 -0.222222  0.142857  0.200000      2.000000
 -0.111111  0.142857  0.200000      2.000000
  0.000000  0.285714  0.200000      2.000000
  0.111111  0.285714  0.200000      2.000000
  0.222222  0.285714  0.200000      2.000000
  0.333333  0.285714  0.200000      2.000000
  0.444444  0.285714  0.200000      2.000000
 -0.444444  0.285714  0.200000      2.000000
 -0.333333  0.285714  0.200000      2.000000
 -0.222222  0.285714  0.200000      2.000000
 -0.111111  0.285714  0.200000      2.000000
 -0.000000  0.428571  0.200000      2.000000
  0.111111  0.428571  0.200000      2.000000
  0.222222  0.428571  0.200000      2.000000
  0.333333  0.428571  0.200000      2.000000
  0.444444  0.428571  0.200000      2.000000
 -0.444444  0.428571  0.200000      2.000000
 -0.333333  0.428571  0.200000      2.000000
 -0.222222  0.428571  0.200000      2.000000
 -0.111111  0.428571  0.200000      2.000000
  0.000000 -0.428571  0.200000      2.000000
  0.111111 -0.428571  0.200000      2.000000
  0.222222 -0.428571  0.200000      2.000000
  0.333333 -0.428571  0.200000      2.000000
  0.444444 -0.428571  0.200000      2.000000
 -0.444444 -0.428571  0.200000      2.000000
 -0.333333 -0.428571  0.200000      2.000000
 -0.222222 -0.428571  0.200000      2.000000
 -0.111111 -0.428571  0.200000      2.000000
 -0.000000 -0.285714  0.200000      2.000000
  0.111111 -0.285714  0.200000      2.000000
  0.222222 -0.285714  0.200000      2.000000
  0.333333 -0.285714  0.200000      2.000000
  0.444444 -0.285714  0.200000      2.000000
 -0.444444 -0.285714  0.200000      2.000000
 -0.333333 -0.285714  0.200000      2.000000
 -0.222222 -0.285714  0.200000      2.000000
 -0.111111 -0.285714  0.200000      2.000000
  0.000000 -0.142857  0.200000      2.000000
  0.111111 -0.142857  0.200000      2.000000
  0.222222 -0.142857  0.200000      2.000000
  0.333333 -0.142857  0.200000      2.000000
  0.444444 -0.142857  0.200000      2.000000
 -0.444444 -0.142857  0.200000      2.000000
 -0.333333 -0.142857  0.200000      2.000000
 -0.222222 -0.142857  0.200000      2.000000
 -0.111111 -0.142857  0.200000      2.000000
  0.000000  0.000000  0.400000      2.000000
  0.111111  0.000000  0.400000      2.000000
  0.222222  0.000000  0.400000      2.000000
  0.333333  0.000000  0.400000      2.000000
  0.444444  0.000000  0.400000      2.000000
 -0.444444 -0.000000  0.400000      2.000000
 -0.333333 -0.000000  0.400000      2.000000
 -0.222222 -0.000000  0.400000      2.000000
 -0.111111  0.000000  0.400000      2.000000
  0.000000  0.142857  0.400000      2.000000
  0.111111  0.142857  0.400000      2.000000
  0.222222  0.142857  0.400000      2.000000
  0.333333  0.142857  0.400000      2.000000
  0.444444  0.142857  0.400000      2.000000
 -0.444444  0.142857  0.400000      2.000000
 -0.333333  0.142857  0.400000      2.000000
 -0.222222  0.142857  0.400000      2.000000
 -0.111111  0.142857  0.400000      2.000000
  0.000000  0.285714  0.400000      2.000000
  0.111111  0.285714  0.400000      2.000000
  0.222222  0.285714  0.400000      2.000000
  0.333333  0.285714  0.400000      2.000000
  0.444444  0.285714  0.400000      2.000000
 -0.444444  0.285714  0.400000      2.000000
 -0.333333  0.285714  0.400000      2.000000
 -0.222222  0.285714  0.400000      2.000000
 -0.111111  0.285714  0.400000      2.000000
  0.000000  0.428571  0.400000      2.000000
  0.111111  0.428571  0.400000      2.000000
  0.222222  0.428571  0.400000      2.000000
  0.333333  0.428571  0.400000      2.000000
  0.444444  0.428571  0.400000      2.000000
 -0.444444  0.428571  0.400000      2.000000
 -0.333333  0.428571  0.400000      2.000000
 -0.222222  0.428571  0.400000      2.000000
 -0.111111  0.428571  0.400000      2.000000
 -0.000000 -0.428571  0.400000      2.000000
  0.111111 -0.428571  0.400000      2.000000
  0.222222 -0.428571  0.400000      2.000000
  0.333333 -0.428571  0.400000      2.000000
  0.444444 -0.428571  0.400000      2.000000
 -0.444444 -0.428571  0.400000      2.000000
 -0.333333 -0.428571  0.400000      2.000000
 -0.222222 -0.428571  0.400000      2.000000
 -0.111111 -0.428571  0.400000      2.000000
 -0.000000 -0.285714  0.400000      2.000000
  0.111111 -0.285714  0.400000      2.000000
  0.222222 -0.285714  0.400000      2.000000
  0.333333 -0.285714  0.400000      2.000000
  0.444444 -0.285714  0.400000      2.000000
 -0.444444 -0.285714  0.400000      2.000000
 -0.333333 -0.285714  0.400000      2.000000
 -0.222222 -0.285714  0.400000      2.000000
 -0.111111 -0.285714  0.400000      2.000000
 -0.000000 -0.142857  0.400000      2.000000
  0.111111 -0.142857  0.400000      2.000000
  0.222222 -0.142857  0.400000      2.000000
  0.333333 -0.142857  0.400000      2.000000
  0.444444 -0.142857  0.400000      2.000000
 -0.444444 -0.142857  0.400000      2.000000
 -0.333333 -0.142857  0.400000      2.000000
 -0.222222 -0.142857  0.400000      2.000000
 -0.111111 -0.142857  0.400000      2.000000
 
 Following cartesian coordinates:
            Coordinates               Weight
  0.000000  0.000000  0.000000      1.000000
 -0.011466 -0.030530  0.000161      2.000000
 -0.022931 -0.061061  0.000322      2.000000
 -0.034397 -0.091591  0.000483      2.000000
 -0.045862 -0.122122  0.000644      2.000000
 -0.029337 -0.000055  0.000299      2.000000
 -0.040803 -0.030585  0.000460      2.000000
 -0.052268 -0.061115  0.000621      2.000000
 -0.063734 -0.091646  0.000782      2.000000
 -0.075200 -0.122176  0.000943      2.000000
  0.016525  0.122067 -0.000345      2.000000
  0.005060  0.091537 -0.000184      2.000000
 -0.006406  0.061006 -0.000023      2.000000
 -0.017872  0.030476  0.000138      2.000000
 -0.058674 -0.000109  0.000597      2.000000
 -0.070140 -0.030640  0.000759      2.000000
 -0.081606 -0.061170  0.000920      2.000000
 -0.093071 -0.091700  0.001081      2.000000
 -0.104537 -0.122231  0.001242      2.000000
 -0.012812  0.122012 -0.000047      2.000000
 -0.024278  0.091482  0.000114      2.000000
 -0.035743  0.060952  0.000275      2.000000
 -0.047209  0.030421  0.000436      2.000000
 -0.088012 -0.000164  0.000896      2.000000
 -0.099477 -0.030694  0.001057      2.000000
 -0.110943 -0.061224  0.001218      2.000000
 -0.122408 -0.091755  0.001379      2.000000
 -0.133874 -0.122285  0.001540      2.000000
 -0.042149  0.121958  0.000252      2.000000
 -0.053615  0.091427  0.000413      2.000000
 -0.065080  0.060897  0.000574      2.000000
 -0.076546  0.030367  0.000735      2.000000
 -0.007212  0.000028 -0.027944      2.000000
 -0.018677 -0.030503 -0.027783      2.000000
 -0.030143 -0.061033 -0.027622      2.000000
 -0.041608 -0.091563 -0.027461      2.000000
 -0.053074 -0.122094 -0.027300      2.000000
  0.038651  0.122149 -0.028588      2.000000
  0.027185  0.091619 -0.028427      2.000000
  0.015720  0.061089 -0.028266      2.000000
  0.004254  0.030558 -0.028105      2.000000
 -0.036549 -0.000027 -0.027645      2.000000
 -0.048014 -0.030557 -0.027484      2.000000
 -0.059480 -0.061088 -0.027323      2.000000
 -0.070945 -0.091618 -0.027162      2.000000
 -0.082411 -0.122148 -0.027001      2.000000
  0.009314  0.122095 -0.028289      2.000000
 -0.002152  0.091564 -0.028128      2.000000
 -0.013618  0.061034 -0.027967      2.000000
 -0.025083  0.030504 -0.027806      2.000000
 -0.065886 -0.000081 -0.027346      2.000000
 -0.077352 -0.030612 -0.027185      2.000000
 -0.088817 -0.061142 -0.027024      2.000000
 -0.100283 -0.091673 -0.026863      2.000000
 -0.111748 -0.122203 -0.026702      2.000000
 -0.020024  0.122040 -0.027991      2.000000
 -0.031489  0.091510 -0.027830      2.000000
 -0.042955  0.060979 -0.027668      2.000000
 -0.054420  0.030449 -0.027507      2.000000
 -0.095223 -0.000136 -0.027048      2.000000
 -0.106689 -0.030666 -0.026887      2.000000
 -0.118154 -0.061197 -0.026726      2.000000
 -0.129620 -0.091727 -0.026565      2.000000
 -0.141085 -0.122257 -0.026403      2.000000
 -0.049361  0.121986 -0.027692      2.000000
 -0.060826  0.091455 -0.027531      2.000000
 -0.072292  0.060925 -0.027370      2.000000
 -0.083758  0.030394 -0.027209      2.000000
  0.080800  0.000191 -0.028840      2.000000
  0.069335 -0.030339 -0.028679      2.000000
  0.057869 -0.060869 -0.028518      2.000000
  0.046403 -0.091400 -0.028357      2.000000
  0.034938 -0.121930 -0.028196      2.000000
  0.126662  0.122313 -0.029484      2.000000
  0.115197  0.091783 -0.029323      2.000000
  0.103731  0.061252 -0.029162      2.000000
  0.092266  0.030722 -0.029001      2.000000
  0.051463  0.000137 -0.028541      2.000000
  0.039997 -0.030393 -0.028380      2.000000
  0.028532 -0.060924 -0.028219      2.000000
  0.017066 -0.091454 -0.028058      2.000000
  0.005601 -0.121985 -0.027897      2.000000
  0.097325  0.122258 -0.029186      2.000000
  0.085860  0.091728 -0.029024      2.000000
  0.074394  0.061198 -0.028863      2.000000
  0.062928  0.030667 -0.028702      2.000000
  0.022126  0.000082 -0.028243      2.000000
  0.010660 -0.030448 -0.028082      2.000000
 -0.000805 -0.060978 -0.027921      2.000000
 -0.012271 -0.091509 -0.027760      2.000000
 -0.023737 -0.122039 -0.027598      2.000000
  0.067988  0.122204 -0.028887      2.000000
  0.056522  0.091674 -0.028726      2.000000
  0.045057  0.061143 -0.028565      2.000000
  0.033591  0.030613 -0.028404      2.000000
 -0.014423  0.000056 -0.055888      2.000000
 -0.025889 -0.030475 -0.055727      2.000000
 -0.037354 -0.061005 -0.055566      2.000000
 -0.048820 -0.091536 -0.055405      2.000000
 -0.060285 -0.122066 -0.055244      2.000000
  0.031439  0.122177 -0.056532      2.000000
  0.019974  0.091647 -0.056371      2.000000
  0.008508  0.061116 -0.056210      2.000000
 -0.002957  0.030586 -0.056049      2.000000
 -0.043760  0.000001 -0.055589      2.000000
 -0.055226 -0.030529 -0.055428      2.000000
 -0.066691 -0.061060 -0.055267      2.000000
 -0.078157 -0.091590 -0.055106      2.000000
 -0.089623 -0.122121 -0.054945      2.000000
  0.002102  0.122123 -0.056233      2.000000
 -0.009364  0.091592 -0.056072      2.000000
 -0.020829  0.061062 -0.055911      2.000000
 -0.032295  0.030531 -0.055750      2.000000
 -0.073097 -0.000054 -0.055290      2.000000
 -0.084563 -0.030584 -0.055129      2.000000
 -0.096029 -0.061114 -0.054968      2.000000
 -0.107494 -0.091645 -0.054807      2.000000
 -0.118960 -0.122175 -0.054646      2.000000
 -0.027235  0.122068 -0.055934      2.000000
 -0.038701  0.091538 -0.055773      2.000000
 -0.050166  0.061007 -0.055612      2.000000
 -0.061632  0.030477 -0.055451      2.000000
 -0.102435 -0.000108 -0.054992      2.000000
 -0.113900 -0.030639 -0.054830      2.000000
 -0.125366 -0.061169 -0.054669      2.000000
 -0.136831 -0.091699 -0.054508      2.000000
 -0.148297 -0.122230 -0.054347      2.000000
 -0.056572  0.122013 -0.055636      2.000000
 -0.068038  0.091483 -0.055475      2.000000
 -0.079504  0.060953 -0.055314      2.000000
 -0.090969  0.030422 -0.055153      2.000000
  0.073589  0.000219 -0.056784      2.000000
  0.062123 -0.030311 -0.056623      2.000000
  0.050657 -0.060842 -0.056462      2.000000
  0.039192 -0.091372 -0.056301      2.000000
  0.027726 -0.121902 -0.056140      2.000000
  0.119451  0.122341 -0.057428      2.000000
  0.107985  0.091810 -0.057267      2.000000
  0.096520  0.061280 -0.057106      2.000000
  0.085054  0.030750 -0.056945      2.000000
  0.044251  0.000165 -0.056485      2.000000
  0.032786 -0.030366 -0.056324      2.000000
  0.021320 -0.060896 -0.056163      2.000000
  0.009855 -0.091426 -0.056002      2.000000
 -0.001611 -0.121957 -0.055841      2.000000
  0.090114  0.122286 -0.057129      2.000000
  0.078648  0.091756 -0.056968      2.000000
  0.067182  0.061225 -0.056807      2.000000
  0.055717  0.030695 -0.056646      2.000000
  0.014914  0.000110 -0.056187      2.000000
  0.003449 -0.030420 -0.056025      2.000000
 -0.008017 -0.060951 -0.055864      2.000000
 -0.019483 -0.091481 -0.055703      2.000000
 -0.030948 -0.122011 -0.055542      2.000000
  0.060776  0.122232 -0.056831      2.000000
  0.049311  0.091701 -0.056670      2.000000
  0.037845  0.061171 -0.056509      2.000000
  0.026380  0.030641 -0.056348      2.000000
 


--------------------------------------------------------------------------------------------------------




 Dimension of arrays:
   k-points           NKPTS =    158   k-points in BZ     NKDIM =    158   number of bands    NBANDS=     42
   number of dos      NEDOS =    301   number of ions     NIONS =      9
   non local maximal  LDIM  =      6   non local SUM 2l+1 LMDIM =     18
   total plane-waves  NPLWV =  60480
   max r-space proj   IRMAX =   7940   max aug-charges    IRDMAX=  22991
   dimension x,y,z NGX =    28 NGY =   40 NGZ =   54
   dimension x,y,z NGXF=    56 NGYF=   80 NGZF=  108
   support grid    NGXF=    56 NGYF=   80 NGZF=  108
   ions per type =               1   2   6
   NGX,Y,Z   is equivalent  to a cutoff of  12.78, 12.44, 12.58 a.u.
   NGXF,Y,Z  is equivalent  to a cutoff of  25.56, 24.89, 25.15 a.u.

 SYSTEM =  unknown system                          
 POSCAR =  Ca1 V2 O6                               

 Startparameter for this run:
   NWRITE =      2    write-flag & timer
   PREC   = accura    normal or accurate (medium, high low for compatibility)
   ISTART =      0    job   : 0-new  1-cont  2-samecut
   ICHARG =      1    charge: 1-file 2-atom 10-const
   ISPIN  =      2    spin polarized calculation?
   LNONCOLLINEAR =      F non collinear calculations
   LSORBIT =      F    spin-orbit coupling
   INIWAV =      1    electr: 0-lowe 1-rand  2-diag
   LASPH  =      T    aspherical Exc in radial PAW
   METAGGA=      F    non-selfconsistent MetaGGA calc.

 Electronic Relaxation 1
   ENCUT  =  520.0 eV  38.22 Ry    6.18 a.u.   6.77  9.94 13.27*2*pi/ulx,y,z
   ENINI  =  520.0     initial cutoff
   ENAUG  =  605.4 eV  augmentation charge cutoff
   NELM   =    100;   NELMIN=  6; NELMDL= -5     # of ELM steps 
   EDIFF  = 0.1E-04   stopping-criterion for ELM
   LREAL  =      T    real-space projection
   NLSPLINE    = F    spline interpolate recip. space projectors
   LCOMPAT=      F    compatible to vasp.4.4
   GGA_COMPAT  = T    GGA compatible to vasp.4.4-vasp.4.6
   LMAXPAW     = -100 max onsite density
   LMAXMIX     =    4 max onsite mixed and CHGCAR
   VOSKOWN=      0    Vosko Wilk Nusair interpolation
   ROPT   =   -0.00025  -0.00025  -0.00025
 Ionic relaxation
   EDIFFG = -.3E-01   stopping-criterion for IOM
   NSW    =     99    number of steps for IOM
   NBLOCK =      1;   KBLOCK =     99    inner block; outer block 
   IBRION =      2    ionic relax: 0-MD 1-quasi-New 2-CG
   NFREE  =      1    steps in history (QN), initial steepest desc. (CG)
   ISIF   =      3    stress and relaxation
   IWAVPR =     11    prediction:  0-non 1-charg 2-wave 3-comb
   ISYM   =      0    0-nonsym 1-usesym 2-fastsym
   LCORR  =      T    Harris-Foulkes like correction to forces

   POTIM  = 0.5000    time-step for ionic-motion
   TEIN   =    0.0    initial temperature
   TEBEG  =    0.0;   TEEND  =   0.0 temperature during run
   SMASS  =  -3.00    Nose mass-parameter (am)
   estimated Nose-frequenzy (Omega)   =  0.10E-29 period in steps = 0.13E+47 mass=  -0.303E-27a.u.
   SCALEE = 1.0000    scale energy and forces
   NPACO  =    256;   APACO  = 16.0  distance and # of slots for P.C.
   PSTRESS=    0.0 pullay stress

  Mass of Ions in am
   POMASS =  40.08 50.94 16.00
  Ionic Valenz
   ZVAL   =  10.00 11.00  6.00
  Atomic Wigner-Seitz radii
   RWIGS  =  -1.00 -1.00 -1.00
  virtual crystal weights 
   VCA    =   1.00  1.00  1.00
   NELECT =      68.0000    total number of electrons
   NUPDOWN=      -1.0000    fix difference up-down

 DOS related values:
   EMIN   =  10.00;   EMAX   =-10.00  energy-range for DOS
   EFERMI =   0.00
   ISMEAR =     0;   SIGMA  =   0.05  broadening in eV -4-tet -1-fermi 0-gaus

 Electronic relaxation 2 (details)
   IALGO  =     38    algorithm
   LDIAG  =      T    sub-space diagonalisation (order eigenvalues)
   LSUBROT=      F    optimize rotation matrix (better conditioning)
   TURBO    =      0    0=normal 1=particle mesh
   IRESTART =      0    0=no restart 2=restart with 2 vectors
   NREBOOT  =      0    no. of reboots
   NMIN     =      0    reboot dimension
   EREF     =   0.00    reference energy to select bands
   IMIX   =      4    mixing-type and parameters
     AMIX     =   0.40;   BMIX     =  1.00
     AMIX_MAG =   1.60;   BMIX_MAG =  1.00
     AMIN     =   0.10
     WC   =   100.;   INIMIX=   1;  MIXPRE=   1;  MAXMIX= -45

 Intra band minimization:
   WEIMIN = 0.0010     energy-eigenvalue tresh-hold
   EBREAK =  0.60E-07  absolut break condition
   DEPER  =   0.30     relativ break condition  

   TIME   =   0.40     timestep for ELM

  volume/ion in A,a.u.               =      14.07        94.92
  Fermi-wavevector in a.u.,A,eV,Ry     =   1.330778  2.514807 24.095528  1.770971
  Thomas-Fermi vector in A             =   2.459840
 
 Write flags
   LWAVE        =      F    write WAVECAR
   LDOWNSAMPLE  =      F    k-point downsampling of WAVECAR
   LCHARG       =      T    write CHGCAR
   LVTOT        =      F    write LOCPOT, total local potential
   LVHAR        =      F    write LOCPOT, Hartree potential only
   LELF         =      F    write electronic localiz. function (ELF)
   LORBIT       =     11    0 simple, 1 ext, 2 COOP (PROOUT), +10 PAW based schemes


 Dipole corrections
   LMONO  =      F    monopole corrections only (constant potential shift)
   LDIPOL =      F    correct potential (dipole corrections)
   IDIPOL =      0    1-x, 2-y, 3-z, 4-all directions 
   EPSILON=  1.0000000 bulk dielectric constant

 LDA+U is selected, type is set to LDAUTYPE =  2
   angular momentum for each species LDAUL =    -1    2   -1
   U (eV)           for each species LDAUU =   0.0  1.0  0.0
   J (eV)           for each species LDAUJ =   0.0  0.0  0.0
 Exchange correlation treatment:
   GGA     =    --    GGA type
   LEXCH   =     8    internal setting for exchange type
   VOSKOWN=      0    Vosko Wilk Nusair interpolation
   LHFCALC =     F    Hartree Fock is set to
   LHFONE  =     F    Hartree Fock one center treatment
   AEXX    =    0.0000 exact exchange contribution

 Linear response parameters
   LEPSILON=     F    determine dielectric tensor
   LRPA    =     F    only Hartree local field effects (RPA)
   LNABLA  =     F    use nabla operator in PAW spheres
   LVEL    =     F    velocity operator in full k-point grid
   LINTERFAST=   F  fast interpolation
   KINTER  =     0    interpolate to denser k-point grid
   CSHIFT  =0.1000    complex shift for real part using Kramers Kronig
   OMEGAMAX=  -1.0    maximum frequency
   DEG_THRESHOLD= 0.2000000E-02 threshold for treating states as degnerate
   RTIME   =   -0.100 relaxation time in fs
  (WPLASMAI=    0.000 imaginary part of plasma frequency in eV, 0.658/RTIME)
   DFIELD  = 0.0000000 0.0000000 0.0000000 field for delta impulse in time
 
 Orbital magnetization related:
   ORBITALMAG=     F  switch on orbital magnetization
   LCHIMAG   =     F  perturbation theory with respect to B field
   DQ        =  0.001000  dq finite difference perturbation B field
   LLRAUG    =     F  two centre corrections for induced B field



--------------------------------------------------------------------------------------------------------


 conjugate gradient relaxation of ions
 charge density and potential will be updated during run
 spin polarized calculation
 Variant of blocked Davidson
 Davidson routine will perform the subspace rotation
 perform sub-space diagonalisation
    after iterative eigenvector-optimisation
 modified Broyden-mixing scheme, WC =      100.0
 initial mixing is a Kerker type mixing with AMIX =  0.4000 and BMIX =      1.0000
 Hartree-type preconditioning will be used
 using additional bands            8
 real space projection scheme for non local part
 use partial core corrections
 calculate Harris-corrections to forces 
   (improved forces if not selfconsistent)
 use gradient corrections 
 use of overlap-Matrix (Vanderbilt PP)
 Gauss-broadening in eV      SIGMA  =   0.05


--------------------------------------------------------------------------------------------------------


  energy-cutoff  :      520.00
  volume of cell :      126.59
      direct lattice vectors                 reciprocal lattice vectors
     0.006719086 -3.641912733 -0.005355318    -0.103190211 -0.274773499  0.001449347
    -4.860103164  1.831819893  1.256078042    -0.205360441 -0.000381951  0.002091221
    -0.072672860 -0.010361154 -7.138456102    -0.036057674  0.000138929 -0.139719431

  length of vectors
     3.641922869  5.343584839  7.138833534     0.293514559  0.205371444  0.144297244


 
 k-points in units of 2pi/SCALE and weight: K-points file                           
   0.00000000  0.00000000  0.00000000       0.003
  -0.01146558 -0.03053039  0.00016104       0.006
  -0.02293116 -0.06106078  0.00032208       0.006
  -0.03439674 -0.09159117  0.00048312       0.006
  -0.04586232 -0.12212156  0.00064415       0.006
  -0.02933721 -0.00005456  0.00029875       0.006
  -0.04080278 -0.03058495  0.00045978       0.006
  -0.05226836 -0.06111534  0.00062082       0.006
  -0.06373394 -0.09164573  0.00078186       0.006
  -0.07519952 -0.12217612  0.00094290       0.006
   0.01652511  0.12206699 -0.00034541       0.006
   0.00505953  0.09153660 -0.00018437       0.006
  -0.00640605  0.06100621 -0.00002333       0.006
  -0.01787163  0.03047582  0.00013771       0.006
  -0.05867441 -0.00010913  0.00059749       0.006
  -0.07013999 -0.03063952  0.00075853       0.006
  -0.08160557 -0.06116991  0.00091957       0.006
  -0.09307115 -0.09170030  0.00108061       0.006
  -0.10453673 -0.12223068  0.00124165       0.006
  -0.01281210  0.12201243 -0.00004666       0.006
  -0.02427767  0.09148204  0.00011438       0.006
  -0.03574325  0.06095165  0.00027541       0.006
  -0.04720883  0.03042126  0.00043645       0.006
  -0.08801162 -0.00016369  0.00089624       0.006
  -0.09947720 -0.03069408  0.00105728       0.006
  -0.11094278 -0.06122447  0.00121831       0.006
  -0.12240835 -0.09175486  0.00137935       0.006
  -0.13387393 -0.12228525  0.00154039       0.006
  -0.04214930  0.12195786  0.00025208       0.006
  -0.05361488  0.09142747  0.00041312       0.006
  -0.06508046  0.06089708  0.00057416       0.006
  -0.07654604  0.03036670  0.00073520       0.006
  -0.00721153  0.00002779 -0.02794389       0.006
  -0.01867711 -0.03050260 -0.02778285       0.006
  -0.03014269 -0.06103299 -0.02762181       0.006
  -0.04160827 -0.09156338 -0.02746077       0.006
  -0.05307385 -0.12209377 -0.02729973       0.006
   0.03865078  0.12214934 -0.02858804       0.006
   0.02718520  0.09161895 -0.02842700       0.006
   0.01571962  0.06108856 -0.02826596       0.006
   0.00425404  0.03055817 -0.02810492       0.006
  -0.03654874 -0.00002678 -0.02764514       0.006
  -0.04801432 -0.03055717 -0.02748410       0.006
  -0.05947990 -0.06108756 -0.02732306       0.006
  -0.07094548 -0.09161795 -0.02716202       0.006
  -0.08241106 -0.12214833 -0.02700099       0.006
   0.00931358  0.12209478 -0.02828929       0.006
  -0.00215200  0.09156439 -0.02812826       0.006
  -0.01361758  0.06103400 -0.02796722       0.006
  -0.02508316  0.03050361 -0.02780618       0.006
  -0.06588595 -0.00008134 -0.02734639       0.006
  -0.07735153 -0.03061173 -0.02718536       0.006
  -0.08881710 -0.06114212 -0.02702432       0.006
  -0.10028268 -0.09167251 -0.02686328       0.006
  -0.11174826 -0.12220290 -0.02670224       0.006
  -0.02002363  0.12204021 -0.02799055       0.006
  -0.03148921  0.09150982 -0.02782951       0.006
  -0.04295479  0.06097943 -0.02766847       0.006
  -0.05442037  0.03044905 -0.02750743       0.006
  -0.09522315 -0.00013591 -0.02704765       0.006
  -0.10668873 -0.03066630 -0.02688661       0.006
  -0.11815431 -0.06119669 -0.02672557       0.006
  -0.12961989 -0.09172707 -0.02656453       0.006
  -0.14108547 -0.12225746 -0.02640349       0.006
  -0.04936084  0.12198565 -0.02769180       0.006
  -0.06082642  0.09145526 -0.02753076       0.006
  -0.07229199  0.06092487 -0.02736973       0.006
  -0.08375757  0.03039448 -0.02720869       0.006
   0.08080008  0.00019148 -0.02884012       0.006
   0.06933450 -0.03033891 -0.02867909       0.006
   0.05786892 -0.06086930 -0.02851805       0.006
   0.04640335 -0.09139969 -0.02835701       0.006
   0.03493777 -0.12193008 -0.02819597       0.006
   0.12666240  0.12231303 -0.02948428       0.006
   0.11519682  0.09178265 -0.02932324       0.006
   0.10373124  0.06125226 -0.02916220       0.006
   0.09226566  0.03072187 -0.02900116       0.006
   0.05146288  0.00013691 -0.02854138       0.006
   0.03999730 -0.03039347 -0.02838034       0.006
   0.02853172 -0.06092386 -0.02821930       0.006
   0.01706614 -0.09145425 -0.02805826       0.006
   0.00560056 -0.12198464 -0.02789722       0.006
   0.09732519  0.12225847 -0.02918553       0.006
   0.08585961  0.09172808 -0.02902449       0.006
   0.07439403  0.06119769 -0.02886345       0.006
   0.06292846  0.03066730 -0.02870242       0.006
   0.02212567  0.00008235 -0.02824263       0.006
   0.01066009 -0.03044804 -0.02808159       0.006
  -0.00080549 -0.06097843 -0.02792055       0.006
  -0.01227107 -0.09150882 -0.02775952       0.006
  -0.02373664 -0.12203920 -0.02759848       0.006
   0.06798799  0.12220391 -0.02888679       0.006
   0.05652241  0.09167352 -0.02872575       0.006
   0.04505683  0.06114313 -0.02856471       0.006
   0.03359125  0.03061274 -0.02840367       0.006
  -0.01442307  0.00005557 -0.05588777       0.006
  -0.02588865 -0.03047482 -0.05572673       0.006
  -0.03735423 -0.06100521 -0.05556570       0.006
  -0.04881981 -0.09153559 -0.05540466       0.006
  -0.06028539 -0.12206598 -0.05524362       0.006
   0.03143925  0.12217713 -0.05653193       0.006
   0.01997367  0.09164674 -0.05637089       0.006
   0.00850809  0.06111635 -0.05620985       0.006
  -0.00295749  0.03058596 -0.05604881       0.006
  -0.04376028  0.00000101 -0.05558903       0.006
  -0.05522585 -0.03052938 -0.05542799       0.006
  -0.06669143 -0.06105977 -0.05526695       0.006
  -0.07815701 -0.09159016 -0.05510591       0.006
  -0.08962259 -0.12212055 -0.05494487       0.006
   0.00210204  0.12212256 -0.05623318       0.006
  -0.00936354  0.09159217 -0.05607214       0.006
  -0.02082912  0.06106178 -0.05591110       0.006
  -0.03229470  0.03053140 -0.05575007       0.006
  -0.07309748 -0.00005356 -0.05529028       0.006
  -0.08456306 -0.03058395 -0.05512924       0.006
  -0.09602864 -0.06111433 -0.05496820       0.006
  -0.10749422 -0.09164472 -0.05480717       0.006
  -0.11895980 -0.12217511 -0.05464613       0.006
  -0.02723517  0.12206800 -0.05593443       0.006
  -0.03870074  0.09153761 -0.05577340       0.006
  -0.05016632  0.06100722 -0.05561236       0.006
  -0.06163190  0.03047683 -0.05545132       0.006
  -0.10243469 -0.00010812 -0.05499153       0.006
  -0.11390027 -0.03063851 -0.05483050       0.006
  -0.12536585 -0.06116890 -0.05466946       0.006
  -0.13683142 -0.09169929 -0.05450842       0.006
  -0.14829700 -0.12222968 -0.05434738       0.006
  -0.05657237  0.12201343 -0.05563569       0.006
  -0.06803795  0.09148304 -0.05547465       0.006
  -0.07950353  0.06095266 -0.05531361       0.006
  -0.09096911  0.03042227 -0.05515257       0.006
   0.07358855  0.00021927 -0.05678401       0.006
   0.06212297 -0.03031112 -0.05662297       0.006
   0.05065739 -0.06084151 -0.05646193       0.006
   0.03919181 -0.09137190 -0.05630089       0.006
   0.02772623 -0.12190229 -0.05613986       0.006
   0.11945086  0.12234082 -0.05742816       0.006
   0.10798528  0.09181043 -0.05726713       0.006
   0.09651971  0.06128004 -0.05710609       0.006
   0.08505413  0.03074965 -0.05694505       0.006
   0.04425134  0.00016470 -0.05648526       0.006
   0.03278576 -0.03036569 -0.05632423       0.006
   0.02132018 -0.06089608 -0.05616319       0.006
   0.00985461 -0.09142647 -0.05600215       0.006
  -0.00161097 -0.12195685 -0.05584111       0.006
   0.09011366  0.12228626 -0.05712942       0.006
   0.07864808  0.09175587 -0.05696838       0.006
   0.06718250  0.06122548 -0.05680734       0.006
   0.05571692  0.03069509 -0.05664630       0.006
   0.01491414  0.00011014 -0.05618652       0.006
   0.00344856 -0.03042025 -0.05602548       0.006
  -0.00801702 -0.06095064 -0.05586444       0.006
  -0.01948260 -0.09148103 -0.05570340       0.006
  -0.03094818 -0.12201142 -0.05554236       0.006
   0.06077645  0.12223169 -0.05683067       0.006
   0.04931087  0.09170130 -0.05666963       0.006
   0.03784529  0.06117091 -0.05650860       0.006
   0.02637972  0.03064052 -0.05634756       0.006
 
 k-points in reciprocal lattice and weights: K-points file                           
   0.00000000  0.00000000  0.00000000       0.003
   0.11111111  0.00000000  0.00000000       0.006
   0.22222222  0.00000000 -0.00000000       0.006
   0.33333333  0.00000000  0.00000000       0.006
   0.44444444  0.00000000  0.00000000       0.006
  -0.00000000  0.14285714 -0.00000000       0.006
   0.11111111  0.14285714  0.00000000       0.006
   0.22222222  0.14285714  0.00000000       0.006
   0.33333333  0.14285714 -0.00000000       0.006
   0.44444444  0.14285714  0.00000000       0.006
  -0.44444444  0.14285714  0.00000000       0.006
  -0.33333333  0.14285714 -0.00000000       0.006
  -0.22222222  0.14285714  0.00000000       0.006
  -0.11111111  0.14285714  0.00000000       0.006
   0.00000000  0.28571429  0.00000000       0.006
   0.11111111  0.28571429 -0.00000000       0.006
   0.22222222  0.28571429  0.00000000       0.006
   0.33333333  0.28571429  0.00000000       0.006
   0.44444444  0.28571429 -0.00000000       0.006
  -0.44444444  0.28571429  0.00000000       0.006
  -0.33333333  0.28571429  0.00000000       0.006
  -0.22222222  0.28571429 -0.00000000       0.006
  -0.11111111  0.28571429  0.00000000       0.006
   0.00000000  0.42857143  0.00000000       0.006
   0.11111111  0.42857143  0.00000000       0.006
   0.22222222  0.42857143 -0.00000000       0.006
   0.33333333  0.42857143  0.00000000       0.006
   0.44444444  0.42857143  0.00000000       0.006
  -0.44444444  0.42857143 -0.00000000       0.006
  -0.33333333  0.42857143  0.00000000       0.006
  -0.22222222  0.42857143  0.00000000       0.006
  -0.11111111  0.42857143 -0.00000000       0.006
   0.00000000  0.00000000  0.20000000       0.006
   0.11111111  0.00000000  0.20000000       0.006
   0.22222222  0.00000000  0.20000000       0.006
   0.33333333  0.00000000  0.20000000       0.006
   0.44444444 -0.00000000  0.20000000       0.006
  -0.44444444 -0.00000000  0.20000000       0.006
  -0.33333333 -0.00000000  0.20000000       0.006
  -0.22222222 -0.00000000  0.20000000       0.006
  -0.11111111 -0.00000000  0.20000000       0.006
  -0.00000000  0.14285714  0.20000000       0.006
   0.11111111  0.14285714  0.20000000       0.006
   0.22222222  0.14285714  0.20000000       0.006
   0.33333333  0.14285714  0.20000000       0.006
   0.44444444  0.14285714  0.20000000       0.006
  -0.44444444  0.14285714  0.20000000       0.006
  -0.33333333  0.14285714  0.20000000       0.006
  -0.22222222  0.14285714  0.20000000       0.006
  -0.11111111  0.14285714  0.20000000       0.006
   0.00000000  0.28571429  0.20000000       0.006
   0.11111111  0.28571429  0.20000000       0.006
   0.22222222  0.28571429  0.20000000       0.006
   0.33333333  0.28571429  0.20000000       0.006
   0.44444444  0.28571429  0.20000000       0.006
  -0.44444444  0.28571429  0.20000000       0.006
  -0.33333333  0.28571429  0.20000000       0.006
  -0.22222222  0.28571429  0.20000000       0.006
  -0.11111111  0.28571429  0.20000000       0.006
  -0.00000000  0.42857143  0.20000000       0.006
   0.11111111  0.42857143  0.20000000       0.006
   0.22222222  0.42857143  0.20000000       0.006
   0.33333333  0.42857143  0.20000000       0.006
   0.44444444  0.42857143  0.20000000       0.006
  -0.44444444  0.42857143  0.20000000       0.006
  -0.33333333  0.42857143  0.20000000       0.006
  -0.22222222  0.42857143  0.20000000       0.006
  -0.11111111  0.42857143  0.20000000       0.006
   0.00000000 -0.42857143  0.20000000       0.006
   0.11111111 -0.42857143  0.20000000       0.006
   0.22222222 -0.42857143  0.20000000       0.006
   0.33333333 -0.42857143  0.20000000       0.006
   0.44444444 -0.42857143  0.20000000       0.006
  -0.44444444 -0.42857143  0.20000000       0.006
  -0.33333333 -0.42857143  0.20000000       0.006
  -0.22222222 -0.42857143  0.20000000       0.006
  -0.11111111 -0.42857143  0.20000000       0.006
  -0.00000000 -0.28571429  0.20000000       0.006
   0.11111111 -0.28571429  0.20000000       0.006
   0.22222222 -0.28571429  0.20000000       0.006
   0.33333333 -0.28571429  0.20000000       0.006
   0.44444444 -0.28571429  0.20000000       0.006
  -0.44444444 -0.28571429  0.20000000       0.006
  -0.33333333 -0.28571429  0.20000000       0.006
  -0.22222222 -0.28571429  0.20000000       0.006
  -0.11111111 -0.28571429  0.20000000       0.006
   0.00000000 -0.14285714  0.20000000       0.006
   0.11111111 -0.14285714  0.20000000       0.006
   0.22222222 -0.14285714  0.20000000       0.006
   0.33333333 -0.14285714  0.20000000       0.006
   0.44444444 -0.14285714  0.20000000       0.006
  -0.44444444 -0.14285714  0.20000000       0.006
  -0.33333333 -0.14285714  0.20000000       0.006
  -0.22222222 -0.14285714  0.20000000       0.006
  -0.11111111 -0.14285714  0.20000000       0.006
   0.00000000  0.00000000  0.40000000       0.006
   0.11111111  0.00000000  0.40000000       0.006
   0.22222222  0.00000000  0.40000000       0.006
   0.33333333  0.00000000  0.40000000       0.006
   0.44444444  0.00000000  0.40000000       0.006
  -0.44444444 -0.00000000  0.40000000       0.006
  -0.33333333 -0.00000000  0.40000000       0.006
  -0.22222222 -0.00000000  0.40000000       0.006
  -0.11111111  0.00000000  0.40000000       0.006
   0.00000000  0.14285714  0.40000000       0.006
   0.11111111  0.14285714  0.40000000       0.006
   0.22222222  0.14285714  0.40000000       0.006
   0.33333333  0.14285714  0.40000000       0.006
   0.44444444  0.14285714  0.40000000       0.006
  -0.44444444  0.14285714  0.40000000       0.006
  -0.33333333  0.14285714  0.40000000       0.006
  -0.22222222  0.14285714  0.40000000       0.006
  -0.11111111  0.14285714  0.40000000       0.006
   0.00000000  0.28571429  0.40000000       0.006
   0.11111111  0.28571429  0.40000000       0.006
   0.22222222  0.28571429  0.40000000       0.006
   0.33333333  0.28571429  0.40000000       0.006
   0.44444444  0.28571429  0.40000000       0.006
  -0.44444444  0.28571429  0.40000000       0.006
  -0.33333333  0.28571429  0.40000000       0.006
  -0.22222222  0.28571429  0.40000000       0.006
  -0.11111111  0.28571429  0.40000000       0.006
   0.00000000  0.42857143  0.40000000       0.006
   0.11111111  0.42857143  0.40000000       0.006
   0.22222222  0.42857143  0.40000000       0.006
   0.33333333  0.42857143  0.40000000       0.006
   0.44444444  0.42857143  0.40000000       0.006
  -0.44444444  0.42857143  0.40000000       0.006
  -0.33333333  0.42857143  0.40000000       0.006
  -0.22222222  0.42857143  0.40000000       0.006
  -0.11111111  0.42857143  0.40000000       0.006
  -0.00000000 -0.42857143  0.40000000       0.006
   0.11111111 -0.42857143  0.40000000       0.006
   0.22222222 -0.42857143  0.40000000       0.006
   0.33333333 -0.42857143  0.40000000       0.006
   0.44444444 -0.42857143  0.40000000       0.006
  -0.44444444 -0.42857143  0.40000000       0.006
  -0.33333333 -0.42857143  0.40000000       0.006
  -0.22222222 -0.42857143  0.40000000       0.006
  -0.11111111 -0.42857143  0.40000000       0.006
  -0.00000000 -0.28571429  0.40000000       0.006
   0.11111111 -0.28571429  0.40000000       0.006
   0.22222222 -0.28571429  0.40000000       0.006
   0.33333333 -0.28571429  0.40000000       0.006
   0.44444444 -0.28571429  0.40000000       0.006
  -0.44444444 -0.28571429  0.40000000       0.006
  -0.33333333 -0.28571429  0.40000000       0.006
  -0.22222222 -0.28571429  0.40000000       0.006
  -0.11111111 -0.28571429  0.40000000       0.006
  -0.00000000 -0.14285714  0.40000000       0.006
   0.11111111 -0.14285714  0.40000000       0.006
   0.22222222 -0.14285714  0.40000000       0.006
   0.33333333 -0.14285714  0.40000000       0.006
   0.44444444 -0.14285714  0.40000000       0.006
  -0.44444444 -0.14285714  0.40000000       0.006
  -0.33333333 -0.14285714  0.40000000       0.006
  -0.22222222 -0.14285714  0.40000000       0.006
  -0.11111111 -0.14285714  0.40000000       0.006
 
 position of ions in fractional coordinates (direct lattice) 
   0.99999469  0.99999704  0.00000425
   0.22964084  0.46555380  0.66928249
   0.77036526  0.53445012  0.33071866
   0.08006299  0.16498485  0.72216711
   0.91992601  0.83500922  0.27783414
   0.64465918  0.28670713  0.12301594
   0.35532852  0.71326488  0.87698834
   0.24955704  0.49654748  0.39715354
   0.75046547  0.50348547  0.60283553
 
 position of ions in cartesian coordinates  (Angst):
  -4.85337004 -1.81007897  1.25068872
  -2.30973520  0.00954426 -4.19410155
  -2.61634083 -1.83001331 -1.69363515
  -0.85378738  0.00315764 -4.94835316
  -4.07224090 -1.82358242 -0.93939658
  -1.39803462 -1.82387126 -0.52146968
  -3.52788669  0.00341072 -5.36632933
  -2.44045748 -0.00339438 -2.21269717
  -2.48575869 -1.81708111 -3.67491688
 


--------------------------------------------------------------------------------------------------------


 k-point   1 :   0.0000 0.0000 0.0000  plane waves:    3403
 k-point   2 :   0.1111 0.0000 0.0000  plane waves:    3394
 k-point   3 :   0.2222 0.0000-0.0000  plane waves:    3400
 k-point   4 :   0.3333 0.0000 0.0000  plane waves:    3412
 k-point   5 :   0.4444 0.0000 0.0000  plane waves:    3421
 k-point   6 :  -0.0000 0.1429-0.0000  plane waves:    3402
 k-point   7 :   0.1111 0.1429 0.0000  plane waves:    3408
 k-point   8 :   0.2222 0.1429 0.0000  plane waves:    3406
 k-point   9 :   0.3333 0.1429-0.0000  plane waves:    3411
 k-point  10 :   0.4444 0.1429 0.0000  plane waves:    3412
 k-point  11 :  -0.4444 0.1429 0.0000  plane waves:    3403
 k-point  12 :  -0.3333 0.1429-0.0000  plane waves:    3419
 k-point  13 :  -0.2222 0.1429 0.0000  plane waves:    3404
 k-point  14 :  -0.1111 0.1429 0.0000  plane waves:    3405
 k-point  15 :   0.0000 0.2857 0.0000  plane waves:    3402
 k-point  16 :   0.1111 0.2857-0.0000  plane waves:    3404
 k-point  17 :   0.2222 0.2857 0.0000  plane waves:    3418
 k-point  18 :   0.3333 0.2857 0.0000  plane waves:    3422
 k-point  19 :   0.4444 0.2857-0.0000  plane waves:    3416
 k-point  20 :  -0.4444 0.2857 0.0000  plane waves:    3407
 k-point  21 :  -0.3333 0.2857 0.0000  plane waves:    3411
 k-point  22 :  -0.2222 0.2857-0.0000  plane waves:    3401
 k-point  23 :  -0.1111 0.2857 0.0000  plane waves:    3404
 k-point  24 :   0.0000 0.4286 0.0000  plane waves:    3418
 k-point  25 :   0.1111 0.4286 0.0000  plane waves:    3421
 k-point  26 :   0.2222 0.4286-0.0000  plane waves:    3417
 k-point  27 :   0.3333 0.4286 0.0000  plane waves:    3418
 k-point  28 :   0.4444 0.4286 0.0000  plane waves:    3416
 k-point  29 :  -0.4444 0.4286-0.0000  plane waves:    3415
 k-point  30 :  -0.3333 0.4286 0.0000  plane waves:    3414
 k-point  31 :  -0.2222 0.4286 0.0000  plane waves:    3399
 k-point  32 :  -0.1111 0.4286-0.0000  plane waves:    3414
 k-point  33 :   0.0000 0.0000 0.2000  plane waves:    3406
 k-point  34 :   0.1111 0.0000 0.2000  plane waves:    3399
 k-point  35 :   0.2222 0.0000 0.2000  plane waves:    3401
 k-point  36 :   0.3333 0.0000 0.2000  plane waves:    3404
 k-point  37 :   0.4444-0.0000 0.2000  plane waves:    3412
 k-point  38 :  -0.4444-0.0000 0.2000  plane waves:    3417
 k-point  39 :  -0.3333-0.0000 0.2000  plane waves:    3393
 k-point  40 :  -0.2222-0.0000 0.2000  plane waves:    3397
 k-point  41 :  -0.1111-0.0000 0.2000  plane waves:    3389
 k-point  42 :  -0.0000 0.1429 0.2000  plane waves:    3402
 k-point  43 :   0.1111 0.1429 0.2000  plane waves:    3406
 k-point  44 :   0.2222 0.1429 0.2000  plane waves:    3400
 k-point  45 :   0.3333 0.1429 0.2000  plane waves:    3405
 k-point  46 :   0.4444 0.1429 0.2000  plane waves:    3420
 k-point  47 :  -0.4444 0.1429 0.2000  plane waves:    3410
 k-point  48 :  -0.3333 0.1429 0.2000  plane waves:    3411
 k-point  49 :  -0.2222 0.1429 0.2000  plane waves:    3399
 k-point  50 :  -0.1111 0.1429 0.2000  plane waves:    3394
 k-point  51 :   0.0000 0.2857 0.2000  plane waves:    3411
 k-point  52 :   0.1111 0.2857 0.2000  plane waves:    3403
 k-point  53 :   0.2222 0.2857 0.2000  plane waves:    3410
 k-point  54 :   0.3333 0.2857 0.2000  plane waves:    3425
 k-point  55 :   0.4444 0.2857 0.2000  plane waves:    3420
 k-point  56 :  -0.4444 0.2857 0.2000  plane waves:    3416
 k-point  57 :  -0.3333 0.2857 0.2000  plane waves:    3412
 k-point  58 :  -0.2222 0.2857 0.2000  plane waves:    3397
 k-point  59 :  -0.1111 0.2857 0.2000  plane waves:    3406
 k-point  60 :  -0.0000 0.4286 0.2000  plane waves:    3401
 k-point  61 :   0.1111 0.4286 0.2000  plane waves:    3410
 k-point  62 :   0.2222 0.4286 0.2000  plane waves:    3419
 k-point  63 :   0.3333 0.4286 0.2000  plane waves:    3415
 k-point  64 :   0.4444 0.4286 0.2000  plane waves:    3407
 k-point  65 :  -0.4444 0.4286 0.2000  plane waves:    3417
 k-point  66 :  -0.3333 0.4286 0.2000  plane waves:    3413
 k-point  67 :  -0.2222 0.4286 0.2000  plane waves:    3402
 k-point  68 :  -0.1111 0.4286 0.2000  plane waves:    3413
 k-point  69 :   0.0000-0.4286 0.2000  plane waves:    3410
 k-point  70 :   0.1111-0.4286 0.2000  plane waves:    3416
 k-point  71 :   0.2222-0.4286 0.2000  plane waves:    3412
 k-point  72 :   0.3333-0.4286 0.2000  plane waves:    3400
 k-point  73 :   0.4444-0.4286 0.2000  plane waves:    3412
 k-point  74 :  -0.4444-0.4286 0.2000  plane waves:    3417
 k-point  75 :  -0.3333-0.4286 0.2000  plane waves:    3418
 k-point  76 :  -0.2222-0.4286 0.2000  plane waves:    3410
 k-point  77 :  -0.1111-0.4286 0.2000  plane waves:    3411
 k-point  78 :  -0.0000-0.2857 0.2000  plane waves:    3412
 k-point  79 :   0.1111-0.2857 0.2000  plane waves:    3409
 k-point  80 :   0.2222-0.2857 0.2000  plane waves:    3403
 k-point  81 :   0.3333-0.2857 0.2000  plane waves:    3401
 k-point  82 :   0.4444-0.2857 0.2000  plane waves:    3405
 k-point  83 :  -0.4444-0.2857 0.2000  plane waves:    3420
 k-point  84 :  -0.3333-0.2857 0.2000  plane waves:    3423
 k-point  85 :  -0.2222-0.2857 0.2000  plane waves:    3408
 k-point  86 :  -0.1111-0.2857 0.2000  plane waves:    3412
 k-point  87 :   0.0000-0.1429 0.2000  plane waves:    3411
 k-point  88 :   0.1111-0.1429 0.2000  plane waves:    3397
 k-point  89 :   0.2222-0.1429 0.2000  plane waves:    3401
 k-point  90 :   0.3333-0.1429 0.2000  plane waves:    3413
 k-point  91 :   0.4444-0.1429 0.2000  plane waves:    3411
 k-point  92 :  -0.4444-0.1429 0.2000  plane waves:    3412
 k-point  93 :  -0.3333-0.1429 0.2000  plane waves:    3400
 k-point  94 :  -0.2222-0.1429 0.2000  plane waves:    3406
 k-point  95 :  -0.1111-0.1429 0.2000  plane waves:    3412
 k-point  96 :   0.0000 0.0000 0.4000  plane waves:    3393
 k-point  97 :   0.1111 0.0000 0.4000  plane waves:    3394
 k-point  98 :   0.2222 0.0000 0.4000  plane waves:    3400
 k-point  99 :   0.3333 0.0000 0.4000  plane waves:    3407
 k-point 100 :   0.4444 0.0000 0.4000  plane waves:    3406
 k-point 101 :  -0.4444-0.0000 0.4000  plane waves:    3415
 k-point 102 :  -0.3333-0.0000 0.4000  plane waves:    3403
 k-point 103 :  -0.2222-0.0000 0.4000  plane waves:    3397
 k-point 104 :  -0.1111 0.0000 0.4000  plane waves:    3400
 k-point 105 :   0.0000 0.1429 0.4000  plane waves:    3406
 k-point 106 :   0.1111 0.1429 0.4000  plane waves:    3401
 k-point 107 :   0.2222 0.1429 0.4000  plane waves:    3396
 k-point 108 :   0.3333 0.1429 0.4000  plane waves:    3401
 k-point 109 :   0.4444 0.1429 0.4000  plane waves:    3413
 k-point 110 :  -0.4444 0.1429 0.4000  plane waves:    3409
 k-point 111 :  -0.3333 0.1429 0.4000  plane waves:    3409
 k-point 112 :  -0.2222 0.1429 0.4000  plane waves:    3392
 k-point 113 :  -0.1111 0.1429 0.4000  plane waves:    3407
 k-point 114 :   0.0000 0.2857 0.4000  plane waves:    3415
 k-point 115 :   0.1111 0.2857 0.4000  plane waves:    3419
 k-point 116 :   0.2222 0.2857 0.4000  plane waves:    3412
 k-point 117 :   0.3333 0.2857 0.4000  plane waves:    3412
 k-point 118 :   0.4444 0.2857 0.4000  plane waves:    3413
 k-point 119 :  -0.4444 0.2857 0.4000  plane waves:    3408
 k-point 120 :  -0.3333 0.2857 0.4000  plane waves:    3405
 k-point 121 :  -0.2222 0.2857 0.4000  plane waves:    3400
 k-point 122 :  -0.1111 0.2857 0.4000  plane waves:    3408
 k-point 123 :   0.0000 0.4286 0.4000  plane waves:    3422
 k-point 124 :   0.1111 0.4286 0.4000  plane waves:    3429
 k-point 125 :   0.2222 0.4286 0.4000  plane waves:    3412
 k-point 126 :   0.3333 0.4286 0.4000  plane waves:    3403
 k-point 127 :   0.4444 0.4286 0.4000  plane waves:    3413
 k-point 128 :  -0.4444 0.4286 0.4000  plane waves:    3412
 k-point 129 :  -0.3333 0.4286 0.4000  plane waves:    3395
 k-point 130 :  -0.2222 0.4286 0.4000  plane waves:    3403
 k-point 131 :  -0.1111 0.4286 0.4000  plane waves:    3414
 k-point 132 :  -0.0000-0.4286 0.4000  plane waves:    3431
 k-point 133 :   0.1111-0.4286 0.4000  plane waves:    3419
 k-point 134 :   0.2222-0.4286 0.4000  plane waves:    3404
 k-point 135 :   0.3333-0.4286 0.4000  plane waves:    3410
 k-point 136 :   0.4444-0.4286 0.4000  plane waves:    3408
 k-point 137 :  -0.4444-0.4286 0.4000  plane waves:    3406
 k-point 138 :  -0.3333-0.4286 0.4000  plane waves:    3407
 k-point 139 :  -0.2222-0.4286 0.4000  plane waves:    3405
 k-point 140 :  -0.1111-0.4286 0.4000  plane waves:    3431
 k-point 141 :  -0.0000-0.2857 0.4000  plane waves:    3430
 k-point 142 :   0.1111-0.2857 0.4000  plane waves:    3406
 k-point 143 :   0.2222-0.2857 0.4000  plane waves:    3397
 k-point 144 :   0.3333-0.2857 0.4000  plane waves:    3408
 k-point 145 :   0.4444-0.2857 0.4000  plane waves:    3405
 k-point 146 :  -0.4444-0.2857 0.4000  plane waves:    3410
 k-point 147 :  -0.3333-0.2857 0.4000  plane waves:    3401
 k-point 148 :  -0.2222-0.2857 0.4000  plane waves:    3416
 k-point 149 :  -0.1111-0.2857 0.4000  plane waves:    3423
 k-point 150 :  -0.0000-0.1429 0.4000  plane waves:    3406
 k-point 151 :   0.1111-0.1429 0.4000  plane waves:    3398
 k-point 152 :   0.2222-0.1429 0.4000  plane waves:    3396
 k-point 153 :   0.3333-0.1429 0.4000  plane waves:    3413
 k-point 154 :   0.4444-0.1429 0.4000  plane waves:    3410
 k-point 155 :  -0.4444-0.1429 0.4000  plane waves:    3413
 k-point 156 :  -0.3333-0.1429 0.4000  plane waves:    3402
 k-point 157 :  -0.2222-0.1429 0.4000  plane waves:    3397
 k-point 158 :  -0.1111-0.1429 0.4000  plane waves:    3405

 maximum and minimum number of plane-waves per node :       871      826

 maximum number of plane-waves:      3431
 maximum index in each direction: 
   IXMAX=    7   IYMAX=   10   IZMAX=   13
   IXMIN=   -7   IYMIN=  -10   IZMIN=  -13


 real space projection operators:
  total allocation   :       4129.97 KBytes
  max/ min on nodes  :       1035.09       1031.16


 parallel 3D FFT for wavefunctions:
    minimum data exchange during FFTs selected (reduces bandwidth)
 parallel 3D FFT for charge:
    minimum data exchange during FFTs selected (reduces bandwidth)


 total amount of memory used by VASP MPI-rank0    70867. kBytes
=======================================================================

   base      :      30000. kBytes
   nonlr-proj:       2486. kBytes
   fftplans  :       1299. kBytes
   grid      :       4924. kBytes
   one-center:         93. kBytes
   wavefun   :      32065. kBytes
 
     INWAV:  cpu time    0.0000: real time    0.0000
 Broyden mixing: mesh for mixing (old mesh)
   NGX = 13   NGY = 19   NGZ = 27
  (NGX  = 56   NGY  = 80   NGZ  =108)
  gives a total of   6669 points

 initial charge density was supplied:
 number of electron      68.0000013 magnetization       0.0000000
 keeping initial charge density in first step


--------------------------------------------------------------------------------------------------------


 Maximum index for non-local projection operator         1912
 Maximum index for augmentation-charges         1639 (set IRDMAX)


--------------------------------------------------------------------------------------------------------


 First call to EWALD:  gamma=   0.353
 Maximum number of real-space cells 4x 3x 2
 Maximum number of reciprocal cells 2x 3x 4

    FEWALD:  cpu time    0.0015: real time    0.0015


--------------------------------------- Iteration      1(   1)  ---------------------------------------


    POTLOK:  cpu time    0.0593: real time    0.0628
    SETDIJ:  cpu time    1.2581: real time    1.2582
atom =   2  type =  2  l = 2
 
 onsite density matrix
 
spin component  1
 
  0.2417 -0.0219  0.0006  0.0014  0.0000
 -0.0219  0.2060 -0.0010  0.0002 -0.0006
  0.0006 -0.0010  0.2940  0.0303 -0.0021
  0.0014  0.0002  0.0303  0.4219 -0.0205
  0.0000 -0.0006 -0.0021 -0.0205  0.3827
 
spin component  2
 
  0.2417 -0.0219  0.0006  0.0014  0.0000
 -0.0219  0.2060 -0.0010  0.0002 -0.0006
  0.0006 -0.0010  0.2940  0.0303 -0.0021
  0.0014  0.0002  0.0303  0.4219 -0.0205
  0.0000 -0.0006 -0.0021 -0.0205  0.3827
 
 occupancies and eigenvectors
 
  o =  0.1955  v = -0.4294 -0.9031 -0.0082  0.0043 -0.0022  0.0000  0.0000  0.0000  0.0000  0.0000      0.0000  0.0000  0.0000  0.0000  0.0000  0.0000  0.0000  0.0000  0.0000  0.0000
  o =  0.1955  v =  0.0000  0.0000  0.0000  0.0000  0.0000 -0.4294 -0.9031 -0.0082  0.0043 -0.0022      0.0000  0.0000  0.0000  0.0000  0.0000  0.0000  0.0000  0.0000  0.0000  0.0000
  o =  0.2521  v =  0.0000  0.0000  0.0000  0.0000  0.0000  0.9030 -0.4291 -0.0215 -0.0036 -0.0029      0.0000  0.0000  0.0000  0.0000  0.0000  0.0000  0.0000  0.0000  0.0000  0.0000
  o =  0.2521  v =  0.9030 -0.4291 -0.0215 -0.0036 -0.0029  0.0000  0.0000  0.0000  0.0000  0.0000      0.0000  0.0000  0.0000  0.0000  0.0000  0.0000  0.0000  0.0000  0.0000  0.0000
  o =  0.2871  v =  0.0000  0.0000  0.0000  0.0000  0.0000 -0.0143  0.0166 -0.9741  0.2234  0.0271      0.0000  0.0000  0.0000  0.0000  0.0000  0.0000  0.0000  0.0000  0.0000  0.0000
  o =  0.2871  v = -0.0143  0.0166 -0.9741  0.2234  0.0271  0.0000  0.0000  0.0000  0.0000  0.0000      0.0000  0.0000  0.0000  0.0000  0.0000  0.0000  0.0000  0.0000  0.0000  0.0000
  o =  0.3750  v =  0.0000  0.0000  0.0000  0.0000  0.0000  0.0050 -0.0040  0.1041  0.3413  0.9342      0.0000  0.0000  0.0000  0.0000  0.0000  0.0000  0.0000  0.0000  0.0000  0.0000
  o =  0.3750  v =  0.0050 -0.0040  0.1041  0.3413  0.9342  0.0000  0.0000  0.0000  0.0000  0.0000      0.0000  0.0000  0.0000  0.0000  0.0000  0.0000  0.0000  0.0000  0.0000  0.0000
  o =  0.4365  v =  0.0000  0.0000  0.0000  0.0000  0.0000 -0.0072 -0.0000 -0.1994 -0.9130  0.3558      0.0000  0.0000  0.0000  0.0000  0.0000  0.0000  0.0000  0.0000  0.0000  0.0000
  o =  0.4365  v = -0.0072 -0.0000 -0.1994 -0.9130  0.3558  0.0000  0.0000  0.0000  0.0000  0.0000      0.0000  0.0000  0.0000  0.0000  0.0000  0.0000  0.0000  0.0000  0.0000  0.0000
atom =   3  type =  2  l = 2
 
 onsite density matrix
 
spin component  1
 
  0.2416 -0.0219  0.0006  0.0014  0.0000
 -0.0219  0.2060 -0.0010  0.0002 -0.0005
  0.0006 -0.0010  0.2940  0.0303 -0.0021
  0.0014  0.0002  0.0303  0.4219 -0.0205
  0.0000 -0.0005 -0.0021 -0.0205  0.3828
 
spin component  2
 
  0.2416 -0.0219  0.0006  0.0014  0.0000
 -0.0219  0.2060 -0.0010  0.0002 -0.0005
  0.0006 -0.0010  0.2940  0.0303 -0.0021
  0.0014  0.0002  0.0303  0.4219 -0.0205
  0.0000 -0.0005 -0.0021 -0.0205  0.3828
 
 occupancies and eigenvectors
 
  o =  0.1956  v =  0.0000  0.0000  0.0000  0.0000  0.0000 -0.4302 -0.9027 -0.0082  0.0043 -0.0022      0.0000  0.0000  0.0000  0.0000  0.0000  0.0000  0.0000  0.0000  0.0000  0.0000
  o =  0.1956  v = -0.4302 -0.9027 -0.0082  0.0043 -0.0022  0.0000  0.0000  0.0000  0.0000  0.0000      0.0000  0.0000  0.0000  0.0000  0.0000  0.0000  0.0000  0.0000  0.0000  0.0000
  o =  0.2520  v =  0.9026 -0.4300 -0.0213 -0.0037 -0.0029  0.0000  0.0000  0.0000  0.0000  0.0000      0.0000  0.0000  0.0000  0.0000  0.0000  0.0000  0.0000  0.0000  0.0000  0.0000
  o =  0.2520  v =  0.0000  0.0000  0.0000  0.0000  0.0000  0.9026 -0.4300 -0.0213 -0.0037 -0.0029      0.0000  0.0000  0.0000  0.0000  0.0000  0.0000  0.0000  0.0000  0.0000  0.0000
  o =  0.2871  v =  0.0000  0.0000  0.0000  0.0000  0.0000 -0.0141  0.0166 -0.9742  0.2232  0.0267      0.0000  0.0000  0.0000  0.0000  0.0000  0.0000  0.0000  0.0000  0.0000  0.0000
  o =  0.2871  v = -0.0141  0.0166 -0.9742  0.2232  0.0267  0.0000  0.0000  0.0000  0.0000  0.0000      0.0000  0.0000  0.0000  0.0000  0.0000  0.0000  0.0000  0.0000  0.0000  0.0000
  o =  0.3751  v =  0.0049 -0.0039  0.1038  0.3423  0.9338  0.0000  0.0000  0.0000  0.0000  0.0000      0.0000  0.0000  0.0000  0.0000  0.0000  0.0000  0.0000  0.0000  0.0000  0.0000
  o =  0.3751  v =  0.0000  0.0000  0.0000  0.0000  0.0000  0.0049 -0.0039  0.1038  0.3423  0.9338      0.0000  0.0000  0.0000  0.0000  0.0000  0.0000  0.0000  0.0000  0.0000  0.0000
  o =  0.4365  v =  0.0000  0.0000  0.0000  0.0000  0.0000 -0.0073  0.0000 -0.1992 -0.9127  0.3567      0.0000  0.0000  0.0000  0.0000  0.0000  0.0000  0.0000  0.0000  0.0000  0.0000
  o =  0.4365  v = -0.0073  0.0000 -0.1992 -0.9127  0.3567  0.0000  0.0000  0.0000  0.0000  0.0000      0.0000  0.0000  0.0000  0.0000  0.0000  0.0000  0.0000  0.0000  0.0000  0.0000
     EDDAV:  cpu time   18.8318: real time   18.8383
       DOS:  cpu time    0.0060: real time    0.0060
    --------------------------------------------
      LOOP:  cpu time   20.1552: real time   20.1653

 eigenvalue-minimisations  : 26544
 total energy-change (2. order) : 0.7396160E+03  (-0.3813145E+04)
 number of electron      68.0000013 magnetization       0.0000000
 augmentation part       68.0000013 magnetization       0.0000000

 Free energy of the ion-electron system (eV)
  ---------------------------------------------------
  alpha Z        PSCENC =       277.33243081
  Ewald energy   TEWEN  =     -3775.60510028
  -Hartree energ DENC   =     -2181.95448467
  -exchange      EXHF   =         0.00000000
  -V(xc)+E(xc)   XCENC  =       316.02567881
  PAW double counting   =      7763.07030517    -7768.29969177
  entropy T*S    EENTRO =        -0.00411835
  eigenvalues    EBANDS =      -134.41600886
  atomic energy  EATOM  =      6243.46703749
  Solvation  Ediel_sol  =         0.00000000
  ---------------------------------------------------
  free energy    TOTEN  =       739.61604835 eV

  energy without entropy =      739.62016670  energy(sigma->0) =      739.61810753


--------------------------------------------------------------------------------------------------------




--------------------------------------- Iteration      1(   2)  ---------------------------------------


     EDDAV:  cpu time   19.3794: real time   19.3803
       DOS:  cpu time    0.0054: real time    0.0054
    --------------------------------------------
      LOOP:  cpu time   19.3848: real time   19.3857

 eigenvalue-minimisations  : 27762
 total energy-change (2. order) :-0.7694546E+03  (-0.7456924E+03)
 number of electron      68.0000013 magnetization       0.0000000
 augmentation part       68.0000013 magnetization       0.0000000

 Free energy of the ion-electron system (eV)
  ---------------------------------------------------
  alpha Z        PSCENC =       277.33243081
  Ewald energy   TEWEN  =     -3775.60510028
  -Hartree energ DENC   =     -2181.95448467
  -exchange      EXHF   =         0.00000000
  -V(xc)+E(xc)   XCENC  =       316.02567881
  PAW double counting   =      7763.07030517    -7768.29969177
  entropy T*S    EENTRO =        -0.00479213
  eigenvalues    EBANDS =      -903.86994703
  atomic energy  EATOM  =      6243.46703749
  Solvation  Ediel_sol  =         0.00000000
  ---------------------------------------------------
  free energy    TOTEN  =       -29.83856361 eV

  energy without entropy =      -29.83377147  energy(sigma->0) =      -29.83616754


--------------------------------------------------------------------------------------------------------




--------------------------------------- Iteration      1(   3)  ---------------------------------------


     EDDAV:  cpu time   23.8232: real time   23.8244
       DOS:  cpu time    0.0023: real time    0.0023
    --------------------------------------------
      LOOP:  cpu time   23.8255: real time   23.8268

 eigenvalue-minimisations  : 37752
 total energy-change (2. order) :-0.9337176E+02  (-0.8880543E+02)
 number of electron      68.0000013 magnetization       0.0000000
 augmentation part       68.0000013 magnetization       0.0000000

 Free energy of the ion-electron system (eV)
  ---------------------------------------------------
  alpha Z        PSCENC =       277.33243081
  Ewald energy   TEWEN  =     -3775.60510028
[...]
      3     -40.0850      1.00000
      4     -40.0247      1.00000
      5     -39.9629      1.00000
      6     -39.9423      1.00000
      7     -39.3866      1.00000
      8     -19.7893      1.00000
      9     -19.7766      1.00000
     10     -19.7443      1.00000
     11     -18.9200      1.00000
     12     -17.9390      1.00000
     13     -17.4892      1.00000
     14     -17.2981      1.00000
     15     -17.1885      1.00000
     16     -17.0678      1.00000
     17      -5.6435      1.00000
     18      -4.7217      1.00000
     19      -4.1373      1.00000
     20      -3.7063      1.00000
     21      -3.5726      1.00000
     22      -3.4997      1.00000
     23      -3.3020      1.00000
     24      -3.0941      1.00000
     25      -2.8003      1.00000
     26      -2.5074      1.00000
     27      -2.3612      1.00000
     28      -2.1866      1.00000
     29      -1.9724      1.00000
     30      -1.6792      1.00000
     31      -1.3396      1.00000
     32      -1.2743      1.00000
     33      -0.8589      1.00000
     34      -0.7063      1.00000
     35       2.7779      0.00000
     36       2.8156      0.00000
     37       3.1871      0.00000
     38       3.2621      0.00000
     39       3.8264      0.00000
     40       4.3187      0.00000
     41       4.7684      0.00000
     42       5.1599      0.00000

 k-point   158 :      -0.1111   -0.1429    0.4000
  band No.  band energies     occupation 
      1     -40.1034      1.00000
      2     -40.1002      1.00000
      3     -40.0858      1.00000
      4     -40.0046      1.00000
      5     -39.9631      1.00000
      6     -39.9303      1.00000
      7     -39.3914      1.00000
      8     -19.8824      1.00000
      9     -19.7772      1.00000
     10     -19.5513      1.00000
     11     -19.1275      1.00000
     12     -17.9890      1.00000
     13     -17.6004      1.00000
     14     -17.3625      1.00000
     15     -17.1091      1.00000
     16     -17.0633      1.00000
     17      -5.3570      1.00000
     18      -4.8765      1.00000
     19      -4.0999      1.00000
     20      -3.7464      1.00000
     21      -3.4744      1.00000
     22      -3.3380      1.00000
     23      -3.1160      1.00000
     24      -2.8007      1.00000
     25      -2.7105      1.00000
     26      -2.4840      1.00000
     27      -2.1832      1.00000
     28      -2.0735      1.00000
     29      -1.8814      1.00000
     30      -1.7987      1.00000
     31      -1.6299      1.00000
     32      -1.4423      1.00000
     33      -0.8250      1.00000
     34      -0.8143      1.00000
     35       2.7840      0.00000
     36       2.9133      0.00000
     37       3.3721      0.00000
     38       3.4101      0.00000
     39       3.9417      0.00000
     40       4.2872      0.00000
     41       4.7406      0.00000
     42       4.9939      0.00000


--------------------------------------------------------------------------------------------------------


 soft charge-density along one line, spin component           1
         0         1         2         3         4         5         6         7         8         9
 total charge-density along one line
 
 soft charge-density along one line, spin component           2
         0         1         2         3         4         5         6         7         8         9
 total charge-density along one line
 
 pseudopotential strength for first ion, spin component:           1
-18.507  -6.016   0.000  -0.000  -0.000   0.000   0.000   0.000
 -6.016  -0.753  -0.000  -0.000  -0.000  -0.000   0.000   0.000
  0.000  -0.000 -20.447   0.001  -0.000   7.419  -0.001   0.000
 -0.000  -0.000   0.001 -20.447  -0.006  -0.001   7.420   0.006
 -0.000  -0.000  -0.000  -0.006 -20.463   0.000   0.006   7.436
  0.000  -0.000   7.419  -0.001   0.000   8.241  -0.001   0.001
  0.000   0.000  -0.001   7.420   0.006  -0.001   8.249   0.003
  0.000   0.000   0.000   0.006   7.436   0.001   0.003   8.256
 -0.000   0.000   0.000  -0.000   0.000  -0.000   0.000  -0.000
  0.001  -0.000  -0.000  -0.000  -0.000   0.000  -0.000   0.000
  0.004   0.001  -0.000  -0.000   0.000   0.000   0.000  -0.000
 -0.005   0.001  -0.000  -0.000   0.000   0.000   0.000  -0.000
 -0.007   0.002   0.000   0.000  -0.000  -0.000  -0.000   0.000
 -0.000   0.000   0.000  -0.000   0.000   0.000   0.000  -0.000
  0.001  -0.000  -0.000  -0.000  -0.000   0.000  -0.000   0.000
  0.005   0.001  -0.000  -0.000   0.000   0.000   0.000  -0.000
 -0.007   0.000  -0.000  -0.000   0.000   0.000   0.000  -0.000
 -0.009   0.002   0.000   0.000  -0.000   0.000  -0.000   0.000
 pseudopotential strength for first ion, spin component:           2
-18.507  -6.016   0.000  -0.000  -0.000   0.000   0.000   0.000
 -6.016  -0.753  -0.000  -0.000  -0.000  -0.000   0.000   0.000
  0.000  -0.000 -20.447   0.001  -0.000   7.419  -0.001   0.000
 -0.000  -0.000   0.001 -20.447  -0.006  -0.001   7.420   0.006
 -0.000  -0.000  -0.000  -0.006 -20.463   0.000   0.006   7.436
  0.000  -0.000   7.419  -0.001   0.000   8.241  -0.001   0.001
  0.000   0.000  -0.001   7.420   0.006  -0.001   8.249   0.003
  0.000   0.000   0.000   0.006   7.436   0.001   0.003   8.256
 -0.000   0.000   0.000  -0.000   0.000  -0.000   0.000  -0.000
  0.001  -0.000  -0.000  -0.000  -0.000   0.000  -0.000   0.000
  0.004   0.001  -0.000  -0.000   0.000   0.000   0.000  -0.000
 -0.005   0.001  -0.000  -0.000   0.000   0.000   0.000  -0.000
 -0.007   0.002   0.000   0.000  -0.000  -0.000  -0.000   0.000
 -0.000   0.000   0.000  -0.000   0.000   0.000   0.000  -0.000
  0.001  -0.000  -0.000  -0.000  -0.000   0.000  -0.000   0.000
  0.005   0.001  -0.000  -0.000   0.000   0.000   0.000  -0.000
 -0.007   0.000  -0.000  -0.000   0.000   0.000   0.000  -0.000
 -0.009   0.002   0.000   0.000  -0.000   0.000  -0.000   0.000
 total augmentation occupancy for first ion, spin component:           1
  2.004   0.007  -0.000   0.000   0.000  -0.000   0.000   0.000   0.000  -0.000  -0.001   0.002   0.002   0.000   0.000   0.000
  0.007   0.419  -0.000   0.000   0.000   0.000  -0.000  -0.000  -0.002   0.002   0.009  -0.028  -0.056   0.001  -0.001  -0.006
 -0.000  -0.000   2.007  -0.000  -0.000  -0.004  -0.000   0.000   0.000   0.000   0.000  -0.000   0.000  -0.000  -0.000   0.000
  0.000   0.000  -0.000   2.007  -0.000  -0.000  -0.004   0.001  -0.000  -0.000   0.000   0.000  -0.000   0.000   0.000   0.000
  0.000   0.000  -0.000  -0.000   2.007   0.000   0.001  -0.000  -0.000  -0.000  -0.000   0.000  -0.000  -0.000   0.000   0.000
 -0.000   0.000  -0.004  -0.000   0.000   0.031   0.000  -0.000  -0.000  -0.000  -0.000   0.000  -0.000   0.000   0.000   0.000
  0.000  -0.000  -0.000  -0.004   0.001   0.000   0.029  -0.002   0.000   0.000  -0.000   0.000   0.000  -0.000  -0.000   0.000
  0.000  -0.000   0.000   0.001  -0.000  -0.000  -0.002   0.025   0.000   0.000   0.000  -0.000   0.000  -0.000  -0.000  -0.000
  0.000  -0.002   0.000  -0.000  -0.000  -0.000   0.000   0.000   0.461   0.132   0.001   0.001  -0.001  -0.272  -0.079  -0.000
 -0.000   0.002   0.000  -0.000  -0.000  -0.000   0.000   0.000   0.132   0.167   0.002  -0.002  -0.001  -0.079  -0.094  -0.002
 -0.001   0.009   0.000   0.000  -0.000  -0.000  -0.000   0.000   0.001   0.002   0.427  -0.204   0.084  -0.000  -0.002  -0.253
  0.002  -0.028  -0.000   0.000   0.000   0.000   0.000  -0.000   0.001  -0.002  -0.204   0.231  -0.051  -0.000   0.001   0.122
  0.002  -0.056   0.000  -0.000  -0.000  -0.000   0.000   0.000  -0.001  -0.001   0.084  -0.051   0.129   0.001   0.000  -0.051
  0.000   0.001  -0.000   0.000  -0.000   0.000  -0.000  -0.000  -0.272  -0.079  -0.000  -0.000   0.001   0.162   0.048   0.000
  0.000  -0.001  -0.000   0.000   0.000   0.000  -0.000  -0.000  -0.079  -0.094  -0.002   0.001   0.000   0.048   0.054   0.001
  0.000  -0.006   0.000   0.000   0.000   0.000   0.000  -0.000  -0.000  -0.002  -0.253   0.122  -0.051   0.000   0.001   0.152
  0.000   0.016   0.000   0.000  -0.000  -0.000  -0.000   0.000  -0.000   0.001   0.122  -0.134   0.029   0.000  -0.001  -0.074
  0.000   0.034  -0.000  -0.000   0.000   0.000  -0.000  -0.000   0.001   0.000  -0.051   0.029  -0.075  -0.000  -0.000   0.032
 total augmentation occupancy for first ion, spin component:           2
  0.000   0.000   0.000  -0.000   0.000   0.000  -0.000  -0.000  -0.000   0.000  -0.000   0.000   0.000   0.000  -0.000   0.000
  0.000  -0.000   0.000  -0.000   0.000  -0.000   0.000   0.000  -0.000   0.000  -0.000   0.000   0.000   0.000  -0.000   0.000
  0.000   0.000  -0.000   0.000  -0.000  -0.000   0.000  -0.000   0.000   0.000   0.000  -0.000   0.000  -0.000  -0.000  -0.000
 -0.000  -0.000   0.000  -0.000   0.000   0.000  -0.000   0.000   0.000  -0.000   0.000  -0.000  -0.000  -0.000   0.000  -0.000
  0.000   0.000  -0.000   0.000  -0.000  -0.000   0.000  -0.000   0.000   0.000  -0.000   0.000   0.000  -0.000  -0.000   0.000
  0.000  -0.000  -0.000   0.000  -0.000  -0.000   0.000   0.000  -0.000   0.000   0.000   0.000  -0.000  -0.000  -0.000  -0.000
 -0.000   0.000   0.000  -0.000   0.000   0.000  -0.000  -0.000  -0.000  -0.000   0.000   0.000   0.000   0.000   0.000  -0.000
 -0.000   0.000  -0.000   0.000  -0.000   0.000  -0.000   0.000  -0.000  -0.000   0.000  -0.000   0.000   0.000  -0.000  -0.000
 -0.000  -0.000   0.000   0.000   0.000  -0.000  -0.000  -0.000  -0.000  -0.000  -0.000   0.000  -0.000   0.000   0.000   0.000
  0.000   0.000   0.000  -0.000   0.000   0.000  -0.000  -0.000  -0.000  -0.000   0.000  -0.000  -0.000   0.000   0.000  -0.000
 -0.000  -0.000   0.000   0.000  -0.000   0.000   0.000   0.000  -0.000   0.000  -0.000   0.000  -0.000   0.000  -0.000   0.000
  0.000   0.000  -0.000  -0.000   0.000   0.000   0.000  -0.000   0.000  -0.000   0.000  -0.000   0.000   0.000   0.000  -0.000
  0.000   0.000   0.000  -0.000   0.000  -0.000   0.000   0.000  -0.000  -0.000  -0.000   0.000   0.000   0.000   0.000   0.000
  0.000   0.000  -0.000  -0.000  -0.000  -0.000   0.000   0.000   0.000   0.000   0.000   0.000   0.000  -0.000  -0.000  -0.000
 -0.000  -0.000  -0.000   0.000  -0.000  -0.000   0.000  -0.000   0.000   0.000  -0.000   0.000   0.000  -0.000  -0.000   0.000
  0.000   0.000  -0.000  -0.000   0.000  -0.000  -0.000  -0.000   0.000  -0.000   0.000  -0.000   0.000  -0.000   0.000  -0.000
 -0.000  -0.000   0.000   0.000  -0.000  -0.000  -0.000   0.000  -0.000  -0.000  -0.000   0.000  -0.000   0.000   0.000   0.000
 -0.000  -0.000   0.000   0.000  -0.000   0.000  -0.000  -0.000   0.000   0.000   0.000  -0.000  -0.000  -0.000  -0.000  -0.000


------------------------ aborting loop because EDIFF is reached ----------------------------------------


 


 total charge     
 
# of ion       s       p       d       tot
------------------------------------------
    1        2.022   5.871   0.214   8.107
    2        0.427   6.454   3.047   9.928
    3        0.427   6.454   3.047   9.928
    4        1.604   3.422   0.000   5.026
    5        1.604   3.422   0.000   5.026
    6        1.592   3.469   0.000   5.061
    7        1.592   3.469   0.000   5.061
    8        1.578   3.532   0.000   5.110
    9        1.578   3.532   0.000   5.110
--------------------------------------------------
tot         12.426  39.625   6.308  58.359
 


 magnetization (x)
 
# of ion       s       p       d       tot
------------------------------------------
    1       -0.000  -0.000   0.000  -0.000
    2        0.000   0.000   0.000   0.000
    3        0.000   0.000   0.000   0.000
    4        0.000  -0.000   0.000  -0.000
    5        0.000   0.000   0.000   0.000
    6        0.000   0.000   0.000   0.000
    7        0.000  -0.000   0.000  -0.000
    8       -0.000  -0.000   0.000  -0.000
    9       -0.000  -0.000   0.000  -0.000
--------------------------------------------------
tot          0.000  -0.000   0.000   0.000
 
    CHARGE:  cpu time    0.3654: real time    0.3654
    FORLOC:  cpu time    0.0014: real time    0.0014
    FORNL :  cpu time    2.1752: real time    2.1753
    STRESS:  cpu time   51.3058: real time   51.3076
    FORCOR:  cpu time    0.0520: real time    0.0520
    FORHAR:  cpu time    0.0034: real time    0.0034
    MIXING:  cpu time    0.0008: real time    0.0008
    OFIELD:  cpu time    0.0000: real time    0.0000

  FORCE on cell =-STRESS in cart. coord.  units (eV):
  Direction    XX          YY          ZZ          XY          YZ          ZX
  --------------------------------------------------------------------------------------
  Alpha Z   277.33243   277.33243   277.33243
  Ewald   -1777.78868  -917.63475 -1080.18767    -6.93213     6.20646    79.86364
  Hartree   323.57690  1007.03767   851.36165    -3.96541     2.64582    64.87544
  E(xc)    -366.24671  -366.46341  -365.95362    -0.00072     0.00141    -0.01294
  Local     489.62842 -1048.27215  -735.81424    10.76726    -8.75924  -144.25917
  n-local  -309.07280  -301.31511  -306.45504    -0.01479    -0.01214     1.38032
  augment   152.60510   149.28585   151.41385    -0.01592    -0.02730    -0.66205
  Kinetic  1209.96138  1200.19521  1208.35510     0.15715    -0.04716    -1.20138
  Fock        0.00000     0.00000     0.00000     0.00000     0.00000     0.00000
  -------------------------------------------------------------------------------------
  Total      -0.00396     0.16574     0.05247    -0.00456     0.00785    -0.01612
  in kB      -0.05009     2.09758     0.66407    -0.05775     0.09929    -0.20406
  external pressure =        0.90 kB  Pullay stress =        0.00 kB


 VOLUME and BASIS-vectors are now :
 -----------------------------------------------------------------------------
  energy-cutoff  :      520.00
  volume of cell :      126.59
      direct lattice vectors                 reciprocal lattice vectors
     0.006719086 -3.641912733 -0.005355318    -0.103190211 -0.274773499  0.001449347
    -4.860103164  1.831819893  1.256078042    -0.205360441 -0.000381951  0.002091221
    -0.072672860 -0.010361154 -7.138456102    -0.036057674  0.000138929 -0.139719431

  length of vectors
     3.641922869  5.343584839  7.138833534     0.293514559  0.205371444  0.144297244


 FORCES acting on ions
    electron-ion (+dipol)            ewald-force                    non-local-force                 convergence-correction
 -----------------------------------------------------------------------------------------------
   -.280E-02 0.474E-02 -.186E-01   0.162E-02 -.461E-02 0.181E-01   0.106E-02 -.183E-03 0.643E-03   -.494E-05 0.289E-05 -.352E-04
   -.323E+02 -.317E+00 0.755E+02   0.308E+02 0.310E+00 -.738E+02   0.161E+01 0.339E-01 -.202E+01   -.468E-03 -.359E-04 0.391E-03
   0.322E+02 0.327E+00 -.755E+02   -.307E+02 -.320E+00 0.739E+02   -.162E+01 -.340E-01 0.202E+01   0.422E-03 0.278E-04 -.328E-03
   -.239E+03 0.401E+00 0.833E+02   0.262E+03 -.478E+00 -.898E+02   -.225E+02 0.878E-01 0.652E+01   0.977E-04 -.118E-06 -.116E-03
   0.239E+03 -.406E+00 -.833E+02   -.262E+03 0.483E+00 0.898E+02   0.225E+02 -.888E-01 -.653E+01   -.128E-03 0.119E-05 0.149E-03
   -.131E+03 -.863E+00 -.182E+03   0.142E+03 0.953E+00 0.197E+03   -.112E+02 -.859E-01 -.149E+02   0.194E-03 -.287E-05 0.833E-04
   0.131E+03 0.858E+00 0.182E+03   -.142E+03 -.947E+00 -.197E+03   0.112E+02 0.851E-01 0.149E+02   -.191E-03 0.105E-05 -.910E-04
   -.630E+01 0.212E+01 -.946E+02   0.844E+01 -.248E+01 0.981E+02   -.215E+01 0.381E+00 -.343E+01   0.558E-04 -.196E-05 0.156E-03
   0.633E+01 -.212E+01 0.947E+02   -.847E+01 0.249E+01 -.981E+02   0.215E+01 -.381E+00 0.343E+01   -.634E-04 0.333E-05 -.129E-03
 -----------------------------------------------------------------------------------------------
   0.520E-02 0.202E-02 -.601E-02   -.373E-13 0.488E-14 -.711E-13   -.471E-02 -.244E-02 0.567E-02   -.864E-04 -.456E-05 0.801E-04
 
 
 POSITION                                       TOTAL-FORCE (eV/Angst)
 -----------------------------------------------------------------------------------
     -4.85337     -1.81008      1.25069        -0.000167      0.000003      0.000099
     -2.30974      0.00954     -4.19410         0.003287      0.010374     -0.008545
     -2.61634     -1.83001     -1.69364        -0.002194     -0.010276      0.011293
     -0.85379      0.00316     -4.94835         0.006606      0.011347      0.006631
     -4.07224     -1.82358     -0.93940        -0.005977     -0.011402     -0.007215
     -1.39803     -1.82387     -0.52147         0.021269      0.004195     -0.000629
     -3.52789      0.00341     -5.36633        -0.022796     -0.004456     -0.000834
     -2.44046     -0.00339     -2.21270        -0.016132      0.017468      0.012573
     -2.48576     -1.81708     -3.67492         0.016104     -0.017251     -0.013372
 -----------------------------------------------------------------------------------
    total drift:                                0.000403     -0.000424     -0.000255


--------------------------------------------------------------------------------------------------------



  FREE ENERGIE OF THE ION-ELECTRON SYSTEM (eV)
  ---------------------------------------------------
  free  energy   TOTEN  =      -104.93018382 eV

  energy  without entropy=     -104.93018382  energy(sigma->0) =     -104.93018382
 


--------------------------------------------------------------------------------------------------------


    POTLOK:  cpu time    1.3102: real time    1.3103


--------------------------------------------------------------------------------------------------------




--------------------------------------------------------------------------------------------------------


  
 reached required accuracy - stopping structural energy minimisation
     LOOP+:  cpu time  500.2165: real time  500.2544
    4ORBIT:  cpu time    0.0000: real time    0.0000
 


 total charge     
 
# of ion       s       p       d       tot
------------------------------------------
    1        2.022   5.871   0.214   8.107
    2        0.427   6.454   3.047   9.928
    3        0.427   6.454   3.047   9.928
    4        1.604   3.422   0.000   5.026
    5        1.604   3.422   0.000   5.026
    6        1.592   3.469   0.000   5.061
    7        1.592   3.469   0.000   5.061
    8        1.578   3.532   0.000   5.110
    9        1.578   3.532   0.000   5.110
--------------------------------------------------
tot         12.426  39.625   6.308  58.359
 


 magnetization (x)
 
# of ion       s       p       d       tot
------------------------------------------
    1       -0.000  -0.000   0.000  -0.000
    2        0.000   0.000   0.000   0.000
    3        0.000   0.000   0.000   0.000
    4        0.000  -0.000   0.000  -0.000
    5        0.000   0.000   0.000   0.000
    6        0.000   0.000   0.000   0.000
    7        0.000  -0.000   0.000  -0.000
    8       -0.000  -0.000   0.000  -0.000
    9       -0.000  -0.000   0.000  -0.000
--------------------------------------------------
tot          0.000  -0.000   0.000   0.000
 

 total amount of memory used by VASP MPI-rank0    70867. kBytes
=======================================================================

   base      :      30000. kBytes
   nonlr-proj:       2486. kBytes
   fftplans  :       1299. kBytes
   grid      :       4924. kBytes
   one-center:         93. kBytes
   wavefun   :      32065. kBytes
 
  
  
 General timing and accounting informations for this job:
 ========================================================
  
                  Total CPU time used (sec):      507.110
                            User time (sec):      504.922
                          System time (sec):        2.188
                         Elapsed time (sec):      507.525
  
                   Maximum memory used (kb):      102556.
                   Average memory used (kb):           0.
  
                          Minor page faults:        33071
                          Major page faults:           14
                 Voluntary context switches:          422
