       N       E                     dE             d eps       ncg     rms          ort
DAV:   1     0.265661745354E+04    0.26566E+04   -0.14523E+05  6048   0.161E+03
DAV:   2    -0.151489695730E+03   -0.28081E+04   -0.26282E+04  6048   0.429E+02
DAV:   3    -0.455964704658E+03   -0.30448E+03   -0.30034E+03  6048   0.158E+02
DAV:   4    -0.466513694358E+03   -0.10549E+02   -0.10347E+02  6048   0.276E+01
DAV:   5    -0.467131485368E+03   -0.61779E+00   -0.61564E+00  6048   0.519E+00
SDA:   6    -0.303766362993E+03    0.16337E+03   -0.61564E+00  6048   0.402E+03 0.000E+00
CGA:   7    -0.353930963760E+03   -0.50165E+02   -0.54624E+02  6048   0.518E+02 0.106E+02
CGA:   8    -0.362835204427E+03   -0.89042E+01   -0.88950E+01  6048   0.131E+02 0.679E-01
CGA:   9    -0.365687643883E+03   -0.28524E+01   -0.28513E+01  6048   0.548E+01 0.412E-01
CGA:  10    -0.366783928300E+03   -0.10963E+01   -0.10962E+01  6048   0.216E+01-0.134E-01
CGA:  11    -0.367282172629E+03   -0.49824E+00   -0.49967E+00  6048   0.777E+00-0.451E-01
CGA:  12    -0.367458013133E+03   -0.17584E+00   -0.17653E+00  6048   0.279E+00-0.211E-01
CGA:  13    -0.367524315008E+03   -0.66302E-01   -0.66066E-01  6048   0.804E-01 0.514E-02
CGA:  14    -0.367544791714E+03   -0.20477E-01   -0.20229E-01  6048   0.256E-01 0.547E-02
CGA:  15    -0.367553723007E+03   -0.89313E-02   -0.92019E-02  6048   0.118E-01-0.207E-02
CGA:  16    -0.367557119237E+03   -0.33962E-02   -0.34959E-02  6048   0.502E-02-0.912E-03
CGA:  17    -0.367558648905E+03   -0.15297E-02   -0.16043E-02  6048   0.206E-02-0.581E-03
CGA:  18    -0.367559257966E+03   -0.60906E-03   -0.61812E-03  6048   0.777E-03-0.795E-04
CGA:  19    -0.367559448528E+03   -0.19056E-03   -0.18639E-03  6048   0.273E-03 0.200E-03
CGA:  20    -0.367559550205E+03   -0.10168E-03   -0.99208E-04  6048   0.113E-03 0.417E-04
CGA:  21    -0.367559604231E+03   -0.54026E-04   -0.65190E-04  6048   0.883E-04-0.420E-04
CGA:  22    -0.367559600805E+03    0.34259E-05   -0.38641E-05  6048   0.680E-04 0.413E-04
   1 F= -.36755960E+03 E0= -.36755960E+03  d E =-.367560E+03  mag=    20.0000
       N       E                     dE             d eps       ncg     rms          ort
SDA:   1    -0.367584210887E+03   -0.24607E-01    0.00000E+00  6048   0.790E-02 0.000E+00
CGA:   2    -0.367585937700E+03   -0.17268E-02   -0.17305E-02  6048   0.198E-02 0.366E-03
CGA:   3    -0.367586422548E+03   -0.48485E-03   -0.48459E-03  6048   0.821E-03 0.455E-04
CGA:   4    -0.367586569634E+03   -0.14709E-03   -0.14396E-03  6048   0.230E-03-0.547E-04
CGA:   5    -0.367586614377E+03   -0.44744E-04   -0.44123E-04  6048   0.831E-04-0.303E-04
CGA:   6    -0.367586622826E+03   -0.84490E-05   -0.10065E-04  6048   0.239E-04 0.189E-04
   2 F= -.36758662E+03 E0= -.36758662E+03  d E =-.270220E-01  mag=    20.0000
       N       E                     dE             d eps       ncg     rms          ort
SDA:   1    -0.362615119330E+03    0.49715E+01    0.00000E+00  6048   0.186E+02 0.000E+00
CGA:   2    -0.366933688371E+03   -0.43186E+01   -0.43176E+01  6048   0.492E+01 0.321E-01
CGA:   3    -0.368097920631E+03   -0.11642E+01   -0.11646E+01  6048   0.184E+01-0.247E-01
CGA:   4    -0.368398848582E+03   -0.30093E+00   -0.30055E+00  6048   0.436E+00-0.817E-02
CGA:   5    -0.368485943036E+03   -0.87094E-01   -0.87099E-01  6048   0.129E+00 0.188E-03
CGA:   6    -0.368513817773E+03   -0.27875E-01   -0.27874E-01  6048   0.555E-01 0.137E-02
CGA:   7    -0.368529168425E+03   -0.15351E-01   -0.15342E-01  6048   0.266E-01 0.124E-03
CGA:   8    -0.368537004171E+03   -0.78357E-02   -0.78756E-02  6048   0.127E-01-0.516E-03
CGA:   9    -0.368540481245E+03   -0.34771E-02   -0.34681E-02  6048   0.445E-02 0.159E-03
CGA:  10    -0.368541869316E+03   -0.13881E-02   -0.13855E-02  6048   0.169E-02 0.283E-04
CGA:  11    -0.368542436251E+03   -0.56693E-03   -0.56934E-03  6048   0.766E-03-0.239E-04
CGA:  12    -0.368542677270E+03   -0.24102E-03   -0.23317E-03  6048   0.286E-03 0.106E-03
CGA:  13    -0.368542806701E+03   -0.12943E-03   -0.14426E-03  6048   0.177E-03-0.724E-04
CGA:  14    -0.368542846642E+03   -0.39941E-04   -0.40095E-04  6048   0.621E-04-0.280E-05
CGA:  15    -0.368542854516E+03   -0.78740E-05   -0.10010E-04  6048   0.242E-04 0.244E-04
   3 F= -.36854285E+03 E0= -.36854285E+03  d E =-.956232E+00  mag=    20.0000
       N       E                     dE             d eps       ncg     rms          ort
SDA:   1    -0.361121654075E+03    0.74212E+01    0.00000E+00  6048   0.262E+02 0.000E+00
CGA:   2    -0.366904549173E+03   -0.57829E+01   -0.57861E+01  6048   0.656E+01 0.617E-01
CGA:   3    -0.368451216496E+03   -0.15467E+01   -0.15466E+01  6048   0.251E+01-0.245E-01
CGA:   4    -0.368864637776E+03   -0.41342E+00   -0.41307E+00  6048   0.597E+00-0.761E-02
CGA:   5    -0.368983560318E+03   -0.11892E+00   -0.11893E+00  6048   0.179E+00 0.170E-03
CGA:   6    -0.369022178986E+03   -0.38619E-01   -0.38655E-01  6048   0.779E-01 0.199E-02
CGA:   7    -0.369044032522E+03   -0.21854E-01   -0.21826E-01  6048   0.395E-01 0.598E-03
CGA:   8    -0.369056046159E+03   -0.12014E-01   -0.12055E-01  6048   0.195E-01-0.626E-03
CGA:   9    -0.369061479564E+03   -0.54334E-02   -0.54282E-02  6048   0.688E-02 0.117E-03
CGA:  10    -0.369063555451E+03   -0.20759E-02   -0.20658E-02  6048   0.247E-02 0.175E-03
CGA:  11    -0.369064362721E+03   -0.80727E-03   -0.80025E-03  6048   0.103E-02 0.970E-04
CGA:  12    -0.369064713261E+03   -0.35054E-03   -0.34050E-03  6048   0.406E-03 0.141E-03
CGA:  13    -0.369064901333E+03   -0.18807E-03   -0.20580E-03  6048   0.238E-03-0.914E-04
CGA:  14    -0.369064964505E+03   -0.63172E-04   -0.66538E-04  6048   0.853E-04-0.338E-04
CGA:  15    -0.369064976074E+03   -0.11568E-04   -0.13708E-04  6048   0.333E-04 0.272E-04
CGA:  16    -0.369064981989E+03   -0.59151E-05   -0.74129E-05  6048   0.122E-04 0.160E-04
   4 F= -.36906498E+03 E0= -.36906498E+03  d E =-.522127E+00  mag=    20.0000
       N       E                     dE             d eps       ncg     rms          ort
SDA:   1    -0.365423539698E+03    0.36414E+01    0.00000E+00  6048   0.125E+02 0.000E+00
CGA:   2    -0.368120487347E+03   -0.26969E+01   -0.26991E+01  6048   0.343E+01 0.190E-01
CGA:   3    -0.368881099998E+03   -0.76061E+00   -0.76052E+00  6048   0.140E+01-0.405E-02
CGA:   4    -0.369113885916E+03   -0.23279E+00   -0.23271E+00  6048   0.310E+00-0.195E-02
CGA:   5    -0.369175065492E+03   -0.61180E-01   -0.61160E-01  6048   0.957E-01-0.517E-03
CGA:   6    -0.369195227201E+03   -0.20162E-01   -0.20176E-01  6048   0.394E-01 0.389E-03
CGA:   7    -0.369206304713E+03   -0.11078E-01   -0.11070E-01  6048   0.209E-01 0.227E-03
CGA:   8    -0.369212685395E+03   -0.63807E-02   -0.63920E-02  6048   0.107E-01-0.215E-03
CGA:   9    -0.369215758600E+03   -0.30732E-02   -0.30695E-02  6048   0.388E-02 0.943E-04
CGA:  10    -0.369216907012E+03   -0.11484E-02   -0.11435E-02  6048   0.134E-02 0.125E-03
CGA:  11    -0.369217348436E+03   -0.44142E-03   -0.44317E-03  6048   0.554E-03-0.262E-04
CGA:  12    -0.369217521676E+03   -0.17324E-03   -0.17023E-03  6048   0.210E-03 0.547E-04
CGA:  13    -0.369217606009E+03   -0.84333E-04   -0.84905E-04  6048   0.864E-04-0.540E-05
CGA:  14    -0.369217637982E+03   -0.31973E-04   -0.45804E-04  6048   0.740E-04-0.499E-04
CGA:  15    -0.369217646794E+03   -0.88125E-05   -0.12028E-04  6048   0.134E-04 0.273E-04
   5 F= -.36921765E+03 E0= -.36921765E+03  d E =-.152665E+00  mag=    20.0000
       N       E                     dE             d eps       ncg     rms          ort
SDA:   1    -0.363429708807E+03    0.57879E+01    0.00000E+00  6048   0.170E+02 0.000E+00
CGA:   2    -0.367443533786E+03   -0.40138E+01   -0.40154E+01  6048   0.641E+01 0.174E-01
CGA:   3    -0.368716526462E+03   -0.12730E+01   -0.12731E+01  6048   0.228E+01-0.366E-02
CGA:   4    -0.369095762118E+03   -0.37924E+00   -0.37923E+00  6048   0.456E+00-0.146E-02
CGA:   5    -0.369182736988E+03   -0.86975E-01   -0.86961E-01  6048   0.141E+00-0.496E-03
CGA:   6    -0.369211781900E+03   -0.29045E-01   -0.29047E-01  6048   0.515E-01-0.380E-05
CGA:   7    -0.369225422761E+03   -0.13641E-01   -0.13641E-01  6048   0.251E-01-0.258E-04
CGA:   8    -0.369232827882E+03   -0.74051E-02   -0.74155E-02  6048   0.128E-01-0.264E-03
CGA:   9    -0.369236672637E+03   -0.38448E-02   -0.38471E-02  6048   0.516E-02-0.556E-04
CGA:  10    -0.369238217922E+03   -0.15453E-02   -0.15430E-02  6048   0.190E-02 0.516E-04
CGA:  11    -0.369238839852E+03   -0.62193E-03   -0.62769E-03  6048   0.817E-03-0.869E-04
CGA:  12    -0.369239109740E+03   -0.26989E-03   -0.27010E-03  6048   0.353E-03-0.277E-05
CGA:  13    -0.369239235181E+03   -0.12544E-03   -0.12530E-03  6048   0.133E-03 0.144E-05
CGA:  14    -0.369239281589E+03   -0.46408E-04   -0.46453E-04  6048   0.423E-04-0.652E-06
CGA:  15    -0.369239292912E+03   -0.11323E-04   -0.11374E-04  6048   0.117E-04 0.853E-05
CGA:  16    -0.369239288753E+03    0.41588E-05   -0.13814E-04  6048   0.628E-04-0.255E-04
CGA:  17    -0.369239301272E+03   -0.12518E-04   -0.13809E-04  6048   0.593E-05 0.141E-04
CGA:  18    -0.369239254947E+03    0.46324E-04   -0.24949E-04  6048   0.178E-03-0.373E-04
CGA:  19    -0.369239293572E+03   -0.38625E-04   -0.48203E-04  6048   0.133E-04 0.331E-04
CGA:  20    -0.369239323534E+03   -0.29962E-04    0.58430E-05  6048   0.112E-04-0.103E-04
CGA:  21    -0.369239319391E+03    0.41434E-05   -0.46776E-06  6048   0.733E-05 0.917E-05
   6 F= -.36923932E+03 E0= -.36923932E+03  d E =-.216726E-01  mag=    20.0000
       N       E                     dE             d eps       ncg     rms          ort
SDA:   1    -0.367099501092E+03    0.21398E+01    0.00000E+00  6048   0.571E+01 0.000E+00
CGA:   2    -0.368651429848E+03   -0.15519E+01   -0.15540E+01  6048   0.284E+01 0.320E-02
CGA:   3    -0.369141095036E+03   -0.48967E+00   -0.48973E+00  6048   0.764E+00 0.694E-03
CGA:   4    -0.369271651418E+03   -0.13056E+00   -0.13023E+00  6048   0.161E+00-0.122E-02
CGA:   5    -0.369301419212E+03   -0.29768E-01   -0.29703E-01  6048   0.474E-01-0.303E-03
CGA:   6    -0.369311003682E+03   -0.95845E-02   -0.96050E-02  6048   0.154E-01 0.660E-04
CGA:   7    -0.369314736403E+03   -0.37327E-02   -0.37489E-02  6048   0.618E-02 0.801E-04
CGA:   8    -0.369316454166E+03   -0.17178E-02   -0.17094E-02  6048   0.273E-02-0.598E-04
CGA:   9    -0.369317296220E+03   -0.84205E-03   -0.83444E-03  6048   0.110E-02-0.742E-04
CGA:  10    -0.369317609304E+03   -0.31308E-03   -0.31434E-03  6048   0.397E-03 0.105E-04
CGA:  11    -0.369317739175E+03   -0.12987E-03   -0.12873E-03  6048   0.167E-03-0.145E-04
CGA:  12    -0.369317804856E+03   -0.65681E-04   -0.65944E-04  6048   0.102E-03-0.226E-04
CGA:  13    -0.369317834936E+03   -0.30080E-04   -0.30375E-04  6048   0.427E-04 0.547E-05
CGA:  14    -0.369317851734E+03   -0.16798E-04   -0.16744E-04  6048   0.183E-04-0.237E-05
CGA:  15    -0.369317858890E+03   -0.71563E-05   -0.72801E-05  6048   0.850E-05-0.456E-05
   7 F= -.36931786E+03 E0= -.36931786E+03  d E =-.785395E-01  mag=    20.0000
       N       E                     dE             d eps       ncg     rms          ort
SDA:   1    -0.367533287896E+03    0.17846E+01    0.00000E+00  6048   0.485E+01 0.000E+00
CGA:   2    -0.368820171938E+03   -0.12869E+01   -0.12881E+01  6048   0.226E+01 0.471E-02
CGA:   3    -0.369212709194E+03   -0.39254E+00   -0.39268E+00  6048   0.616E+00-0.426E-03
CGA:   4    -0.369317924842E+03   -0.10522E+00   -0.10502E+00  6048   0.129E+00-0.122E-02
CGA:   5    -0.369341645098E+03   -0.23720E-01   -0.23651E-01  6048   0.369E-01-0.412E-03
CGA:   6    -0.369348993106E+03   -0.73480E-02   -0.73439E-02  6048   0.114E-01-0.352E-04
CGA:   7    -0.369351711915E+03   -0.27188E-02   -0.27291E-02  6048   0.454E-02 0.849E-04
CGA:   8    -0.369352977085E+03   -0.12652E-02   -0.12689E-02  6048   0.210E-02 0.508E-04
CGA:   9    -0.369353648439E+03   -0.67135E-03   -0.67110E-03  6048   0.912E-03-0.951E-05
CGA:  10    -0.369353928776E+03   -0.28034E-03   -0.28000E-03  6048   0.355E-03-0.101E-04
CGA:  11    -0.369354043577E+03   -0.11480E-03   -0.11455E-03  6048   0.154E-03-0.169E-04
CGA:  12    -0.369354097411E+03   -0.53834E-04   -0.53984E-04  6048   0.775E-04-0.525E-05
CGA:  13    -0.369354119969E+03   -0.22558E-04   -0.23061E-04  6048   0.298E-04 0.149E-04
CGA:  14    -0.369354130038E+03   -0.10069E-04   -0.10430E-04  6048   0.112E-04 0.775E-05
CGA:  15    -0.369354135278E+03   -0.52403E-05   -0.52287E-05  6048   0.489E-05 0.341E-06
   8 F= -.36935414E+03 E0= -.36935414E+03  d E =-.362764E-01  mag=    20.0000
       N       E                     dE             d eps       ncg     rms          ort
SDA:   1    -0.365709373947E+03    0.36448E+01    0.00000E+00  6048   0.956E+01 0.000E+00
CGA:   2    -0.368353401950E+03   -0.26440E+01   -0.26450E+01  6048   0.431E+01 0.722E-02
CGA:   3    -0.369117338133E+03   -0.76394E+00   -0.76435E+00  6048   0.118E+01 0.362E-03
CGA:   4    -0.369313444796E+03   -0.19611E+00   -0.19595E+00  6048   0.232E+00-0.153E-02
CGA:   5    -0.369356337206E+03   -0.42892E-01   -0.42829E-01  6048   0.675E-01-0.565E-03
CGA:   6    -0.369369761676E+03   -0.13424E-01   -0.13428E-01  6048   0.210E-01 0.971E-05
CGA:   7    -0.369374825757E+03   -0.50641E-02   -0.50768E-02  6048   0.870E-02 0.186E-03
CGA:   8    -0.369377336198E+03   -0.25104E-02   -0.25122E-02  6048   0.433E-02 0.985E-04
CGA:   9    -0.369378740574E+03   -0.14044E-02   -0.14046E-02  6048   0.195E-02-0.151E-04
CGA:  10    -0.369379342521E+03   -0.60195E-03   -0.60208E-03  6048   0.755E-03-0.200E-04
CGA:  11    -0.369379580713E+03   -0.23819E-03   -0.23858E-03  6048   0.316E-03-0.241E-04
CGA:  12    -0.369379691717E+03   -0.11100E-03   -0.11133E-03  6048   0.158E-03-0.562E-05
CGA:  13    -0.369379747068E+03   -0.55351E-04   -0.54690E-04  6048   0.660E-04 0.147E-04
CGA:  14    -0.369379772770E+03   -0.25702E-04   -0.25490E-04  6048   0.241E-04 0.473E-05
CGA:  15    -0.369379783100E+03   -0.10330E-04   -0.10895E-04  6048   0.108E-04-0.512E-05
CGA:  16    -0.369379786215E+03   -0.31157E-05   -0.31715E-05  6048   0.354E-05-0.101E-05
   9 F= -.36937979E+03 E0= -.36937979E+03  d E =-.256509E-01  mag=    20.0000
       N       E                     dE             d eps       ncg     rms          ort
SDA:   1    -0.363071290245E+03    0.63085E+01    0.00000E+00  6048   0.157E+02 0.000E+00
CGA:   2    -0.367777835818E+03   -0.47065E+01   -0.47071E+01  6048   0.643E+01 0.141E-01
CGA:   3    -0.368935635342E+03   -0.11578E+01   -0.11583E+01  6048   0.178E+01-0.371E-03
CGA:   4    -0.369224818438E+03   -0.28918E+00   -0.28913E+00  6048   0.357E+00-0.153E-02
CGA:   5    -0.369294980493E+03   -0.70162E-01   -0.70107E-01  6048   0.110E+00-0.664E-03
CGA:   6    -0.369316799526E+03   -0.21819E-01   -0.21825E-01  6048   0.353E-01-0.245E-05
CGA:   7    -0.369325501234E+03   -0.87017E-02   -0.87158E-02  6048   0.147E-01 0.302E-03
CGA:   8    -0.369329694401E+03   -0.41932E-02   -0.41935E-02  6048   0.703E-02 0.551E-04
CGA:   9    -0.369331865138E+03   -0.21707E-02   -0.21726E-02  6048   0.285E-02-0.984E-04
CGA:  10    -0.369332733893E+03   -0.86876E-03   -0.87020E-03  6048   0.108E-02-0.726E-04
CGA:  11    -0.369333087158E+03   -0.35327E-03   -0.35907E-03  6048   0.519E-03-0.113E-03
CGA:  12    -0.369333255706E+03   -0.16855E-03   -0.16955E-03  6048   0.255E-03-0.142E-04
CGA:  13    -0.369333347924E+03   -0.92218E-04   -0.91587E-04  6048   0.114E-03 0.847E-05
CGA:  14    -0.369333393695E+03   -0.45770E-04   -0.46367E-04  6048   0.473E-04-0.640E-05
CGA:  15    -0.369333408390E+03   -0.14695E-04   -0.14658E-04  6048   0.136E-04 0.157E-05
CGA:  16    -0.369333323346E+03    0.85044E-04   -0.45802E-04  6048   0.349E-03-0.676E-04
CGA:  17    -0.369333397024E+03   -0.73679E-04   -0.86647E-04  6048   0.270E-04 0.417E-04
CGA:  18    -0.369332748078E+03    0.64895E-03   -0.35258E-03  6048   0.225E-02-0.252E-03
CGA:  19    -0.369333194148E+03   -0.44607E-03   -0.61417E-03  6048   0.313E-03 0.233E-03
CGA:  20    -0.369333479267E+03   -0.28512E-03   -0.17022E-03  6048   0.302E-03-0.249E-03
CGA:  21    -0.369333429568E+03    0.49700E-04   -0.39628E-04  6048   0.514E-04 0.111E-03
CGA:  22    -0.369333408964E+03    0.20604E-04   -0.70850E-05  6048   0.188E-04 0.350E-04
CGA:  23    -0.369333418463E+03   -0.94988E-05   -0.89215E-05  6048   0.221E-05-0.154E-05
  10 F= -.36933342E+03 E0= -.36933342E+03  d E =0.463678E-01  mag=    20.0000
       N       E                     dE             d eps       ncg     rms          ort
SDA:   1    -0.368247897051E+03    0.10855E+01    0.00000E+00  6048   0.290E+01 0.000E+00
CGA:   2    -0.369090293347E+03   -0.84240E+00   -0.84309E+00  6048   0.130E+01 0.362E-02
CGA:   3    -0.369317756340E+03   -0.22746E+00   -0.22760E+00  6048   0.376E+00 0.295E-02
CGA:   4    -0.369383350252E+03   -0.65594E-01   -0.65462E-01  6048   0.850E-01-0.303E-03
CGA:   5    -0.369399791878E+03   -0.16442E-01   -0.16408E-01  6048   0.268E-01-0.872E-04
CGA:   6    -0.369405250040E+03   -0.54582E-02   -0.54838E-02  6048   0.923E-02 0.529E-04
CGA:   7    -0.369407564299E+03   -0.23143E-02   -0.23389E-02  6048   0.382E-02 0.567E-04
CGA:   8    -0.369408560017E+03   -0.99572E-03   -0.10037E-02  6048   0.153E-02 0.194E-04
CGA:   9    -0.369409003298E+03   -0.44328E-03   -0.44524E-03  6048   0.526E-03 0.552E-05
CGA:  10    -0.369409160508E+03   -0.15721E-03   -0.15391E-03  6048   0.184E-03-0.105E-04
CGA:  11    -0.369409212481E+03   -0.51973E-04   -0.52046E-04  6048   0.616E-04 0.202E-06
CGA:  12    -0.369409228568E+03   -0.16087E-04   -0.18419E-04  6048   0.241E-04 0.834E-05
CGA:  13    -0.369409239442E+03   -0.10873E-04   -0.10851E-04  6048   0.155E-04-0.149E-06
CGA:  14    -0.369409243539E+03   -0.40968E-05   -0.48107E-05  6048   0.665E-05 0.293E-05
  11 F= -.36940924E+03 E0= -.36940924E+03  d E =-.758251E-01  mag=    20.0000
       N       E                     dE             d eps       ncg     rms          ort
SDA:   1    -0.369241704791E+03    0.16753E+00    0.00000E+00  6048   0.477E+00 0.000E+00
CGA:   2    -0.369368186630E+03   -0.12648E+00   -0.12646E+00  6048   0.238E+00-0.274E-03
CGA:   3    -0.369408339094E+03   -0.40152E-01   -0.40349E-01  6048   0.626E-01 0.450E-03
CGA:   4    -0.369419223969E+03   -0.10885E-01   -0.10933E-01  6048   0.140E-01 0.120E-03
CGA:   5    -0.369421771559E+03   -0.25476E-02   -0.25466E-02  6048   0.390E-02-0.839E-05
CGA:   6    -0.369422557656E+03   -0.78610E-03   -0.78620E-03  6048   0.123E-02-0.599E-06
CGA:   7    -0.369422846317E+03   -0.28866E-03   -0.29324E-03  6048   0.479E-03 0.207E-04
CGA:   8    -0.369422966403E+03   -0.12009E-03   -0.12533E-03  6048   0.190E-03 0.281E-04
CGA:   9    -0.369423024500E+03   -0.58098E-04   -0.59639E-04  6048   0.755E-04 0.111E-04
CGA:  10    -0.369423051021E+03   -0.26521E-04   -0.25974E-04  6048   0.337E-04-0.540E-05
CGA:  11    -0.369423058179E+03   -0.71579E-05   -0.78996E-05  6048   0.110E-04 0.437E-05
  12 F= -.36942306E+03 E0= -.36942306E+03  d E =-.138146E-01  mag=    20.0000
       N       E                     dE             d eps       ncg     rms          ort
SDA:   1    -0.369000229865E+03    0.42282E+00    0.00000E+00  6048   0.111E+01 0.000E+00
CGA:   2    -0.369302638183E+03   -0.30241E+00   -0.30264E+00  6048   0.603E+00 0.118E-02
CGA:   3    -0.369399897449E+03   -0.97259E-01   -0.97601E-01  6048   0.136E+00 0.121E-02
CGA:   4    -0.369423617891E+03   -0.23720E-01   -0.23713E-01  6048   0.309E-01-0.900E-04
CGA:   5    -0.369429154483E+03   -0.55366E-02   -0.55012E-02  6048   0.816E-02-0.192E-03
CGA:   6    -0.369430769430E+03   -0.16149E-02   -0.16107E-02  6048   0.242E-02-0.277E-04
CGA:   7    -0.369431289797E+03   -0.52037E-03   -0.53218E-03  6048   0.814E-03 0.855E-04
CGA:   8    -0.369431489560E+03   -0.19976E-03   -0.20848E-03  6048   0.313E-03 0.842E-04
CGA:   9    -0.369431590071E+03   -0.10051E-03   -0.10188E-03  6048   0.132E-03 0.271E-04
CGA:  10    -0.369431639020E+03   -0.48949E-04   -0.48929E-04  6048   0.655E-04-0.163E-04
CGA:  11    -0.369431654270E+03   -0.15250E-04   -0.15280E-04  6048   0.211E-04 0.374E-06
CGA:  12    -0.369431658995E+03   -0.47256E-05   -0.51327E-05  6048   0.763E-05 0.418E-05
  13 F= -.36943166E+03 E0= -.36943166E+03  d E =-.860082E-02  mag=    20.0000
       N       E                     dE             d eps       ncg     rms          ort
SDA:   1    -0.365535428594E+03    0.38962E+01    0.00000E+00  6048   0.977E+01 0.000E+00
CGA:   2    -0.368353116470E+03   -0.28177E+01   -0.28183E+01  6048   0.509E+01 0.528E-02
CGA:   3    -0.369161653960E+03   -0.80854E+00   -0.80970E+00  6048   0.114E+01 0.732E-02
CGA:   4    -0.369360784949E+03   -0.19913E+00   -0.19907E+00  6048   0.257E+00-0.622E-03
CGA:   5    -0.369406660812E+03   -0.45876E-01   -0.45836E-01  6048   0.695E-01-0.421E-03
CGA:   6    -0.369420317370E+03   -0.13657E-01   -0.13684E-01  6048   0.202E-01 0.216E-03
CGA:   7    -0.369424900574E+03   -0.45832E-02   -0.46094E-02  6048   0.712E-02 0.326E-03
CGA:   8    -0.369426810847E+03   -0.19103E-02   -0.19187E-02  6048   0.300E-02 0.226E-03
CGA:   9    -0.369427751238E+03   -0.94039E-03   -0.94021E-03  6048   0.122E-02 0.508E-04
CGA:  10    -0.369428137555E+03   -0.38632E-03   -0.38710E-03  6048   0.468E-03-0.656E-04
CGA:  11    -0.369428258829E+03   -0.12127E-03   -0.12154E-03  6048   0.141E-03 0.989E-05
CGA:  12    -0.369428302120E+03   -0.43291E-04   -0.43287E-04  6048   0.546E-04 0.114E-04
CGA:  13    -0.369428324046E+03   -0.21926E-04   -0.42445E-04  6048   0.123E-03-0.490E-04
CGA:  14    -0.369428347766E+03   -0.23720E-04   -0.25675E-04  6048   0.141E-04 0.174E-04
CGA:  15    -0.369428250812E+03    0.96954E-04   -0.52220E-04  6048   0.386E-03-0.747E-04
CGA:  16    -0.369428341151E+03   -0.90338E-04   -0.10369E-03  6048   0.364E-04 0.435E-04
CGA:  17    -0.369428362297E+03   -0.21147E-04   -0.28367E-04  6048   0.851E-04-0.516E-04
CGA:  18    -0.369428359023E+03    0.32745E-05   -0.11672E-04  6048   0.169E-04 0.348E-04
  14 F= -.36942836E+03 E0= -.36942836E+03  d E =0.329997E-02  mag=    20.0000
       N       E                     dE             d eps       ncg     rms          ort
SDA:   1    -0.335586103948E+03    0.33842E+02    0.00000E+00  6048   0.735E+02 0.000E+00
CGA:   2    -0.358531653090E+03   -0.22946E+02   -0.23362E+02  6048   0.248E+02 0.611E-01
CGA:   3    -0.363974933098E+03   -0.54433E+01   -0.55118E+01  6048   0.768E+01 0.248E+00
CGA:   4    -0.365257786824E+03   -0.12829E+01   -0.12932E+01  6048   0.227E+01 0.555E-01
CGA:   5    -0.365740903967E+03   -0.48312E+00   -0.48497E+00  6048   0.732E+00 0.266E-02
CGA:   6    -0.365901444157E+03   -0.16054E+00   -0.16098E+00  6048   0.324E+00 0.656E-03
CGA:   7    -0.365981135210E+03   -0.79691E-01   -0.79607E-01  6048   0.120E+00-0.835E-03
CGA:   8    -0.366012345218E+03   -0.31210E-01   -0.31182E-01  6048   0.469E-01-0.204E-03
CGA:   9    -0.366024698552E+03   -0.12353E-01   -0.12455E-01  6048   0.147E-01 0.581E-03
CGA:  10    -0.366028973834E+03   -0.42753E-02   -0.42607E-02  6048   0.467E-02-0.109E-03
CGA:  11    -0.366030359574E+03   -0.13857E-02   -0.13649E-02  6048   0.155E-02-0.165E-03
CGA:  12    -0.366030793319E+03   -0.43374E-03   -0.43803E-03  6048   0.530E-03 0.351E-04
CGA:  13    -0.366031021262E+03   -0.22794E-03   -0.22964E-03  6048   0.329E-03-0.114E-03
CGA:  14    -0.366031078249E+03   -0.56987E-04   -0.66432E-04  6048   0.135E-03 0.622E-04
CGA:  15    -0.366031110753E+03   -0.32504E-04   -0.37631E-04  6048   0.518E-04 0.307E-04
CGA:  16    -0.366031140069E+03   -0.29316E-04   -0.35476E-04  6048   0.742E-04-0.375E-04
CGA:  17    -0.366031138809E+03    0.12594E-05   -0.94934E-05  6048   0.228E-04 0.393E-04
  15 F= -.36603114E+03 E0= -.36603114E+03  d E =0.339722E+01  mag=    20.0000
       N       E                     dE             d eps       ncg     rms          ort
SDA:   1    -0.357117558041E+03    0.89136E+01    0.00000E+00  6048   0.281E+02 0.000E+00
CGA:   2    -0.366276194247E+03   -0.91586E+01   -0.91473E+01  6048   0.835E+01-0.163E+00
CGA:   3    -0.368282020936E+03   -0.20058E+01   -0.20204E+01  6048   0.171E+01-0.492E-03
CGA:   4    -0.368647293943E+03   -0.36527E+00   -0.36515E+00  6048   0.690E+00 0.106E-02
CGA:   5    -0.368774794753E+03   -0.12750E+00   -0.12756E+00  6048   0.205E+00 0.155E-02
CGA:   6    -0.368826791789E+03   -0.51997E-01   -0.52023E-01  6048   0.101E+00 0.108E-03
CGA:   7    -0.368849946169E+03   -0.23154E-01   -0.23105E-01  6048   0.365E-01-0.621E-03
CGA:   8    -0.368859803899E+03   -0.98577E-02   -0.98509E-02  6048   0.138E-01-0.120E-03
CGA:   9    -0.368863231085E+03   -0.34272E-02   -0.34591E-02  6048   0.413E-02 0.358E-03
CGA:  10    -0.368864501586E+03   -0.12705E-02   -0.12610E-02  6048   0.138E-02-0.248E-03
CGA:  11    -0.368864900377E+03   -0.39879E-03   -0.39641E-03  6048   0.500E-03-0.807E-04
CGA:  12    -0.368864996204E+03   -0.95826E-04   -0.10814E-03  6048   0.164E-03 0.119E-03
CGA:  13    -0.368865067519E+03   -0.71315E-04   -0.71769E-04  6048   0.109E-03-0.176E-04
CGA:  14    -0.368865133229E+03   -0.65711E-04    0.71037E-03  6048   0.613E-04-0.280E-05
CGA:  15    -0.368865144280E+03   -0.11051E-04   -0.12968E-04  6048   0.293E-04 0.171E-04
CGA:  16    -0.368865145688E+03   -0.14076E-05   -0.50851E-05  6048   0.147E-04 0.195E-04
CGA:  17    -0.368865155165E+03   -0.94770E-05    0.81712E-04  6048   0.474E-05 0.422E-05
  16 F= -.36886516E+03 E0= -.36886516E+03  d E =-.283402E+01  mag=    20.0000
       N       E                     dE             d eps       ncg     rms          ort
SDA:   1    -0.367308207506E+03    0.15569E+01    0.00000E+00  6048   0.466E+01 0.000E+00
CGA:   2    -0.368823840433E+03   -0.15156E+01   -0.15156E+01  6048   0.147E+01 0.523E-03
CGA:   3    -0.369178357969E+03   -0.35452E+00   -0.35462E+00  6048   0.343E+00 0.682E-03
CGA:   4    -0.369242984274E+03   -0.64626E-01   -0.64611E-01  6048   0.123E+00-0.257E-03
CGA:   5    -0.369266557773E+03   -0.23573E-01   -0.23589E-01  6048   0.342E-01 0.132E-03
CGA:   6    -0.369274940468E+03   -0.83827E-02   -0.83920E-02  6048   0.168E-01 0.201E-03
CGA:   7    -0.369278843875E+03   -0.39034E-02   -0.39036E-02  6048   0.602E-02-0.206E-06
CGA:   8    -0.369280544796E+03   -0.17009E-02   -0.17008E-02  6048   0.242E-02-0.472E-04
CGA:   9    -0.369281150015E+03   -0.60522E-03   -0.60770E-03  6048   0.731E-03 0.776E-04
CGA:  10    -0.369281375048E+03   -0.22503E-03   -0.22567E-03  6048   0.238E-03-0.407E-04
CGA:  11    -0.369281448474E+03   -0.73426E-04   -0.75417E-04  6048   0.986E-04-0.392E-04
CGA:  12    -0.369281461637E+03   -0.13163E-04   -0.15797E-04  6048   0.343E-04 0.278E-04
CGA:  13    -0.369281470733E+03   -0.90960E-05   -0.95994E-05  6048   0.157E-04 0.789E-05
  17 F= -.36928147E+03 E0= -.36928147E+03  d E =-.416316E+00  mag=    20.0000
       N       E                     dE             d eps       ncg     rms          ort
SDA:   1    -0.368422084157E+03    0.85938E+00    0.00000E+00  6048   0.231E+01 0.000E+00
CGA:   2    -0.369165901019E+03   -0.74382E+00   -0.74338E+00  6048   0.740E+00 0.701E-02
CGA:   3    -0.369346309293E+03   -0.18041E+00   -0.18046E+00  6048   0.171E+00 0.111E-02
CGA:   4    -0.369378688243E+03   -0.32379E-01   -0.32356E-01  6048   0.608E-01-0.333E-03
CGA:   5    -0.369390252369E+03   -0.11564E-01   -0.11554E-01  6048   0.168E-01-0.155E-03
CGA:   6    -0.369394358085E+03   -0.41057E-02   -0.41057E-02  6048   0.813E-02-0.719E-05
CGA:   7    -0.369396250381E+03   -0.18923E-02   -0.18935E-02  6048   0.294E-02 0.300E-04
CGA:   8    -0.369397068805E+03   -0.81842E-03   -0.81807E-03  6048   0.114E-02 0.345E-04
CGA:   9    -0.369397372205E+03   -0.30340E-03   -0.30345E-03  6048   0.361E-03 0.951E-05
CGA:  10    -0.369397483408E+03   -0.11120E-03   -0.11301E-03  6048   0.122E-03-0.422E-04
CGA:  11    -0.369397517285E+03   -0.33877E-04   -0.34962E-04  6048   0.453E-04-0.194E-04
CGA:  12    -0.369397526818E+03   -0.95331E-05   -0.96371E-05  6048   0.145E-04 0.535E-05
  18 F= -.36939753E+03 E0= -.36939753E+03  d E =-.116056E+00  mag=    20.0000
       N       E                     dE             d eps       ncg     rms          ort
SDA:   1    -0.369325259031E+03    0.72258E-01    0.00000E+00  6048   0.262E+00 0.000E+00
CGA:   2    -0.369409631615E+03   -0.84373E-01   -0.84329E-01  6048   0.803E-01 0.117E-02
CGA:   3    -0.369429355303E+03   -0.19724E-01   -0.19741E-01  6048   0.207E-01 0.390E-03
CGA:   4    -0.369432982745E+03   -0.36274E-02   -0.36193E-02  6048   0.684E-02-0.842E-04
CGA:   5    -0.369434342447E+03   -0.13597E-02   -0.13443E-02  6048   0.208E-02-0.183E-03
CGA:   6    -0.369434844401E+03   -0.50195E-03   -0.49771E-03  6048   0.105E-02-0.134E-03
CGA:   7    -0.369435064637E+03   -0.22024E-03   -0.22116E-03  6048   0.329E-03 0.177E-04
CGA:   8    -0.369435142884E+03   -0.78246E-04   -0.80025E-04  6048   0.114E-03 0.514E-04
CGA:   9    -0.369435181169E+03   -0.38285E-04   -0.38463E-04  6048   0.512E-04-0.932E-05
CGA:  10    -0.369435196217E+03   -0.15048E-04   -0.15902E-04  6048   0.233E-04-0.131E-04
CGA:  11    -0.369435199327E+03   -0.31096E-05   -0.95143E-05  6048   0.408E-04-0.235E-04
  19 F= -.36943520E+03 E0= -.36943520E+03  d E =-.376725E-01  mag=    20.0000
       N       E                     dE             d eps       ncg     rms          ort
SDA:   1    -0.369205434506E+03    0.22976E+00    0.00000E+00  6048   0.599E+00 0.000E+00
CGA:   2    -0.369396242016E+03   -0.19081E+00   -0.19069E+00  6048   0.188E+00 0.271E-02
CGA:   3    -0.369441540826E+03   -0.45299E-01   -0.45333E-01  6048   0.533E-01 0.741E-03
CGA:   4    -0.369450463821E+03   -0.89230E-02   -0.89125E-02  6048   0.160E-01-0.132E-03
CGA:   5    -0.369453702296E+03   -0.32385E-02   -0.32134E-02  6048   0.502E-02-0.334E-03
CGA:   6    -0.369454843068E+03   -0.11408E-02   -0.11307E-02  6048   0.248E-02-0.228E-03
CGA:   7    -0.369455386097E+03   -0.54303E-03   -0.54402E-03  6048   0.800E-03 0.227E-04
CGA:   8    -0.369455580396E+03   -0.19430E-03   -0.19707E-03  6048   0.280E-03 0.105E-03
CGA:   9    -0.369455669546E+03   -0.89150E-04   -0.89253E-04  6048   0.112E-03-0.842E-05
CGA:  10    -0.369455704902E+03   -0.35355E-04   -0.37827E-04  6048   0.572E-04-0.311E-04
CGA:  11    -0.369455717525E+03   -0.12624E-04   -0.14386E-04  6048   0.309E-04-0.236E-04
CGA:  12    -0.369455692441E+03    0.25084E-04   -0.19023E-04  6048   0.192E-03-0.571E-04
CGA:  13    -0.369455720365E+03   -0.27924E-04   -0.33103E-04  6048   0.212E-04 0.359E-04
CGA:  14    -0.369455723355E+03   -0.29903E-05   -0.44488E-05  6048   0.817E-05 0.110E-04
  20 F= -.36945572E+03 E0= -.36945572E+03  d E =-.205240E-01  mag=    20.0000
       N       E                     dE             d eps       ncg     rms          ort
SDA:   1    -0.369452109840E+03    0.36105E-02    0.00000E+00  6048   0.123E-01 0.000E+00
CGA:   2    -0.369455765187E+03   -0.36553E-02   -0.36555E-02  6048   0.465E-02 0.113E-03
CGA:   3    -0.369456576753E+03   -0.81157E-03   -0.83449E-03  6048   0.149E-02 0.186E-03
CGA:   4    -0.369456851506E+03   -0.27475E-03   -0.27491E-03  6048   0.346E-03 0.754E-06
CGA:   5    -0.369456940231E+03   -0.88725E-04   -0.83886E-04  6048   0.216E-03-0.108E-03
CGA:   6    -0.369456978278E+03   -0.38047E-04   -0.34490E-04  6048   0.106E-03-0.668E-04
CGA:   7    -0.369456985218E+03   -0.69395E-05   -0.10139E-04  6048   0.380E-04 0.221E-04
  21 F= -.36945699E+03 E0= -.36945699E+03  d E =-.126186E-02  mag=    20.0000
       N       E                     dE             d eps       ncg     rms          ort
SDA:   1    -0.368726587871E+03    0.73039E+00    0.00000E+00  6048   0.183E+01 0.000E+00
CGA:   2    -0.369249338804E+03   -0.52275E+00   -0.52268E+00  6048   0.874E+00 0.211E-02
CGA:   3    -0.369395027144E+03   -0.14569E+00   -0.14603E+00  6048   0.236E+00 0.279E-02
CGA:   4    -0.369436713956E+03   -0.41687E-01   -0.41726E-01  6048   0.537E-01 0.416E-03
CGA:   5    -0.369446561562E+03   -0.98476E-02   -0.97881E-02  6048   0.158E-01-0.817E-03
CGA:   6    -0.369449909060E+03   -0.33475E-02   -0.33233E-02  6048   0.571E-02-0.609E-03
CGA:   7    -0.369451150312E+03   -0.12413E-02   -0.12455E-02  6048   0.202E-02 0.168E-03
CGA:   8    -0.369451633821E+03   -0.48351E-03   -0.48827E-03  6048   0.711E-03 0.298E-03
CGA:   9    -0.369451882196E+03   -0.24837E-03   -0.24733E-03  6048   0.311E-03 0.194E-04
CGA:  10    -0.369451989680E+03   -0.10748E-03   -0.13222E-03  6048   0.271E-03-0.153E-03
CGA:  11    -0.369452021349E+03   -0.31669E-04   -0.30280E-04  6048   0.117E-03-0.343E-04
CGA:  12    -0.369452037747E+03   -0.16398E-04   -0.17528E-04  6048   0.541E-04 0.129E-04
CGA:  13    -0.369452048183E+03   -0.10436E-04   -0.11299E-04  6048   0.277E-04 0.131E-04
CGA:  14    -0.369452054659E+03   -0.64755E-05   -0.68854E-05  6048   0.155E-04 0.804E-05
  22 F= -.36945205E+03 E0= -.36945205E+03  d E =0.493056E-02  mag=    20.0000
       N       E                     dE             d eps       ncg     rms          ort
SDA:   1    -0.369341134848E+03    0.11091E+00    0.00000E+00  6048   0.305E+00 0.000E+00
CGA:   2    -0.369426947048E+03   -0.85812E-01   -0.85828E-01  6048   0.130E+00-0.482E-03
CGA:   3    -0.369449936375E+03   -0.22989E-01   -0.22906E-01  6048   0.442E-01-0.129E-02
CGA:   4    -0.369458103243E+03   -0.81669E-02   -0.81515E-02  6048   0.995E-02-0.292E-03
CGA:   5    -0.369459730294E+03   -0.16271E-02   -0.16687E-02  6048   0.261E-02 0.581E-03
CGA:   6    -0.369460242723E+03   -0.51243E-03   -0.53288E-03  6048   0.881E-03 0.467E-03
CGA:   7    -0.369460521127E+03   -0.27840E-03   -0.27752E-03  6048   0.441E-03 0.268E-04
CGA:   8    -0.369460661801E+03   -0.14067E-03   -0.19992E-03  6048   0.555E-03-0.291E-03
CGA:   9    -0.369460726160E+03   -0.64359E-04   -0.76276E-04  6048   0.743E-04 0.109E-03
CGA:  10    -0.369460734502E+03   -0.83416E-05   -0.12572E-04  6048   0.292E-04 0.425E-04
  23 F= -.36946073E+03 E0= -.36946073E+03  d E =-.867984E-02  mag=    20.0000
       N       E                     dE             d eps       ncg     rms          ort
SDA:   1    -0.369442866306E+03    0.17860E-01    0.00000E+00  6048   0.483E-01 0.000E+00
CGA:   2    -0.369457116359E+03   -0.14250E-01   -0.14248E-01  6048   0.202E-01 0.294E-04
CGA:   3    -0.369460615475E+03   -0.34991E-02   -0.34845E-02  6048   0.679E-02-0.220E-03
CGA:   4    -0.369461783260E+03   -0.11678E-02   -0.11624E-02  6048   0.144E-02-0.839E-04
CGA:   5    -0.369462001098E+03   -0.21784E-03   -0.23002E-03  6048   0.354E-03 0.163E-03
CGA:   6    -0.369462053852E+03   -0.52754E-04   -0.62386E-04  6048   0.118E-03 0.130E-03
CGA:   7    -0.369462083967E+03   -0.30115E-04   -0.31510E-04  6048   0.570E-04 0.425E-04
CGA:   8    -0.369462091388E+03   -0.74206E-05   -0.50821E-04  6048   0.231E-03-0.102E-03
CGA:   9    -0.369462115461E+03   -0.24074E-04   -0.30570E-04  6048   0.361E-04 0.559E-04
CGA:  10    -0.369462120021E+03   -0.45599E-05   -0.64213E-05  6048   0.127E-04 0.187E-04
CGA:  11    -0.369462081669E+03    0.38352E-04   -0.20946E-04  6048   0.275E-03-0.457E-04
CGA:  12    -0.369462113737E+03   -0.32067E-04   -0.41806E-04  6048   0.228E-04 0.344E-04
CGA:  13    -0.369462123215E+03   -0.94783E-05   -0.92927E-05  6048   0.921E-05-0.324E-05
CGA:  14    -0.369462130481E+03   -0.72659E-05    0.15971E-04  6048   0.771E-05-0.815E-05
  24 F= -.36946213E+03 E0= -.36946213E+03  d E =-.139598E-02  mag=    20.0000
       N       E                     dE             d eps       ncg     rms          ort
SDA:   1    -0.369293086522E+03    0.16904E+00    0.00000E+00  6048   0.416E+00 0.000E+00
CGA:   2    -0.369425005800E+03   -0.13192E+00   -0.13194E+00  6048   0.175E+00 0.174E-03
CGA:   3    -0.369453751340E+03   -0.28746E-01   -0.28833E-01  6048   0.466E-01 0.295E-03
CGA:   4    -0.369461382043E+03   -0.76307E-02   -0.76262E-02  6048   0.965E-02-0.322E-04
CGA:   5    -0.369463125926E+03   -0.17439E-02   -0.17629E-02  6048   0.275E-02 0.966E-04
CGA:   6    -0.369463633407E+03   -0.50748E-03   -0.52912E-03  6048   0.790E-03 0.124E-03
CGA:   7    -0.369463832323E+03   -0.19892E-03   -0.20010E-03  6048   0.317E-03 0.102E-04
CGA:   8    -0.369463930987E+03   -0.98664E-04   -0.97547E-04  6048   0.173E-03-0.244E-04
CGA:   9    -0.369463968179E+03   -0.37192E-04   -0.39407E-04  6048   0.562E-04 0.220E-04
CGA:  10    -0.369463979425E+03   -0.11246E-04   -0.13424E-04  6048   0.186E-04 0.167E-04
CGA:  11    -0.369463985285E+03   -0.58600E-05   -0.61368E-05  6048   0.735E-05 0.342E-05
  25 F= -.36946399E+03 E0= -.36946399E+03  d E =-.185480E-02  mag=    20.0000
       N       E                     dE             d eps       ncg     rms          ort
SDA:   1    -0.366708643150E+03    0.27553E+01    0.00000E+00  6048   0.658E+01 0.000E+00
CGA:   2    -0.368864944493E+03   -0.21563E+01   -0.21563E+01  6048   0.262E+01-0.195E-02
CGA:   3    -0.369295496346E+03   -0.43055E+00   -0.43092E+00  6048   0.700E+00 0.237E-02
CGA:   4    -0.369409667275E+03   -0.11417E+00   -0.11420E+00  6048   0.144E+00 0.548E-04
CGA:   5    -0.369436588813E+03   -0.26922E-01   -0.26985E-01  6048   0.418E-01 0.447E-03
CGA:   6    -0.369444707728E+03   -0.81189E-02   -0.81808E-02  6048   0.124E-01 0.517E-03
CGA:   7    -0.369447693187E+03   -0.29855E-02   -0.29865E-02  6048   0.479E-02 0.108E-04
CGA:   8    -0.369449054271E+03   -0.13611E-02   -0.13591E-02  6048   0.228E-02-0.107E-03
CGA:   9    -0.369449685078E+03   -0.63081E-03   -0.63258E-03  6048   0.805E-03 0.977E-04
CGA:  10    -0.369449916001E+03   -0.23092E-03   -0.23228E-03  6048   0.251E-03 0.566E-04
CGA:  11    -0.369450000006E+03   -0.84005E-04   -0.84143E-04  6048   0.997E-04-0.104E-04
CGA:  12    -0.369450030808E+03   -0.30802E-04   -0.30730E-04  6048   0.431E-04 0.328E-05
CGA:  13    -0.369450043587E+03   -0.12779E-04   -0.35646E-04  6048   0.118E-03-0.458E-04
CGA:  14    -0.369450069945E+03   -0.26358E-04   -0.27131E-04  6048   0.109E-04 0.799E-05
CGA:  15    -0.369450074689E+03   -0.47442E-05   -0.72946E-05  6048   0.144E-04-0.833E-05
  26 F= -.36945007E+03 E0= -.36945007E+03  d E =0.139106E-01  mag=    20.0000
       N       E                     dE             d eps       ncg     rms          ort
SDA:   1    -0.361084475422E+03    0.83656E+01    0.00000E+00  6048   0.198E+02 0.000E+00
CGA:   2    -0.367808251515E+03   -0.67238E+01   -0.67236E+01  6048   0.739E+01 0.415E-02
CGA:   3    -0.369024572435E+03   -0.12163E+01   -0.12175E+01  6048   0.191E+01 0.903E-02
CGA:   4    -0.369334478377E+03   -0.30991E+00   -0.30997E+00  6048   0.401E+00 0.505E-03
CGA:   5    -0.369410937268E+03   -0.76459E-01   -0.76454E-01  6048   0.117E+00-0.108E-03
CGA:   6    -0.369433531049E+03   -0.22594E-01   -0.22650E-01  6048   0.342E-01 0.454E-03
CGA:   7    -0.369441683767E+03   -0.81527E-02   -0.81618E-02  6048   0.133E-01 0.133E-03
CGA:   8    -0.369445429933E+03   -0.37462E-02   -0.37456E-02  6048   0.620E-02-0.407E-04
CGA:   9    -0.369447265625E+03   -0.18357E-02   -0.18356E-02  6048   0.235E-02 0.931E-04
CGA:  10    -0.369447974289E+03   -0.70866E-03   -0.70870E-03  6048   0.770E-03-0.264E-04
CGA:  11    -0.369448216177E+03   -0.24189E-03   -0.24366E-03  6048   0.302E-03-0.731E-04
CGA:  12    -0.369448303603E+03   -0.87427E-04   -0.87270E-04  6048   0.125E-03 0.713E-05
CGA:  13    -0.369448361176E+03   -0.57573E-04   -0.65738E-04  6048   0.116E-03-0.381E-04
CGA:  14    -0.369448392299E+03   -0.31123E-04   -0.32613E-04  6048   0.613E-04-0.156E-04
CGA:  15    -0.369448407120E+03   -0.14821E-04   -0.14855E-04  6048   0.213E-04 0.952E-06
CGA:  16    -0.369448415071E+03   -0.79510E-05   -0.84871E-05  6048   0.112E-04-0.668E-05
  27 F= -.36944842E+03 E0= -.36944842E+03  d E =0.165962E-02  mag=    20.0000
       N       E                     dE             d eps       ncg     rms          ort
SDA:   1    -0.366145726205E+03    0.33027E+01    0.00000E+00  6048   0.797E+01 0.000E+00
CGA:   2    -0.368646129956E+03   -0.25004E+01   -0.25001E+01  6048   0.258E+01 0.267E-01
CGA:   3    -0.369195990297E+03   -0.54986E+00   -0.55024E+00  6048   0.939E+00 0.338E-02
CGA:   4    -0.369346326721E+03   -0.15034E+00   -0.15049E+00  6048   0.200E+00-0.211E-03
CGA:   5    -0.369387399181E+03   -0.41072E-01   -0.40889E-01  6048   0.693E-01-0.221E-02
CGA:   6    -0.369402595738E+03   -0.15197E-01   -0.15114E-01  6048   0.292E-01-0.121E-02
CGA:   7    -0.369409517990E+03   -0.69223E-02   -0.69436E-02  6048   0.110E-01 0.450E-03
CGA:   8    -0.369412357377E+03   -0.28394E-02   -0.28584E-02  6048   0.418E-02 0.626E-03
CGA:   9    -0.369413599134E+03   -0.12418E-02   -0.12416E-02  6048   0.138E-02-0.501E-04
CGA:  10    -0.369414041994E+03   -0.44286E-03   -0.45634E-03  6048   0.579E-03-0.268E-03
CGA:  11    -0.369414186851E+03   -0.14486E-03   -0.14870E-03  6048   0.230E-03-0.121E-03
CGA:  12    -0.369414238591E+03   -0.51740E-04   -0.51759E-04  6048   0.779E-04 0.443E-05
CGA:  13    -0.369414250329E+03   -0.11738E-04   -0.15131E-04  6048   0.330E-04 0.347E-04
CGA:  14    -0.369414252638E+03   -0.23090E-05   -0.63932E-05  6048   0.172E-04 0.273E-04
  28 F= -.36941425E+03 E0= -.36941425E+03  d E =0.341624E-01  mag=    20.0000
       N       E                     dE             d eps       ncg     rms          ort
SDA:   1    -0.366551580494E+03    0.28627E+01    0.00000E+00  6048   0.696E+01 0.000E+00
CGA:   2    -0.368891558049E+03   -0.23400E+01   -0.23409E+01  6048   0.229E+01-0.134E-01
CGA:   3    -0.369331095226E+03   -0.43954E+00   -0.43953E+00  6048   0.661E+00-0.218E-02
CGA:   4    -0.369435327318E+03   -0.10423E+00   -0.10441E+00  6048   0.144E+00 0.147E-02
CGA:   5    -0.369463914171E+03   -0.28587E-01   -0.28693E-01  6048   0.428E-01 0.163E-02
CGA:   6    -0.369472745153E+03   -0.88310E-02   -0.88596E-02  6048   0.153E-01 0.497E-03
CGA:   7    -0.369476661138E+03   -0.39160E-02   -0.39146E-02  6048   0.630E-02-0.301E-03
CGA:   8    -0.369478443139E+03   -0.17820E-02   -0.17935E-02  6048   0.304E-02-0.353E-03
CGA:   9    -0.369479199514E+03   -0.75637E-03   -0.75608E-03  6048   0.914E-03 0.715E-04
CGA:  10    -0.369479427794E+03   -0.22828E-03   -0.23008E-03  6048   0.254E-03 0.134E-03
CGA:  11    -0.369479502688E+03   -0.74894E-04   -0.74944E-04  6048   0.892E-04 0.404E-04
CGA:  12    -0.369479537244E+03   -0.34556E-04   -0.33973E-04  6048   0.453E-04 0.831E-05
CGA:  13    -0.369479556870E+03   -0.19626E-04   -0.33324E-04  6048   0.788E-04-0.334E-04
CGA:  14    -0.369479582755E+03   -0.25885E-04   -0.27788E-04  6048   0.309E-04-0.272E-04
CGA:  15    -0.369479587284E+03   -0.45283E-05   -0.48274E-05  6048   0.842E-05 0.633E-05
  29 F= -.36947959E+03 E0= -.36947959E+03  d E =-.653346E-01  mag=    20.0000
       N       E                     dE             d eps       ncg     rms          ort
SDA:   1    -0.369438225744E+03    0.41357E-01    0.00000E+00  6048   0.113E+00 0.000E+00
CGA:   2    -0.369467281347E+03   -0.29056E-01   -0.29073E-01  6048   0.600E-01 0.600E-03
CGA:   3    -0.369477321792E+03   -0.10040E-01   -0.10054E-01  6048   0.156E-01 0.799E-04
CGA:   4    -0.369480072599E+03   -0.27508E-02   -0.27377E-02  6048   0.366E-02-0.136E-03
CGA:   5    -0.369480729027E+03   -0.65643E-03   -0.64683E-03  6048   0.100E-02-0.106E-03
CGA:   6    -0.369480931028E+03   -0.20200E-03   -0.19978E-03  6048   0.326E-03-0.371E-04
CGA:   7    -0.369480995657E+03   -0.64629E-04   -0.65867E-04  6048   0.102E-03 0.234E-04
CGA:   8    -0.369481019413E+03   -0.23756E-04   -0.24492E-04  6048   0.361E-04 0.202E-04
CGA:   9    -0.369481032987E+03   -0.13574E-04   -0.13543E-04  6048   0.189E-04 0.546E-06
CGA:  10    -0.369481039232E+03   -0.62450E-05   -0.86409E-05  6048   0.222E-04-0.127E-04
  30 F= -.36948104E+03 E0= -.36948104E+03  d E =-.145195E-02  mag=    20.0000
       N       E                     dE             d eps       ncg     rms          ort
SDA:   1    -0.369175670351E+03    0.30536E+00    0.00000E+00  6048   0.730E+00 0.000E+00
CGA:   2    -0.369414131983E+03   -0.23846E+00   -0.23836E+00  6048   0.330E+00 0.141E-02
CGA:   3    -0.369465925782E+03   -0.51794E-01   -0.51855E-01  6048   0.735E-01 0.343E-03
CGA:   4    -0.369478235149E+03   -0.12309E-01   -0.12287E-01  6048   0.157E-01-0.257E-03
CGA:   5    -0.369481211663E+03   -0.29765E-02   -0.29680E-02  6048   0.459E-02-0.130E-03
CGA:   6    -0.369482076617E+03   -0.86495E-03   -0.86771E-03  6048   0.124E-02 0.415E-04
CGA:   7    -0.369482355765E+03   -0.27915E-03   -0.28080E-03  6048   0.451E-03 0.615E-04
CGA:   8    -0.369482484341E+03   -0.12858E-03   -0.12808E-03  6048   0.207E-03 0.243E-04
CGA:   9    -0.369482552156E+03   -0.67815E-04   -0.67251E-04  6048   0.905E-04 0.972E-05
CGA:  10    -0.369482583043E+03   -0.30886E-04   -0.31606E-04  6048   0.394E-04-0.906E-05
CGA:  11    -0.369482594546E+03   -0.11503E-04   -0.12192E-04  6048   0.185E-04-0.803E-05
CGA:  12    -0.369482597671E+03   -0.31255E-05   -0.32831E-05  6048   0.698E-05 0.398E-05
  31 F= -.36948260E+03 E0= -.36948260E+03  d E =-.155844E-02  mag=    20.0000
       N       E                     dE             d eps       ncg     rms          ort
SDA:   1    -0.355928291586E+03    0.13554E+02    0.00000E+00  6048   0.325E+02 0.000E+00
CGA:   2    -0.366226907050E+03   -0.10299E+02   -0.10297E+02  6048   0.157E+02 0.185E-01
CGA:   3    -0.368671328290E+03   -0.24444E+01   -0.24469E+01  6048   0.342E+01 0.136E-01
CGA:   4    -0.369244221350E+03   -0.57289E+00   -0.57282E+00  6048   0.736E+00-0.241E-02
CGA:   5    -0.369381718285E+03   -0.13750E+00   -0.13746E+00  6048   0.219E+00-0.894E-03
CGA:   6    -0.369424152692E+03   -0.42434E-01   -0.42467E-01  6048   0.615E-01 0.488E-03
CGA:   7    -0.369438511286E+03   -0.14359E-01   -0.14365E-01  6048   0.236E-01 0.427E-03
CGA:   8    -0.369445057429E+03   -0.65461E-02   -0.65412E-02  6048   0.107E-01 0.166E-03
CGA:   9    -0.369448379283E+03   -0.33219E-02   -0.33185E-02  6048   0.439E-02 0.553E-04
CGA:  10    -0.369449724659E+03   -0.13454E-02   -0.13544E-02  6048   0.157E-02-0.163E-03
CGA:  11    -0.369450177218E+03   -0.45256E-03   -0.45536E-03  6048   0.560E-03-0.588E-04
CGA:  12    -0.369450352399E+03   -0.17518E-03   -0.17341E-03  6048   0.242E-03 0.267E-04
CGA:  13    -0.369450463319E+03   -0.11092E-03   -0.11596E-03  6048   0.173E-03-0.256E-04
CGA:  14    -0.369450519126E+03   -0.55808E-04   -0.54685E-04  6048   0.722E-04 0.133E-04
CGA:  15    -0.369450541992E+03   -0.22866E-04   -0.22690E-04  6048   0.223E-04 0.957E-05
CGA:  16    -0.369450549455E+03   -0.74625E-05   -0.16679E-04  6048   0.374E-04-0.240E-04
  32 F= -.36945055E+03 E0= -.36945055E+03  d E =0.320482E-01  mag=    20.0000
       N       E                     dE             d eps       ncg     rms          ort
SDA:   1    -0.368350893317E+03    0.10996E+01    0.00000E+00  6048   0.269E+01 0.000E+00
CGA:   2    -0.369230432090E+03   -0.87954E+00   -0.87938E+00  6048   0.100E+01 0.230E-02
CGA:   3    -0.369411754072E+03   -0.18132E+00   -0.18140E+00  6048   0.295E+00-0.822E-04
CGA:   4    -0.369459729557E+03   -0.47975E-01   -0.48002E-01  6048   0.628E-01 0.163E-03
CGA:   5    -0.369472175349E+03   -0.12446E-01   -0.12411E-01  6048   0.198E-01-0.450E-03
CGA:   6    -0.369476249115E+03   -0.40738E-02   -0.40472E-02  6048   0.708E-02-0.396E-03
CGA:   7    -0.369477934044E+03   -0.16849E-02   -0.16850E-02  6048   0.269E-02-0.618E-06
CGA:   8    -0.369478618939E+03   -0.68489E-03   -0.68686E-03  6048   0.108E-02 0.136E-03
CGA:   9    -0.369478966202E+03   -0.34726E-03   -0.34879E-03  6048   0.421E-03-0.400E-04
CGA:  10    -0.369479099005E+03   -0.13280E-03   -0.13887E-03  6048   0.188E-03-0.842E-04
CGA:  11    -0.369479141524E+03   -0.42519E-04   -0.42739E-04  6048   0.618E-04-0.209E-04
CGA:  12    -0.369479160226E+03   -0.18701E-04   -0.19527E-04  6048   0.297E-04-0.102E-04
CGA:  13    -0.369479165224E+03   -0.49983E-05   -0.55098E-05  6048   0.123E-04 0.904E-05
  33 F= -.36947917E+03 E0= -.36947917E+03  d E =-.286158E-01  mag=    20.0000
       N       E                     dE             d eps       ncg     rms          ort
SDA:   1    -0.368340484391E+03    0.11387E+01    0.00000E+00  6048   0.280E+01 0.000E+00
CGA:   2    -0.369190721269E+03   -0.85024E+00   -0.85028E+00  6048   0.140E+01-0.223E-02
CGA:   3    -0.369411550210E+03   -0.22083E+00   -0.22081E+00  6048   0.325E+00-0.118E-02
CGA:   4    -0.369466654502E+03   -0.55104E-01   -0.55129E-01  6048   0.710E-01 0.150E-03
CGA:   5    -0.369479584282E+03   -0.12930E-01   -0.12993E-01  6048   0.207E-01 0.786E-03
CGA:   6    -0.369483664936E+03   -0.40807E-02   -0.41087E-02  6048   0.608E-02 0.455E-03
CGA:   7    -0.369485187751E+03   -0.15228E-02   -0.15219E-02  6048   0.252E-02-0.949E-04
CGA:   8    -0.369485896637E+03   -0.70889E-03   -0.71536E-03  6048   0.123E-02-0.190E-03
CGA:   9    -0.369486222536E+03   -0.32590E-03   -0.32622E-03  6048   0.433E-03-0.103E-04
CGA:  10    -0.369486324375E+03   -0.10184E-03   -0.10304E-03  6048   0.124E-03 0.686E-04
CGA:  11    -0.369486356204E+03   -0.31829E-04   -0.32779E-04  6048   0.424E-04 0.341E-04
CGA:  12    -0.369486373700E+03   -0.17495E-04   -0.17256E-04  6048   0.238E-04 0.374E-05
CGA:  13    -0.369486384154E+03   -0.10455E-04   -0.15701E-04  6048   0.343E-04-0.151E-04
CGA:  14    -0.369486394546E+03   -0.10391E-04   -0.10492E-04  6048   0.913E-05-0.339E-05
CGA:  15    -0.369486399271E+03   -0.47253E-05    0.32010E-04  6048   0.186E-05 0.154E-05
  34 F= -.36948640E+03 E0= -.36948640E+03  d E =-.723405E-02  mag=    20.0000
       N       E                     dE             d eps       ncg     rms          ort
SDA:   1    -0.369311546151E+03    0.17485E+00    0.00000E+00  6048   0.429E+00 0.000E+00
CGA:   2    -0.369447330870E+03   -0.13578E+00   -0.13581E+00  6048   0.153E+00-0.630E-03
CGA:   3    -0.369477198166E+03   -0.29867E-01   -0.29852E-01  6048   0.507E-01-0.277E-03
CGA:   4    -0.369485323190E+03   -0.81250E-02   -0.81124E-02  6048   0.105E-01-0.132E-03
CGA:   5    -0.369487293815E+03   -0.19706E-02   -0.20035E-02  6048   0.320E-02 0.421E-03
CGA:   6    -0.369487919484E+03   -0.62567E-03   -0.64881E-03  6048   0.110E-02 0.329E-03
CGA:   7    -0.369488242834E+03   -0.32335E-03   -0.32333E-03  6048   0.498E-03 0.366E-05
CGA:   8    -0.369488403810E+03   -0.16098E-03   -0.17117E-03  6048   0.339E-03-0.127E-03
CGA:   9    -0.369488452218E+03   -0.48407E-04   -0.50153E-04  6048   0.104E-03 0.259E-04
CGA:  10    -0.369488461970E+03   -0.97523E-05   -0.15084E-04  6048   0.407E-04 0.417E-04
  35 F= -.36948846E+03 E0= -.36948846E+03  d E =-.206270E-02  mag=    20.0000
       N       E                     dE             d eps       ncg     rms          ort
SDA:   1    -0.369456273632E+03    0.32179E-01    0.00000E+00  6048   0.850E-01 0.000E+00
CGA:   2    -0.369481902890E+03   -0.25629E-01   -0.25593E-01  6048   0.323E-01 0.687E-03
CGA:   3    -0.369487760893E+03   -0.58580E-02   -0.58752E-02  6048   0.114E-01 0.219E-03
CGA:   4    -0.369489734697E+03   -0.19738E-02   -0.19722E-02  6048   0.234E-02-0.256E-04
CGA:   5    -0.369490252486E+03   -0.51779E-03   -0.50878E-03  6048   0.984E-03-0.335E-03
CGA:   6    -0.369490463458E+03   -0.21097E-03   -0.21359E-03  6048   0.528E-03-0.263E-03
CGA:   7    -0.369490533446E+03   -0.69989E-04   -0.71671E-04  6048   0.154E-03 0.286E-04
CGA:   8    -0.369490546103E+03   -0.12657E-04   -0.20652E-04  6048   0.616E-04 0.702E-04
CGA:   9    -0.369490550033E+03   -0.39298E-05   -0.96624E-05  6048   0.278E-04 0.450E-04
CGA:  10    -0.369490560655E+03   -0.10622E-04   -0.10626E-04  6048   0.156E-04-0.329E-07
CGA:  11    -0.369490562840E+03   -0.21858E-05   -0.26346E-05  6048   0.415E-05 0.660E-05
  36 F= -.36949056E+03 E0= -.36949056E+03  d E =-.210087E-02  mag=    20.0000
       N       E                     dE             d eps       ncg     rms          ort
SDA:   1    -0.369440208083E+03    0.50353E-01    0.00000E+00  6048   0.120E+00 0.000E+00
CGA:   2    -0.369481324981E+03   -0.41117E-01   -0.41045E-01  6048   0.434E-01 0.720E-03
CGA:   3    -0.369488793962E+03   -0.74690E-02   -0.74818E-02  6048   0.109E-01 0.139E-03
CGA:   4    -0.369490570322E+03   -0.17764E-02   -0.17629E-02  6048   0.238E-02-0.163E-03
CGA:   5    -0.369491063672E+03   -0.49335E-03   -0.48745E-03  6048   0.777E-03-0.177E-03
CGA:   6    -0.369491203760E+03   -0.14009E-03   -0.13858E-03  6048   0.218E-03-0.322E-04
CGA:   7    -0.369491242884E+03   -0.39124E-04   -0.40636E-04  6048   0.650E-04 0.347E-04
CGA:   8    -0.369491256919E+03   -0.14035E-04   -0.14926E-04  6048   0.271E-04 0.238E-04
CGA:   9    -0.369491267983E+03   -0.11063E-04   -0.10849E-04  6048   0.169E-04 0.359E-05
CGA:  10    -0.369491269591E+03   -0.16085E-05   -0.12917E-04  6048   0.511E-04-0.258E-04
  37 F= -.36949127E+03 E0= -.36949127E+03  d E =-.706751E-03  mag=    20.0000
       N       E                     dE             d eps       ncg     rms          ort
SDA:   1    -0.368541780800E+03    0.94949E+00    0.00000E+00  6048   0.232E+01 0.000E+00
CGA:   2    -0.369245281213E+03   -0.70350E+00   -0.70331E+00  6048   0.113E+01 0.297E-02
CGA:   3    -0.369427851866E+03   -0.18257E+00   -0.18262E+00  6048   0.265E+00-0.282E-03
CGA:   4    -0.369471821649E+03   -0.43970E-01   -0.43894E-01  6048   0.534E-01-0.944E-03
CGA:   5    -0.369481757483E+03   -0.99358E-02   -0.99201E-02  6048   0.160E-01-0.274E-03
CGA:   6    -0.369484878393E+03   -0.31209E-02   -0.31223E-02  6048   0.457E-02 0.237E-04
CGA:   7    -0.369485932466E+03   -0.10541E-02   -0.10547E-02  6048   0.170E-02 0.519E-04
CGA:   8    -0.369486398847E+03   -0.46638E-03   -0.46486E-03  6048   0.763E-03 0.532E-04
CGA:   9    -0.369486647208E+03   -0.24836E-03   -0.24938E-03  6048   0.331E-03-0.141E-04
CGA:  10    -0.369486752566E+03   -0.10536E-03   -0.10944E-03  6048   0.143E-03-0.454E-04
CGA:  11    -0.369486785265E+03   -0.32699E-04   -0.32667E-04  6048   0.434E-04 0.230E-05
CGA:  12    -0.369486799835E+03   -0.14570E-04   -0.14709E-04  6048   0.214E-04-0.172E-05
CGA:  13    -0.369486808470E+03   -0.86351E-05   -0.97339E-05  6048   0.173E-04-0.507E-05
  38 F= -.36948681E+03 E0= -.36948681E+03  d E =0.446112E-02  mag=    20.0000
       N       E                     dE             d eps       ncg     rms          ort
SDA:   1    -0.368598339371E+03    0.88846E+00    0.00000E+00  6048   0.233E+01 0.000E+00
CGA:   2    -0.369204592715E+03   -0.60625E+00   -0.60628E+00  6048   0.128E+01 0.307E-02
CGA:   3    -0.369418412831E+03   -0.21382E+00   -0.21390E+00  6048   0.312E+00 0.128E-04
CGA:   4    -0.369471676680E+03   -0.53264E-01   -0.53169E-01  6048   0.666E-01-0.113E-02
CGA:   5    -0.369483635484E+03   -0.11959E-01   -0.11928E-01  6048   0.191E-01-0.419E-03
CGA:   6    -0.369487490464E+03   -0.38550E-02   -0.38528E-02  6048   0.584E-02-0.485E-04
CGA:   7    -0.369488830220E+03   -0.13398E-02   -0.13410E-02  6048   0.214E-02 0.582E-04
CGA:   8    -0.369489391192E+03   -0.56097E-03   -0.56022E-03  6048   0.878E-03 0.821E-04
CGA:   9    -0.369489675699E+03   -0.28451E-03   -0.28571E-03  6048   0.370E-03-0.193E-04
CGA:  10    -0.369489793152E+03   -0.11745E-03   -0.12267E-03  6048   0.171E-03-0.608E-04
CGA:  11    -0.369489828242E+03   -0.35090E-04   -0.35223E-04  6048   0.505E-04 0.113E-04
CGA:  12    -0.369489843433E+03   -0.15191E-04   -0.15107E-04  6048   0.222E-04 0.355E-05
CGA:  13    -0.369489852935E+03   -0.95017E-05   -0.11694E-04  6048   0.240E-04-0.938E-05
  39 F= -.36948985E+03 E0= -.36948985E+03  d E =-.304446E-02  mag=    20.0000
       N       E                     dE             d eps       ncg     rms          ort
SDA:   1    -0.368898019589E+03    0.59182E+00    0.00000E+00  6048   0.154E+01 0.000E+00
CGA:   2    -0.369304762856E+03   -0.40674E+00   -0.40674E+00  6048   0.852E+00 0.181E-03
CGA:   3    -0.369444997358E+03   -0.14023E+00   -0.14041E+00  6048   0.205E+00 0.135E-02
CGA:   4    -0.369480149250E+03   -0.35152E-01   -0.35198E-01  6048   0.452E-01 0.464E-03
CGA:   5    -0.369488267529E+03   -0.81183E-02   -0.81162E-02  6048   0.126E-01-0.467E-04
CGA:   6    -0.369490812652E+03   -0.25451E-02   -0.25426E-02  6048   0.395E-02-0.559E-04
CGA:   7    -0.369491722582E+03   -0.90993E-03   -0.91031E-03  6048   0.146E-02 0.210E-04
CGA:   8    -0.369492098061E+03   -0.37548E-03   -0.37503E-03  6048   0.580E-03 0.620E-04
CGA:   9    -0.369492270704E+03   -0.17264E-03   -0.17090E-03  6048   0.213E-03 0.498E-04
CGA:  10    -0.369492343974E+03   -0.73270E-04   -0.73983E-04  6048   0.940E-04-0.102E-04
CGA:  11    -0.369492373620E+03   -0.29646E-04   -0.31409E-04  6048   0.459E-04-0.181E-04
CGA:  12    -0.369492383668E+03   -0.10049E-04   -0.10007E-04  6048   0.167E-04 0.343E-05
CGA:  13    -0.369492389366E+03   -0.56973E-05   -0.56240E-05  6048   0.838E-05 0.135E-05
  40 F= -.36949239E+03 E0= -.36949239E+03  d E =-.253643E-02  mag=    20.0000
       N       E                     dE             d eps       ncg     rms          ort
SDA:   1    -0.368654573337E+03    0.83781E+00    0.00000E+00  6048   0.205E+01 0.000E+00
CGA:   2    -0.369284255535E+03   -0.62968E+00   -0.62973E+00  6048   0.942E+00-0.133E-02
CGA:   3    -0.369437918103E+03   -0.15366E+00   -0.15378E+00  6048   0.243E+00 0.585E-03
CGA:   4    -0.369479396754E+03   -0.41479E-01   -0.41505E-01  6048   0.515E-01 0.193E-03
CGA:   5    -0.369488874170E+03   -0.94774E-02   -0.95149E-02  6048   0.153E-01 0.500E-03
CGA:   6    -0.369491897193E+03   -0.30230E-02   -0.30489E-02  6048   0.468E-02 0.459E-03
CGA:   7    -0.369493075124E+03   -0.11779E-02   -0.11781E-02  6048   0.190E-02 0.276E-04
CGA:   8    -0.369493620795E+03   -0.54567E-03   -0.55075E-03  6048   0.946E-03-0.135E-03
CGA:   9    -0.369493847979E+03   -0.22718E-03   -0.22678E-03  6048   0.293E-03 0.740E-04
CGA:  10    -0.369493917027E+03   -0.69048E-04   -0.70963E-04  6048   0.883E-04 0.673E-04
CGA:  11    -0.369493946441E+03   -0.29413E-04   -0.29230E-04  6048   0.339E-04 0.103E-04
CGA:  12    -0.369493956777E+03   -0.10336E-04   -0.10214E-04  6048   0.142E-04 0.708E-05
CGA:  13    -0.369493963037E+03   -0.62598E-05   -0.61831E-05  6048   0.958E-05 0.714E-06
  41 F= -.36949396E+03 E0= -.36949396E+03  d E =-.157367E-02  mag=    20.0000
       N       E                     dE             d eps       ncg     rms          ort
SDA:   1    -0.369154575982E+03    0.33938E+00    0.00000E+00  6048   0.878E+00 0.000E+00
CGA:   2    -0.369401687974E+03   -0.24711E+00   -0.24708E+00  6048   0.435E+00 0.111E-02
CGA:   3    -0.369473420297E+03   -0.71732E-01   -0.71755E-01  6048   0.112E+00-0.643E-04
CGA:   4    -0.369492650828E+03   -0.19231E-01   -0.19195E-01  6048   0.237E-01-0.447E-03
CGA:   5    -0.369496952520E+03   -0.43017E-02   -0.42876E-02  6048   0.690E-02-0.212E-03
CGA:   6    -0.369498335936E+03   -0.13834E-02   -0.13807E-02  6048   0.216E-02-0.608E-04
CGA:   7    -0.369498832157E+03   -0.49622E-03   -0.49644E-03  6048   0.798E-03 0.154E-04
CGA:   8    -0.369499038570E+03   -0.20641E-03   -0.20594E-03  6048   0.328E-03 0.397E-04
CGA:   9    -0.369499148362E+03   -0.10979E-03   -0.11088E-03  6048   0.144E-03-0.143E-04
CGA:  10    -0.369499193162E+03   -0.44800E-04   -0.47765E-04  6048   0.699E-04-0.300E-04
CGA:  11    -0.369499206225E+03   -0.13063E-04   -0.13122E-04  6048   0.203E-04 0.356E-05
CGA:  12    -0.369499212718E+03   -0.64928E-05   -0.65886E-05  6048   0.106E-04-0.173E-05
  42 F= -.36949921E+03 E0= -.36949921E+03  d E =-.524968E-02  mag=    20.0000
       N       E                     dE             d eps       ncg     rms          ort
SDA:   1    -0.368692331724E+03    0.80687E+00    0.00000E+00  6048   0.201E+01 0.000E+00
CGA:   2    -0.369276752389E+03   -0.58442E+00   -0.58440E+00  6048   0.939E+00 0.152E-02
CGA:   3    -0.369429477525E+03   -0.15273E+00   -0.15292E+00  6048   0.252E+00 0.937E-03
CGA:   4    -0.369473947768E+03   -0.44470E-01   -0.44463E-01  6048   0.567E-01-0.107E-03
CGA:   5    -0.369484171699E+03   -0.10224E-01   -0.10166E-01  6048   0.165E-01-0.657E-03
CGA:   6    -0.369487608074E+03   -0.34364E-02   -0.34090E-02  6048   0.562E-02-0.486E-03
CGA:   7    -0.369488894691E+03   -0.12866E-02   -0.12871E-02  6048   0.208E-02 0.171E-04
CGA:   8    -0.369489393295E+03   -0.49860E-03   -0.50275E-03  6048   0.760E-03 0.198E-03
CGA:   9    -0.369489645253E+03   -0.25196E-03   -0.25124E-03  6048   0.301E-03 0.175E-04
CGA:  10    -0.369489751059E+03   -0.10581E-03   -0.12335E-03  6048   0.223E-03-0.127E-03
CGA:  11    -0.369489779737E+03   -0.28677E-04   -0.28043E-04  6048   0.819E-04-0.123E-04
CGA:  12    -0.369489793043E+03   -0.13306E-04   -0.14141E-04  6048   0.335E-04 0.982E-05
CGA:  13    -0.369489802307E+03   -0.92641E-05   -0.92771E-05  6048   0.172E-04 0.808E-06
  43 F= -.36948980E+03 E0= -.36948980E+03  d E =0.941041E-02  mag=    20.0000
       N       E                     dE             d eps       ncg     rms          ort
SDA:   1    -0.369069051429E+03    0.42074E+00    0.00000E+00  6048   0.108E+01 0.000E+00
CGA:   2    -0.369388287796E+03   -0.31924E+00   -0.31928E+00  6048   0.495E+00-0.141E-02
CGA:   3    -0.369469422189E+03   -0.81134E-01   -0.81205E-01  6048   0.135E+00 0.416E-03
CGA:   4    -0.369493086900E+03   -0.23665E-01   -0.23691E-01  6048   0.293E-01 0.263E-03
CGA:   5    -0.369498361593E+03   -0.52747E-02   -0.53066E-02  6048   0.843E-02 0.428E-03
CGA:   6    -0.369500042749E+03   -0.16812E-02   -0.17009E-02  6048   0.268E-02 0.384E-03
CGA:   7    -0.369500731512E+03   -0.68876E-03   -0.68881E-03  6048   0.110E-02 0.412E-04
CGA:   8    -0.369501058431E+03   -0.32692E-03   -0.33352E-03  6048   0.580E-03-0.127E-03
CGA:   9    -0.369501186459E+03   -0.12803E-03   -0.12804E-03  6048   0.174E-03 0.374E-04
CGA:  10    -0.369501220414E+03   -0.33955E-04   -0.36605E-04  6048   0.534E-04 0.504E-04
CGA:  11    -0.369501233831E+03   -0.13417E-04   -0.14167E-04  6048   0.188E-04 0.180E-04
CGA:  12    -0.369501240299E+03   -0.64678E-05   -0.64208E-05  6048   0.818E-05 0.478E-05
  44 F= -.36950124E+03 E0= -.36950124E+03  d E =-.114380E-01  mag=    20.0000
       N       E                     dE             d eps       ncg     rms          ort
SDA:   1    -0.369303341920E+03    0.19789E+00    0.00000E+00  6048   0.482E+00 0.000E+00
CGA:   2    -0.369453240597E+03   -0.14990E+00   -0.14992E+00  6048   0.220E+00-0.431E-03
CGA:   3    -0.369488729571E+03   -0.35489E-01   -0.35537E-01  6048   0.553E-01 0.413E-03
CGA:   4    -0.369498151674E+03   -0.94221E-02   -0.94335E-02  6048   0.117E-01 0.139E-03
CGA:   5    -0.369500261628E+03   -0.21100E-02   -0.21267E-02  6048   0.339E-02 0.279E-03
CGA:   6    -0.369500909986E+03   -0.64836E-03   -0.65965E-03  6048   0.999E-03 0.238E-03
CGA:   7    -0.369501174255E+03   -0.26427E-03   -0.26410E-03  6048   0.418E-03 0.141E-04
CGA:   8    -0.369501304751E+03   -0.13050E-03   -0.13707E-03  6048   0.260E-03-0.749E-04
CGA:   9    -0.369501345968E+03   -0.41217E-04   -0.42974E-04  6048   0.836E-04 0.456E-04
CGA:  10    -0.369501356646E+03   -0.10678E-04   -0.14245E-04  6048   0.313E-04 0.382E-04
CGA:  11    -0.369501361933E+03   -0.52875E-05   -0.68233E-05  6048   0.128E-04 0.183E-04
CGA:  12    -0.369501368182E+03   -0.62488E-05    0.23025E-04  6048   0.498E-05 0.537E-05
  45 F= -.36950137E+03 E0= -.36950137E+03  d E =-.127883E-03  mag=    20.0000
       N       E                     dE             d eps       ncg     rms          ort
SDA:   1    -0.369417078553E+03    0.84283E-01    0.00000E+00  6048   0.204E+00 0.000E+00
CGA:   2    -0.369485659026E+03   -0.68580E-01   -0.68574E-01  6048   0.772E-01 0.296E-04
CGA:   3    -0.369498542428E+03   -0.12883E-01   -0.12927E-01  6048   0.198E-01 0.602E-03
CGA:   4    -0.369501873941E+03   -0.33315E-02   -0.33268E-02  6048   0.425E-02-0.784E-04
CGA:   5    -0.369502735546E+03   -0.86160E-03   -0.85550E-03  6048   0.139E-02-0.232E-03
CGA:   6    -0.369502999188E+03   -0.26364E-03   -0.26170E-03  6048   0.440E-03-0.681E-04
CGA:   7    -0.369503087561E+03   -0.88373E-04   -0.88823E-04  6048   0.140E-03 0.334E-04
CGA:   8    -0.369503119602E+03   -0.32042E-04   -0.32422E-04  6048   0.522E-04 0.363E-04
CGA:   9    -0.369503139864E+03   -0.20262E-04   -0.19979E-04  6048   0.283E-04 0.356E-05
CGA:  10    -0.369503139367E+03    0.49704E-06   -0.21264E-04  6048   0.105E-03-0.460E-04
CGA:  11    -0.369503153800E+03   -0.14433E-04   -0.15895E-04  6048   0.118E-04 0.145E-04
CGA:  12    -0.369503156700E+03   -0.29002E-05   -0.29960E-05  6048   0.394E-05 0.386E-05
  46 F= -.36950316E+03 E0= -.36950316E+03  d E =-.178852E-02  mag=    20.0000
       N       E                     dE             d eps       ncg     rms          ort
SDA:   1    -0.368987000570E+03    0.51615E+00    0.00000E+00  6048   0.121E+01 0.000E+00
CGA:   2    -0.369404389337E+03   -0.41739E+00   -0.41742E+00  6048   0.439E+00-0.575E-03
CGA:   3    -0.369478216864E+03   -0.73828E-01   -0.73958E-01  6048   0.110E+00 0.110E-02
CGA:   4    -0.369496088703E+03   -0.17872E-01   -0.17875E-01  6048   0.239E-01-0.283E-05
CGA:   5    -0.369500752829E+03   -0.46641E-02   -0.46480E-02  6048   0.716E-02-0.273E-03
CGA:   6    -0.369502099549E+03   -0.13467E-02   -0.13423E-02  6048   0.211E-02-0.730E-04
CGA:   7    -0.369502592663E+03   -0.49311E-03   -0.49339E-03  6048   0.770E-03 0.221E-04
CGA:   8    -0.369502800445E+03   -0.20778E-03   -0.20703E-03  6048   0.331E-03 0.426E-04
CGA:   9    -0.369502909710E+03   -0.10926E-03   -0.10955E-03  6048   0.138E-03-0.457E-05
CGA:  10    -0.369502955105E+03   -0.45395E-04   -0.49346E-04  6048   0.690E-04-0.359E-04
CGA:  11    -0.369502967228E+03   -0.12123E-04   -0.12113E-04  6048   0.198E-04-0.540E-06
CGA:  12    -0.369502972433E+03   -0.52044E-05   -0.52010E-05  6048   0.798E-05 0.408E-06
  47 F= -.36950297E+03 E0= -.36950297E+03  d E =0.184267E-03  mag=    20.0000
       N       E                     dE             d eps       ncg     rms          ort
SDA:   1    -0.366372108064E+03    0.31309E+01    0.00000E+00  6048   0.729E+01 0.000E+00
CGA:   2    -0.368943937504E+03   -0.25718E+01   -0.25719E+01  6048   0.248E+01-0.206E-02
CGA:   3    -0.369372693508E+03   -0.42876E+00   -0.42908E+00  6048   0.590E+00 0.193E-02
CGA:   4    -0.369467127029E+03   -0.94434E-01   -0.94475E-01  6048   0.129E+00 0.124E-03
CGA:   5    -0.369492955632E+03   -0.25829E-01   -0.25837E-01  6048   0.364E-01 0.100E-03
CGA:   6    -0.369499850313E+03   -0.68947E-02   -0.69090E-02  6048   0.106E-01 0.184E-03
CGA:   7    -0.369502448620E+03   -0.25983E-02   -0.25975E-02  6048   0.412E-02-0.573E-04
CGA:   8    -0.369503628212E+03   -0.11796E-02   -0.11811E-02  6048   0.199E-02-0.492E-04
CGA:   9    -0.369504185787E+03   -0.55757E-03   -0.55569E-03  6048   0.696E-03 0.804E-04
CGA:  10    -0.369504399599E+03   -0.21381E-03   -0.21372E-03  6048   0.218E-03 0.264E-05
CGA:  11    -0.369504469101E+03   -0.69502E-04   -0.71662E-04  6048   0.867E-04-0.328E-04
CGA:  12    -0.369504493687E+03   -0.24586E-04   -0.25096E-04  6048   0.358E-04-0.678E-05
CGA:  13    -0.369504502606E+03   -0.89191E-05   -0.24738E-04  6048   0.803E-04-0.329E-04
CGA:  14    -0.369504517182E+03   -0.14576E-04   -0.15964E-04  6048   0.807E-05 0.147E-04
CGA:  15    -0.369504518393E+03   -0.12109E-05   -0.73330E-05  6048   0.244E-04-0.128E-04
  48 F= -.36950452E+03 E0= -.36950452E+03  d E =-.154596E-02  mag=    20.0000
       N       E                     dE             d eps       ncg     rms          ort
SDA:   1    -0.344480663410E+03    0.25024E+02    0.00000E+00  6048   0.535E+02 0.000E+00
CGA:   2    -0.360992950938E+03   -0.16512E+02   -0.16512E+02  6048   0.216E+02 0.502E-01
CGA:   3    -0.365094291817E+03   -0.41013E+01   -0.41093E+01  6048   0.683E+01 0.149E-01
CGA:   4    -0.366281764215E+03   -0.11875E+01   -0.11881E+01  6048   0.163E+01 0.669E-02
CGA:   5    -0.366630254663E+03   -0.34849E+00   -0.34842E+00  6048   0.564E+00 0.464E-03
CGA:   6    -0.366748994809E+03   -0.11874E+00   -0.11881E+00  6048   0.219E+00 0.795E-03
CGA:   7    -0.366806149718E+03   -0.57155E-01   -0.57165E-01  6048   0.868E-01 0.290E-03
CGA:   8    -0.366828636844E+03   -0.22487E-01   -0.22485E-01  6048   0.340E-01-0.110E-03
CGA:   9    -0.366838021174E+03   -0.93843E-02   -0.93862E-02  6048   0.107E-01 0.316E-03
CGA:  10    -0.366841098827E+03   -0.30777E-02   -0.30772E-02  6048   0.349E-02 0.106E-03
CGA:  11    -0.366842137212E+03   -0.10384E-02   -0.10401E-02  6048   0.118E-02-0.134E-03
CGA:  12    -0.366842479968E+03   -0.34276E-03   -0.34167E-03  6048   0.409E-03 0.625E-04
CGA:  13    -0.366842641170E+03   -0.16120E-03   -0.16285E-03  6048   0.216E-03-0.178E-04
CGA:  14    -0.366842693651E+03   -0.52482E-04   -0.54032E-04  6048   0.866E-04 0.575E-04
CGA:  15    -0.366842720171E+03   -0.26519E-04   -0.27513E-04  6048   0.353E-04 0.272E-04
CGA:  16    -0.366842739017E+03   -0.18846E-04   -0.19268E-04  6048   0.267E-04-0.327E-05
CGA:  17    -0.366842738220E+03    0.79692E-06   -0.23882E-05  6048   0.184E-04 0.165E-04
  49 F= -.36684274E+03 E0= -.36684274E+03  d E =0.266178E+01  mag=    20.0000
       N       E                     dE             d eps       ncg     rms          ort
SDA:   1    -0.363656372357E+03    0.31864E+01    0.00000E+00  6048   0.120E+02 0.000E+00
CGA:   2    -0.367567501544E+03   -0.39111E+01   -0.39134E+01  6048   0.381E+01-0.376E-01
CGA:   3    -0.368466839733E+03   -0.89934E+00   -0.89953E+00  6048   0.891E+00 0.979E-04
CGA:   4    -0.368631602144E+03   -0.16476E+00   -0.16492E+00  6048   0.309E+00 0.143E-02
CGA:   5    -0.368691822253E+03   -0.60220E-01   -0.60304E-01  6048   0.869E-01 0.115E-02
CGA:   6    -0.368713093637E+03   -0.21271E-01   -0.21278E-01  6048   0.413E-01 0.264E-03
CGA:   7    -0.368722891440E+03   -0.97978E-02   -0.97892E-02  6048   0.154E-01-0.306E-03
CGA:   8    -0.368727115212E+03   -0.42238E-02   -0.42279E-02  6048   0.616E-02-0.311E-03
CGA:   9    -0.368728633412E+03   -0.15182E-02   -0.15207E-02  6048   0.183E-02 0.196E-03
CGA:  10    -0.368729164524E+03   -0.53111E-03   -0.53061E-03  6048   0.563E-03 0.284E-04
CGA:  11    -0.368729360086E+03   -0.19556E-03   -0.20764E-03  6048   0.295E-03-0.123E-03
CGA:  12    -0.368729406134E+03   -0.46048E-04   -0.49388E-04  6048   0.108E-03 0.601E-04
CGA:  13    -0.368729434069E+03   -0.27936E-04   -0.28940E-04  6048   0.487E-04 0.221E-04
CGA:  14    -0.368729473264E+03   -0.39195E-04    0.29738E-04  6048   0.260E-04 0.103E-04
CGA:  15    -0.368729493212E+03   -0.19948E-04    0.21139E-04  6048   0.136E-04 0.560E-05
CGA:  16    -0.368729493800E+03   -0.58738E-06   -0.20430E-05  6048   0.784E-05 0.103E-04
  50 F= -.36872949E+03 E0= -.36872949E+03  d E =-.188676E+01  mag=    20.0000
       N       E                     dE             d eps       ncg     rms          ort
SDA:   1    -0.367712593978E+03    0.10169E+01    0.00000E+00  6048   0.371E+01 0.000E+00
CGA:   2    -0.368924996759E+03   -0.12124E+01   -0.12125E+01  6048   0.118E+01-0.189E-02
CGA:   3    -0.369204069265E+03   -0.27907E+00   -0.27910E+00  6048   0.293E+00 0.794E-03
CGA:   4    -0.369256976701E+03   -0.52907E-01   -0.52955E-01  6048   0.986E-01 0.460E-03
CGA:   5    -0.369276519715E+03   -0.19543E-01   -0.19557E-01  6048   0.275E-01 0.253E-03
CGA:   6    -0.369283321838E+03   -0.68021E-02   -0.68021E-02  6048   0.133E-01 0.208E-04
CGA:   7    -0.369286473343E+03   -0.31515E-02   -0.31502E-02  6048   0.488E-02-0.135E-03
CGA:   8    -0.369287817216E+03   -0.13439E-02   -0.13467E-02  6048   0.198E-02-0.874E-04
CGA:   9    -0.369288301031E+03   -0.48381E-03   -0.48372E-03  6048   0.583E-03 0.738E-04
CGA:  10    -0.369288479951E+03   -0.17892E-03   -0.17986E-03  6048   0.193E-03-0.190E-04
CGA:  11    -0.369288544313E+03   -0.64363E-04   -0.75025E-04  6048   0.125E-03-0.701E-04
CGA:  12    -0.369288558641E+03   -0.14327E-04   -0.15538E-04  6048   0.518E-04 0.193E-04
CGA:  13    -0.369288568850E+03   -0.10209E-04   -0.11000E-04  6048   0.215E-04 0.112E-04
CGA:  14    -0.369288583103E+03   -0.14253E-04    0.37171E-04  6048   0.121E-04 0.289E-05
CGA:  15    -0.369288592134E+03   -0.90311E-05    0.55384E-05  6048   0.646E-05 0.117E-05
  51 F= -.36928859E+03 E0= -.36928859E+03  d E =-.559098E+00  mag=    20.0000
       N       E                     dE             d eps       ncg     rms          ort
SDA:   1    -0.368084201423E+03    0.12044E+01    0.00000E+00  6048   0.332E+01 0.000E+00
CGA:   2    -0.369156587400E+03   -0.10724E+01   -0.10717E+01  6048   0.109E+01 0.636E-02
CGA:   3    -0.369412327148E+03   -0.25574E+00   -0.25578E+00  6048   0.296E+00 0.227E-02
CGA:   4    -0.369463211768E+03   -0.50885E-01   -0.50912E-01  6048   0.908E-01 0.116E-03
CGA:   5    -0.369481940604E+03   -0.18729E-01   -0.18723E-01  6048   0.261E-01-0.193E-03
CGA:   6    -0.369488185619E+03   -0.62450E-02   -0.62446E-02  6048   0.126E-01-0.138E-03
CGA:   7    -0.369491173775E+03   -0.29882E-02   -0.29878E-02  6048   0.455E-02-0.994E-04
CGA:   8    -0.369492389962E+03   -0.12162E-02   -0.12150E-02  6048   0.178E-02 0.426E-04
CGA:   9    -0.369492854762E+03   -0.46480E-03   -0.46432E-03  6048   0.546E-03 0.329E-04
CGA:  10    -0.369493029564E+03   -0.17480E-03   -0.18055E-03  6048   0.202E-03-0.718E-04
CGA:  11    -0.369493084886E+03   -0.55322E-04   -0.58674E-04  6048   0.803E-04-0.391E-04
CGA:  12    -0.369493105970E+03   -0.21084E-04   -0.22193E-04  6048   0.345E-04-0.123E-04
CGA:  13    -0.369493110925E+03   -0.49549E-05   -0.21668E-04  6048   0.755E-04-0.345E-04
CGA:  14    -0.369493123959E+03   -0.13034E-04   -0.14375E-04  6048   0.822E-05 0.147E-04
CGA:  15    -0.369493127448E+03   -0.34891E-05   -0.36750E-05  6048   0.376E-05-0.191E-05
  52 F= -.36949313E+03 E0= -.36949313E+03  d E =-.204535E+00  mag=    20.0000
       N       E                     dE             d eps       ncg     rms          ort
SDA:   1    -0.369440084741E+03    0.53039E-01    0.00000E+00  6048   0.148E+00 0.000E+00
CGA:   2    -0.369486212077E+03   -0.46127E-01   -0.46126E-01  6048   0.513E-01-0.216E-04
CGA:   3    -0.369497039358E+03   -0.10827E-01   -0.10869E-01  6048   0.178E-01 0.563E-03
CGA:   4    -0.369499958264E+03   -0.29189E-02   -0.29240E-02  6048   0.388E-02 0.357E-04
CGA:   5    -0.369500853199E+03   -0.89494E-03   -0.88100E-03  6048   0.146E-02-0.297E-03
CGA:   6    -0.369501174916E+03   -0.32172E-03   -0.31483E-03  6048   0.707E-03-0.183E-03
CGA:   7    -0.369501311927E+03   -0.13701E-03   -0.13739E-03  6048   0.220E-03 0.783E-05
CGA:   8    -0.369501346532E+03   -0.34605E-04   -0.40293E-04  6048   0.724E-04 0.660E-04
CGA:   9    -0.369501363509E+03   -0.16978E-04   -0.18608E-04  6048   0.276E-04 0.250E-04
CGA:  10    -0.369501365190E+03   -0.16812E-05   -0.26035E-04  6048   0.122E-03-0.552E-04
CGA:  11    -0.369501382920E+03   -0.17729E-04   -0.19890E-04  6048   0.144E-04 0.181E-04
CGA:  12    -0.369501285387E+03    0.97533E-04   -0.52517E-04  6048   0.432E-03-0.848E-04
CGA:  13    -0.369501384851E+03   -0.99464E-04   -0.10626E-03  6048   0.451E-04 0.263E-04
CGA:  14    -0.369501393097E+03   -0.82458E-05   -0.10824E-04  6048   0.621E-05 0.976E-05
  53 F= -.36950139E+03 E0= -.36950139E+03  d E =-.826565E-02  mag=    20.0000
       N       E                     dE             d eps       ncg     rms          ort
SDA:   1    -0.369430383115E+03    0.71002E-01    0.00000E+00  6048   0.194E+00 0.000E+00
CGA:   2    -0.369488713896E+03   -0.58331E-01   -0.58398E-01  6048   0.677E-01 0.272E-03
CGA:   3    -0.369502105739E+03   -0.13392E-01   -0.13491E-01  6048   0.244E-01 0.342E-03
CGA:   4    -0.369506231125E+03   -0.41254E-02   -0.41268E-02  6048   0.508E-02-0.714E-05
CGA:   5    -0.369507355587E+03   -0.11245E-02   -0.10708E-02  6048   0.185E-02-0.252E-03
CGA:   6    -0.369507781674E+03   -0.42609E-03   -0.39247E-03  6048   0.824E-03-0.176E-03
CGA:   7    -0.369507955634E+03   -0.17396E-03   -0.17346E-03  6048   0.286E-03-0.306E-05
CGA:   8    -0.369507997762E+03   -0.42128E-04   -0.56005E-04  6048   0.903E-04 0.693E-04
CGA:   9    -0.369508019274E+03   -0.21512E-04   -0.25249E-04  6048   0.336E-04 0.231E-04
CGA:  10    -0.369508026524E+03   -0.72501E-05   -0.30736E-04  6048   0.168E-03-0.672E-04
CGA:  11    -0.369508044893E+03   -0.18370E-04   -0.25107E-04  6048   0.184E-04 0.273E-04
CGA:  12    -0.369508052315E+03   -0.74213E-05   -0.72083E-05  6048   0.798E-05-0.447E-05
  54 F= -.36950805E+03 E0= -.36950805E+03  d E =-.665922E-02  mag=    20.0000
       N       E                     dE             d eps       ncg     rms          ort
SDA:   1    -0.369504928517E+03    0.31164E-02    0.00000E+00  6048   0.108E-01 0.000E+00
CGA:   2    -0.369507760930E+03   -0.28324E-02   -0.28483E-02  6048   0.427E-02 0.129E-03
CGA:   3    -0.369508589195E+03   -0.82827E-03   -0.83987E-03  6048   0.140E-02 0.618E-04
CGA:   4    -0.369508825753E+03   -0.23656E-03   -0.23342E-03  6048   0.350E-03-0.162E-04
CGA:   5    -0.369508902298E+03   -0.76545E-04   -0.70733E-04  6048   0.142E-03-0.384E-04
CGA:   6    -0.369508930803E+03   -0.28505E-04   -0.25643E-04  6048   0.502E-04-0.196E-04
CGA:   7    -0.369508940692E+03   -0.98889E-05   -0.10147E-04  6048   0.160E-04 0.240E-05
  55 F= -.36950894E+03 E0= -.36950894E+03  d E =-.888377E-03  mag=    20.0000
       N       E                     dE             d eps       ncg     rms          ort
SDA:   1    -0.369453378032E+03    0.55553E-01    0.00000E+00  6048   0.159E+00 0.000E+00
CGA:   2    -0.369491242801E+03   -0.37865E-01   -0.37917E-01  6048   0.697E-01 0.449E-03
CGA:   3    -0.369504317274E+03   -0.13074E-01   -0.13127E-01  6048   0.221E-01 0.356E-03
CGA:   4    -0.369508122577E+03   -0.38053E-02   -0.38040E-02  6048   0.457E-02-0.190E-04
CGA:   5    -0.369509039930E+03   -0.91735E-03   -0.89974E-03  6048   0.146E-02-0.160E-03
CGA:   6    -0.369509345348E+03   -0.30542E-03   -0.29577E-03  6048   0.533E-03-0.104E-03
CGA:   7    -0.369509463993E+03   -0.11864E-03   -0.11876E-03  6048   0.208E-03 0.174E-05
CGA:   8    -0.369509502675E+03   -0.38682E-04   -0.42999E-04  6048   0.695E-04 0.487E-04
CGA:   9    -0.369509523537E+03   -0.20863E-04   -0.21526E-04  6048   0.303E-04 0.168E-04
CGA:  10    -0.369509509550E+03    0.13988E-04   -0.35061E-04  6048   0.250E-03-0.764E-04
CGA:  11    -0.369509543035E+03   -0.33485E-04   -0.38986E-04  6048   0.280E-04 0.333E-04
CGA:  12    -0.369509549746E+03   -0.67107E-05   -0.72920E-05  6048   0.746E-05 0.704E-05
  56 F= -.36950955E+03 E0= -.36950955E+03  d E =-.609054E-03  mag=    20.0000
       N       E                     dE             d eps       ncg     rms          ort
SDA:   1    -0.369498677859E+03    0.10865E-01    0.00000E+00  6048   0.362E-01 0.000E+00
CGA:   2    -0.369506030726E+03   -0.73529E-02   -0.73695E-02  6048   0.154E-01 0.950E-04
CGA:   3    -0.369509010981E+03   -0.29803E-02   -0.29934E-02  6048   0.542E-02 0.954E-04
CGA:   4    -0.369509910018E+03   -0.89904E-03   -0.89959E-03  6048   0.115E-02 0.191E-05
CGA:   5    -0.369510101945E+03   -0.19193E-03   -0.19209E-03  6048   0.333E-03 0.729E-06
CGA:   6    -0.369510164134E+03   -0.62189E-04   -0.63965E-04  6048   0.898E-04 0.164E-04
CGA:   7    -0.369510185716E+03   -0.21582E-04   -0.22052E-04  6048   0.345E-04 0.771E-05
CGA:   8    -0.369510195193E+03   -0.94767E-05   -0.96356E-05  6048   0.160E-04 0.459E-05
  57 F= -.36951020E+03 E0= -.36951020E+03  d E =-.645447E-03  mag=    20.0000
       N       E                     dE             d eps       ncg     rms          ort
SDA:   1    -0.369014393048E+03    0.49579E+00    0.00000E+00  6048   0.159E+01 0.000E+00
CGA:   2    -0.369314956971E+03   -0.30056E+00   -0.30098E+00  6048   0.708E+00 0.190E-02
CGA:   3    -0.369455814619E+03   -0.14086E+00   -0.14095E+00  6048   0.241E+00 0.651E-03
CGA:   4    -0.369497872967E+03   -0.42058E-01   -0.42040E-01  6048   0.478E-01-0.255E-03
CGA:   5    -0.369506266091E+03   -0.83931E-02   -0.84064E-02  6048   0.131E-01 0.116E-03
CGA:   6    -0.369508890949E+03   -0.26249E-02   -0.26433E-02  6048   0.396E-02 0.264E-03
CGA:   7    -0.369509817538E+03   -0.92659E-03   -0.92999E-03  6048   0.146E-02 0.912E-04
CGA:   8    -0.369510222057E+03   -0.40452E-03   -0.40442E-03  6048   0.656E-03 0.153E-04
CGA:   9    -0.369510425966E+03   -0.20391E-03   -0.20341E-03  6048   0.289E-03 0.114E-04
CGA:  10    -0.369510515583E+03   -0.89617E-04   -0.89218E-04  6048   0.119E-03 0.107E-04
[...]
CGA:   9    -0.369517270960E+03   -0.69444E-04   -0.69445E-04  6048   0.889E-04-0.142E-04
CGA:  10    -0.369517285836E+03   -0.14876E-04   -0.16590E-04  6048   0.258E-04 0.222E-04
CGA:  11    -0.369517290389E+03   -0.45536E-05   -0.56221E-05  6048   0.949E-05 0.112E-04
  69 F= -.36951729E+03 E0= -.36951729E+03  d E =-.114461E-01  mag=    20.0000
       N       E                     dE             d eps       ncg     rms          ort
SDA:   1    -0.369387657734E+03    0.12963E+00    0.00000E+00  6048   0.351E+00 0.000E+00
CGA:   2    -0.369474247974E+03   -0.86590E-01   -0.86609E-01  6048   0.206E+00 0.891E-03
CGA:   3    -0.369509931859E+03   -0.35684E-01   -0.35681E-01  6048   0.477E-01-0.151E-03
CGA:   4    -0.369517919289E+03   -0.79874E-02   -0.79674E-02  6048   0.103E-01-0.237E-03
CGA:   5    -0.369519801482E+03   -0.18822E-02   -0.18629E-02  6048   0.297E-02-0.275E-03
CGA:   6    -0.369520421737E+03   -0.62025E-03   -0.61220E-03  6048   0.991E-03-0.210E-03
CGA:   7    -0.369520616180E+03   -0.19444E-03   -0.19476E-03  6048   0.310E-03 0.835E-05
CGA:   8    -0.369520681429E+03   -0.65249E-04   -0.66989E-04  6048   0.995E-04 0.540E-04
CGA:   9    -0.369520716160E+03   -0.34730E-04   -0.34489E-04  6048   0.478E-04 0.474E-05
CGA:  10    -0.369520732567E+03   -0.16407E-04   -0.22624E-04  6048   0.581E-04-0.304E-04
CGA:  11    -0.369520742421E+03   -0.98547E-05   -0.10098E-04  6048   0.811E-05 0.289E-05
CGA:  12    -0.369520747053E+03   -0.46311E-05    0.14490E-04  6048   0.179E-05 0.148E-05
  70 F= -.36952075E+03 E0= -.36952075E+03  d E =-.345666E-02  mag=    20.0000
       N       E                     dE             d eps       ncg     rms          ort
SDA:   1    -0.369012691264E+03    0.50805E+00    0.00000E+00  6048   0.123E+01 0.000E+00
CGA:   2    -0.369411844491E+03   -0.39915E+00   -0.39907E+00  6048   0.502E+00 0.673E-03
CGA:   3    -0.369495068352E+03   -0.83224E-01   -0.83375E-01  6048   0.124E+00 0.134E-02
CGA:   4    -0.369515123026E+03   -0.20055E-01   -0.20053E-01  6048   0.258E-01-0.642E-04
CGA:   5    -0.369520147403E+03   -0.50244E-02   -0.49938E-02  6048   0.777E-02-0.574E-03
CGA:   6    -0.369521635530E+03   -0.14881E-02   -0.14777E-02  6048   0.228E-02-0.209E-03
CGA:   7    -0.369522116318E+03   -0.48079E-03   -0.48308E-03  6048   0.760E-03 0.936E-04
CGA:   8    -0.369522312716E+03   -0.19640E-03   -0.19580E-03  6048   0.308E-03 0.993E-04
CGA:   9    -0.369522428147E+03   -0.11543E-03   -0.11582E-03  6048   0.161E-03-0.435E-05
CGA:  10    -0.369522477680E+03   -0.49533E-04   -0.50962E-04  6048   0.707E-04-0.189E-04
CGA:  11    -0.369522496931E+03   -0.19252E-04   -0.26078E-04  6048   0.573E-04-0.406E-04
CGA:  12    -0.369522508845E+03   -0.11914E-04   -0.11962E-04  6048   0.102E-04 0.940E-06
CGA:  13    -0.369522509501E+03   -0.65596E-06   -0.14297E-05  6048   0.494E-05 0.658E-05
  71 F= -.36952251E+03 E0= -.36952251E+03  d E =-.176245E-02  mag=    20.0000
       N       E                     dE             d eps       ncg     rms          ort
SDA:   1    -0.330711377699E+03    0.38811E+02    0.00000E+00  6048   0.916E+02 0.000E+00
CGA:   2    -0.357910808032E+03   -0.27199E+02   -0.27212E+02  6048   0.303E+02-0.222E+00
CGA:   3    -0.364065821183E+03   -0.61550E+01   -0.61570E+01  6048   0.109E+02-0.233E-01
CGA:   4    -0.365925458655E+03   -0.18596E+01   -0.18607E+01  6048   0.250E+01 0.136E-03
CGA:   5    -0.366427984145E+03   -0.50253E+00   -0.50283E+00  6048   0.808E+00 0.945E-02
CGA:   6    -0.366599271743E+03   -0.17129E+00   -0.17150E+00  6048   0.314E+00 0.756E-02
CGA:   7    -0.366679723840E+03   -0.80452E-01   -0.80459E-01  6048   0.124E+00-0.667E-03
CGA:   8    -0.366713362533E+03   -0.33639E-01   -0.33762E-01  6048   0.532E-01-0.370E-02
CGA:   9    -0.366727088195E+03   -0.13726E-01   -0.13721E-01  6048   0.153E-01 0.177E-03
CGA:  10    -0.366731223600E+03   -0.41354E-02   -0.41131E-02  6048   0.464E-02 0.821E-03
CGA:  11    -0.366732636217E+03   -0.14126E-02   -0.14064E-02  6048   0.162E-02 0.138E-03
CGA:  12    -0.366733180156E+03   -0.54394E-03   -0.53637E-03  6048   0.674E-03 0.986E-04
CGA:  13    -0.366733373373E+03   -0.19322E-03   -0.52376E-03  6048   0.159E-02-0.685E-03
CGA:  14    -0.366733712494E+03   -0.33912E-03   -0.34638E-03  6048   0.167E-03 0.133E-03
CGA:  15    -0.366733777012E+03   -0.64518E-04   -0.63106E-04  6048   0.563E-04 0.181E-04
CGA:  16    -0.366733808944E+03   -0.31933E-04   -0.41730E-04  6048   0.588E-04-0.249E-04
CGA:  17    -0.366733787098E+03    0.21847E-04   -0.31422E-04  6048   0.175E-03-0.805E-04
CGA:  18    -0.366733843894E+03   -0.56796E-04   -0.56729E-04  6048   0.820E-04-0.335E-04
CGA:  19    -0.366733856673E+03   -0.12779E-04   -0.14965E-04  6048   0.206E-04 0.216E-04
CGA:  20    -0.366733857107E+03   -0.43440E-06   -0.31335E-05  6048   0.766E-05 0.134E-04
  72 F= -.36673386E+03 E0= -.36673386E+03  d E =0.278865E+01  mag=    20.0000
       N       E                     dE             d eps       ncg     rms          ort
SDA:   1    -0.353693156945E+03    0.13041E+02    0.00000E+00  6048   0.367E+02 0.000E+00
CGA:   2    -0.365592842777E+03   -0.11900E+02   -0.11903E+02  6048   0.113E+02-0.194E+00
CGA:   3    -0.368190118262E+03   -0.25973E+01   -0.26011E+01  6048   0.298E+01 0.123E-01
CGA:   4    -0.368707798158E+03   -0.51768E+00   -0.51771E+00  6048   0.959E+00-0.107E-02
CGA:   5    -0.368904008366E+03   -0.19621E+00   -0.19598E+00  6048   0.281E+00-0.153E-02
CGA:   6    -0.368969479899E+03   -0.65472E-01   -0.65442E-01  6048   0.134E+00-0.610E-03
CGA:   7    -0.369001484401E+03   -0.32005E-01   -0.31987E-01  6048   0.489E-01-0.451E-03
CGA:   8    -0.369014654797E+03   -0.13170E-01   -0.13177E-01  6048   0.198E-01 0.346E-03
CGA:   9    -0.369019722831E+03   -0.50680E-02   -0.50821E-02  6048   0.587E-02 0.440E-03
CGA:  10    -0.369021529017E+03   -0.18062E-02   -0.18116E-02  6048   0.196E-02-0.325E-03
CGA:  11    -0.369022082341E+03   -0.55332E-03   -0.55482E-03  6048   0.685E-03-0.115E-03
CGA:  12    -0.369022250963E+03   -0.16862E-03   -0.17062E-03  6048   0.228E-03 0.883E-04
CGA:  13    -0.369022349246E+03   -0.98283E-04   -0.10054E-03  6048   0.146E-03-0.216E-04
CGA:  14    -0.369022378510E+03   -0.29264E-04   -0.31519E-04  6048   0.689E-04 0.426E-04
CGA:  15    -0.369022393835E+03   -0.15326E-04   -0.17946E-04  6048   0.298E-04 0.301E-04
CGA:  16    -0.369022407802E+03   -0.13967E-04   -0.13919E-04  6048   0.205E-04 0.111E-05
CGA:  17    -0.369022411803E+03   -0.40006E-05   -0.45314E-05  6048   0.123E-04 0.726E-05
  73 F= -.36902241E+03 E0= -.36902241E+03  d E =-.228855E+01  mag=    20.0000
       N       E                     dE             d eps       ncg     rms          ort
SDA:   1    -0.367842970719E+03    0.11794E+01    0.00000E+00  6048   0.354E+01 0.000E+00
CGA:   2    -0.368939839934E+03   -0.10969E+01   -0.10966E+01  6048   0.106E+01 0.514E-02
CGA:   3    -0.369176551197E+03   -0.23671E+00   -0.23709E+00  6048   0.401E+00 0.640E-02
CGA:   4    -0.369241148734E+03   -0.64598E-01   -0.64541E-01  6048   0.883E-01-0.909E-03
CGA:   5    -0.369259854337E+03   -0.18706E-01   -0.18539E-01  6048   0.314E-01-0.290E-02
CGA:   6    -0.369266555030E+03   -0.67007E-02   -0.66460E-02  6048   0.133E-01-0.118E-02
CGA:   7    -0.369269507148E+03   -0.29521E-02   -0.29645E-02  6048   0.463E-02 0.388E-03
CGA:   8    -0.369270641153E+03   -0.11340E-02   -0.11457E-02  6048   0.166E-02 0.551E-03
CGA:   9    -0.369271153946E+03   -0.51279E-03   -0.51236E-03  6048   0.594E-03 0.275E-04
CGA:  10    -0.369271354908E+03   -0.20096E-03   -0.21764E-03  6048   0.330E-03-0.169E-03
CGA:  11    -0.369271425593E+03   -0.70685E-04   -0.77211E-04  6048   0.156E-03-0.108E-03
CGA:  12    -0.369271458974E+03   -0.33380E-04   -0.35422E-04  6048   0.703E-04-0.298E-04
CGA:  13    -0.369271462768E+03   -0.37948E-05   -0.80214E-05  6048   0.372E-04 0.321E-04
  74 F= -.36927146E+03 E0= -.36927146E+03  d E =-.249051E+00  mag=    20.0000
       N       E                     dE             d eps       ncg     rms          ort
SDA:   1    -0.367886428883E+03    0.13850E+01    0.00000E+00  6048   0.396E+01 0.000E+00
CGA:   2    -0.369096978589E+03   -0.12105E+01   -0.12099E+01  6048   0.111E+01 0.890E-02
CGA:   3    -0.369358130180E+03   -0.26115E+00   -0.26136E+00  6048   0.448E+00 0.769E-02
CGA:   4    -0.369427972172E+03   -0.69842E-01   -0.69809E-01  6048   0.927E-01-0.952E-03
CGA:   5    -0.369447755252E+03   -0.19783E-01   -0.19628E-01  6048   0.348E-01-0.374E-02
CGA:   6    -0.369455063024E+03   -0.73078E-02   -0.72532E-02  6048   0.145E-01-0.158E-02
CGA:   7    -0.369458250158E+03   -0.31871E-02   -0.31979E-02  6048   0.511E-02 0.539E-03
CGA:   8    -0.369459489983E+03   -0.12398E-02   -0.12494E-02  6048   0.176E-02 0.699E-03
CGA:   9    -0.369460054854E+03   -0.56487E-03   -0.56514E-03  6048   0.665E-03-0.840E-05
CGA:  10    -0.369460265504E+03   -0.21065E-03   -0.22713E-03  6048   0.345E-03-0.177E-03
CGA:  11    -0.369460334755E+03   -0.69252E-04   -0.10668E-03  6048   0.313E-03-0.225E-03
CGA:  12    -0.369460393339E+03   -0.58584E-04   -0.59908E-04  6048   0.508E-04 0.184E-04
CGA:  13    -0.369460394506E+03   -0.11670E-05   -0.63602E-05  6048   0.268E-04 0.367E-04
  75 F= -.36946039E+03 E0= -.36946039E+03  d E =-.188932E+00  mag=    20.0000
       N       E                     dE             d eps       ncg     rms          ort
SDA:   1    -0.368813945335E+03    0.64645E+00    0.00000E+00  6048   0.177E+01 0.000E+00
CGA:   2    -0.369354302094E+03   -0.54036E+00   -0.53998E+00  6048   0.506E+00 0.477E-02
CGA:   3    -0.369474185896E+03   -0.11988E+00   -0.11994E+00  6048   0.198E+00 0.427E-02
CGA:   4    -0.369505228321E+03   -0.31042E-01   -0.31007E-01  6048   0.428E-01-0.597E-03
CGA:   5    -0.369514384908E+03   -0.91566E-02   -0.90838E-02  6048   0.162E-01-0.246E-02
CGA:   6    -0.369517754437E+03   -0.33695E-02   -0.33438E-02  6048   0.705E-02-0.117E-02
CGA:   7    -0.369519206988E+03   -0.14526E-02   -0.14577E-02  6048   0.234E-02 0.289E-03
CGA:   8    -0.369519718151E+03   -0.51116E-03   -0.52338E-03  6048   0.778E-03 0.498E-03
CGA:   9    -0.369519968395E+03   -0.25024E-03   -0.24860E-03  6048   0.307E-03 0.650E-04
CGA:  10    -0.369520076368E+03   -0.10797E-03   -0.13733E-03  6048   0.301E-03-0.170E-03
CGA:  11    -0.369520130028E+03   -0.53659E-04   -0.53596E-04  6048   0.401E-04-0.101E-05
CGA:  12    -0.369520153466E+03   -0.23439E-04    0.24675E-04  6048   0.880E-05 0.773E-05
CGA:  13    -0.369520160593E+03   -0.71270E-05    0.33145E-05  6048   0.411E-05 0.454E-05
  76 F= -.36952016E+03 E0= -.36952016E+03  d E =-.597661E-01  mag=    20.0000
       N       E                     dE             d eps       ncg     rms          ort
SDA:   1    -0.369430911647E+03    0.89242E-01    0.00000E+00  6048   0.243E+00 0.000E+00
CGA:   2    -0.369500941969E+03   -0.70030E-01   -0.69977E-01  6048   0.844E-01 0.882E-03
CGA:   3    -0.369517648273E+03   -0.16706E-01   -0.16753E-01  6048   0.322E-01 0.109E-02
CGA:   4    -0.369523180811E+03   -0.55325E-02   -0.55400E-02  6048   0.689E-02 0.963E-04
CGA:   5    -0.369524657773E+03   -0.14770E-02   -0.14599E-02  6048   0.279E-02-0.770E-03
CGA:   6    -0.369525249361E+03   -0.59159E-03   -0.59682E-03  6048   0.145E-02-0.605E-03
CGA:   7    -0.369525476978E+03   -0.22762E-03   -0.22882E-03  6048   0.442E-03 0.387E-04
CGA:   8    -0.369525526573E+03   -0.49595E-04   -0.65478E-04  6048   0.162E-03 0.183E-03
CGA:   9    -0.369525545284E+03   -0.18711E-04   -0.29097E-04  6048   0.692E-04 0.104E-03
CGA:  10    -0.369525405398E+03    0.13989E-03   -0.78067E-04  6048   0.111E-02-0.194E-03
CGA:  11    -0.369525556913E+03   -0.15152E-03   -0.17753E-03  6048   0.799E-04 0.106E-03
CGA:  12    -0.369525592980E+03   -0.36067E-04   -0.37937E-04  6048   0.606E-04-0.456E-04
CGA:  13    -0.369525603428E+03   -0.10448E-04   -0.11737E-04  6048   0.354E-05 0.640E-05
CGA:  14    -0.369525603179E+03    0.24929E-06   -0.42348E-06  6048   0.160E-05 0.243E-05
  77 F= -.36952560E+03 E0= -.36952560E+03  d E =-.544259E-02  mag=    20.0000
       N       E                     dE             d eps       ncg     rms          ort
SDA:   1    -0.369508191844E+03    0.17412E-01    0.00000E+00  6048   0.527E-01 0.000E+00
CGA:   2    -0.369520318381E+03   -0.12127E-01   -0.12135E-01  6048   0.223E-01 0.238E-04
CGA:   3    -0.369524503027E+03   -0.41846E-02   -0.42165E-02  6048   0.766E-02 0.186E-03
CGA:   4    -0.369525828454E+03   -0.13254E-02   -0.13404E-02  6048   0.168E-02 0.864E-04
CGA:   5    -0.369526181578E+03   -0.35312E-03   -0.33698E-03  6048   0.563E-03-0.121E-03
CGA:   6    -0.369526327038E+03   -0.14546E-03   -0.13416E-03  6048   0.330E-03-0.163E-03
CGA:   7    -0.369526380245E+03   -0.53207E-04   -0.50939E-04  6048   0.120E-03-0.216E-04
CGA:   8    -0.369526388412E+03   -0.81666E-05   -0.15933E-04  6048   0.443E-04 0.443E-04
  78 F= -.36952639E+03 E0= -.36952639E+03  d E =-.785233E-03  mag=    20.0000
       N       E                     dE             d eps       ncg     rms          ort
SDA:   1    -0.369430128278E+03    0.96252E-01    0.00000E+00  6048   0.315E+00 0.000E+00
CGA:   2    -0.369490159047E+03   -0.60031E-01   -0.60066E-01  6048   0.128E+00-0.130E-04
CGA:   3    -0.369515401829E+03   -0.25243E-01   -0.25249E-01  6048   0.472E-01-0.980E-05
CGA:   4    -0.369523628324E+03   -0.82265E-02   -0.82422E-02  6048   0.105E-01 0.125E-03
CGA:   5    -0.369525502296E+03   -0.18740E-02   -0.18654E-02  6048   0.286E-02-0.857E-04
CGA:   6    -0.369526134182E+03   -0.63189E-03   -0.62017E-03  6048   0.107E-02-0.199E-03
CGA:   7    -0.369526378156E+03   -0.24397E-03   -0.24178E-03  6048   0.451E-03-0.703E-04
CGA:   8    -0.369526471099E+03   -0.92943E-04   -0.95472E-04  6048   0.160E-03 0.538E-04
CGA:   9    -0.369526515643E+03   -0.44544E-04   -0.45149E-04  6048   0.636E-04 0.325E-04
CGA:  10    -0.369526543959E+03   -0.28316E-04   -0.30961E-04  6048   0.626E-04-0.198E-04
CGA:  11    -0.369526556231E+03   -0.12272E-04   -0.12394E-04  6048   0.358E-04-0.115E-04
CGA:  12    -0.369526564181E+03   -0.79498E-05   -0.79120E-05  6048   0.195E-04-0.569E-05
  79 F= -.36952656E+03 E0= -.36952656E+03  d E =-.175769E-03  mag=    20.0000
       N       E                     dE             d eps       ncg     rms          ort
SDA:   1    -0.369449809274E+03    0.76747E-01    0.00000E+00  6048   0.253E+00 0.000E+00
CGA:   2    -0.369503726897E+03   -0.53918E-01   -0.53889E-01  6048   0.850E-01-0.687E-03
CGA:   3    -0.369521212674E+03   -0.17486E-01   -0.17445E-01  6048   0.341E-01-0.606E-03
CGA:   4    -0.369526815172E+03   -0.56025E-02   -0.56078E-02  6048   0.748E-02 0.373E-04
CGA:   5    -0.369528126343E+03   -0.13112E-02   -0.13344E-02  6048   0.210E-02 0.253E-03
CGA:   6    -0.369528518130E+03   -0.39179E-03   -0.40484E-03  6048   0.679E-03 0.167E-03
CGA:   7    -0.369528708060E+03   -0.18993E-03   -0.18999E-03  6048   0.316E-03 0.357E-04
CGA:   8    -0.369528820949E+03   -0.11289E-03   -0.12091E-03  6048   0.260E-03-0.784E-04
CGA:   9    -0.369528873872E+03   -0.52923E-04   -0.53036E-04  6048   0.109E-03-0.218E-04
CGA:  10    -0.369528887333E+03   -0.13461E-04   -0.16663E-04  6048   0.448E-04 0.320E-04
CGA:  11    -0.369528891802E+03   -0.44691E-05   -0.78096E-05  6048   0.209E-04 0.264E-04
  80 F= -.36952889E+03 E0= -.36952889E+03  d E =-.232762E-02  mag=    20.0000
       N       E                     dE             d eps       ncg     rms          ort
SDA:   1    -0.369260353465E+03    0.26853E+00    0.00000E+00  6048   0.794E+00 0.000E+00
CGA:   2    -0.369440570875E+03   -0.18022E+00   -0.18023E+00  6048   0.308E+00-0.498E-03
CGA:   3    -0.369502534522E+03   -0.61964E-01   -0.61919E-01  6048   0.111E+00-0.977E-03
CGA:   4    -0.369520501872E+03   -0.17967E-01   -0.17988E-01  6048   0.218E-01 0.187E-03
CGA:   5    -0.369524499005E+03   -0.39971E-02   -0.40247E-02  6048   0.607E-02 0.421E-03
CGA:   6    -0.369525727025E+03   -0.12280E-02   -0.12373E-02  6048   0.212E-02 0.203E-03
CGA:   7    -0.369526305846E+03   -0.57882E-03   -0.57899E-03  6048   0.103E-02-0.921E-05
CGA:   8    -0.369526621808E+03   -0.31596E-03   -0.32429E-03  6048   0.631E-03-0.115E-03
CGA:   9    -0.369526786472E+03   -0.16466E-03   -0.16612E-03  6048   0.253E-03-0.304E-04
CGA:  10    -0.369526839555E+03   -0.53083E-04   -0.54404E-04  6048   0.844E-04 0.539E-04
CGA:  11    -0.369526859934E+03   -0.20379E-04   -0.21582E-04  6048   0.342E-04 0.314E-04
CGA:  12    -0.369526875218E+03   -0.15284E-04   -0.15072E-04  6048   0.210E-04 0.284E-05
CGA:  13    -0.369526878694E+03   -0.34767E-05   -0.17261E-04  6048   0.511E-04-0.271E-04
CGA:  14    -0.369526891728E+03   -0.13034E-04   -0.13086E-04  6048   0.868E-05 0.254E-05
CGA:  15    -0.369526896965E+03   -0.52365E-05    0.28279E-04  6048   0.171E-05 0.251E-05
  81 F= -.36952690E+03 E0= -.36952690E+03  d E =0.199484E-02  mag=    20.0000
       N       E                     dE             d eps       ncg     rms          ort
SDA:   1    -0.369455420333E+03    0.71471E-01    0.00000E+00  6048   0.187E+00 0.000E+00
CGA:   2    -0.369511584037E+03   -0.56164E-01   -0.56155E-01  6048   0.588E-01 0.756E-03
CGA:   3    -0.369525441962E+03   -0.13858E-01   -0.13889E-01  6048   0.156E-01 0.522E-03
CGA:   4    -0.369528245260E+03   -0.28033E-02   -0.27764E-02  6048   0.493E-02-0.250E-03
CGA:   5    -0.369529242053E+03   -0.99679E-03   -0.97486E-03  6048   0.146E-02-0.270E-03
CGA:   6    -0.369529584411E+03   -0.34236E-03   -0.33833E-03  6048   0.730E-03-0.120E-03
CGA:   7    -0.369529725301E+03   -0.14089E-03   -0.14254E-03  6048   0.235E-03 0.255E-04
CGA:   8    -0.369529769595E+03   -0.44294E-04   -0.48932E-04  6048   0.794E-04 0.641E-04
CGA:   9    -0.369529791844E+03   -0.22249E-04   -0.23058E-04  6048   0.315E-04 0.192E-04
CGA:  10    -0.369529800604E+03   -0.87598E-05   -0.24692E-04  6048   0.976E-04-0.438E-04
CGA:  11    -0.369529813540E+03   -0.12936E-04   -0.14980E-04  6048   0.117E-04 0.154E-04
CGA:  12    -0.369529818033E+03   -0.44928E-05   -0.46443E-05  6048   0.528E-05-0.238E-05
  82 F= -.36952982E+03 E0= -.36952982E+03  d E =-.292107E-02  mag=    20.0000
       N       E                     dE             d eps       ncg     rms          ort
SDA:   1    -0.369522769191E+03    0.70443E-02    0.00000E+00  6048   0.254E-01 0.000E+00
CGA:   2    -0.369527748112E+03   -0.49789E-02   -0.49958E-02  6048   0.956E-02 0.170E-03
CGA:   3    -0.369529636901E+03   -0.18888E-02   -0.18970E-02  6048   0.365E-02 0.950E-04
CGA:   4    -0.369530302224E+03   -0.66532E-03   -0.66205E-03  6048   0.856E-03-0.357E-04
CGA:   5    -0.369530460050E+03   -0.15783E-03   -0.15610E-03  6048   0.260E-03-0.205E-04
CGA:   6    -0.369530507655E+03   -0.47605E-04   -0.48430E-04  6048   0.796E-04 0.110E-04
CGA:   7    -0.369530524399E+03   -0.16744E-04   -0.17467E-04  6048   0.291E-04 0.141E-04
CGA:   8    -0.369530533469E+03   -0.90697E-05   -0.90482E-05  6048   0.148E-04 0.401E-05
  83 F= -.36953053E+03 E0= -.36953053E+03  d E =-.715436E-03  mag=    20.0000
       N       E                     dE             d eps       ncg     rms          ort
SDA:   1    -0.369518564446E+03    0.11960E-01    0.00000E+00  6048   0.354E-01 0.000E+00
CGA:   2    -0.369526355358E+03   -0.77909E-02   -0.77990E-02  6048   0.180E-01 0.159E-03
CGA:   3    -0.369529708792E+03   -0.33534E-02   -0.33593E-02  6048   0.510E-02 0.680E-04
CGA:   4    -0.369530582488E+03   -0.87370E-03   -0.87129E-03  6048   0.104E-02-0.291E-04
CGA:   5    -0.369530769667E+03   -0.18718E-03   -0.18855E-03  6048   0.287E-03 0.188E-04
CGA:   6    -0.369530820810E+03   -0.51144E-04   -0.53652E-04  6048   0.794E-04 0.380E-04
CGA:   7    -0.369530839167E+03   -0.18357E-04   -0.18923E-04  6048   0.298E-04 0.158E-04
CGA:   8    -0.369530851203E+03   -0.12036E-04   -0.12772E-04  6048   0.255E-04-0.655E-05
CGA:   9    -0.369530855405E+03   -0.42023E-05   -0.42684E-05  6048   0.118E-04 0.187E-05
  84 F= -.36953086E+03 E0= -.36953086E+03  d E =-.321937E-03  mag=    20.0000
