       N       E                     dE             d eps       ncg     rms          rms(c)
DAV:   1     0.231404086247E+04    0.23140E+04   -0.12013E+05 39968   0.147E+03
DAV:   2    -0.907800313302E+02   -0.24048E+04   -0.23228E+04 42528   0.400E+02
DAV:   3    -0.315640786899E+03   -0.22486E+03   -0.22071E+03 45144   0.139E+02
DAV:   4    -0.324181561475E+03   -0.85408E+01   -0.84023E+01 55544   0.304E+01
DAV:   5    -0.324619132974E+03   -0.43757E+00   -0.43600E+00 63744   0.494E+00    0.842E+01
DAV:   6    -0.293845351565E+03    0.30774E+02   -0.43663E+02 53640   0.655E+01    0.838E+01
DAV:   7    -0.289398390217E+03    0.44470E+01   -0.21954E+02 55696   0.131E+02    0.440E+01
DAV:   8    -0.279388983294E+03    0.10009E+02   -0.11562E+02 54672   0.355E+01    0.342E+01
DAV:   9    -0.276808815808E+03    0.25802E+01   -0.15497E+02 54208   0.206E+01    0.254E+01
DAV:  10    -0.270719868951E+03    0.60889E+01   -0.37152E+01 53344   0.152E+01    0.247E+01
DAV:  11    -0.269941659022E+03    0.77821E+00   -0.61368E+01 54920   0.137E+01    0.199E+01
DAV:  12    -0.269892986514E+03    0.48673E-01   -0.10182E+01 53928   0.385E+00    0.241E+01
DAV:  13    -0.269004286420E+03    0.88870E+00   -0.17221E+01 55448   0.590E+00    0.209E+01
DAV:  14    -0.268143181925E+03    0.86110E+00   -0.26492E+00 53744   0.332E+00    0.160E+01
DAV:  15    -0.268218214097E+03   -0.75032E-01   -0.99958E-02 46984   0.785E-01    0.173E+01
DAV:  16    -0.268180966725E+03    0.37247E-01   -0.35718E-02 44160   0.437E-01    0.175E+01
DAV:  17    -0.268137359684E+03    0.43607E-01   -0.11652E-01 51752   0.343E-01    0.178E+01
DAV:  18    -0.268141945823E+03   -0.45861E-02   -0.49638E-02 45856   0.448E-01    0.175E+01
DAV:  19    -0.268017926604E+03    0.12402E+00   -0.52800E-01 54424   0.154E+00    0.147E+01
DAV:  20    -0.267976205474E+03    0.41721E-01   -0.22544E-01 51848   0.117E+00    0.143E+01
DAV:  21    -0.267831237253E+03    0.14497E+00   -0.18698E-01 53888   0.935E-01    0.141E+01
DAV:  22    -0.267818772613E+03    0.12465E-01   -0.13946E-02 42520   0.368E-01    0.141E+01
DAV:  23    -0.267754829957E+03    0.63943E-01   -0.11822E-02 57880   0.374E-01    0.140E+01
DAV:  24    -0.267693661130E+03    0.61169E-01   -0.45861E+00 56568   0.299E+00    0.142E+01
DAV:  25    -0.267661611077E+03    0.32050E-01   -0.15766E+00 53080   0.262E+00    0.114E+01
DAV:  26    -0.267609724755E+03    0.51886E-01   -0.23003E-01 49728   0.113E+00    0.112E+01
DAV:  27    -0.267599412206E+03    0.10313E-01   -0.14046E-02 40368   0.519E-01    0.115E+01
DAV:  28    -0.267534818441E+03    0.64594E-01   -0.51103E-02 54832   0.594E-01    0.107E+01
DAV:  29    -0.267529417105E+03    0.54013E-02   -0.13329E-02 51896   0.252E-01    0.104E+01
DAV:  30    -0.267536056691E+03   -0.66396E-02   -0.77130E-04 43504   0.106E-01    0.103E+01
DAV:  31    -0.267558417672E+03   -0.22361E-01   -0.10920E-02 52400   0.195E-01    0.103E+01
DAV:  32    -0.267572317562E+03   -0.13900E-01   -0.17948E-02 53920   0.278E-01    0.101E+01
DAV:  33    -0.267581755107E+03   -0.94375E-02   -0.28789E-03 47512   0.141E-01    0.101E+01
DAV:  34    -0.267601065297E+03   -0.19310E-01   -0.26817E-02 53624   0.443E-01    0.981E+00
DAV:  35    -0.267557343486E+03    0.43722E-01   -0.88763E-01 53744   0.210E+00    0.106E+01
DAV:  36    -0.267438452393E+03    0.11889E+00   -0.22881E-01 52944   0.136E+00    0.106E+01
DAV:  37    -0.267416224582E+03    0.22228E-01   -0.30982E-02 50952   0.441E-01    0.101E+01
DAV:  38    -0.267421555894E+03   -0.53313E-02   -0.12818E-02 51016   0.393E-01    0.107E+01
DAV:  39    -0.267387381847E+03    0.34174E-01   -0.93503E-02 52464   0.646E-01    0.974E+00
DAV:  40    -0.267437509856E+03   -0.50128E-01   -0.32531E-01 53816   0.152E+00    0.105E+01
DAV:  41    -0.267488290961E+03   -0.50781E-01   -0.27479E-01 54016   0.112E+00    0.993E+00
DAV:  42    -0.267515337128E+03   -0.27046E-01   -0.22100E-02 42312   0.657E-01    0.104E+01
DAV:  43    -0.267522514957E+03   -0.71778E-02   -0.55696E-03 51096   0.219E-01    0.107E+01
DAV:  44    -0.267515047992E+03    0.74670E-02   -0.10407E-01 52664   0.699E-01    0.101E+01
DAV:  45    -0.267549497206E+03   -0.34449E-01   -0.64843E-02 53728   0.752E-01    0.101E+01
DAV:  46    -0.267544691372E+03    0.48058E-02   -0.41818E-03 41728   0.245E-01    0.102E+01
DAV:  47    -0.267517815149E+03    0.26876E-01   -0.31669E-02 52408   0.502E-01    0.988E+00
DAV:  48    -0.267437639095E+03    0.80176E-01   -0.30596E-01 53624   0.132E+00    0.957E+00
DAV:  49    -0.267419456832E+03    0.18182E-01   -0.29617E-01 51952   0.171E+00    0.944E+00
DAV:  50    -0.267426692900E+03   -0.72361E-02   -0.35263E-02 52216   0.485E-01    0.951E+00
DAV:  51    -0.267410494099E+03    0.16199E-01   -0.15515E-01 52520   0.747E-01    0.106E+01
DAV:  52    -0.267491656030E+03   -0.81162E-01   -0.95135E-02 51976   0.108E+00    0.976E+00
DAV:  53    -0.267546054873E+03   -0.54399E-01   -0.14519E-01 54128   0.122E+00    0.901E+00
DAV:  54    -0.267543284280E+03    0.27706E-02   -0.73509E-02 54408   0.806E-01    0.843E+00
DAV:  55    -0.267509490575E+03    0.33794E-01   -0.19508E-01 53648   0.117E+00    0.792E+00
DAV:  56    -0.265779677869E+03    0.17298E+01   -0.11485E+01 52816   0.798E+00    0.199E+01
DAV:  57    -0.267153865254E+03   -0.13742E+01   -0.61313E-01 46016   0.272E+00    0.177E+01
DAV:  58    -0.267227095742E+03   -0.73230E-01   -0.57938E-02 49312   0.744E-01    0.168E+01
DAV:  59    -0.267354286727E+03   -0.12719E+00   -0.24010E-01 51976   0.115E+00    0.142E+01
DAV:  60    -0.267429697438E+03   -0.75411E-01   -0.16154E-02 49528   0.473E-01    0.140E+01
DAV:  61    -0.267747017650E+03   -0.31732E+00   -0.58214E-01 52072   0.251E+00    0.109E+01
DAV:  62    -0.267732182753E+03    0.14835E-01   -0.66254E-02 53304   0.982E-01    0.108E+01
DAV:  63    -0.267723019801E+03    0.91630E-02   -0.12865E-01 53768   0.128E+00    0.112E+01
DAV:  64    -0.267734269230E+03   -0.11249E-01   -0.93845E-03 41912   0.350E-01    0.113E+01
DAV:  65    -0.267714300334E+03    0.19969E-01   -0.44423E-02 53312   0.926E-01    0.108E+01
DAV:  66    -0.267776500652E+03   -0.62200E-01   -0.49815E-01 53472   0.270E+00    0.125E+01
DAV:  67    -0.267808201365E+03   -0.31701E-01   -0.49011E-02 43232   0.756E-01    0.121E+01
DAV:  68    -0.267845671718E+03   -0.37470E-01   -0.22407E-02 53368   0.637E-01    0.113E+01
DAV:  69    -0.267944271422E+03   -0.98600E-01   -0.10406E-01 51304   0.938E-01    0.977E+00
DAV:  70    -0.268000130154E+03   -0.55859E-01   -0.31544E-01 54176   0.110E+00    0.976E+00
DAV:  71    -0.268045658900E+03   -0.45529E-01   -0.20477E+00 53632   0.317E+00    0.137E+01
DAV:  72    -0.267996627719E+03    0.49031E-01   -0.85372E-02 45728   0.111E+00    0.132E+01
DAV:  73    -0.267930204079E+03    0.66424E-01   -0.44214E-02 54144   0.726E-01    0.125E+01
DAV:  74    -0.267860304760E+03    0.69899E-01   -0.27473E-02 53944   0.877E-01    0.132E+01
DAV:  75    -0.267728650773E+03    0.13165E+00   -0.16128E-02 53504   0.668E-01    0.123E+01
DAV:  76    -0.267785890692E+03   -0.57240E-01   -0.11210E-01 53608   0.158E+00    0.110E+01
DAV:  77    -0.267788026315E+03   -0.21356E-02   -0.21359E-02 52072   0.550E-01    0.109E+01
DAV:  78    -0.267789313716E+03   -0.12874E-02   -0.65609E-03 54552   0.342E-01    0.108E+01
DAV:  79    -0.267763253444E+03    0.26060E-01   -0.16775E-02 56888   0.707E-01    0.106E+01
DAV:  80    -0.267676282505E+03    0.86971E-01   -0.85050E-02 54776   0.123E+00    0.860E+00
DAV:  81    -0.267747575068E+03   -0.71293E-01   -0.48929E-01 52168   0.187E+00    0.115E+01
DAV:  82    -0.267762847198E+03   -0.15272E-01   -0.73454E-02 44936   0.529E-01    0.118E+01
DAV:  83    -0.267761208619E+03    0.16386E-02   -0.46800E-02 43160   0.459E-01    0.118E+01
DAV:  84    -0.267818730742E+03   -0.57522E-01   -0.15797E-01 51944   0.624E-01    0.130E+01
DAV:  85    -0.267799089266E+03    0.19641E-01   -0.91088E-03 39920   0.446E-01    0.129E+01
DAV:  86    -0.267679574678E+03    0.11951E+00   -0.10471E+00 53656   0.390E+00    0.807E+00
DAV:  87    -0.267296981865E+03    0.38259E+00   -0.10325E+00 53016   0.260E+00    0.783E+00
DAV:  88    -0.267351907486E+03   -0.54926E-01   -0.75561E-02 47680   0.848E-01    0.932E+00
DAV:  89    -0.267390425789E+03   -0.38518E-01   -0.46952E-02 51560   0.707E-01    0.820E+00
DAV:  90    -0.267461783331E+03   -0.71358E-01   -0.44076E-02 53520   0.583E-01    0.915E+00
DAV:  91    -0.267690177349E+03   -0.22839E+00   -0.43804E-01 53256   0.299E+00    0.106E+01
DAV:  92    -0.267782649076E+03   -0.92472E-01   -0.40229E-01 53440   0.171E+00    0.107E+01
DAV:  93    -0.268063237415E+03   -0.28059E+00   -0.28504E+00 52224   0.246E+00    0.175E+01
DAV:  94    -0.268354316063E+03   -0.29108E+00   -0.95528E-02 43240   0.122E+00    0.200E+01
DAV:  95    -0.268243745034E+03    0.11057E+00   -0.13716E-02 49760   0.548E-01    0.201E+01
DAV:  96    -0.268210349183E+03    0.33396E-01   -0.28538E-01 52800   0.199E+00    0.211E+01
DAV:  97    -0.268499376080E+03   -0.28903E+00   -0.10500E-01 52936   0.158E+00    0.213E+01
DAV:  98    -0.268017781617E+03    0.48159E+00   -0.17186E-01 53416   0.138E+00    0.200E+01
DAV:  99    -0.267837381883E+03    0.18040E+00   -0.11552E+00 53416   0.174E+00    0.166E+01
DAV: 100    -0.267827771758E+03    0.96101E-02   -0.10826E-01 49024   0.108E+00    0.169E+01
DAV: 101    -0.267612705888E+03    0.21507E+00   -0.80892E-02 53736   0.107E+00    0.168E+01
DAV: 102    -0.267435437807E+03    0.17727E+00   -0.93501E-02 53824   0.151E+00    0.114E+01
DAV: 103    -0.267558977824E+03   -0.12354E+00   -0.30501E-02 41584   0.768E-01    0.111E+01
DAV: 104    -0.267556182061E+03    0.27958E-02   -0.20483E-03 45672   0.201E-01    0.111E+01
DAV: 105    -0.267514065324E+03    0.42117E-01   -0.41216E-03 52912   0.233E-01    0.112E+01
DAV: 106    -0.267115912082E+03    0.39815E+00   -0.23051E-01 53456   0.207E+00    0.112E+01
DAV: 107    -0.267435659252E+03   -0.31975E+00   -0.89495E-02 51360   0.122E+00    0.106E+01
DAV: 108    -0.267456519584E+03   -0.20860E-01   -0.96982E-03 50736   0.301E-01    0.104E+01
DAV: 109    -0.267492260247E+03   -0.35741E-01   -0.12682E-02 52776   0.359E-01    0.102E+01
DAV: 110    -0.267460276683E+03    0.31984E-01   -0.17595E-01 53304   0.164E+00    0.120E+01
DAV: 111    -0.267523114737E+03   -0.62838E-01   -0.42956E-02 52936   0.729E-01    0.118E+01
DAV: 112    -0.267523750054E+03   -0.63532E-03   -0.38097E-03 45544   0.225E-01    0.119E+01
DAV: 113    -0.267373387367E+03    0.15036E+00   -0.36534E-02 53576   0.846E-01    0.110E+01
DAV: 114    -0.267178045344E+03    0.19534E+00   -0.10129E-01 54376   0.157E+00    0.911E+00
DAV: 115    -0.267283041479E+03   -0.10500E+00   -0.19328E-01 54264   0.135E+00    0.859E+00
DAV: 116    -0.267198471718E+03    0.84570E-01   -0.68766E-02 46752   0.127E+00    0.876E+00
DAV: 117    -0.267067298588E+03    0.13117E+00   -0.71697E-02 52880   0.107E+00    0.983E+00
DAV: 118    -0.267156824006E+03   -0.89525E-01   -0.52394E-02 52808   0.796E-01    0.984E+00
DAV: 119    -0.267578421621E+03   -0.42160E+00   -0.51722E-01 51344   0.121E+00    0.907E+00
DAV: 120    -0.267717489258E+03   -0.13907E+00   -0.14282E-01 52232   0.782E-01    0.923E+00
DAV: 121    -0.267711713702E+03    0.57756E-02   -0.14304E-02 49600   0.422E-01    0.927E+00
DAV: 122    -0.267711433237E+03    0.28046E-03   -0.17470E-03 50568   0.165E-01    0.921E+00
DAV: 123    -0.267655528012E+03    0.55905E-01   -0.59972E-03 54064   0.445E-01    0.897E+00
DAV: 124    -0.267531286841E+03    0.12424E+00   -0.27303E-02 53504   0.621E-01    0.711E+00
DAV: 125    -0.267567144031E+03   -0.35857E-01   -0.66222E-03 47360   0.289E-01    0.613E+00
DAV: 126    -0.267759896654E+03   -0.19275E+00   -0.24435E-01 50848   0.108E+00    0.824E+00
DAV: 127    -0.267711507649E+03    0.48389E-01   -0.15415E-02 43696   0.451E-01    0.796E+00
DAV: 128    -0.267645103179E+03    0.66404E-01   -0.60521E-03 53528   0.402E-01    0.772E+00
DAV: 129    -0.267617244149E+03    0.27859E-01   -0.78557E-03 51928   0.387E-01    0.559E+00
DAV: 130    -0.267673531335E+03   -0.56287E-01   -0.87606E-03 46904   0.410E-01    0.709E+00
DAV: 131    -0.267718079633E+03   -0.44548E-01   -0.22870E-02 52064   0.431E-01    0.810E+00
DAV: 132    -0.267715708591E+03    0.23710E-02   -0.49762E-03 50984   0.271E-01    0.802E+00
DAV: 133    -0.267706894477E+03    0.88141E-02   -0.46434E-03 53456   0.321E-01    0.796E+00
DAV: 134    -0.267697023254E+03    0.98712E-02   -0.40310E-03 51784   0.243E-01    0.779E+00
DAV: 135    -0.267680713289E+03    0.16310E-01   -0.16326E-03 53328   0.166E-01    0.709E+00
DAV: 136    -0.267634014803E+03    0.46698E-01   -0.15851E-02 50936   0.457E-01    0.401E+00
DAV: 137    -0.267673010990E+03   -0.38996E-01   -0.80301E-03 38592   0.439E-01    0.397E+00
DAV: 138    -0.267677240221E+03   -0.42292E-02   -0.17438E-03 40728   0.215E-01    0.429E+00
DAV: 139    -0.267679320643E+03   -0.20804E-02   -0.23419E-03 47560   0.191E-01    0.482E+00
DAV: 140    -0.267672072440E+03    0.72482E-02   -0.60038E-04 40512   0.114E-01    0.489E+00
DAV: 141    -0.267723605231E+03   -0.51533E-01   -0.56088E-02 52656   0.866E-01    0.678E+00
DAV: 142    -0.267754660886E+03   -0.31056E-01   -0.13447E-02 45856   0.370E-01    0.884E+00
DAV: 143    -0.267756031918E+03   -0.13710E-02   -0.25582E-03 40760   0.235E-01    0.969E+00
DAV: 144    -0.267747334887E+03    0.86970E-02   -0.60748E-04 41536   0.119E-01    0.984E+00
DAV: 145    -0.267718733182E+03    0.28602E-01   -0.61859E-03 52448   0.191E-01    0.876E+00
DAV: 146    -0.267660861487E+03    0.57872E-01   -0.31574E-01 50448   0.183E+00    0.747E+00
DAV: 147    -0.267754089202E+03   -0.93228E-01   -0.45817E-02 42256   0.102E+00    0.875E+00
DAV: 148    -0.267740197513E+03    0.13892E-01   -0.16282E-02 51896   0.435E-01    0.893E+00
DAV: 149    -0.267734798494E+03    0.53990E-02   -0.14575E-03 44312   0.130E-01    0.898E+00
DAV: 150    -0.267738925818E+03   -0.41273E-02   -0.20831E-03 53016   0.178E-01    0.904E+00
DAV: 151    -0.267689574257E+03    0.49352E-01   -0.23946E-02 52048   0.613E-01    0.850E+00
DAV: 152    -0.267683593463E+03    0.59808E-02   -0.10344E-02 54176   0.427E-01    0.835E+00
DAV: 153    -0.267639581932E+03    0.44012E-01   -0.14904E-02 54888   0.669E-01    0.438E+00
DAV: 154    -0.267677533060E+03   -0.37951E-01   -0.64450E-02 52984   0.959E-01    0.310E+00
DAV: 155    -0.267728700297E+03   -0.51167E-01   -0.78934E-02 48344   0.712E-01    0.455E+00
DAV: 156    -0.267733081384E+03   -0.43811E-02   -0.14909E-02 43888   0.380E-01    0.482E+00
DAV: 157    -0.267729437472E+03    0.36439E-02   -0.10554E-03 43472   0.129E-01    0.488E+00
DAV: 158    -0.267726918990E+03    0.25185E-02   -0.40446E-03 53344   0.110E-01    0.461E+00
DAV: 159    -0.267740267607E+03   -0.13349E-01   -0.80915E-03 52176   0.295E-01    0.451E+00
DAV: 160    -0.267740966413E+03   -0.69881E-03   -0.21378E-02 51880   0.266E-01    0.425E+00
DAV: 161    -0.267737385265E+03    0.35811E-02   -0.10568E-02 51808   0.244E-01    0.421E+00
DAV: 162    -0.267738378435E+03   -0.99317E-03   -0.50734E-03 50232   0.147E-01    0.430E+00
DAV: 163    -0.267738762741E+03   -0.38431E-03   -0.43820E-04 40904   0.563E-02    0.431E+00
DAV: 164    -0.267738335855E+03    0.42689E-03   -0.37859E-03 51384   0.163E-01    0.435E+00
DAV: 165    -0.267743262601E+03   -0.49267E-02   -0.16462E-02 51816   0.267E-01    0.463E+00
DAV: 166    -0.267746249007E+03   -0.29864E-02   -0.47295E-03 50080   0.178E-01    0.462E+00
DAV: 167    -0.267749946013E+03   -0.36970E-02   -0.11174E-02 50160   0.218E-01    0.444E+00
DAV: 168    -0.267753811977E+03   -0.38660E-02   -0.15097E-03 49008   0.110E-01    0.438E+00
DAV: 169    -0.267755610639E+03   -0.17987E-02   -0.63302E-04 46760   0.499E-02    0.437E+00
DAV: 170    -0.267758163465E+03   -0.25528E-02   -0.81892E-04 41672   0.577E-02    0.440E+00
DAV: 171    -0.267755218776E+03    0.29447E-02   -0.99586E-04 47432   0.938E-02    0.438E+00
DAV: 172    -0.267755180422E+03    0.38354E-04   -0.31917E-05 30360   0.228E-02    0.438E+00
DAV: 173    -0.267755121414E+03    0.59008E-04   -0.28568E-06 25552   0.770E-03    0.438E+00
DAV: 174    -0.267754953187E+03    0.16823E-03   -0.29787E-05 26384   0.150E-02    0.438E+00
DAV: 175    -0.267754344059E+03    0.60913E-03   -0.19634E-04 46296   0.430E-02    0.435E+00
DAV: 176    -0.267752347638E+03    0.19964E-02   -0.20080E-03 52616   0.135E-01    0.427E+00
DAV: 177    -0.267753429383E+03   -0.10817E-02   -0.17941E-03 53528   0.915E-02    0.433E+00
DAV: 178    -0.267754373054E+03   -0.94367E-03   -0.13950E-04 39712   0.399E-02    0.437E+00
DAV: 179    -0.267755281855E+03   -0.90880E-03   -0.29572E-04 33880   0.326E-02    0.446E+00
DAV: 180    -0.267754897321E+03    0.38453E-03   -0.53541E-04 38648   0.469E-02    0.452E+00
DAV: 181    -0.267959765104E+03   -0.20487E+00   -0.23153E-01 50544   0.118E+00    0.128E+01
DAV: 182    -0.268003110575E+03   -0.43345E-01   -0.29613E-02 39592   0.774E-01    0.135E+01
DAV: 183    -0.267945103113E+03    0.58007E-01   -0.91602E-03 52712   0.313E-01    0.137E+01
DAV: 184    -0.267970002761E+03   -0.24900E-01   -0.64199E-03 50952   0.291E-01    0.135E+01
DAV: 185    -0.267975226420E+03   -0.52237E-02   -0.71526E-04 50856   0.650E-02    0.134E+01
DAV: 186    -0.267970621914E+03    0.46045E-02   -0.47154E-02 51960   0.573E-01    0.125E+01
DAV: 187    -0.267933587793E+03    0.37034E-01   -0.27667E-02 51072   0.389E-01    0.122E+01
DAV: 188    -0.267933622977E+03   -0.35184E-04   -0.20800E-02 53248   0.406E-01    0.121E+01
DAV: 189    -0.267929733820E+03    0.38892E-02   -0.11471E-02 52688   0.255E-01    0.123E+01
DAV: 190    -0.267916812929E+03    0.12921E-01   -0.19138E-02 53064   0.210E-01    0.121E+01
DAV: 191    -0.267948028976E+03   -0.31216E-01   -0.80440E-03 52168   0.220E-01    0.121E+01
DAV: 192    -0.267973685669E+03   -0.25657E-01   -0.24712E-03 51072   0.171E-01    0.124E+01
DAV: 193    -0.267970216270E+03    0.34694E-02   -0.68309E-03 50944   0.293E-01    0.121E+01
DAV: 194    -0.267955815894E+03    0.14400E-01   -0.46257E-03 53384   0.224E-01    0.120E+01
DAV: 195    -0.267944569592E+03    0.11246E-01   -0.13900E-03 52944   0.966E-02    0.120E+01
DAV: 196    -0.268033783463E+03   -0.89214E-01   -0.37937E-01 52936   0.170E+00    0.127E+01
DAV: 197    -0.267967574356E+03    0.66209E-01   -0.48265E-02 48728   0.753E-01    0.124E+01
DAV: 198    -0.267865352907E+03    0.10222E+00   -0.17114E-01 52976   0.766E-01    0.134E+01
DAV: 199    -0.267913319815E+03   -0.47967E-01   -0.23243E-01 49304   0.787E-01    0.121E+01
DAV: 200    -0.267812804868E+03    0.10051E+00   -0.24130E-01 51848   0.916E-01
   1 F= -.26781280E+03 E0= -.26780158E+03  d E =-.267813E+03  mag=     1.5957
       N       E                     dE             d eps       ncg     rms          rms(c)
DAV:   1    -0.267810019511E+03    0.10330E+00   -0.11089E-01 51216   0.782E-01    0.161E+01
DAV:   2    -0.278070428806E+03   -0.10260E+02   -0.11414E+02 55000   0.300E+01    0.343E+01
DAV:   3    -0.271284712405E+03    0.67857E+01   -0.21143E+01 53072   0.218E+01    0.269E+01
DAV:   4    -0.269150411970E+03    0.21343E+01   -0.71649E+00 54560   0.668E+00    0.185E+01
DAV:   5    -0.268742434506E+03    0.40798E+00   -0.54710E+00 53984   0.488E+00    0.183E+01
DAV:   6    -0.268043001356E+03    0.69943E+00   -0.16694E+00 55024   0.411E+00    0.124E+01
DAV:   7    -0.267813280672E+03    0.22972E+00   -0.95234E-01 58400   0.438E+00    0.123E+01
DAV:   8    -0.267772709954E+03    0.40571E-01   -0.15330E-01 45592   0.149E+00    0.110E+01
DAV:   9    -0.267879731390E+03   -0.10702E+00   -0.76897E-02 53576   0.984E-01    0.121E+01
DAV:  10    -0.267629440111E+03    0.25029E+00   -0.32841E-01 53392   0.233E+00    0.497E+00
DAV:  11    -0.267750695016E+03   -0.12125E+00   -0.11526E-01 49216   0.109E+00    0.392E+00
DAV:  12    -0.267757929070E+03   -0.72341E-02   -0.33939E-02 54112   0.521E-01    0.360E+00
DAV:  13    -0.267749032345E+03    0.88967E-02   -0.95031E-02 53304   0.698E-01    0.345E+00
DAV:  14    -0.267750628920E+03   -0.15966E-02   -0.88943E-02 51280   0.601E-01    0.265E+00
DAV:  15    -0.267745312365E+03    0.53166E-02   -0.45451E-03 39320   0.301E-01    0.270E+00
DAV:  16    -0.267745298542E+03    0.13823E-04   -0.87315E-03 53464   0.325E-01    0.239E+00
DAV:  17    -0.267752239907E+03   -0.69414E-02   -0.32224E-02 50528   0.532E-01    0.180E+00
DAV:  18    -0.267756176782E+03   -0.39369E-02   -0.24289E-02 52760   0.300E-01    0.187E+00
DAV:  19    -0.267749490394E+03    0.66864E-02   -0.54383E-03 44376   0.270E-01    0.212E+00
DAV:  20    -0.267745463783E+03    0.40266E-02   -0.21374E-03 50928   0.131E-01    0.225E+00
DAV:  21    -0.267739890727E+03    0.55731E-02   -0.41687E-03 52128   0.185E-01    0.233E+00
DAV:  22    -0.267755423092E+03   -0.15532E-01   -0.30364E-02 47360   0.586E-01    0.187E+00
DAV:  23    -0.267761767472E+03   -0.63444E-02   -0.26186E-02 53064   0.429E-01    0.160E+00
DAV:  24    -0.267764719414E+03   -0.29519E-02   -0.12946E-02 53656   0.239E-01    0.142E+00
DAV:  25    -0.267763792143E+03    0.92727E-03   -0.41774E-03 49056   0.186E-01    0.150E+00
DAV:  26    -0.267760986054E+03    0.28061E-02   -0.14735E-03 45656   0.163E-01    0.161E+00
DAV:  27    -0.267761225283E+03   -0.23923E-03   -0.83217E-05 41768   0.355E-02    0.159E+00
DAV:  28    -0.267762004184E+03   -0.77890E-03   -0.74221E-05 35048   0.378E-02    0.156E+00
DAV:  29    -0.267767307264E+03   -0.53031E-02   -0.89284E-03 49832   0.379E-01    0.106E+00
DAV:  30    -0.267769338588E+03   -0.20313E-02   -0.21029E-02 51744   0.470E-01    0.569E-01
DAV:  31    -0.267771023563E+03   -0.16850E-02   -0.23346E-03 39976   0.150E-01    0.564E-01
DAV:  32    -0.267770969442E+03    0.54121E-04   -0.36535E-04 50160   0.615E-02    0.534E-01
DAV:  33    -0.267770868932E+03    0.10051E-03   -0.70681E-05 39120   0.260E-02    0.534E-01
DAV:  34    -0.267770560232E+03    0.30870E-03   -0.13811E-04 45744   0.440E-02    0.535E-01
DAV:  35    -0.267769739582E+03    0.82065E-03   -0.12603E-03 48248   0.112E-01    0.598E-01
DAV:  36    -0.267763619334E+03    0.61202E-02   -0.18710E-02 50080   0.424E-01    0.940E-01
DAV:  37    -0.267770248964E+03   -0.66296E-02   -0.44814E-03 45240   0.294E-01    0.678E-01
DAV:  38    -0.267769601473E+03    0.64749E-03   -0.10499E-02 50432   0.336E-01    0.435E-01
DAV:  39    -0.267769313986E+03    0.28749E-03   -0.65037E-03 54144   0.211E-01    0.347E-01
DAV:  40    -0.267770316196E+03   -0.10022E-02   -0.13120E-03 46576   0.927E-02    0.295E-01
DAV:  41    -0.267770528026E+03   -0.21183E-03   -0.36139E-04 45872   0.767E-02    0.266E-01
DAV:  42    -0.267770439729E+03    0.88297E-04   -0.25263E-04 46832   0.474E-02    0.247E-01
DAV:  43    -0.267770466185E+03   -0.26456E-04   -0.69794E-05 33264   0.268E-02    0.217E-01
DAV:  44    -0.267770547629E+03   -0.81445E-04   -0.16109E-04 45760   0.570E-02    0.130E-01
DAV:  45    -0.267770539414E+03    0.82149E-05   -0.75752E-05 43248   0.424E-02
   2 F= -.26777054E+03 E0= -.26776204E+03  d E =0.422655E-01  mag=     2.0384
       N       E                     dE             d eps       ncg     rms          rms(c)
DAV:   1    -0.268082285264E+03   -0.31174E+00   -0.54380E+00 40320   0.898E+00    0.148E+00
DAV:   2    -0.268299738506E+03   -0.21745E+00   -0.19187E+00 53704   0.291E+00    0.120E+01
DAV:   3    -0.268062596772E+03    0.23714E+00   -0.16018E+00 52536   0.231E+00    0.108E+00
DAV:   4    -0.268108259924E+03   -0.45663E-01   -0.98622E-02 52536   0.733E-01    0.256E+00
DAV:   5    -0.268100335385E+03    0.79245E-02   -0.69321E-02 53680   0.537E-01    0.671E-01
DAV:   6    -0.268101198881E+03   -0.86350E-03   -0.52450E-03 54808   0.380E-01    0.459E-01
DAV:   7    -0.268100986376E+03    0.21251E-03   -0.42081E-03 55256   0.182E-01    0.367E-01
DAV:   8    -0.268101090718E+03   -0.10434E-03   -0.29150E-03 55912   0.121E-01    0.376E-01
DAV:   9    -0.268101199751E+03   -0.10903E-03   -0.11725E-03 50840   0.721E-02    0.424E-01
DAV:  10    -0.268100540374E+03    0.65938E-03   -0.58311E-04 44616   0.872E-02    0.448E-01
DAV:  11    -0.268100017706E+03    0.52267E-03   -0.14537E-03 51888   0.974E-02    0.484E-01
DAV:  12    -0.268099484124E+03    0.53358E-03   -0.29706E-03 52760   0.133E-01    0.562E-01
DAV:  13    -0.268100468889E+03   -0.98476E-03   -0.26696E-04 40624   0.740E-02    0.509E-01
DAV:  14    -0.268100876751E+03   -0.40786E-03   -0.33704E-03 50832   0.280E-01    0.363E-01
DAV:  15    -0.268099412041E+03    0.14647E-02   -0.42895E-03 51312   0.211E-01    0.373E-01
DAV:  16    -0.268100731077E+03   -0.13190E-02   -0.78049E-04 44224   0.952E-02    0.240E-01
DAV:  17    -0.268101126477E+03   -0.39540E-03   -0.16689E-04 41752   0.440E-02    0.209E-01
DAV:  18    -0.268101113528E+03    0.12949E-04   -0.12669E-05 30024   0.135E-02    0.217E-01
DAV:  19    -0.268100992373E+03    0.12115E-03   -0.15999E-04 31744   0.303E-02    0.190E-01
DAV:  20    -0.268101265952E+03   -0.27358E-03   -0.37965E-04 46464   0.681E-02    0.110E-01
DAV:  21    -0.268101297695E+03   -0.31743E-04   -0.96478E-05 32760   0.236E-02    0.117E-01
DAV:  22    -0.268101274141E+03    0.23554E-04   -0.11806E-05 26232   0.140E-02    0.127E-01
DAV:  23    -0.268101267332E+03    0.68096E-05   -0.39979E-06 22864   0.902E-03
   3 F= -.26810127E+03 E0= -.26809284E+03  d E =-.330728E+00  mag=     2.0247
       N       E                     dE             d eps       ncg     rms          rms(c)
DAV:   1    -0.268502018887E+03   -0.40074E+00   -0.69084E+01 40320   0.317E+01    0.516E+00
DAV:   2    -0.271039291823E+03   -0.25373E+01   -0.18845E+01 53016   0.107E+01    0.258E+01
DAV:   3    -0.268788132856E+03    0.22512E+01   -0.12497E+01 53504   0.855E+00    0.101E+01
DAV:   4    -0.268797751365E+03   -0.96185E-02   -0.19703E-01 54336   0.186E+00    0.430E+00
DAV:   5    -0.268841871496E+03   -0.44120E-01   -0.68540E-01 54232   0.161E+00    0.530E+00
DAV:   6    -0.268827864596E+03    0.14007E-01   -0.53935E-01 53096   0.134E+00    0.434E+00
DAV:   7    -0.268835044496E+03   -0.71799E-02   -0.94115E-02 53280   0.864E-01    0.345E+00
DAV:   8    -0.268830119908E+03    0.49246E-02   -0.66292E-02 55648   0.674E-01    0.201E+00
DAV:   9    -0.268828507330E+03    0.16126E-02   -0.44513E-02 55392   0.535E-01    0.104E+00
DAV:  10    -0.268830934927E+03   -0.24276E-02   -0.31357E-02 58072   0.483E-01    0.128E+00
DAV:  11    -0.268832703626E+03   -0.17687E-02   -0.12678E-02 51800   0.260E-01    0.146E+00
DAV:  12    -0.268830662810E+03    0.20408E-02   -0.15289E-03 41424   0.174E-01    0.167E+00
DAV:  13    -0.268830767936E+03   -0.10513E-03   -0.31555E-03 51112   0.263E-01    0.141E+00
DAV:  14    -0.268828709332E+03    0.20586E-02   -0.14048E-02 51824   0.513E-01    0.689E-01
DAV:  15    -0.268830824962E+03   -0.21156E-02   -0.16885E-02 54840   0.254E-01    0.742E-01
DAV:  16    -0.268831569816E+03   -0.74485E-03   -0.56866E-03 50904   0.227E-01    0.819E-01
DAV:  17    -0.268831514580E+03    0.55236E-04   -0.16753E-03 52400   0.997E-02    0.659E-01
DAV:  18    -0.268831270303E+03    0.24428E-03   -0.13976E-04 40096   0.427E-02    0.670E-01
DAV:  19    -0.268831381080E+03   -0.11078E-03   -0.40148E-04 50400   0.758E-02    0.520E-01
DAV:  20    -0.268831722052E+03   -0.34097E-03   -0.15466E-03 52024   0.117E-01    0.322E-01
DAV:  21    -0.268831609941E+03    0.11211E-03   -0.65730E-04 49912   0.745E-02    0.342E-01
DAV:  22    -0.268831460937E+03    0.14900E-03   -0.42149E-04 45008   0.564E-02    0.349E-01
DAV:  23    -0.268831669366E+03   -0.20843E-03   -0.11268E-04 36632   0.340E-02    0.335E-01
DAV:  24    -0.268831685012E+03   -0.15646E-04   -0.11918E-04 36104   0.381E-02    0.302E-01
DAV:  25    -0.268831757079E+03   -0.72067E-04   -0.11001E-04 45360   0.436E-02    0.282E-01
DAV:  26    -0.268831720577E+03    0.36502E-04   -0.53634E-05 30488   0.279E-02    0.283E-01
DAV:  27    -0.268831746982E+03   -0.26404E-04   -0.56227E-05 30824   0.264E-02    0.281E-01
DAV:  28    -0.268831760527E+03   -0.13546E-04   -0.14996E-05 24400   0.130E-02    0.286E-01
DAV:  29    -0.268831750713E+03    0.98143E-05   -0.25758E-06 22176   0.592E-03
   4 F= -.26883175E+03 E0= -.26882347E+03  d E =-.730483E+00  mag=     1.9939
       N       E                     dE             d eps       ncg     rms          rms(c)
DAV:   1    -0.268923742864E+03   -0.91982E-01   -0.23768E+01 39312   0.184E+01    0.232E+00
DAV:   2    -0.269578187875E+03   -0.65445E+00   -0.54260E+00 51216   0.532E+00    0.186E+01
DAV:   3    -0.268943131621E+03    0.63506E+00   -0.29495E+00 53720   0.354E+00    0.160E+00
DAV:   4    -0.269037575193E+03   -0.94444E-01   -0.16245E-01 54480   0.955E-01    0.340E+00
DAV:   5    -0.269024455532E+03    0.13120E-01   -0.14314E-01 52496   0.735E-01    0.114E+00
DAV:   6    -0.269027284573E+03   -0.28290E-02   -0.11696E-02 53552   0.398E-01    0.976E-01
DAV:   7    -0.269026206944E+03    0.10776E-02   -0.94711E-03 57696   0.400E-01    0.881E-01
DAV:   8    -0.269025565538E+03    0.64141E-03   -0.10346E-02 54688   0.292E-01    0.811E-01
DAV:   9    -0.269025671505E+03   -0.10597E-03   -0.49880E-03 52576   0.158E-01    0.759E-01
DAV:  10    -0.269025458083E+03    0.21342E-03   -0.99567E-04 51656   0.858E-02    0.785E-01
DAV:  11    -0.269024005325E+03    0.14528E-02   -0.11257E-03 49704   0.127E-01    0.852E-01
DAV:  12    -0.269022669181E+03    0.13361E-02   -0.19778E-03 51944   0.146E-01    0.998E-01
DAV:  13    -0.269024968000E+03   -0.22988E-02   -0.76223E-03 50456   0.391E-01    0.935E-01
DAV:  14    -0.269024324632E+03    0.64337E-03   -0.84038E-03 53176   0.347E-01    0.925E-01
DAV:  15    -0.269025477617E+03   -0.11530E-02   -0.11300E-02 53848   0.285E-01    0.529E-01
DAV:  16    -0.269026044375E+03   -0.56676E-03   -0.25398E-03 53384   0.138E-01    0.478E-01
DAV:  17    -0.269026280917E+03   -0.23654E-03   -0.99466E-04 52272   0.714E-02    0.473E-01
DAV:  18    -0.269026087005E+03    0.19391E-03   -0.17598E-04 35752   0.338E-02    0.497E-01
DAV:  19    -0.269025766435E+03    0.32057E-03   -0.20674E-04 40320   0.492E-02    0.477E-01
DAV:  20    -0.269025832864E+03   -0.66429E-04   -0.23720E-05 29656   0.207E-02    0.460E-01
DAV:  21    -0.269026575490E+03   -0.74263E-03   -0.10938E-03 48488   0.122E-01    0.345E-01
DAV:  22    -0.269026522143E+03    0.53346E-04   -0.34948E-03 51424   0.202E-01    0.183E-01
DAV:  23    -0.269026841129E+03   -0.31899E-03   -0.85106E-04 48680   0.106E-01    0.152E-01
DAV:  24    -0.269026858796E+03   -0.17667E-04   -0.25694E-04 45520   0.504E-02    0.145E-01
DAV:  25    -0.269026913399E+03   -0.54603E-04   -0.18646E-04 37064   0.381E-02    0.132E-01
DAV:  26    -0.269026964490E+03   -0.51090E-04   -0.22294E-04 38952   0.414E-02    0.892E-02
DAV:  27    -0.269026986218E+03   -0.21729E-04   -0.82773E-05 34480   0.218E-02    0.869E-02
DAV:  28    -0.269026954897E+03    0.31321E-04   -0.12395E-05 27072   0.189E-02    0.103E-01
DAV:  29    -0.269026950047E+03    0.48502E-05   -0.28846E-05 30496   0.255E-02
   5 F= -.26902695E+03 E0= -.26901866E+03  d E =-.195199E+00  mag=     2.0025
       N       E                     dE             d eps       ncg     rms          rms(c)
DAV:   1    -0.269015890250E+03    0.11065E-01   -0.25224E+01 39896   0.210E+01    0.197E+00
DAV:   2    -0.269385063444E+03   -0.36917E+00   -0.35277E+00 49200   0.470E+00    0.137E+01
DAV:   3    -0.269084445017E+03    0.30062E+00   -0.18996E+00 53936   0.261E+00    0.125E+00
DAV:   4    -0.269134036651E+03   -0.49592E-01   -0.45002E-02 51304   0.695E-01    0.140E+00
DAV:   5    -0.269135373660E+03   -0.13370E-02   -0.32738E-02 55328   0.361E-01    0.167E+00
DAV:   6    -0.269133649093E+03    0.17246E-02   -0.17939E-03 44296   0.138E-01    0.163E+00
DAV:   7    -0.269127537060E+03    0.61120E-02   -0.10418E-02 51416   0.237E-01    0.151E+00
DAV:   8    -0.269126333804E+03    0.12033E-02   -0.15654E-02 55192   0.295E-01    0.184E+00
DAV:   9    -0.269126195456E+03    0.13835E-03   -0.86900E-03 55832   0.244E-01    0.197E+00
DAV:  10    -0.269126552938E+03   -0.35748E-03   -0.37491E-03 53344   0.151E-01    0.195E+00
DAV:  11    -0.269127683688E+03   -0.11308E-02   -0.76787E-04 47448   0.647E-02    0.194E+00
DAV:  12    -0.269128275148E+03   -0.59146E-03   -0.72123E-05 34688   0.295E-02    0.193E+00
DAV:  13    -0.269130071437E+03   -0.17963E-02   -0.26228E-03 49512   0.206E-01    0.169E+00
DAV:  14    -0.269122216999E+03    0.78544E-02   -0.51744E-02 52592   0.790E-01    0.800E-01
DAV:  15    -0.269124878787E+03   -0.26618E-02   -0.37843E-02 54344   0.450E-01    0.106E+00
DAV:  16    -0.269130595329E+03   -0.57165E-02   -0.15929E-02 49640   0.428E-01    0.672E-01
DAV:  17    -0.269131156283E+03   -0.56095E-03   -0.61110E-03 54776   0.219E-01    0.514E-01
DAV:  18    -0.269131443983E+03   -0.28770E-03   -0.19403E-03 53832   0.123E-01    0.486E-01
DAV:  19    -0.269131411928E+03    0.32056E-04   -0.30705E-03 51384   0.192E-01    0.384E-01
DAV:  20    -0.269130127821E+03    0.12841E-02   -0.57010E-03 51232   0.212E-01    0.341E-01
DAV:  21    -0.269130606195E+03   -0.47837E-03   -0.14934E-03 51240   0.926E-02    0.342E-01
DAV:  22    -0.269130883301E+03   -0.27711E-03   -0.43425E-04 47648   0.508E-02    0.327E-01
DAV:  23    -0.269131208134E+03   -0.32483E-03   -0.11626E-04 42504   0.537E-02    0.311E-01
DAV:  24    -0.269131109871E+03    0.98263E-04   -0.39176E-05 31352   0.294E-02    0.322E-01
DAV:  25    -0.269129218862E+03    0.18910E-02   -0.29749E-03 48648   0.184E-01    0.479E-01
DAV:  26    -0.269129127499E+03    0.91364E-04   -0.10357E-03 53320   0.732E-02    0.521E-01
DAV:  27    -0.269130319154E+03   -0.11917E-02   -0.45617E-04 46656   0.842E-02    0.466E-01
DAV:  28    -0.269130890926E+03   -0.57177E-03   -0.75395E-04 51088   0.875E-02    0.397E-01
DAV:  29    -0.269130271588E+03    0.61934E-03   -0.98224E-03 49968   0.311E-01    0.213E-01
DAV:  30    -0.269131612091E+03   -0.13405E-02   -0.10137E-03 42448   0.989E-02    0.159E-01
DAV:  31    -0.269131701901E+03   -0.89810E-04   -0.59407E-04 51544   0.692E-02    0.848E-02
DAV:  32    -0.269131736266E+03   -0.34365E-04   -0.46051E-04 50664   0.606E-02    0.466E-02
DAV:  33    -0.269131836402E+03   -0.10014E-03   -0.54851E-05 33576   0.309E-02    0.474E-02
DAV:  34    -0.269131838641E+03   -0.22385E-05   -0.13046E-05 26816   0.131E-02
   6 F= -.26913184E+03 E0= -.26912376E+03  d E =-.104889E+00  mag=     2.0005
       N       E                     dE             d eps       ncg     rms          rms(c)
DAV:   1    -0.269007777121E+03    0.12406E+00   -0.50072E+01 40320   0.283E+01    0.261E+00
DAV:   2    -0.269285285427E+03   -0.27751E+00   -0.28898E+00 42304   0.525E+00    0.785E+00
DAV:   3    -0.269196178547E+03    0.89107E-01   -0.11363E+00 53536   0.222E+00    0.377E+00
DAV:   4    -0.269209571684E+03   -0.13393E-01   -0.19382E-01 55000   0.112E+00    0.257E+00
DAV:   5    -0.269202564088E+03    0.70076E-02   -0.18259E-02 53720   0.496E-01    0.259E+00
DAV:   6    -0.269173814927E+03    0.28749E-01   -0.55853E-02 49408   0.545E-01    0.262E+00
DAV:   7    -0.269183453289E+03   -0.96384E-02   -0.13361E-02 51832   0.255E-01    0.236E+00
DAV:   8    -0.269182023321E+03    0.14300E-02   -0.17150E-02 54528   0.301E-01    0.260E+00
DAV:   9    -0.269187837601E+03   -0.58143E-02   -0.92637E-04 41800   0.140E-01    0.257E+00
DAV:  10    -0.269197416215E+03   -0.95786E-02   -0.42938E-02 51792   0.987E-01    0.199E+00
DAV:  11    -0.269168967351E+03    0.28449E-01   -0.11095E-01 53280   0.125E+00    0.210E+00
DAV:  12    -0.269173169092E+03   -0.42017E-02   -0.46702E-02 53632   0.624E-01    0.129E+00
DAV:  13    -0.269189143690E+03   -0.15975E-01   -0.42587E-02 49512   0.675E-01    0.822E-01
DAV:  14    -0.269190757491E+03   -0.16138E-02   -0.11253E-02 54144   0.297E-01    0.732E-01
DAV:  15    -0.269190771503E+03   -0.14012E-04   -0.27600E-03 53840   0.143E-01    0.682E-01
DAV:  16    -0.269190684033E+03    0.87470E-04   -0.10044E-03 54248   0.116E-01    0.575E-01
DAV:  17    -0.269190223351E+03    0.46068E-03   -0.56511E-03 53336   0.356E-01    0.277E-01
DAV:  18    -0.269190978023E+03   -0.75467E-03   -0.22804E-03 49704   0.135E-01    0.363E-01
DAV:  19    -0.269190857507E+03    0.12052E-03   -0.80666E-04 53840   0.963E-02    0.204E-01
DAV:  20    -0.269190957559E+03   -0.10005E-03   -0.21300E-04 43848   0.461E-02    0.158E-01
DAV:  21    -0.269190958595E+03   -0.10368E-05   -0.18658E-05 28568   0.143E-02
   7 F= -.26919096E+03 E0= -.26918324E+03  d E =-.591200E-01  mag=     2.0234
       N       E                     dE             d eps       ncg     rms          rms(c)
DAV:   1    -0.268722065129E+03    0.46889E+00   -0.12293E+02 40320   0.443E+01    0.453E+00
DAV:   2    -0.269438030665E+03   -0.71597E+00   -0.64179E+00 42632   0.827E+00    0.142E+01
DAV:   3    -0.269134631988E+03    0.30340E+00   -0.13140E+00 54208   0.352E+00    0.277E+00
DAV:   4    -0.269233263058E+03   -0.98631E-01   -0.64634E-01 53512   0.195E+00    0.678E+00
DAV:   5    -0.269164582993E+03    0.68680E-01   -0.61891E-01 53344   0.155E+00    0.221E+00
DAV:   6    -0.269189696289E+03   -0.25113E-01   -0.20007E-01 53608   0.871E-01    0.449E+00
DAV:   7    -0.269161100811E+03    0.28595E-01   -0.12707E-01 53856   0.780E-01    0.184E+00
DAV:   8    -0.269162181810E+03   -0.10810E-02   -0.22955E-02 54544   0.461E-01    0.158E+00
DAV:   9    -0.269156724774E+03    0.54570E-02   -0.30961E-02 54352   0.555E-01    0.118E+00
DAV:  10    -0.269158846503E+03   -0.21217E-02   -0.61655E-02 53536   0.523E-01    0.102E+00
DAV:  11    -0.269163709830E+03   -0.48633E-02   -0.43210E-02 51920   0.495E-01    0.114E+00
DAV:  12    -0.269165255528E+03   -0.15457E-02   -0.11900E-02 52792   0.287E-01    0.117E+00
DAV:  13    -0.269164431354E+03    0.82417E-03   -0.11655E-03 41312   0.121E-01    0.123E+00
DAV:  14    -0.269164209708E+03    0.22165E-03   -0.18283E-03 54976   0.149E-01    0.113E+00
DAV:  15    -0.269165113121E+03   -0.90341E-03   -0.42886E-03 52232   0.260E-01    0.770E-01
DAV:  16    -0.269165526731E+03   -0.41361E-03   -0.23669E-03 53976   0.143E-01    0.631E-01
DAV:  17    -0.269163998024E+03    0.15287E-02   -0.22126E-03 51328   0.189E-01    0.674E-01
DAV:  18    -0.269163948919E+03    0.49106E-04   -0.94685E-04 54312   0.105E-01    0.707E-01
DAV:  19    -0.269164170502E+03   -0.22158E-03   -0.25941E-04 46224   0.514E-02    0.676E-01
DAV:  20    -0.269164152894E+03    0.17608E-04   -0.36760E-04 49056   0.606E-02    0.688E-01
DAV:  21    -0.269163231630E+03    0.92126E-03   -0.82738E-04 51904   0.963E-02    0.739E-01
DAV:  22    -0.269162754700E+03    0.47693E-03   -0.39738E-04 51408   0.574E-02    0.780E-01
DAV:  23    -0.269162310211E+03    0.44449E-03   -0.22346E-04 40792   0.467E-02    0.828E-01
DAV:  24    -0.269162186758E+03    0.12345E-03   -0.10412E-04 38464   0.292E-02    0.848E-01
DAV:  25    -0.269162168526E+03    0.18231E-04   -0.51653E-05 30432   0.184E-02    0.845E-01
DAV:  26    -0.269162098454E+03    0.70072E-04   -0.42231E-05 30072   0.189E-02    0.851E-01
DAV:  27    -0.269161740511E+03    0.35794E-03   -0.96511E-05 35560   0.290E-02    0.875E-01
DAV:  28    -0.269161890365E+03   -0.14985E-03   -0.15996E-05 27344   0.139E-02    0.873E-01
DAV:  29    -0.269162078127E+03   -0.18776E-03   -0.71864E-06 24432   0.119E-02    0.859E-01
DAV:  30    -0.269161725673E+03    0.35245E-03   -0.23840E-05 29328   0.237E-02    0.890E-01
DAV:  31    -0.269161707536E+03    0.18137E-04   -0.10743E-05 25752   0.100E-02    0.898E-01
DAV:  32    -0.269161887346E+03   -0.17981E-03   -0.39463E-06 23440   0.983E-03    0.887E-01
DAV:  33    -0.269162326419E+03   -0.43907E-03   -0.56717E-05 33064   0.324E-02    0.845E-01
DAV:  34    -0.269164862771E+03   -0.25364E-02   -0.31053E-03 50864   0.231E-01    0.527E-01
DAV:  35    -0.269165158323E+03   -0.29555E-03   -0.92118E-04 53624   0.902E-02    0.469E-01
DAV:  36    -0.269165107712E+03    0.50611E-04   -0.13114E-04 39424   0.317E-02    0.460E-01
DAV:  37    -0.269165053465E+03    0.54247E-04   -0.48569E-05 31520   0.219E-02    0.445E-01
DAV:  38    -0.269164936909E+03    0.11656E-03   -0.40397E-05 29656   0.170E-02    0.443E-01
DAV:  39    -0.269164949006E+03   -0.12097E-04   -0.27367E-05 27896   0.133E-02    0.434E-01
DAV:  40    -0.269165058252E+03   -0.10925E-03   -0.30566E-05 30024   0.177E-02    0.416E-01
DAV:  41    -0.269165136470E+03   -0.78217E-04   -0.82912E-05 34096   0.272E-02    0.390E-01
DAV:  42    -0.269164785943E+03    0.35053E-03   -0.75611E-04 49336   0.677E-02    0.389E-01
DAV:  43    -0.269165008313E+03   -0.22237E-03   -0.80212E-05 34672   0.274E-02    0.385E-01
DAV:  44    -0.269164967157E+03    0.41155E-04   -0.18371E-05 28760   0.195E-02    0.409E-01
DAV:  45    -0.269164912737E+03    0.54420E-04   -0.75441E-05 29216   0.232E-02    0.405E-01
DAV:  46    -0.269164869511E+03    0.43227E-04   -0.22764E-05 27920   0.156E-02    0.404E-01
DAV:  47    -0.269164690669E+03    0.17884E-03   -0.41997E-05 29688   0.196E-02    0.419E-01
DAV:  48    -0.269164689918E+03    0.75120E-06   -0.44605E-05 29904   0.235E-02
   8 F= -.26916469E+03 E0= -.26915559E+03  d E =0.262687E-01  mag=     1.8992
       N       E                     dE             d eps       ncg     rms          rms(c)
DAV:   1    -0.269234808553E+03   -0.70118E-01   -0.16207E+01 40320   0.161E+01    0.288E+00
DAV:   2    -0.269356763280E+03   -0.12195E+00   -0.11113E+00 48608   0.370E+00    0.678E+00
DAV:   3    -0.269299965458E+03    0.56798E-01   -0.52258E-01 53736   0.192E+00    0.300E+00
DAV:   4    -0.269361213853E+03   -0.61248E-01   -0.62468E-01 53144   0.156E+00    0.672E+00
DAV:   5    -0.269286025234E+03    0.75189E-01   -0.19935E-01 52808   0.132E+00    0.156E+00
DAV:   6    -0.269299098169E+03   -0.13073E-01   -0.19711E-02 50888   0.367E-01    0.126E+00
DAV:   7    -0.269295646346E+03    0.34518E-02   -0.18536E-02 55184   0.391E-01    0.112E+00
DAV:   8    -0.269298690340E+03   -0.30440E-02   -0.57633E-02 54400   0.484E-01    0.185E+00
DAV:   9    -0.269291668003E+03    0.70223E-02   -0.60297E-02 54152   0.517E-01    0.803E-01
DAV:  10    -0.269294072563E+03   -0.24046E-02   -0.33253E-02 51408   0.322E-01    0.682E-01
DAV:  11    -0.269296470863E+03   -0.23983E-02   -0.17342E-02 51032   0.287E-01    0.619E-01
DAV:  12    -0.269297520591E+03   -0.10497E-02   -0.51232E-03 53288   0.189E-01    0.562E-01
DAV:  13    -0.269297904952E+03   -0.38436E-03   -0.12726E-03 54712   0.109E-01    0.526E-01
DAV:  14    -0.269298130314E+03   -0.22536E-03   -0.12495E-03 54008   0.143E-01    0.420E-01
DAV:  15    -0.269298335146E+03   -0.20483E-03   -0.10849E-03 54624   0.156E-01    0.316E-01
DAV:  16    -0.269298284594E+03    0.50551E-04   -0.71337E-04 54296   0.105E-01    0.181E-01
DAV:  17    -0.269298261509E+03    0.23085E-04   -0.21818E-04 50408   0.537E-02    0.134E-01
DAV:  18    -0.269298244186E+03    0.17323E-04   -0.15559E-04 39944   0.467E-02    0.108E-01
DAV:  19    -0.269298247731E+03   -0.35445E-05   -0.75085E-05 31880   0.227E-02
   9 F= -.26929825E+03 E0= -.26929205E+03  d E =-.133558E+00  mag=     2.0271
       N       E                     dE             d eps       ncg     rms          rms(c)
DAV:   1    -0.269314682611E+03   -0.16438E-01   -0.34688E+00 40320   0.722E+00    0.763E-01
DAV:   2    -0.269332762742E+03   -0.18080E-01   -0.19104E-01 45032   0.135E+00    0.233E+00
DAV:   3    -0.269325382748E+03    0.73800E-02   -0.89303E-02 54256   0.579E-01    0.844E-01
DAV:   4    -0.269325922695E+03   -0.53995E-03   -0.71584E-03 52624   0.327E-01    0.327E-01
DAV:   5    -0.269326025732E+03   -0.10304E-03   -0.53375E-03 54512   0.224E-01    0.531E-01
DAV:   6    -0.269325560765E+03    0.46497E-03   -0.54318E-03 54192   0.159E-01    0.331E-01
DAV:   7    -0.269325382539E+03    0.17823E-03   -0.14120E-03 54264   0.125E-01    0.209E-01
DAV:   8    -0.269325345604E+03    0.36935E-04   -0.52227E-04 54360   0.777E-02    0.184E-01
DAV:   9    -0.269325337434E+03    0.81694E-05   -0.66637E-04 52936   0.758E-02    0.162E-01
DAV:  10    -0.269325295938E+03    0.41496E-04   -0.50011E-04 50488   0.678E-02    0.932E-02
DAV:  11    -0.269325375217E+03   -0.79279E-04   -0.73860E-04 48384   0.520E-02    0.130E-01
DAV:  12    -0.269325427476E+03   -0.52259E-04   -0.28493E-04 38040   0.439E-02    0.993E-02
DAV:  13    -0.269325434072E+03   -0.65960E-05   -0.65450E-05 32464   0.264E-02
  10 F= -.26932543E+03 E0= -.26931973E+03  d E =-.271863E-01  mag=     2.0018
       N       E                     dE             d eps       ncg     rms          rms(c)
DAV:   1    -0.269298643940E+03    0.26784E-01   -0.20377E+01 40320   0.167E+01    0.931E-01
DAV:   2    -0.269364965315E+03   -0.66321E-01   -0.70285E-01 42344   0.270E+00    0.203E+00
DAV:   3    -0.269363090388E+03    0.18749E-02   -0.14174E-01 55648   0.821E-01    0.167E+00
DAV:   4    -0.269360084321E+03    0.30061E-02   -0.35968E-02 55168   0.451E-01    0.104E+00
DAV:   5    -0.269358692487E+03    0.13918E-02   -0.93323E-03 54288   0.233E-01    0.798E-01
DAV:   6    -0.269357891166E+03    0.80132E-03   -0.49532E-04 42832   0.808E-02    0.827E-01
DAV:   7    -0.269358166138E+03   -0.27497E-03   -0.12229E-03 52568   0.206E-01    0.605E-01
DAV:   8    -0.269357515055E+03    0.65108E-03   -0.81929E-03 54736   0.393E-01    0.595E-01
DAV:   9    -0.269356914142E+03    0.60091E-03   -0.44091E-03 53544   0.220E-01    0.419E-01
DAV:  10    -0.269357151732E+03   -0.23759E-03   -0.12403E-03 54320   0.127E-01    0.322E-01
DAV:  11    -0.269357140834E+03    0.10898E-04   -0.36120E-04 53672   0.607E-02    0.278E-01
DAV:  12    -0.269357133517E+03    0.73171E-05   -0.13089E-04 35512   0.384E-02    0.254E-01
DAV:  13    -0.269357179790E+03   -0.46273E-04   -0.18410E-04 45976   0.516E-02    0.209E-01
DAV:  14    -0.269357241438E+03   -0.61648E-04   -0.53017E-04 53264   0.824E-02    0.134E-01
DAV:  15    -0.269357292583E+03   -0.51145E-04   -0.38590E-04 43912   0.464E-02    0.896E-02
DAV:  16    -0.269357313765E+03   -0.21182E-04   -0.11980E-04 35104   0.345E-02    0.741E-02
DAV:  17    -0.269357317677E+03   -0.39118E-05   -0.40645E-05 29704   0.197E-02
  11 F= -.26935732E+03 E0= -.26935239E+03  d E =-.318836E-01  mag=     2.0006
       N       E                     dE             d eps       ncg     rms          rms(c)
DAV:   1    -0.268683735597E+03    0.67358E+00   -0.19395E+02 40320   0.513E+01    0.386E+00
DAV:   2    -0.269416075664E+03   -0.73234E+00   -0.72546E+00 41816   0.892E+00    0.975E+00
DAV:   3    -0.269311479203E+03    0.10460E+00   -0.52616E-01 55032   0.292E+00    0.268E+00
DAV:   4    -0.269317124553E+03   -0.56453E-02   -0.12034E-01 53896   0.141E+00    0.227E+00
DAV:   5    -0.269315123777E+03    0.20008E-02   -0.95453E-02 53880   0.901E-01    0.239E+00
DAV:   6    -0.269304766821E+03    0.10357E-01   -0.60520E-02 53736   0.634E-01    0.211E+00
DAV:   7    -0.269300498830E+03    0.42680E-02   -0.32043E-02 54560   0.422E-01    0.205E+00
DAV:   8    -0.269294954757E+03    0.55441E-02   -0.45931E-02 52912   0.574E-01    0.175E+00
DAV:   9    -0.269283629781E+03    0.11325E-01   -0.44834E-02 52544   0.779E-01    0.178E+00
DAV:  10    -0.269289539011E+03   -0.59092E-02   -0.60274E-02 51400   0.536E-01    0.126E+00
DAV:  11    -0.269295107591E+03   -0.55686E-02   -0.15958E-02 52488   0.344E-01    0.128E+00
DAV:  12    -0.269295857407E+03   -0.74982E-03   -0.55436E-03 52328   0.234E-01    0.119E+00
DAV:  13    -0.269296286968E+03   -0.42956E-03   -0.21793E-03 54072   0.144E-01    0.107E+00
DAV:  14    -0.269297556977E+03   -0.12700E-02   -0.37134E-03 53128   0.247E-01    0.794E-01
DAV:  15    -0.269298291535E+03   -0.73456E-03   -0.59491E-03 52984   0.337E-01    0.345E-01
DAV:  16    -0.269298595007E+03   -0.30347E-03   -0.31474E-03 53336   0.195E-01    0.189E-01
DAV:  17    -0.269298739859E+03   -0.14485E-03   -0.68325E-04 52384   0.752E-02    0.203E-01
DAV:  18    -0.269298735349E+03    0.45092E-05   -0.56450E-05 34416   0.256E-02
  12 F= -.26929874E+03 E0= -.26929344E+03  d E =0.585823E-01  mag=     1.8632
       N       E                     dE             d eps       ncg     rms          rms(c)
DAV:   1    -0.269231065512E+03    0.67674E-01   -0.51791E+01 39816   0.265E+01    0.262E+00
DAV:   2    -0.269408264320E+03   -0.17720E+00   -0.19329E+00 42296   0.459E+00    0.165E+00
DAV:   3    -0.269442156581E+03   -0.33892E-01   -0.44448E-01 55544   0.173E+00    0.524E+00
DAV:   4    -0.269391566122E+03    0.50590E-01   -0.35097E-01 54600   0.131E+00    0.163E+00
DAV:   5    -0.269399046961E+03   -0.74808E-02   -0.74096E-02 53672   0.646E-01    0.152E+00
DAV:   6    -0.269394279172E+03    0.47678E-02   -0.37905E-02 54352   0.525E-01    0.811E-01
DAV:   7    -0.269393836345E+03    0.44283E-03   -0.96182E-03 54256   0.288E-01    0.709E-01
DAV:   8    -0.269393947521E+03   -0.11118E-03   -0.69929E-03 54192   0.336E-01    0.728E-01
DAV:   9    -0.269392215483E+03    0.17320E-02   -0.76218E-03 54256   0.346E-01    0.378E-01
DAV:  10    -0.269393360136E+03   -0.11447E-02   -0.10259E-02 54544   0.244E-01    0.460E-01
DAV:  11    -0.269394100111E+03   -0.73997E-03   -0.45727E-03 52312   0.206E-01    0.461E-01
DAV:  12    -0.269394293131E+03   -0.19302E-03   -0.15707E-03 52760   0.107E-01    0.439E-01
DAV:  13    -0.269393865286E+03    0.42784E-03   -0.16867E-04 40312   0.481E-02    0.469E-01
DAV:  14    -0.269393954732E+03   -0.89446E-04   -0.28850E-04 51264   0.702E-02    0.378E-01
DAV:  15    -0.269394314997E+03   -0.36027E-03   -0.57249E-04 51208   0.102E-01    0.272E-01
DAV:  16    -0.269394255428E+03    0.59569E-04   -0.26933E-04 48208   0.687E-02    0.276E-01
DAV:  17    -0.269393930188E+03    0.32524E-03   -0.35105E-04 47776   0.595E-02    0.300E-01
DAV:  18    -0.269394075017E+03   -0.14483E-03   -0.63224E-05 31432   0.285E-02    0.291E-01
DAV:  19    -0.269394111324E+03   -0.36307E-04   -0.88426E-06 26176   0.134E-02    0.291E-01
DAV:  20    -0.269394119006E+03   -0.76813E-05   -0.24594E-05 23184   0.130E-02
  13 F= -.26939412E+03 E0= -.26939088E+03  d E =-.953837E-01  mag=     1.9864
       N       E                     dE             d eps       ncg     rms          rms(c)
DAV:   1    -0.269305408569E+03    0.88703E-01   -0.33571E+01 40320   0.223E+01    0.212E+00
DAV:   2    -0.269437791066E+03   -0.13238E+00   -0.12929E+00 44016   0.405E+00    0.393E+00
DAV:   3    -0.269415839124E+03    0.21952E-01   -0.12856E-01 54368   0.157E+00    0.164E+00
DAV:   4    -0.269430330581E+03   -0.14491E-01   -0.18950E-01 54192   0.917E-01    0.346E+00
DAV:   5    -0.269409834971E+03    0.20496E-01   -0.13216E-01 53504   0.707E-01    0.136E+00
DAV:   6    -0.269412053622E+03   -0.22187E-02   -0.47188E-03 50336   0.213E-01    0.137E+00
DAV:   7    -0.269411089932E+03    0.96369E-03   -0.10739E-03 54632   0.971E-02    0.138E+00
DAV:   8    -0.269409572387E+03    0.15175E-02   -0.10132E-03 49240   0.104E-01    0.145E+00
DAV:   9    -0.269410108334E+03   -0.53595E-03   -0.10750E-02 50104   0.395E-01    0.899E-01
DAV:  10    -0.269405425214E+03    0.46831E-02   -0.22384E-02 54448   0.701E-01    0.107E+00
DAV:  11    -0.269408298997E+03   -0.28738E-02   -0.90418E-03 52040   0.345E-01    0.102E+00
DAV:  12    -0.269409702585E+03   -0.14036E-02   -0.45351E-03 53176   0.287E-01    0.727E-01
DAV:  13    -0.269410310418E+03   -0.60783E-03   -0.47366E-03 54720   0.243E-01    0.392E-01
DAV:  14    -0.269410523902E+03   -0.21348E-03   -0.17768E-03 54784   0.132E-01    0.261E-01
DAV:  15    -0.269410557900E+03   -0.33997E-04   -0.12233E-03 54344   0.118E-01    0.156E-01
DAV:  16    -0.269410623079E+03   -0.65180E-04   -0.32695E-04 49816   0.553E-02    0.119E-01
DAV:  17    -0.269410628142E+03   -0.50630E-05   -0.24463E-04 44328   0.509E-02    0.835E-02
DAV:  18    -0.269410629398E+03   -0.12554E-05   -0.10064E-04 36328   0.332E-02    0.551E-02
DAV:  19    -0.269410640260E+03   -0.10862E-04   -0.11141E-04 31504   0.231E-02    0.458E-02
DAV:  20    -0.269410642898E+03   -0.26382E-05   -0.20249E-05 25592   0.141E-02
  14 F= -.26941064E+03 E0= -.26940720E+03  d E =-.165239E-01  mag=     2.0118
       N       E                     dE             d eps       ncg     rms          rms(c)
DAV:   1    -0.269422268079E+03   -0.11628E-01   -0.31190E+00 40320   0.587E+00    0.118E+00
DAV:   2    -0.269434160377E+03   -0.11892E-01   -0.13561E-01 51632   0.142E+00    0.116E+00
DAV:   3    -0.269437810692E+03   -0.36503E-02   -0.11460E-01 54224   0.934E-01    0.214E+00
DAV:   4    -0.269431104472E+03    0.67062E-02   -0.93778E-02 53592   0.616E-01    0.855E-01
DAV:   5    -0.269429484646E+03    0.16198E-02   -0.11806E-02 53608   0.445E-01    0.503E-01
DAV:   6    -0.269429250258E+03    0.23439E-03   -0.10152E-02 54432   0.250E-01    0.425E-01
DAV:   7    -0.269428773223E+03    0.47703E-03   -0.30986E-03 53872   0.175E-01    0.117E-01
DAV:   8    -0.269428845369E+03   -0.72146E-04   -0.44789E-04 52336   0.748E-02    0.106E-01
DAV:   9    -0.269428844512E+03    0.85662E-06   -0.25083E-04 47456   0.469E-02    0.697E-02
DAV:  10    -0.269428864958E+03   -0.20446E-04   -0.14231E-04 31856   0.291E-02    0.784E-02
DAV:  11    -0.269428872273E+03   -0.73153E-05   -0.52852E-05 29960   0.239E-02
  15 F= -.26942887E+03 E0= -.26942556E+03  d E =-.182294E-01  mag=     1.9996
       N       E                     dE             d eps       ncg     rms          rms(c)
DAV:   1    -0.269421349223E+03    0.75157E-02   -0.47626E+00 40320   0.768E+00    0.442E-01
DAV:   2    -0.269435231813E+03   -0.13883E-01   -0.14768E-01 40728   0.126E+00    0.716E-01
DAV:   3    -0.269435185431E+03    0.46382E-04   -0.27178E-02 55952   0.377E-01    0.742E-01
DAV:   4    -0.269434350203E+03    0.83523E-03   -0.90411E-03 53336   0.227E-01    0.409E-01
DAV:   5    -0.269434100728E+03    0.24948E-03   -0.32199E-03 54304   0.146E-01    0.264E-01
DAV:   6    -0.269433991166E+03    0.10956E-03   -0.10303E-03 53960   0.863E-02    0.241E-01
DAV:   7    -0.269433915401E+03    0.75766E-04   -0.30037E-04 53384   0.643E-02    0.225E-01
DAV:   8    -0.269433835904E+03    0.79497E-04   -0.49575E-04 53088   0.842E-02    0.156E-01
DAV:   9    -0.269433727619E+03    0.10828E-03   -0.53105E-04 54256   0.100E-01    0.114E-01
DAV:  10    -0.269433804361E+03   -0.76742E-04   -0.74523E-04 52784   0.871E-02    0.131E-01
DAV:  11    -0.269433840110E+03   -0.35749E-04   -0.26680E-04 49488   0.529E-02    0.118E-01
DAV:  12    -0.269433859364E+03   -0.19254E-04   -0.11895E-04 36416   0.342E-02    0.956E-02
DAV:  13    -0.269433870696E+03   -0.11332E-04   -0.55827E-05 32824   0.225E-02    0.778E-02
DAV:  14    -0.269433875134E+03   -0.44382E-05   -0.31108E-05 29464   0.168E-02
  16 F= -.26943388E+03 E0= -.26943060E+03  d E =-.500286E-02  mag=     1.9996
       N       E                     dE             d eps       ncg     rms          rms(c)
DAV:   1    -0.265708654265E+03    0.37252E+01   -0.32359E+02 40320   0.659E+01    0.163E+01
DAV:   2    -0.267291444329E+03   -0.15828E+01   -0.16567E+01 44552   0.130E+01    0.164E+01
DAV:   3    -0.268491608231E+03   -0.12002E+01   -0.24889E+01 54024   0.977E+00    0.227E+01
DAV:   4    -0.267949859335E+03    0.54175E+00   -0.16793E+01 53928   0.757E+00    0.248E+01
DAV:   5    -0.266617901567E+03    0.13320E+01   -0.40718E+00 53384   0.506E+00    0.880E+00
DAV:   6    -0.266936410641E+03   -0.31851E+00   -0.15079E+00 54104   0.294E+00    0.149E+01
DAV:   7    -0.266733339146E+03    0.20307E+00   -0.19277E+00 53784   0.374E+00    0.789E+00
DAV:   8    -0.266748632458E+03   -0.15293E-01   -0.79844E-01 51392   0.209E+00    0.493E+00
DAV:   9    -0.266796372022E+03   -0.47740E-01   -0.15549E-01 52880   0.101E+00    0.501E+00
DAV:  10    -0.266786245013E+03    0.10127E-01   -0.68708E-02 54264   0.800E-01    0.442E+00
DAV:  11    -0.266784539768E+03    0.17052E-02   -0.49801E-02 54536   0.667E-01    0.358E+00
DAV:  12    -0.266785357131E+03   -0.81736E-03   -0.63694E-02 53600   0.666E-01    0.272E+00
DAV:  13    -0.266806074977E+03   -0.20718E-01   -0.25893E-02 51368   0.430E-01    0.226E+00
DAV:  14    -0.266818630943E+03   -0.12556E-01   -0.97076E-03 53912   0.336E-01    0.211E+00
DAV:  15    -0.266822132534E+03   -0.35016E-02   -0.18420E-03 51224   0.144E-01    0.208E+00
DAV:  16    -0.266830471069E+03   -0.83385E-02   -0.48338E-03 53848   0.263E-01    0.179E+00
DAV:  17    -0.266845766027E+03   -0.15295E-01   -0.27326E-02 52776   0.699E-01    0.959E-01
DAV:  18    -0.266854681634E+03   -0.89156E-02   -0.13620E-02 54104   0.367E-01    0.862E-01
DAV:  19    -0.266855692726E+03   -0.10111E-02   -0.12520E-03 47176   0.127E-01    0.866E-01
DAV:  20    -0.266855572910E+03    0.11982E-03   -0.77038E-05 42656   0.362E-02    0.838E-01
DAV:  21    -0.266855934027E+03   -0.36112E-03   -0.43134E-03 53152   0.257E-01    0.365E-01
DAV:  22    -0.266856151448E+03   -0.21742E-03   -0.17402E-03 52944   0.129E-01    0.230E-01
DAV:  23    -0.266856304911E+03   -0.15346E-03   -0.82703E-04 51400   0.133E-01    0.145E-01
DAV:  24    -0.266856364866E+03   -0.59955E-04   -0.20688E-04 47448   0.610E-02    0.138E-01
DAV:  25    -0.266856366292E+03   -0.14254E-05   -0.82768E-05 40744   0.358E-02
  17 F= -.26685637E+03 E0= -.26684660E+03  d E =0.257751E+01  mag=     3.9990
       N       E                     dE             d eps       ncg     rms          rms(c)
DAV:   1    -0.268455998880E+03   -0.15996E+01   -0.20585E+02 39312   0.436E+01    0.131E+01
DAV:   2    -0.270430343017E+03   -0.19743E+01   -0.16167E+01 47376   0.120E+01    0.221E+01
DAV:   3    -0.270086663725E+03    0.34368E+00   -0.23321E+01 53272   0.107E+01    0.161E+01
DAV:   4    -0.269711434288E+03    0.37523E+00   -0.50202E+00 54064   0.489E+00    0.166E+01
DAV:   5    -0.269261405200E+03    0.45003E+00   -0.10355E+00 53936   0.310E+00    0.809E+00
DAV:   6    -0.269390179762E+03   -0.12877E+00   -0.17360E+00 53968   0.279E+00    0.109E+01
DAV:   7    -0.269294284542E+03    0.95895E-01   -0.17577E+00 53856   0.271E+00    0.845E+00
DAV:   8    -0.269219965809E+03    0.74319E-01   -0.51218E-01 53656   0.189E+00    0.460E+00
DAV:   9    -0.269223722447E+03   -0.37566E-02   -0.31754E-01 54152   0.117E+00    0.217E+00
DAV:  10    -0.269236611133E+03   -0.12889E-01   -0.54386E-02 52992   0.846E-01    0.209E+00
DAV:  11    -0.269233884623E+03    0.27265E-02   -0.17498E-02 54720   0.450E-01    0.198E+00
DAV:  12    -0.269223921768E+03    0.99629E-02   -0.22911E-02 53624   0.611E-01    0.115E+00
DAV:  13    -0.269228534360E+03   -0.46126E-02   -0.24374E-02 52744   0.346E-01    0.844E-01
DAV:  14    -0.269229440888E+03   -0.90653E-03   -0.95116E-03 53352   0.311E-01    0.434E-01
DAV:  15    -0.269230083502E+03   -0.64261E-03   -0.23312E-03 53792   0.159E-01    0.400E-01
DAV:  16    -0.269230010451E+03    0.73051E-04   -0.11240E-03 54096   0.962E-02    0.253E-01
DAV:  17    -0.269229999834E+03    0.10617E-04   -0.68505E-04 52736   0.733E-02    0.153E-01
DAV:  18    -0.269230077168E+03   -0.77334E-04   -0.35126E-04 48616   0.547E-02    0.159E-01
DAV:  19    -0.269230071700E+03    0.54682E-05   -0.14351E-04 34360   0.385E-02    0.751E-02
DAV:  20    -0.269230080895E+03   -0.91951E-05   -0.11793E-04 38784   0.302E-02    0.449E-02
DAV:  21    -0.269230089769E+03   -0.88737E-05   -0.59707E-05 28496   0.219E-02
  18 F= -.26923009E+03 E0= -.26922054E+03  d E =-.237372E+01  mag=     4.0000
       N       E                     dE             d eps       ncg     rms          rms(c)
DAV:   1    -0.269385738005E+03   -0.15566E+00   -0.25475E+00 40320   0.514E+00    0.132E+00
DAV:   2    -0.269404585058E+03   -0.18847E-01   -0.17805E-01 48312   0.123E+00    0.280E+00
DAV:   3    -0.269405016029E+03   -0.43097E-03   -0.30426E-01 52856   0.110E+00    0.275E+00
DAV:   4    -0.269394575693E+03    0.10440E-01   -0.58456E-02 52712   0.618E-01    0.130E+00
DAV:   5    -0.269393122254E+03    0.14534E-02   -0.19619E-02 53840   0.347E-01    0.538E-01
DAV:   6    -0.269393454470E+03   -0.33222E-03   -0.49194E-03 53320   0.222E-01    0.500E-01
DAV:   7    -0.269393820444E+03   -0.36597E-03   -0.96778E-03 53752   0.198E-01    0.734E-01
DAV:   8    -0.269392988300E+03    0.83214E-03   -0.46863E-03 52952   0.180E-01    0.171E-01
DAV:   9    -0.269393275102E+03   -0.28680E-03   -0.10795E-03 51960   0.896E-02    0.163E-01
DAV:  10    -0.269393323548E+03   -0.48446E-04   -0.39362E-04 47272   0.594E-02    0.115E-01
DAV:  11    -0.269393347661E+03   -0.24113E-04   -0.19774E-04 38264   0.420E-02    0.118E-01
DAV:  12    -0.269393334992E+03    0.12669E-04   -0.94298E-05 35336   0.307E-02    0.621E-02
DAV:  13    -0.269393335346E+03   -0.35458E-06   -0.62382E-05 31424   0.241E-02
  19 F= -.26939334E+03 E0= -.26938419E+03  d E =-.163246E+00  mag=     4.0000
       N       E                     dE             d eps       ncg     rms          rms(c)
DAV:   1    -0.269489096407E+03   -0.95761E-01   -0.32368E+01 40320   0.183E+01    0.512E+00
DAV:   2    -0.269662217928E+03   -0.17312E+00   -0.18235E+00 48728   0.414E+00    0.690E+00
DAV:   3    -0.269839216401E+03   -0.17700E+00   -0.25539E+00 53008   0.397E+00    0.132E+01
DAV:   4    -0.269634384185E+03    0.20483E+00   -0.22377E+00 53120   0.279E+00    0.789E+00
DAV:   5    -0.269557168117E+03    0.77216E-01   -0.56286E-01 52632   0.160E+00    0.135E+00
DAV:   6    -0.269588495802E+03   -0.31328E-01   -0.14330E-01 53680   0.846E-01    0.329E+00
DAV:   7    -0.269571312850E+03    0.17183E-01   -0.84992E-02 53728   0.787E-01    0.106E+00
DAV:   8    -0.269577454796E+03   -0.61419E-02   -0.24413E-02 52688   0.440E-01    0.876E-01
DAV:   9    -0.269578851614E+03   -0.13968E-02   -0.21580E-02 54304   0.358E-01    0.855E-01
DAV:  10    -0.269579311204E+03   -0.45959E-03   -0.48451E-03 53392   0.234E-01    0.710E-01
DAV:  11    -0.269578894690E+03    0.41651E-03   -0.31462E-03 54296   0.192E-01    0.581E-01
DAV:  12    -0.269578342265E+03    0.55242E-03   -0.22179E-03 54304   0.190E-01    0.326E-01
DAV:  13    -0.269578670958E+03   -0.32869E-03   -0.25191E-03 53440   0.155E-01    0.439E-01
DAV:  14    -0.269578673143E+03   -0.21841E-05   -0.23098E-03 52000   0.144E-01    0.213E-01
DAV:  15    -0.269578739488E+03   -0.66345E-04   -0.50960E-04 54368   0.835E-02    0.124E-01
DAV:  16    -0.269578744728E+03   -0.52404E-05   -0.14065E-04 47712   0.438E-02    0.651E-02
DAV:  17    -0.269578752993E+03   -0.82648E-05   -0.11140E-04 32320   0.256E-02    0.457E-02
DAV:  18    -0.269578761379E+03   -0.83860E-05   -0.59627E-05 28504   0.223E-02
  20 F= -.26957876E+03 E0= -.26957069E+03  d E =-.185426E+00  mag=     4.0000
       N       E                     dE             d eps       ncg     rms          rms(c)
DAV:   1    -0.269596778719E+03   -0.18026E-01   -0.27379E+00 40320   0.494E+00    0.139E+00
DAV:   2    -0.269612390206E+03   -0.15611E-01   -0.15740E-01 47888   0.125E+00    0.237E+00
DAV:   3    -0.269616380928E+03   -0.39907E-02   -0.25132E-01 53496   0.101E+00    0.312E+00
DAV:   4    -0.269610509533E+03    0.58714E-02   -0.13458E-01 53608   0.745E-01    0.254E+00
DAV:   5    -0.269601345330E+03    0.91642E-02   -0.62857E-02 53448   0.554E-01    0.390E-01
DAV:   6    -0.269602956754E+03   -0.16114E-02   -0.23651E-03 52200   0.267E-01    0.247E-01
DAV:   7    -0.269603062416E+03   -0.10566E-03   -0.17968E-03 52520   0.163E-01    0.198E-01
DAV:   8    -0.269603218746E+03   -0.15633E-03   -0.75121E-04 52400   0.738E-02    0.235E-01
DAV:   9    -0.269603175917E+03    0.42829E-04   -0.30445E-04 38680   0.465E-02    0.222E-01
DAV:  10    -0.269603147568E+03    0.28348E-04   -0.57677E-05 30912   0.267E-02    0.192E-01
DAV:  11    -0.269603125742E+03    0.21827E-04   -0.15422E-04 45888   0.493E-02    0.127E-01
DAV:  12    -0.269603112684E+03    0.13058E-04   -0.21102E-04 35384   0.378E-02    0.415E-02
DAV:  13    -0.269603137595E+03   -0.24911E-04   -0.69116E-05 29888   0.234E-02    0.499E-02
DAV:  14    -0.269603139698E+03   -0.21034E-05   -0.13331E-05 24640   0.137E-02
  21 F= -.26960314E+03 E0= -.26959487E+03  d E =-.243783E-01  mag=     4.0000
       N       E                     dE             d eps       ncg     rms          rms(c)
DAV:   1    -0.269605494515E+03   -0.23569E-02   -0.19548E-01 39600   0.163E+00    0.340E-01
DAV:   2    -0.269607418809E+03   -0.19243E-02   -0.17761E-02 49360   0.372E-01    0.912E-01
DAV:   3    -0.269606839564E+03    0.57925E-03   -0.21842E-02 51976   0.314E-01    0.757E-01
DAV:   4    -0.269606657818E+03    0.18175E-03   -0.65887E-03 51224   0.179E-01    0.584E-01
DAV:   5    -0.269606113650E+03    0.54417E-03   -0.25225E-03 53456   0.126E-01    0.870E-02
DAV:   6    -0.269606219940E+03   -0.10629E-03   -0.12118E-04 50440   0.539E-02    0.718E-02
DAV:   7    -0.269606240190E+03   -0.20249E-04   -0.21928E-04 41320   0.495E-02    0.119E-01
DAV:   8    -0.269606234737E+03    0.54534E-05   -0.34883E-04 32232   0.441E-02    0.982E-02
DAV:   9    -0.269606234051E+03    0.68521E-06   -0.83542E-05 28640   0.271E-02
  22 F= -.26960623E+03 E0= -.26959798E+03  d E =-.309435E-02  mag=     4.0000
       N       E                     dE             d eps       ncg     rms          rms(c)
DAV:   1    -0.269606215164E+03    0.19573E-04   -0.79690E-01 39312   0.366E+00    0.464E-01
DAV:   2    -0.269613259947E+03   -0.70448E-02   -0.65444E-02 46480   0.733E-01    0.164E+00
DAV:   3    -0.269609903027E+03    0.33569E-02   -0.44200E-02 52200   0.447E-01    0.782E-01
DAV:   4    -0.269609978332E+03   -0.75305E-04   -0.51149E-03 50200   0.193E-01    0.379E-01
DAV:   5    -0.269609861376E+03    0.11696E-03   -0.26604E-03 54056   0.120E-01    0.229E-01
DAV:   6    -0.269609800178E+03    0.61198E-04   -0.35956E-04 53720   0.781E-02    0.135E-01
DAV:   7    -0.269609932949E+03   -0.13277E-03   -0.12191E-03 53080   0.835E-02    0.316E-01
DAV:   8    -0.269609746031E+03    0.18692E-03   -0.81060E-04 43368   0.735E-02    0.711E-02
DAV:   9    -0.269609786536E+03   -0.40505E-04   -0.95320E-05 30672   0.313E-02    0.549E-02
DAV:  10    -0.269609792009E+03   -0.54724E-05   -0.22948E-05 25160   0.170E-02
  23 F= -.26960979E+03 E0= -.26960153E+03  d E =-.355796E-02  mag=     4.0000
       N       E                     dE             d eps       ncg     rms          rms(c)
DAV:   1    -0.269607495861E+03    0.22907E-02   -0.20329E+00 39816   0.571E+00    0.358E-01
DAV:   2    -0.269616913064E+03   -0.94172E-02   -0.96604E-02 42336   0.999E-01    0.100E+00
DAV:   3    -0.269615851533E+03    0.10615E-02   -0.20376E-02 55352   0.316E-01    0.611E-01
DAV:   4    -0.269616005175E+03   -0.15364E-03   -0.58669E-03 54480   0.178E-01    0.573E-01
DAV:   5    -0.269615466955E+03    0.53822E-03   -0.34084E-03 54304   0.136E-01    0.206E-01
DAV:   6    -0.269615387082E+03    0.79873E-04   -0.54202E-04 55480   0.922E-02    0.177E-01
DAV:   7    -0.269615614889E+03   -0.22781E-03   -0.23809E-03 53272   0.112E-01    0.414E-01
DAV:   8    -0.269615305630E+03    0.30926E-03   -0.15918E-03 54328   0.103E-01    0.942E-02
DAV:   9    -0.269615399463E+03   -0.93834E-04   -0.21460E-04 32976   0.449E-02    0.888E-02
DAV:  10    -0.269615405093E+03   -0.56299E-05   -0.37964E-05 30528   0.246E-02
  24 F= -.26961541E+03 E0= -.26960703E+03  d E =-.561308E-02  mag=     4.0000
       N       E                     dE             d eps       ncg     rms          rms(c)
DAV:   1    -0.269600695394E+03    0.14704E-01   -0.62229E+00 40320   0.956E+00    0.692E-01
DAV:   2    -0.269625544574E+03   -0.24849E-01   -0.25040E-01 42896   0.167E+00    0.163E+00
DAV:   3    -0.269623103735E+03    0.24408E-02   -0.68757E-02 54112   0.621E-01    0.123E+00
DAV:   4    -0.269623997823E+03   -0.89409E-03   -0.30353E-02 54288   0.351E-01    0.148E+00
DAV:   5    -0.269620626189E+03    0.33716E-02   -0.17449E-02 53512   0.281E-01    0.389E-01
DAV:   6    -0.269620691870E+03   -0.65681E-04   -0.19940E-03 52744   0.167E-01    0.290E-01
DAV:   7    -0.269621450034E+03   -0.75816E-03   -0.74723E-03 53560   0.194E-01    0.740E-01
DAV:   8    -0.269620566882E+03    0.88315E-03   -0.50026E-03 53168   0.176E-01    0.176E-01
DAV:   9    -0.269620859352E+03   -0.29247E-03   -0.69994E-04 52184   0.761E-02    0.154E-01
DAV:  10    -0.269620877572E+03   -0.18221E-04   -0.15408E-04 47856   0.474E-02    0.143E-01
DAV:  11    -0.269620870804E+03    0.67683E-05   -0.82099E-05 34144   0.345E-02
  25 F= -.26962087E+03 E0= -.26961222E+03  d E =-.546571E-02  mag=     4.0000
       N       E                     dE             d eps       ncg     rms          rms(c)
DAV:   1    -0.269551759850E+03    0.69118E-01   -0.21047E+01 40320   0.161E+01    0.134E+00
DAV:   2    -0.269613690319E+03   -0.61930E-01   -0.65504E-01 42360   0.270E+00    0.106E+00
DAV:   3    -0.269629493531E+03   -0.15803E-01   -0.16020E-01 55808   0.884E-01    0.361E+00
DAV:   4    -0.269606884169E+03    0.22609E-01   -0.10990E-01 54024   0.718E-01    0.689E-01
DAV:   5    -0.269613955116E+03   -0.70709E-02   -0.40296E-02 54112   0.386E-01    0.216E+00
DAV:   6    -0.269606799666E+03    0.71554E-02   -0.36799E-02 52872   0.369E-01    0.537E-01
DAV:   7    -0.269611230024E+03   -0.44304E-02   -0.25247E-02 52560   0.369E-01    0.160E+00
DAV:   8    -0.269607129842E+03    0.41002E-02   -0.24284E-02 53944   0.362E-01    0.331E-01
DAV:   9    -0.269608922574E+03   -0.17927E-02   -0.50509E-03 51656   0.173E-01    0.363E-01
DAV:  10    -0.269609158674E+03   -0.23610E-03   -0.10775E-03 53832   0.120E-01    0.356E-01
DAV:  11    -0.269609166777E+03   -0.81025E-05   -0.68112E-04 54080   0.888E-02    0.300E-01
DAV:  12    -0.269609139611E+03    0.27166E-04   -0.53113E-04 53200   0.830E-02    0.169E-01
DAV:  13    -0.269609157326E+03   -0.17715E-04   -0.22216E-04 52824   0.632E-02    0.843E-02
DAV:  14    -0.269609177494E+03   -0.20169E-04   -0.72011E-05 37704   0.315E-02    0.742E-02
DAV:  15    -0.269609176457E+03    0.10372E-05   -0.46320E-05 30184   0.248E-02
  26 F= -.26960918E+03 E0= -.26960001E+03  d E =0.116943E-01  mag=     4.0000
       N       E                     dE             d eps       ncg     rms          rms(c)
DAV:   1    -0.269619396085E+03   -0.10219E-01   -0.19734E+00 40320   0.506E+00    0.104E+00
DAV:   2    -0.269633574562E+03   -0.14178E-01   -0.13004E-01 47688   0.107E+00    0.244E+00
DAV:   3    -0.269631868224E+03    0.17063E-02   -0.16731E-01 52984   0.802E-01    0.243E+00
DAV:   4    -0.269631656861E+03    0.21136E-03   -0.89458E-02 52440   0.562E-01    0.221E+00
DAV:   5    -0.269624182747E+03    0.74741E-02   -0.42555E-02 52768   0.464E-01    0.271E-01
DAV:   6    -0.269626442576E+03   -0.22598E-02   -0.62707E-03 52184   0.206E-01    0.729E-01
DAV:   7    -0.269625575702E+03    0.86687E-03   -0.67320E-03 54112   0.187E-01    0.247E-01
DAV:   8    -0.269625726925E+03   -0.15122E-03   -0.11916E-03 53480   0.993E-02    0.139E-01
DAV:   9    -0.269625831236E+03   -0.10431E-03   -0.43456E-04 45896   0.573E-02    0.168E-01
DAV:  10    -0.269625821730E+03    0.95056E-05   -0.73409E-05 32632   0.334E-02
  27 F= -.26962582E+03 E0= -.26961663E+03  d E =-.166453E-01  mag=     4.0000
       N       E                     dE             d eps       ncg     rms          rms(c)
DAV:   1    -0.269625399971E+03    0.43126E-03   -0.50717E-01 40336   0.293E+00    0.217E-01
DAV:   2    -0.269628238222E+03   -0.28383E-02   -0.27668E-02 43104   0.539E-01    0.708E-01
DAV:   3    -0.269627367266E+03    0.87096E-03   -0.62547E-03 54408   0.205E-01    0.168E-01
DAV:   4    -0.269627434384E+03   -0.67118E-04   -0.33093E-04 53520   0.765E-02    0.914E-02
DAV:   5    -0.269627472013E+03   -0.37629E-04   -0.52822E-04 54896   0.581E-02    0.231E-01
DAV:   6    -0.269627397283E+03    0.74730E-04   -0.62354E-04 34360   0.506E-02    0.116E-01
DAV:   7    -0.269627427043E+03   -0.29761E-04   -0.33274E-04 32288   0.399E-02    0.163E-01
DAV:   8    -0.269627386857E+03    0.40187E-04   -0.28102E-04 32448   0.416E-02    0.732E-02
DAV:   9    -0.269627388475E+03   -0.16188E-05   -0.59978E-05 31536   0.290E-02
  28 F= -.26962739E+03 E0= -.26961808E+03  d E =-.156675E-02  mag=     4.0000
       N       E                     dE             d eps       ncg     rms          rms(c)
DAV:   1    -0.269592687958E+03    0.34699E-01   -0.13495E+01 40320   0.129E+01    0.810E-01
DAV:   2    -0.269635972205E+03   -0.43284E-01   -0.43722E-01 42448   0.215E+00    0.243E+00
DAV:   3    -0.269631844851E+03    0.41274E-02   -0.13088E-01 54400   0.768E-01    0.186E+00
DAV:   4    -0.269630837392E+03    0.10075E-02   -0.32689E-02 54416   0.406E-01    0.142E+00
DAV:   5    -0.269627999531E+03    0.28379E-02   -0.13682E-02 54264   0.270E-01    0.672E-01
DAV:   6    -0.269627860696E+03    0.13883E-03   -0.30228E-03 53296   0.169E-01    0.638E-01
DAV:   7    -0.269627955507E+03   -0.94811E-04   -0.92407E-03 53600   0.202E-01    0.839E-01
DAV:   8    -0.269627003693E+03    0.95181E-03   -0.88511E-03 52952   0.226E-01    0.327E-01
DAV:   9    -0.269627575570E+03   -0.57188E-03   -0.24368E-03 53048   0.140E-01    0.279E-01
DAV:  10    -0.269627632748E+03   -0.57178E-04   -0.77560E-04 54232   0.101E-01    0.244E-01
DAV:  11    -0.269627653109E+03   -0.20362E-04   -0.27257E-04 53880   0.631E-02    0.205E-01
DAV:  12    -0.269627641479E+03    0.11630E-04   -0.17113E-04 41472   0.512E-02    0.123E-01
DAV:  13    -0.269627652707E+03   -0.11228E-04   -0.13878E-04 47760   0.555E-02    0.653E-02
DAV:  14    -0.269627673026E+03   -0.20319E-04   -0.65683E-05 33864   0.251E-02    0.777E-02
DAV:  15    -0.269627668205E+03    0.48207E-05   -0.23765E-05 25424   0.170E-02
  29 F= -.26962767E+03 E0= -.26961804E+03  d E =-.279730E-03  mag=     4.0000
       N       E                     dE             d eps       ncg     rms          rms(c)
DAV:   1    -0.263194395466E+03    0.64333E+01   -0.33887E+02 40384   0.636E+01    0.239E+01
DAV:   2    -0.264823703590E+03   -0.16293E+01   -0.22222E+01 48296   0.132E+01    0.184E+01
DAV:   3    -0.267457889193E+03   -0.26342E+01   -0.23416E+01 54344   0.154E+01    0.259E+01
DAV:   4    -0.265786899091E+03    0.16710E+01   -0.30262E+01 54408   0.132E+01    0.233E+01
DAV:   5    -0.263975036700E+03    0.18119E+01   -0.37118E+00 53904   0.651E+00    0.110E+01
DAV:   6    -0.264110395261E+03   -0.13536E+00   -0.48190E+00 53616   0.384E+00    0.122E+01
DAV:   7    -0.264087493507E+03    0.22902E-01   -0.17500E+00 53968   0.271E+00    0.832E+00
DAV:   8    -0.264072343374E+03    0.15150E-01   -0.30668E-01 53976   0.174E+00    0.515E+00
DAV:   9    -0.264030460868E+03    0.41883E-01   -0.21020E-01 54072   0.134E+00    0.248E+00
DAV:  10    -0.264042633662E+03   -0.12173E-01   -0.25322E-01 53376   0.109E+00    0.351E+00
DAV:  11    -0.264030048371E+03    0.12585E-01   -0.70416E-02 53608   0.102E+00    0.119E+00
DAV:  12    -0.264031178380E+03   -0.11300E-02   -0.16222E-02 54432   0.444E-01    0.729E-01
DAV:  13    -0.264032244851E+03   -0.10665E-02   -0.62397E-03 54064   0.299E-01    0.751E-01
DAV:  14    -0.264032254400E+03   -0.95491E-05   -0.55575E-03 54104   0.207E-01    0.482E-01
DAV:  15    -0.264032349087E+03   -0.94688E-04   -0.37285E-03 52544   0.149E-01    0.213E-01
DAV:  16    -0.264032598451E+03   -0.24936E-03   -0.11163E-03 52640   0.904E-02    0.183E-01
DAV:  17    -0.264032653515E+03   -0.55064E-04   -0.44020E-04 50312   0.588E-02    0.222E-01
DAV:  18    -0.264032603701E+03    0.49815E-04   -0.26713E-04 46048   0.519E-02    0.150E-01
DAV:  19    -0.264032620933E+03   -0.17233E-04   -0.63251E-04 46264   0.590E-02    0.122E-01
DAV:  20    -0.264032641732E+03   -0.20798E-04   -0.15997E-04 32488   0.361E-02    0.770E-02
DAV:  21    -0.264032645836E+03   -0.41045E-05   -0.52727E-05 31536   0.255E-02
  30 F= -.26403265E+03 E0= -.26402496E+03  d E =0.559502E+01  mag=     4.0002
       N       E                     dE             d eps       ncg     rms          rms(c)
DAV:   1    -0.268293961468E+03   -0.42613E+01   -0.44983E+02 40056   0.475E+01    0.174E+01
DAV:   2    -0.273090818181E+03   -0.47969E+01   -0.30444E+01 48416   0.167E+01    0.322E+01
DAV:   3    -0.270785956335E+03    0.23049E+01   -0.50427E+01 53008   0.172E+01    0.175E+01
DAV:   4    -0.270074566787E+03    0.71139E+00   -0.49841E+00 53672   0.591E+00    0.210E+01
DAV:   5    -0.269477780385E+03    0.59679E+00   -0.46078E+00 53024   0.411E+00    0.126E+01
DAV:   6    -0.269579290366E+03   -0.10151E+00   -0.48288E+00 54512   0.435E+00    0.163E+01
DAV:   7    -0.269316488227E+03    0.26280E+00   -0.43965E+00 54664   0.391E+00    0.129E+01
DAV:   8    -0.269448835772E+03   -0.13235E+00   -0.51468E-01 52512   0.224E+00    0.125E+01
DAV:   9    -0.269079743989E+03    0.36909E+00   -0.14573E+00 56104   0.314E+00    0.441E+00
DAV:  10    -0.269168526047E+03   -0.88782E-01   -0.24903E-01 48504   0.139E+00    0.286E+00
DAV:  11    -0.269189287774E+03   -0.20762E-01   -0.71541E-02 54040   0.776E-01    0.223E+00
DAV:  12    -0.269190321360E+03   -0.10336E-02   -0.21452E-02 54192   0.613E-01    0.176E+00
DAV:  13    -0.269186050289E+03    0.42711E-02   -0.53345E-02 53728   0.651E-01    0.957E-01
DAV:  14    -0.269194907407E+03   -0.88571E-02   -0.28006E-02 52544   0.472E-01    0.905E-01
DAV:  15    -0.269196060684E+03   -0.11533E-02   -0.79342E-03 52832   0.278E-01    0.906E-01
DAV:  16    -0.269195584867E+03    0.47582E-03   -0.18373E-03 53920   0.162E-01    0.667E-01
DAV:  17    -0.269196101047E+03   -0.51618E-03   -0.25074E-03 53080   0.173E-01    0.653E-01
DAV:  18    -0.269196144701E+03   -0.43654E-04   -0.59337E-03 54992   0.213E-01    0.273E-01
DAV:  19    -0.269196301177E+03   -0.15648E-03   -0.87807E-04 46768   0.863E-02    0.162E-01
DAV:  20    -0.269196297230E+03    0.39466E-05   -0.22075E-04 47912   0.447E-02    0.834E-02
DAV:  21    -0.269196300034E+03   -0.28041E-05   -0.60543E-05 31968   0.272E-02
  31 F= -.26919630E+03 E0= -.26918776E+03  d E =-.516365E+01  mag=     4.0016
       N       E                     dE             d eps       ncg     rms          rms(c)
DAV:   1    -0.269267736066E+03   -0.71439E-01   -0.71031E-01 39888   0.361E+00    0.599E-01
DAV:   2    -0.269273980747E+03   -0.62447E-02   -0.67261E-02 48128   0.837E-01    0.160E+00
DAV:   3    -0.269272139828E+03    0.18409E-02   -0.66386E-02 53952   0.555E-01    0.122E+00
DAV:   4    -0.269271264669E+03    0.87516E-03   -0.20078E-02 53608   0.311E-01    0.889E-01
DAV:   5    -0.269270415233E+03    0.84944E-03   -0.70170E-03 53352   0.181E-01    0.252E-01
DAV:   6    -0.269271029589E+03   -0.61436E-03   -0.40750E-03 54304   0.150E-01    0.535E-01
DAV:   7    -0.269270493788E+03    0.53580E-03   -0.30801E-03 54552   0.138E-01    0.129E-01
DAV:   8    -0.269270551329E+03   -0.57540E-04   -0.27507E-04 53232   0.742E-02    0.926E-02
DAV:   9    -0.269270564565E+03   -0.13236E-04   -0.18558E-04 35776   0.373E-02    0.659E-02
DAV:  10    -0.269270571488E+03   -0.69233E-05   -0.33337E-05 28496   0.178E-02
  32 F= -.26927057E+03 E0= -.26926202E+03  d E =-.742715E-01  mag=     4.0000
       N       E                     dE             d eps       ncg     rms          rms(c)
DAV:   1    -0.269465447692E+03   -0.19488E+00   -0.30414E+01 40320   0.229E+01    0.409E+00
DAV:   2    -0.269691764100E+03   -0.22632E+00   -0.25684E+00 47264   0.522E+00    0.904E+00
DAV:   3    -0.269687796491E+03    0.39676E-02   -0.27068E+00 53832   0.339E+00    0.907E+00
DAV:   4    -0.269570687126E+03    0.11711E+00   -0.53727E-01 53928   0.196E+00    0.296E+00
DAV:   5    -0.269588935310E+03   -0.18248E-01   -0.22604E-01 53928   0.107E+00    0.352E+00
DAV:   6    -0.269572105219E+03    0.16830E-01   -0.10544E-01 54040   0.841E-01    0.971E-01
DAV:   7    -0.269586982316E+03   -0.14877E-01   -0.10679E-01 54344   0.712E-01    0.289E+00
DAV:   8    -0.269573199060E+03    0.13783E-01   -0.64206E-02 54208   0.599E-01    0.742E-01
DAV:   9    -0.269576887428E+03   -0.36884E-02   -0.87664E-03 53448   0.304E-01    0.622E-01
DAV:  10    -0.269577443724E+03   -0.55630E-03   -0.35324E-03 53984   0.168E-01    0.557E-01
DAV:  11    -0.269577315239E+03    0.12849E-03   -0.37051E-03 53896   0.188E-01    0.476E-01
DAV:  12    -0.269577023527E+03    0.29171E-03   -0.18589E-03 53920   0.151E-01    0.309E-01
[...]
DAV:  10    -0.269646574946E+03   -0.18167E-05   -0.28280E-05 27944   0.185E-02
  58 F= -.26964657E+03 E0= -.26963657E+03  d E =0.620857E-03  mag=     4.0000
       N       E                     dE             d eps       ncg     rms          rms(c)
DAV:   1    -0.269644206163E+03    0.23670E-02   -0.19865E+00 40320   0.498E+00    0.706E-01
DAV:   2    -0.269656887846E+03   -0.12682E-01   -0.11692E-01 47968   0.962E-01    0.253E+00
DAV:   3    -0.269649408410E+03    0.74794E-02   -0.99616E-02 52224   0.613E-01    0.114E+00
DAV:   4    -0.269649485848E+03   -0.77438E-04   -0.77294E-03 50008   0.261E-01    0.346E-01
DAV:   5    -0.269650015333E+03   -0.52949E-03   -0.52822E-03 54352   0.167E-01    0.637E-01
DAV:   6    -0.269649254693E+03    0.76064E-03   -0.29065E-03 53632   0.153E-01    0.166E-01
DAV:   7    -0.269649457599E+03   -0.20291E-03   -0.14806E-03 54432   0.997E-02    0.310E-01
DAV:   8    -0.269649436818E+03    0.20780E-04   -0.22163E-03 53416   0.976E-02    0.266E-01
DAV:   9    -0.269649437087E+03   -0.26891E-06   -0.87408E-04 40640   0.668E-02    0.119E-01
DAV:  10    -0.269649469392E+03   -0.32305E-04   -0.85802E-05 31824   0.314E-02    0.111E-01
DAV:  11    -0.269649467033E+03    0.23592E-05   -0.32968E-05 30152   0.221E-02
  59 F= -.26964947E+03 E0= -.26963937E+03  d E =-.289209E-02  mag=     4.0000
       N       E                     dE             d eps       ncg     rms          rms(c)
DAV:   1    -0.269649103774E+03    0.36562E-03   -0.71688E-01 40320   0.323E+00    0.381E-01
DAV:   2    -0.269651926016E+03   -0.28222E-02   -0.31163E-02 40840   0.593E-01    0.481E-01
DAV:   3    -0.269653153174E+03   -0.12272E-02   -0.18523E-02 54328   0.251E-01    0.117E+00
DAV:   4    -0.269651183690E+03    0.19695E-02   -0.87142E-03 52776   0.196E-01    0.216E-01
DAV:   5    -0.269651683807E+03   -0.50012E-03   -0.18078E-03 53800   0.973E-02    0.381E-01
DAV:   6    -0.269651443760E+03    0.24005E-03   -0.13716E-03 53424   0.925E-02    0.155E-01
DAV:   7    -0.269651398601E+03    0.45159E-04   -0.25600E-04 54072   0.803E-02    0.108E-01
DAV:   8    -0.269651479761E+03   -0.81160E-04   -0.64826E-04 42416   0.578E-02    0.985E-02
DAV:   9    -0.269651540399E+03   -0.60638E-04   -0.29948E-04 32352   0.424E-02    0.170E-01
DAV:  10    -0.269651496183E+03    0.44216E-04   -0.11821E-04 31088   0.336E-02    0.102E-01
DAV:  11    -0.269651508833E+03   -0.12650E-04   -0.25009E-05 29488   0.208E-02    0.870E-02
DAV:  12    -0.269651511297E+03   -0.24637E-05   -0.34643E-05 33088   0.247E-02
  60 F= -.26965151E+03 E0= -.26964147E+03  d E =-.204426E-02  mag=     4.0000
       N       E                     dE             d eps       ncg     rms          rms(c)
DAV:   1    -0.269651487630E+03    0.21203E-04   -0.33148E-01 39312   0.212E+00    0.179E-01
DAV:   2    -0.269652971168E+03   -0.14835E-02   -0.15650E-02 41424   0.374E-01    0.501E-01
DAV:   3    -0.269652677144E+03    0.29402E-03   -0.45388E-03 55600   0.150E-01    0.274E-01
DAV:   4    -0.269652933442E+03   -0.25630E-03   -0.29301E-03 52672   0.101E-01    0.492E-01
DAV:   5    -0.269652552175E+03    0.38127E-03   -0.17501E-03 51424   0.866E-02    0.652E-02
DAV:   6    -0.269652628362E+03   -0.76187E-04   -0.18755E-04 40344   0.420E-02    0.124E-01
DAV:   7    -0.269652612864E+03    0.15498E-04   -0.26436E-04 32632   0.381E-02    0.842E-02
DAV:   8    -0.269652607563E+03    0.53011E-05   -0.67235E-05 30440   0.300E-02
  61 F= -.26965261E+03 E0= -.26964262E+03  d E =-.109627E-02  mag=     4.0000
       N       E                     dE             d eps       ncg     rms          rms(c)
DAV:   1    -0.269650189668E+03    0.24232E-02   -0.18308E+00 39312   0.488E+00    0.362E-01
DAV:   2    -0.269657917441E+03   -0.77278E-02   -0.78966E-02 41656   0.851E-01    0.137E+00
DAV:   3    -0.269655545345E+03    0.23721E-02   -0.24415E-02 54536   0.324E-01    0.474E-01
DAV:   4    -0.269655966510E+03   -0.42116E-03   -0.29392E-03 52192   0.147E-01    0.407E-01
DAV:   5    -0.269655720222E+03    0.24629E-03   -0.19412E-03 54208   0.986E-02    0.193E-01
DAV:   6    -0.269655619614E+03    0.10061E-03   -0.49819E-04 51816   0.763E-02    0.119E-01
DAV:   7    -0.269655725542E+03   -0.10593E-03   -0.98481E-04 54160   0.789E-02    0.303E-01
DAV:   8    -0.269655601928E+03    0.12361E-03   -0.12294E-03 45704   0.793E-02    0.145E-01
DAV:   9    -0.269655667194E+03   -0.65266E-04   -0.29695E-04 31184   0.420E-02    0.101E-01
DAV:  10    -0.269655671454E+03   -0.42599E-05   -0.47004E-05 31976   0.284E-02
  62 F= -.26965567E+03 E0= -.26964562E+03  d E =-.306389E-02  mag=     4.0000
       N       E                     dE             d eps       ncg     rms          rms(c)
DAV:   1    -0.269525516943E+03    0.13015E+00   -0.45279E+01 39816   0.242E+01    0.143E+00
DAV:   2    -0.269683562015E+03   -0.15805E+00   -0.16982E+00 40256   0.404E+00    0.331E+00
DAV:   3    -0.269677581073E+03    0.59809E-02   -0.27844E-01 54896   0.113E+00    0.269E+00
DAV:   4    -0.269671600630E+03    0.59804E-02   -0.75008E-02 56032   0.681E-01    0.184E+00
DAV:   5    -0.269667904104E+03    0.36965E-02   -0.42290E-02 54304   0.496E-01    0.934E-01
DAV:   6    -0.269665442110E+03    0.24620E-02   -0.15139E-02 54312   0.419E-01    0.421E-01
DAV:   7    -0.269666351347E+03   -0.90924E-03   -0.87904E-03 54456   0.293E-01    0.752E-01
DAV:   8    -0.269666163972E+03    0.18738E-03   -0.14040E-02 54768   0.253E-01    0.644E-01
DAV:   9    -0.269666066404E+03    0.97568E-04   -0.43887E-03 52552   0.173E-01    0.307E-01
DAV:  10    -0.269666228739E+03   -0.16234E-03   -0.71065E-04 52736   0.777E-02    0.267E-01
DAV:  11    -0.269666235691E+03   -0.69518E-05   -0.46707E-04 52128   0.698E-02    0.184E-01
DAV:  12    -0.269666217862E+03    0.17830E-04   -0.39801E-04 51864   0.842E-02    0.990E-02
DAV:  13    -0.269666258861E+03   -0.40999E-04   -0.19108E-04 44432   0.423E-02    0.743E-02
DAV:  14    -0.269666278195E+03   -0.19334E-04   -0.93066E-05 30696   0.302E-02    0.742E-02
DAV:  15    -0.269666276053E+03    0.21416E-05   -0.49249E-05 31656   0.283E-02
  63 F= -.26966628E+03 E0= -.26965626E+03  d E =-.106046E-01  mag=     4.0000
       N       E                     dE             d eps       ncg     rms          rms(c)
DAV:   1    -0.269642091531E+03    0.24187E-01   -0.58784E+00 40320   0.980E+00    0.754E-01
DAV:   2    -0.269670524723E+03   -0.28433E-01   -0.29690E-01 40928   0.175E+00    0.213E+00
DAV:   3    -0.269666119885E+03    0.44048E-02   -0.77840E-02 54024   0.633E-01    0.132E+00
DAV:   4    -0.269665996783E+03    0.12310E-03   -0.21325E-02 53128   0.351E-01    0.951E-01
DAV:   5    -0.269664752396E+03    0.12444E-02   -0.97488E-03 54280   0.220E-01    0.401E-01
DAV:   6    -0.269664406922E+03    0.34547E-03   -0.16190E-03 53632   0.157E-01    0.292E-01
DAV:   7    -0.269664483582E+03   -0.76659E-04   -0.33183E-03 55496   0.185E-01    0.529E-01
DAV:   8    -0.269664412103E+03    0.71479E-04   -0.64302E-03 52936   0.184E-01    0.470E-01
DAV:   9    -0.269664454598E+03   -0.42495E-04   -0.32227E-03 51848   0.135E-01    0.218E-01
DAV:  10    -0.269664550151E+03   -0.95553E-04   -0.33792E-04 50384   0.675E-02    0.197E-01
DAV:  11    -0.269664555419E+03   -0.52680E-05   -0.27174E-04 48096   0.612E-02    0.127E-01
DAV:  12    -0.269664553516E+03    0.19026E-05   -0.18393E-04 46336   0.521E-02    0.433E-02
DAV:  13    -0.269664570350E+03   -0.16833E-04   -0.49500E-05 33144   0.231E-02    0.370E-02
DAV:  14    -0.269664572211E+03   -0.18615E-05   -0.15375E-05 23784   0.134E-02
  64 F= -.26966457E+03 E0= -.26965458E+03  d E =0.170384E-02  mag=     4.0000
       N       E                     dE             d eps       ncg     rms          rms(c)
DAV:   1    -0.269657644848E+03    0.69255E-02   -0.21336E+00 40320   0.539E+00    0.486E-01
DAV:   2    -0.269665995965E+03   -0.83511E-02   -0.86958E-02 42264   0.936E-01    0.125E+00
DAV:   3    -0.269665182079E+03    0.81389E-03   -0.43647E-02 54576   0.438E-01    0.110E+00
DAV:   4    -0.269665209232E+03   -0.27154E-04   -0.17860E-02 53376   0.273E-01    0.108E+00
DAV:   5    -0.269663438663E+03    0.17706E-02   -0.76770E-03 53128   0.207E-01    0.148E-01
DAV:   6    -0.269663918957E+03   -0.48029E-03   -0.12596E-03 53664   0.111E-01    0.322E-01
DAV:   7    -0.269663866146E+03    0.52811E-04   -0.24461E-03 54240   0.106E-01    0.257E-01
DAV:   8    -0.269663786360E+03    0.79786E-04   -0.72176E-04 53736   0.809E-02    0.922E-02
DAV:   9    -0.269663814100E+03   -0.27740E-04   -0.82390E-05 31352   0.280E-02    0.933E-02
DAV:  10    -0.269663809316E+03    0.47844E-05   -0.14472E-05 25240   0.144E-02
  65 F= -.26966381E+03 E0= -.26965380E+03  d E =0.762896E-03  mag=     4.0000
       N       E                     dE             d eps       ncg     rms          rms(c)
DAV:   1    -0.269664137618E+03   -0.32352E-03   -0.68984E-02 40320   0.114E+00    0.147E-01
DAV:   2    -0.269665317537E+03   -0.11799E-02   -0.90155E-03 51184   0.265E-01    0.849E-01
DAV:   3    -0.269664249872E+03    0.10677E-02   -0.65224E-03 54264   0.180E-01    0.195E-01
DAV:   4    -0.269664614105E+03   -0.36423E-03   -0.14681E-03 45312   0.818E-02    0.328E-01
DAV:   5    -0.269664417971E+03    0.19613E-03   -0.74119E-04 42664   0.664E-02    0.584E-02
DAV:   6    -0.269664449996E+03   -0.32025E-04   -0.51527E-05 35024   0.247E-02    0.408E-02
DAV:   7    -0.269664463602E+03   -0.13606E-04   -0.10488E-04 29840   0.212E-02    0.760E-02
DAV:   8    -0.269664457664E+03    0.59389E-05   -0.56248E-05 24944   0.194E-02
  66 F= -.26966446E+03 E0= -.26965444E+03  d E =-.648348E-03  mag=     4.0000
       N       E                     dE             d eps       ncg     rms          rms(c)
DAV:   1    -0.269664345002E+03    0.11860E-03   -0.69168E-01 39536   0.306E+00    0.216E-01
DAV:   2    -0.269667011947E+03   -0.26669E-02   -0.28977E-02 41328   0.522E-01    0.546E-01
DAV:   3    -0.269666837619E+03    0.17433E-03   -0.68064E-03 55288   0.180E-01    0.441E-01
DAV:   4    -0.269666833316E+03    0.43033E-05   -0.30706E-03 53024   0.114E-01    0.419E-01
DAV:   5    -0.269666569446E+03    0.26387E-03   -0.15349E-03 53560   0.863E-02    0.753E-02
DAV:   6    -0.269666592959E+03   -0.23513E-04   -0.18722E-04 48296   0.495E-02    0.710E-02
DAV:   7    -0.269666626731E+03   -0.33772E-04   -0.37875E-04 36360   0.430E-02    0.155E-01
DAV:   8    -0.269666592467E+03    0.34264E-04   -0.21186E-04 31576   0.375E-02    0.428E-02
DAV:   9    -0.269666601964E+03   -0.94968E-05   -0.20153E-05 24488   0.146E-02
  67 F= -.26966660E+03 E0= -.26965659E+03  d E =-.214430E-02  mag=     4.0000
       N       E                     dE             d eps       ncg     rms          rms(c)
DAV:   1    -0.269600983998E+03    0.65608E-01   -0.20412E+01 39312   0.164E+01    0.130E+00
DAV:   2    -0.269684220280E+03   -0.83236E-01   -0.89727E-01 41240   0.282E+00    0.290E+00
DAV:   3    -0.269688148858E+03   -0.39286E-02   -0.26998E-01 55480   0.114E+00    0.349E+00
DAV:   4    -0.269676802786E+03    0.11346E-01   -0.13185E-01 53048   0.714E-01    0.217E+00
DAV:   5    -0.269672325700E+03    0.44771E-02   -0.47512E-02 52936   0.475E-01    0.484E-01
DAV:   6    -0.269674867786E+03   -0.25421E-02   -0.15598E-02 55944   0.330E-01    0.116E+00
DAV:   7    -0.269672985488E+03    0.18823E-02   -0.21204E-02 54624   0.303E-01    0.549E-01
DAV:   8    -0.269673052667E+03   -0.67178E-04   -0.27714E-03 54808   0.157E-01    0.218E-01
DAV:   9    -0.269673237066E+03   -0.18440E-03   -0.94071E-04 54432   0.832E-02    0.247E-01
DAV:  10    -0.269673227232E+03    0.98343E-05   -0.19858E-04 38144   0.461E-02    0.203E-01
DAV:  11    -0.269673218381E+03    0.88511E-05   -0.16034E-04 40416   0.388E-02    0.159E-01
DAV:  12    -0.269673195937E+03    0.22444E-04   -0.14301E-04 39800   0.452E-02    0.102E-01
DAV:  13    -0.269673203900E+03   -0.79630E-05   -0.17277E-04 41872   0.371E-02    0.652E-02
DAV:  14    -0.269673228169E+03   -0.24269E-04   -0.11336E-04 30304   0.294E-02    0.716E-02
DAV:  15    -0.269673227757E+03    0.41156E-06   -0.23783E-05 28104   0.202E-02
  68 F= -.26967323E+03 E0= -.26966328E+03  d E =-.662579E-02  mag=     4.0000
       N       E                     dE             d eps       ncg     rms          rms(c)
DAV:   1    -0.269663345230E+03    0.98829E-02   -0.23792E+00 40320   0.587E+00    0.978E-01
DAV:   2    -0.269682295097E+03   -0.18950E-01   -0.17640E-01 46552   0.124E+00    0.281E+00
DAV:   3    -0.269675223092E+03    0.70720E-02   -0.14657E-01 53056   0.867E-01    0.207E+00
DAV:   4    -0.269678809357E+03   -0.35863E-02   -0.78187E-02 52104   0.547E-01    0.241E+00
DAV:   5    -0.269670010231E+03    0.87991E-02   -0.48505E-02 53072   0.446E-01    0.279E-01
DAV:   6    -0.269671718900E+03   -0.17087E-02   -0.37268E-03 51848   0.173E-01    0.454E-01
DAV:   7    -0.269671893143E+03   -0.17424E-03   -0.54449E-03 53944   0.162E-01    0.566E-01
DAV:   8    -0.269671500332E+03    0.39281E-03   -0.21724E-03 53304   0.119E-01    0.179E-01
DAV:   9    -0.269671636774E+03   -0.13644E-03   -0.59558E-04 46936   0.532E-02    0.122E-01
DAV:  10    -0.269671670681E+03   -0.33906E-04   -0.16720E-04 33648   0.384E-02    0.902E-02
DAV:  11    -0.269671672197E+03   -0.15164E-05   -0.13338E-04 37408   0.303E-02    0.660E-02
DAV:  12    -0.269671677742E+03   -0.55451E-05   -0.50256E-05 28728   0.200E-02
  69 F= -.26967168E+03 E0= -.26966166E+03  d E =0.155001E-02  mag=     4.0000
       N       E                     dE             d eps       ncg     rms          rms(c)
DAV:   1    -0.269663516610E+03    0.81556E-02   -0.23056E+00 40320   0.619E+00    0.581E-01
DAV:   2    -0.269674554079E+03   -0.11037E-01   -0.11928E-01 40776   0.111E+00    0.113E+00
DAV:   3    -0.269674061472E+03    0.49261E-03   -0.39408E-02 55504   0.458E-01    0.102E+00
DAV:   4    -0.269672478867E+03    0.15826E-02   -0.10041E-02 53744   0.249E-01    0.447E-01
DAV:   5    -0.269672532754E+03   -0.53887E-04   -0.40295E-03 54520   0.120E-01    0.356E-01
DAV:   6    -0.269672338478E+03    0.19428E-03   -0.10032E-03 55456   0.120E-01    0.108E-01
DAV:   7    -0.269672418233E+03   -0.79755E-04   -0.57607E-04 54608   0.852E-02    0.199E-01
DAV:   8    -0.269672386320E+03    0.31913E-04   -0.65763E-04 37344   0.594E-02    0.134E-01
DAV:   9    -0.269672388655E+03   -0.23357E-05   -0.14174E-04 31832   0.385E-02    0.710E-02
DAV:  10    -0.269672391412E+03   -0.27566E-05   -0.35685E-05 28416   0.189E-02
  70 F= -.26967239E+03 E0= -.26966238E+03  d E =-.713670E-03  mag=     4.0000
       N       E                     dE             d eps       ncg     rms          rms(c)
DAV:   1    -0.269661988324E+03    0.10400E-01   -0.19572E+00 39312   0.517E+00    0.373E-01
DAV:   2    -0.269670417163E+03   -0.84288E-02   -0.87664E-02 41736   0.887E-01    0.131E+00
DAV:   3    -0.269668679892E+03    0.17373E-02   -0.28129E-02 55296   0.345E-01    0.677E-01
DAV:   4    -0.269668570525E+03    0.10937E-03   -0.39523E-03 51664   0.163E-01    0.359E-01
DAV:   5    -0.269668513660E+03    0.56865E-04   -0.24430E-03 54392   0.113E-01    0.282E-01
DAV:   6    -0.269668325908E+03    0.18775E-03   -0.84478E-04 55200   0.963E-02    0.135E-01
DAV:   7    -0.269668378848E+03   -0.52940E-04   -0.77041E-04 50232   0.519E-02    0.145E-01
DAV:   8    -0.269668457508E+03   -0.78659E-04   -0.49455E-04 32648   0.493E-02    0.212E-01
DAV:   9    -0.269668397667E+03    0.59841E-04   -0.26507E-04 32336   0.412E-02    0.116E-01
DAV:  10    -0.269668407309E+03   -0.96425E-05   -0.20190E-05 26952   0.179E-02
  71 F= -.26966841E+03 E0= -.26965841E+03  d E =0.398410E-02  mag=     4.0000
       N       E                     dE             d eps       ncg     rms          rms(c)
DAV:   1    -0.269607082638E+03    0.61315E-01   -0.12107E+01 39312   0.128E+01    0.123E+00
DAV:   2    -0.269665386398E+03   -0.58304E-01   -0.60694E-01 42440   0.234E+00    0.355E+00
DAV:   3    -0.269652162277E+03    0.13224E-01   -0.23353E-01 54992   0.982E-01    0.206E+00
DAV:   4    -0.269653044287E+03   -0.88201E-03   -0.53273E-02 53032   0.543E-01    0.176E+00
DAV:   5    -0.269648712063E+03    0.43322E-02   -0.33473E-02 54024   0.379E-01    0.451E-01
DAV:   6    -0.269649013828E+03   -0.30176E-03   -0.38036E-03 55680   0.260E-01    0.362E-01
DAV:   7    -0.269649974485E+03   -0.96066E-03   -0.10236E-02 53040   0.240E-01    0.944E-01
DAV:   8    -0.269648420713E+03    0.15538E-02   -0.73350E-03 55936   0.209E-01    0.213E-01
DAV:   9    -0.269648781854E+03   -0.36114E-03   -0.13122E-03 52328   0.955E-02    0.159E-01
DAV:  10    -0.269648915461E+03   -0.13361E-03   -0.58398E-04 44736   0.571E-02    0.153E-01
DAV:  11    -0.269648950624E+03   -0.35163E-04   -0.33381E-04 43960   0.495E-02    0.132E-01
DAV:  12    -0.269648953059E+03   -0.24343E-05   -0.10802E-04 36392   0.352E-02    0.927E-02
DAV:  13    -0.269648957718E+03   -0.46598E-05   -0.85564E-05 40160   0.307E-02
  72 F= -.26964896E+03 E0= -.26963907E+03  d E =0.194496E-01  mag=     4.0000
       N       E                     dE             d eps       ncg     rms          rms(c)
DAV:   1    -0.269637716302E+03    0.11237E-01   -0.86184E+00 39312   0.108E+01    0.105E+00
DAV:   2    -0.269675525792E+03   -0.37809E-01   -0.40502E-01 42208   0.194E+00    0.247E+00
DAV:   3    -0.269671249460E+03    0.42763E-02   -0.14990E-01 55632   0.794E-01    0.198E+00
DAV:   4    -0.269672285024E+03   -0.10356E-02   -0.60398E-02 53600   0.531E-01    0.200E+00
DAV:   5    -0.269666091078E+03    0.61939E-02   -0.29990E-02 53152   0.396E-01    0.355E-01
DAV:   6    -0.269666983269E+03   -0.89219E-03   -0.42570E-03 54680   0.205E-01    0.500E-01
DAV:   7    -0.269666938930E+03    0.44338E-04   -0.59072E-03 53992   0.179E-01    0.533E-01
DAV:   8    -0.269666523704E+03    0.41523E-03   -0.32244E-03 54624   0.164E-01    0.196E-01
DAV:   9    -0.269666823348E+03   -0.29964E-03   -0.17134E-03 52784   0.102E-01    0.189E-01
DAV:  10    -0.269666906293E+03   -0.82945E-04   -0.36048E-04 48600   0.672E-02    0.165E-01
DAV:  11    -0.269666915011E+03   -0.87179E-05   -0.14257E-04 38960   0.422E-02    0.149E-01
DAV:  12    -0.269666905890E+03    0.91205E-05   -0.98563E-05 40448   0.386E-02
  73 F= -.26966691E+03 E0= -.26965689E+03  d E =-.179482E-01  mag=     4.0000
       N       E                     dE             d eps       ncg     rms          rms(c)
DAV:   1    -0.269665551721E+03    0.13633E-02   -0.14607E-01 40320   0.148E+00    0.232E-01
DAV:   2    -0.269666596054E+03   -0.10443E-02   -0.10202E-02 48368   0.314E-01    0.694E-01
DAV:   3    -0.269666128288E+03    0.46777E-03   -0.89991E-03 53464   0.190E-01    0.441E-01
DAV:   4    -0.269666258657E+03   -0.13037E-03   -0.29236E-03 53184   0.118E-01    0.437E-01
DAV:   5    -0.269665958861E+03    0.29980E-03   -0.16699E-03 51848   0.885E-02    0.777E-02
DAV:   6    -0.269666005389E+03   -0.46528E-04   -0.70815E-05 41392   0.425E-02    0.542E-02
DAV:   7    -0.269666014312E+03   -0.89232E-05   -0.11982E-04 33224   0.360E-02    0.875E-02
DAV:   8    -0.269666011922E+03    0.23903E-05   -0.15427E-04 31408   0.310E-02    0.726E-02
DAV:   9    -0.269666013212E+03   -0.12902E-05   -0.42729E-05 26824   0.206E-02
  74 F= -.26966601E+03 E0= -.26965600E+03  d E =0.892678E-03  mag=     4.0000
       N       E                     dE             d eps       ncg     rms          rms(c)
DAV:   1    -0.269666807981E+03   -0.79606E-03   -0.13084E-01 40320   0.138E+00    0.150E-01
DAV:   2    -0.269667560229E+03   -0.75225E-03   -0.73695E-03 43632   0.261E-01    0.528E-01
DAV:   3    -0.269667229921E+03    0.33031E-03   -0.40759E-03 54464   0.132E-01    0.247E-01
DAV:   4    -0.269667314233E+03   -0.84312E-04   -0.93275E-04 47736   0.717E-02    0.244E-01
DAV:   5    -0.269667216774E+03    0.97459E-04   -0.51896E-04 34568   0.522E-02    0.628E-02
DAV:   6    -0.269667224537E+03   -0.77631E-05   -0.49088E-05 36560   0.328E-02
  75 F= -.26966722E+03 E0= -.26965720E+03  d E =-.121132E-02  mag=     4.0000
