       N       E                     dE             d eps       ncg     rms          ort
DAV:   1     0.223795321795E+04    0.22380E+04   -0.13766E+05 10080   0.155E+03
DAV:   2    -0.252802928390E+03   -0.24908E+04   -0.23472E+04 10080   0.415E+02
DAV:   3    -0.483534334857E+03   -0.23073E+03   -0.22736E+03 10080   0.142E+02
DAV:   4    -0.489577227832E+03   -0.60429E+01   -0.59772E+01 10080   0.224E+01
DAV:   5    -0.489884038466E+03   -0.30681E+00   -0.30628E+00 10080   0.382E+00
SDA:   6    -0.252846684929E+03    0.23704E+03   -0.30628E+00 10080   0.948E+03 0.000E+00
CGA:   7    -0.289612597236E+03   -0.36766E+02   -0.97033E+02 10080   0.356E+03 0.601E+02
CGA:   8    -0.338940351793E+03   -0.49328E+02   -0.16858E+02 10080   0.830E+03-0.989E+03
CGA:   9    -0.320072919654E+03    0.18867E+02   -0.64401E+02 10080   0.253E+03-0.355E+02
CGA:  10    -0.360105688138E+03   -0.40033E+02   -0.85719E+01 10080   0.307E+03 0.138E+03
CGA:  11    -0.333049631893E+03    0.27056E+02   -0.19090E+02 10080   0.104E+04-0.253E+03
CGA:  12    -0.343438304896E+03   -0.10389E+02   -0.62175E+02 10080   0.976E+03-0.248E+03
CGA:  13    -0.332507373697E+03    0.10931E+02   -0.50106E+02 10080   0.310E+03-0.375E+02
CGA:  14    -0.344852238140E+03   -0.12345E+02   -0.10261E+02 10080   0.218E+03 0.285E+02
CGA:  15    -0.331095118218E+03    0.13757E+02   -0.10254E+02 10080   0.354E+03-0.173E+03
CGA:  16    -0.368546525011E+03   -0.37451E+02   -0.10931E+02 10080   0.262E+03-0.407E+03
CGA:  17    -0.360169215621E+03    0.83773E+01   -0.11698E+02 10080   0.354E+03-0.209E+03
CGA:  18    -0.343850553130E+03    0.16319E+02   -0.17268E+02 10080   0.234E+03-0.155E+03
CGA:  19    -0.355709000831E+03   -0.11858E+02   -0.77598E+01 10080   0.896E+03 0.107E+03
CGA:  20    -0.325575783488E+03    0.30133E+02   -0.67012E+02 10080   0.303E+03-0.286E+03
CGA:  21    -0.352855498495E+03   -0.27280E+02   -0.15913E+02 10080   0.144E+03-0.174E+03
CGA:  22    -0.361996787451E+03   -0.91413E+01   -0.40394E+01 10080   0.163E+03 0.221E+03
CGA:  23    -0.370466174049E+03   -0.84694E+01   -0.44409E+01 10080   0.407E+03-0.658E+03
CGA:  24    -0.361343322698E+03    0.91229E+01   -0.19091E+02 10080   0.165E+03-0.100E+03
CGA:  25    -0.374125171296E+03   -0.12782E+02   -0.31752E+01 10080   0.193E+03-0.448E+03
CGA:  26    -0.367285592202E+03    0.68396E+01   -0.70117E+01 10080   0.584E+03-0.231E+03
CGA:  27    -0.350339207222E+03    0.16946E+02   -0.23269E+02 10080   0.384E+03-0.190E+03
CGA:  28    -0.357649239634E+03   -0.73100E+01   -0.11766E+02 10080   0.121E+03-0.103E+03
CGA:  29    -0.362602527939E+03   -0.49533E+01   -0.16993E+01 10080   0.469E+03 0.503E+03
CGA:  30    -0.349176306657E+03    0.13426E+02   -0.15397E+02 10080   0.294E+03-0.175E+03
CGA:  31    -0.358583584504E+03   -0.94073E+01   -0.82665E+01 10080   0.123E+03-0.103E+03
CGA:  32    -0.361276095047E+03   -0.26925E+01   -0.12960E+01 10080   0.111E+03 0.875E+02
CGA:  33    -0.377119720996E+03   -0.15844E+02   -0.17129E+01 10080   0.100E+02 0.111E+03
CGA:  34    -0.377227819268E+03   -0.10810E+00   -0.12030E+00 10080   0.400E+01-0.728E+00
CGA:  35    -0.377533613702E+03   -0.30579E+00   -0.30233E+00 10080   0.158E+02 0.375E+00
CGA:  36    -0.378402234674E+03   -0.86862E+00   -0.97126E+00 10080   0.390E+01 0.103E+01
CGA:  37    -0.378528801057E+03   -0.12657E+00   -0.14574E+00 10080   0.165E+01-0.337E+00
CGA:  38    -0.378749109323E+03   -0.22031E+00   -0.19277E+00 10080   0.223E+01 0.436E+00
CGA:  39    -0.378906170092E+03   -0.15706E+00   -0.16181E+00 10080   0.161E+01-0.110E-02
CGA:  40    -0.379140504674E+03   -0.23433E+00   -0.20924E+00 10080   0.690E+00 0.352E+00
CGA:  41    -0.379206520480E+03   -0.66016E-01   -0.66013E-01 10080   0.621E+00-0.208E-01
CGA:  42    -0.379317721662E+03   -0.11120E+00   -0.18218E+00 10080   0.110E+01-0.324E+00
CGA:  43    -0.379373283619E+03   -0.55562E-01   -0.56201E-01 10080   0.161E+00-0.305E-02
CGA:  44    -0.379395723481E+03   -0.22440E-01   -0.22536E-01 10080   0.136E+00-0.267E-02
CGA:  45    -0.379422234857E+03   -0.26511E-01   -0.28217E-01 10080   0.670E-01-0.135E-01
CGA:  46    -0.379431681166E+03   -0.94463E-02   -0.98135E-02 10080   0.102E+00-0.578E-02
CGA:  47    -0.379445497984E+03   -0.13817E-01   -0.14109E-01 10080   0.275E-01-0.555E-02
CGA:  48    -0.379450777213E+03   -0.52792E-02   -0.11992E-01 10080   0.125E+00-0.177E-01
CGA:  49    -0.379459234308E+03   -0.84571E-02   -0.84034E-02 10080   0.109E-01 0.260E-02
CGA:  50    -0.379460863766E+03   -0.16295E-02   -0.16562E-02 10080   0.128E-01-0.907E-03
CGA:  51    -0.379463525535E+03   -0.26618E-02   -0.28380E-02 10080   0.798E-02-0.136E-02
CGA:  52    -0.379465348884E+03   -0.18233E-02    0.21561E-01 10080   0.536E-02 0.452E-02
CGA:  53    -0.379465518458E+03   -0.16957E-03   -0.26100E-02 10080   0.318E-01-0.665E-02
CGA:  54    -0.379467722555E+03   -0.22041E-02   -0.22983E-02 10080   0.412E-02 0.196E-02
CGA:  55    -0.379468374379E+03   -0.65182E-03   -0.65041E-03 10080   0.282E-02 0.157E-03
CGA:  56    -0.379468998579E+03   -0.62420E-03   -0.71403E-03 10080   0.408E-02-0.844E-03
CGA:  57    -0.379470086426E+03   -0.10878E-02    0.66688E-03 10080   0.432E-02 0.202E-02
CGA:  58    -0.379472010878E+03   -0.19245E-02    0.19193E-01 10080   0.261E-02 0.251E-02
CGA:  59    -0.379472386500E+03   -0.37562E-03   -0.37587E-03 10080   0.160E-02 0.198E-03
CGA:  60    -0.379472427571E+03   -0.41071E-04   -0.90767E-03 10080   0.107E-01-0.225E-02
CGA:  61    -0.379473327813E+03   -0.90024E-03   -0.90678E-03 10080   0.312E-02 0.273E-03
CGA:  62    -0.379473804471E+03   -0.47666E-03   -0.12414E-02 10080   0.628E-02-0.336E-02
CGA:  63    -0.379474306737E+03   -0.50227E-03   -0.58371E-03 10080   0.210E-02 0.109E-02
CGA:  64    -0.379474675576E+03   -0.36884E-03   -0.37304E-03 10080   0.578E-03 0.258E-03
CGA:  65    -0.379474933686E+03   -0.25811E-03    0.28417E-03 10080   0.586E-03 0.300E-03
CGA:  66    -0.379475135034E+03   -0.20135E-03    0.16555E-02 10080   0.595E-03 0.234E-03
CGA:  67    -0.379475531457E+03   -0.39642E-03    0.16285E-03 10080   0.559E-03 0.611E-03
CGA:  68    -0.379475717652E+03   -0.18619E-03   -0.18186E-03 10080   0.133E-02 0.301E-04
CGA:  69    -0.379476280471E+03   -0.56282E-03    0.83035E-03 10080   0.110E-02 0.887E-03
CGA:  70    -0.379476080183E+03    0.20029E-03   -0.57348E-03 10080   0.106E-01-0.224E-02
CGA:  71    -0.379476976196E+03   -0.89601E-03   -0.91651E-03 10080   0.163E-02 0.850E-04
CGA:  72    -0.379477063324E+03   -0.87129E-04   -0.13887E-03 10080   0.422E-03 0.510E-03
CGA:  73    -0.379477133252E+03   -0.69928E-04   -0.75965E-04 10080   0.528E-03 0.136E-03
CGA:  74    -0.379477417289E+03   -0.28404E-03    0.47067E-03 10080   0.987E-03 0.320E-03
CGA:  75    -0.379477590674E+03   -0.17339E-03   -0.29278E-03 10080   0.305E-02-0.101E-02
CGA:  76    -0.379477855369E+03   -0.26469E-03   -0.26788E-03 10080   0.405E-03 0.298E-04
CGA:  77    -0.379477920657E+03   -0.65288E-04   -0.67729E-04 10080   0.398E-03 0.163E-03
CGA:  78    -0.379478158741E+03   -0.23808E-03    0.26947E-03 10080   0.453E-03 0.366E-03
CGA:  79    -0.379478342060E+03   -0.18332E-03    0.32607E-03 10080   0.386E-03 0.852E-04
CGA:  80    -0.379478578790E+03   -0.23673E-03    0.94926E-04 10080   0.380E-03 0.347E-03
CGA:  81    -0.379478642838E+03   -0.64048E-04   -0.65264E-04 10080   0.264E-03 0.152E-03
CGA:  82    -0.379478817716E+03   -0.17488E-03    0.10307E-03 10080   0.327E-03 0.319E-03
CGA:  83    -0.379478961205E+03   -0.14349E-03    0.13110E-03 10080   0.300E-03 0.130E-03
CGA:  84    -0.379479186152E+03   -0.22495E-03    0.76267E-04 10080   0.355E-03 0.322E-03
CGA:  85    -0.379479216186E+03   -0.30034E-04   -0.39997E-04 10080   0.248E-03 0.150E-03
CGA:  86    -0.379479347606E+03   -0.13142E-03    0.54475E-03 10080   0.329E-03 0.230E-03
CGA:  87    -0.379479495125E+03   -0.14752E-03    0.10596E-03 10080   0.234E-03 0.854E-04
CGA:  88    -0.379479644108E+03   -0.14898E-03    0.58953E-04 10080   0.239E-03 0.277E-03
CGA:  89    -0.379479694520E+03   -0.50412E-04   -0.48200E-04 10080   0.209E-03 0.867E-04
CGA:  90    -0.379479843001E+03   -0.14848E-03    0.53555E-04 10080   0.207E-03 0.263E-03
CGA:  91    -0.379479934329E+03   -0.91328E-04    0.74269E-04 10080   0.185E-03 0.861E-04
CGA:  92    -0.379480077274E+03   -0.14295E-03    0.43328E-04 10080   0.214E-03 0.209E-03
CGA:  93    -0.379480094065E+03   -0.16790E-04   -0.23605E-04 10080   0.152E-03 0.102E-03
CGA:  94    -0.379480178948E+03   -0.84883E-04    0.22833E-03 10080   0.202E-03 0.152E-03
CGA:  95    -0.379480275595E+03   -0.96646E-04    0.46838E-04 10080   0.144E-03 0.624E-04
CGA:  96    -0.379480367240E+03   -0.91645E-04    0.41334E-04 10080   0.151E-03 0.176E-03
CGA:  97    -0.379480413266E+03   -0.46026E-04   -0.43488E-04 10080   0.214E-03 0.218E-04
CGA:  98    -0.379480530229E+03   -0.11696E-03    0.67475E-04 10080   0.185E-03 0.211E-03
CGA:  99    -0.379480621279E+03   -0.91050E-04    0.45003E-04 10080   0.162E-03 0.102E-04
CGA: 100    -0.379480657662E+03   -0.36383E-04   -0.87842E-04 10080   0.181E-02-0.153E-03
CGA: 101    -0.379480834446E+03   -0.17678E-03   -0.14588E-03 10080   0.346E-03-0.282E-03
CGA: 102    -0.379480847492E+03   -0.13046E-04   -0.24829E-04 10080   0.746E-04 0.112E-03
CGA: 103    -0.379480854476E+03   -0.69844E-05   -0.10181E-04 10080   0.965E-04 0.391E-04
CGA: 104    -0.379480909137E+03   -0.54661E-04    0.15510E-04 10080   0.218E-03-0.125E-04
CGA: 105    -0.379481015249E+03   -0.10611E-03    0.31589E-04 10080   0.254E-03 0.165E-03
CGA: 106    -0.379481015166E+03    0.83470E-07   -0.12162E-04 10080   0.648E-04 0.931E-04
   1 F= -.37948102E+03 E0= -.37948005E+03  d E =-.379481E+03  mag=     8.0000
       N       E                     dE             d eps       ncg     rms          ort
SDA:   1    -0.379482163270E+03   -0.11480E-02    0.00000E+00 10080   0.408E-02 0.000E+00
CGA:   2    -0.379482329979E+03   -0.16671E-03   -0.21489E-03 10080   0.190E-03 0.503E-03
CGA:   3    -0.379482338551E+03   -0.85721E-05   -0.16118E-04 10080   0.131E-03 0.874E-04
CGA:   4    -0.379482380906E+03   -0.42355E-04   -0.43633E-04 10080   0.139E-03-0.186E-04
CGA:   5    -0.379482425898E+03   -0.44992E-04    0.59823E-04 10080   0.245E-03-0.637E-04
CGA:   6    -0.379481312047E+03    0.11139E-02   -0.60447E-03 10080   0.480E-02-0.144E-02
CGA:   7    -0.379482358766E+03   -0.10467E-02   -0.10582E-02 10080   0.183E-02 0.152E-03
CGA:   8    -0.379482777424E+03   -0.41866E-03   -0.39736E-03 10080   0.193E-02-0.266E-03
CGA:   9    -0.379482895503E+03   -0.11808E-03   -0.14467E-03 10080   0.287E-03 0.137E-03
CGA:  10    -0.379482915635E+03   -0.20133E-04   -0.28817E-04 10080   0.175E-03 0.484E-04
CGA:  11    -0.379482962813E+03   -0.47177E-04   -0.42086E-04 10080   0.150E-03-0.817E-04
CGA:  12    -0.379482964256E+03   -0.14436E-05   -0.57448E-05 10080   0.104E-03 0.223E-04
   2 F= -.37948296E+03 E0= -.37948203E+03  d E =-.194909E-02  mag=     8.0000
       N       E                     dE             d eps       ncg     rms          ort
SDA:   1    -0.379450007896E+03    0.32955E-01    0.00000E+00 10080   0.235E+00 0.000E+00
CGA:   2    -0.379503713592E+03   -0.53706E-01   -0.53727E-01 10080   0.107E+00 0.157E-02
CGA:   3    -0.379518038031E+03   -0.14324E-01   -0.14354E-01 10080   0.618E-01-0.326E-02
CGA:   4    -0.379526126155E+03   -0.80881E-02   -0.81111E-02 10080   0.115E-01 0.926E-03
CGA:   5    -0.379528442010E+03   -0.23159E-02   -0.22991E-02 10080   0.319E-02-0.448E-03
CGA:   6    -0.379528926278E+03   -0.48427E-03   -0.48983E-03 10080   0.115E-02 0.812E-04
CGA:   7    -0.379529167982E+03   -0.24170E-03   -0.23858E-03 10080   0.755E-03-0.116E-03
CGA:   8    -0.379529241768E+03   -0.73786E-04   -0.82948E-04 10080   0.337E-03 0.890E-04
CGA:   9    -0.379529129325E+03    0.11244E-03   -0.24388E-03 10080   0.337E-02-0.836E-03
CGA:  10    -0.379529397880E+03   -0.26855E-03   -0.31735E-03 10080   0.456E-03 0.348E-03
CGA:  11    -0.379529482191E+03   -0.84311E-04   -0.82635E-04 10080   0.180E-03-0.234E-04
CGA:  12    -0.379529489878E+03   -0.76872E-05   -0.14326E-04 10080   0.577E-04 0.451E-04
CGA:  13    -0.379529507791E+03   -0.17913E-04   -0.18302E-04 10080   0.116E-03-0.139E-04
CGA:  14    -0.379529528686E+03   -0.20895E-04   -0.18842E-04 10080   0.222E-03-0.178E-03
CGA:  15    -0.379529532722E+03   -0.40368E-05   -0.17391E-04 10080   0.788E-04 0.909E-04
CGA:  16    -0.379529544476E+03   -0.11754E-04   -0.14461E-04 10080   0.287E-04 0.305E-04
CGA:  17    -0.379529572537E+03   -0.28061E-04    0.65775E-05 10080   0.803E-04-0.244E-04
CGA:  18    -0.379529570621E+03    0.19165E-05   -0.35739E-05 10080   0.189E-04 0.327E-04
   3 F= -.37952957E+03 E0= -.37952871E+03  d E =-.466064E-01  mag=     8.0000
       N       E                     dE             d eps       ncg     rms          ort
SDA:   1    -0.379089170840E+03    0.44040E+00    0.00000E+00 10080   0.163E+01 0.000E+00
CGA:   2    -0.379456062164E+03   -0.36689E+00   -0.36714E+00 10080   0.790E+00-0.318E-02
CGA:   3    -0.379548494063E+03   -0.92432E-01   -0.96049E-01 10080   0.383E+00-0.115E-01
CGA:   4    -0.379607098438E+03   -0.58604E-01   -0.58420E-01 10080   0.753E-01 0.840E-03
CGA:   5    -0.379621547091E+03   -0.14449E-01   -0.14445E-01 10080   0.232E-01-0.209E-02
CGA:   6    -0.379624448149E+03   -0.29011E-02   -0.29518E-02 10080   0.925E-02 0.104E-02
CGA:   7    -0.379626227280E+03   -0.17791E-02   -0.17748E-02 10080   0.507E-02-0.696E-03
CGA:   8    -0.379626974452E+03   -0.74717E-03   -0.75312E-03 10080   0.253E-02 0.222E-03
CGA:   9    -0.379627656730E+03   -0.68228E-03   -0.84979E-03 10080   0.327E-02-0.124E-02
CGA:  10    -0.379627851622E+03   -0.19489E-03   -0.18869E-03 10080   0.177E-02-0.708E-04
CGA:  11    -0.379628097140E+03   -0.24552E-03   -0.24522E-03 10080   0.116E-02-0.445E-05
CGA:  12    -0.379628280815E+03   -0.18368E-03   -0.16725E-03 10080   0.722E-03-0.375E-03
CGA:  13    -0.379628355064E+03   -0.74249E-04   -0.72687E-04 10080   0.450E-03-0.410E-04
CGA:  14    -0.379628428202E+03   -0.73138E-04   -0.72339E-04 10080   0.327E-03-0.578E-04
CGA:  15    -0.379628381397E+03    0.46805E-04   -0.11328E-03 10080   0.250E-02-0.746E-03
CGA:  16    -0.379628507285E+03   -0.12589E-03   -0.16852E-03 10080   0.322E-03 0.377E-03
CGA:  17    -0.379628564299E+03   -0.57014E-04   -0.58904E-04 10080   0.193E-03 0.657E-04
CGA:  18    -0.379628601682E+03   -0.37383E-04   -0.59846E-04 10080   0.658E-03-0.315E-03
CGA:  19    -0.379628620869E+03   -0.19187E-04   -0.38657E-04 10080   0.866E-04 0.155E-03
CGA:  20    -0.379628627460E+03   -0.65902E-05   -0.98682E-05 10080   0.601E-04 0.361E-04
CGA:  21    -0.379628174094E+03    0.45337E-03   -0.24406E-03 10080   0.270E-02-0.571E-03
CGA:  22    -0.379628464985E+03   -0.29089E-03   -0.34794E-03 10080   0.125E-02 0.323E-03
CGA:  23    -0.379628709108E+03   -0.24412E-03   -0.22431E-03 10080   0.108E-03-0.128E-03
CGA:  24    -0.379628710820E+03   -0.17114E-05   -0.70293E-05 10080   0.172E-04 0.232E-04
CGA:  25    -0.379628695973E+03    0.14847E-04   -0.15060E-04 10080   0.439E-03-0.705E-04
CGA:  26    -0.379628754191E+03   -0.58219E-04   -0.41596E-04 10080   0.839E-04-0.765E-04
CGA:  27    -0.379628748837E+03    0.53540E-05   -0.43128E-05 10080   0.271E-04 0.397E-04
   4 F= -.37962875E+03 E0= -.37962809E+03  d E =-.991782E-01  mag=     8.0000
       N       E                     dE             d eps       ncg     rms          ort
SDA:   1    -0.379049803205E+03    0.57895E+00    0.00000E+00 10080   0.203E+01 0.000E+00
CGA:   2    -0.379526046796E+03   -0.47624E+00   -0.47610E+00 10080   0.711E+00 0.167E-02
CGA:   3    -0.379633162795E+03   -0.10712E+00   -0.11111E+00 10080   0.434E+00-0.124E-01
CGA:   4    -0.379690685914E+03   -0.57523E-01   -0.55711E-01 10080   0.705E-01 0.124E-01
CGA:   5    -0.379705772424E+03   -0.15087E-01   -0.15015E-01 10080   0.193E-01-0.125E-02
CGA:   6    -0.379709227072E+03   -0.34546E-02   -0.34605E-02 10080   0.825E-02 0.994E-04
CGA:   7    -0.379710969850E+03   -0.17428E-02   -0.17336E-02 10080   0.440E-02-0.168E-03
CGA:   8    -0.379712149669E+03   -0.11798E-02   -0.11862E-02 10080   0.252E-02-0.335E-03
CGA:   9    -0.379712840785E+03   -0.69112E-03   -0.73057E-03 10080   0.297E-02-0.691E-03
CGA:  10    -0.379713056979E+03   -0.21619E-03   -0.22483E-03 10080   0.947E-03 0.658E-04
CGA:  11    -0.379713220863E+03   -0.16388E-03   -0.16143E-03 10080   0.806E-03-0.276E-04
CGA:  12    -0.379713369619E+03   -0.14876E-03   -0.12218E-03 10080   0.428E-03-0.289E-03
CGA:  13    -0.379713406751E+03   -0.37131E-04   -0.35197E-04 10080   0.247E-03-0.162E-04
CGA:  14    -0.379713453159E+03   -0.46408E-04   -0.45187E-04 10080   0.230E-03-0.254E-04
CGA:  15    -0.379713467772E+03   -0.14614E-04   -0.73011E-04 10080   0.129E-02-0.490E-03
CGA:  16    -0.379713535471E+03   -0.67698E-04   -0.96948E-04 10080   0.179E-03 0.192E-03
CGA:  17    -0.379713579913E+03   -0.44442E-04   -0.44280E-04 10080   0.126E-03-0.923E-05
CGA:  18    -0.379713604206E+03   -0.24293E-04   -0.32436E-04 10080   0.393E-03-0.201E-03
CGA:  19    -0.379713616324E+03   -0.12118E-04   -0.26898E-04 10080   0.587E-04 0.923E-04
CGA:  20    -0.379713624699E+03   -0.83754E-05   -0.96539E-05 10080   0.428E-04 0.139E-04
CGA:  21    -0.379713651680E+03   -0.26981E-04    0.38824E-04 10080   0.391E-04-0.343E-04
CGA:  22    -0.379713650725E+03    0.95457E-06   -0.22897E-05 10080   0.146E-04 0.200E-04
CGA:  23    -0.379713651667E+03   -0.94171E-06   -0.12226E-04 10080   0.914E-04-0.180E-04
CGA:  24    -0.379713627135E+03    0.24532E-04   -0.41105E-04 10080   0.163E-02-0.317E-03
CGA:  25    -0.379713690935E+03   -0.63800E-04   -0.10039E-03 10080   0.420E-04 0.226E-03
CGA:  26    -0.379713689426E+03    0.15086E-05   -0.22066E-05 10080   0.983E-05 0.189E-04
   5 F= -.37971369E+03 E0= -.37971322E+03  d E =-.849406E-01  mag=     8.0000
       N       E                     dE             d eps       ncg     rms          ort
SDA:   1    -0.378766794018E+03    0.94690E+00    0.00000E+00 10080   0.306E+01 0.000E+00
CGA:   2    -0.379508636723E+03   -0.74184E+00   -0.74195E+00 10080   0.997E+00-0.241E-02
CGA:   3    -0.379673196302E+03   -0.16456E+00   -0.16779E+00 10080   0.577E+00 0.668E-02
CGA:   4    -0.379753868011E+03   -0.80672E-01   -0.78928E-01 10080   0.857E-01 0.905E-02
CGA:   5    -0.379773764958E+03   -0.19897E-01   -0.19914E-01 10080   0.223E-01-0.188E-02
CGA:   6    -0.379778011930E+03   -0.42470E-02   -0.42607E-02 10080   0.122E-01 0.619E-03
CGA:   7    -0.379780529118E+03   -0.25172E-02   -0.25024E-02 10080   0.843E-02-0.830E-03
CGA:   8    -0.379782135425E+03   -0.16063E-02   -0.16073E-02 10080   0.389E-02 0.970E-04
CGA:   9    -0.379783298196E+03   -0.11628E-02   -0.12610E-02 10080   0.392E-02-0.941E-03
CGA:  10    -0.379783668886E+03   -0.37069E-03   -0.38064E-03 10080   0.121E-02 0.117E-03
CGA:  11    -0.379783938925E+03   -0.27004E-03   -0.27000E-03 10080   0.827E-03-0.577E-04
CGA:  12    -0.379784096809E+03   -0.15788E-03   -0.14096E-03 10080   0.618E-03-0.436E-03
CGA:  13    -0.379784146318E+03   -0.49509E-04   -0.62180E-04 10080   0.168E-03 0.114E-03
CGA:  14    -0.379784120059E+03    0.26259E-04   -0.13228E-03 10080   0.897E-03-0.349E-03
CGA:  15    -0.379784252127E+03   -0.13207E-03   -0.14025E-03 10080   0.249E-03 0.109E-03
CGA:  16    -0.379784314699E+03   -0.62573E-04   -0.60422E-04 10080   0.203E-03-0.169E-03
CGA:  17    -0.379784321660E+03   -0.69607E-05   -0.14061E-04 10080   0.272E-04 0.462E-04
CGA:  18    -0.379784327936E+03   -0.62766E-05   -0.12960E-04 10080   0.185E-03-0.397E-04
CGA:  19    -0.379784365686E+03   -0.37749E-04   -0.26617E-04 10080   0.137E-03-0.130E-03
CGA:  20    -0.379784366707E+03   -0.10217E-05   -0.77595E-05 10080   0.171E-04 0.411E-04
   6 F= -.37978437E+03 E0= -.37978409E+03  d E =-.706773E-01  mag=     8.0000
       N       E                     dE             d eps       ncg     rms          ort
SDA:   1    -0.378150703408E+03    0.16337E+01    0.00000E+00 10080   0.491E+01 0.000E+00
CGA:   2    -0.379380932839E+03   -0.12302E+01   -0.12306E+01 10080   0.158E+01-0.602E-02
CGA:   3    -0.379669423888E+03   -0.28849E+00   -0.29062E+00 10080   0.807E+00 0.277E-01
CGA:   4    -0.379781588191E+03   -0.11216E+00   -0.10918E+00 10080   0.130E+00 0.125E-01
CGA:   5    -0.379810661425E+03   -0.29073E-01   -0.29103E-01 10080   0.330E-01-0.216E-02
CGA:   6    -0.379817514584E+03   -0.68532E-02   -0.68483E-02 10080   0.167E-01 0.100E-02
CGA:   7    -0.379821237705E+03   -0.37231E-02   -0.37344E-02 10080   0.129E-01-0.111E-02
CGA:   8    -0.379823634245E+03   -0.23965E-02   -0.23983E-02 10080   0.538E-02 0.290E-03
CGA:   9    -0.379825501830E+03   -0.18676E-02   -0.19556E-02 10080   0.276E-02-0.584E-03
CGA:  10    -0.379826034267E+03   -0.53244E-03   -0.53210E-03 10080   0.134E-02 0.127E-03
CGA:  11    -0.379826351054E+03   -0.31679E-03   -0.32750E-03 10080   0.108E-02-0.536E-03
CGA:  12    -0.379826440312E+03   -0.89257E-04   -0.88544E-04 10080   0.398E-03-0.713E-05
CGA:  13    -0.379826506315E+03   -0.66004E-04   -0.66883E-04 10080   0.345E-03 0.211E-04
CGA:  14    -0.379826585564E+03   -0.79249E-04   -0.10289E-03 10080   0.482E-03-0.319E-03
CGA:  15    -0.379826630468E+03   -0.44904E-04   -0.54988E-04 10080   0.145E-03 0.105E-03
CGA:  16    -0.379826668310E+03   -0.37842E-04   -0.75598E-04 10080   0.257E-03-0.171E-03
CGA:  17    -0.379826698895E+03   -0.30585E-04   -0.36429E-04 10080   0.775E-04 0.760E-04
CGA:  18    -0.379826686244E+03    0.12651E-04   -0.56988E-04 10080   0.553E-03-0.197E-03
CGA:  19    -0.379826725730E+03   -0.39485E-04   -0.53601E-04 10080   0.125E-03 0.108E-03
CGA:  20    -0.379826768249E+03   -0.42519E-04   -0.50179E-04 10080   0.688E-04-0.696E-04
CGA:  21    -0.379826764195E+03    0.40535E-05   -0.38852E-04 10080   0.602E-03-0.128E-03
CGA:  22    -0.379826793160E+03   -0.28965E-04   -0.44507E-04 10080   0.412E-04 0.970E-04
CGA:  23    -0.379826802536E+03   -0.93760E-05   -0.90355E-05 10080   0.493E-04-0.660E-05
   7 F= -.37982680E+03 E0= -.37982659E+03  d E =-.424358E-01  mag=     8.0000
       N       E                     dE             d eps       ncg     rms          ort
SDA:   1    -0.375347996819E+03    0.44788E+01    0.00000E+00 10080   0.118E+02 0.000E+00
CGA:   2    -0.378739476952E+03   -0.33915E+01   -0.33924E+01 10080   0.404E+01-0.155E-01
CGA:   3    -0.379535992712E+03   -0.79652E+00   -0.80220E+00 10080   0.148E+01 0.498E-01
CGA:   4    -0.379740761502E+03   -0.20477E+00   -0.19485E+00 10080   0.268E+00 0.526E-01
CGA:   5    -0.379798293639E+03   -0.57532E-01   -0.57484E-01 10080   0.684E-01-0.276E-02
CGA:   6    -0.379813584256E+03   -0.15291E-01   -0.15297E-01 10080   0.256E-01 0.143E-02
CGA:   7    -0.379820722784E+03   -0.71385E-02   -0.71939E-02 10080   0.172E-01-0.124E-02
CGA:   8    -0.379824188242E+03   -0.34655E-02   -0.34605E-02 10080   0.103E-01-0.190E-03
CGA:   9    -0.379826998008E+03   -0.28098E-02   -0.28492E-02 10080   0.477E-02-0.804E-03
CGA:  10    -0.379828124552E+03   -0.11265E-02   -0.11290E-02 10080   0.224E-02-0.105E-03
CGA:  11    -0.379828666028E+03   -0.54148E-03   -0.55469E-03 10080   0.177E-02-0.709E-03
CGA:  12    -0.379828920040E+03   -0.25401E-03   -0.24724E-03 10080   0.663E-03-0.210E-03
CGA:  13    -0.379829127806E+03   -0.20777E-03   -0.22349E-03 10080   0.520E-03-0.107E-03
CGA:  14    -0.379829068973E+03    0.58833E-04   -0.27210E-03 10080   0.394E-02-0.862E-03
CGA:  15    -0.379829415035E+03   -0.34606E-03   -0.38265E-03 10080   0.344E-03 0.271E-03
CGA:  16    -0.379829502366E+03   -0.87330E-04   -0.88264E-04 10080   0.136E-03 0.740E-04
CGA:  17    -0.379829546077E+03   -0.43711E-04   -0.60518E-04 10080   0.446E-03-0.148E-03
CGA:  18    -0.379829584950E+03   -0.38873E-04   -0.44947E-04 10080   0.521E-04 0.407E-04
CGA:  19    -0.379829610035E+03   -0.25085E-04   -0.26265E-04 10080   0.725E-04-0.574E-05
CGA:  20    -0.379828988859E+03    0.62118E-03   -0.33712E-03 10080   0.648E-02-0.507E-03
CGA:  21    -0.379829648772E+03   -0.65991E-03   -0.68133E-03 10080   0.414E-03 0.455E-04
CGA:  22    -0.379829766105E+03   -0.11733E-03   -0.12474E-03 10080   0.326E-04 0.471E-04
CGA:  23    -0.379829820610E+03   -0.54506E-04    0.12060E-04 10080   0.674E-04-0.213E-04
CGA:  24    -0.379829814144E+03    0.64660E-05   -0.50072E-05 10080   0.174E-04 0.307E-04
   8 F= -.37982981E+03 E0= -.37982975E+03  d E =-.301161E-02  mag=     8.0000
       N       E                     dE             d eps       ncg     rms          ort
SDA:   1    -0.379109634506E+03    0.72019E+00    0.00000E+00 10080   0.175E+01 0.000E+00
CGA:   2    -0.379705502473E+03   -0.59587E+00   -0.59584E+00 10080   0.549E+00-0.353E-03
CGA:   3    -0.379813201838E+03   -0.10770E+00   -0.10795E+00 10080   0.137E+00 0.314E-03
CGA:   4    -0.379835284920E+03   -0.22083E-01   -0.21948E-01 10080   0.307E-01 0.522E-03
CGA:   5    -0.379841145736E+03   -0.58608E-02   -0.57850E-02 10080   0.854E-02-0.474E-03
CGA:   6    -0.379842646047E+03   -0.15003E-02   -0.15678E-02 10080   0.248E-02 0.394E-03
CGA:   7    -0.379843258234E+03   -0.61219E-03   -0.61078E-03 10080   0.108E-02-0.101E-04
CGA:   8    -0.379843511158E+03   -0.25292E-03   -0.25920E-03 10080   0.537E-03 0.551E-04
CGA:   9    -0.379843681707E+03   -0.17055E-03   -0.16699E-03 10080   0.366E-03-0.607E-04
CGA:  10    -0.379843730981E+03   -0.49275E-04   -0.58193E-04 10080   0.134E-03 0.529E-04
CGA:  11    -0.379843789746E+03   -0.58764E-04   -0.62562E-04 10080   0.128E-03-0.568E-04
CGA:  12    -0.379843809175E+03   -0.19430E-04   -0.42062E-04 10080   0.324E-03-0.101E-03
CGA:  13    -0.379843842147E+03   -0.32971E-04   -0.43794E-04 10080   0.106E-03 0.507E-04
CGA:  14    -0.379843889116E+03   -0.46970E-04   -0.50669E-04 10080   0.872E-04-0.538E-04
CGA:  15    -0.379843900729E+03   -0.11612E-04   -0.15008E-04 10080   0.269E-04 0.193E-04
CGA:  16    -0.379843889940E+03    0.10789E-04   -0.25898E-04 10080   0.368E-03-0.815E-04
CGA:  17    -0.379843917940E+03   -0.28001E-04   -0.38920E-04 10080   0.586E-04 0.458E-04
CGA:  18    -0.379843939951E+03   -0.22011E-04   -0.21522E-04 10080   0.217E-04-0.211E-04
CGA:  19    -0.379843952930E+03   -0.12979E-04    0.71462E-05 10080   0.434E-04-0.777E-05
CGA:  20    -0.379843960835E+03   -0.79047E-05   -0.76088E-05 10080   0.262E-04-0.402E-05
CGA:  21    -0.379843970649E+03   -0.98142E-05   -0.10525E-04 10080   0.652E-04-0.745E-05
CGA:  22    -0.379843714236E+03    0.25641E-03   -0.59116E-04 10080   0.217E-02-0.346E-03
CGA:  23    -0.379843948768E+03   -0.23453E-03   -0.26298E-03 10080   0.380E-03 0.140E-03
CGA:  24    -0.379844052066E+03   -0.10330E-03   -0.99300E-04 10080   0.559E-04-0.290E-04
CGA:  25    -0.379844065070E+03   -0.13004E-04   -0.13680E-04 10080   0.797E-05 0.618E-05
CGA:  26    -0.379844064374E+03    0.69599E-06   -0.79919E-06 10080   0.378E-05 0.537E-05
   9 F= -.37984406E+03 E0= -.37984400E+03  d E =-.142502E-01  mag=     8.0000
       N       E                     dE             d eps       ncg     rms          ort
SDA:   1    -0.379580277610E+03    0.26379E+00    0.00000E+00 10080   0.716E+00 0.000E+00
CGA:   2    -0.379795911909E+03   -0.21563E+00   -0.21561E+00 10080   0.213E+00-0.753E-03
CGA:   3    -0.379845403642E+03   -0.49492E-01   -0.49570E-01 10080   0.514E-01 0.114E-02
CGA:   4    -0.379853988935E+03   -0.85853E-02   -0.85060E-02 10080   0.139E-01-0.647E-03
CGA:   5    -0.379856326120E+03   -0.23372E-02   -0.23833E-02 10080   0.340E-02 0.386E-03
CGA:   6    -0.379857137603E+03   -0.81148E-03   -0.80719E-03 10080   0.155E-02-0.471E-04
CGA:   7    -0.379857462838E+03   -0.32523E-03   -0.33602E-03 10080   0.717E-03 0.119E-03
CGA:   8    -0.379857685776E+03   -0.22294E-03   -0.22238E-03 10080   0.513E-03-0.254E-04
CGA:   9    -0.379857781477E+03   -0.95702E-04   -0.10371E-03 10080   0.198E-03 0.820E-04
CGA:  10    -0.379857838010E+03   -0.56532E-04   -0.57992E-04 10080   0.706E-04 0.287E-04
CGA:  11    -0.379857863660E+03   -0.25651E-04   -0.25527E-04 10080   0.339E-04 0.819E-05
CGA:  12    -0.379857867878E+03   -0.42177E-05   -0.66025E-05 10080   0.189E-04 0.188E-04
  10 F= -.37985787E+03 E0= -.37985778E+03  d E =-.138035E-01  mag=     8.0000
       N       E                     dE             d eps       ncg     rms          ort
SDA:   1    -0.379143268913E+03    0.71459E+00    0.00000E+00 10080   0.173E+01 0.000E+00
CGA:   2    -0.379730003319E+03   -0.58673E+00   -0.58687E+00 10080   0.549E+00-0.301E-02
CGA:   3    -0.379837931478E+03   -0.10793E+00   -0.10806E+00 10080   0.127E+00 0.227E-02
CGA:   4    -0.379859232805E+03   -0.21301E-01   -0.21242E-01 10080   0.291E-01-0.802E-03
CGA:   5    -0.379864572125E+03   -0.53393E-02   -0.53626E-02 10080   0.743E-02 0.329E-03
CGA:   6    -0.379866150253E+03   -0.15781E-02   -0.15674E-02 10080   0.257E-02-0.157E-03
CGA:   7    -0.379866660402E+03   -0.51015E-03   -0.52020E-03 10080   0.102E-02 0.156E-03
CGA:   8    -0.379866986873E+03   -0.32647E-03   -0.33426E-03 10080   0.893E-03-0.197E-03
CGA:   9    -0.379867113744E+03   -0.12687E-03   -0.13394E-03 10080   0.390E-03 0.827E-04
CGA:  10    -0.379867224275E+03   -0.11053E-03   -0.11066E-03 10080   0.207E-03 0.144E-04
CGA:  11    -0.379867243087E+03   -0.18812E-04   -0.12820E-03 10080   0.139E-02-0.334E-03
CGA:  12    -0.379867342943E+03   -0.99856E-04   -0.12989E-03 10080   0.167E-03 0.174E-03
CGA:  13    -0.379867381143E+03   -0.38200E-04   -0.40746E-04 10080   0.882E-04 0.432E-04
CGA:  14    -0.379867400752E+03   -0.19609E-04   -0.50812E-04 10080   0.606E-03-0.168E-03
CGA:  15    -0.379867438440E+03   -0.37688E-04   -0.54015E-04 10080   0.666E-04 0.910E-04
CGA:  16    -0.379867453919E+03   -0.15479E-04   -0.16392E-04 10080   0.534E-04 0.158E-04
CGA:  17    -0.379867427164E+03    0.26755E-04   -0.44091E-04 10080   0.735E-03-0.178E-03
CGA:  18    -0.379867482810E+03   -0.55646E-04   -0.73627E-04 10080   0.116E-03 0.103E-03
CGA:  19    -0.379867518389E+03   -0.35579E-04   -0.35650E-04 10080   0.469E-04 0.740E-05
CGA:  20    -0.379867529114E+03   -0.10725E-04   -0.17984E-04 10080   0.261E-03-0.888E-04
CGA:  21    -0.379867540196E+03   -0.11082E-04   -0.21275E-04 10080   0.258E-04 0.529E-04
CGA:  22    -0.379867542017E+03   -0.18208E-05   -0.36769E-05 10080   0.198E-04 0.121E-04
CGA:  23    -0.379867518003E+03    0.24014E-04   -0.31896E-04 10080   0.232E-03-0.682E-04
CGA:  24    -0.379867589037E+03   -0.71034E-04   -0.71034E-04 10080   0.888E-04-0.233E-06
CGA:  25    -0.379867597832E+03   -0.87950E-05   -0.10299E-04 10080   0.742E-05 0.840E-05
  11 F= -.37986760E+03 E0= -.37986750E+03  d E =-.972995E-02  mag=     8.0000
       N       E                     dE             d eps       ncg     rms          ort
SDA:   1    -0.373531136439E+03    0.63365E+01    0.00000E+00 10080   0.153E+02 0.000E+00
CGA:   2    -0.378560026285E+03   -0.50289E+01   -0.50292E+01 10080   0.550E+01-0.113E-01
CGA:   3    -0.379596004284E+03   -0.10360E+01   -0.10369E+01 10080   0.123E+01 0.108E-01
CGA:   4    -0.379804553951E+03   -0.20855E+00   -0.20833E+00 10080   0.263E+00-0.107E-02
CGA:   5    -0.379855597502E+03   -0.51044E-01   -0.50970E-01 10080   0.700E-01-0.736E-03
CGA:   6    -0.379869660098E+03   -0.14063E-01   -0.14135E-01 10080   0.215E-01 0.107E-02
CGA:   7    -0.379874770159E+03   -0.51101E-02   -0.50996E-02 10080   0.106E-01-0.252E-03
CGA:   8    -0.379877165405E+03   -0.23952E-02   -0.23949E-02 10080   0.560E-02 0.416E-04
CGA:   9    -0.379878745472E+03   -0.15801E-02   -0.15824E-02 10080   0.310E-02-0.300E-03
CGA:  10    -0.379879443068E+03   -0.69760E-03   -0.70283E-03 10080   0.149E-02 0.156E-03
CGA:  11    -0.379879960510E+03   -0.51744E-03   -0.57348E-03 10080   0.187E-02-0.606E-03
CGA:  12    -0.379880154746E+03   -0.19424E-03   -0.19315E-03 10080   0.108E-02-0.133E-04
CGA:  13    -0.379880405801E+03   -0.25105E-03   -0.25427E-03 10080   0.119E-02 0.846E-04
CGA:  14    -0.379880747534E+03   -0.34173E-03   -0.33929E-03 10080   0.124E-02-0.414E-03
CGA:  15    -0.379880990970E+03   -0.24344E-03   -0.41533E-03 10080   0.201E-02-0.732E-03
CGA:  16    -0.379881396536E+03   -0.40557E-03   -0.43009E-03 10080   0.625E-03 0.361E-03
CGA:  17    -0.379881592810E+03   -0.19627E-03   -0.19364E-03 10080   0.369E-03-0.163E-03
CGA:  18    -0.379881645449E+03   -0.52639E-04   -0.54102E-04 10080   0.169E-03 0.193E-04
CGA:  19    -0.379881690853E+03   -0.45404E-04   -0.46363E-04 10080   0.138E-03 0.710E-04
CGA:  20    -0.379881739301E+03   -0.48448E-04   -0.48847E-04 10080   0.101E-03 0.170E-04
CGA:  21    -0.379881787916E+03   -0.48615E-04   -0.47500E-04 10080   0.111E-03 0.681E-05
CGA:  22    -0.379881832547E+03   -0.44631E-04   -0.73010E-04 10080   0.431E-03-0.864E-04
CGA:  23    -0.379881860107E+03   -0.27559E-04   -0.41488E-04 10080   0.659E-04 0.736E-04
CGA:  24    -0.379881882818E+03   -0.22711E-04   -0.22652E-04 10080   0.805E-04 0.790E-05
CGA:  25    -0.379881889347E+03   -0.65289E-05   -0.45122E-04 10080   0.467E-03-0.180E-03
CGA:  26    -0.379881922800E+03   -0.33453E-04   -0.47921E-04 10080   0.815E-04 0.786E-04
CGA:  27    -0.379881945321E+03   -0.22521E-04   -0.23255E-04 10080   0.436E-04 0.170E-04
CGA:  28    -0.379881958920E+03   -0.13600E-04   -0.12004E-04 10080   0.477E-04-0.276E-04
CGA:  29    -0.379881958762E+03    0.15817E-06   -0.36664E-05 10080   0.121E-04 0.188E-04
  12 F= -.37988196E+03 E0= -.37988183E+03  d E =-.143609E-01  mag=     8.0000
       N       E                     dE             d eps       ncg     rms          ort
SDA:   1    -0.376306321196E+03    0.35756E+01    0.00000E+00 10080   0.895E+01 0.000E+00
CGA:   2    -0.379066783484E+03   -0.27605E+01   -0.27603E+01 10080   0.329E+01-0.187E-02
CGA:   3    -0.379718807524E+03   -0.65202E+00   -0.65224E+00 10080   0.786E+00 0.607E-02
CGA:   4    -0.379848961638E+03   -0.13015E+00   -0.13008E+00 10080   0.160E+00-0.442E-03
CGA:   5    -0.379880409814E+03   -0.31448E-01   -0.31424E-01 10080   0.429E-01-0.264E-03
CGA:   6    -0.379889129038E+03   -0.87192E-02   -0.87649E-02 10080   0.139E-01 0.102E-02
CGA:   7    -0.379892470824E+03   -0.33418E-02   -0.33406E-02 10080   0.733E-02-0.609E-04
CGA:   8    -0.379894172993E+03   -0.17022E-02   -0.17062E-02 10080   0.390E-02 0.278E-03
CGA:   9    -0.379895365462E+03   -0.11925E-02   -0.11893E-02 10080   0.215E-02 0.780E-04
CGA:  10    -0.379895934194E+03   -0.56873E-03   -0.56680E-03 10080   0.119E-02 0.319E-03
CGA:  11    -0.379896394046E+03   -0.45985E-03   -0.50199E-03 10080   0.177E-02-0.361E-03
CGA:  12    -0.379896579104E+03   -0.18506E-03   -0.20229E-03 10080   0.111E-02 0.186E-03
CGA:  13    -0.379896779887E+03   -0.20078E-03   -0.22242E-03 10080   0.116E-02 0.303E-03
CGA:  14    -0.379897158630E+03   -0.37874E-03   -0.37876E-03 10080   0.881E-03-0.710E-05
CGA:  15    -0.379897529967E+03   -0.37134E-03   -0.46466E-03 10080   0.210E-02-0.350E-03
CGA:  16    -0.379897625797E+03   -0.95830E-04   -0.12089E-03 10080   0.138E-02 0.140E-03
CGA:  17    -0.379897728834E+03   -0.10304E-03   -0.15006E-03 10080   0.104E-02 0.300E-03
CGA:  18    -0.379897891734E+03   -0.16290E-03   -0.18664E-03 10080   0.815E-03 0.225E-03
CGA:  19    -0.379898049508E+03   -0.15777E-03   -0.14369E-03 10080   0.555E-03-0.147E-03
CGA:  20    -0.379898163781E+03   -0.11427E-03   -0.12005E-03 10080   0.831E-03-0.233E-03
CGA:  21    -0.379898188494E+03   -0.24714E-04   -0.35879E-04 10080   0.623E-03 0.634E-04
CGA:  22    -0.379898208728E+03   -0.20234E-04   -0.51328E-04 10080   0.442E-03 0.199E-03
CGA:  23    -0.379898230947E+03   -0.22219E-04   -0.52276E-04 10080   0.363E-03 0.222E-03
CGA:  24    -0.379898322328E+03   -0.91381E-04   -0.10521E-03 10080   0.662E-03-0.187E-03
CGA:  25    -0.379898353655E+03   -0.31327E-04   -0.52148E-04 10080   0.717E-04 0.154E-03
CGA:  26    -0.379898354660E+03   -0.10048E-05   -0.70362E-05 10080   0.501E-04 0.454E-04
  13 F= -.37989835E+03 E0= -.37989821E+03  d E =-.163959E-01  mag=     8.0000
       N       E                     dE             d eps       ncg     rms          ort
SDA:   1    -0.378432382014E+03    0.14660E+01    0.00000E+00 10080   0.368E+01 0.000E+00
CGA:   2    -0.379548188537E+03   -0.11158E+01   -0.11204E+01 10080   0.182E+01 0.146E-01
CGA:   3    -0.379800353167E+03   -0.25216E+00   -0.20943E+00 10080   0.353E+00 0.351E+00
CGA:   4    -0.379887184066E+03   -0.86831E-01   -0.86966E-01 10080   0.114E+00 0.879E-03
CGA:   5    -0.379903741509E+03   -0.16557E-01   -0.16628E-01 10080   0.437E-01-0.293E-02
CGA:   6    -0.379910945712E+03   -0.72042E-02   -0.71978E-02 10080   0.952E-02 0.149E-03
CGA:   7    -0.379912931327E+03   -0.19856E-02   -0.19848E-02 10080   0.431E-02 0.526E-05
CGA:   8    -0.379913798015E+03   -0.86669E-03   -0.78829E-03 10080   0.245E-02-0.554E-03
CGA:   9    -0.379914364551E+03   -0.56654E-03   -0.55359E-03 10080   0.108E-02-0.209E-03
CGA:  10    -0.379914634063E+03   -0.26951E-03   -0.26623E-03 10080   0.543E-03-0.668E-04
CGA:  11    -0.379914773916E+03   -0.13985E-03   -0.12894E-03 10080   0.441E-03-0.177E-03
CGA:  12    -0.379914822259E+03   -0.48343E-04   -0.49480E-04 10080   0.174E-03 0.868E-05
CGA:  13    -0.379914853719E+03   -0.31460E-04   -0.32809E-04 10080   0.131E-03 0.116E-04
CGA:  14    -0.379914894236E+03   -0.40516E-04   -0.39895E-04 10080   0.130E-03-0.488E-04
CGA:  15    -0.379914898176E+03   -0.39405E-05   -0.95172E-05 10080   0.102E-03 0.306E-04
CGA:  16    -0.379914903448E+03   -0.52718E-05   -0.14684E-04 10080   0.694E-04 0.547E-04
CGA:  17    -0.379914924542E+03   -0.21094E-04   -0.23233E-04 10080   0.145E-03-0.388E-04
CGA:  18    -0.379914925606E+03   -0.10636E-05   -0.10062E-04 10080   0.186E-04 0.430E-04
  14 F= -.37991493E+03 E0= -.37991478E+03  d E =-.165709E-01  mag=     8.0000
       N       E                     dE             d eps       ncg     rms          ort
SDA:   1    -0.379868419635E+03    0.46505E-01    0.00000E+00 10080   0.141E+00 0.000E+00
CGA:   2    -0.379906019153E+03   -0.37600E-01   -0.37600E-01 10080   0.541E-01-0.318E-04
CGA:   3    -0.379916705665E+03   -0.10687E-01   -0.10679E-01 10080   0.153E-01-0.124E-03
CGA:   4    -0.379919328808E+03   -0.26231E-02   -0.26421E-02 10080   0.351E-02 0.245E-03
CGA:   5    -0.379920037069E+03   -0.70826E-03   -0.70344E-03 10080   0.882E-03-0.830E-04
CGA:   6    -0.379920193513E+03   -0.15644E-03   -0.16182E-03 10080   0.291E-03 0.868E-04
CGA:   7    -0.379920283730E+03   -0.90216E-04   -0.93883E-04 10080   0.250E-03-0.792E-04
CGA:   8    -0.379920305229E+03   -0.21499E-04   -0.25309E-04 10080   0.101E-03 0.349E-04
CGA:   9    -0.379920321371E+03   -0.16142E-04   -0.18060E-04 10080   0.609E-04 0.220E-04
CGA:  10    -0.379920340534E+03   -0.19163E-04   -0.21542E-04 10080   0.819E-04-0.472E-04
CGA:  11    -0.379920345581E+03   -0.50467E-05   -0.85370E-05 10080   0.193E-04 0.254E-04
  15 F= -.37992035E+03 E0= -.37992018E+03  d E =-.541998E-02  mag=     8.0000
       N       E                     dE             d eps       ncg     rms          ort
SDA:   1    -0.379798999054E+03    0.12134E+00    0.00000E+00 10080   0.318E+00 0.000E+00
CGA:   2    -0.379895092478E+03   -0.96093E-01   -0.96141E-01 10080   0.116E+00-0.876E-03
CGA:   3    -0.379918301357E+03   -0.23209E-01   -0.23223E-01 10080   0.299E-01 0.392E-03
CGA:   4    -0.379922801526E+03   -0.45002E-02   -0.45348E-02 10080   0.619E-02 0.464E-03
CGA:   5    -0.379924003754E+03   -0.12022E-02   -0.11985E-02 10080   0.172E-02-0.776E-04
CGA:   6    -0.379924309449E+03   -0.30570E-03   -0.31258E-03 10080   0.481E-03 0.144E-03
CGA:   7    -0.379924448429E+03   -0.13898E-03   -0.14024E-03 10080   0.274E-03-0.328E-04
CGA:   8    -0.379924488978E+03   -0.40549E-04   -0.44864E-04 10080   0.116E-03 0.765E-04
CGA:   9    -0.379924525962E+03   -0.36984E-04   -0.36563E-04 10080   0.592E-04 0.264E-04
CGA:  10    -0.379924545334E+03   -0.19372E-04   -0.19066E-04 10080   0.450E-04 0.955E-05
CGA:  11    -0.379924550676E+03   -0.53425E-05   -0.72084E-05 10080   0.172E-04 0.199E-04
  16 F= -.37992455E+03 E0= -.37992439E+03  d E =-.420510E-02  mag=     8.0000
       N       E                     dE             d eps       ncg     rms          ort
SDA:   1    -0.371162043562E+03    0.87625E+01    0.00000E+00 10080   0.217E+02 0.000E+00
CGA:   2    -0.377794341539E+03   -0.66323E+01   -0.66331E+01 10080   0.859E+01-0.140E-01
CGA:   3    -0.379359480631E+03   -0.15651E+01   -0.15764E+01 10080   0.252E+01 0.916E-01
CGA:   4    -0.379748087976E+03   -0.38861E+00   -0.38411E+00 10080   0.493E+00 0.140E-01
CGA:   5    -0.379844785265E+03   -0.96697E-01   -0.96659E-01 10080   0.127E+00-0.208E-02
CGA:   6    -0.379871669594E+03   -0.26884E-01   -0.26897E-01 10080   0.414E-01 0.133E-02
CGA:   7    -0.379881628489E+03   -0.99589E-02   -0.99599E-02 10080   0.213E-01-0.770E-04
CGA:   8    -0.379886666581E+03   -0.50381E-02   -0.50473E-02 10080   0.119E-01-0.668E-03
CGA:   9    -0.379889686447E+03   -0.30199E-02   -0.30267E-02 10080   0.534E-02-0.166E-03
CGA:  10    -0.379891113384E+03   -0.14269E-02   -0.14385E-02 10080   0.277E-02-0.245E-03
CGA:  11    -0.379891743977E+03   -0.63059E-03   -0.63345E-03 10080   0.151E-02-0.273E-03
CGA:  12    -0.379892113899E+03   -0.36992E-03   -0.37890E-03 10080   0.849E-03-0.186E-03
CGA:  13    -0.379892294218E+03   -0.18032E-03   -0.17907E-03 10080   0.403E-03 0.145E-03
CGA:  14    -0.379892475795E+03   -0.18158E-03   -0.17830E-03 10080   0.258E-03 0.212E-04
CGA:  15    -0.379892548688E+03   -0.72893E-04   -0.71258E-04 10080   0.164E-03 0.714E-04
CGA:  16    -0.379892604654E+03   -0.55966E-04   -0.55012E-04 10080   0.795E-04 0.413E-04
CGA:  17    -0.379892624495E+03   -0.19840E-04   -0.21372E-04 10080   0.468E-04 0.557E-04
CGA:  18    -0.379892654407E+03   -0.29913E-04   -0.32419E-04 10080   0.880E-04-0.593E-05
CGA:  19    -0.379892656385E+03   -0.19782E-05   -0.86337E-05 10080   0.534E-04 0.441E-04
  17 F= -.37989266E+03 E0= -.37989263E+03  d E =0.318943E-01  mag=     8.0000
       N       E                     dE             d eps       ncg     rms          ort
SDA:   1    -0.378011810811E+03    0.18808E+01    0.00000E+00 10080   0.464E+01 0.000E+00
CGA:   2    -0.379467482896E+03   -0.14557E+01   -0.14563E+01 10080   0.165E+01-0.965E-02
CGA:   3    -0.379797585184E+03   -0.33010E+00   -0.33042E+00 10080   0.448E+00 0.461E-02
CGA:   4    -0.379880366209E+03   -0.82781E-01   -0.82688E-01 10080   0.104E+00-0.186E-03
CGA:   5    -0.379899798593E+03   -0.19432E-01   -0.19384E-01 10080   0.325E-01-0.925E-03
CGA:   6    -0.379905680390E+03   -0.58818E-02   -0.59320E-02 10080   0.141E-01 0.116E-02
CGA:   7    -0.379908791977E+03   -0.31116E-02   -0.30838E-02 10080   0.783E-02-0.904E-03
CGA:   8    -0.379910312553E+03   -0.15206E-02   -0.15199E-02 10080   0.350E-02 0.445E-04
CGA:   9    -0.379911269574E+03   -0.95702E-03   -0.97901E-03 10080   0.243E-02-0.548E-03
CGA:  10    -0.379911566105E+03   -0.29653E-03   -0.32275E-03 10080   0.935E-03 0.332E-03
CGA:  11    -0.379911852491E+03   -0.28639E-03   -0.28498E-03 10080   0.558E-03 0.434E-04
CGA:  12    -0.379912035334E+03   -0.18284E-03   -0.20343E-03 10080   0.102E-02-0.187E-03
CGA:  13    -0.379912104198E+03   -0.68864E-04   -0.82174E-04 10080   0.655E-03 0.111E-03
CGA:  14    -0.379912164072E+03   -0.59875E-04   -0.79416E-04 10080   0.489E-03 0.156E-03
CGA:  15    -0.379912287621E+03   -0.12355E-03   -0.12509E-03 10080   0.503E-03 0.605E-04
CGA:  16    -0.379912377446E+03   -0.89825E-04   -0.82606E-04 10080   0.306E-03-0.881E-04
CGA:  17    -0.379912434070E+03   -0.56624E-04   -0.56585E-04 10080   0.379E-03-0.251E-04
CGA:  18    -0.379912479954E+03   -0.45884E-04   -0.45549E-04 10080   0.151E-03-0.434E-05
CGA:  19    -0.379912499781E+03   -0.19828E-04   -0.21253E-04 10080   0.124E-03 0.178E-04
CGA:  20    -0.379912511964E+03   -0.12182E-04   -0.16755E-04 10080   0.657E-04 0.472E-04
CGA:  21    -0.379912523419E+03   -0.11455E-04   -0.12419E-04 10080   0.488E-04 0.126E-04
CGA:  22    -0.379912555690E+03   -0.32271E-04    0.18234E-04 10080   0.389E-04-0.258E-05
CGA:  23    -0.379912578090E+03   -0.22399E-04    0.83980E-05 10080   0.505E-04-0.163E-04
CGA:  24    -0.379912584089E+03   -0.59990E-05   -0.73013E-05 10080   0.697E-04-0.330E-04
CGA:  25    -0.379912600022E+03   -0.15933E-04   -0.19666E-04 10080   0.141E-03-0.515E-04
CGA:  26    -0.379912610005E+03   -0.99833E-05   -0.12091E-04 10080   0.775E-05 0.172E-04
  18 F= -.37991261E+03 E0= -.37991217E+03  d E =-.199536E-01  mag=     8.0000
       N       E                     dE             d eps       ncg     rms          ort
SDA:   1    -0.379663064309E+03    0.24954E+00    0.00000E+00 10080   0.687E+00 0.000E+00
CGA:   2    -0.379881869779E+03   -0.21881E+00   -0.21841E+00 10080   0.259E+00 0.350E-02
CGA:   3    -0.379928536764E+03   -0.46667E-01   -0.46696E-01 10080   0.925E-01-0.153E-02
CGA:   4    -0.379942628917E+03   -0.14092E-01   -0.14110E-01 10080   0.220E-01 0.923E-03
CGA:   5    -0.379946632264E+03   -0.40033E-02   -0.39896E-02 10080   0.652E-02-0.522E-03
CGA:   6    -0.379947830528E+03   -0.11983E-02   -0.12017E-02 10080   0.237E-02 0.201E-03
CGA:   7    -0.379948454331E+03   -0.62380E-03   -0.64188E-03 10080   0.139E-02-0.315E-03
CGA:   8    -0.379948657767E+03   -0.20344E-03   -0.21097E-03 10080   0.494E-03 0.224E-03
CGA:   9    -0.379948817923E+03   -0.16016E-03   -0.16360E-03 10080   0.303E-03-0.438E-04
CGA:  10    -0.379948885444E+03   -0.67521E-04   -0.11297E-03 10080   0.612E-03-0.229E-03
CGA:  11    -0.379948954902E+03   -0.69458E-04   -0.72268E-04 10080   0.111E-03 0.293E-04
CGA:  12    -0.379948977921E+03   -0.23018E-04   -0.23479E-04 10080   0.330E-04 0.346E-04
CGA:  13    -0.379949003692E+03   -0.25772E-04    0.12219E-04 10080   0.304E-04 0.130E-04
CGA:  14    -0.379949026610E+03   -0.22917E-04    0.17956E-04 10080   0.188E-04 0.221E-04
CGA:  15    -0.379949026030E+03    0.57968E-06   -0.15081E-05 10080   0.137E-04 0.155E-04
  19 F= -.37994903E+03 E0= -.37994887E+03  d E =-.364160E-01  mag=     8.0000
       N       E                     dE             d eps       ncg     rms          ort
SDA:   1    -0.379938409449E+03    0.10617E-01    0.00000E+00 10080   0.301E-01 0.000E+00
CGA:   2    -0.379947849935E+03   -0.94405E-02   -0.94156E-02 10080   0.112E-01 0.238E-03
CGA:   3    -0.379949892895E+03   -0.20430E-02   -0.20446E-02 10080   0.344E-02 0.734E-04
CGA:   4    -0.379950491902E+03   -0.59901E-03   -0.59090E-03 10080   0.827E-03-0.192E-03
CGA:   5    -0.379950626867E+03   -0.13496E-03   -0.13664E-03 10080   0.179E-03 0.492E-04
CGA:   6    -0.379950679386E+03   -0.52519E-04   -0.55894E-04 10080   0.108E-03-0.391E-04
CGA:   7    -0.379950693875E+03   -0.14489E-04   -0.15010E-04 10080   0.440E-04 0.147E-04
CGA:   8    -0.379950703886E+03   -0.10011E-04   -0.10099E-04 10080   0.193E-04 0.104E-04
CGA:   9    -0.379950640266E+03    0.63620E-04   -0.34787E-04 10080   0.546E-03-0.867E-04
CGA:  10    -0.379950691880E+03   -0.51614E-04   -0.66113E-04 10080   0.111E-03 0.574E-04
CGA:  11    -0.379950715673E+03   -0.23792E-04   -0.24781E-04 10080   0.189E-04 0.600E-05
CGA:  12    -0.379950721693E+03   -0.60204E-05   -0.59162E-05 10080   0.879E-05-0.159E-05
  20 F= -.37995072E+03 E0= -.37995060E+03  d E =-.169566E-02  mag=     8.0000
       N       E                     dE             d eps       ncg     rms          ort
SDA:   1    -0.379902523023E+03    0.48193E-01    0.00000E+00 10080   0.125E+00 0.000E+00
CGA:   2    -0.379939719576E+03   -0.37197E-01   -0.37187E-01 10080   0.495E-01-0.227E-03
CGA:   3    -0.379948683557E+03   -0.89640E-02   -0.89994E-02 10080   0.145E-01 0.515E-03
CGA:   4    -0.379951130759E+03   -0.24472E-02   -0.24027E-02 10080   0.304E-02-0.265E-03
CGA:   5    -0.379951676785E+03   -0.54603E-03   -0.55364E-03 10080   0.695E-03 0.598E-04
CGA:   6    -0.379951847349E+03   -0.17056E-03   -0.16625E-03 10080   0.285E-03-0.499E-04
CGA:   7    -0.379951890457E+03   -0.43108E-04   -0.48247E-04 10080   0.102E-03 0.393E-04
CGA:   8    -0.379951932227E+03   -0.41771E-04   -0.55687E-04 10080   0.210E-03-0.812E-04
CGA:   9    -0.379951947082E+03   -0.14855E-04   -0.24271E-04 10080   0.392E-04 0.471E-04
CGA:  10    -0.379951958891E+03   -0.11809E-04   -0.11126E-04 10080   0.199E-04-0.904E-05
CGA:  11    -0.379951962129E+03   -0.32382E-05   -0.35848E-05 10080   0.126E-04 0.494E-05
  21 F= -.37995196E+03 E0= -.37995185E+03  d E =-.124044E-02  mag=     8.0000
       N       E                     dE             d eps       ncg     rms          ort
SDA:   1    -0.379861085355E+03    0.90874E-01    0.00000E+00 10080   0.226E+00 0.000E+00
CGA:   2    -0.379930743316E+03   -0.69658E-01   -0.69662E-01 10080   0.848E-01-0.302E-03
CGA:   3    -0.379946443876E+03   -0.15701E-01   -0.15730E-01 10080   0.241E-01 0.760E-03
CGA:   4    -0.379950399126E+03   -0.39553E-02   -0.39076E-02 10080   0.519E-02-0.386E-03
CGA:   5    -0.379951319203E+03   -0.92008E-03   -0.92974E-03 10080   0.118E-02 0.108E-03
CGA:   6    -0.379951601315E+03   -0.28211E-03   -0.27931E-03 10080   0.455E-03-0.591E-04
CGA:   7    -0.379951683898E+03   -0.82583E-04   -0.86169E-04 10080   0.179E-03 0.482E-04
CGA:   8    -0.379951751120E+03   -0.67221E-04   -0.90620E-04 10080   0.357E-03-0.126E-03
CGA:   9    -0.379951777342E+03   -0.26223E-04   -0.38354E-04 10080   0.656E-04 0.711E-04
CGA:  10    -0.379951793748E+03   -0.16406E-04   -0.16529E-04 10080   0.265E-04 0.196E-05
CGA:  11    -0.379951800590E+03   -0.68418E-05   -0.17906E-04 10080   0.142E-03-0.286E-04
CGA:  12    -0.379951805283E+03   -0.46928E-05   -0.12152E-04 10080   0.238E-04 0.374E-04
  22 F= -.37995181E+03 E0= -.37995169E+03  d E =0.156847E-03  mag=     8.0000
       N       E                     dE             d eps       ncg     rms          ort
SDA:   1    -0.379649233703E+03    0.30257E+00    0.00000E+00 10080   0.726E+00 0.000E+00
CGA:   2    -0.379889649188E+03   -0.24042E+00   -0.24046E+00 10080   0.236E+00-0.844E-03
CGA:   3    -0.379935073186E+03   -0.45424E-01   -0.45407E-01 10080   0.656E-01 0.164E-02
CGA:   4    -0.379945445905E+03   -0.10373E-01   -0.10285E-01 10080   0.148E-01-0.989E-03
CGA:   5    -0.379947983483E+03   -0.25376E-02   -0.25666E-02 10080   0.347E-02 0.394E-03
CGA:   6    -0.379948788394E+03   -0.80491E-03   -0.79783E-03 10080   0.134E-02-0.200E-03
CGA:   7    -0.379949016606E+03   -0.22821E-03   -0.23720E-03 10080   0.512E-03 0.136E-03
CGA:   8    -0.379949198522E+03   -0.18192E-03   -0.21026E-03 10080   0.700E-03-0.237E-03
CGA:   9    -0.379949240921E+03   -0.42399E-04   -0.47054E-04 10080   0.402E-03 0.360E-04
CGA:  10    -0.379949281468E+03   -0.40546E-04   -0.50382E-04 10080   0.225E-03 0.742E-04
CGA:  11    -0.379949327114E+03   -0.45646E-04   -0.44354E-04 10080   0.964E-04-0.162E-04
CGA:  12    -0.379949350923E+03   -0.23810E-04   -0.25596E-04 10080   0.130E-03-0.409E-04
CGA:  13    -0.379949350337E+03    0.58687E-06   -0.44676E-05 10080   0.852E-04 0.275E-04
  23 F= -.37994935E+03 E0= -.37994921E+03  d E =0.245495E-02  mag=     8.0000
       N       E                     dE             d eps       ncg     rms          ort
SDA:   1    -0.379487751280E+03    0.46160E+00    0.00000E+00 10080   0.111E+01 0.000E+00
CGA:   2    -0.379851213381E+03   -0.36346E+00   -0.36370E+00 10080   0.396E+00-0.254E-02
CGA:   3    -0.379921088003E+03   -0.69875E-01   -0.69742E-01 10080   0.119E+00 0.273E-02
CGA:   4    -0.379939416289E+03   -0.18328E-01   -0.18265E-01 10080   0.242E-01-0.132E-02
CGA:   5    -0.379943669964E+03   -0.42537E-02   -0.42765E-02 10080   0.553E-02 0.586E-03
CGA:   6    -0.379944957688E+03   -0.12877E-02   -0.12898E-02 10080   0.222E-02-0.389E-03
CGA:   7    -0.379945280163E+03   -0.32247E-03   -0.33798E-03 10080   0.745E-03 0.274E-03
CGA:   8    -0.379945532957E+03   -0.25279E-03   -0.26979E-03 10080   0.588E-03-0.165E-03
CGA:   9    -0.379945628899E+03   -0.95942E-04   -0.96628E-04 10080   0.301E-03 0.503E-04
CGA:  10    -0.379945699014E+03   -0.70115E-04   -0.70262E-04 10080   0.125E-03 0.162E-04
CGA:  11    -0.379945738619E+03   -0.39606E-04   -0.41309E-04 10080   0.804E-04-0.192E-04
CGA:  12    -0.379945739116E+03   -0.49684E-06   -0.60584E-05 10080   0.478E-04 0.400E-04
  24 F= -.37994574E+03 E0= -.37994556E+03  d E =0.361122E-02  mag=     8.0000
       N       E                     dE             d eps       ncg     rms          ort
SDA:   1    -0.379872863519E+03    0.72875E-01    0.00000E+00 10080   0.186E+00 0.000E+00
CGA:   2    -0.379931598566E+03   -0.58735E-01   -0.58823E-01 10080   0.626E-01-0.901E-03
CGA:   3    -0.379944192247E+03   -0.12594E-01   -0.12603E-01 10080   0.147E-01 0.553E-03
CGA:   4    -0.379946673786E+03   -0.24815E-02   -0.24944E-02 10080   0.311E-02 0.256E-03
CGA:   5    -0.379947251636E+03   -0.57785E-03   -0.57923E-03 10080   0.871E-03 0.437E-04
CGA:   6    -0.379947423217E+03   -0.17158E-03   -0.17165E-03 10080   0.321E-03 0.515E-05
CGA:   7    -0.379947480207E+03   -0.56991E-04   -0.58109E-04 10080   0.114E-03 0.339E-04
CGA:   8    -0.379947512063E+03   -0.31855E-04   -0.31334E-04 10080   0.525E-04 0.142E-04
CGA:   9    -0.379947518616E+03   -0.65539E-05   -0.87109E-05 10080   0.243E-04 0.326E-04
  25 F= -.37994752E+03 E0= -.37994733E+03  d E =-.177950E-02  mag=     8.0000
       N       E                     dE             d eps       ncg     rms          ort
SDA:   1    -0.379729827759E+03    0.21768E+00    0.00000E+00 10080   0.559E+00 0.000E+00
CGA:   2    -0.379900543570E+03   -0.17072E+00   -0.17092E+00 10080   0.207E+00-0.255E-02
CGA:   3    -0.379938514486E+03   -0.37971E-01   -0.38016E-01 10080   0.641E-01 0.235E-02
CGA:   4    -0.379948079644E+03   -0.95652E-02   -0.95111E-02 10080   0.137E-01-0.112E-02
CGA:   5    -0.379950279580E+03   -0.21999E-02   -0.22326E-02 10080   0.310E-02 0.696E-03
CGA:   6    -0.379951031339E+03   -0.75176E-03   -0.75642E-03 10080   0.118E-02-0.263E-03
CGA:   7    -0.379951197359E+03   -0.16602E-03   -0.17542E-03 10080   0.409E-03 0.181E-03
CGA:   8    -0.379951318392E+03   -0.12103E-03   -0.12208E-03 10080   0.233E-03-0.223E-04
CGA:   9    -0.379951369770E+03   -0.51378E-04   -0.50812E-04 10080   0.106E-03 0.376E-04
CGA:  10    -0.379951400317E+03   -0.30547E-04   -0.30184E-04 10080   0.491E-04 0.127E-04
CGA:  11    -0.379951416718E+03   -0.16400E-04   -0.17260E-04 10080   0.360E-04-0.889E-05
CGA:  12    -0.379951417286E+03   -0.56861E-06   -0.26367E-05 10080   0.190E-04 0.156E-04
  26 F= -.37995142E+03 E0= -.37995121E+03  d E =-.389867E-02  mag=     8.0000
       N       E                     dE             d eps       ncg     rms          ort
SDA:   1    -0.377657086693E+03    0.22943E+01    0.00000E+00 10080   0.580E+01 0.000E+00
CGA:   2    -0.379418996711E+03   -0.17619E+01   -0.17620E+01 10080   0.218E+01-0.276E-02
CGA:   3    -0.379834204561E+03   -0.41521E+00   -0.41491E+00 10080   0.619E+00-0.334E-03
CGA:   4    -0.379924804978E+03   -0.90600E-01   -0.91065E-01 10080   0.142E+00-0.233E-02
CGA:   5    -0.379947744300E+03   -0.22939E-01   -0.22909E-01 10080   0.376E-01 0.111E-02
CGA:   6    -0.379955276358E+03   -0.75321E-02   -0.75267E-02 10080   0.114E-01-0.688E-03
CGA:   7    -0.379957526184E+03   -0.22498E-02   -0.22525E-02 10080   0.433E-02 0.557E-03
CGA:   8    -0.379958687032E+03   -0.11608E-02   -0.12004E-02 10080   0.341E-02-0.676E-03
CGA:   9    -0.379959167735E+03   -0.48070E-03   -0.48916E-03 10080   0.130E-02 0.230E-03
CGA:  10    -0.379959565007E+03   -0.39727E-03   -0.40414E-03 10080   0.615E-03-0.819E-04
CGA:  11    -0.379959709200E+03   -0.14419E-03   -0.21887E-03 10080   0.133E-02-0.442E-03
CGA:  12    -0.379959790453E+03   -0.81253E-04   -0.10950E-03 10080   0.155E-03 0.218E-03
CGA:  13    -0.379959814568E+03   -0.24115E-04   -0.27488E-04 10080   0.976E-04 0.557E-04
CGA:  14    -0.379959846286E+03   -0.31718E-04   -0.38165E-04 10080   0.152E-03-0.828E-04
CGA:  15    -0.379959853036E+03   -0.67501E-05   -0.12969E-04 10080   0.378E-04 0.491E-04
  27 F= -.37995985E+03 E0= -.37995965E+03  d E =-.843575E-02  mag=     8.0000
       N       E                     dE             d eps       ncg     rms          ort
SDA:   1    -0.378639625319E+03    0.13202E+01    0.00000E+00 10080   0.343E+01 0.000E+00
CGA:   2    -0.379606141357E+03   -0.96652E+00   -0.96625E+00 10080   0.132E+01 0.389E-02
CGA:   3    -0.379849380316E+03   -0.24324E+00   -0.24364E+00 10080   0.442E+00 0.241E-02
CGA:   4    -0.379914846619E+03   -0.65466E-01   -0.64856E-01 10080   0.997E-01 0.189E-02
CGA:   5    -0.379932708143E+03   -0.17862E-01   -0.17808E-01 10080   0.250E-01-0.236E-02
CGA:   6    -0.379937356630E+03   -0.46485E-02   -0.46562E-02 10080   0.774E-02 0.615E-03
CGA:   7    -0.379939071562E+03   -0.17149E-02   -0.17182E-02 10080   0.390E-02-0.247E-03
CGA:   8    -0.379939797242E+03   -0.72568E-03   -0.72697E-03 10080   0.166E-02 0.120E-03
CGA:   9    -0.379940296512E+03   -0.49927E-03   -0.53233E-03 10080   0.107E-02-0.304E-03
CGA:  10    -0.379940472746E+03   -0.17623E-03   -0.17617E-03 10080   0.498E-03-0.587E-05
CGA:  11    -0.379940604192E+03   -0.13145E-03   -0.15383E-03 10080   0.398E-03-0.219E-03
CGA:  12    -0.379940638933E+03   -0.34741E-04   -0.34416E-04 10080   0.192E-03-0.490E-05
CGA:  13    -0.379940687431E+03   -0.48498E-04   -0.51109E-04 10080   0.151E-03-0.446E-04
CGA:  14    -0.379940712630E+03   -0.25200E-04   -0.25877E-04 10080   0.198E-03-0.765E-04
CGA:  15    -0.379940726509E+03   -0.13879E-04   -0.19585E-04 10080   0.517E-04 0.503E-04
CGA:  16    -0.379940739886E+03   -0.13377E-04   -0.13400E-04 10080   0.246E-04 0.113E-04
CGA:  17    -0.379940739960E+03   -0.74044E-07   -0.14414E-04 10080   0.238E-03-0.525E-04
CGA:  18    -0.379940750477E+03   -0.10517E-04   -0.17360E-04 10080   0.217E-04 0.473E-04
CGA:  19    -0.379940751733E+03   -0.12561E-05   -0.24949E-05 10080   0.130E-04 0.105E-04
  28 F= -.37994075E+03 E0= -.37994058E+03  d E =0.191013E-01  mag=     8.0000
       N       E                     dE             d eps       ncg     rms          ort
SDA:   1    -0.379922699209E+03    0.18051E-01    0.00000E+00 10080   0.740E-01 0.000E+00
CGA:   2    -0.379942784760E+03   -0.20086E-01   -0.20108E-01 10080   0.304E-01-0.403E-03
CGA:   3    -0.379948726098E+03   -0.59413E-02   -0.59428E-02 10080   0.801E-02 0.687E-04
CGA:   4    -0.379950247149E+03   -0.15211E-02   -0.15154E-02 10080   0.213E-02-0.204E-03
CGA:   5    -0.379950540978E+03   -0.29383E-03   -0.31085E-03 10080   0.495E-03 0.264E-03
CGA:   6    -0.379950678603E+03   -0.13763E-03   -0.14386E-03 10080   0.336E-03-0.133E-03
CGA:   7    -0.379950710001E+03   -0.31398E-04   -0.34658E-04 10080   0.134E-03 0.450E-04
CGA:   8    -0.379950737568E+03   -0.27567E-04   -0.27532E-04 10080   0.707E-04-0.117E-05
CGA:   9    -0.379950768500E+03   -0.30931E-04    0.13259E-03 10080   0.551E-04-0.201E-04
CGA:  10    -0.379950772843E+03   -0.43432E-05   -0.48539E-05 10080   0.239E-04 0.600E-05
  29 F= -.37995077E+03 E0= -.37995060E+03  d E =-.100211E-01  mag=     8.0000
       N       E                     dE             d eps       ncg     rms          ort
SDA:   1    -0.379947952751E+03    0.28157E-02    0.00000E+00 10080   0.168E-01 0.000E+00
CGA:   2    -0.379952396807E+03   -0.44441E-02   -0.44693E-02 10080   0.702E-02-0.371E-03
CGA:   3    -0.379953735144E+03   -0.13383E-02   -0.13385E-02 10080   0.192E-02 0.244E-04
CGA:   4    -0.379954077020E+03   -0.34188E-03   -0.34063E-03 10080   0.505E-03-0.520E-04
CGA:   5    -0.379954138587E+03   -0.61568E-04   -0.67796E-04 10080   0.114E-03 0.102E-03
CGA:   6    -0.379954169929E+03   -0.31341E-04   -0.32001E-04 10080   0.641E-04-0.177E-04
CGA:   7    -0.379954181041E+03   -0.11112E-04   -0.11124E-04 10080   0.277E-04-0.163E-05
CGA:   8    -0.379954075413E+03    0.10563E-03   -0.56882E-04 10080   0.671E-03-0.128E-03
CGA:   9    -0.379954182897E+03   -0.10748E-03   -0.11187E-03 10080   0.790E-04 0.226E-04
CGA:  10    -0.379954195760E+03   -0.12863E-04   -0.13928E-04 10080   0.262E-04 0.602E-05
CGA:  11    -0.379954200215E+03   -0.44548E-05   -0.55578E-05 10080   0.762E-05 0.757E-05
  30 F= -.37995420E+03 E0= -.37995403E+03  d E =-.342737E-02  mag=     8.0000
       N       E                     dE             d eps       ncg     rms          ort
SDA:   1    -0.379888668652E+03    0.65527E-01    0.00000E+00 10080   0.201E+00 0.000E+00
CGA:   2    -0.379938461148E+03   -0.49792E-01   -0.49700E-01 10080   0.861E-01-0.109E-02
CGA:   3    -0.379954041136E+03   -0.15580E-01   -0.15590E-01 10080   0.275E-01 0.523E-03
CGA:   4    -0.379958691386E+03   -0.46503E-02   -0.46107E-02 10080   0.711E-02-0.368E-03
CGA:   5    -0.379959766564E+03   -0.10752E-02   -0.11264E-02 10080   0.171E-02 0.356E-03
CGA:   6    -0.379960133604E+03   -0.36704E-03   -0.35735E-03 10080   0.656E-03-0.826E-04
CGA:   7    -0.379960251778E+03   -0.11817E-03   -0.12213E-03 10080   0.236E-03 0.366E-04
CGA:   8    -0.379960336888E+03   -0.85110E-04   -0.92391E-04 10080   0.255E-03-0.107E-03
CGA:   9    -0.379960351913E+03   -0.15025E-04   -0.17472E-04 10080   0.127E-03 0.140E-04
CGA:  10    -0.379960368265E+03   -0.16352E-04   -0.18744E-04 10080   0.681E-04 0.152E-04
CGA:  11    -0.379960386747E+03   -0.18482E-04   -0.16039E-04 10080   0.542E-04-0.305E-04
CGA:  12    -0.379960389390E+03   -0.26435E-05   -0.35246E-05 10080   0.379E-04 0.523E-05
  31 F= -.37996039E+03 E0= -.37996023E+03  d E =-.618918E-02  mag=     8.0000
       N       E                     dE             d eps       ncg     rms          ort
SDA:   1    -0.379957564919E+03    0.28218E-02    0.00000E+00 10080   0.117E-01 0.000E+00
CGA:   2    -0.379960294808E+03   -0.27299E-02   -0.27309E-02 10080   0.486E-02 0.288E-04
CGA:   3    -0.379961232420E+03   -0.93761E-03   -0.91382E-03 10080   0.209E-02-0.302E-03
CGA:   4    -0.379961464942E+03   -0.23252E-03   -0.25871E-03 10080   0.354E-03 0.207E-03
CGA:   5    -0.379961533401E+03   -0.68459E-04   -0.69891E-04 10080   0.905E-04 0.186E-04
CGA:   6    -0.379961558321E+03   -0.24920E-04   -0.25536E-04 10080   0.892E-04-0.401E-04
CGA:   7    -0.379961557448E+03    0.87286E-06   -0.31076E-05 10080   0.512E-04 0.209E-04
  32 F= -.37996156E+03 E0= -.37996140E+03  d E =-.116806E-02  mag=     8.0000
       N       E                     dE             d eps       ncg     rms          ort
SDA:   1    -0.379942869068E+03    0.18689E-01    0.00000E+00 10080   0.562E-01 0.000E+00
CGA:   2    -0.379958490098E+03   -0.15621E-01   -0.15633E-01 10080   0.212E-01-0.301E-03
CGA:   3    -0.379962730503E+03   -0.42404E-02   -0.42410E-02 10080   0.608E-02 0.172E-04
CGA:   4    -0.379963654555E+03   -0.92405E-03   -0.94230E-03 10080   0.115E-02 0.232E-03
CGA:   5    -0.379963897460E+03   -0.24291E-03   -0.24062E-03 10080   0.386E-03-0.750E-04
CGA:   6    -0.379963945035E+03   -0.47575E-04   -0.53485E-04 10080   0.105E-03 0.733E-04
CGA:   7    -0.379963972867E+03   -0.27832E-04   -0.27859E-04 10080   0.498E-04 0.967E-05
CGA:   8    -0.379963988368E+03   -0.15502E-04   -0.15533E-04 10080   0.401E-04-0.530E-06
CGA:   9    -0.379963990072E+03   -0.17032E-05   -0.41697E-05 10080   0.201E-04 0.201E-04
  33 F= -.37996399E+03 E0= -.37996383E+03  d E =-.243262E-02  mag=     8.0000
       N       E                     dE             d eps       ncg     rms          ort
SDA:   1    -0.379963751800E+03    0.23657E-03    0.00000E+00 10080   0.184E-02 0.000E+00
CGA:   2    -0.379964221764E+03   -0.46996E-03   -0.46754E-03 10080   0.761E-03 0.724E-04
CGA:   3    -0.379964381879E+03   -0.16011E-03   -0.15740E-03 10080   0.386E-03-0.116E-03
CGA:   4    -0.379964412998E+03   -0.31119E-04   -0.37558E-04 10080   0.602E-04 0.614E-04
CGA:   5    -0.379964417753E+03   -0.47558E-05   -0.70989E-05 10080   0.249E-04 0.206E-04
  34 F= -.37996442E+03 E0= -.37996426E+03  d E =-.427682E-03  mag=     8.0000
       N       E                     dE             d eps       ncg     rms          ort
SDA:   1    -0.379960470949E+03    0.39420E-02    0.00000E+00 10080   0.130E-01 0.000E+00
CGA:   2    -0.379964316798E+03   -0.38458E-02   -0.38701E-02 10080   0.504E-02-0.287E-03
CGA:   3    -0.379965192844E+03   -0.87605E-03   -0.88284E-03 10080   0.151E-02 0.193E-03
CGA:   4    -0.379965452786E+03   -0.25994E-03   -0.25636E-03 10080   0.294E-03-0.688E-04
CGA:   5    -0.379965482786E+03   -0.30000E-04   -0.36594E-04 10080   0.730E-04 0.817E-04
CGA:   6    -0.379965503867E+03   -0.21081E-04   -0.21227E-04 10080   0.424E-04-0.719E-05
CGA:   7    -0.379965512177E+03   -0.83100E-05   -0.84205E-05 10080   0.290E-04-0.895E-05
  35 F= -.37996551E+03 E0= -.37996536E+03  d E =-.109442E-02  mag=     8.0000
       N       E                     dE             d eps       ncg     rms          ort
SDA:   1    -0.379936927739E+03    0.28576E-01    0.00000E+00 10080   0.788E-01 0.000E+00
CGA:   2    -0.379960725021E+03   -0.23797E-01   -0.23831E-01 10080   0.282E-01-0.362E-03
CGA:   3    -0.379966284060E+03   -0.55590E-02   -0.55613E-02 10080   0.764E-02 0.245E-03
CGA:   4    -0.379967468348E+03   -0.11843E-02   -0.11853E-02 10080   0.147E-02 0.254E-04
CGA:   5    -0.379967739124E+03   -0.27078E-03   -0.27243E-03 10080   0.376E-03 0.826E-04
CGA:   6    -0.379967829526E+03   -0.90402E-04   -0.91733E-04 10080   0.216E-03-0.484E-04
CGA:   7    -0.379967846172E+03   -0.16646E-04   -0.21544E-04 10080   0.687E-04 0.545E-04
CGA:   8    -0.379967855359E+03   -0.91870E-05   -0.11355E-04 10080   0.447E-04 0.316E-04
CGA:   9    -0.379967867759E+03   -0.12400E-04   -0.12432E-04 10080   0.290E-04 0.465E-05
CGA:  10    -0.379967871310E+03   -0.35505E-05   -0.44908E-05 10080   0.201E-04 0.166E-04
  36 F= -.37996787E+03 E0= -.37996772E+03  d E =-.235913E-02  mag=     8.0000
       N       E                     dE             d eps       ncg     rms          ort
SDA:   1    -0.379728147897E+03    0.23972E+00    0.00000E+00 10080   0.578E+00 0.000E+00
CGA:   2    -0.379927024418E+03   -0.19888E+00   -0.19905E+00 10080   0.184E+00-0.125E-02
CGA:   3    -0.379963275533E+03   -0.36251E-01   -0.36251E-01 10080   0.429E-01 0.639E-04
CGA:   4    -0.379969482213E+03   -0.62067E-02   -0.62418E-02 10080   0.106E-01 0.849E-03
CGA:   5    -0.379971444990E+03   -0.19628E-02   -0.19543E-02 10080   0.344E-02-0.534E-03
CGA:   6    -0.379971951898E+03   -0.50691E-03   -0.51948E-03 10080   0.821E-03 0.343E-03
CGA:   7    -0.379972175274E+03   -0.22338E-03   -0.22520E-03 10080   0.338E-03-0.331E-04
CGA:   8    -0.379972258344E+03   -0.83070E-04   -0.80536E-04 10080   0.146E-03 0.501E-04
CGA:   9    -0.379972310906E+03   -0.52562E-04   -0.54999E-04 10080   0.126E-03-0.189E-04
CGA:  10    -0.379972316707E+03   -0.58010E-05   -0.10979E-04 10080   0.583E-04 0.491E-04
  37 F= -.37997232E+03 E0= -.37997218E+03  d E =-.444540E-02  mag=     8.0000
       N       E                     dE             d eps       ncg     rms          ort
SDA:   1    -0.379041032344E+03    0.93128E+00    0.00000E+00 10080   0.216E+01 0.000E+00
CGA:   2    -0.379815715738E+03   -0.77468E+00   -0.77508E+00 10080   0.692E+00-0.236E-02
CGA:   3    -0.379939422897E+03   -0.12371E+00   -0.12375E+00 10080   0.169E+00 0.246E-03
CGA:   4    -0.379964439155E+03   -0.25016E-01   -0.24994E-01 10080   0.420E-01 0.137E-02
CGA:   5    -0.379971897130E+03   -0.74580E-02   -0.74272E-02 10080   0.126E-01-0.132E-02
CGA:   6    -0.379973955430E+03   -0.20583E-02   -0.20760E-02 10080   0.307E-02 0.652E-03
CGA:   7    -0.379974687161E+03   -0.73173E-03   -0.73482E-03 10080   0.123E-02-0.101E-03
CGA:   8    -0.379974937372E+03   -0.25021E-03   -0.24939E-03 10080   0.579E-03 0.892E-04
CGA:   9    -0.379975108246E+03   -0.17087E-03   -0.19379E-03 10080   0.610E-03-0.203E-03
CGA:  10    -0.379975143061E+03   -0.34815E-04   -0.43546E-04 10080   0.263E-03 0.923E-04
CGA:  11    -0.379975167563E+03   -0.24502E-04   -0.31785E-04 10080   0.147E-03 0.763E-04
CGA:  12    -0.379975205615E+03   -0.38052E-04   -0.38291E-04 10080   0.713E-04-0.418E-04
CGA:  13    -0.379975225666E+03   -0.20052E-04    0.66731E-02 10080   0.718E-04-0.999E-05
CGA:  14    -0.379975232790E+03   -0.71234E-05   -0.80129E-05 10080   0.352E-04 0.134E-04
  38 F= -.37997523E+03 E0= -.37997510E+03  d E =-.291608E-02  mag=     8.0000
       N       E                     dE             d eps       ncg     rms          ort
SDA:   1    -0.379236478028E+03    0.73875E+00    0.00000E+00 10080   0.179E+01 0.000E+00
CGA:   2    -0.379816924205E+03   -0.58045E+00   -0.57975E+00 10080   0.596E+00 0.449E-02
CGA:   3    -0.379941400847E+03   -0.12448E+00   -0.12449E+00 10080   0.122E+00-0.885E-03
CGA:   4    -0.379962028478E+03   -0.20628E-01   -0.20603E-01 10080   0.276E-01-0.956E-03
CGA:   5    -0.379967375039E+03   -0.53466E-02   -0.53477E-02 10080   0.823E-02-0.679E-03
CGA:   6    -0.379968714876E+03   -0.13398E-02   -0.13511E-02 10080   0.283E-02 0.465E-03
CGA:   7    -0.379969332318E+03   -0.61744E-03   -0.62101E-03 10080   0.150E-02-0.235E-03
CGA:   8    -0.379969617476E+03   -0.28516E-03   -0.28356E-03 10080   0.625E-03 0.129E-03
CGA:   9    -0.379969835506E+03   -0.21803E-03   -0.28853E-03 10080   0.829E-03-0.304E-03
CGA:  10    -0.379969882931E+03   -0.47425E-04   -0.51699E-04 10080   0.491E-03 0.520E-04
CGA:  11    -0.379969948143E+03   -0.65212E-04   -0.69527E-04 10080   0.243E-03 0.636E-04
CGA:  12    -0.379970001812E+03   -0.53669E-04   -0.53285E-04 10080   0.166E-03-0.973E-04
CGA:  13    -0.379970011470E+03   -0.96584E-05   -0.11881E-04 10080   0.120E-03 0.284E-04
CGA:  14    -0.379970019859E+03   -0.83882E-05   -0.13666E-04 10080   0.646E-04 0.548E-04
CGA:  15    -0.379970032308E+03   -0.12449E-04   -0.13620E-04 10080   0.386E-04 0.263E-04
CGA:  16    -0.379970044791E+03   -0.12483E-04   -0.16827E-04 10080   0.896E-04-0.354E-04
CGA:  17    -0.379970045025E+03   -0.23363E-06   -0.58798E-05 10080   0.295E-04 0.446E-04
  39 F= -.37997005E+03 E0= -.37996990E+03  d E =0.518777E-02  mag=     8.0000
       N       E                     dE             d eps       ncg     rms          ort
SDA:   1    -0.379468387853E+03    0.50166E+00    0.00000E+00 10080   0.128E+01 0.000E+00
CGA:   2    -0.379842078626E+03   -0.37369E+00   -0.37290E+00 10080   0.413E+00 0.628E-02
CGA:   3    -0.379938801786E+03   -0.96723E-01   -0.96842E-01 10080   0.935E-01-0.250E-02
CGA:   4    -0.379952878649E+03   -0.14077E-01   -0.14062E-01 10080   0.250E-01-0.131E-03
CGA:   5    -0.379957145994E+03   -0.42673E-02   -0.42510E-02 10080   0.834E-02-0.106E-02
CGA:   6    -0.379958411857E+03   -0.12659E-02   -0.12764E-02 10080   0.238E-02 0.437E-03
CGA:   7    -0.379959095100E+03   -0.68324E-03   -0.72475E-03 10080   0.150E-02-0.395E-03
CGA:   8    -0.379959406690E+03   -0.31159E-03   -0.31445E-03 10080   0.949E-03-0.433E-04
CGA:   9    -0.379959638259E+03   -0.23157E-03   -0.34506E-03 10080   0.162E-02-0.621E-03
CGA:  10    -0.379959762510E+03   -0.12425E-03   -0.15156E-03 10080   0.279E-03 0.265E-03
CGA:  11    -0.379959827348E+03   -0.64838E-04   -0.64770E-04 10080   0.105E-03 0.240E-04
CGA:  12    -0.379959813776E+03    0.13572E-04   -0.63953E-04 10080   0.979E-03-0.213E-03
CGA:  13    -0.379959865897E+03   -0.52120E-04   -0.74936E-04 10080   0.822E-04 0.174E-03
CGA:  14    -0.379959873311E+03   -0.74148E-05   -0.10552E-04 10080   0.451E-04 0.319E-04
CGA:  15    -0.379959880246E+03   -0.69343E-05   -0.29404E-04 10080   0.148E-03-0.842E-04
CGA:  16    -0.379959892591E+03   -0.12345E-04   -0.16940E-04 10080   0.447E-04 0.455E-04
CGA:  17    -0.379959906980E+03   -0.14389E-04   -0.14750E-04 10080   0.125E-04-0.872E-05
CGA:  18    -0.379959908537E+03   -0.15571E-05   -0.17134E-05 10080   0.996E-05 0.365E-05
  40 F= -.37995991E+03 E0= -.37995975E+03  d E =0.101365E-01  mag=     8.0000
       N       E                     dE             d eps       ncg     rms          ort
SDA:   1    -0.379244455101E+03    0.71545E+00    0.00000E+00 10080   0.170E+01 0.000E+00
CGA:   2    -0.379813706265E+03   -0.56925E+00   -0.56877E+00 10080   0.536E+00 0.348E-02
CGA:   3    -0.379926443328E+03   -0.11274E+00   -0.11272E+00 10080   0.117E+00-0.189E-02
CGA:   4    -0.379943393619E+03   -0.16950E-01   -0.16904E-01 10080   0.327E-01 0.331E-03
CGA:   5    -0.379949035993E+03   -0.56424E-02   -0.55985E-02 10080   0.100E-01-0.106E-02
CGA:   6    -0.379950618004E+03   -0.15820E-02   -0.16067E-02 10080   0.264E-02 0.536E-03
CGA:   7    -0.379951306324E+03   -0.68832E-03   -0.69608E-03 10080   0.138E-02-0.200E-03
CGA:   8    -0.379951598289E+03   -0.29196E-03   -0.29249E-03 10080   0.847E-03-0.309E-04
CGA:   9    -0.379951830081E+03   -0.23179E-03   -0.28680E-03 10080   0.112E-02-0.413E-03
CGA:  10    -0.379951888109E+03   -0.58028E-04   -0.63249E-04 10080   0.555E-03 0.494E-04
CGA:  11    -0.379951942553E+03   -0.54444E-04   -0.62936E-04 10080   0.329E-03 0.806E-04
CGA:  12    -0.379952016490E+03   -0.73937E-04   -0.72276E-04 10080   0.172E-03-0.921E-04
CGA:  13    -0.379952043038E+03   -0.26548E-04   -0.33772E-04 10080   0.328E-03-0.114E-03
CGA:  14    -0.379952060922E+03   -0.17884E-04   -0.28672E-04 10080   0.717E-04 0.879E-04
CGA:  15    -0.379952073874E+03   -0.12953E-04   -0.14320E-04 10080   0.460E-04 0.282E-04
CGA:  16    -0.379952087704E+03   -0.13830E-04   -0.19645E-04 10080   0.112E-03-0.562E-04
CGA:  17    -0.379952089456E+03   -0.17512E-05   -0.78779E-05 10080   0.288E-04 0.447E-04
  41 F= -.37995209E+03 E0= -.37995193E+03  d E =0.781908E-02  mag=     8.0000
       N       E                     dE             d eps       ncg     rms          ort
SDA:   1    -0.367483933742E+03    0.12468E+02    0.00000E+00 10080   0.307E+02 0.000E+00
CGA:   2    -0.377166149327E+03   -0.96822E+01   -0.96749E+01 10080   0.108E+02 0.543E-01
CGA:   3    -0.379253738926E+03   -0.20876E+01   -0.20896E+01 10080   0.308E+01 0.106E+00
CGA:   4    -0.379682781106E+03   -0.42904E+00   -0.41512E+00 10080   0.716E+00 0.254E-01
CGA:   5    -0.379813201197E+03   -0.13042E+00   -0.13046E+00 10080   0.193E+00-0.497E-02
CGA:   6    -0.379852358196E+03   -0.39157E-01   -0.39128E-01 10080   0.545E-01 0.422E-02
CGA:   7    -0.379865899785E+03   -0.13542E-01   -0.13540E-01 10080   0.307E-01-0.395E-04
CGA:   8    -0.379872227932E+03   -0.63281E-02   -0.63349E-02 10080   0.181E-01-0.892E-03
CGA:   9    -0.379876942707E+03   -0.47148E-02   -0.48495E-02 10080   0.997E-02-0.177E-02
CGA:  10    -0.379879053011E+03   -0.21103E-02   -0.21148E-02 10080   0.449E-02-0.127E-03
CGA:  11    -0.379880199402E+03   -0.11464E-02   -0.12262E-02 10080   0.333E-02-0.111E-02
CGA:  12    -0.379880695831E+03   -0.49643E-03   -0.49064E-03 10080   0.149E-02-0.440E-03
CGA:  13    -0.379881111035E+03   -0.41520E-03   -0.43363E-03 10080   0.814E-03-0.142E-03
CGA:  14    -0.379881406668E+03   -0.29563E-03   -0.34161E-03 10080   0.804E-03-0.185E-03
CGA:  15    -0.379881562768E+03   -0.15610E-03   -0.17294E-03 10080   0.933E-03-0.328E-03
CGA:  16    -0.379881648212E+03   -0.85444E-04   -0.87383E-04 10080   0.351E-03 0.273E-04
CGA:  17    -0.379881685880E+03   -0.37668E-04   -0.44055E-04 10080   0.220E-03 0.618E-04
CGA:  18    -0.379881765496E+03   -0.79616E-04   -0.97337E-04 10080   0.294E-03-0.115E-03
CGA:  19    -0.379881838117E+03   -0.72621E-04   -0.81999E-04 10080   0.473E-03-0.184E-03
CGA:  20    -0.379881866770E+03   -0.28653E-04   -0.40088E-04 10080   0.383E-04 0.812E-04
CGA:  21    -0.379881871640E+03   -0.48709E-05   -0.63250E-05 10080   0.405E-04 0.176E-04
CGA:  22    -0.379881898940E+03   -0.27299E-04    0.12656E-03 10080   0.422E-04 0.375E-04
CGA:  23    -0.379881921507E+03   -0.22568E-04    0.21287E-04 10080   0.545E-04-0.157E-04
CGA:  24    -0.379881944155E+03   -0.22647E-04    0.74222E-05 10080   0.512E-04 0.235E-04
CGA:  25    -0.379881953323E+03   -0.91687E-05   -0.10093E-04 10080   0.182E-04 0.115E-04
  42 F= -.37988195E+03 E0= -.37988189E+03  d E =0.701361E-01  mag=     8.0000
       N       E                     dE             d eps       ncg     rms          ort
SDA:   1    -0.379603954451E+03    0.27799E+00    0.00000E+00 10080   0.790E+00 0.000E+00
CGA:   2    -0.379826482270E+03   -0.22253E+00   -0.22297E+00 10080   0.316E+00-0.679E-02
CGA:   3    -0.379884108254E+03   -0.57626E-01   -0.57627E-01 10080   0.101E+00 0.130E-02
CGA:   4    -0.379901225586E+03   -0.17117E-01   -0.17129E-01 10080   0.231E-01 0.105E-03
CGA:   5    -0.379905337683E+03   -0.41121E-02   -0.41346E-02 10080   0.582E-02 0.701E-03
CGA:   6    -0.379906545668E+03   -0.12080E-02   -0.12062E-02 10080   0.261E-02-0.144E-03
CGA:   7    -0.379907038988E+03   -0.49332E-03   -0.49307E-03 10080   0.114E-02-0.306E-05
CGA:   8    -0.379907363665E+03   -0.32468E-03   -0.39251E-03 10080   0.121E-02-0.503E-03
CGA:   9    -0.379907450009E+03   -0.86344E-04   -0.88174E-04 10080   0.521E-03 0.238E-04
CGA:  10    -0.379907513828E+03   -0.63819E-04   -0.70970E-04 10080   0.285E-03 0.894E-04
CGA:  11    -0.379907563389E+03   -0.49561E-04   -0.50018E-04 10080   0.112E-03 0.791E-05
CGA:  12    -0.379907586827E+03   -0.23438E-04   -0.23477E-04 10080   0.718E-04 0.106E-04
CGA:  13    -0.379907596919E+03   -0.10093E-04   -0.10981E-04 10080   0.335E-04 0.134E-04
CGA:  14    -0.379907607782E+03   -0.10863E-04   -0.14949E-04 10080   0.593E-04-0.236E-04
CGA:  15    -0.379907612190E+03   -0.44075E-05   -0.61240E-05 10080   0.133E-04 0.160E-04
  43 F= -.37990761E+03 E0= -.37990750E+03  d E =-.256589E-01  mag=     8.0000
       N       E                     dE             d eps       ncg     rms          ort
SDA:   1    -0.379903968173E+03    0.36396E-02    0.00000E+00 10080   0.184E-01 0.000E+00
CGA:   2    -0.379908771380E+03   -0.48032E-02   -0.48412E-02 10080   0.751E-02-0.686E-03
CGA:   3    -0.379910066899E+03   -0.12955E-02   -0.12981E-02 10080   0.258E-02 0.909E-04
CGA:   4    -0.379910468870E+03   -0.40197E-03   -0.40462E-03 10080   0.492E-03 0.535E-04
CGA:   5    -0.379910547955E+03   -0.79085E-04   -0.81970E-04 10080   0.128E-03 0.686E-04
CGA:   6    -0.379910582289E+03   -0.34334E-04   -0.52785E-04 10080   0.260E-03-0.115E-03
CGA:   7    -0.379910593890E+03   -0.11601E-04   -0.20555E-04 10080   0.395E-04 0.687E-04
CGA:   8    -0.379910597577E+03   -0.36868E-05   -0.53406E-05 10080   0.195E-04 0.169E-04
CGA:   9    -0.379910577677E+03    0.19900E-04   -0.18548E-04 10080   0.256E-03-0.823E-04
CGA:  10    -0.379910598782E+03   -0.21105E-04   -0.27990E-04 10080   0.564E-04 0.611E-04
CGA:  11    -0.379910614709E+03   -0.15928E-04   -0.16225E-04 10080   0.126E-04-0.202E-04
CGA:  12    -0.379910616409E+03   -0.16997E-05   -0.17098E-05 10080   0.463E-05 0.126E-05
  44 F= -.37991062E+03 E0= -.37991051E+03  d E =-.300422E-02  mag=     8.0000
       N       E                     dE             d eps       ncg     rms          ort
SDA:   1    -0.379868750571E+03    0.41864E-01    0.00000E+00 10080   0.145E+00 0.000E+00
CGA:   2    -0.379904107762E+03   -0.35357E-01   -0.35423E-01 10080   0.493E-01-0.220E-02
CGA:   3    -0.379913903333E+03   -0.97956E-02   -0.98049E-02 10080   0.182E-01 0.913E-03
CGA:   4    -0.379916730710E+03   -0.28274E-02   -0.28101E-02 10080   0.414E-02-0.309E-03
CGA:   5    -0.379917357030E+03   -0.62632E-03   -0.64233E-03 10080   0.958E-03 0.320E-03
CGA:   6    -0.379917584240E+03   -0.22721E-03   -0.22789E-03 10080   0.396E-03-0.495E-04
CGA:   7    -0.379917659690E+03   -0.75450E-04   -0.75600E-04 10080   0.185E-03 0.237E-04
CGA:   8    -0.379917715745E+03   -0.56054E-04   -0.57534E-04 10080   0.131E-03-0.169E-04
CGA:   9    -0.379917736990E+03   -0.21245E-04   -0.22065E-04 10080   0.557E-04 0.316E-04
CGA:  10    -0.379917756960E+03   -0.19971E-04   -0.20479E-04 10080   0.369E-04-0.594E-05
CGA:  11    -0.379917759813E+03   -0.28521E-05   -0.41751E-05 10080   0.187E-04 0.150E-04
  45 F= -.37991776E+03 E0= -.37991766E+03  d E =-.714340E-02  mag=     8.0000
       N       E                     dE             d eps       ncg     rms          ort
SDA:   1    -0.379912705434E+03    0.50515E-02    0.00000E+00 10080   0.219E-01 0.000E+00
CGA:   2    -0.379918382897E+03   -0.56775E-02   -0.57120E-02 10080   0.723E-02-0.668E-03
CGA:   3    -0.379919939616E+03   -0.15567E-02   -0.15542E-02 10080   0.196E-02 0.212E-03
CGA:   4    -0.379920240237E+03   -0.30062E-03   -0.30671E-03 10080   0.414E-03 0.105E-03
CGA:   5    -0.379920309279E+03   -0.69042E-04   -0.71668E-04 10080   0.106E-03 0.613E-04
[...]
CGA:   3    -0.379852637013E+03   -0.57177E-02   -0.57077E-02 10080   0.984E-02-0.103E-03
CGA:   4    -0.379854410932E+03   -0.17739E-02   -0.17626E-02 10080   0.215E-02-0.121E-03
CGA:   5    -0.379854786255E+03   -0.37532E-03   -0.38441E-03 10080   0.525E-03 0.120E-03
CGA:   6    -0.379854928926E+03   -0.14267E-03   -0.14320E-03 10080   0.448E-03-0.142E-03
CGA:   7    -0.379854966073E+03   -0.37147E-04   -0.41155E-04 10080   0.154E-03 0.323E-04
CGA:   8    -0.379854994405E+03   -0.28333E-04   -0.28733E-04 10080   0.125E-03 0.538E-05
CGA:   9    -0.379855023848E+03   -0.29443E-04   -0.40784E-04 10080   0.286E-03-0.160E-03
CGA:  10    -0.379855038718E+03   -0.14870E-04   -0.26117E-04 10080   0.549E-04 0.728E-04
CGA:  11    -0.379855045436E+03   -0.67182E-05   -0.90472E-05 10080   0.185E-04 0.213E-04
  91 F= -.37985505E+03 E0= -.37985486E+03  d E =-.249695E-02  mag=     8.0000
       N       E                     dE             d eps       ncg     rms          ort
SDA:   1    -0.379844845028E+03    0.10194E-01    0.00000E+00 10080   0.317E-01 0.000E+00
CGA:   2    -0.379851399145E+03   -0.65541E-02   -0.65391E-02 10080   0.173E-01-0.564E-03
CGA:   3    -0.379853915227E+03   -0.25161E-02   -0.25447E-02 10080   0.481E-02 0.470E-03
CGA:   4    -0.379854921620E+03   -0.10064E-02   -0.99951E-03 10080   0.108E-02-0.253E-03
CGA:   5    -0.379855092683E+03   -0.17106E-03   -0.17493E-03 10080   0.205E-03 0.680E-04
CGA:   6    -0.379855146443E+03   -0.53760E-04   -0.54819E-04 10080   0.107E-03-0.414E-04
CGA:   7    -0.379855158460E+03   -0.12017E-04   -0.12839E-04 10080   0.388E-04 0.110E-04
CGA:   8    -0.379854927076E+03    0.23138E-03   -0.12469E-03 10080   0.151E-02-0.237E-03
CGA:   9    -0.379855159446E+03   -0.23237E-03   -0.24747E-03 10080   0.182E-03 0.637E-04
CGA:  10    -0.379855195043E+03   -0.35597E-04   -0.30612E-04 10080   0.667E-04-0.210E-04
CGA:  11    -0.379855196892E+03   -0.18490E-05   -0.74722E-05 10080   0.184E-04 0.221E-04
  92 F= -.37985520E+03 E0= -.37985500E+03  d E =-.151456E-03  mag=     8.0000
       N       E                     dE             d eps       ncg     rms          ort
SDA:   1    -0.379787387073E+03    0.67808E-01    0.00000E+00 10080   0.177E+00 0.000E+00
CGA:   2    -0.379834432853E+03   -0.47046E-01   -0.47096E-01 10080   0.679E-01 0.485E-03
CGA:   3    -0.379848501639E+03   -0.14069E-01   -0.13994E-01 10080   0.201E-01-0.553E-03
CGA:   4    -0.379851636610E+03   -0.31350E-02   -0.31552E-02 10080   0.452E-02 0.179E-03
CGA:   5    -0.379852438725E+03   -0.80211E-03   -0.77139E-03 10080   0.136E-02-0.193E-03
CGA:   6    -0.379852637414E+03   -0.19869E-03   -0.21252E-03 10080   0.354E-03 0.882E-04
CGA:   7    -0.379852752093E+03   -0.11468E-03   -0.11254E-03 10080   0.245E-03-0.102E-03
CGA:   8    -0.379852789390E+03   -0.37297E-04   -0.36271E-04 10080   0.118E-03-0.894E-05
CGA:   9    -0.379852825405E+03   -0.36015E-04   -0.47714E-04 10080   0.218E-03-0.109E-03
CGA:  10    -0.379852842868E+03   -0.17463E-04   -0.25541E-04 10080   0.414E-04 0.407E-04
CGA:  11    -0.379852855438E+03   -0.12570E-04   -0.11362E-04 10080   0.217E-04-0.157E-04
CGA:  12    -0.379852855408E+03    0.30079E-07   -0.14135E-05 10080   0.127E-04 0.724E-05
  93 F= -.37985286E+03 E0= -.37985265E+03  d E =0.234148E-02  mag=     8.0000
       N       E                     dE             d eps       ncg     rms          ort
SDA:   1    -0.379822968724E+03    0.29887E-01    0.00000E+00 10080   0.704E-01 0.000E+00
CGA:   2    -0.379843757576E+03   -0.20789E-01   -0.20782E-01 10080   0.230E-01 0.649E-03
CGA:   3    -0.379848984636E+03   -0.52271E-02   -0.51974E-02 10080   0.631E-02-0.480E-03
CGA:   4    -0.379849875353E+03   -0.89072E-03   -0.90319E-03 10080   0.146E-02 0.107E-03
CGA:   5    -0.379850162162E+03   -0.28681E-03   -0.27395E-03 10080   0.509E-03-0.141E-03
CGA:   6    -0.379850227803E+03   -0.65641E-04   -0.71176E-04 10080   0.131E-03 0.486E-04
CGA:   7    -0.379850270942E+03   -0.43139E-04   -0.62863E-04 10080   0.234E-03-0.113E-03
CGA:   8    -0.379850302513E+03   -0.31571E-04   -0.34834E-04 10080   0.327E-04 0.262E-04
CGA:   9    -0.379850323876E+03   -0.21363E-04    0.49931E-04 10080   0.405E-04-0.133E-04
CGA:  10    -0.379850329676E+03   -0.57996E-05   -0.53275E-05 10080   0.323E-04-0.102E-04
CGA:  11    -0.379850328993E+03    0.68345E-06   -0.14430E-04 10080   0.161E-03-0.454E-04
CGA:  12    -0.379850364723E+03   -0.35730E-04   -0.27052E-04 10080   0.962E-04-0.754E-04
CGA:  13    -0.379850367421E+03   -0.26988E-05   -0.58196E-05 10080   0.342E-04 0.193E-04
  94 F= -.37985037E+03 E0= -.37985017E+03  d E =0.248799E-02  mag=     8.0000
       N       E                     dE             d eps       ncg     rms          ort
SDA:   1    -0.379751583868E+03    0.98781E-01    0.00000E+00 10080   0.242E+00 0.000E+00
CGA:   2    -0.379820770078E+03   -0.69186E-01   -0.69145E-01 10080   0.828E-01 0.135E-02
CGA:   3    -0.379838443084E+03   -0.17673E-01   -0.17669E-01 10080   0.248E-01 0.175E-03
CGA:   4    -0.379842154225E+03   -0.37111E-02   -0.36256E-02 10080   0.558E-02-0.865E-03
CGA:   5    -0.379843023602E+03   -0.86938E-03   -0.88769E-03 10080   0.135E-02 0.235E-03
CGA:   6    -0.379843325974E+03   -0.30237E-03   -0.29718E-03 10080   0.618E-03-0.145E-03
CGA:   7    -0.379843423578E+03   -0.97604E-04   -0.98405E-04 10080   0.216E-03 0.134E-04
CGA:   8    -0.379843492137E+03   -0.68559E-04   -0.10392E-03 10080   0.381E-03-0.153E-03
CGA:   9    -0.379843540046E+03   -0.47909E-04   -0.52356E-04 10080   0.758E-04 0.390E-04
CGA:  10    -0.379843561794E+03   -0.21748E-04   -0.26590E-04 10080   0.152E-03-0.681E-04
CGA:  11    -0.379843567649E+03   -0.58551E-05   -0.12196E-04 10080   0.228E-04 0.378E-04
  95 F= -.37984357E+03 E0= -.37984336E+03  d E =0.679977E-02  mag=     8.0000
       N       E                     dE             d eps       ncg     rms          ort
SDA:   1    -0.379802453793E+03    0.41108E-01    0.00000E+00 10080   0.937E-01 0.000E+00
CGA:   2    -0.379830085587E+03   -0.27632E-01   -0.27550E-01 10080   0.384E-01 0.146E-02
CGA:   3    -0.379836831150E+03   -0.67456E-02   -0.66871E-02 10080   0.149E-01-0.106E-02
CGA:   4    -0.379838837372E+03   -0.20062E-02   -0.20092E-02 10080   0.204E-02 0.131E-03
CGA:   5    -0.379839326861E+03   -0.48949E-03   -0.49089E-03 10080   0.660E-03-0.227E-03
CGA:   6    -0.379839431277E+03   -0.10442E-03   -0.10653E-03 10080   0.184E-03 0.422E-04
CGA:   7    -0.379839482897E+03   -0.51619E-04   -0.81706E-04 10080   0.400E-03-0.160E-03
CGA:   8    -0.379839517473E+03   -0.34576E-04   -0.42353E-04 10080   0.645E-04 0.599E-04
CGA:   9    -0.379839509097E+03    0.83757E-05   -0.43463E-04 10080   0.391E-03-0.147E-03
CGA:  10    -0.379839553274E+03   -0.44177E-04   -0.51134E-04 10080   0.656E-04 0.589E-04
CGA:  11    -0.379839571964E+03   -0.18690E-04   -0.20380E-04 10080   0.847E-04-0.662E-04
CGA:  12    -0.379839573870E+03   -0.19058E-05   -0.63390E-05 10080   0.144E-04 0.263E-04
  96 F= -.37983957E+03 E0= -.37983939E+03  d E =0.399378E-02  mag=     8.0000
       N       E                     dE             d eps       ncg     rms          ort
SDA:   1    -0.379813841062E+03    0.25731E-01    0.00000E+00 10080   0.587E-01 0.000E+00
CGA:   2    -0.379830688238E+03   -0.16847E-01   -0.16784E-01 10080   0.275E-01 0.119E-02
CGA:   3    -0.379835120457E+03   -0.44322E-02   -0.43791E-02 10080   0.955E-02-0.861E-03
CGA:   4    -0.379836526091E+03   -0.14056E-02   -0.14115E-02 10080   0.133E-02 0.112E-03
CGA:   5    -0.379836845153E+03   -0.31906E-03   -0.32199E-03 10080   0.503E-03-0.217E-03
CGA:   6    -0.379836904231E+03   -0.59078E-04   -0.63149E-04 10080   0.132E-03 0.538E-04
CGA:   7    -0.379836935497E+03   -0.31266E-04   -0.31239E-04 10080   0.527E-04-0.322E-05
CGA:   8    -0.379836736173E+03    0.19932E-03   -0.10744E-03 10080   0.129E-02-0.221E-03
CGA:   9    -0.379836941149E+03   -0.20498E-03   -0.21108E-03 10080   0.199E-03 0.257E-04
CGA:  10    -0.379836976468E+03   -0.35319E-04   -0.36915E-04 10080   0.658E-04 0.831E-05
CGA:  11    -0.379837001434E+03   -0.24966E-04   -0.31890E-04 10080   0.185E-03-0.834E-04
CGA:  12    -0.379837003048E+03   -0.16139E-05   -0.15997E-04 10080   0.289E-04 0.489E-04
  97 F= -.37983700E+03 E0= -.37983682E+03  d E =0.257082E-02  mag=     8.0000
       N       E                     dE             d eps       ncg     rms          ort
SDA:   1    -0.379670850160E+03    0.16615E+00    0.00000E+00 10080   0.381E+00 0.000E+00
CGA:   2    -0.379797024949E+03   -0.12617E+00   -0.12621E+00 10080   0.144E+00 0.181E-02
CGA:   3    -0.379820458273E+03   -0.23433E-01   -0.23618E-01 10080   0.508E-01-0.303E-02
CGA:   4    -0.379827531670E+03   -0.70734E-02   -0.70306E-02 10080   0.730E-02 0.569E-03
CGA:   5    -0.379829143112E+03   -0.16114E-02   -0.15809E-02 10080   0.234E-02-0.251E-03
CGA:   6    -0.379829514918E+03   -0.37181E-03   -0.38250E-03 10080   0.657E-03 0.699E-04
CGA:   7    -0.379829664200E+03   -0.14928E-03   -0.14945E-03 10080   0.226E-03 0.241E-05
CGA:   8    -0.379829745401E+03   -0.81202E-04   -0.85251E-04 10080   0.208E-03-0.687E-04
CGA:   9    -0.379829788777E+03   -0.43376E-04   -0.40151E-04 10080   0.185E-03-0.751E-04
CGA:  10    -0.379829802218E+03   -0.13441E-04   -0.15318E-04 10080   0.649E-04 0.103E-04
CGA:  11    -0.379829817981E+03   -0.15763E-04   -0.14276E-04 10080   0.692E-04-0.147E-04
CGA:  12    -0.379829817043E+03    0.93817E-06   -0.25138E-04 10080   0.301E-03-0.157E-03
CGA:  13    -0.379829831270E+03   -0.14228E-04   -0.30630E-04 10080   0.773E-04 0.794E-04
CGA:  14    -0.379829844580E+03   -0.13310E-04   -0.16608E-04 10080   0.239E-04 0.250E-04
CGA:  15    -0.379829299816E+03    0.54476E-03   -0.29937E-03 10080   0.539E-02-0.373E-03
CGA:  16    -0.379829701797E+03   -0.40198E-03   -0.46558E-03 10080   0.418E-03 0.414E-03
CGA:  17    -0.379829802135E+03   -0.10034E-03   -0.11563E-03 10080   0.182E-03 0.592E-04
CGA:  18    -0.379829857095E+03   -0.54960E-04   -0.31739E-04 10080   0.659E-04-0.667E-04
CGA:  19    -0.379829867641E+03   -0.10546E-04   -0.84407E-05 10080   0.150E-04-0.714E-05
CGA:  20    -0.379829867916E+03   -0.27522E-06   -0.20677E-05 10080   0.487E-05 0.569E-05
  98 F= -.37982987E+03 E0= -.37982968E+03  d E =0.713513E-02  mag=     8.0000
       N       E                     dE             d eps       ncg     rms          ort
SDA:   1    -0.379698775436E+03    0.13109E+00    0.00000E+00 10080   0.298E+00 0.000E+00
CGA:   2    -0.379803784326E+03   -0.10501E+00   -0.10502E+00 10080   0.853E-01 0.205E-03
CGA:   3    -0.379821029495E+03   -0.17245E-01   -0.17187E-01 10080   0.229E-01-0.569E-03
CGA:   4    -0.379824407563E+03   -0.33781E-02   -0.33800E-02 10080   0.522E-02 0.186E-03
CGA:   5    -0.379825427165E+03   -0.10196E-02   -0.97747E-03 10080   0.158E-02-0.198E-03
CGA:   6    -0.379825660706E+03   -0.23354E-03   -0.25938E-03 10080   0.425E-03 0.117E-03
CGA:   7    -0.379825782974E+03   -0.12227E-03   -0.11554E-03 10080   0.213E-03-0.492E-04
CGA:   8    -0.379825839180E+03   -0.56206E-04   -0.52292E-04 10080   0.143E-03-0.372E-04
CGA:   9    -0.379825882624E+03   -0.43444E-04   -0.40037E-04 10080   0.189E-03-0.904E-04
CGA:  10    -0.379825892237E+03   -0.96126E-05   -0.18036E-04 10080   0.318E-04 0.311E-04
CGA:  11    -0.379825904937E+03   -0.12701E-04   -0.12310E-04 10080   0.283E-04-0.139E-04
CGA:  12    -0.379825920492E+03   -0.15554E-04    0.78098E-05 10080   0.808E-04-0.329E-04
CGA:  13    -0.379825922903E+03   -0.24113E-05   -0.71641E-05 10080   0.130E-04 0.179E-04
  99 F= -.37982592E+03 E0= -.37982578E+03  d E =0.394501E-02  mag=     8.0000
       N       E                     dE             d eps       ncg     rms          ort
SDA:   1    -0.379795522186E+03    0.30398E-01    0.00000E+00 10080   0.819E-01 0.000E+00
CGA:   2    -0.379822570530E+03   -0.27048E-01   -0.27043E-01 10080   0.292E-01-0.538E-03
CGA:   3    -0.379827934633E+03   -0.53641E-02   -0.54002E-02 10080   0.739E-02 0.261E-03
CGA:   4    -0.379829028556E+03   -0.10939E-02   -0.11352E-02 10080   0.141E-02 0.252E-03
CGA:   5    -0.379829336266E+03   -0.30771E-03   -0.30028E-03 10080   0.478E-03-0.624E-04
CGA:   6    -0.379829397346E+03   -0.61080E-04   -0.69303E-04 10080   0.140E-03 0.512E-04
CGA:   7    -0.379829441264E+03   -0.43917E-04   -0.42561E-04 10080   0.906E-04-0.390E-04
CGA:   8    -0.379829446700E+03   -0.54368E-05   -0.91276E-05 10080   0.401E-04 0.221E-04
 100 F= -.37982945E+03 E0= -.37982929E+03  d E =-.352380E-02  mag=     8.0000
       N       E                     dE             d eps       ncg     rms          ort
SDA:   1    -0.379809403756E+03    0.20038E-01    0.00000E+00 10080   0.419E-01 0.000E+00
CGA:   2    -0.379823322643E+03   -0.13919E-01   -0.13885E-01 10080   0.153E-01 0.837E-03
CGA:   3    -0.379826058270E+03   -0.27356E-02   -0.26778E-02 10080   0.512E-02-0.516E-03
CGA:   4    -0.379826735397E+03   -0.67713E-03   -0.68823E-03 10080   0.791E-03 0.105E-03
CGA:   5    -0.379826918139E+03   -0.18274E-03   -0.17760E-03 10080   0.303E-03-0.866E-04
CGA:   6    -0.379826955395E+03   -0.37256E-04   -0.39668E-04 10080   0.724E-04 0.193E-04
CGA:   7    -0.379826973643E+03   -0.18248E-04   -0.18082E-04 10080   0.275E-04-0.476E-05
CGA:   8    -0.379826982102E+03   -0.84589E-05   -0.10783E-04 10080   0.398E-04-0.152E-04
 101 F= -.37982698E+03 E0= -.37982682E+03  d E =0.246460E-02  mag=     8.0000
       N       E                     dE             d eps       ncg     rms          ort
SDA:   1    -0.379608010829E+03    0.21896E+00    0.00000E+00 10080   0.497E+00 0.000E+00
CGA:   2    -0.379784814077E+03   -0.17680E+00   -0.17671E+00 10080   0.146E+00 0.108E-02
CGA:   3    -0.379813544567E+03   -0.28730E-01   -0.28692E-01 10080   0.339E-01-0.562E-03
CGA:   4    -0.379818983417E+03   -0.54389E-02   -0.54362E-02 10080   0.849E-02 0.857E-04
CGA:   5    -0.379820540463E+03   -0.15570E-02   -0.15209E-02 10080   0.271E-02-0.443E-03
CGA:   6    -0.379820939880E+03   -0.39942E-03   -0.41777E-03 10080   0.673E-03 0.200E-03
CGA:   7    -0.379821121362E+03   -0.18148E-03   -0.18129E-03 10080   0.293E-03-0.638E-04
CGA:   8    -0.379821199952E+03   -0.78589E-04   -0.80612E-04 10080   0.178E-03-0.397E-04
CGA:   9    -0.379821226748E+03   -0.26796E-04   -0.75267E-04 10080   0.644E-03-0.208E-03
CGA:  10    -0.379821268918E+03   -0.42170E-04   -0.56411E-04 10080   0.690E-04 0.840E-04
CGA:  11    -0.379821287379E+03   -0.18462E-04   -0.18365E-04 10080   0.389E-04-0.418E-05
CGA:  12    -0.379821282805E+03    0.45740E-05   -0.17959E-04 10080   0.351E-03-0.957E-04
CGA:  13    -0.379821300963E+03   -0.18158E-04   -0.28379E-04 10080   0.284E-04 0.568E-04
CGA:  14    -0.379821305776E+03   -0.48123E-05   -0.52151E-05 10080   0.176E-04 0.403E-05
CGA:  15    -0.379821317811E+03   -0.12035E-04    0.14474E-04 10080   0.137E-04-0.132E-04
CGA:  16    -0.379821317179E+03    0.63140E-06   -0.87593E-06 10080   0.553E-05 0.792E-05
 102 F= -.37982132E+03 E0= -.37982116E+03  d E =0.566492E-02  mag=     8.0000
       N       E                     dE             d eps       ncg     rms          ort
SDA:   1    -0.379721626553E+03    0.99691E-01    0.00000E+00 10080   0.281E+00 0.000E+00
CGA:   2    -0.379800345472E+03   -0.78719E-01   -0.78824E-01 10080   0.925E-01-0.275E-02
CGA:   3    -0.379820150430E+03   -0.19805E-01   -0.19836E-01 10080   0.274E-01 0.138E-02
CGA:   4    -0.379824193233E+03   -0.40428E-02   -0.40222E-02 10080   0.676E-02-0.331E-03
CGA:   5    -0.379825253001E+03   -0.10598E-02   -0.10847E-02 10080   0.153E-02 0.365E-03
CGA:   6    -0.379825637638E+03   -0.38464E-03   -0.38554E-03 10080   0.619E-03-0.151E-03
CGA:   7    -0.379825756188E+03   -0.11855E-03   -0.11920E-03 10080   0.257E-03 0.339E-04
CGA:   8    -0.379825836292E+03   -0.80104E-04   -0.10518E-03 10080   0.486E-03-0.160E-03
CGA:   9    -0.379825865250E+03   -0.28958E-04   -0.43250E-04 10080   0.797E-04 0.971E-04
CGA:  10    -0.379825880273E+03   -0.15023E-04   -0.16222E-04 10080   0.382E-04 0.191E-04
CGA:  11    -0.379825850945E+03    0.29328E-04   -0.32872E-04 10080   0.726E-03-0.133E-03
CGA:  12    -0.379825890246E+03   -0.39301E-04   -0.57986E-04 10080   0.670E-04 0.115E-03
CGA:  13    -0.379825899037E+03   -0.87910E-05   -0.10952E-04 10080   0.338E-04 0.211E-04
CGA:  14    -0.379825893653E+03    0.53846E-05   -0.22072E-04 10080   0.266E-03-0.106E-03
CGA:  15    -0.379825906157E+03   -0.12505E-04   -0.22911E-04 10080   0.461E-04 0.642E-04
CGA:  16    -0.379825913012E+03   -0.68545E-05   -0.83280E-05 10080   0.195E-04 0.150E-04
CGA:  17    -0.379825900334E+03    0.12678E-04   -0.14170E-04 10080   0.284E-03-0.867E-04
CGA:  18    -0.379825910799E+03   -0.10465E-04   -0.22085E-04 10080   0.382E-04 0.679E-04
CGA:  19    -0.379825913227E+03   -0.24286E-05   -0.49780E-05 10080   0.205E-04 0.183E-04
 103 F= -.37982591E+03 E0= -.37982573E+03  d E =-.459605E-02  mag=     8.0000
       N       E                     dE             d eps       ncg     rms          ort
SDA:   1    -0.379678791056E+03    0.14712E+00    0.00000E+00 10080   0.356E+00 0.000E+00
CGA:   2    -0.379804238277E+03   -0.12545E+00   -0.12555E+00 10080   0.107E+00-0.917E-03
CGA:   3    -0.379823929208E+03   -0.19691E-01   -0.19735E-01 10080   0.297E-01 0.923E-03
CGA:   4    -0.379828558579E+03   -0.46294E-02   -0.45857E-02 10080   0.720E-02-0.574E-03
CGA:   5    -0.379829684389E+03   -0.11258E-02   -0.11491E-02 10080   0.174E-02 0.327E-03
CGA:   6    -0.379830079677E+03   -0.39529E-03   -0.39302E-03 10080   0.639E-03-0.111E-03
CGA:   7    -0.379830176075E+03   -0.96398E-04   -0.10179E-03 10080   0.189E-03 0.837E-04
CGA:   8    -0.379830229178E+03   -0.53102E-04   -0.52817E-04 10080   0.819E-04 0.192E-04
CGA:   9    -0.379830246644E+03   -0.17467E-04   -0.18363E-04 10080   0.315E-04 0.306E-04
CGA:  10    -0.379830258594E+03   -0.11950E-04   -0.11763E-04 10080   0.171E-04 0.463E-05
CGA:  11    -0.379830259429E+03   -0.83515E-06   -0.22239E-05 10080   0.820E-05 0.116E-04
 104 F= -.37983026E+03 E0= -.37983009E+03  d E =-.434620E-02  mag=     8.0000
       N       E                     dE             d eps       ncg     rms          ort
SDA:   1    -0.379803503605E+03    0.26755E-01    0.00000E+00 10080   0.590E-01 0.000E+00
CGA:   2    -0.379821757240E+03   -0.18254E-01   -0.18126E-01 10080   0.203E-01 0.148E-02
CGA:   3    -0.379826059891E+03   -0.43027E-02   -0.42920E-02 10080   0.603E-02-0.531E-03
CGA:   4    -0.379826885391E+03   -0.82550E-03   -0.83131E-03 10080   0.131E-02 0.904E-04
CGA:   5    -0.379827166590E+03   -0.28120E-03   -0.27797E-03 10080   0.558E-03-0.258E-03
CGA:   6    -0.379827220505E+03   -0.53915E-04   -0.60781E-04 10080   0.135E-03 0.818E-04
CGA:   7    -0.379827239914E+03   -0.19409E-04   -0.22322E-04 10080   0.512E-04 0.406E-04
CGA:   8    -0.379827254704E+03   -0.14790E-04   -0.14927E-04 10080   0.479E-04-0.113E-04
CGA:   9    -0.379827255915E+03   -0.12106E-05   -0.32650E-05 10080   0.293E-04 0.164E-04
 105 F= -.37982726E+03 E0= -.37982709E+03  d E =0.300351E-02  mag=     8.0000
       N       E                     dE             d eps       ncg     rms          ort
SDA:   1    -0.379821928416E+03    0.53263E-02    0.00000E+00 10080   0.158E-01 0.000E+00
CGA:   2    -0.379826505589E+03   -0.45772E-02   -0.46297E-02 10080   0.584E-02-0.569E-03
CGA:   3    -0.379827626042E+03   -0.11205E-02   -0.11204E-02 10080   0.158E-02-0.629E-05
CGA:   4    -0.379827847048E+03   -0.22101E-03   -0.23120E-03 10080   0.311E-03 0.177E-03
CGA:   5    -0.379827918615E+03   -0.71567E-04   -0.71772E-04 10080   0.118E-03-0.335E-04
CGA:   6    -0.379827930241E+03   -0.11626E-04   -0.13528E-04 10080   0.342E-04 0.259E-04
CGA:   7    -0.379827927966E+03    0.22745E-05   -0.22761E-04 10080   0.176E-03-0.720E-04
CGA:   8    -0.379827961366E+03   -0.33400E-04   -0.32312E-04 10080   0.380E-04-0.341E-04
CGA:   9    -0.379827960387E+03    0.97894E-06   -0.16364E-05 10080   0.140E-04 0.163E-04
 106 F= -.37982796E+03 E0= -.37982779E+03  d E =-.704472E-03  mag=     8.0000
