       N       E                     dE             d eps       ncg     rms          rms(c)
DAV:   1     0.234107180317E+04    0.23411E+04   -0.11590E+05 21960   0.151E+03
DAV:   2    -0.960499200778E+02   -0.24371E+04   -0.22836E+04 22728   0.420E+02
DAV:   3    -0.415340730305E+03   -0.31929E+03   -0.30906E+03 25520   0.160E+02
DAV:   4    -0.427910254438E+03   -0.12570E+02   -0.12414E+02 28984   0.329E+01
DAV:   5    -0.428665071583E+03   -0.75482E+00   -0.75330E+00 38080   0.660E+00    0.618E+00
DAV:   6    -0.354883307167E+03    0.73782E+02   -0.18033E+01 24856   0.129E+01    0.773E+00
DAV:   7    -0.351537540104E+03    0.33458E+01   -0.36248E+00 28008   0.878E+00    0.515E+00
DAV:   8    -0.351572094267E+03   -0.34554E-01   -0.48772E-01 29168   0.297E+00    0.236E+00
DAV:   9    -0.351582152722E+03   -0.10058E-01   -0.34042E-02 30808   0.679E-01    0.222E+00
DAV:  10    -0.351595551510E+03   -0.13399E-01   -0.10533E-01 31656   0.732E-01    0.328E+00
DAV:  11    -0.351596185801E+03   -0.63429E-03   -0.52977E-03 26160   0.245E-01    0.338E+00
DAV:  12    -0.351584615017E+03    0.11571E-01   -0.10447E-02 31280   0.381E-01    0.304E+00
DAV:  13    -0.351556381654E+03    0.28233E-01   -0.15468E-01 25720   0.984E-01    0.175E+00
DAV:  14    -0.351555714935E+03    0.66672E-03   -0.88838E-02 30800   0.547E-01    0.180E+00
DAV:  15    -0.351551066240E+03    0.46487E-02   -0.10378E-02 30024   0.283E-01    0.149E+00
DAV:  16    -0.351546860448E+03    0.42058E-02   -0.99127E-03 28520   0.235E-01    0.102E+00
DAV:  17    -0.351546166427E+03    0.69402E-03   -0.19550E-03 27368   0.148E-01    0.911E-01
DAV:  18    -0.351544860260E+03    0.13062E-02   -0.18220E-03 27728   0.113E-01    0.685E-01
DAV:  19    -0.351544656817E+03    0.20344E-03   -0.14606E-03 30080   0.106E-01    0.558E-01
DAV:  20    -0.351544211305E+03    0.44551E-03   -0.10950E-03 29856   0.933E-02    0.343E-01
DAV:  21    -0.351544271733E+03   -0.60428E-04   -0.24945E-04 30048   0.517E-02    0.322E-01
DAV:  22    -0.351544392527E+03   -0.12079E-03   -0.70095E-04 30504   0.471E-02    0.158E-01
DAV:  23    -0.351544508583E+03   -0.11606E-03   -0.94152E-05 26272   0.318E-02    0.113E-01
DAV:  24    -0.351544575355E+03   -0.66772E-04   -0.34590E-05 18304   0.204E-02    0.943E-02
DAV:  25    -0.351544646503E+03   -0.71148E-04   -0.31043E-05 17272   0.180E-02    0.646E-02
DAV:  26    -0.351544744085E+03   -0.97582E-04   -0.69490E-05 23624   0.224E-02    0.311E-02
DAV:  27    -0.351544803275E+03   -0.59190E-04   -0.16939E-05 15592   0.142E-02    0.146E-02
DAV:  28    -0.351544795362E+03    0.79133E-05   -0.57160E-06 13336   0.839E-03
   1 F= -.35154480E+03 E0= -.35153955E+03  d E =-.351545E+03  mag=     6.0000
