       N       E                     dE             d eps       ncg     rms          rms(c)
DAV:   1     0.273111580366E+04    0.27311E+04   -0.13636E+05 26624   0.154E+03
DAV:   2    -0.117608430620E+03   -0.28487E+04   -0.26595E+04 27216   0.427E+02
DAV:   3    -0.445427495552E+03   -0.32782E+03   -0.32242E+03 28776   0.165E+02
DAV:   4    -0.459146714378E+03   -0.13719E+02   -0.13372E+02 35376   0.312E+01
DAV:   5    -0.460012715035E+03   -0.86600E+00   -0.85567E+00 41896   0.544E+00    0.128E+02
DAV:   6    -0.345414067335E+03    0.11460E+03   -0.17930E+02 34480   0.494E+01    0.825E+01
DAV:   7    -0.354091849585E+03   -0.86778E+01   -0.60072E+01 31088   0.405E+01    0.420E+01
DAV:   8    -0.358929097524E+03   -0.48372E+01   -0.97630E+00 33296   0.148E+01    0.155E+01
DAV:   9    -0.359705497647E+03   -0.77640E+00   -0.14008E+00 31176   0.522E+00    0.560E+00
DAV:  10    -0.359836498711E+03   -0.13100E+00   -0.39746E-01 34856   0.332E+00    0.292E+00
DAV:  11    -0.359905562370E+03   -0.69064E-01   -0.81061E-02 32680   0.115E+00    0.100E+00
DAV:  12    -0.359925488299E+03   -0.19926E-01   -0.24844E-02 30256   0.643E-01    0.560E-01
DAV:  13    -0.359940553681E+03   -0.15065E-01   -0.85500E-03 30200   0.364E-01    0.333E-01
DAV:  14    -0.359941699256E+03   -0.11456E-02   -0.18541E-03 32104   0.167E-01    0.240E-01
DAV:  15    -0.359945123891E+03   -0.34246E-02   -0.10219E-03 33600   0.208E-01    0.182E-01
DAV:  16    -0.359947527293E+03   -0.24034E-02   -0.14273E-03 32256   0.223E-01    0.151E-01
DAV:  17    -0.359948734111E+03   -0.12068E-02   -0.94702E-04 33128   0.169E-01    0.129E-01
DAV:  18    -0.359950852048E+03   -0.21179E-02   -0.79542E-04 33616   0.213E-01    0.119E-01
DAV:  19    -0.359953051659E+03   -0.21996E-02   -0.19153E-03 32456   0.323E-01    0.110E-01
DAV:  20    -0.359956047182E+03   -0.29955E-02   -0.47722E-03 32200   0.522E-01    0.946E-02
DAV:  21    -0.359956818718E+03   -0.77154E-03   -0.44515E-03 33656   0.337E-01    0.756E-02
DAV:  22    -0.359957666153E+03   -0.84744E-03   -0.16466E-03 29384   0.139E-01    0.614E-02
DAV:  23    -0.359958321339E+03   -0.65519E-03   -0.22414E-04 33064   0.127E-01    0.574E-02
DAV:  24    -0.359958718846E+03   -0.39751E-03   -0.51281E-04 31088   0.142E-01    0.528E-02
DAV:  25    -0.359958910885E+03   -0.19204E-03   -0.52914E-04 29952   0.146E-01    0.470E-02
DAV:  26    -0.359959215438E+03   -0.30455E-03   -0.43829E-04 30392   0.973E-02    0.400E-02
DAV:  27    -0.359959083041E+03    0.13240E-03   -0.23715E-04 31712   0.102E-01    0.350E-02
DAV:  28    -0.359959611121E+03   -0.52808E-03   -0.44391E-04 31632   0.140E-01    0.326E-02
DAV:  29    -0.359959475738E+03    0.13538E-03   -0.58573E-04 31440   0.142E-01    0.305E-02
DAV:  30    -0.359960160847E+03   -0.68511E-03   -0.44626E-04 31992   0.116E-01    0.256E-02
DAV:  31    -0.359960094767E+03    0.66080E-04   -0.30118E-04 29888   0.105E-01    0.223E-02
DAV:  32    -0.359960282788E+03   -0.18802E-03   -0.30551E-04 31952   0.110E-01    0.219E-02
DAV:  33    -0.359960339888E+03   -0.57100E-04   -0.23570E-04 25416   0.434E-02    0.165E-02
DAV:  34    -0.359960381696E+03   -0.41808E-04   -0.16618E-05 21536   0.362E-02    0.151E-02
DAV:  35    -0.359960319463E+03    0.62233E-04   -0.11194E-04 30192   0.713E-02    0.168E-02
DAV:  36    -0.359960364903E+03   -0.45440E-04   -0.17899E-04 31456   0.877E-02    0.193E-02
DAV:  37    -0.359960553354E+03   -0.18845E-03   -0.15718E-04 30992   0.681E-02    0.170E-02
DAV:  38    -0.359960366578E+03    0.18678E-03   -0.72535E-05 24856   0.409E-02    0.142E-02
DAV:  39    -0.359960450297E+03   -0.83719E-04   -0.55484E-05 25640   0.573E-02    0.134E-02
DAV:  40    -0.359960483573E+03   -0.33277E-04   -0.66837E-05 26248   0.408E-02    0.111E-02
DAV:  41    -0.359960512603E+03   -0.29029E-04   -0.29651E-05 20032   0.192E-02    0.679E-03
DAV:  42    -0.359960529585E+03   -0.16983E-04   -0.21826E-05 19440   0.333E-02    0.619E-03
DAV:  43    -0.359960516419E+03    0.13166E-04   -0.10450E-05 16280   0.168E-02    0.604E-03
DAV:  44    -0.359960519261E+03   -0.28416E-05   -0.91858E-06 16360   0.209E-02
   1 F= -.35996052E+03 E0= -.35996052E+03  d E =-.359961E+03  mag=    16.0001
       N       E                     dE             d eps       ncg     rms          rms(c)
DAV:   1    -0.359950001617E+03    0.10515E-01   -0.30746E-01 36512   0.484E+00    0.711E-01
DAV:   2    -0.359961001296E+03   -0.11000E-01   -0.12777E-01 27848   0.909E-01    0.358E-01
DAV:   3    -0.359961008651E+03   -0.73551E-05   -0.55420E-03 30248   0.291E-01    0.193E-01
DAV:   4    -0.359961422468E+03   -0.41382E-03   -0.62268E-04 31368   0.100E-01    0.972E-02
DAV:   5    -0.359961242663E+03    0.17981E-03   -0.11479E-04 32816   0.424E-02    0.364E-02
DAV:   6    -0.359961195291E+03    0.47372E-04   -0.24021E-05 24224   0.195E-02    0.155E-02
DAV:   7    -0.359961221325E+03   -0.26034E-04   -0.47970E-06 15168   0.948E-03    0.102E-02
DAV:   8    -0.359961261987E+03   -0.40662E-04   -0.23154E-06 14776   0.663E-03    0.690E-03
DAV:   9    -0.359961249311E+03    0.12677E-04   -0.13910E-06 14392   0.449E-03    0.369E-03
DAV:  10    -0.359961245908E+03    0.34024E-05   -0.65446E-07 14344   0.336E-03
   2 F= -.35996125E+03 E0= -.35996125E+03  d E =-.726647E-03  mag=    16.0000
       N       E                     dE             d eps       ncg     rms          rms(c)
DAV:   1    -0.359961238203E+03    0.11107E-04   -0.13352E-04 32592   0.102E-01    0.142E-02
DAV:   2    -0.359961222264E+03    0.15939E-04   -0.57761E-05 20080   0.193E-02    0.768E-03
DAV:   3    -0.359961231143E+03   -0.88794E-05   -0.25578E-06 14440   0.667E-03    0.452E-03
DAV:   4    -0.359961240790E+03   -0.96468E-05   -0.68047E-07 13952   0.333E-03    0.308E-03
DAV:   5    -0.359961239146E+03    0.16443E-05   -0.26970E-07 13776   0.200E-03    0.228E-03
DAV:   6    -0.359961233616E+03    0.55305E-05   -0.10862E-07 13696   0.185E-03
   3 F= -.35996123E+03 E0= -.35996123E+03  d E =-.714355E-03  mag=    16.0000
       N       E                     dE             d eps       ncg     rms          rms(c)
DAV:   1    -0.359957163631E+03    0.40755E-02   -0.11992E-01 33656   0.276E+00    0.365E-01
DAV:   2    -0.359961297983E+03   -0.41344E-02   -0.41264E-02 28456   0.520E-01    0.192E-01
DAV:   3    -0.359961302695E+03   -0.47122E-05   -0.15856E-03 31480   0.140E-01    0.102E-01
DAV:   4    -0.359961537040E+03   -0.23434E-03   -0.13449E-04 30968   0.362E-02    0.582E-02
DAV:   5    -0.359961463262E+03    0.73778E-04   -0.31998E-05 26232   0.280E-02    0.214E-02
DAV:   6    -0.359961438616E+03    0.24646E-04   -0.11615E-05 16224   0.131E-02    0.103E-02
DAV:   7    -0.359961439944E+03   -0.13285E-05   -0.28177E-06 14616   0.624E-03
   4 F= -.35996144E+03 E0= -.35996144E+03  d E =-.206329E-03  mag=    16.0000
       N       E                     dE             d eps       ncg     rms          rms(c)
DAV:   1    -0.359961065886E+03    0.37273E-03   -0.11364E-02 33776   0.851E-01    0.112E-01
DAV:   2    -0.359961509346E+03   -0.44346E-03   -0.39177E-03 28528   0.160E-01    0.587E-02
DAV:   3    -0.359961531245E+03   -0.21899E-04   -0.14937E-04 28288   0.429E-02    0.314E-02
DAV:   4    -0.359961451341E+03    0.79904E-04   -0.12963E-05 18416   0.120E-02    0.179E-02
DAV:   5    -0.359961464711E+03   -0.13369E-04   -0.44540E-06 16200   0.970E-03    0.616E-03
DAV:   6    -0.359961483007E+03   -0.18297E-04   -0.16679E-06 13696   0.503E-03    0.329E-03
DAV:   7    -0.359961477128E+03    0.58787E-05   -0.41790E-07 13368   0.253E-03
   5 F= -.35996148E+03 E0= -.35996148E+03  d E =-.243513E-03  mag=    16.0000
       N       E                     dE             d eps       ncg     rms          rms(c)
DAV:   1    -0.359961460065E+03    0.22942E-04   -0.54514E-04 33832   0.187E-01    0.247E-02
DAV:   2    -0.359961473053E+03   -0.12988E-04   -0.18693E-04 23024   0.351E-02    0.129E-02
DAV:   3    -0.359961470907E+03    0.21461E-05   -0.71927E-06 14040   0.104E-02    0.693E-03
DAV:   4    -0.359961488090E+03   -0.17183E-04   -0.12273E-06 13368   0.387E-03    0.419E-03
DAV:   5    -0.359961487066E+03    0.10243E-05   -0.38571E-07 13360   0.270E-03    0.221E-03
DAV:   6    -0.359961482853E+03    0.42130E-05   -0.20762E-07 13344   0.186E-03
   6 F= -.35996148E+03 E0= -.35996148E+03  d E =-.249237E-03  mag=    16.0000
       N       E                     dE             d eps       ncg     rms          rms(c)
DAV:   1    -0.359961426010E+03    0.61055E-04   -0.14469E-02 29960   0.618E-01    0.128E-01
DAV:   2    -0.359961695380E+03   -0.26937E-03   -0.18517E-03 29992   0.129E-01    0.599E-02
DAV:   3    -0.359961570813E+03    0.12457E-03   -0.71995E-05 27192   0.337E-02    0.348E-02
DAV:   4    -0.359961582429E+03   -0.11616E-04   -0.11094E-05 20224   0.144E-02    0.144E-02
DAV:   5    -0.359961593287E+03   -0.10858E-04   -0.36690E-06 15936   0.753E-03    0.573E-03
DAV:   6    -0.359961594059E+03   -0.77236E-06   -0.97855E-07 14536   0.428E-03
   7 F= -.35996159E+03 E0= -.35996159E+03  d E =-.111207E-03  mag=    16.0000
       N       E                     dE             d eps       ncg     rms          rms(c)
DAV:   1    -0.359961585930E+03    0.73567E-05   -0.47371E-04 30544   0.112E-01    0.232E-02
DAV:   2    -0.359961618301E+03   -0.32370E-04   -0.59257E-05 25160   0.233E-02    0.105E-02
DAV:   3    -0.359961593893E+03    0.24408E-04   -0.27794E-06 14576   0.746E-03    0.629E-03
DAV:   4    -0.359961598517E+03   -0.46239E-05   -0.76797E-07 14104   0.369E-03    0.299E-03
DAV:   5    -0.359961602004E+03   -0.34875E-05   -0.29204E-07 13920   0.222E-03    0.181E-03
DAV:   6    -0.359961602805E+03   -0.80074E-06   -0.14010E-07 13608   0.138E-03
   8 F= -.35996160E+03 E0= -.35996160E+03  d E =-.119953E-03  mag=    16.0000
       N       E                     dE             d eps       ncg     rms          rms(c)
DAV:   1    -0.359961543356E+03    0.58648E-04   -0.14248E-02 29208   0.581E-01    0.758E-02
DAV:   2    -0.359961724437E+03   -0.18108E-03   -0.15674E-03 29272   0.119E-01    0.390E-02
DAV:   3    -0.359961722011E+03    0.24258E-05   -0.60362E-05 25800   0.285E-02    0.230E-02
DAV:   4    -0.359961667622E+03    0.54389E-04   -0.82940E-06 17496   0.115E-02    0.122E-02
DAV:   5    -0.359961690740E+03   -0.23118E-04   -0.34172E-06 14608   0.736E-03    0.402E-03
DAV:   6    -0.359961693188E+03   -0.24480E-05   -0.10540E-06 14368   0.431E-03
   9 F= -.35996169E+03 E0= -.35996169E+03  d E =-.903830E-04  mag=    16.0000
       N       E                     dE             d eps       ncg     rms          rms(c)
DAV:   1    -0.359961590092E+03    0.10065E-03   -0.11843E-02 29200   0.530E-01    0.695E-02
DAV:   2    -0.359961750057E+03   -0.15997E-03   -0.13040E-03 29440   0.109E-01    0.357E-02
DAV:   3    -0.359961746600E+03    0.34571E-05   -0.50223E-05 25488   0.261E-02    0.211E-02
DAV:   4    -0.359961697185E+03    0.49416E-04   -0.71723E-06 17104   0.108E-02    0.114E-02
DAV:   5    -0.359961718118E+03   -0.20934E-04   -0.29315E-06 14528   0.692E-03    0.389E-03
DAV:   6    -0.359961720217E+03   -0.20988E-05   -0.95474E-07 14408   0.405E-03
  10 F= -.35996172E+03 E0= -.35996172E+03  d E =-.117412E-03  mag=    16.0000
       N       E                     dE             d eps       ncg     rms          rms(c)
DAV:   1    -0.359961687785E+03    0.30333E-04   -0.14686E-02 26600   0.480E-01    0.753E-02
DAV:   2    -0.359961723213E+03   -0.35428E-04   -0.99249E-04 29440   0.102E-01    0.436E-02
DAV:   3    -0.359961816165E+03   -0.92952E-04   -0.38111E-05 25128   0.238E-02    0.282E-02
DAV:   4    -0.359961757721E+03    0.58444E-04   -0.54237E-06 15960   0.101E-02    0.141E-02
DAV:   5    -0.359961772685E+03   -0.14964E-04   -0.31798E-06 14528   0.808E-03    0.413E-03
DAV:   6    -0.359961776760E+03   -0.40745E-05   -0.11744E-06 14200   0.434E-03
  11 F= -.35996178E+03 E0= -.35996178E+03  d E =-.565426E-04  mag=    16.0000
       N       E                     dE             d eps       ncg     rms          rms(c)
DAV:   1    -0.359961777321E+03   -0.46357E-05   -0.33926E-03 26648   0.231E-01    0.365E-02
DAV:   2    -0.359961778198E+03   -0.87740E-06   -0.23000E-04 29624   0.494E-02    0.210E-02
DAV:   3    -0.359961823006E+03   -0.44808E-04   -0.82460E-06 18224   0.116E-02    0.135E-02
DAV:   4    -0.359961796711E+03    0.26295E-04   -0.19461E-06 14344   0.573E-03    0.684E-03
DAV:   5    -0.359961803289E+03   -0.65776E-05   -0.85553E-07 14040   0.430E-03    0.259E-03
DAV:   6    -0.359961804593E+03   -0.13044E-05   -0.42663E-07 13600   0.243E-03
  12 F= -.35996180E+03 E0= -.35996180E+03  d E =-.843764E-04  mag=    16.0000
       N       E                     dE             d eps       ncg     rms          rms(c)
DAV:   1    -0.359961831570E+03   -0.28281E-04   -0.10699E-02 26032   0.357E-01    0.494E-02
DAV:   2    -0.359961867555E+03   -0.35985E-04   -0.52152E-04 29336   0.757E-02    0.279E-02
DAV:   3    -0.359961860640E+03    0.69154E-05   -0.19105E-05 21496   0.173E-02    0.172E-02
DAV:   4    -0.359961852100E+03    0.85396E-05   -0.50446E-06 15152   0.101E-02    0.815E-03
DAV:   5    -0.359961857939E+03   -0.58386E-05   -0.23239E-06 14368   0.572E-03    0.347E-03
DAV:   6    -0.359961852194E+03    0.57447E-05   -0.71216E-07 14104   0.304E-03
  13 F= -.35996185E+03 E0= -.35996185E+03  d E =-.476007E-04  mag=    16.0000
       N       E                     dE             d eps       ncg     rms          rms(c)
DAV:   1    -0.359961805634E+03    0.52305E-04   -0.43145E-02 25936   0.716E-01    0.996E-02
DAV:   2    -0.359961930145E+03   -0.12451E-03   -0.21046E-03 29304   0.152E-01    0.557E-02
DAV:   3    -0.359961911431E+03    0.18714E-04   -0.87378E-05 31456   0.346E-02    0.342E-02
DAV:   4    -0.359961891670E+03    0.19761E-04   -0.10076E-05 19624   0.154E-02    0.166E-02
DAV:   5    -0.359961901911E+03   -0.10241E-04   -0.64916E-06 15512   0.100E-02    0.612E-03
DAV:   6    -0.359961890927E+03    0.10984E-04   -0.18796E-06 14432   0.516E-03    0.432E-03
DAV:   7    -0.359961894128E+03   -0.32005E-05   -0.58030E-07 14352   0.351E-03
  14 F= -.35996189E+03 E0= -.35996189E+03  d E =-.895345E-04  mag=    16.0000
       N       E                     dE             d eps       ncg     rms          rms(c)
DAV:   1    -0.359961910032E+03   -0.19105E-04   -0.10836E-02 26024   0.370E-01    0.496E-02
DAV:   2    -0.359961909000E+03    0.10327E-05   -0.56776E-04 29328   0.778E-02    0.271E-02
DAV:   3    -0.359961934286E+03   -0.25286E-04   -0.23637E-05 22960   0.187E-02    0.166E-02
DAV:   4    -0.359961933389E+03    0.89734E-06   -0.50963E-06 15568   0.104E-02    0.913E-03
DAV:   5    -0.359961927628E+03    0.57606E-05   -0.25695E-06 14432   0.658E-03    0.442E-03
DAV:   6    -0.359961927821E+03   -0.19274E-06   -0.96816E-07 14232   0.352E-03
  15 F= -.35996193E+03 E0= -.35996193E+03  d E =-.336927E-04  mag=    16.0000
       N       E                     dE             d eps       ncg     rms          rms(c)
DAV:   1    -0.359961923254E+03    0.43740E-05   -0.12240E-02 26000   0.393E-01    0.531E-02
DAV:   2    -0.359961922394E+03    0.85989E-06   -0.64139E-04 29752   0.827E-02    0.288E-02
DAV:   3    -0.359961948698E+03   -0.26304E-04   -0.26938E-05 23576   0.200E-02    0.176E-02
DAV:   4    -0.359961948866E+03   -0.16786E-06   -0.53805E-06 16224   0.108E-02    0.981E-03
DAV:   5    -0.359961941653E+03    0.72132E-05   -0.27928E-06 14632   0.701E-03    0.468E-03
DAV:   6    -0.359961942106E+03   -0.45332E-06   -0.11018E-06 14376   0.377E-03
  16 F= -.35996194E+03 E0= -.35996194E+03  d E =-.479784E-04  mag=    16.0000
       N       E                     dE             d eps       ncg     rms          rms(c)
DAV:   1    -0.359961955490E+03   -0.13837E-04   -0.70506E-03 26328   0.304E-01    0.457E-02
DAV:   2    -0.359961912379E+03    0.43111E-04   -0.40061E-04 29368   0.647E-02    0.269E-02
DAV:   3    -0.359961969155E+03   -0.56777E-04   -0.15285E-05 21056   0.161E-02    0.164E-02
DAV:   4    -0.359961969985E+03   -0.82961E-06   -0.47118E-06 16008   0.967E-03    0.823E-03
DAV:   5    -0.359961959381E+03    0.10604E-04   -0.21192E-06 14528   0.568E-03    0.450E-03
DAV:   6    -0.359961958841E+03    0.53969E-06   -0.73248E-07 14288   0.310E-03
  17 F= -.35996196E+03 E0= -.35996196E+03  d E =-.167349E-04  mag=    16.0000
