       N       E                     dE             d eps       ncg     rms          rms(c)
DAV:   1     0.257881316325E+04    0.25788E+04   -0.12905E+05 43776   0.149E+03
DAV:   2     0.738667370743E+01   -0.25714E+04   -0.23977E+04 45676   0.410E+02
DAV:   3    -0.262518295004E+03   -0.26990E+03   -0.26619E+03 48600   0.148E+02
DAV:   4    -0.270438837550E+03   -0.79205E+01   -0.78176E+01 55080   0.252E+01
DAV:   5    -0.270788063545E+03   -0.34923E+00   -0.34837E+00 63248   0.426E+00    0.117E+02
DAV:   6    -0.229887718850E+03    0.40900E+02   -0.17687E+02 53316   0.434E+01    0.712E+01
DAV:   7    -0.279098723942E+03   -0.49211E+02   -0.13340E+02 51548   0.709E+01    0.979E+01
DAV:   8    -0.236243453573E+03    0.42855E+02   -0.69494E+01 46508   0.666E+01    0.509E+01
DAV:   9    -0.257079389253E+03   -0.20836E+02   -0.14573E+02 52240   0.273E+01    0.631E+01
DAV:  10    -0.236168370153E+03    0.20911E+02   -0.63776E+01 47960   0.275E+01    0.537E+01
DAV:  11    -0.232219908297E+03    0.39485E+01   -0.54273E+01 53656   0.160E+01    0.321E+01
DAV:  12    -0.230689620956E+03    0.15303E+01   -0.54618E+00 50400   0.667E+00    0.255E+01
DAV:  13    -0.230861601522E+03   -0.17198E+00   -0.22650E-01 49048   0.161E+00    0.247E+01
DAV:  14    -0.230828429709E+03    0.33172E-01   -0.23881E-01 56392   0.242E+00    0.229E+01
DAV:  15    -0.230826892377E+03    0.15373E-02   -0.16078E+00 54552   0.369E+00    0.188E+01
DAV:  16    -0.231018560127E+03   -0.19167E+00   -0.47955E-01 44744   0.106E+00    0.222E+01
DAV:  17    -0.231328672717E+03   -0.31011E+00   -0.10862E+00 55056   0.175E+00    0.235E+01
DAV:  18    -0.231788977313E+03   -0.46030E+00   -0.25749E-01 51224   0.189E+00    0.219E+01
DAV:  19    -0.232319198693E+03   -0.53022E+00   -0.90028E-01 54488   0.216E+00    0.200E+01
DAV:  20    -0.232334177658E+03   -0.14979E-01   -0.63457E-02 53672   0.113E+00    0.192E+01
DAV:  21    -0.232345437805E+03   -0.11260E-01   -0.12358E+00 57424   0.241E+00    0.189E+01
DAV:  22    -0.232591491707E+03   -0.24605E+00   -0.64923E-01 46400   0.197E+00    0.193E+01
DAV:  23    -0.232823272402E+03   -0.23178E+00   -0.58028E-02 49236   0.124E+00    0.197E+01
DAV:  24    -0.232861961994E+03   -0.38690E-01   -0.48891E-02 57152   0.981E-01    0.188E+01
DAV:  25    -0.233417729828E+03   -0.55577E+00   -0.30290E+00 57152   0.222E+00    0.187E+01
DAV:  26    -0.233352520354E+03    0.65209E-01   -0.15230E-01 44416   0.153E+00    0.183E+01
DAV:  27    -0.233341988135E+03    0.10532E-01   -0.33343E-02 43504   0.525E-01    0.185E+01
DAV:  28    -0.233142329711E+03    0.19966E+00   -0.35637E-02 56032   0.732E-01    0.181E+01
DAV:  29    -0.232930219996E+03    0.21211E+00   -0.27063E-02 57392   0.733E-01    0.182E+01
DAV:  30    -0.232870041980E+03    0.60178E-01   -0.11359E-02 53640   0.304E-01    0.183E+01
DAV:  31    -0.232842489361E+03    0.27553E-01   -0.22091E-03 48600   0.180E-01    0.183E+01
DAV:  32    -0.232844750261E+03   -0.22609E-02   -0.67096E-04 47288   0.833E-02    0.183E+01
DAV:  33    -0.232605922970E+03    0.23883E+00   -0.30593E-02 55120   0.986E-01    0.185E+01
DAV:  34    -0.232302855566E+03    0.30307E+00   -0.81871E-02 58144   0.130E+00    0.195E+01
DAV:  35    -0.232417328369E+03   -0.11447E+00   -0.40578E-02 45668   0.657E-01    0.196E+01
DAV:  36    -0.232381114113E+03    0.36214E-01   -0.66454E-03 45520   0.233E-01    0.198E+01
DAV:  37    -0.232217133410E+03    0.16398E+00   -0.13382E-02 58008   0.503E-01    0.204E+01
DAV:  38    -0.232110355138E+03    0.10678E+00   -0.14963E-02 56032   0.350E-01    0.209E+01
DAV:  39    -0.232129461074E+03   -0.19106E-01   -0.92028E-03 47384   0.198E-01    0.210E+01
DAV:  40    -0.232141395304E+03   -0.11934E-01   -0.25050E-02 52428   0.242E-01    0.213E+01
DAV:  41    -0.232124735937E+03    0.16659E-01   -0.90125E-03 43696   0.211E-01    0.215E+01
DAV:  42    -0.232092414408E+03    0.32322E-01   -0.18648E-02 53816   0.304E-01    0.220E+01
DAV:  43    -0.232082401396E+03    0.10013E-01   -0.11336E-02 49552   0.197E-01    0.223E+01
DAV:  44    -0.232075992595E+03    0.64088E-02   -0.76432E-03 45808   0.121E-01    0.224E+01
DAV:  45    -0.232059703725E+03    0.16289E-01   -0.87247E-03 51824   0.220E-01    0.228E+01
DAV:  46    -0.232104971802E+03   -0.45268E-01   -0.78393E-03 49324   0.418E-01    0.225E+01
DAV:  47    -0.232117365043E+03   -0.12393E-01   -0.22546E-03 53768   0.155E-01    0.224E+01
DAV:  48    -0.232122756477E+03   -0.53914E-02   -0.27318E-04 48528   0.455E-02    0.223E+01
DAV:  49    -0.232153369324E+03   -0.30613E-01   -0.44713E-03 57056   0.190E-01    0.219E+01
DAV:  50    -0.232256177871E+03   -0.10281E+00   -0.54795E-02 55792   0.475E-01    0.210E+01
DAV:  51    -0.232061075958E+03    0.19510E+00   -0.28261E-02 46592   0.872E-01    0.217E+01
DAV:  52    -0.232063688888E+03   -0.26129E-02   -0.65499E-02 50324   0.481E-01    0.222E+01
DAV:  53    -0.232042723270E+03    0.20966E-01   -0.52885E-02 45668   0.411E-01    0.235E+01
DAV:  54    -0.232059292276E+03   -0.16569E-01   -0.59245E-02 45500   0.365E-01    0.252E+01
DAV:  55    -0.232060777989E+03   -0.14857E-02   -0.18116E-02 45736   0.355E-01    0.258E+01
DAV:  56    -0.231523328091E+03    0.53745E+00   -0.14545E-01 57616   0.135E+00    0.262E+01
DAV:  57    -0.231576687433E+03   -0.53359E-01   -0.12254E-01 46216   0.442E-01    0.248E+01
DAV:  58    -0.231625607564E+03   -0.48920E-01   -0.66022E-02 43676   0.511E-01    0.246E+01
DAV:  59    -0.231646375951E+03   -0.20768E-01   -0.22703E-02 46532   0.474E-01    0.248E+01
DAV:  60    -0.231639547218E+03    0.68287E-02   -0.36264E-03 47264   0.233E-01    0.247E+01
DAV:  61    -0.217954873693E+03    0.13685E+02   -0.12136E+02 53084   0.183E+01    0.205E+01
DAV:  62    -0.219210110219E+03   -0.12552E+01   -0.31986E+00 47928   0.439E+00    0.239E+01
DAV:  63    -0.219225923957E+03   -0.15814E-01   -0.83200E-02 48880   0.808E-01    0.240E+01
DAV:  64    -0.218273048274E+03    0.95288E+00   -0.16319E-01 52120   0.195E+00    0.172E+01
DAV:  65    -0.218503207196E+03   -0.23016E+00   -0.80373E-02 47576   0.100E+00    0.168E+01
DAV:  66    -0.218880534969E+03   -0.37733E+00   -0.61725E-02 48568   0.146E+00    0.164E+01
DAV:  67    -0.219808487433E+03   -0.92795E+00   -0.82987E-02 53232   0.138E+00    0.153E+01
DAV:  68    -0.220010434324E+03   -0.20195E+00   -0.18140E-01 53968   0.219E+00    0.152E+01
DAV:  69    -0.219113243405E+03    0.89719E+00   -0.76686E-02 53512   0.109E+00    0.159E+01
DAV:  70    -0.217559963516E+03    0.15533E+01   -0.45983E-02 51648   0.995E-01    0.168E+01
DAV:  71    -0.214289807285E+03    0.32702E+01   -0.22172E-01 50632   0.202E+00    0.188E+01
DAV:  72    -0.212098677998E+03    0.21911E+01   -0.13176E-01 53176   0.136E+00    0.256E+01
DAV:  73    -0.212236812598E+03   -0.13813E+00   -0.30843E-02 43984   0.739E-01    0.280E+01
DAV:  74    -0.212121614759E+03    0.11520E+00   -0.46790E-03 48184   0.297E-01    0.282E+01
DAV:  75    -0.212141005939E+03   -0.19391E-01   -0.53382E-04 48752   0.825E-02    0.282E+01
DAV:  76    -0.213197345854E+03   -0.10563E+01   -0.35668E-02 47104   0.752E-01    0.278E+01
DAV:  77    -0.212713878222E+03    0.48347E+00   -0.14711E-02 51272   0.493E-01    0.282E+01
DAV:  78    -0.212723826245E+03   -0.99480E-02   -0.23776E-03 46440   0.220E-01    0.282E+01
DAV:  79    -0.213701600942E+03   -0.97777E+00   -0.15793E-02 47168   0.508E-01    0.276E+01
DAV:  80    -0.214413438093E+03   -0.71184E+00   -0.27157E-02 50776   0.422E-01    0.273E+01
DAV:  81    -0.216355752196E+03   -0.19423E+01   -0.21356E-01 52544   0.159E+00    0.213E+01
DAV:  82    -0.217525420880E+03   -0.11697E+01   -0.80924E-02 50400   0.751E-01    0.172E+01
DAV:  83    -0.219763570485E+03   -0.22381E+01   -0.65807E-02 49496   0.122E+00    0.157E+01
DAV:  84    -0.228246422211E+03   -0.84829E+01   -0.10745E+00 52880   0.375E+00    0.116E+01
DAV:  85    -0.230996007337E+03   -0.27496E+01   -0.45667E-01 53416   0.192E+00    0.101E+01
DAV:  86    -0.230640741141E+03    0.35527E+00   -0.60231E+00 49848   0.918E+00    0.967E+00
DAV:  87    -0.230624711437E+03    0.16030E-01   -0.44548E-01 47672   0.193E+00    0.960E+00
DAV:  88    -0.230604978946E+03    0.19732E-01   -0.11676E-02 52792   0.271E-01    0.959E+00
DAV:  89    -0.230556408715E+03    0.48570E-01   -0.10375E-03 55224   0.103E-01    0.968E+00
DAV:  90    -0.230455235770E+03    0.10117E+00   -0.51125E-03 54304   0.227E-01    0.100E+01
DAV:  91    -0.228383889233E+03    0.20713E+01   -0.16511E+00 50520   0.338E+00    0.214E+01
DAV:  92    -0.227410132469E+03    0.97376E+00   -0.39384E-01 49952   0.124E+00    0.265E+01
DAV:  93    -0.228913438597E+03   -0.15033E+01   -0.11391E-01 48440   0.121E+00    0.255E+01
DAV:  94    -0.230704854327E+03   -0.17914E+01   -0.61896E-01 53648   0.206E+00    0.186E+01
DAV:  95    -0.231929160247E+03   -0.12243E+01   -0.70414E-01 53124   0.155E+00    0.974E+00
DAV:  96    -0.234037361303E+03   -0.21082E+01   -0.31881E+00 49240   0.577E+00    0.661E+00
DAV:  97    -0.234180684044E+03   -0.14332E+00   -0.24911E-01 48712   0.159E+00    0.680E+00
DAV:  98    -0.234190036468E+03   -0.93524E-02   -0.24811E-02 51392   0.796E-01    0.712E+00
DAV:  99    -0.234095284876E+03    0.94752E-01   -0.12399E-01 54400   0.236E+00    0.799E+00
DAV: 100    -0.233951231942E+03    0.14405E+00   -0.64772E-02 52392   0.111E+00    0.811E+00
DAV: 101    -0.234692642385E+03   -0.74141E+00   -0.94200E-01 53512   0.627E+00    0.267E+01
DAV: 102    -0.234739956052E+03   -0.47314E-01   -0.16048E-01 44832   0.162E+00    0.274E+01
DAV: 103    -0.234649644381E+03    0.90312E-01   -0.82361E-03 50920   0.322E-01    0.273E+01
DAV: 104    -0.234388806321E+03    0.26084E+00   -0.17945E-02 56768   0.781E-01    0.256E+01
DAV: 105    -0.234192285226E+03    0.19652E+00   -0.37402E-02 56296   0.125E+00    0.169E+01
DAV: 106    -0.234525799910E+03   -0.33351E+00   -0.12610E-01 50044   0.237E+00    0.242E+01
DAV: 107    -0.234536542693E+03   -0.10743E-01   -0.19246E-02 45408   0.534E-01    0.273E+01
DAV: 108    -0.234113049704E+03    0.42349E+00   -0.33489E-02 53924   0.135E+00    0.176E+01
DAV: 109    -0.234158061147E+03   -0.45011E-01   -0.46875E-02 51664   0.809E-01    0.133E+01
DAV: 110    -0.234198644710E+03   -0.40584E-01   -0.32175E-02 45788   0.872E-01    0.120E+01
DAV: 111    -0.234195015950E+03    0.36288E-02   -0.14192E-02 54336   0.545E-01    0.837E+00
DAV: 112    -0.234211699648E+03   -0.16684E-01   -0.35095E-02 47600   0.646E-01    0.796E+00
DAV: 113    -0.234245522693E+03   -0.33823E-01   -0.42633E-02 57064   0.719E-01    0.123E+01
DAV: 114    -0.234254858888E+03   -0.93362E-02   -0.76174E-03 44028   0.346E-01    0.152E+01
DAV: 115    -0.234240300524E+03    0.14558E-01   -0.21551E-03 46384   0.202E-01    0.164E+01
DAV: 116    -0.234422975509E+03   -0.18267E+00   -0.22706E-02 55600   0.686E-01    0.257E+01
DAV: 117    -0.234463065239E+03   -0.40090E-01   -0.20539E-02 42540   0.629E-01    0.273E+01
DAV: 118    -0.234443563295E+03    0.19502E-01   -0.20590E-03 49312   0.187E-01    0.274E+01
DAV: 119    -0.234437709411E+03    0.58539E-02   -0.97966E-05 47688   0.358E-02    0.274E+01
DAV: 120    -0.234436301545E+03    0.14079E-02   -0.32967E-06 34040   0.699E-03    0.274E+01
DAV: 121    -0.234390094375E+03    0.46207E-01   -0.10743E-03 53792   0.192E-01    0.272E+01
DAV: 122    -0.234388951713E+03    0.11427E-02   -0.34591E-04 50952   0.582E-02    0.272E+01
DAV: 123    -0.234373276631E+03    0.15675E-01   -0.42504E-04 56304   0.124E-01    0.271E+01
DAV: 124    -0.234179272900E+03    0.19400E+00   -0.97987E-03 56064   0.732E-01    0.244E+01
DAV: 125    -0.234118992084E+03    0.60281E-01   -0.56181E-03 54576   0.319E-01    0.207E+01
DAV: 126    -0.234563265440E+03   -0.44427E+00   -0.26795E-01 55904   0.187E+00    0.278E+01
DAV: 127    -0.234289714271E+03    0.27355E+00   -0.32495E-02 51528   0.113E+00    0.265E+01
DAV: 128    -0.234194707538E+03    0.95007E-01   -0.65187E-03 56456   0.409E-01    0.244E+01
DAV: 129    -0.234201214655E+03   -0.65071E-02   -0.35322E-03 52960   0.254E-01    0.233E+01
DAV: 130    -0.234140399284E+03    0.60815E-01   -0.36695E-02 57992   0.706E-01    0.187E+01
DAV: 131    -0.234165395448E+03   -0.24996E-01   -0.39724E-02 47020   0.558E-01    0.165E+01
DAV: 132    -0.234244461115E+03   -0.79066E-01   -0.21944E-02 47596   0.436E-01    0.182E+01
DAV: 133    -0.234202628871E+03    0.41832E-01   -0.25681E-03 48096   0.249E-01    0.174E+01
DAV: 134    -0.234167812732E+03    0.34816E-01   -0.28810E-03 56744   0.264E-01    0.145E+01
DAV: 135    -0.234212880615E+03   -0.45068E-01   -0.24192E-02 53008   0.536E-01    0.123E+01
DAV: 136    -0.234199282440E+03    0.13598E-01   -0.45913E-01 53952   0.162E+00    0.119E+01
DAV: 137    -0.234241019212E+03   -0.41737E-01   -0.21805E-02 44800   0.575E-01    0.153E+01
DAV: 138    -0.234195291052E+03    0.45728E-01   -0.18115E-02 53776   0.467E-01    0.143E+01
DAV: 139    -0.234154728309E+03    0.40563E-01   -0.93783E-03 55840   0.459E-01    0.842E+00
DAV: 140    -0.234207566909E+03   -0.52839E-01   -0.10308E-02 43280   0.375E-01    0.667E+00
DAV: 141    -0.234233130898E+03   -0.25564E-01   -0.54718E-03 46728   0.306E-01    0.707E+00
DAV: 142    -0.234235594415E+03   -0.24635E-02   -0.19066E-03 53328   0.159E-01    0.745E+00
DAV: 143    -0.234235254598E+03    0.33982E-03   -0.60991E-04 52608   0.627E-02    0.769E+00
DAV: 144    -0.234228942003E+03    0.63126E-02   -0.18474E-03 55408   0.142E-01    0.734E+00
DAV: 145    -0.234228374291E+03    0.56771E-03   -0.27177E-03 56704   0.244E-01    0.700E+00
DAV: 146    -0.234237228091E+03   -0.88538E-02   -0.86998E-03 58608   0.413E-01    0.784E+00
DAV: 147    -0.234222784946E+03    0.14443E-01   -0.23406E-02 56736   0.674E-01    0.650E+00
DAV: 148    -0.234224827453E+03   -0.20425E-02   -0.82773E-03 53440   0.226E-01    0.577E+00
DAV: 149    -0.234223824213E+03    0.10032E-02   -0.72089E-03 57512   0.281E-01    0.509E+00
DAV: 150    -0.234235128565E+03   -0.11304E-01   -0.73429E-03 60456   0.479E-01    0.504E+00
DAV: 151    -0.234244192286E+03   -0.90637E-02   -0.47896E-03 59320   0.298E-01    0.519E+00
DAV: 152    -0.234255384512E+03   -0.11192E-01   -0.18371E-03 57208   0.228E-01    0.560E+00
DAV: 153    -0.234258870204E+03   -0.34857E-02   -0.84108E-04 55144   0.853E-02    0.579E+00
DAV: 154    -0.234252894397E+03    0.59758E-02   -0.68718E-04 48448   0.119E-01    0.555E+00
DAV: 155    -0.234239256936E+03    0.13637E-01   -0.34650E-03 55480   0.303E-01    0.495E+00
DAV: 156    -0.234213484637E+03    0.25772E-01   -0.19806E-02 56680   0.731E-01    0.373E+00
DAV: 157    -0.234214995865E+03   -0.15112E-02   -0.40299E-03 47824   0.186E-01    0.356E+00
DAV: 158    -0.234212879650E+03    0.21162E-02   -0.11710E-03 56888   0.159E-01    0.330E+00
DAV: 159    -0.234211762087E+03    0.11176E-02   -0.12888E-03 57408   0.153E-01    0.304E+00
DAV: 160    -0.234212336975E+03   -0.57489E-03   -0.56883E-04 56080   0.926E-02    0.293E+00
DAV: 161    -0.234226322215E+03   -0.13985E-01   -0.60371E-03 56804   0.479E-01    0.338E+00
DAV: 162    -0.234223887394E+03    0.24348E-02   -0.67339E-03 57008   0.306E-01    0.288E+00
DAV: 163    -0.234225684570E+03   -0.17972E-02   -0.73602E-03 57784   0.327E-01    0.249E+00
DAV: 164    -0.234228038167E+03   -0.23536E-02   -0.41684E-03 59808   0.226E-01    0.233E+00
DAV: 165    -0.234228881165E+03   -0.84300E-03   -0.13919E-03 58048   0.114E-01    0.225E+00
DAV: 166    -0.234225193599E+03    0.36876E-02   -0.48427E-03 58184   0.239E-01    0.207E+00
DAV: 167    -0.234220320192E+03    0.48734E-02   -0.45661E-03 58968   0.257E-01    0.193E+00
DAV: 168    -0.234213623567E+03    0.66966E-02   -0.24249E-03 57416   0.251E-01    0.174E+00
DAV: 169    -0.234202607484E+03    0.11016E-01   -0.41516E-03 53952   0.413E-01    0.136E+00
DAV: 170    -0.234191802909E+03    0.10805E-01   -0.91787E-03 56672   0.585E-01    0.771E-01
DAV: 171    -0.234192745194E+03   -0.94228E-03   -0.94209E-03 57040   0.529E-01    0.238E+00
DAV: 172    -0.234192542778E+03    0.20242E-03   -0.35098E-03 44028   0.216E-01    0.322E+00
DAV: 173    -0.234193497212E+03   -0.95443E-03   -0.43414E-04 47848   0.101E-01    0.467E+00
DAV: 174    -0.234188412394E+03    0.50848E-02   -0.54261E-04 43036   0.108E-01    0.513E+00
DAV: 175    -0.234195235335E+03   -0.68229E-02   -0.68154E-04 52328   0.145E-01    0.761E+00
DAV: 176    -0.234199006687E+03   -0.37714E-02   -0.18038E-03 43560   0.158E-01    0.110E+01
DAV: 177    -0.234189804224E+03    0.92025E-02   -0.24929E-03 45632   0.189E-01    0.136E+01
DAV: 178    -0.234176489415E+03    0.13315E-01   -0.14860E-03 45272   0.150E-01    0.150E+01
DAV: 179    -0.234165740922E+03    0.10748E-01   -0.49524E-04 45936   0.891E-02    0.156E+01
DAV: 180    -0.234160213730E+03    0.55272E-02   -0.11698E-04 43760   0.399E-02    0.158E+01
DAV: 181    -0.234164702787E+03   -0.44891E-02   -0.19357E-04 39656   0.452E-02    0.161E+01
DAV: 182    -0.234165874572E+03   -0.11718E-02   -0.16659E-04 41424   0.292E-02    0.162E+01
DAV: 183    -0.234164005993E+03    0.18686E-02   -0.21252E-05 31384   0.168E-02    0.162E+01
DAV: 184    -0.234163956879E+03    0.49114E-04   -0.20062E-04 32088   0.237E-02    0.163E+01
DAV: 185    -0.234168539812E+03   -0.45829E-02   -0.47287E-05 35072   0.326E-02    0.164E+01
DAV: 186    -0.234158779451E+03    0.97604E-02   -0.14165E-03 50656   0.912E-02    0.162E+01
DAV: 187    -0.234158487708E+03    0.29174E-03   -0.32123E-04 41968   0.366E-02    0.161E+01
DAV: 188    -0.234155919177E+03    0.25685E-02   -0.28561E-05 33808   0.273E-02    0.160E+01
DAV: 189    -0.234148067148E+03    0.78520E-02   -0.15103E-03 54096   0.760E-02    0.156E+01
DAV: 190    -0.234143221681E+03    0.48455E-02   -0.18499E-03 56552   0.680E-02    0.152E+01
DAV: 191    -0.234138634879E+03    0.45868E-02   -0.40552E-04 45708   0.554E-02    0.147E+01
DAV: 192    -0.234134246828E+03    0.43881E-02   -0.20243E-04 45216   0.543E-02    0.140E+01
DAV: 193    -0.234135820190E+03   -0.15734E-02   -0.47824E-04 43304   0.658E-02    0.132E+01
DAV: 194    -0.234145937526E+03   -0.10117E-01   -0.30344E-04 48432   0.705E-02    0.131E+01
DAV: 195    -0.234147475425E+03   -0.15379E-02   -0.14393E-04 50664   0.429E-02    0.129E+01
DAV: 196    -0.234150192252E+03   -0.27168E-02   -0.90662E-05 40312   0.352E-02    0.128E+01
DAV: 197    -0.234141035637E+03    0.91566E-02   -0.68549E-04 49200   0.750E-02    0.117E+01
DAV: 198    -0.234140202311E+03    0.83333E-03   -0.13301E-03 47832   0.878E-02    0.982E+00
DAV: 199    -0.234146629258E+03   -0.64269E-02   -0.88655E-04 44624   0.123E-01    0.699E+00
DAV: 200    -0.234162705096E+03   -0.16076E-01   -0.19622E-03 43668   0.165E-01
   1 F= -.23416271E+03 E0= -.23415103E+03  d E =-.234163E+03  mag=     8.0786
       N       E                     dE             d eps       ncg     rms          rms(c)
DAV:   1    -0.234188421124E+03   -0.41792E-01   -0.54143E-03 43736   0.311E-01    0.228E+00
DAV:   2    -0.234243654445E+03   -0.55233E-01   -0.29468E-01 52400   0.276E+00    0.419E+00
DAV:   3    -0.234214885581E+03    0.28769E-01   -0.42556E-02 48424   0.170E+00    0.167E+00
DAV:   4    -0.234203554454E+03    0.11331E-01   -0.78490E-03 55624   0.609E-01    0.115E+00
DAV:   5    -0.234199406220E+03    0.41482E-02   -0.49228E-03 59768   0.349E-01    0.705E-01
DAV:   6    -0.234198827201E+03    0.57902E-03   -0.12490E-03 59032   0.167E-01    0.491E-01
DAV:   7    -0.234198559009E+03    0.26819E-03   -0.26028E-04 53504   0.855E-02    0.220E-01
DAV:   8    -0.234198613802E+03   -0.54793E-04   -0.19000E-04 50144   0.558E-02    0.106E-01
DAV:   9    -0.234198627063E+03   -0.13262E-04   -0.42216E-05 37096   0.311E-02    0.193E-02
DAV:  10    -0.234198636228E+03   -0.91644E-05   -0.12783E-05 29544   0.199E-02
   2 F= -.23419864E+03 E0= -.23419544E+03  d E =-.359311E-01  mag=     8.0833
       N       E                     dE             d eps       ncg     rms          rms(c)
DAV:   1    -0.234476843994E+03   -0.27822E+00   -0.48341E+00 43344   0.840E+00    0.131E+00
DAV:   2    -0.234501707770E+03   -0.24864E-01   -0.30276E-01 46720   0.161E+00    0.775E-01
DAV:   3    -0.234502064487E+03   -0.35672E-03   -0.16305E-02 59864   0.575E-01    0.856E-01
DAV:   4    -0.234500807125E+03    0.12574E-02   -0.43399E-03 54296   0.417E-01    0.382E-01
DAV:   5    -0.234500573761E+03    0.23336E-03   -0.11368E-03 53048   0.183E-01    0.182E-01
DAV:   6    -0.234500561667E+03    0.12094E-04   -0.55122E-04 51392   0.109E-01    0.131E-01
DAV:   7    -0.234500549306E+03    0.12361E-04   -0.18957E-04 51296   0.689E-02    0.634E-02
DAV:   8    -0.234500548533E+03    0.77295E-06   -0.26962E-05 36368   0.253E-02
   3 F= -.23450055E+03 E0= -.23449819E+03  d E =-.301912E+00  mag=     8.0609
       N       E                     dE             d eps       ncg     rms          rms(c)
DAV:   1    -0.234830166654E+03   -0.32962E+00   -0.23204E+01 43344   0.189E+01    0.253E+00
DAV:   2    -0.234967813349E+03   -0.13765E+00   -0.16107E+00 45608   0.361E+00    0.132E+00
DAV:   3    -0.234966924111E+03    0.88924E-03   -0.72635E-02 60832   0.980E-01    0.979E-01
DAV:   4    -0.234965509581E+03    0.14145E-02   -0.17241E-02 55184   0.599E-01    0.827E-01
DAV:   5    -0.234964126988E+03    0.13826E-02   -0.47777E-03 54832   0.396E-01    0.501E-01
DAV:   6    -0.234964028347E+03    0.98641E-04   -0.18798E-03 54640   0.271E-01    0.339E-01
DAV:   7    -0.234963902280E+03    0.12607E-03   -0.82372E-04 55112   0.176E-01    0.106E-01
DAV:   8    -0.234963920265E+03   -0.17985E-04   -0.12780E-04 51024   0.421E-02    0.432E-02
DAV:   9    -0.234963917625E+03    0.26395E-05   -0.33984E-05 34848   0.288E-02
   4 F= -.23496392E+03 E0= -.23496240E+03  d E =-.463369E+00  mag=     8.0370
       N       E                     dE             d eps       ncg     rms          rms(c)
DAV:   1    -0.235081786055E+03   -0.11787E+00   -0.20597E+01 43480   0.190E+01    0.205E+00
DAV:   2    -0.235227894637E+03   -0.14611E+00   -0.16333E+00 43676   0.358E+00    0.136E+00
DAV:   3    -0.235229991037E+03   -0.20964E-02   -0.64210E-02 60752   0.104E+00    0.176E+00
DAV:   4    -0.235227307890E+03    0.26831E-02   -0.99334E-03 52788   0.592E-01    0.871E-01
DAV:   5    -0.235225997866E+03    0.13100E-02   -0.47500E-03 54960   0.371E-01    0.607E-01
DAV:   6    -0.235225252918E+03    0.74495E-03   -0.46407E-03 54604   0.320E-01    0.283E-01
DAV:   7    -0.235225326861E+03   -0.73943E-04   -0.10658E-03 53368   0.143E-01    0.124E-01
DAV:   8    -0.235225317868E+03    0.89932E-05   -0.16895E-04 57084   0.646E-02    0.667E-02
DAV:   9    -0.235225313729E+03    0.41392E-05   -0.35561E-05 41536   0.313E-02
   5 F= -.23522531E+03 E0= -.23522343E+03  d E =-.261396E+00  mag=     8.0462
       N       E                     dE             d eps       ncg     rms          rms(c)
DAV:   1    -0.235126535051E+03    0.98783E-01   -0.30977E+01 43848   0.249E+01    0.269E+00
DAV:   2    -0.235416185537E+03   -0.28965E+00   -0.31449E+00 42296   0.489E+00    0.208E+00
DAV:   3    -0.235421438049E+03   -0.52525E-02   -0.11396E-01 59408   0.157E+00    0.319E+00
DAV:   4    -0.235414467459E+03    0.69706E-02   -0.20444E-02 55440   0.906E-01    0.125E+00
DAV:   5    -0.235413609880E+03    0.85758E-03   -0.11463E-02 56336   0.550E-01    0.940E-01
DAV:   6    -0.235411966016E+03    0.16439E-02   -0.90017E-03 59428   0.452E-01    0.380E-01
DAV:   7    -0.235412048574E+03   -0.82558E-04   -0.15293E-03 50664   0.182E-01    0.194E-01
DAV:   8    -0.235412035567E+03    0.13007E-04   -0.34763E-04 60124   0.805E-02    0.101E-01
DAV:   9    -0.235412030051E+03    0.55152E-05   -0.72469E-05 47272   0.411E-02
   6 F= -.23541203E+03 E0= -.23540981E+03  d E =-.186716E+00  mag=     8.0594
       N       E                     dE             d eps       ncg     rms          rms(c)
DAV:   1    -0.234801241995E+03    0.61079E+00   -0.59600E+01 43840   0.364E+01    0.422E+00
DAV:   2    -0.235495740054E+03   -0.69450E+00   -0.73430E+00 42464   0.732E+00    0.297E+00
DAV:   3    -0.235516676564E+03   -0.20937E-01   -0.23606E-01 56320   0.241E+00    0.764E+00
DAV:   4    -0.235482980510E+03    0.33696E-01   -0.53936E-02 53156   0.157E+00    0.177E+00
DAV:   5    -0.235496141205E+03   -0.13161E-01   -0.24135E-02 50968   0.758E-01    0.153E+00
DAV:   6    -0.235491142494E+03    0.49987E-02   -0.14601E-02 61208   0.589E-01    0.925E-01
DAV:   7    -0.235490231882E+03    0.91061E-03   -0.38720E-03 58712   0.314E-01    0.218E-01
DAV:   8    -0.235490523797E+03   -0.29191E-03   -0.10399E-03 49504   0.143E-01    0.112E-01
DAV:   9    -0.235490533511E+03   -0.97135E-05   -0.16270E-04 53208   0.503E-02    0.121E-01
DAV:  10    -0.235490516966E+03    0.16544E-04   -0.37170E-05 42168   0.358E-02    0.312E-02
DAV:  11    -0.235490524486E+03   -0.75196E-05   -0.16352E-05 30880   0.178E-02
   7 F= -.23549052E+03 E0= -.23548704E+03  d E =-.784944E-01  mag=     8.0960
       N       E                     dE             d eps       ncg     rms          rms(c)
DAV:   1    -0.235486400025E+03    0.41169E-02   -0.30002E+00 45448   0.849E+00    0.160E+00
DAV:   2    -0.235514448232E+03   -0.28048E-01   -0.28003E-01 48264   0.156E+00    0.102E+00
DAV:   3    -0.235517791138E+03   -0.33429E-02   -0.18796E-02 51288   0.804E-01    0.144E+00
DAV:   4    -0.235514092541E+03    0.36986E-02   -0.58437E-03 52312   0.528E-01    0.480E-01
DAV:   5    -0.235514143654E+03   -0.51113E-04   -0.17234E-03 58336   0.207E-01    0.644E-01
DAV:   6    -0.235513773221E+03    0.37043E-03   -0.10321E-03 51472   0.195E-01    0.186E-01
DAV:   7    -0.235513847816E+03   -0.74595E-04   -0.53247E-04 50008   0.101E-01    0.108E-01
DAV:   8    -0.235513839826E+03    0.79906E-05   -0.58109E-05 41760   0.414E-02
   8 F= -.23551384E+03 E0= -.23551075E+03  d E =-.233153E-01  mag=     8.0806
       N       E                     dE             d eps       ncg     rms          rms(c)
DAV:   1    -0.235515602755E+03   -0.17549E-02   -0.91281E-01 43000   0.448E+00    0.573E-01
DAV:   2    -0.235523511053E+03   -0.79083E-02   -0.82990E-02 43884   0.842E-01    0.400E-01
DAV:   3    -0.235524109406E+03   -0.59835E-03   -0.37248E-03 56844   0.332E-01    0.667E-01
DAV:   4    -0.235523472115E+03    0.63729E-03   -0.82771E-04 53192   0.200E-01    0.152E-01
DAV:   5    -0.235523527170E+03   -0.55056E-04   -0.32171E-04 55444   0.805E-02    0.241E-01
DAV:   6    -0.235523453896E+03    0.73275E-04   -0.20735E-04 50232   0.847E-02    0.617E-02
DAV:   7    -0.235523472395E+03   -0.18499E-04   -0.47483E-05 39360   0.291E-02    0.680E-02
DAV:   8    -0.235523465143E+03    0.72517E-05   -0.16627E-05 28664   0.229E-02
   9 F= -.23552347E+03 E0= -.23552070E+03  d E =-.962532E-02  mag=     8.0743
       N       E                     dE             d eps       ncg     rms          rms(c)
DAV:   1    -0.235471346721E+03    0.52126E-01   -0.76907E+00 45376   0.140E+01    0.151E+00
DAV:   2    -0.235543857858E+03   -0.72511E-01   -0.69469E-01 47148   0.241E+00    0.845E-01
DAV:   3    -0.235547606490E+03   -0.37486E-02   -0.27571E-02 51920   0.735E-01    0.987E-01
DAV:   4    -0.235546146970E+03    0.14595E-02   -0.45613E-03 50920   0.403E-01    0.274E-01
DAV:   5    -0.235545940735E+03    0.20624E-03   -0.11651E-03 51352   0.145E-01    0.311E-01
DAV:   6    -0.235545821793E+03    0.11894E-03   -0.65022E-04 55984   0.153E-01    0.203E-01
DAV:   7    -0.235545792210E+03    0.29583E-04   -0.19202E-04 50744   0.769E-02    0.625E-02
DAV:   8    -0.235545793241E+03   -0.10310E-05   -0.53036E-05 45712   0.296E-02
  10 F= -.23554579E+03 E0= -.23554351E+03  d E =-.223281E-01  mag=     8.0571
       N       E                     dE             d eps       ncg     rms          rms(c)
DAV:   1    -0.235455966837E+03    0.89825E-01   -0.12205E+01 45464   0.175E+01    0.178E+00
DAV:   2    -0.235561865895E+03   -0.10590E+00   -0.10176E+00 43884   0.306E+00    0.814E-01
DAV:   3    -0.235565397053E+03   -0.35312E-02   -0.31891E-02 49064   0.613E-01    0.474E-01
DAV:   4    -0.235565059700E+03    0.33735E-03   -0.40393E-03 56816   0.304E-01    0.480E-01
DAV:   5    -0.235564574485E+03    0.48522E-03   -0.13794E-03 56800   0.232E-01    0.294E-01
DAV:   6    -0.235564465840E+03    0.10864E-03   -0.79640E-04 55560   0.163E-01    0.177E-01
DAV:   7    -0.235564452013E+03    0.13827E-04   -0.32526E-04 55184   0.934E-02    0.477E-02
DAV:   8    -0.235564456038E+03   -0.40257E-05   -0.46254E-05 45064   0.275E-02
  11 F= -.23556446E+03 E0= -.23556254E+03  d E =-.186628E-01  mag=     8.0468
       N       E                     dE             d eps       ncg     rms          rms(c)
DAV:   1    -0.235324307177E+03    0.24014E+00   -0.28658E+01 43888   0.257E+01    0.277E+00
DAV:   2    -0.235576499458E+03   -0.25219E+00   -0.24708E+00 43780   0.467E+00    0.130E+00
DAV:   3    -0.235584595170E+03   -0.80957E-02   -0.76939E-02 48904   0.899E-01    0.636E-01
DAV:   4    -0.235583360872E+03    0.12343E-02   -0.71574E-03 54632   0.342E-01    0.535E-01
DAV:   5    -0.235582953432E+03    0.40744E-03   -0.22652E-03 56080   0.317E-01    0.435E-01
DAV:   6    -0.235582568643E+03    0.38479E-03   -0.11152E-03 53680   0.220E-01    0.102E-01
DAV:   7    -0.235582626585E+03   -0.57941E-04   -0.36816E-04 51680   0.695E-02    0.913E-02
DAV:   8    -0.235582615005E+03    0.11580E-04   -0.64189E-05 44592   0.448E-02    0.349E-02
DAV:   9    -0.235582613710E+03    0.12953E-05   -0.19596E-05 30208   0.219E-02
  12 F= -.23558261E+03 E0= -.23558144E+03  d E =-.181577E-01  mag=     8.0273
       N       E                     dE             d eps       ncg     rms          rms(c)
DAV:   1    -0.235539828190E+03    0.42787E-01   -0.10856E+01 44520   0.128E+01    0.245E+00
DAV:   2    -0.235594776314E+03   -0.54948E-01   -0.57390E-01 48136   0.235E+00    0.975E-01
DAV:   3    -0.235593233490E+03    0.15428E-02   -0.19819E-02 49048   0.597E-01    0.709E-01
DAV:   4    -0.235592792109E+03    0.44138E-03   -0.49108E-03 55808   0.422E-01    0.565E-01
DAV:   5    -0.235592164506E+03    0.62760E-03   -0.17111E-03 55448   0.252E-01    0.225E-01
DAV:   6    -0.235592195519E+03   -0.31013E-04   -0.52922E-04 50800   0.863E-02    0.884E-02
DAV:   7    -0.235592196177E+03   -0.65740E-06   -0.12755E-04 51176   0.576E-02    0.679E-02
DAV:   8    -0.235592191047E+03    0.51298E-05   -0.37682E-05 36824   0.355E-02
  13 F= -.23559219E+03 E0= -.23559143E+03  d E =-.957734E-02  mag=     8.0163
       N       E                     dE             d eps       ncg     rms          rms(c)
DAV:   1    -0.235582543109E+03    0.96531E-02   -0.24927E+00 45360   0.738E+00    0.124E+00
DAV:   2    -0.235602779134E+03   -0.20236E-01   -0.20095E-01 47284   0.136E+00    0.500E-01
DAV:   3    -0.235602830805E+03   -0.51671E-04   -0.73476E-03 48624   0.322E-01    0.272E-01
DAV:   4    -0.235602682918E+03    0.14789E-03   -0.11076E-03 53456   0.151E-01    0.191E-01
DAV:   5    -0.235602624971E+03    0.57947E-04   -0.38423E-04 57112   0.112E-01    0.132E-01
DAV:   6    -0.235602609125E+03    0.15846E-04   -0.11564E-04 51064   0.662E-02    0.482E-02
DAV:   7    -0.235602609887E+03   -0.76219E-06   -0.30975E-05 35904   0.276E-02
  14 F= -.23560261E+03 E0= -.23560162E+03  d E =-.104188E-01  mag=     8.0222
       N       E                     dE             d eps       ncg     rms          rms(c)
DAV:   1    -0.235600986450E+03    0.16227E-02   -0.16306E+00 45168   0.515E+00    0.492E-01
DAV:   2    -0.235609635798E+03   -0.86493E-02   -0.86224E-02 46176   0.895E-01    0.236E-01
DAV:   3    -0.235609752957E+03   -0.11716E-03   -0.24149E-03 48960   0.164E-01    0.124E-01
DAV:   4    -0.235609677393E+03    0.75564E-04   -0.31706E-04 57496   0.764E-02    0.945E-02
DAV:   5    -0.235609656056E+03    0.21337E-04   -0.12890E-04 50288   0.641E-02    0.721E-02
DAV:   6    -0.235609651293E+03    0.47629E-05   -0.40198E-05 39984   0.360E-02
  15 F= -.23560965E+03 E0= -.23560886E+03  d E =-.704141E-02  mag=     8.0170
       N       E                     dE             d eps       ncg     rms          rms(c)
DAV:   1    -0.234652576721E+03    0.95708E+00   -0.17729E+02 44280   0.526E+01    0.517E+00
DAV:   2    -0.235608613858E+03   -0.95604E+00   -0.95481E+00 44324   0.939E+00    0.249E+00
DAV:   3    -0.235621654830E+03   -0.13041E-01   -0.25501E-01 49816   0.171E+00    0.137E+00
DAV:   4    -0.235614367206E+03    0.72876E-02   -0.27737E-02 51736   0.699E-01    0.994E-01
DAV:   5    -0.235611009117E+03    0.33581E-02   -0.71806E-03 51240   0.469E-01    0.576E-01
DAV:   6    -0.235610713490E+03    0.29563E-03   -0.40695E-03 49776   0.296E-01    0.203E-01
DAV:   7    -0.235610836819E+03   -0.12333E-03   -0.93833E-04 48624   0.122E-01    0.914E-02
DAV:   8    -0.235610833987E+03    0.28317E-05   -0.11253E-04 50672   0.511E-02    0.536E-02
DAV:   9    -0.235610826964E+03    0.70232E-05   -0.43142E-05 41112   0.324E-02
  16 F= -.23561083E+03 E0= -.23561058E+03  d E =-.117567E-02  mag=     8.0046
       N       E                     dE             d eps       ncg     rms          rms(c)
DAV:   1    -0.234584595593E+03    0.10262E+01   -0.17876E+02 43616   0.526E+01    0.742E+00
DAV:   2    -0.235572106852E+03   -0.98751E+00   -0.10133E+01 46604   0.984E+00    0.327E+00
DAV:   3    -0.235576511686E+03   -0.44048E-02   -0.33907E-01 49944   0.239E+00    0.222E+00
DAV:   4    -0.235567312338E+03    0.91993E-02   -0.71787E-02 55192   0.125E+00    0.157E+00
DAV:   5    -0.235560975279E+03    0.63371E-02   -0.17898E-02 49576   0.633E-01    0.694E-01
DAV:   6    -0.235560545269E+03    0.43001E-03   -0.67820E-03 50560   0.344E-01    0.245E-01
DAV:   7    -0.235560678846E+03   -0.13358E-03   -0.23262E-03 50880   0.197E-01    0.157E-01
DAV:   8    -0.235560653818E+03    0.25029E-04   -0.29290E-04 48200   0.816E-02    0.664E-02
DAV:   9    -0.235560636882E+03    0.16936E-04   -0.10414E-04 49664   0.436E-02    0.418E-02
DAV:  10    -0.235560636073E+03    0.80914E-06   -0.27524E-05 37840   0.252E-02
  17 F= -.23556064E+03 E0= -.23556064E+03  d E =0.501909E-01  mag=     8.0000
       N       E                     dE             d eps       ncg     rms          rms(c)
DAV:   1    -0.234925700862E+03    0.63494E+00   -0.13725E+02 44184   0.461E+01    0.680E+00
DAV:   2    -0.235632236301E+03   -0.70654E+00   -0.73212E+00 47068   0.859E+00    0.297E+00
DAV:   3    -0.235631122678E+03    0.11136E-02   -0.26417E-01 50152   0.215E+00    0.220E+00
DAV:   4    -0.235623147766E+03    0.79749E-02   -0.46017E-02 57056   0.105E+00    0.132E+00
DAV:   5    -0.235618287601E+03    0.48602E-02   -0.15769E-02 49360   0.572E-01    0.731E-01
DAV:   6    -0.235617774139E+03    0.51346E-03   -0.58689E-03 50480   0.359E-01    0.292E-01
DAV:   7    -0.235617883702E+03   -0.10956E-03   -0.15752E-03 50952   0.180E-01    0.173E-01
DAV:   8    -0.235617865983E+03    0.17719E-04   -0.27196E-04 49640   0.846E-02    0.696E-02
DAV:   9    -0.235617850537E+03    0.15445E-04   -0.94486E-05 48264   0.480E-02    0.372E-02
DAV:  10    -0.235617850148E+03    0.38940E-06   -0.30781E-05 38608   0.256E-02
  18 F= -.23561785E+03 E0= -.23561732E+03  d E =-.572141E-01  mag=     8.0109
       N       E                     dE             d eps       ncg     rms          rms(c)
DAV:   1    -0.235191522715E+03    0.42633E+00   -0.80013E+01 44136   0.341E+01    0.632E+00
DAV:   2    -0.235606472631E+03   -0.41495E+00   -0.43154E+00 48056   0.629E+00    0.231E+00
DAV:   3    -0.235597985385E+03    0.84872E-02   -0.13500E-01 49848   0.137E+00    0.122E+00
DAV:   4    -0.235593392708E+03    0.45927E-02   -0.22819E-02 53400   0.657E-01    0.857E-01
DAV:   5    -0.235591852469E+03    0.15402E-02   -0.56337E-03 50144   0.382E-01    0.412E-01
DAV:   6    -0.235591805140E+03    0.47329E-04   -0.20877E-03 55320   0.217E-01    0.219E-01
DAV:   7    -0.235591810072E+03   -0.49327E-05   -0.75498E-04 52312   0.118E-01    0.122E-01
DAV:   8    -0.235591787214E+03    0.22859E-04   -0.20064E-04 52696   0.674E-02    0.612E-02
DAV:   9    -0.235591780010E+03    0.72031E-05   -0.54823E-05 47200   0.309E-02
  19 F= -.23559178E+03 E0= -.23559178E+03  d E =0.260701E-01  mag=     8.0000
       N       E                     dE             d eps       ncg     rms          rms(c)
DAV:   1    -0.235267753281E+03    0.32403E+00   -0.76346E+01 43616   0.337E+01    0.498E+00
DAV:   2    -0.235678491192E+03   -0.41074E+00   -0.42184E+00 45948   0.627E+00    0.215E+00
DAV:   3    -0.235677785669E+03    0.70552E-03   -0.11894E-01 49928   0.134E+00    0.137E+00
DAV:   4    -0.235674403442E+03    0.33822E-02   -0.26991E-02 54072   0.772E-01    0.110E+00
DAV:   5    -0.235671948972E+03    0.24545E-02   -0.90876E-03 52000   0.479E-01    0.470E-01
DAV:   6    -0.235671952915E+03   -0.39430E-05   -0.23871E-03 50560   0.214E-01    0.177E-01
DAV:   7    -0.235672005686E+03   -0.52771E-04   -0.57479E-04 50904   0.892E-02    0.868E-02
DAV:   8    -0.235671991486E+03    0.14200E-04   -0.92241E-05 48704   0.470E-02    0.434E-02
DAV:   9    -0.235671985276E+03    0.62093E-05   -0.42137E-05 45288   0.258E-02
  20 F= -.23567199E+03 E0= -.23567194E+03  d E =-.802053E-01  mag=     8.0006
       N       E                     dE             d eps       ncg     rms          rms(c)
DAV:   1    -0.235521173287E+03    0.15082E+00   -0.18701E+01 43856   0.161E+01    0.432E+00
DAV:   2    -0.235612658260E+03   -0.91485E-01   -0.10593E+00 48920   0.327E+00    0.165E+00
DAV:   3    -0.235605876813E+03    0.67814E-02   -0.57517E-02 49560   0.119E+00    0.128E+00
DAV:   4    -0.235603383543E+03    0.24933E-02   -0.92523E-03 53184   0.575E-01    0.462E-01
DAV:   5    -0.235602512951E+03    0.87059E-03   -0.27323E-03 49872   0.191E-01    0.185E-01
DAV:   6    -0.235602482033E+03    0.30918E-04   -0.88794E-04 52656   0.127E-01    0.107E-01
DAV:   7    -0.235602474351E+03    0.76826E-05   -0.16211E-04 51368   0.607E-02    0.648E-02
DAV:   8    -0.235602470349E+03    0.40016E-05   -0.50720E-05 43496   0.327E-02
  21 F= -.23560247E+03 E0= -.23560247E+03  d E =0.695149E-01  mag=     8.0000
       N       E                     dE             d eps       ncg     rms          rms(c)
DAV:   1    -0.235623575969E+03   -0.21102E-01   -0.13711E+01 43848   0.138E+01    0.320E+00
DAV:   2    -0.235688637148E+03   -0.65061E-01   -0.74001E-01 48864   0.274E+00    0.137E+00
DAV:   3    -0.235685212814E+03    0.34243E-02   -0.39402E-02 49824   0.971E-01    0.108E+00
DAV:   4    -0.235683421315E+03    0.17915E-02   -0.63948E-03 54312   0.457E-01    0.497E-01
DAV:   5    -0.235682711479E+03    0.70984E-03   -0.24273E-03 49848   0.197E-01    0.206E-01
DAV:   6    -0.235682732915E+03   -0.21436E-04   -0.93290E-04 51336   0.154E-01    0.139E-01
DAV:   7    -0.235682725089E+03    0.78255E-05   -0.21847E-04 49840   0.698E-02    0.551E-02
DAV:   8    -0.235682717994E+03    0.70958E-05   -0.37755E-05 40560   0.288E-02
  22 F= -.23568272E+03 E0= -.23568271E+03  d E =-.802476E-01  mag=     8.0001
       N       E                     dE             d eps       ncg     rms          rms(c)
DAV:   1    -0.235681435637E+03    0.12895E-02   -0.16755E-01 44120   0.194E+00    0.326E-01
DAV:   2    -0.235683072229E+03   -0.16366E-02   -0.16022E-02 47856   0.360E-01    0.133E-01
DAV:   3    -0.235683111158E+03   -0.38929E-04   -0.65440E-04 49296   0.100E-01    0.866E-02
DAV:   4    -0.235683099849E+03    0.11309E-04   -0.81495E-05 49184   0.465E-02    0.506E-02
DAV:   5    -0.235683093680E+03    0.61694E-05   -0.23640E-05 35880   0.246E-02
  23 F= -.23568309E+03 E0= -.23568309E+03  d E =-.375686E-03  mag=     8.0000
       N       E                     dE             d eps       ncg     rms          rms(c)
DAV:   1    -0.235454450326E+03    0.22865E+00   -0.22780E+01 43992   0.227E+01    0.238E+00
DAV:   2    -0.235675093960E+03   -0.22064E+00   -0.20927E+00 44848   0.406E+00    0.114E+00
DAV:   3    -0.235684146501E+03   -0.90525E-02   -0.70628E-02 48816   0.823E-01    0.550E-01
DAV:   4    -0.235683301800E+03    0.84470E-03   -0.45484E-03 53888   0.265E-01    0.402E-01
DAV:   5    -0.235682728551E+03    0.57325E-03   -0.15325E-03 52736   0.212E-01    0.257E-01
DAV:   6    -0.235682616055E+03    0.11250E-03   -0.88504E-04 50416   0.154E-01    0.835E-02
DAV:   7    -0.235682645143E+03   -0.29088E-04   -0.21233E-04 47928   0.550E-02    0.335E-02
DAV:   8    -0.235682644230E+03    0.91313E-06   -0.13978E-05 32584   0.174E-02
  24 F= -.23568264E+03 E0= -.23568264E+03  d E =0.449450E-03  mag=     8.0001
       N       E                     dE             d eps       ncg     rms          rms(c)
DAV:   1    -0.234535854511E+03    0.11468E+01   -0.13826E+02 43848   0.489E+01    0.708E+00
DAV:   2    -0.235473255502E+03   -0.93740E+00   -0.94822E+00 48744   0.918E+00    0.363E+00
DAV:   3    -0.235485369018E+03   -0.12114E-01   -0.30621E-01 49424   0.229E+00    0.245E+00
DAV:   4    -0.235478476423E+03    0.68926E-02   -0.65953E-02 56208   0.120E+00    0.188E+00
DAV:   5    -0.235472918167E+03    0.55583E-02   -0.19940E-02 51632   0.677E-01    0.848E-01
DAV:   6    -0.235472933901E+03   -0.15733E-04   -0.52834E-03 51368   0.290E-01    0.250E-01
DAV:   7    -0.235473073586E+03   -0.13969E-03   -0.18417E-03 53776   0.155E-01    0.143E-01
DAV:   8    -0.235473048460E+03    0.25126E-04   -0.31861E-04 51704   0.851E-02    0.679E-02
DAV:   9    -0.235473031237E+03    0.17223E-04   -0.90781E-05 49672   0.436E-02    0.394E-02
DAV:  10    -0.235473027525E+03    0.37123E-05   -0.26508E-05 36952   0.247E-02
  25 F= -.23547303E+03 E0= -.23547302E+03  d E =0.209617E+00  mag=     8.0000
       N       E                     dE             d eps       ncg     rms          rms(c)
DAV:   1    -0.235235362518E+03    0.23767E+00   -0.51450E+01 43880   0.321E+01    0.599E+00
DAV:   2    -0.235672968497E+03   -0.43761E+00   -0.43855E+00 47992   0.607E+00    0.237E+00
DAV:   3    -0.235678369237E+03   -0.54007E-02   -0.16412E-01 49000   0.172E+00    0.162E+00
DAV:   4    -0.235675186013E+03    0.31832E-02   -0.35432E-02 55712   0.919E-01    0.980E-01
DAV:   5    -0.235673371993E+03    0.18140E-02   -0.85660E-03 49112   0.435E-01    0.430E-01
DAV:   6    -0.235673135504E+03    0.23649E-03   -0.18951E-03 51272   0.199E-01    0.177E-01
DAV:   7    -0.235673174371E+03   -0.38867E-04   -0.58690E-04 51720   0.900E-02    0.993E-02
DAV:   8    -0.235673169976E+03    0.43947E-05   -0.95687E-05 47984   0.469E-02
  26 F= -.23567317E+03 E0= -.23567316E+03  d E =-.200142E+00  mag=     8.0001
       N       E                     dE             d eps       ncg     rms          rms(c)
DAV:   1    -0.235650442405E+03    0.22732E-01   -0.61303E+00 43864   0.887E+00    0.212E+00
DAV:   2    -0.235675661866E+03   -0.25219E-01   -0.28608E-01 48384   0.170E+00    0.100E+00
DAV:   3    -0.235674565526E+03    0.10963E-02   -0.18294E-02 51056   0.661E-01    0.780E-01
DAV:   4    -0.235673985097E+03    0.58043E-03   -0.66733E-03 55744   0.403E-01    0.439E-01
DAV:   5    -0.235673809576E+03    0.17552E-03   -0.12554E-03 51160   0.160E-01    0.175E-01
DAV:   6    -0.235673824544E+03   -0.14967E-04   -0.22284E-04 49768   0.537E-02    0.622E-02
DAV:   7    -0.235673817807E+03    0.67363E-05   -0.61478E-05 44040   0.321E-02
  27 F= -.23567382E+03 E0= -.23567381E+03  d E =-.647831E-03  mag=     8.0001
       N       E                     dE             d eps       ncg     rms          rms(c)
DAV:   1    -0.235671665359E+03    0.21592E-02   -0.17076E+00 44616   0.489E+00    0.105E+00
DAV:   2    -0.235679844449E+03   -0.81791E-02   -0.90479E-02 48472   0.921E-01    0.509E-01
DAV:   3    -0.235679494938E+03    0.34951E-03   -0.35757E-03 50176   0.257E-01    0.323E-01
DAV:   4    -0.235679394451E+03    0.10049E-03   -0.95175E-04 54432   0.144E-01    0.241E-01
DAV:   5    -0.235679339946E+03    0.54506E-04   -0.45357E-04 56096   0.102E-01    0.114E-01
DAV:   6    -0.235679344085E+03   -0.41394E-05   -0.11822E-04 48736   0.518E-02    0.481E-02
DAV:   7    -0.235679342781E+03    0.13040E-05   -0.16950E-05 33200   0.209E-02
  28 F= -.23567934E+03 E0= -.23567933E+03  d E =-.552497E-02  mag=     8.0002
       N       E                     dE             d eps       ncg     rms          rms(c)
DAV:   1    -0.235676200576E+03    0.31435E-02   -0.67358E-01 44440   0.292E+00    0.392E-01
DAV:   2    -0.235678804587E+03   -0.26040E-02   -0.27598E-02 48208   0.521E-01    0.185E-01
DAV:   3    -0.235678784545E+03    0.20042E-04   -0.10824E-03 50760   0.150E-01    0.151E-01
DAV:   4    -0.235678753807E+03    0.30738E-04   -0.27584E-04 56160   0.780E-02    0.882E-02
DAV:   5    -0.235678739735E+03    0.14072E-04   -0.69080E-05 45168   0.363E-02    0.398E-02
DAV:   6    -0.235678741209E+03   -0.14733E-05   -0.16377E-05 31408   0.180E-02
  29 F= -.23567874E+03 E0= -.23567873E+03  d E =0.601573E-03  mag=     8.0002
       N       E                     dE             d eps       ncg     rms          rms(c)
DAV:   1    -0.235445460900E+03    0.23328E+00   -0.57579E+01 44432   0.268E+01    0.214E+00
DAV:   2    -0.235665963757E+03   -0.22050E+00   -0.22533E+00 45024   0.457E+00    0.109E+00
DAV:   3    -0.235666767858E+03   -0.80410E-03   -0.54210E-02 48896   0.832E-01    0.662E-01
DAV:   4    -0.235664709947E+03    0.20579E-02   -0.79552E-03 52296   0.381E-01    0.520E-01
DAV:   5    -0.235663869347E+03    0.84060E-03   -0.31987E-03 52048   0.265E-01    0.278E-01
DAV:   6    -0.235663841789E+03    0.27558E-04   -0.13037E-03 48944   0.163E-01    0.127E-01
DAV:   7    -0.235663881405E+03   -0.39616E-04   -0.36578E-04 49096   0.791E-02    0.632E-02
DAV:   8    -0.235663882774E+03   -0.13686E-05   -0.31407E-05 37536   0.292E-02
  30 F= -.23566388E+03 E0= -.23566387E+03  d E =0.148584E-01  mag=     8.0001
       N       E                     dE             d eps       ncg     rms          rms(c)
DAV:   1    -0.232083714105E+03    0.35802E+01   -0.23910E+02 44608   0.524E+01    0.274E+01
DAV:   2    -0.233245541068E+03   -0.11618E+01   -0.14945E+01 50208   0.120E+01    0.982E+00
DAV:   3    -0.233412751549E+03   -0.16721E+00   -0.19997E+00 50040   0.932E+00    0.222E+01
DAV:   4    -0.233003447265E+03    0.40930E+00   -0.19415E+00 50984   0.700E+00    0.582E+00
DAV:   5    -0.233026783789E+03   -0.23337E-01   -0.25492E-01 52256   0.289E+00    0.409E+00
DAV:   6    -0.232978954466E+03    0.47829E-01   -0.11029E-01 55752   0.185E+00    0.230E+00
DAV:   7    -0.232968483143E+03    0.10471E-01   -0.53783E-02 59392   0.102E+00    0.121E+00
DAV:   8    -0.232973601683E+03   -0.51185E-02   -0.23378E-02 49680   0.741E-01    0.307E+00
DAV:   9    -0.232966073914E+03    0.75278E-02   -0.87306E-03 47432   0.569E-01    0.659E-01
DAV:  10    -0.232969700574E+03   -0.36267E-02   -0.85270E-03 51520   0.297E-01    0.876E-01
DAV:  11    -0.232968785166E+03    0.91541E-03   -0.20759E-03 48512   0.230E-01    0.274E-01
DAV:  12    -0.232969025928E+03   -0.24076E-03   -0.38293E-04 53912   0.764E-02    0.291E-01
DAV:  13    -0.232969024544E+03    0.13838E-05   -0.22820E-04 47096   0.747E-02    0.104E-01
DAV:  14    -0.232969041804E+03   -0.17260E-04   -0.69799E-05 45736   0.334E-02    0.504E-02
DAV:  15    -0.232969047971E+03   -0.61667E-05   -0.11289E-05 32344   0.156E-02
  31 F= -.23296905E+03 E0= -.23296130E+03  d E =0.269483E+01  mag=     8.2915
       N       E                     dE             d eps       ncg     rms          rms(c)
DAV:   1    -0.234594559792E+03   -0.16255E+01   -0.35735E+01 43160   0.181E+01    0.830E+00
DAV:   2    -0.234845237801E+03   -0.25068E+00   -0.22128E+00 50736   0.439E+00    0.152E+01
DAV:   3    -0.234738577254E+03    0.10666E+00   -0.39170E-01 50672   0.412E+00    0.723E+00
DAV:   4    -0.234768810279E+03   -0.30233E-01   -0.74340E-02 50504   0.179E+00    0.502E+00
DAV:   5    -0.234723283735E+03    0.45527E-01   -0.66944E-02 55144   0.183E+00    0.351E+00
DAV:   6    -0.234898818044E+03   -0.17553E+00   -0.81461E-02 57576   0.123E+00    0.147E+01
DAV:   7    -0.234767185405E+03    0.13163E+00   -0.24430E-01 46248   0.155E+00    0.142E+01
DAV:   8    -0.234618771651E+03    0.14841E+00   -0.49882E-02 51776   0.131E+00    0.377E+00
DAV:   9    -0.234703452160E+03   -0.84681E-01   -0.33829E-02 46688   0.597E-01    0.140E+00
DAV:  10    -0.234722663425E+03   -0.19211E-01   -0.62211E-03 44744   0.440E-01    0.154E+00
DAV:  11    -0.234719497043E+03    0.31664E-02   -0.10023E-03 49944   0.185E-01    0.134E+00
DAV:  12    -0.234717014335E+03    0.24827E-02   -0.78019E-04 58928   0.152E-01    0.959E-01
DAV:  13    -0.234716307791E+03    0.70654E-03   -0.36117E-04 56944   0.936E-02    0.540E-01
DAV:  14    -0.234716334812E+03   -0.27020E-04   -0.14938E-04 49208   0.638E-02    0.163E-01
DAV:  15    -0.234716565149E+03   -0.23034E-03   -0.93233E-05 42008   0.425E-02    0.233E-01
DAV:  16    -0.234716525009E+03    0.40140E-04   -0.50468E-05 37920   0.395E-02    0.814E-02
DAV:  17    -0.234716533817E+03   -0.88079E-05   -0.18650E-05 29264   0.124E-02
  32 F= -.23471653E+03 E0= -.23471105E+03  d E =-.174749E+01  mag=     8.1784
       N       E                     dE             d eps       ncg     rms          rms(c)
DAV:   1    -0.235268041865E+03   -0.55152E+00   -0.11464E+01 42736   0.105E+01    0.408E+00
DAV:   2    -0.235329568189E+03   -0.61526E-01   -0.66630E-01 50512   0.250E+00    0.670E+00
DAV:   3    -0.235316223037E+03    0.13345E-01   -0.14536E-01 50352   0.208E+00    0.325E+00
DAV:   4    -0.235317478526E+03   -0.12555E-02   -0.20492E-02 50840   0.881E-01    0.208E+00
DAV:   5    -0.235305820097E+03    0.11658E-01   -0.17190E-02 57088   0.821E-01    0.127E+00
DAV:   6    -0.235318299134E+03   -0.12479E-01   -0.16561E-02 58272   0.581E-01    0.493E+00
DAV:   7    -0.235296781652E+03    0.21517E-01   -0.32312E-02 48736   0.704E-01    0.178E+00
DAV:   8    -0.235303628344E+03   -0.68467E-02   -0.74430E-03 53304   0.384E-01    0.541E-01
DAV:   9    -0.235305738106E+03   -0.21098E-02   -0.15351E-03 43496   0.186E-01    0.485E-01
DAV:  10    -0.235305434956E+03    0.30315E-03   -0.18941E-04 51320   0.633E-02    0.375E-01
DAV:  11    -0.235305235820E+03    0.19914E-03   -0.84889E-05 50912   0.496E-02    0.188E-01
DAV:  12    -0.235305240528E+03   -0.47075E-05   -0.66116E-05 45408   0.360E-02
  33 F= -.23530524E+03 E0= -.23530202E+03  d E =-.588707E+00  mag=     8.0907
       N       E                     dE             d eps       ncg     rms          rms(c)
DAV:   1    -0.235601641070E+03   -0.29641E+00   -0.17748E+01 43208   0.130E+01    0.538E+00
DAV:   2    -0.235678420675E+03   -0.76780E-01   -0.10238E+00 49288   0.296E+00    0.268E+00
DAV:   3    -0.235669688827E+03    0.87318E-02   -0.52151E-02 49904   0.102E+00    0.203E+00
DAV:   4    -0.235666828415E+03    0.28604E-02   -0.36164E-02 53056   0.938E-01    0.180E+00
DAV:   5    -0.235662278207E+03    0.45502E-02   -0.13995E-02 49504   0.552E-01    0.699E-01
DAV:   6    -0.235662581691E+03   -0.30348E-03   -0.28531E-03 49920   0.196E-01    0.177E-01
DAV:   7    -0.235662571398E+03    0.10294E-04   -0.60736E-04 49640   0.103E-01    0.127E-01
DAV:   8    -0.235662561033E+03    0.10365E-04   -0.12092E-04 48976   0.509E-02    0.676E-02
DAV:   9    -0.235662553316E+03    0.77166E-05   -0.48241E-05 44376   0.307E-02
  34 F= -.23566255E+03 E0= -.23566226E+03  d E =-.357313E+00  mag=     8.0054
       N       E                     dE             d eps       ncg     rms          rms(c)
DAV:   1    -0.235681562736E+03   -0.19002E-01   -0.10757E+00 46324   0.353E+00    0.122E+00
DAV:   2    -0.235686698849E+03   -0.51361E-02   -0.64736E-02 49128   0.807E-01    0.546E-01
DAV:   3    -0.235686299768E+03    0.39908E-03   -0.75619E-03 51812   0.430E-01    0.544E-01
DAV:   4    -0.235685832775E+03    0.46699E-03   -0.28180E-03 54352   0.259E-01    0.197E-01
DAV:   5    -0.235685776488E+03    0.56286E-04   -0.29899E-04 49736   0.714E-02    0.909E-02
DAV:   6    -0.235685772770E+03    0.37181E-05   -0.10942E-04 51240   0.430E-02    0.432E-02
DAV:   7    -0.235685771617E+03    0.11530E-05   -0.19881E-05 33400   0.218E-02
  35 F= -.23568577E+03 E0= -.23568574E+03  d E =-.232183E-01  mag=     8.0004
       N       E                     dE             d eps       ncg     rms          rms(c)
DAV:   1    -0.235686175091E+03   -0.40232E-03   -0.90793E-01 44848   0.383E+00    0.104E+00
DAV:   2    -0.235692007144E+03   -0.58321E-02   -0.65300E-02 49352   0.812E-01    0.458E-01
DAV:   3    -0.235691861786E+03    0.14536E-03   -0.62316E-03 51352   0.391E-01    0.441E-01
DAV:   4    -0.235691598655E+03    0.26313E-03   -0.16900E-03 55168   0.206E-01    0.181E-01
DAV:   5    -0.235691559319E+03    0.39336E-04   -0.25710E-04 50304   0.682E-02    0.891E-02
DAV:   6    -0.235691557780E+03    0.15395E-05   -0.78267E-05 49720   0.418E-02
  36 F= -.23569156E+03 E0= -.23569155E+03  d E =-.578616E-02  mag=     8.0000
       N       E                     dE             d eps       ncg     rms          rms(c)
DAV:   1    -0.235691883662E+03   -0.32434E-03   -0.35073E-02 46204   0.861E-01    0.209E-01
DAV:   2    -0.235692217692E+03   -0.33403E-03   -0.34617E-03 49528   0.165E-01    0.801E-02
DAV:   3    -0.235692208257E+03    0.94346E-05   -0.13958E-04 49660   0.460E-02    0.454E-02
DAV:   4    -0.235692205428E+03    0.28285E-05   -0.25243E-05 37560   0.248E-02
  37 F= -.23569221E+03 E0= -.23569220E+03  d E =-.647649E-03  mag=     8.0001
       N       E                     dE             d eps       ncg     rms          rms(c)
DAV:   1    -0.235688632957E+03    0.35753E-02   -0.24168E-01 46460   0.261E+00    0.399E-01
DAV:   2    -0.235691565129E+03   -0.29322E-02   -0.28625E-02 47684   0.463E-01    0.164E-01
DAV:   3    -0.235691649964E+03   -0.84834E-04   -0.11356E-03 50108   0.120E-01    0.104E-01
DAV:   4    -0.235691631788E+03    0.18175E-04   -0.15594E-04 48736   0.568E-02    0.665E-02
DAV:   5    -0.235691621876E+03    0.99125E-05   -0.42615E-05 43892   0.319E-02
  38 F= -.23569162E+03 E0= -.23569162E+03  d E =0.583553E-03  mag=     8.0001
       N       E                     dE             d eps       ncg     rms          rms(c)
DAV:   1    -0.235690069853E+03    0.15619E-02   -0.92318E-02 45536   0.145E+00    0.153E-01
DAV:   2    -0.235690886073E+03   -0.81622E-03   -0.80210E-03 46464   0.255E-01    0.734E-02
DAV:   3    -0.235690914916E+03   -0.28843E-04   -0.26503E-04 49908   0.493E-02    0.361E-02
DAV:   4    -0.235690909521E+03    0.53956E-05   -0.19151E-05 33432   0.161E-02
  39 F= -.23569091E+03 E0= -.23569090E+03  d E =0.712355E-03  mag=     8.0001
       N       E                     dE             d eps       ncg     rms          rms(c)
DAV:   1    -0.235685550125E+03    0.53648E-02   -0.75695E-01 43848   0.318E+00    0.326E-01
DAV:   2    -0.235688589883E+03   -0.30398E-02   -0.31652E-02 45568   0.553E-01    0.146E-01
DAV:   3    -0.235688597346E+03   -0.74628E-05   -0.88840E-04 49424   0.107E-01    0.879E-02
DAV:   4    -0.235688567876E+03    0.29470E-04   -0.11049E-04 50616   0.470E-02    0.556E-02
DAV:   5    -0.235688557696E+03    0.10180E-04   -0.36826E-05 42496   0.283E-02    0.260E-02
DAV:   6    -0.235688557835E+03   -0.13904E-06   -0.10797E-05 26440   0.157E-02
  40 F= -.23568856E+03 E0= -.23568856E+03  d E =0.235169E-02  mag=     8.0000
       N       E                     dE             d eps       ncg     rms          rms(c)
DAV:   1    -0.235676770466E+03    0.11787E-01   -0.23852E+00 41432   0.492E+00    0.749E-01
DAV:   2    -0.235683843350E+03   -0.70729E-02   -0.75610E-02 46440   0.834E-01    0.278E-01
DAV:   3    -0.235683560094E+03    0.28326E-03   -0.21893E-03 50040   0.203E-01    0.197E-01
DAV:   4    -0.235683474723E+03    0.85371E-04   -0.37318E-04 55624   0.101E-01    0.951E-02
DAV:   5    -0.235683435922E+03    0.38801E-04   -0.12816E-04 49704   0.464E-02    0.373E-02
DAV:   6    -0.235683437525E+03   -0.16024E-05   -0.37146E-05 42616   0.248E-02
  41 F= -.23568344E+03 E0= -.23568343E+03  d E =0.512031E-02  mag=     8.0001
       N       E                     dE             d eps       ncg     rms          rms(c)
DAV:   1    -0.235683995197E+03   -0.55928E-03   -0.37213E-01 44408   0.190E+00    0.536E-01
DAV:   2    -0.235685306303E+03   -0.13111E-02   -0.15753E-02 49416   0.373E-01    0.217E-01
DAV:   3    -0.235685161948E+03    0.14436E-03   -0.83493E-04 49464   0.140E-01    0.168E-01
DAV:   4    -0.235685121895E+03    0.40053E-04   -0.15741E-04 51128   0.719E-02    0.542E-02
DAV:   5    -0.235685108839E+03    0.13056E-04   -0.40814E-05 44696   0.227E-02    0.204E-02
DAV:   6    -0.235685108615E+03    0.22400E-06   -0.11820E-05 30376   0.148E-02
  42 F= -.23568511E+03 E0= -.23568511E+03  d E =-.167109E-02  mag=     8.0000
       N       E                     dE             d eps       ncg     rms          rms(c)
DAV:   1    -0.235683262555E+03    0.18463E-02   -0.45426E-01 43736   0.219E+00    0.191E-01
DAV:   2    -0.235684683301E+03   -0.14207E-02   -0.14593E-02 46552   0.360E-01    0.844E-02
DAV:   3    -0.235684673209E+03    0.10091E-04   -0.32289E-04 49432   0.593E-02    0.450E-02
DAV:   4    -0.235684656394E+03    0.16816E-04   -0.49277E-05 46896   0.269E-02    0.281E-02
DAV:   5    -0.235684654183E+03    0.22110E-05   -0.11995E-05 29000   0.149E-02
  43 F= -.23568465E+03 E0= -.23568465E+03  d E =0.454432E-03  mag=     8.0000
       N       E                     dE             d eps       ncg     rms          rms(c)
DAV:   1    -0.235662628871E+03    0.22028E-01   -0.66087E+00 43448   0.790E+00    0.676E-01
DAV:   2    -0.235680175428E+03   -0.17547E-01   -0.18377E-01 45932   0.127E+00    0.313E-01
DAV:   3    -0.235679846936E+03    0.32849E-03   -0.38408E-03 49720   0.231E-01    0.202E-01
DAV:   4    -0.235679649181E+03    0.19775E-03   -0.75851E-04 54304   0.125E-01    0.149E-01
DAV:   5    -0.235679573403E+03    0.75779E-04   -0.31557E-04 48800   0.792E-02    0.623E-02
DAV:   6    -0.235679579206E+03   -0.58035E-05   -0.93738E-05 48840   0.405E-02
  44 F= -.23567958E+03 E0= -.23567958E+03  d E =0.507498E-02  mag=     8.0000
       N       E                     dE             d eps       ncg     rms          rms(c)
DAV:   1    -0.235023607408E+03    0.65597E+00   -0.22448E+02 42088   0.455E+01    0.373E+00
DAV:   2    -0.235667380663E+03   -0.64377E+00   -0.67324E+00 45320   0.755E+00    0.190E+00
DAV:   3    -0.235656131103E+03    0.11250E-01   -0.13127E-01 49880   0.133E+00    0.118E+00
DAV:   4    -0.235648427810E+03    0.77033E-02   -0.24223E-02 50224   0.627E-01    0.943E-01
DAV:   5    -0.235645296936E+03    0.31309E-02   -0.92412E-03 50416   0.434E-01    0.509E-01
DAV:   6    -0.235645173492E+03    0.12344E-03   -0.43020E-03 48536   0.279E-01    0.237E-01
DAV:   7    -0.235645304215E+03   -0.13072E-03   -0.96787E-04 49688   0.132E-01    0.892E-02
DAV:   8    -0.235645306435E+03   -0.22197E-05   -0.91365E-05 48472   0.457E-02
  45 F= -.23564531E+03 E0= -.23564527E+03  d E =0.342728E-01  mag=     8.0005
       N       E                     dE             d eps       ncg     rms          rms(c)
DAV:   1    -0.235616905425E+03    0.28399E-01   -0.60288E+00 43376   0.102E+01    0.199E+00
DAV:   2    -0.235653881716E+03   -0.36976E-01   -0.39507E-01 48568   0.196E+00    0.932E-01
DAV:   3    -0.235653227221E+03    0.65449E-03   -0.16581E-02 50480   0.565E-01    0.601E-01
DAV:   4    -0.235652763398E+03    0.46382E-03   -0.28218E-03 54408   0.276E-01    0.354E-01
DAV:   5    -0.235652587523E+03    0.17587E-03   -0.75915E-04 50360   0.128E-01    0.121E-01
DAV:   6    -0.235652591651E+03   -0.41281E-05   -0.19989E-04 50904   0.598E-02    0.653E-02
DAV:   7    -0.235652588150E+03    0.35018E-05   -0.52841E-05 46192   0.285E-02
  46 F= -.23565259E+03 E0= -.23565258E+03  d E =-.728171E-02  mag=     8.0000
       N       E                     dE             d eps       ncg     rms          rms(c)
DAV:   1    -0.235538080617E+03    0.11451E+00   -0.50960E+01 43744   0.221E+01    0.179E+00
DAV:   2    -0.235677192077E+03   -0.13911E+00   -0.14595E+00 46176   0.355E+00    0.102E+00
DAV:   3    -0.235675117363E+03    0.20747E-02   -0.32005E-02 50360   0.689E-01    0.699E-01
DAV:   4    -0.235673406715E+03    0.17106E-02   -0.54438E-03 52904   0.333E-01    0.526E-01
DAV:   5    -0.235672508831E+03    0.89788E-03   -0.29618E-03 48128   0.234E-01    0.210E-01
DAV:   6    -0.235672586652E+03   -0.77821E-04   -0.11331E-03 48416   0.138E-01    0.129E-01
DAV:   7    -0.235672597619E+03   -0.10967E-04   -0.25169E-04 51280   0.718E-02    0.600E-02
DAV:   8    -0.235672596626E+03    0.99281E-06   -0.24964E-05 35216   0.233E-02
  47 F= -.23567260E+03 E0= -.23567259E+03  d E =-.200085E-01  mag=     8.0000
       N       E                     dE             d eps       ncg     rms          rms(c)
DAV:   1    -0.235669433690E+03    0.31639E-02   -0.52285E-01 42840   0.276E+00    0.365E-01
DAV:   2    -0.235671843083E+03   -0.24094E-02   -0.25108E-02 47432   0.501E-01    0.221E-01
DAV:   3    -0.235671851394E+03   -0.83113E-05   -0.10621E-03 51528   0.147E-01    0.156E-01
DAV:   4    -0.235671820324E+03    0.31071E-04   -0.18504E-04 54760   0.672E-02    0.991E-02
DAV:   5    -0.235671810060E+03    0.10264E-04   -0.75662E-05 45920   0.384E-02    0.427E-02
DAV:   6    -0.235671812526E+03   -0.24665E-05   -0.16082E-05 32136   0.197E-02
  48 F= -.23567181E+03 E0= -.23567181E+03  d E =0.784100E-03  mag=     8.0000
       N       E                     dE             d eps       ncg     rms          rms(c)
DAV:   1    -0.235670816015E+03    0.99405E-03   -0.19599E-01 42736   0.142E+00    0.185E-01
DAV:   2    -0.235671399726E+03   -0.58371E-03   -0.61400E-03 47472   0.236E-01    0.854E-02
DAV:   3    -0.235671387937E+03    0.11789E-04   -0.18534E-04 50896   0.613E-02    0.630E-02
DAV:   4    -0.235671380040E+03    0.78968E-05   -0.29894E-05 38616   0.293E-02
  49 F= -.23567138E+03 E0= -.23567138E+03  d E =0.432486E-03  mag=     8.0000
       N       E                     dE             d eps       ncg     rms          rms(c)
DAV:   1    -0.235668322239E+03    0.30657E-02   -0.70351E-01 42336   0.271E+00    0.208E-01
DAV:   2    -0.235670299358E+03   -0.19771E-02   -0.20573E-02 44920   0.434E-01    0.125E-01
DAV:   3    -0.235670281665E+03    0.17694E-04   -0.50766E-04 51016   0.910E-02    0.881E-02
DAV:   4    -0.235670257593E+03    0.24072E-04   -0.90839E-05 50632   0.444E-02    0.591E-02
DAV:   5    -0.235670246056E+03    0.11537E-04   -0.54833E-05 43336   0.320E-02    0.183E-02
DAV:   6    -0.235670246951E+03   -0.89539E-06   -0.13150E-05 26912   0.137E-02
  50 F= -.23567025E+03 E0= -.23567024E+03  d E =0.113309E-02  mag=     8.0000
