 vasp.6.1.2 22Jul20 (build Dec 05 2020 14:50:36) complex                        
  
 executed on         CrayXC-Intel date 2021.06.14  02:55:08
 running on   24 total cores
 distrk:  each k-point on   24 cores,    1 groups
 distr:  one band on NCORE=   4 cores,    6 groups


--------------------------------------------------------------------------------------------------------


 INCAR:
 POTCAR:    PAW_PBE Ca_sv 06Sep2000               
 POTCAR:    PAW_PBE V_pv 07Sep2000                
 POTCAR:    PAW_PBE O 08Apr2002                   
 POTCAR:    PAW_PBE Ca_sv 06Sep2000               
   VRHFIN =Ca: 3s3p4s                                                                               
   LEXCH  = PE                                                                                      
   EATOM  =  1006.0909 eV,   73.9456 Ry                                                             
                                                                                                    
   TITEL  = PAW_PBE Ca_sv 06Sep2000                                                                 
   LULTRA =        F    use ultrasoft PP ?                                                          
   IUNSCR =        1    unscreen: 0-lin 1-nonlin 2-no                                               
   RPACOR =    2.000    partial core radius                                                         
   POMASS =   40.078; ZVAL   =   10.000    mass and valenz                                          
   RCORE  =    2.300    outmost cutoff radius                                                       
   RWIGS  =    2.500; RWIGS  =    1.323    wigner-seitz radius (au A)                               
   ENMAX  =  266.622; ENMIN  =  199.967 eV                                                          
   RCLOC  =    1.808    cutoff for local pot                                                        
   LCOR   =        T    correct aug charges                                                         
   LPAW   =        T    paw PP                                                                      
   EAUG   =  420.852                                                                                
   RMAX   =    2.359    core radius for proj-oper                                                   
   RAUG   =    1.300    factor for augmentation sphere                                              
   RDEP   =    2.392    radius for radial grids                                                     
   RDEPT  =    1.987    core radius for aug-charge                                                  
                                                                                                    
   Atomic configuration                                                                             
    7 entries                                                                                       
     n  l   j            E        occ.                                                              
     1  0  0.50     -3949.1705   2.0000                                                             
     2  0  0.50      -414.3434   2.0000                                                             
     2  1  1.50      -334.7047   6.0000                                                             
     3  0  0.50       -47.0896   2.0000                                                             
     4  0  0.50        -3.7663   2.0000                                                             
     3  1  1.50       -28.0061   6.0000                                                             
     3  2  1.50        -4.0817   0.0000                                                             
   Description                                                                                      
     l       E           TYP  RCUT    TYP  RCUT                                                     
     0    -47.0896403     23  2.300                                                                 
     0     -3.7663320     23  2.300                                                                 
     1    -28.0060855     23  2.300                                                                 
     1      6.8029130     23  2.300                                                                 
     2     -4.0817478     23  2.300                                                                 
     2      0.4464412     23  2.300                                                                 
  local pseudopotential read in
  partial core-charges read in
  partial kinetic energy density read in
  atomic valenz-charges read in
  non local Contribution for L=           0  read in
    real space projection operators read in
  non local Contribution for L=           0  read in
    real space projection operators read in
  non local Contribution for L=           1  read in
    real space projection operators read in
  non local Contribution for L=           1  read in
    real space projection operators read in
  non local Contribution for L=           2  read in
    real space projection operators read in
  non local Contribution for L=           2  read in
    real space projection operators read in
    PAW grid and wavefunctions read in
 
   number of l-projection  operators is LMAX  =           6
   number of lm-projection operators is LMMAX =          18
 
 POTCAR:    PAW_PBE V_pv 07Sep2000                
   VRHFIN =V: p6 d4 s1                                                                              
   LEXCH  = PE                                                                                      
   EATOM  =  1321.6206 eV,   97.1364 Ry                                                             
                                                                                                    
   TITEL  = PAW_PBE V_pv 07Sep2000                                                                  
   LULTRA =        F    use ultrasoft PP ?                                                          
   IUNSCR =        1    unscreen: 0-lin 1-nonlin 2-no                                               
   RPACOR =    1.700    partial core radius                                                         
   POMASS =   50.941; ZVAL   =   11.000    mass and valenz                                          
   RCORE  =    2.300    outmost cutoff radius                                                       
   RWIGS  =    2.300; RWIGS  =    1.217    wigner-seitz radius (au A)                               
   ENMAX  =  263.673; ENMIN  =  197.755 eV                                                          
   RCLOC  =    1.779    cutoff for local pot                                                        
   LCOR   =        T    correct aug charges                                                         
   LPAW   =        T    paw PP                                                                      
   EAUG   =  598.473                                                                                
   DEXC   =    0.000                                                                                
   RMAX   =    2.359    core radius for proj-oper                                                   
   RAUG   =    1.300    factor for augmentation sphere                                              
   RDEP   =    2.430    radius for radial grids                                                     
   RDEPT  =    1.700    core radius for aug-charge                                                  
                                                                                                    
   Atomic configuration                                                                             
    8 entries                                                                                       
     n  l   j            E        occ.                                                              
     1  0  0.50     -5360.7193   2.0000                                                             
     2  0  0.50      -598.4546   2.0000                                                             
     2  1  1.50      -499.0155   6.0000                                                             
     3  0  0.50       -66.5711   2.0000                                                             
     3  1  1.50       -40.5282   6.0000                                                             
     3  2  2.50        -2.4291   4.0000                                                             
     4  0  0.50        -3.8743   1.0000                                                             
     4  3  2.50        -1.3606   0.0000                                                             
   Description                                                                                      
     l       E           TYP  RCUT    TYP  RCUT                                                     
     1    -40.5282431     23  2.000                                                                 
     1      5.4423304     23  2.000                                                                 
     2     -2.4290905     23  2.300                                                                 
     2     -1.0472488     23  2.300                                                                 
     0     -3.8742754     23  2.300                                                                 
     0     27.2116520     23  2.300                                                                 
  local pseudopotential read in
  partial core-charges read in
  partial kinetic energy density read in
  atomic valenz-charges read in
  non local Contribution for L=           1  read in
    real space projection operators read in
  non local Contribution for L=           1  read in
    real space projection operators read in
  non local Contribution for L=           2  read in
    real space projection operators read in
  non local Contribution for L=           2  read in
    real space projection operators read in
  non local Contribution for L=           0  read in
    real space projection operators read in
  non local Contribution for L=           0  read in
    real space projection operators read in
    PAW grid and wavefunctions read in
 
   number of l-projection  operators is LMAX  =           6
   number of lm-projection operators is LMMAX =          18
 
 POTCAR:    PAW_PBE O 08Apr2002                   
   VRHFIN =O: s2p4                                                                                  
   LEXCH  = PE                                                                                      
   EATOM  =   432.3788 eV,   31.7789 Ry                                                             
                                                                                                    
   TITEL  = PAW_PBE O 08Apr2002                                                                     
   LULTRA =        F    use ultrasoft PP ?                                                          
   IUNSCR =        1    unscreen: 0-lin 1-nonlin 2-no                                               
   RPACOR =    1.200    partial core radius                                                         
   POMASS =   16.000; ZVAL   =    6.000    mass and valenz                                          
   RCORE  =    1.520    outmost cutoff radius                                                       
   RWIGS  =    1.550; RWIGS  =    0.820    wigner-seitz radius (au A)                               
   ENMAX  =  400.000; ENMIN  =  300.000 eV                                                          
   ICORE  =        2    local potential                                                             
   LCOR   =        T    correct aug charges                                                         
   LPAW   =        T    paw PP                                                                      
   EAUG   =  605.392                                                                                
   DEXC   =    0.000                                                                                
   RMAX   =    1.553    core radius for proj-oper                                                   
   RAUG   =    1.300    factor for augmentation sphere                                              
   RDEP   =    1.550    radius for radial grids                                                     
   RDEPT  =    1.329    core radius for aug-charge                                                  
                                                                                                    
   Atomic configuration                                                                             
    4 entries                                                                                       
     n  l   j            E        occ.                                                              
     1  0  0.50      -514.6923   2.0000                                                             
     2  0  0.50       -23.9615   2.0000                                                             
     2  1  0.50        -9.0305   4.0000                                                             
     3  2  1.50        -9.5241   0.0000                                                             
   Description                                                                                      
     l       E           TYP  RCUT    TYP  RCUT                                                     
     0    -23.9615318     23  1.200                                                                 
     0     -9.5240782     23  1.200                                                                 
     1     -9.0304911     23  1.520                                                                 
     1      8.1634956     23  1.520                                                                 
     2     -9.5240782      7  1.500                                                                 
  local pseudopotential read in
  partial core-charges read in
  partial kinetic energy density read in
  kinetic energy density of atom read in
  atomic valenz-charges read in
  non local Contribution for L=           0  read in
    real space projection operators read in
  non local Contribution for L=           0  read in
    real space projection operators read in
  non local Contribution for L=           1  read in
    real space projection operators read in
  non local Contribution for L=           1  read in
    real space projection operators read in
    PAW grid and wavefunctions read in
 
   number of l-projection  operators is LMAX  =           4
   number of lm-projection operators is LMMAX =           8
 
 Optimization of the real space projectors (new method)

 maximal supplied QI-value         = 16.25
 optimisation between [QCUT,QGAM] = [ 11.54, 23.24] = [ 37.28,151.24] Ry 
 Optimized for a Real-space Cutoff    1.58 Angstroem

   l    n(q)    QCUT    max X(q) W(low)/X(q) W(high)/X(q)  e(spline) 
   0     11    11.539    11.817    0.25E-04    0.22E-05    0.26E-07
   0     11    11.539     8.461    0.39E-04    0.49E-05    0.55E-07
   1     11    11.539     3.957    0.21E-05    0.44E-05    0.32E-07
   1     11    11.539     4.314    0.56E-04    0.44E-04    0.19E-06
   2     10    11.539    14.565    0.25E-03    0.21E-04    0.75E-06
   2     10    11.539    14.552    0.23E-03    0.22E-04    0.72E-06
 Optimization of the real space projectors (new method)

 maximal supplied QI-value         = 16.25
 optimisation between [QCUT,QGAM] = [ 11.54, 23.24] = [ 37.28,151.24] Ry 
 Optimized for a Real-space Cutoff    1.53 Angstroem

   l    n(q)    QCUT    max X(q) W(low)/X(q) W(high)/X(q)  e(spline) 
   1     10    11.539     3.206    0.43E-05    0.46E-05    0.52E-07
   1     10    11.539     4.597    0.39E-04    0.25E-04    0.17E-06
   2     10    11.539    89.000    0.10E-03    0.13E-03    0.24E-06
   2     10    11.539    82.410    0.10E-03    0.13E-03    0.23E-06
   0     11    11.539    36.565    0.42E-04    0.19E-04    0.30E-06
   0     11    11.539    13.729    0.20E-04    0.13E-04    0.22E-06
 Optimization of the real space projectors (new method)

 maximal supplied QI-value         = 24.76
 optimisation between [QCUT,QGAM] = [ 11.64, 23.27] = [ 37.91,151.63] Ry 
 Optimized for a Real-space Cutoff    1.14 Angstroem

   l    n(q)    QCUT    max X(q) W(low)/X(q) W(high)/X(q)  e(spline) 
   0      8    11.635    20.381    0.10E-03    0.33E-03    0.24E-06
   0      8    11.635    15.268    0.11E-03    0.35E-03    0.26E-06
   1      7    11.635     5.964    0.24E-03    0.31E-03    0.30E-06
   1      7    11.635     5.382    0.22E-03    0.25E-03    0.26E-06
  PAW_PBE Ca_sv 06Sep2000               :
 energy of atom  1       EATOM=-1006.0909
 kinetic energy error for atom=    0.0022 (will be added to EATOM!!)
  PAW_PBE V_pv 07Sep2000                :
 energy of atom  2       EATOM=-1321.6206
 kinetic energy error for atom=    0.0054 (will be added to EATOM!!)
  PAW_PBE O 08Apr2002                   :
 energy of atom  3       EATOM= -432.3788
 kinetic energy error for atom=    0.0208 (will be added to EATOM!!)
 
 
 POSCAR: Ca4 V8 O16
  positions in direct lattice
  velocities in cartesian coordinates

 METAGGA = SCAN     LMAXTAU =  6    LMIXTAU =  F

 exchange correlation table for  LEXCH =        8
   RHO(1)=    0.500       N(1)  =     2000
   RHO(2)=  100.500       N(2)  =     4000
 


--------------------------------------------------------------------------------------------------------


 ion  position               nearest neighbor table
   1  0.254  0.846  0.239-  27 2.36  19 2.38  19 2.38  27 2.38  15 2.49  15 2.53  22 2.54  21 2.55
                             6 2.98   5 2.99
   2  0.753  0.654  0.261-  28 2.36  20 2.38  20 2.38  28 2.38  16 2.49  16 2.52  21 2.54  22 2.54
                             5 2.98   6 2.99
   3  0.747  0.154  0.758-  25 2.37  17 2.37  25 2.38  17 2.38  13 2.50  13 2.51  23 2.54  24 2.54
                             8 2.98   7 2.99
   4  0.247  0.346  0.741-  26 2.37  18 2.37  26 2.38  18 2.38  14 2.50  14 2.51  24 2.54  23 2.54
                             7 2.98   8 2.99
   5  0.932  0.887  0.238-  25 1.98  21 1.99  16 2.02  27 2.08  27 2.09  16 2.13   2 2.98   1 2.99

   6  0.432  0.613  0.263-  26 1.99  22 1.99  15 2.02  28 2.08  28 2.09  15 2.13   1 2.98   2 2.99

   7  0.068  0.112  0.755-  27 1.98  23 1.99  14 2.03  25 2.08  25 2.10  14 2.12   4 2.98   3 2.99

   8  0.568  0.388  0.745-  28 1.98  24 1.99  13 2.03  26 2.08  26 2.10  13 2.12   3 2.98   4 2.99

   9  0.921  0.395  0.255-  23 2.01  18 2.01  23 2.02  13 2.03  20 2.07  20 2.10
  10  0.421  0.105  0.245-  24 2.01  17 2.01  24 2.03  14 2.03  19 2.07  19 2.10
  11  0.079  0.605  0.745-  21 2.01  20 2.01  21 2.02  15 2.03  18 2.07  18 2.10
  12  0.579  0.895  0.755-  19 2.01  22 2.01  22 2.02  16 2.04  17 2.07  17 2.10
  13  0.710  0.338  0.263-   8 2.03   9 2.03   8 2.12   3 2.50   3 2.51
  14  0.210  0.162  0.237-   7 2.03  10 2.03   7 2.12   4 2.50   4 2.51
  15  0.290  0.663  0.741-   6 2.02  11 2.03   6 2.13   1 2.49   1 2.53
  16  0.790  0.837  0.759-   5 2.02  12 2.04   5 2.13   2 2.49   2 2.52
  17  0.619  0.024  0.255-  10 2.01  12 2.07  12 2.10   3 2.37   3 2.38
  18  0.118  0.476  0.245-   9 2.01  11 2.07  11 2.10   4 2.37   4 2.38
  19  0.382  0.977  0.745-  12 2.01  10 2.07  10 2.10   1 2.38   1 2.38
  20  0.881  0.523  0.755-  11 2.01   9 2.07   9 2.10   2 2.38   2 2.38
  21  0.020  0.717  0.252-   5 1.99  11 2.01  11 2.02   2 2.54   1 2.55
  22  0.520  0.783  0.248-   6 1.99  12 2.01  12 2.02   1 2.54   2 2.54
  23  0.979  0.282  0.747-   7 1.99   9 2.01   9 2.02   3 2.54   4 2.54
  24  0.479  0.218  0.753-   8 1.99  10 2.01  10 2.03   4 2.54   3 2.54
  25  0.920  0.073  0.257-   5 1.98   7 2.08   7 2.10   3 2.37   3 2.38
  26  0.420  0.427  0.243-   6 1.99   8 2.08   8 2.10   4 2.37   4 2.38
  27  0.080  0.926  0.737-   7 1.98   5 2.08   5 2.09   1 2.36   1 2.38
  28  0.580  0.574  0.763-   8 1.98   6 2.08   6 2.09   2 2.36   2 2.38
 

IMPORTANT INFORMATION: All symmetrisations will be switched off!
NOSYMM: (Re-)initialisation of all symmetry stuff for point group C_1.


----------------------------------------------------------------------------------------

                                     Primitive cell                                     

  volume of cell :     299.4072

  direct lattice vectors                    reciprocal lattice vectors
     9.181749402  0.000396613  0.000160374     0.108911707 -0.000001212 -0.000004787
     0.000116345 10.655379788 -0.050125328    -0.000004065  0.093852322  0.000641179
     0.000134289 -0.020908176  3.060425383    -0.000005774  0.001537165  0.326762464

  length of vectors
     9.181749412 10.655497688  3.060496805     0.108911707  0.093854513  0.326766080

  position of ions in fractional coordinates (direct lattice)
     0.253550978  0.846405338  0.239310556
     0.753471034  0.653638115  0.260677481
     0.746558398  0.153736088  0.758351119
     0.246520600  0.346240357  0.741352409
     0.931644161  0.887248666  0.238198846
     0.431530965  0.612804126  0.262545315
     0.068493281  0.112177231  0.755290274
     0.568462476  0.387744222  0.744574972
     0.921071251  0.395025861  0.254897902
     0.421070815  0.104929460  0.244576470
     0.079053238  0.604803871  0.744699824
     0.578991122  0.895274272  0.755413529
     0.709701498  0.337678420  0.262971183
     0.209719833  0.162337944  0.236737382
     0.290187339  0.662502430  0.741175904
     0.790232800  0.837487196  0.759476062
     0.618530015  0.023569196  0.255123576
     0.118491078  0.476466197  0.244791516
     0.381557798  0.976584817  0.744867822
     0.881489558  0.523437408  0.754774579
     0.020393160  0.717240554  0.251726332
     0.520390964  0.782675130  0.248225696
     0.979483302  0.282493148  0.747272400
     0.479488032  0.217571932  0.752586962
     0.920452240  0.073216955  0.257124465
     0.420374947  0.426748258  0.242906613
     0.079572037  0.926351858  0.737454869
     0.579517081  0.573610952  0.762895942

  ion indices of the primitive-cell ions
   primitive index   ion index
                 1           1
                 2           2
                 3           3
                 4           4
                 5           5
                 6           6
                 7           7
                 8           8
                 9           9
                10          10
                11          11
                12          12
                13          13
                14          14
                15          15
                16          16
                17          17
                18          18
                19          19
                20          20
                21          21
                22          22
                23          23
                24          24
                25          25
                26          26
                27          27
                28          28

----------------------------------------------------------------------------------------

 
 
 KPOINTS: K-points file                           

Automatic generation of k-mesh.
Space group operators:
 irot       det(A)        alpha          n_x          n_y          n_z        tau_x        tau_y        tau_z
    1     1.000000     0.000000     1.000000     0.000000     0.000000     0.000000     0.000000     0.000000
 
 Subroutine IBZKPT returns following result:
 ===========================================
 
 Found     67 irreducible k-points:
 
 Following reciprocal coordinates:
            Coordinates               Weight
  0.000000  0.000000  0.000000      1.000000
  0.250000  0.000000 -0.000000      2.000000
  0.500000  0.000000 -0.000000      1.000000
 -0.000000  0.333333  0.000000      2.000000
  0.250000  0.333333  0.000000      2.000000
  0.500000  0.333333 -0.000000      2.000000
 -0.250000  0.333333  0.000000      2.000000
  0.000000  0.000000  0.090909      2.000000
  0.250000 -0.000000  0.090909      2.000000
  0.500000  0.000000  0.090909      2.000000
 -0.250000  0.000000  0.090909      2.000000
 -0.000000  0.333333  0.090909      2.000000
  0.250000  0.333333  0.090909      2.000000
  0.500000  0.333333  0.090909      2.000000
 -0.250000  0.333333  0.090909      2.000000
  0.000000 -0.333333  0.090909      2.000000
  0.250000 -0.333333  0.090909      2.000000
  0.500000 -0.333333  0.090909      2.000000
 -0.250000 -0.333333  0.090909      2.000000
  0.000000  0.000000  0.181818      2.000000
  0.250000  0.000000  0.181818      2.000000
  0.500000 -0.000000  0.181818      2.000000
 -0.250000  0.000000  0.181818      2.000000
  0.000000  0.333333  0.181818      2.000000
  0.250000  0.333333  0.181818      2.000000
  0.500000  0.333333  0.181818      2.000000
 -0.250000  0.333333  0.181818      2.000000
  0.000000 -0.333333  0.181818      2.000000
  0.250000 -0.333333  0.181818      2.000000
  0.500000 -0.333333  0.181818      2.000000
 -0.250000 -0.333333  0.181818      2.000000
 -0.000000  0.000000  0.272727      2.000000
  0.250000  0.000000  0.272727      2.000000
  0.500000 -0.000000  0.272727      2.000000
 -0.250000 -0.000000  0.272727      2.000000
 -0.000000  0.333333  0.272727      2.000000
  0.250000  0.333333  0.272727      2.000000
  0.500000  0.333333  0.272727      2.000000
 -0.250000  0.333333  0.272727      2.000000
  0.000000 -0.333333  0.272727      2.000000
  0.250000 -0.333333  0.272727      2.000000
  0.500000 -0.333333  0.272727      2.000000
 -0.250000 -0.333333  0.272727      2.000000
  0.000000  0.000000  0.363636      2.000000
  0.250000  0.000000  0.363636      2.000000
  0.500000  0.000000  0.363636      2.000000
 -0.250000  0.000000  0.363636      2.000000
  0.000000  0.333333  0.363636      2.000000
  0.250000  0.333333  0.363636      2.000000
  0.500000  0.333333  0.363636      2.000000
 -0.250000  0.333333  0.363636      2.000000
  0.000000 -0.333333  0.363636      2.000000
  0.250000 -0.333333  0.363636      2.000000
  0.500000 -0.333333  0.363636      2.000000
 -0.250000 -0.333333  0.363636      2.000000
  0.000000 -0.000000  0.454545      2.000000
  0.250000  0.000000  0.454545      2.000000
  0.500000  0.000000  0.454545      2.000000
 -0.250000 -0.000000  0.454545      2.000000
 -0.000000  0.333333  0.454545      2.000000
  0.250000  0.333333  0.454545      2.000000
  0.500000  0.333333  0.454545      2.000000
 -0.250000  0.333333  0.454545      2.000000
  0.000000 -0.333333  0.454545      2.000000
  0.250000 -0.333333  0.454545      2.000000
  0.500000 -0.333333  0.454545      2.000000
 -0.250000 -0.333333  0.454545      2.000000
 
 Following cartesian coordinates:
            Coordinates               Weight
  0.000000  0.000000  0.000000      1.000000
  0.027228 -0.000000 -0.000001      2.000000
  0.054456 -0.000001 -0.000002      1.000000
 -0.000001  0.031284  0.000214      2.000000
  0.027227  0.031284  0.000213      2.000000
  0.054454  0.031284  0.000211      2.000000
 -0.027229  0.031284  0.000215      2.000000
 -0.000001  0.000140  0.029706      2.000000
  0.027227  0.000139  0.029704      2.000000
  0.054455  0.000139  0.029703      2.000000
 -0.027228  0.000140  0.029707      2.000000
 -0.000002  0.031424  0.029919      2.000000
  0.027226  0.031424  0.029918      2.000000
  0.054454  0.031423  0.029917      2.000000
 -0.027230  0.031424  0.029921      2.000000
  0.000001 -0.031144  0.029492      2.000000
  0.027229 -0.031145  0.029491      2.000000
  0.054457 -0.031145  0.029490      2.000000
 -0.027227 -0.031144  0.029493      2.000000
 -0.000001  0.000279  0.059411      2.000000
  0.027227  0.000279  0.059410      2.000000
  0.054455  0.000279  0.059409      2.000000
 -0.027229  0.000280  0.059413      2.000000
 -0.000002  0.031564  0.059625      2.000000
  0.027226  0.031563  0.059624      2.000000
  0.054453  0.031563  0.059623      2.000000
 -0.027230  0.031564  0.059626      2.000000
  0.000000 -0.031005  0.059198      2.000000
  0.027228 -0.031005  0.059196      2.000000
  0.054456 -0.031005  0.059195      2.000000
 -0.027228 -0.031004  0.059199      2.000000
 -0.000002  0.000419  0.089117      2.000000
  0.027226  0.000419  0.089116      2.000000
  0.054454  0.000419  0.089115      2.000000
 -0.027230  0.000420  0.089118      2.000000
 -0.000003  0.031703  0.089331      2.000000
  0.027225  0.031703  0.089330      2.000000
  0.054453  0.031703  0.089328      2.000000
 -0.027231  0.031704  0.089332      2.000000
 -0.000000 -0.030865  0.088903      2.000000
  0.027228 -0.030865  0.088902      2.000000
  0.054456 -0.030865  0.088901      2.000000
 -0.027228 -0.030865  0.088905      2.000000
 -0.000002  0.000559  0.118823      2.000000
  0.027226  0.000559  0.118822      2.000000
  0.054454  0.000558  0.118820      2.000000
 -0.027230  0.000559  0.118824      2.000000
 -0.000003  0.031843  0.119036      2.000000
  0.027224  0.031843  0.119035      2.000000
  0.054452  0.031842  0.119034      2.000000
 -0.027231  0.031843  0.119038      2.000000
 -0.000001 -0.030725  0.118609      2.000000
  0.027227 -0.030725  0.118608      2.000000
  0.054455 -0.030726  0.118607      2.000000
 -0.027229 -0.030725  0.118610      2.000000
 -0.000003  0.000699  0.148528      2.000000
  0.027225  0.000698  0.148527      2.000000
  0.054453  0.000698  0.148526      2.000000
 -0.027231  0.000699  0.148530      2.000000
 -0.000004  0.031983  0.148742      2.000000
  0.027224  0.031983  0.148741      2.000000
  0.054452  0.031982  0.148740      2.000000
 -0.027232  0.031983  0.148743      2.000000
 -0.000001 -0.030585  0.148315      2.000000
  0.027227 -0.030586  0.148313      2.000000
  0.054455 -0.030586  0.148312      2.000000
 -0.027229 -0.030585  0.148316      2.000000
 


--------------------------------------------------------------------------------------------------------




 Dimension of arrays:
   k-points           NKPTS =     67   k-points in BZ     NKDIM =     67   number of bands    NBANDS=    144
   number of dos      NEDOS =    301   number of ions     NIONS =     28
   non local maximal  LDIM  =      6   non local SUM 2l+1 LMDIM =     18
   total plane-waves  NPLWV = 134400
   max r-space proj   IRMAX =   7464   max aug-charges    IRDMAX=  21614
   dimension x,y,z NGX =    70 NGY =   80 NGZ =   24
   dimension x,y,z NGXF=   140 NGYF=  160 NGZF=   48
   support grid    NGXF=   140 NGYF=  160 NGZF=   48
   ions per type =               4   8  16
   NGX,Y,Z   is equivalent  to a cutoff of  12.67, 12.48, 13.04 a.u.
   NGXF,Y,Z  is equivalent  to a cutoff of  25.35, 24.96, 26.07 a.u.

 SYSTEM =  unknown system                          
 POSCAR =  Ca4 V8 O16                              

 Startparameter for this run:
   NWRITE =      2    write-flag & timer
   PREC   = accura    normal or accurate (medium, high low for compatibility)
   ISTART =      0    job   : 0-new  1-cont  2-samecut
   ICHARG =      1    charge: 1-file 2-atom 10-const
   ISPIN  =      2    spin polarized calculation?
   LNONCOLLINEAR =      F non collinear calculations
   LSORBIT =      F    spin-orbit coupling
   INIWAV =      1    electr: 0-lowe 1-rand  2-diag
   LASPH  =      T    aspherical Exc in radial PAW
   METAGGA=      F    non-selfconsistent MetaGGA calc.

 Electronic Relaxation 1
   ENCUT  =  520.0 eV  38.22 Ry    6.18 a.u.  17.07 19.81  5.69*2*pi/ulx,y,z
   ENINI  =  520.0     initial cutoff
   ENAUG  =  605.4 eV  augmentation charge cutoff
   NELM   =    100;   NELMIN=  6; NELMDL= -5     # of ELM steps 
   EDIFF  = 0.1E-04   stopping-criterion for ELM
   LREAL  =      T    real-space projection
   NLSPLINE    = F    spline interpolate recip. space projectors
   LCOMPAT=      F    compatible to vasp.4.4
   GGA_COMPAT  = T    GGA compatible to vasp.4.4-vasp.4.6
   LMAXPAW     = -100 max onsite density
   LMAXMIX     =    4 max onsite mixed and CHGCAR
   VOSKOWN=      0    Vosko Wilk Nusair interpolation
   ROPT   =   -0.00025  -0.00025  -0.00025
 Ionic relaxation
   EDIFFG = -.3E-01   stopping-criterion for IOM
   NSW    =     99    number of steps for IOM
   NBLOCK =      1;   KBLOCK =     99    inner block; outer block 
   IBRION =      2    ionic relax: 0-MD 1-quasi-New 2-CG
   NFREE  =      1    steps in history (QN), initial steepest desc. (CG)
   ISIF   =      3    stress and relaxation
   IWAVPR =     11    prediction:  0-non 1-charg 2-wave 3-comb
   ISYM   =      0    0-nonsym 1-usesym 2-fastsym
   LCORR  =      T    Harris-Foulkes like correction to forces

   POTIM  = 0.5000    time-step for ionic-motion
   TEIN   =    0.0    initial temperature
   TEBEG  =    0.0;   TEEND  =   0.0 temperature during run
   SMASS  =  -3.00    Nose mass-parameter (am)
   estimated Nose-frequenzy (Omega)   =  0.10E-29 period in steps = 0.13E+47 mass=  -0.193E-26a.u.
   SCALEE = 1.0000    scale energy and forces
   NPACO  =    256;   APACO  = 16.0  distance and # of slots for P.C.
   PSTRESS=    0.0 pullay stress

  Mass of Ions in am
   POMASS =  40.08 50.94 16.00
  Ionic Valenz
   ZVAL   =  10.00 11.00  6.00
  Atomic Wigner-Seitz radii
   RWIGS  =  -1.00 -1.00 -1.00
  virtual crystal weights 
   VCA    =   1.00  1.00  1.00
   NELECT =     224.0000    total number of electrons
   NUPDOWN=      -1.0000    fix difference up-down

 DOS related values:
   EMIN   =  10.00;   EMAX   =-10.00  energy-range for DOS
   EFERMI =   0.00
   ISMEAR =     0;   SIGMA  =   0.05  broadening in eV -4-tet -1-fermi 0-gaus

 Electronic relaxation 2 (details)
   IALGO  =     38    algorithm
   LDIAG  =      T    sub-space diagonalisation (order eigenvalues)
   LSUBROT=      F    optimize rotation matrix (better conditioning)
   TURBO    =      0    0=normal 1=particle mesh
   IRESTART =      0    0=no restart 2=restart with 2 vectors
   NREBOOT  =      0    no. of reboots
   NMIN     =      0    reboot dimension
   EREF     =   0.00    reference energy to select bands
   IMIX   =      4    mixing-type and parameters
     AMIX     =   0.40;   BMIX     =  1.00
     AMIX_MAG =   1.60;   BMIX_MAG =  1.00
     AMIN     =   0.10
     WC   =   100.;   INIMIX=   1;  MIXPRE=   1;  MAXMIX= -45

 Intra band minimization:
   WEIMIN = 0.0010     energy-eigenvalue tresh-hold
   EBREAK =  0.17E-07  absolut break condition
   DEPER  =   0.30     relativ break condition  

   TIME   =   0.40     timestep for ELM

  volume/ion in A,a.u.               =      10.69        72.16
  Fermi-wavevector in a.u.,A,eV,Ry     =   1.486176  2.808464 30.051428  2.208718
  Thomas-Fermi vector in A             =   2.599495
 
 Write flags
   LWAVE        =      F    write WAVECAR
   LDOWNSAMPLE  =      F    k-point downsampling of WAVECAR
   LCHARG       =      T    write CHGCAR
   LVTOT        =      F    write LOCPOT, total local potential
   LVHAR        =      F    write LOCPOT, Hartree potential only
   LELF         =      F    write electronic localiz. function (ELF)
   LORBIT       =     11    0 simple, 1 ext, 2 COOP (PROOUT), +10 PAW based schemes


 Dipole corrections
   LMONO  =      F    monopole corrections only (constant potential shift)
   LDIPOL =      F    correct potential (dipole corrections)
   IDIPOL =      0    1-x, 2-y, 3-z, 4-all directions 
   EPSILON=  1.0000000 bulk dielectric constant

 LDA+U is selected, type is set to LDAUTYPE =  2
   angular momentum for each species LDAUL =    -1    2   -1
   U (eV)           for each species LDAUU =   0.0  1.0  0.0
   J (eV)           for each species LDAUJ =   0.0  0.0  0.0
 Exchange correlation treatment:
   GGA     =    --    GGA type
   LEXCH   =     8    internal setting for exchange type
   VOSKOWN=      0    Vosko Wilk Nusair interpolation
   LHFCALC =     F    Hartree Fock is set to
   LHFONE  =     F    Hartree Fock one center treatment
   AEXX    =    0.0000 exact exchange contribution

 Linear response parameters
   LEPSILON=     F    determine dielectric tensor
   LRPA    =     F    only Hartree local field effects (RPA)
   LNABLA  =     F    use nabla operator in PAW spheres
   LVEL    =     F    velocity operator in full k-point grid
   LINTERFAST=   F  fast interpolation
   KINTER  =     0    interpolate to denser k-point grid
   CSHIFT  =0.1000    complex shift for real part using Kramers Kronig
   OMEGAMAX=  -1.0    maximum frequency
   DEG_THRESHOLD= 0.2000000E-02 threshold for treating states as degnerate
   RTIME   =   -0.100 relaxation time in fs
  (WPLASMAI=    0.000 imaginary part of plasma frequency in eV, 0.658/RTIME)
   DFIELD  = 0.0000000 0.0000000 0.0000000 field for delta impulse in time
 
 Orbital magnetization related:
   ORBITALMAG=     F  switch on orbital magnetization
   LCHIMAG   =     F  perturbation theory with respect to B field
   DQ        =  0.001000  dq finite difference perturbation B field
   LLRAUG    =     F  two centre corrections for induced B field



--------------------------------------------------------------------------------------------------------


 conjugate gradient relaxation of ions
 charge density and potential will be updated during run
 spin polarized calculation
 Variant of blocked Davidson
 Davidson routine will perform the subspace rotation
 perform sub-space diagonalisation
    after iterative eigenvector-optimisation
 modified Broyden-mixing scheme, WC =      100.0
 initial mixing is a Kerker type mixing with AMIX =  0.4000 and BMIX =      1.0000
 Hartree-type preconditioning will be used
 using additional bands           32
 real space projection scheme for non local part
 use partial core corrections
 calculate Harris-corrections to forces 
   (improved forces if not selfconsistent)
 use gradient corrections 
 use of overlap-Matrix (Vanderbilt PP)
 Gauss-broadening in eV      SIGMA  =   0.05


--------------------------------------------------------------------------------------------------------


  energy-cutoff  :      520.00
  volume of cell :      299.41
      direct lattice vectors                 reciprocal lattice vectors
     9.181749402  0.000396613  0.000160374     0.108911707 -0.000001212 -0.000004787
     0.000116345 10.655379788 -0.050125328    -0.000004065  0.093852322  0.000641179
     0.000134289 -0.020908176  3.060425383    -0.000005774  0.001537165  0.326762464

  length of vectors
     9.181749412 10.655497688  3.060496805     0.108911707  0.093854513  0.326766080


 
 k-points in units of 2pi/SCALE and weight: K-points file                           
   0.00000000  0.00000000  0.00000000       0.008
   0.02722793 -0.00000030 -0.00000120       0.015
   0.05445585 -0.00000061 -0.00000239       0.008
  -0.00000136  0.03128411  0.00021373       0.015
   0.02722657  0.03128380  0.00021253       0.015
   0.05445450  0.03128350  0.00021133       0.015
  -0.02722928  0.03128441  0.00021492       0.015
  -0.00000052  0.00013974  0.02970568       0.015
   0.02722740  0.00013944  0.02970448       0.015
   0.05445533  0.00013914  0.02970328       0.015
  -0.02722845  0.00014005  0.02970688       0.015
  -0.00000188  0.03142385  0.02991941       0.015
   0.02722605  0.03142355  0.02991821       0.015
   0.05445397  0.03142324  0.02991701       0.015
  -0.02722981  0.03142415  0.02992060       0.015
   0.00000083 -0.03114437  0.02949195       0.015
   0.02722876 -0.03114467  0.02949076       0.015
   0.05445668 -0.03114497  0.02948956       0.015
  -0.02722710 -0.03114406  0.02949315       0.015
  -0.00000105  0.00027948  0.05941136       0.015
   0.02722688  0.00027918  0.05941016       0.015
   0.05445480  0.00027888  0.05940896       0.015
  -0.02722898  0.00027979  0.05941255       0.015
  -0.00000240  0.03156359  0.05962508       0.015
   0.02722552  0.03156329  0.05962389       0.015
   0.05445345  0.03156299  0.05962269       0.015
  -0.02723033  0.03156389  0.05962628       0.015
   0.00000031 -0.03100462  0.05919763       0.015
   0.02722823 -0.03100493  0.05919643       0.015
   0.05445616 -0.03100523  0.05919524       0.015
  -0.02722762 -0.03100432  0.05919883       0.015
  -0.00000157  0.00041923  0.08911704       0.015
   0.02722635  0.00041892  0.08911584       0.015
   0.05445428  0.00041862  0.08911464       0.015
  -0.02722950  0.00041953  0.08911823       0.015
  -0.00000293  0.03170333  0.08933076       0.015
   0.02722500  0.03170303  0.08932957       0.015
   0.05445292  0.03170273  0.08932837       0.015
  -0.02723086  0.03170364  0.08933196       0.015
  -0.00000022 -0.03086488  0.08890331       0.015
   0.02722771 -0.03086518  0.08890211       0.015
   0.05445563 -0.03086549  0.08890092       0.015
  -0.02722815 -0.03086458  0.08890451       0.015
  -0.00000210  0.00055897  0.11882271       0.015
   0.02722583  0.00055867  0.11882152       0.015
   0.05445375  0.00055836  0.11882032       0.015
  -0.02723003  0.00055927  0.11882391       0.015
  -0.00000345  0.03184308  0.11903644       0.015
   0.02722447  0.03184277  0.11903524       0.015
   0.05445240  0.03184247  0.11903405       0.015
  -0.02723138  0.03184338  0.11903764       0.015
  -0.00000074 -0.03072514  0.11860899       0.015
   0.02722718 -0.03072544  0.11860779       0.015
   0.05445511 -0.03072574  0.11860659       0.015
  -0.02722867 -0.03072484  0.11861018       0.015
  -0.00000262  0.00069871  0.14852839       0.015
   0.02722530  0.00069841  0.14852720       0.015
   0.05445323  0.00069811  0.14852600       0.015
  -0.02723055  0.00069901  0.14852959       0.015
  -0.00000398  0.03198282  0.14874212       0.015
   0.02722395  0.03198252  0.14874092       0.015
   0.05445187  0.03198221  0.14873973       0.015
  -0.02723191  0.03198312  0.14874332       0.015
  -0.00000127 -0.03058540  0.14831467       0.015
   0.02722666 -0.03058570  0.14831347       0.015
   0.05445458 -0.03058600  0.14831227       0.015
  -0.02722920 -0.03058509  0.14831586       0.015
 
 k-points in reciprocal lattice and weights: K-points file                           
   0.00000000  0.00000000  0.00000000       0.008
   0.25000000  0.00000000 -0.00000000       0.015
   0.50000000  0.00000000 -0.00000000       0.008
  -0.00000000  0.33333333  0.00000000       0.015
   0.25000000  0.33333333  0.00000000       0.015
   0.50000000  0.33333333 -0.00000000       0.015
  -0.25000000  0.33333333  0.00000000       0.015
   0.00000000  0.00000000  0.09090909       0.015
   0.25000000 -0.00000000  0.09090909       0.015
   0.50000000  0.00000000  0.09090909       0.015
  -0.25000000  0.00000000  0.09090909       0.015
  -0.00000000  0.33333333  0.09090909       0.015
   0.25000000  0.33333333  0.09090909       0.015
   0.50000000  0.33333333  0.09090909       0.015
  -0.25000000  0.33333333  0.09090909       0.015
   0.00000000 -0.33333333  0.09090909       0.015
   0.25000000 -0.33333333  0.09090909       0.015
   0.50000000 -0.33333333  0.09090909       0.015
  -0.25000000 -0.33333333  0.09090909       0.015
   0.00000000  0.00000000  0.18181818       0.015
   0.25000000  0.00000000  0.18181818       0.015
   0.50000000 -0.00000000  0.18181818       0.015
  -0.25000000  0.00000000  0.18181818       0.015
   0.00000000  0.33333333  0.18181818       0.015
   0.25000000  0.33333333  0.18181818       0.015
   0.50000000  0.33333333  0.18181818       0.015
  -0.25000000  0.33333333  0.18181818       0.015
   0.00000000 -0.33333333  0.18181818       0.015
   0.25000000 -0.33333333  0.18181818       0.015
   0.50000000 -0.33333333  0.18181818       0.015
  -0.25000000 -0.33333333  0.18181818       0.015
  -0.00000000  0.00000000  0.27272727       0.015
   0.25000000  0.00000000  0.27272727       0.015
   0.50000000 -0.00000000  0.27272727       0.015
  -0.25000000 -0.00000000  0.27272727       0.015
  -0.00000000  0.33333333  0.27272727       0.015
   0.25000000  0.33333333  0.27272727       0.015
   0.50000000  0.33333333  0.27272727       0.015
  -0.25000000  0.33333333  0.27272727       0.015
   0.00000000 -0.33333333  0.27272727       0.015
   0.25000000 -0.33333333  0.27272727       0.015
   0.50000000 -0.33333333  0.27272727       0.015
  -0.25000000 -0.33333333  0.27272727       0.015
   0.00000000  0.00000000  0.36363636       0.015
   0.25000000  0.00000000  0.36363636       0.015
   0.50000000  0.00000000  0.36363636       0.015
  -0.25000000  0.00000000  0.36363636       0.015
   0.00000000  0.33333333  0.36363636       0.015
   0.25000000  0.33333333  0.36363636       0.015
   0.50000000  0.33333333  0.36363636       0.015
  -0.25000000  0.33333333  0.36363636       0.015
   0.00000000 -0.33333333  0.36363636       0.015
   0.25000000 -0.33333333  0.36363636       0.015
   0.50000000 -0.33333333  0.36363636       0.015
  -0.25000000 -0.33333333  0.36363636       0.015
   0.00000000 -0.00000000  0.45454545       0.015
   0.25000000  0.00000000  0.45454545       0.015
   0.50000000  0.00000000  0.45454545       0.015
  -0.25000000 -0.00000000  0.45454545       0.015
  -0.00000000  0.33333333  0.45454545       0.015
   0.25000000  0.33333333  0.45454545       0.015
   0.50000000  0.33333333  0.45454545       0.015
  -0.25000000  0.33333333  0.45454545       0.015
   0.00000000 -0.33333333  0.45454545       0.015
   0.25000000 -0.33333333  0.45454545       0.015
   0.50000000 -0.33333333  0.45454545       0.015
  -0.25000000 -0.33333333  0.45454545       0.015
 
 position of ions in fractional coordinates (direct lattice) 
   0.25355098  0.84640534  0.23931056
   0.75347103  0.65363811  0.26067748
   0.74655840  0.15373609  0.75835112
   0.24652060  0.34624036  0.74135241
   0.93164416  0.88724867  0.23819885
   0.43153096  0.61280413  0.26254532
   0.06849328  0.11217723  0.75529027
   0.56846248  0.38774422  0.74457497
   0.92107125  0.39502586  0.25489790
   0.42107081  0.10492946  0.24457647
   0.07905324  0.60480387  0.74469982
   0.57899112  0.89527427  0.75541353
   0.70970150  0.33767842  0.26297118
   0.20971983  0.16233794  0.23673738
   0.29018734  0.66250243  0.74117590
   0.79023280  0.83748720  0.75947606
   0.61853001  0.02356920  0.25512358
   0.11849108  0.47646620  0.24479152
   0.38155780  0.97658482  0.74486782
   0.88148956  0.52343741  0.75477458
   0.02039316  0.71724055  0.25172633
   0.52039096  0.78267513  0.24822570
   0.97948330  0.28249315  0.74727240
   0.47948803  0.21757193  0.75258696
   0.92045224  0.07321695  0.25712447
   0.42037495  0.42674826  0.24290661
   0.07957204  0.92635186  0.73745487
   0.57951708  0.57361095  0.76289594
 
 position of ions in cartesian coordinates  (Angst):
   2.32817215  9.01386734  0.69000642
   6.91829327  6.95961090  0.76514099
   6.85483185  1.62255676  2.31329067
   2.26363021  3.67391995  2.25153785
   8.55425844  9.44936070  0.68466558
   3.96231573  6.52434251  0.77285255
   0.62900262  1.17952642  2.30589759
   5.21962510  4.11621970  2.25937150
   8.45712560  4.20418644  0.76044293
   3.86621175  1.11311660  0.74331594
   0.72601739  6.42887598  2.24879493
   5.31635699  9.52392270  2.26710368
   6.51637590  3.59287504  0.78799126
   1.92564563  1.72490588  0.71641348
   2.66460404  7.04383346  2.23515194
   7.25591897  8.90817830  2.28246723
   5.67922459  0.24604988  0.77970445
   1.08804370  5.07185714  0.72530215
   3.50358173 10.39045962  2.23072195
   8.09377848  5.56199303  2.28383518
   0.18736213  7.63721545  0.73444101
   4.77822381  8.33471721  0.72052783
   8.99350344  2.99483616  2.27296844
   4.40266533  2.30276651  2.29240728
   8.45140485  0.77514352  0.78338783
   3.85985969  4.54225275  0.72207408
   0.73081731  9.85524358  2.21050467
   5.32114979  6.09632163  2.30612661
 


--------------------------------------------------------------------------------------------------------


 k-point   1 :   0.0000 0.0000 0.0000  plane waves:    8077
 k-point   2 :   0.2500 0.0000-0.0000  plane waves:    8080
 k-point   3 :   0.5000 0.0000-0.0000  plane waves:    8070
 k-point   4 :  -0.0000 0.3333 0.0000  plane waves:    8071
 k-point   5 :   0.2500 0.3333 0.0000  plane waves:    8075
 k-point   6 :   0.5000 0.3333-0.0000  plane waves:    8085
 k-point   7 :  -0.2500 0.3333 0.0000  plane waves:    8074
 k-point   8 :   0.0000 0.0000 0.0909  plane waves:    8063
 k-point   9 :   0.2500-0.0000 0.0909  plane waves:    8083
 k-point  10 :   0.5000 0.0000 0.0909  plane waves:    8086
 k-point  11 :  -0.2500 0.0000 0.0909  plane waves:    8083
 k-point  12 :  -0.0000 0.3333 0.0909  plane waves:    8080
 k-point  13 :   0.2500 0.3333 0.0909  plane waves:    8081
 k-point  14 :   0.5000 0.3333 0.0909  plane waves:    8078
 k-point  15 :  -0.2500 0.3333 0.0909  plane waves:    8080
 k-point  16 :   0.0000-0.3333 0.0909  plane waves:    8080
 k-point  17 :   0.2500-0.3333 0.0909  plane waves:    8068
 k-point  18 :   0.5000-0.3333 0.0909  plane waves:    8090
 k-point  19 :  -0.2500-0.3333 0.0909  plane waves:    8069
 k-point  20 :   0.0000 0.0000 0.1818  plane waves:    8067
 k-point  21 :   0.2500 0.0000 0.1818  plane waves:    8063
 k-point  22 :   0.5000-0.0000 0.1818  plane waves:    8096
 k-point  23 :  -0.2500 0.0000 0.1818  plane waves:    8063
 k-point  24 :   0.0000 0.3333 0.1818  plane waves:    8047
 k-point  25 :   0.2500 0.3333 0.1818  plane waves:    8052
 k-point  26 :   0.5000 0.3333 0.1818  plane waves:    8070
 k-point  27 :  -0.2500 0.3333 0.1818  plane waves:    8052
 k-point  28 :   0.0000-0.3333 0.1818  plane waves:    8065
 k-point  29 :   0.2500-0.3333 0.1818  plane waves:    8079
 k-point  30 :   0.5000-0.3333 0.1818  plane waves:    8064
 k-point  31 :  -0.2500-0.3333 0.1818  plane waves:    8079
 k-point  32 :  -0.0000 0.0000 0.2727  plane waves:    8048
 k-point  33 :   0.2500 0.0000 0.2727  plane waves:    8050
 k-point  34 :   0.5000-0.0000 0.2727  plane waves:    8072
 k-point  35 :  -0.2500-0.0000 0.2727  plane waves:    8049
 k-point  36 :  -0.0000 0.3333 0.2727  plane waves:    8040
 k-point  37 :   0.2500 0.3333 0.2727  plane waves:    8050
 k-point  38 :   0.5000 0.3333 0.2727  plane waves:    8044
 k-point  39 :  -0.2500 0.3333 0.2727  plane waves:    8051
 k-point  40 :   0.0000-0.3333 0.2727  plane waves:    8048
 k-point  41 :   0.2500-0.3333 0.2727  plane waves:    8053
 k-point  42 :   0.5000-0.3333 0.2727  plane waves:    8054
 k-point  43 :  -0.2500-0.3333 0.2727  plane waves:    8053
 k-point  44 :   0.0000 0.0000 0.3636  plane waves:    8032
 k-point  45 :   0.2500 0.0000 0.3636  plane waves:    8051
 k-point  46 :   0.5000 0.0000 0.3636  plane waves:    8056
 k-point  47 :  -0.2500 0.0000 0.3636  plane waves:    8052
 k-point  48 :   0.0000 0.3333 0.3636  plane waves:    8051
 k-point  49 :   0.2500 0.3333 0.3636  plane waves:    8052
 k-point  50 :   0.5000 0.3333 0.3636  plane waves:    8062
 k-point  51 :  -0.2500 0.3333 0.3636  plane waves:    8053
 k-point  52 :   0.0000-0.3333 0.3636  plane waves:    8052
 k-point  53 :   0.2500-0.3333 0.3636  plane waves:    8046
 k-point  54 :   0.5000-0.3333 0.3636  plane waves:    8058
 k-point  55 :  -0.2500-0.3333 0.3636  plane waves:    8046
 k-point  56 :   0.0000-0.0000 0.4545  plane waves:    8049
 k-point  57 :   0.2500 0.0000 0.4545  plane waves:    8053
 k-point  58 :   0.5000 0.0000 0.4545  plane waves:    8045
 k-point  59 :  -0.2500-0.0000 0.4545  plane waves:    8055
 k-point  60 :  -0.0000 0.3333 0.4545  plane waves:    8059
 k-point  61 :   0.2500 0.3333 0.4545  plane waves:    8071
 k-point  62 :   0.5000 0.3333 0.4545  plane waves:    8060
 k-point  63 :  -0.2500 0.3333 0.4545  plane waves:    8071
 k-point  64 :   0.0000-0.3333 0.4545  plane waves:    8065
 k-point  65 :   0.2500-0.3333 0.4545  plane waves:    8067
 k-point  66 :   0.5000-0.3333 0.4545  plane waves:    8058
 k-point  67 :  -0.2500-0.3333 0.4545  plane waves:    8068

 maximum and minimum number of plane-waves per node :      2072     1955

 maximum number of plane-waves:      8096
 maximum index in each direction: 
   IXMAX=   17   IYMAX=   20   IZMAX=    5
   IXMIN=  -17   IYMIN=  -20   IZMIN=   -6


 real space projection operators:
  total allocation   :      14146.27 KBytes
  max/ min on nodes  :       3656.97       3416.73


 parallel 3D FFT for wavefunctions:
    minimum data exchange during FFTs selected (reduces bandwidth)
 parallel 3D FFT for charge:
    minimum data exchange during FFTs selected (reduces bandwidth)


 total amount of memory used by VASP MPI-rank0   160160. kBytes
=======================================================================

   base      :      30000. kBytes
   nonlr-proj:       8037. kBytes
   fftplans  :       2631. kBytes
   grid      :       9983. kBytes
   one-center:        217. kBytes
   wavefun   :     109292. kBytes
 
     INWAV:  cpu time    0.0000: real time    0.0000
 Broyden mixing: mesh for mixing (old mesh)
   NGX = 35   NGY = 39   NGZ = 11
  (NGX  =140   NGY  =160   NGZ  = 48)
  gives a total of  15015 points

 initial charge density was supplied:
 number of electron     223.9999976 magnetization      15.9999976
 keeping initial charge density in first step


--------------------------------------------------------------------------------------------------------


 Maximum index for non-local projection operator         1861
 Maximum index for augmentation-charges          916 (set IRDMAX)


--------------------------------------------------------------------------------------------------------


 First call to EWALD:  gamma=   0.265
 Maximum number of real-space cells 2x 2x 5
 Maximum number of reciprocal cells 4x 4x 2

    FEWALD:  cpu time    0.0021: real time    0.0021


--------------------------------------- Iteration      1(   1)  ---------------------------------------


    POTLOK:  cpu time    0.1109: real time    0.1142
    SETDIJ:  cpu time    1.7638: real time    1.7638
atom =   5  type =  2  l = 2
 
 onsite density matrix
 
spin component  1
 
  0.3689 -0.2507 -0.1863  0.0917  0.0907
 -0.2507  0.6786  0.0032 -0.1706  0.1694
 -0.1863  0.0032  0.6643  0.0347 -0.2586
  0.0917 -0.1706  0.0347  0.2588 -0.0515
  0.0907  0.1694 -0.2586 -0.0515  0.4262
 
spin component  2
 
  0.0879  0.0088  0.0324  0.0034  0.0348
  0.0088  0.0608  0.0005  0.0371 -0.0022
  0.0324  0.0005  0.0864  0.0033  0.0618
  0.0034  0.0371  0.0033  0.1509  0.0102
  0.0348 -0.0022  0.0618  0.0102  0.1309
 
 occupancies and eigenvectors
 
  o =  0.0413  v =  0.0000  0.0000  0.0000  0.0000  0.0000 -0.1507 -0.1833  0.8159  0.0904 -0.5194      0.0000  0.0000  0.0000  0.0000  0.0000  0.0000  0.0000  0.0000  0.0000  0.0000
  o =  0.0444  v =  0.0000  0.0000  0.0000  0.0000  0.0000 -0.3421  0.8659  0.1985 -0.3017  0.0531      0.0000  0.0000  0.0000  0.0000  0.0000  0.0000  0.0000  0.0000  0.0000  0.0000
  o =  0.0718  v =  0.0000  0.0000  0.0000  0.0000  0.0000 -0.8363 -0.3187  0.0309  0.1288  0.4261      0.0000  0.0000  0.0000  0.0000  0.0000  0.0000  0.0000  0.0000  0.0000  0.0000
  o =  0.1331  v =  0.7383  0.4459  0.0292 -0.1405 -0.4852  0.0000  0.0000  0.0000  0.0000  0.0000      0.0000  0.0000  0.0000  0.0000  0.0000  0.0000  0.0000  0.0000  0.0000  0.0000
  o =  0.1609  v =  0.0000  0.0000  0.0000  0.0000  0.0000 -0.1035  0.3265 -0.1828  0.8958 -0.2164      0.0000  0.0000  0.0000  0.0000  0.0000  0.0000  0.0000  0.0000  0.0000  0.0000
  o =  0.1859  v =  0.1683 -0.3009  0.2636 -0.8666  0.2465  0.0000  0.0000  0.0000  0.0000  0.0000      0.0000  0.0000  0.0000  0.0000  0.0000  0.0000  0.0000  0.0000  0.0000  0.0000
  o =  0.1985  v =  0.0000  0.0000  0.0000  0.0000  0.0000 -0.3875 -0.0925 -0.5104 -0.2859 -0.7064      0.0000  0.0000  0.0000  0.0000  0.0000  0.0000  0.0000  0.0000  0.0000  0.0000
  o =  0.2602  v =  0.3864  0.1263  0.5467  0.3761  0.6281  0.0000  0.0000  0.0000  0.0000  0.0000      0.0000  0.0000  0.0000  0.0000  0.0000  0.0000  0.0000  0.0000  0.0000  0.0000
  o =  0.9076  v =  0.0950 -0.6580  0.4901  0.2527 -0.5040  0.0000  0.0000  0.0000  0.0000  0.0000      0.0000  0.0000  0.0000  0.0000  0.0000  0.0000  0.0000  0.0000  0.0000  0.0000
  o =  0.9101  v = -0.5179  0.5116  0.6250 -0.1550 -0.2354  0.0000  0.0000  0.0000  0.0000  0.0000      0.0000  0.0000  0.0000  0.0000  0.0000  0.0000  0.0000  0.0000  0.0000  0.0000
atom =   6  type =  2  l = 2
 
 onsite density matrix
 
spin component  1
 
  0.3706  0.2514  0.1870  0.0924 -0.0900
  0.2514  0.6766  0.0026  0.1703  0.1706
  0.1870  0.0026  0.6647 -0.0343 -0.2579
  0.0924  0.1703 -0.0343  0.2589  0.0516
 -0.0900  0.1706 -0.2579  0.0516  0.4259
 
spin component  2
 
  0.0880 -0.0089 -0.0324  0.0033 -0.0348
 -0.0089  0.0608  0.0005 -0.0371 -0.0023
 -0.0324  0.0005  0.0864 -0.0033  0.0617
  0.0033 -0.0371 -0.0033  0.1510 -0.0101
 -0.0348 -0.0023  0.0617 -0.0101  0.1308
 
 occupancies and eigenvectors
 
  o =  0.0413  v =  0.0000  0.0000  0.0000  0.0000  0.0000  0.1513 -0.1863  0.8154 -0.0912 -0.5189      0.0000  0.0000  0.0000  0.0000  0.0000  0.0000  0.0000  0.0000  0.0000  0.0000
  o =  0.0443  v =  0.0000  0.0000  0.0000  0.0000  0.0000 -0.3447 -0.8644 -0.2010 -0.3013 -0.0530      0.0000  0.0000  0.0000  0.0000  0.0000  0.0000  0.0000  0.0000  0.0000  0.0000
  o =  0.0719  v =  0.0000  0.0000  0.0000  0.0000  0.0000  0.8348 -0.3208  0.0294 -0.1293  0.4274      0.0000  0.0000  0.0000  0.0000  0.0000  0.0000  0.0000  0.0000  0.0000  0.0000
  o =  0.1329  v =  0.7367 -0.4482 -0.0307 -0.1417  0.4851  0.0000  0.0000  0.0000  0.0000  0.0000      0.0000  0.0000  0.0000  0.0000  0.0000  0.0000  0.0000  0.0000  0.0000  0.0000
  o =  0.1610  v =  0.0000  0.0000  0.0000  0.0000  0.0000  0.1039  0.3265 -0.1825 -0.8958 -0.2163      0.0000  0.0000  0.0000  0.0000  0.0000  0.0000  0.0000  0.0000  0.0000  0.0000
  o =  0.1859  v =  0.1688  0.3015 -0.2629 -0.8662 -0.2475  0.0000  0.0000  0.0000  0.0000  0.0000      0.0000  0.0000  0.0000  0.0000  0.0000  0.0000  0.0000  0.0000  0.0000  0.0000
  o =  0.1984  v =  0.0000  0.0000  0.0000  0.0000  0.0000 -0.3882  0.0925  0.5105 -0.2858  0.7061      0.0000  0.0000  0.0000  0.0000  0.0000  0.0000  0.0000  0.0000  0.0000  0.0000
  o =  0.2602  v = -0.3863  0.1264  0.5464 -0.3766  0.6281  0.0000  0.0000  0.0000  0.0000  0.0000      0.0000  0.0000  0.0000  0.0000  0.0000  0.0000  0.0000  0.0000  0.0000  0.0000
  o =  0.9076  v = -0.0997 -0.6611  0.4858 -0.2534 -0.5028  0.0000  0.0000  0.0000  0.0000  0.0000      0.0000  0.0000  0.0000  0.0000  0.0000  0.0000  0.0000  0.0000  0.0000  0.0000
  o =  0.9100  v =  0.5192  0.5051  0.6288  0.1539 -0.2371  0.0000  0.0000  0.0000  0.0000  0.0000      0.0000  0.0000  0.0000  0.0000  0.0000  0.0000  0.0000  0.0000  0.0000  0.0000
atom =   7  type =  2  l = 2
 
 onsite density matrix
 
spin component  1
 
  0.3601 -0.2380 -0.1927  0.0878  0.1041
 -0.2380  0.6951  0.0008 -0.1791  0.1631
 -0.1927  0.0008  0.6567  0.0331 -0.2574
  0.0878 -0.1791  0.0331  0.2625 -0.0499
  0.1041  0.1631 -0.2574 -0.0499  0.4217
 
spin component  2
 
  0.0877  0.0078  0.0322  0.0033  0.0344
  0.0078  0.0603  0.0003  0.0373 -0.0024
  0.0322  0.0003  0.0863  0.0032  0.0618
  0.0033  0.0373  0.0032  0.1507  0.0097
  0.0344 -0.0024  0.0618  0.0097  0.1308
 
 occupancies and eigenvectors
 
  o =  0.0412  v =  0.0000  0.0000  0.0000  0.0000  0.0000 -0.1588 -0.1860  0.8159  0.0899 -0.5161      0.0000  0.0000  0.0000  0.0000  0.0000  0.0000  0.0000  0.0000  0.0000  0.0000
  o =  0.0444  v =  0.0000  0.0000  0.0000  0.0000  0.0000 -0.3154  0.8748  0.1985 -0.3068  0.0423      0.0000  0.0000  0.0000  0.0000  0.0000  0.0000  0.0000  0.0000  0.0000  0.0000
  o =  0.0713  v =  0.0000  0.0000  0.0000  0.0000  0.0000 -0.8461 -0.2909  0.0279  0.1176  0.4299      0.0000  0.0000  0.0000  0.0000  0.0000  0.0000  0.0000  0.0000  0.0000  0.0000
  o =  0.1329  v =  0.7502  0.4195  0.0413 -0.1289 -0.4930  0.0000  0.0000  0.0000  0.0000  0.0000      0.0000  0.0000  0.0000  0.0000  0.0000  0.0000  0.0000  0.0000  0.0000  0.0000
  o =  0.1612  v =  0.0000  0.0000  0.0000  0.0000  0.0000 -0.0999  0.3291 -0.1752  0.8987 -0.2082      0.0000  0.0000  0.0000  0.0000  0.0000  0.0000  0.0000  0.0000  0.0000  0.0000
  o =  0.1865  v =  0.1655 -0.3058  0.2610 -0.8679  0.2404  0.0000  0.0000  0.0000  0.0000  0.0000      0.0000  0.0000  0.0000  0.0000  0.0000  0.0000  0.0000  0.0000  0.0000  0.0000
  o =  0.1977  v =  0.0000  0.0000  0.0000  0.0000  0.0000 -0.3865 -0.0854 -0.5132 -0.2762 -0.7097      0.0000  0.0000  0.0000  0.0000  0.0000  0.0000  0.0000  0.0000  0.0000  0.0000
  o =  0.2582  v =  0.3776  0.1221  0.5573  0.3706  0.6282  0.0000  0.0000  0.0000  0.0000  0.0000      0.0000  0.0000  0.0000  0.0000  0.0000  0.0000  0.0000  0.0000  0.0000  0.0000
  o =  0.9079  v =  0.0860 -0.6879  0.4634  0.2639 -0.4847  0.0000  0.0000  0.0000  0.0000  0.0000      0.0000  0.0000  0.0000  0.0000  0.0000  0.0000  0.0000  0.0000  0.0000  0.0000
  o =  0.9106  v = -0.5098  0.4923  0.6363 -0.1524 -0.2638  0.0000  0.0000  0.0000  0.0000  0.0000      0.0000  0.0000  0.0000  0.0000  0.0000  0.0000  0.0000  0.0000  0.0000  0.0000
atom =   8  type =  2  l = 2
 
 onsite density matrix
 
spin component  1
 
  0.3602  0.2382  0.1929  0.0880 -0.1039
  0.2382  0.6945  0.0007  0.1790  0.1636
  0.1929  0.0007  0.6570 -0.0328 -0.2572
  0.0880  0.1790 -0.0328  0.2624  0.0499
 -0.1039  0.1636 -0.2572  0.0499  0.4217
 
spin component  2
 
  0.0878 -0.0077 -0.0323  0.0032 -0.0345
 -0.0077  0.0604  0.0002 -0.0372 -0.0025
 -0.0323  0.0002  0.0863 -0.0032  0.0618
  0.0032 -0.0372 -0.0032  0.1508 -0.0097
 -0.0345 -0.0025  0.0618 -0.0097  0.1309
 
 occupancies and eigenvectors
 
  o =  0.0412  v =  0.0000  0.0000  0.0000  0.0000  0.0000  0.1600 -0.1831  0.8166 -0.0885 -0.5159      0.0000  0.0000  0.0000  0.0000  0.0000  0.0000  0.0000  0.0000  0.0000  0.0000
  o =  0.0445  v =  0.0000  0.0000  0.0000  0.0000  0.0000 -0.3155 -0.8751 -0.1961 -0.3068 -0.0449      0.0000  0.0000  0.0000  0.0000  0.0000  0.0000  0.0000  0.0000  0.0000  0.0000
  o =  0.0714  v =  0.0000  0.0000  0.0000  0.0000  0.0000  0.8457 -0.2919  0.0279 -0.1175  0.4302      0.0000  0.0000  0.0000  0.0000  0.0000  0.0000  0.0000  0.0000  0.0000  0.0000
  o =  0.1326  v =  0.7501 -0.4202 -0.0420 -0.1291  0.4924  0.0000  0.0000  0.0000  0.0000  0.0000      0.0000  0.0000  0.0000  0.0000  0.0000  0.0000  0.0000  0.0000  0.0000  0.0000
  o =  0.1612  v =  0.0000  0.0000  0.0000  0.0000  0.0000  0.0993  0.3290 -0.1736 -0.8995 -0.2064      0.0000  0.0000  0.0000  0.0000  0.0000  0.0000  0.0000  0.0000  0.0000  0.0000
  o =  0.1865  v =  0.1651  0.3062 -0.2600 -0.8682 -0.2400  0.0000  0.0000  0.0000  0.0000  0.0000      0.0000  0.0000  0.0000  0.0000  0.0000  0.0000  0.0000  0.0000  0.0000  0.0000
  o =  0.1978  v =  0.0000  0.0000  0.0000  0.0000  0.0000 -0.3871  0.0841  0.5136 -0.2740  0.7100      0.0000  0.0000  0.0000  0.0000  0.0000  0.0000  0.0000  0.0000  0.0000  0.0000
  o =  0.2582  v = -0.3774  0.1210  0.5575 -0.3698  0.6288  0.0000  0.0000  0.0000  0.0000  0.0000      0.0000  0.0000  0.0000  0.0000  0.0000  0.0000  0.0000  0.0000  0.0000  0.0000
  o =  0.9079  v = -0.0925 -0.6938  0.4554 -0.2654 -0.4819  0.0000  0.0000  0.0000  0.0000  0.0000      0.0000  0.0000  0.0000  0.0000  0.0000  0.0000  0.0000  0.0000  0.0000  0.0000
  o =  0.9105  v =  0.5091  0.4834  0.6422  0.1494 -0.2690  0.0000  0.0000  0.0000  0.0000  0.0000      0.0000  0.0000  0.0000  0.0000  0.0000  0.0000  0.0000  0.0000  0.0000  0.0000
atom =   9  type =  2  l = 2
 
 onsite density matrix
 
spin component  1
 
  0.1858  0.0028  0.0685  0.0025  0.1549
  0.0028  0.2617 -0.0094  0.1710  0.0004
  0.0685 -0.0094  0.5626 -0.0232  0.3348
  0.0025  0.1710 -0.0232  0.8511  0.0220
  0.1549  0.0004  0.3348  0.0220  0.4996
 
spin component  2
 
  0.1034 -0.0003 -0.0447 -0.0015  0.0447
 -0.0003  0.1652  0.0022 -0.0425 -0.0008
 -0.0447  0.0022  0.0879  0.0010 -0.0518
 -0.0015 -0.0425  0.0010  0.0655 -0.0023
  0.0447 -0.0008 -0.0518 -0.0023  0.1081
 
 occupancies and eigenvectors
 
  o =  0.0436  v =  0.0000  0.0000  0.0000  0.0000  0.0000 -0.2524  0.0012 -0.8313 -0.0283 -0.4943      0.0000  0.0000  0.0000  0.0000  0.0000  0.0000  0.0000  0.0000  0.0000  0.0000
  o =  0.0497  v =  0.0000  0.0000  0.0000  0.0000  0.0000 -0.0283  0.3458 -0.0396  0.9366  0.0284      0.0000  0.0000  0.0000  0.0000  0.0000  0.0000  0.0000  0.0000  0.0000  0.0000
  o =  0.0614  v =  0.0000  0.0000  0.0000  0.0000  0.0000  0.7819  0.0125  0.1236  0.0427 -0.6095      0.0000  0.0000  0.0000  0.0000  0.0000  0.0000  0.0000  0.0000  0.0000  0.0000
  o =  0.1029  v =  0.7878 -0.0258  0.2814  0.0281 -0.5466  0.0000  0.0000  0.0000  0.0000  0.0000      0.0000  0.0000  0.0000  0.0000  0.0000  0.0000  0.0000  0.0000  0.0000  0.0000
  o =  0.1809  v =  0.0000  0.0000  0.0000  0.0000  0.0000  0.0380  0.9362 -0.0217 -0.3466  0.0392      0.0000  0.0000  0.0000  0.0000  0.0000  0.0000  0.0000  0.0000  0.0000  0.0000
  o =  0.1946  v =  0.0000  0.0000  0.0000  0.0000  0.0000 -0.5681  0.0621  0.5400  0.0015 -0.6179      0.0000  0.0000  0.0000  0.0000  0.0000  0.0000  0.0000  0.0000  0.0000  0.0000
  o =  0.2158  v = -0.0161 -0.9654 -0.0268  0.2582  0.0218  0.0000  0.0000  0.0000  0.0000  0.0000      0.0000  0.0000  0.0000  0.0000  0.0000  0.0000  0.0000  0.0000  0.0000  0.0000
  o =  0.2423  v =  0.5775  0.0069 -0.6460 -0.0470  0.4969  0.0000  0.0000  0.0000  0.0000  0.0000      0.0000  0.0000  0.0000  0.0000  0.0000  0.0000  0.0000  0.0000  0.0000  0.0000
  o =  0.8971  v =  0.1187  0.2178  0.3389  0.8252  0.3776  0.0000  0.0000  0.0000  0.0000  0.0000      0.0000  0.0000  0.0000  0.0000  0.0000  0.0000  0.0000  0.0000  0.0000  0.0000
  o =  0.9028  v = -0.1777  0.1412 -0.6228  0.4994 -0.5579  0.0000  0.0000  0.0000  0.0000  0.0000      0.0000  0.0000  0.0000  0.0000  0.0000  0.0000  0.0000  0.0000  0.0000  0.0000
atom =  10  type =  2  l = 2
 
 onsite density matrix
 
spin component  1
 
  0.1861 -0.0029 -0.0690  0.0031 -0.1551
 -0.0029  0.2618 -0.0098 -0.1711  0.0002
 -0.0690 -0.0098  0.5630  0.0230  0.3346
  0.0031 -0.1711  0.0230  0.8511 -0.0219
 -0.1551  0.0002  0.3346 -0.0219  0.4992
 
spin component  2
 
  0.1034  0.0004  0.0447 -0.0018 -0.0447
  0.0004  0.1652  0.0022  0.0425 -0.0007
  0.0447  0.0022  0.0879 -0.0010 -0.0519
 -0.0018  0.0425 -0.0010  0.0654  0.0021
 -0.0447 -0.0007 -0.0519  0.0021  0.1081
 
 occupancies and eigenvectors
 
  o =  0.0435  v =  0.0000  0.0000  0.0000  0.0000  0.0000 -0.2515  0.0017  0.8310 -0.0367  0.4949      0.0000  0.0000  0.0000  0.0000  0.0000  0.0000  0.0000  0.0000  0.0000  0.0000
  o =  0.0497  v =  0.0000  0.0000  0.0000  0.0000  0.0000  0.0047  0.3454 -0.0431 -0.9374  0.0041      0.0000  0.0000  0.0000  0.0000  0.0000  0.0000  0.0000  0.0000  0.0000  0.0000
  o =  0.0614  v =  0.0000  0.0000  0.0000  0.0000  0.0000  0.7829 -0.0007 -0.1255  0.0121  0.6093      0.0000  0.0000  0.0000  0.0000  0.0000  0.0000  0.0000  0.0000  0.0000  0.0000
  o =  0.1030  v =  0.7880  0.0263 -0.2804  0.0274  0.5468  0.0000  0.0000  0.0000  0.0000  0.0000      0.0000  0.0000  0.0000  0.0000  0.0000  0.0000  0.0000  0.0000  0.0000  0.0000
  o =  0.1807  v =  0.0000  0.0000  0.0000  0.0000  0.0000  0.0358 -0.9366  0.0191 -0.3460 -0.0363      0.0000  0.0000  0.0000  0.0000  0.0000  0.0000  0.0000  0.0000  0.0000  0.0000
  o =  0.1946  v =  0.0000  0.0000  0.0000  0.0000  0.0000 -0.5680 -0.0579 -0.5399  0.0033  0.6185      0.0000  0.0000  0.0000  0.0000  0.0000  0.0000  0.0000  0.0000  0.0000  0.0000
  o =  0.2157  v = -0.0141  0.9652  0.0301  0.2581 -0.0238  0.0000  0.0000  0.0000  0.0000  0.0000      0.0000  0.0000  0.0000  0.0000  0.0000  0.0000  0.0000  0.0000  0.0000  0.0000
  o =  0.2423  v =  0.5770 -0.0110  0.6461 -0.0484 -0.4972  0.0000  0.0000  0.0000  0.0000  0.0000      0.0000  0.0000  0.0000  0.0000  0.0000  0.0000  0.0000  0.0000  0.0000  0.0000
  o =  0.8972  v = -0.1197  0.2176  0.3393 -0.8251  0.3774  0.0000  0.0000  0.0000  0.0000  0.0000      0.0000  0.0000  0.0000  0.0000  0.0000  0.0000  0.0000  0.0000  0.0000  0.0000
  o =  0.9029  v = -0.1778 -0.1419  0.6229  0.4996  0.5574  0.0000  0.0000  0.0000  0.0000  0.0000      0.0000  0.0000  0.0000  0.0000  0.0000  0.0000  0.0000  0.0000  0.0000  0.0000
atom =  11  type =  2  l = 2
 
 onsite density matrix
 
spin component  1
 
  0.1870  0.0045  0.0695  0.0069  0.1557
  0.0045  0.2620 -0.0072  0.1719 -0.0009
  0.0695 -0.0072  0.5619 -0.0189  0.3349
  0.0069  0.1719 -0.0189  0.8519  0.0156
  0.1557 -0.0009  0.3349  0.0156  0.4984
 
spin component  2
 
  0.1034 -0.0005 -0.0448 -0.0015  0.0447
 -0.0005  0.1651  0.0021 -0.0426 -0.0007
 -0.0448  0.0021  0.0879  0.0006 -0.0518
 -0.0015 -0.0426  0.0006  0.0655 -0.0016
  0.0447 -0.0007 -0.0518 -0.0016  0.1080
 
 occupancies and eigenvectors
 
  o =  0.0435  v =  0.0000  0.0000  0.0000  0.0000  0.0000 -0.2560 -0.0008 -0.8316 -0.0326 -0.4918      0.0000  0.0000  0.0000  0.0000  0.0000  0.0000  0.0000  0.0000  0.0000  0.0000
  o =  0.0497  v =  0.0000  0.0000  0.0000  0.0000  0.0000  0.0005  0.3467 -0.0363  0.9373 -0.0017      0.0000  0.0000  0.0000  0.0000  0.0000  0.0000  0.0000  0.0000  0.0000  0.0000
  o =  0.0613  v =  0.0000  0.0000  0.0000  0.0000  0.0000  0.7808 -0.0016  0.1219  0.0038 -0.6127      0.0000  0.0000  0.0000  0.0000  0.0000  0.0000  0.0000  0.0000  0.0000  0.0000
  o =  0.1031  v =  0.7858 -0.0328  0.2821  0.0188 -0.5492  0.0000  0.0000  0.0000  0.0000  0.0000      0.0000  0.0000  0.0000  0.0000  0.0000  0.0000  0.0000  0.0000  0.0000  0.0000
  o =  0.1808  v =  0.0000  0.0000  0.0000  0.0000  0.0000  0.0474  0.9348 -0.0313 -0.3470  0.0496      0.0000  0.0000  0.0000  0.0000  0.0000  0.0000  0.0000  0.0000  0.0000  0.0000
  o =  0.1946  v =  0.0000  0.0000  0.0000  0.0000  0.0000 -0.5679  0.0765  0.5398 -0.0082 -0.6166      0.0000  0.0000  0.0000  0.0000  0.0000  0.0000  0.0000  0.0000  0.0000  0.0000
  o =  0.2157  v = -0.0220 -0.9649 -0.0236  0.2596  0.0228  0.0000  0.0000  0.0000  0.0000  0.0000      0.0000  0.0000  0.0000  0.0000  0.0000  0.0000  0.0000  0.0000  0.0000  0.0000
  o =  0.2421  v =  0.5791  0.0035 -0.6464 -0.0402  0.4951  0.0000  0.0000  0.0000  0.0000  0.0000      0.0000  0.0000  0.0000  0.0000  0.0000  0.0000  0.0000  0.0000  0.0000  0.0000
  o =  0.8974  v =  0.1374  0.2081  0.3909  0.7845  0.4119  0.0000  0.0000  0.0000  0.0000  0.0000      0.0000  0.0000  0.0000  0.0000  0.0000  0.0000  0.0000  0.0000  0.0000  0.0000
  o =  0.9029  v = -0.1667  0.1568 -0.5910  0.5614 -0.5321  0.0000  0.0000  0.0000  0.0000  0.0000      0.0000  0.0000  0.0000  0.0000  0.0000  0.0000  0.0000  0.0000  0.0000  0.0000
atom =  12  type =  2  l = 2
 
 onsite density matrix
 
spin component  1
 
  0.1871 -0.0038 -0.0698  0.0048 -0.1557
 -0.0038  0.2618 -0.0074 -0.1720 -0.0004
 -0.0698 -0.0074  0.5625  0.0202  0.3347
  0.0048 -0.1720  0.0202  0.8518 -0.0176
 -0.1557 -0.0004  0.3347 -0.0176  0.4982
 
spin component  2
 
  0.1035  0.0005  0.0448 -0.0014 -0.0448
  0.0005  0.1650  0.0022  0.0425 -0.0009
  0.0448  0.0022  0.0879 -0.0008 -0.0518
 -0.0014  0.0425 -0.0008  0.0654  0.0019
 -0.0448 -0.0009 -0.0518  0.0019  0.1079
 
 occupancies and eigenvectors
 
  o =  0.0435  v =  0.0000  0.0000  0.0000  0.0000  0.0000 -0.2528 -0.0013  0.8315 -0.0267  0.4939      0.0000  0.0000  0.0000  0.0000  0.0000  0.0000  0.0000  0.0000  0.0000  0.0000
  o =  0.0497  v =  0.0000  0.0000  0.0000  0.0000  0.0000  0.0144  0.3463 -0.0343 -0.9373  0.0155      0.0000  0.0000  0.0000  0.0000  0.0000  0.0000  0.0000  0.0000  0.0000  0.0000
  o =  0.0613  v =  0.0000  0.0000  0.0000  0.0000  0.0000 -0.7814  0.0060  0.1245 -0.0244 -0.6109      0.0000  0.0000  0.0000  0.0000  0.0000  0.0000  0.0000  0.0000  0.0000  0.0000
  o =  0.1032  v =  0.7859  0.0318 -0.2813  0.0228  0.5493  0.0000  0.0000  0.0000  0.0000  0.0000      0.0000  0.0000  0.0000  0.0000  0.0000  0.0000  0.0000  0.0000  0.0000  0.0000
  o =  0.1806  v =  0.0000  0.0000  0.0000  0.0000  0.0000 -0.0482  0.9348 -0.0320  0.3467  0.0504      0.0000  0.0000  0.0000  0.0000  0.0000  0.0000  0.0000  0.0000  0.0000  0.0000
  o =  0.1946  v =  0.0000  0.0000  0.0000  0.0000  0.0000 -0.5683 -0.0781 -0.5393 -0.0077  0.6165      0.0000  0.0000  0.0000  0.0000  0.0000  0.0000  0.0000  0.0000  0.0000  0.0000
  o =  0.2155  v =  0.0267 -0.9649 -0.0185 -0.2599  0.0190  0.0000  0.0000  0.0000  0.0000  0.0000      0.0000  0.0000  0.0000  0.0000  0.0000  0.0000  0.0000  0.0000  0.0000  0.0000
  o =  0.2421  v =  0.5788  0.0044  0.6464 -0.0390 -0.4956  0.0000  0.0000  0.0000  0.0000  0.0000      0.0000  0.0000  0.0000  0.0000  0.0000  0.0000  0.0000  0.0000  0.0000  0.0000
  o =  0.8975  v = -0.1354  0.2082  0.3896 -0.7845  0.4137  0.0000  0.0000  0.0000  0.0000  0.0000      0.0000  0.0000  0.0000  0.0000  0.0000  0.0000  0.0000  0.0000  0.0000  0.0000
  o =  0.9030  v =  0.1685  0.1568 -0.5923 -0.5613 -0.5302  0.0000  0.0000  0.0000  0.0000  0.0000      0.0000  0.0000  0.0000  0.0000  0.0000  0.0000  0.0000  0.0000  0.0000  0.0000
     EDDAV:  cpu time   69.6034: real time   69.6125
       DOS:  cpu time    0.0085: real time    0.0085
    --------------------------------------------
      LOOP:  cpu time   71.4865: real time   71.4991

 eigenvalue-minimisations  : 38592
 total energy-change (2. order) : 0.2934733E+04  (-0.1196165E+05)
 number of electron     223.9999976 magnetization      15.9999976
 augmentation part      223.9999976 magnetization      15.9999976

 Free energy of the ion-electron system (eV)
  ---------------------------------------------------
  alpha Z        PSCENC =      1406.47878711
  Ewald energy   TEWEN  =    -17001.39414063
  -Hartree energ DENC   =     -4682.38264220
  -exchange      EXHF   =         0.00000000
  -V(xc)+E(xc)   XCENC  =      1017.50237816
  PAW double counting   =     22327.30307349   -22306.62771702
  entropy T*S    EENTRO =        -0.01069601
  eigenvalues    EBANDS =       658.85926039
  atomic energy  EATOM  =     21515.00425776
  Solvation  Ediel_sol  =         0.00000000
  ---------------------------------------------------
  free energy    TOTEN  =      2934.73256106 eV

  energy without entropy =     2934.74325707  energy(sigma->0) =     2934.73790906


--------------------------------------------------------------------------------------------------------




--------------------------------------- Iteration      1(   2)  ---------------------------------------


     EDDAV:  cpu time   69.9729: real time   69.9764
       DOS:  cpu time    0.0069: real time    0.0069
    --------------------------------------------
      LOOP:  cpu time   69.9798: real time   69.9833

 eigenvalue-minimisations  : 38964
 total energy-change (2. order) :-0.2941148E+04  (-0.2828711E+04)
 number of electron     223.9999976 magnetization      15.9999976
 augmentation part      223.9999976 magnetization      15.9999976

 Free energy of the ion-electron system (eV)
  ---------------------------------------------------
  alpha Z        PSCENC =      1406.47878711
  Ewald energy   TEWEN  =    -17001.39414063
  -Hartree energ DENC   =     -4682.38264220
  -exchange      EXHF   =         0.00000000
  -V(xc)+E(xc)   XCENC  =      1017.50237816
  PAW double counting   =     22327.30307349   -22306.62771702
  entropy T*S    EENTRO =        -0.01363968
  eigenvalues    EBANDS =     -2282.28549384
  atomic energy  EATOM  =     21515.00425776
  Solvation  Ediel_sol  =         0.00000000
  ---------------------------------------------------
  free energy    TOTEN  =        -6.41513684 eV

  energy without entropy =       -6.40149716  energy(sigma->0) =       -6.40831700


--------------------------------------------------------------------------------------------------------




--------------------------------------- Iteration      1(   3)  ---------------------------------------


     EDDAV:  cpu time   85.8707: real time   85.8753
       DOS:  cpu time    0.0054: real time    0.0054
    --------------------------------------------
      LOOP:  cpu time   85.8760: real time   85.8807

 eigenvalue-minimisations  : 52980
 total energy-change (2. order) :-0.3878455E+03  (-0.3634897E+03)
 number of electron     223.9999976 magnetization      15.9999976
 augmentation part      223.9999976 magnetization      15.9999976

 Free energy of the ion-electron system (eV)
  ---------------------------------------------------
  alpha Z        PSCENC =      1406.47878711
  Ewald energy   TEWEN  =    -17001.39414063
  -Hartree energ DENC   =     -4682.38264220
  -exchange      EXHF   =         0.00000000
  -V(xc)+E(xc)   XCENC  =      1017.50237816
  PAW double counting   =     22327.30307349   -22306.62771702
  entropy T*S    EENTRO =        -0.00000000
  eigenvalues    EBANDS =     -2670.14461174
  atomic energy  EATOM  =     21515.00425776
  Solvation  Ediel_sol  =         0.00000000
  ---------------------------------------------------
  free energy    TOTEN  =      -394.26061506 eV

  energy without entropy =     -394.26061506  energy(sigma->0) =     -394.26061506


--------------------------------------------------------------------------------------------------------




--------------------------------------- Iteration      1(   4)  ---------------------------------------


     EDDAV:  cpu time   91.1856: real time   91.1904
       DOS:  cpu time    0.0036: real time    0.0036
    --------------------------------------------
      LOOP:  cpu time   91.1892: real time   91.1940

 eigenvalue-minimisations  : 57696
 total energy-change (2. order) :-0.2413211E+02  (-0.2386813E+02)
 number of electron     223.9999976 magnetization      15.9999976
 augmentation part      223.9999976 magnetization      15.9999976

 Free energy of the ion-electron system (eV)
  ---------------------------------------------------
  alpha Z        PSCENC =      1406.47878711
  Ewald energy   TEWEN  =    -17001.39414063
  -Hartree energ DENC   =     -4682.38264220
  -exchange      EXHF   =         0.00000000
  -V(xc)+E(xc)   XCENC  =      1017.50237816
  PAW double counting   =     22327.30307349   -22306.62771702
  entropy T*S    EENTRO =        -0.00000000
  eigenvalues    EBANDS =     -2694.27671967
  atomic energy  EATOM  =     21515.00425776
  Solvation  Ediel_sol  =         0.00000000
  ---------------------------------------------------
  free energy    TOTEN  =      -418.39272299 eV

  energy without entropy =     -418.39272299  energy(sigma->0) =     -418.39272299


--------------------------------------------------------------------------------------------------------




--------------------------------------- Iteration      1(   5)  ---------------------------------------


     EDDAV:  cpu time  103.3074: real time  103.3130
       DOS:  cpu time    0.0037: real time    0.0037
    CHARGE:  cpu time    8.8373: real time    8.8377
    MIXING:  cpu time    0.0013: real time    0.0013
    --------------------------------------------
      LOOP:  cpu time  112.1498: real time  112.1557

 eigenvalue-minimisations  : 68280
 total energy-change (2. order) :-0.1414604E+01  (-0.1412217E+01)
 number of electron     223.9999978 magnetization      15.9999977
 augmentation part       56.7603040 magnetization       8.9171200

 Broyden mixing:
  rms(total) = 0.89812E+00    rms(broyden)= 0.89788E+00
  rms(prec ) = 0.97096E+00
  weight for this iteration     100.00

 Free energy of the ion-electron system (eV)
  ---------------------------------------------------
  alpha Z        PSCENC =      1406.47878711
  Ewald energy   TEWEN  =    -17001.39414063
  -Hartree energ DENC   =     -4682.38264220
  -exchange      EXHF   =         0.00000000
  -V(xc)+E(xc)   XCENC  =      1017.50237816
  PAW double counting   =     22327.30307349   -22306.62771702
  entropy T*S    EENTRO =        -0.00000000
  eigenvalues    EBANDS =     -2695.69132410
  atomic energy  EATOM  =     21515.00425776
  Solvation  Ediel_sol  =         0.00000000
  ---------------------------------------------------
  free energy    TOTEN  =      -419.80732742 eV

  energy without entropy =     -419.80732742  energy(sigma->0) =     -419.80732742


--------------------------------------------------------------------------------------------------------




[...]
  0.000   0.004   0.000  -0.001   0.000   0.001   0.004  -0.002  -0.002   0.001   0.000  -0.248   0.002   0.001  -0.001  -0.000
 -0.001  -0.019   0.003   0.000   0.001  -0.008  -0.001   0.011   0.026   0.002   0.031   0.002  -0.163  -0.015  -0.001  -0.018
 total augmentation occupancy for first ion, spin component:           2
 -0.000   0.000  -0.000  -0.000  -0.000   0.000  -0.000  -0.000   0.000   0.000   0.000   0.000   0.000  -0.000  -0.000   0.000
  0.000   0.003   0.000  -0.000  -0.000  -0.000   0.000   0.001  -0.003  -0.000   0.000  -0.001   0.001   0.002   0.000  -0.000
 -0.000   0.000  -0.000  -0.000  -0.000   0.000   0.000   0.000  -0.000  -0.000   0.000   0.000   0.000   0.000  -0.000  -0.000
 -0.000  -0.000  -0.000   0.000  -0.000   0.000   0.000   0.000   0.000   0.000   0.000   0.000  -0.000  -0.000  -0.000  -0.000
 -0.000  -0.000  -0.000  -0.000   0.000   0.000   0.000   0.000   0.000  -0.000  -0.000  -0.000   0.000   0.000   0.000   0.000
  0.000  -0.000   0.000   0.000   0.000  -0.000  -0.000  -0.000   0.001   0.000   0.000  -0.000  -0.001  -0.000  -0.000  -0.000
 -0.000   0.000   0.000   0.000   0.000  -0.000   0.000  -0.000  -0.001  -0.000   0.000  -0.001   0.000   0.000   0.000  -0.000
 -0.000   0.001   0.000   0.000   0.000  -0.000  -0.000   0.000  -0.002  -0.000  -0.000   0.001  -0.001   0.001   0.000   0.000
  0.000  -0.003  -0.000   0.000   0.000   0.001  -0.001  -0.002   0.001   0.001   0.004   0.001   0.001  -0.001  -0.000  -0.002
  0.000  -0.000  -0.000   0.000  -0.000   0.000  -0.000  -0.000   0.001   0.000   0.000  -0.001   0.002  -0.000   0.000  -0.000
  0.000   0.000   0.000   0.000  -0.000   0.000   0.000  -0.000   0.004   0.000   0.018  -0.001  -0.001  -0.002  -0.000  -0.008
  0.000  -0.001   0.000   0.000  -0.000  -0.000  -0.001   0.001   0.001  -0.001  -0.001   0.000  -0.002  -0.000   0.000   0.000
  0.000   0.001   0.000  -0.000   0.000  -0.001   0.000  -0.001   0.001   0.002  -0.001  -0.002   0.005  -0.000  -0.001   0.000
 -0.000   0.002   0.000  -0.000   0.000  -0.000   0.000   0.001  -0.001  -0.000  -0.002  -0.000  -0.000   0.000   0.000   0.001
 -0.000   0.000  -0.000  -0.000   0.000  -0.000   0.000   0.000  -0.000   0.000  -0.000   0.000  -0.001   0.000  -0.000   0.000
  0.000  -0.000  -0.000  -0.000   0.000  -0.000  -0.000   0.000  -0.002  -0.000  -0.008   0.000   0.000   0.001   0.000   0.003
 -0.000   0.000   0.000   0.000  -0.000   0.000   0.000  -0.000  -0.000   0.000   0.000   0.000   0.001   0.000  -0.000  -0.000
 -0.000  -0.000   0.000  -0.000  -0.000   0.000  -0.000   0.001  -0.000  -0.001   0.000   0.001  -0.003  -0.000   0.000  -0.000


------------------------ aborting loop because EDIFF is reached ----------------------------------------


 


 total charge     
 
# of ion       s       p       d       tot
------------------------------------------
    1        2.030   5.879   0.283   8.191
    2        2.030   5.878   0.283   8.191
    3        2.030   5.878   0.283   8.191
    4        2.030   5.878   0.283   8.191
    5        0.255   6.242   2.886   9.384
    6        0.255   6.242   2.886   9.384
    7        0.255   6.241   2.885   9.381
    8        0.255   6.241   2.885   9.380
    9        0.258   6.249   2.864   9.371
   10        0.258   6.249   2.864   9.372
   11        0.258   6.249   2.864   9.372
   12        0.258   6.249   2.864   9.371
   13        1.562   3.516   0.000   5.077
   14        1.562   3.516   0.000   5.078
   15        1.562   3.516   0.000   5.078
   16        1.562   3.516   0.000   5.078
   17        1.566   3.538   0.000   5.104
   18        1.566   3.538   0.000   5.104
   19        1.566   3.538   0.000   5.104
   20        1.566   3.538   0.000   5.104
   21        1.566   3.538   0.000   5.104
   22        1.566   3.538   0.000   5.104
   23        1.566   3.537   0.000   5.103
   24        1.566   3.537   0.000   5.103
   25        1.567   3.542   0.000   5.109
   26        1.567   3.542   0.000   5.109
   27        1.567   3.543   0.000   5.110
   28        1.567   3.543   0.000   5.110
--------------------------------------------------
tot         35.213 130.015  24.128 189.356
 


 magnetization (x)
 
# of ion       s       p       d       tot
------------------------------------------
    1        0.000  -0.000   0.008   0.008
    2        0.000  -0.000   0.008   0.008
    3        0.000  -0.000   0.008   0.008
    4        0.000  -0.000   0.008   0.008
    5        0.013   0.014   1.875   1.902
    6        0.013   0.014   1.875   1.902
    7        0.013   0.014   1.875   1.902
    8        0.013   0.014   1.876   1.903
    9        0.012   0.015   1.827   1.853
   10        0.012   0.015   1.827   1.853
   11        0.012   0.015   1.827   1.854
   12        0.012   0.015   1.827   1.853
   13       -0.000  -0.006   0.000  -0.007
   14       -0.000  -0.006   0.000  -0.007
   15       -0.000  -0.007   0.000  -0.007
   16       -0.000  -0.007   0.000  -0.007
   17        0.000   0.004   0.000   0.004
   18        0.001   0.004   0.000   0.005
   19        0.001   0.004   0.000   0.005
   20        0.001   0.004   0.000   0.005
   21       -0.001  -0.016   0.000  -0.017
   22       -0.001  -0.016   0.000  -0.017
   23       -0.001  -0.017   0.000  -0.018
   24       -0.001  -0.017   0.000  -0.018
   25       -0.000  -0.001   0.000  -0.001
   26       -0.000  -0.001   0.000  -0.001
   27       -0.000  -0.001   0.000  -0.001
   28       -0.000  -0.001   0.000  -0.001
--------------------------------------------------
tot          0.094   0.036  14.841  14.971
 
    CHARGE:  cpu time    1.1120: real time    1.1120
    FORLOC:  cpu time    0.0061: real time    0.0061
    FORNL :  cpu time    9.9964: real time    9.9968
    STRESS:  cpu time  177.5053: real time  177.5131
    FORCOR:  cpu time    0.1085: real time    0.1085
    FORHAR:  cpu time    0.0106: real time    0.0106
    MIXING:  cpu time    0.0014: real time    0.0014
    OFIELD:  cpu time    0.0000: real time    0.0000

  FORCE on cell =-STRESS in cart. coord.  units (eV):
  Direction    XX          YY          ZZ          XY          YZ          ZX
  --------------------------------------------------------------------------------------
  Alpha Z  1404.62822  1404.62822  1404.62822
  Ewald   -6063.74140 -5677.76523 -5252.52158    -0.20908    26.35974     0.74148
  Hartree  1261.34080  1543.53800  1880.67104    -0.10418     8.42419     0.35834
  E(xc)   -1229.19368 -1229.62258 -1230.08697     0.00074     0.17174     0.00103
  Local    1387.94411   728.59295   -84.65447     0.30745   -29.42142    -1.08883
  n-local -1078.89644 -1074.46205 -1099.49732    -0.00061     2.07963     0.00875
  augment   530.24950   529.32904   560.38134     0.00093    -3.39003     0.00068
  Kinetic  3787.20208  3775.28288  3820.63713     0.00082    -4.28388    -0.01327
  Fock        0.00000     0.00000     0.00000     0.00000     0.00000     0.00000
  -------------------------------------------------------------------------------------
  Total      -0.46681    -0.47877    -0.44262    -0.00394    -0.06004     0.00818
  in kB      -2.49469    -2.55859    -2.36541    -0.02108    -0.32085     0.04373
  external pressure =       -2.47 kB  Pullay stress =        0.00 kB


 VOLUME and BASIS-vectors are now :
 -----------------------------------------------------------------------------
  energy-cutoff  :      520.00
  volume of cell :      299.80
      direct lattice vectors                 reciprocal lattice vectors
     9.185517042  0.000264447 -0.000186188     0.108867034  0.000000440 -0.000000763
    -0.000043476 10.659494669 -0.052968265    -0.000002687  0.093816461  0.000680819
     0.000021555 -0.022220916  3.062029989     0.000006573  0.001622876  0.326592511

  length of vectors
     9.185517048 10.659626271  3.062110616     0.108867034  0.093818931  0.326596543


 FORCES acting on ions
    electron-ion (+dipol)            ewald-force                    non-local-force                 convergence-correction
 -----------------------------------------------------------------------------------------------
   0.733E+00 0.123E+02 0.100E+01   -.110E+01 -.112E+02 -.959E+00   0.361E+00 -.107E+01 -.379E-01   -.149E-02 -.410E-02 -.178E-04
   0.103E+01 -.123E+02 -.104E+01   -.140E+01 0.113E+02 0.987E+00   0.368E+00 0.106E+01 0.448E-01   -.686E-03 -.589E-02 0.649E-03
   -.652E+00 -.128E+02 -.134E+01   0.103E+01 0.118E+02 0.126E+01   -.373E+00 0.107E+01 0.867E-01   0.769E-03 0.642E-02 -.285E-04
   -.540E+00 0.130E+02 0.130E+01   0.910E+00 -.119E+02 -.123E+01   -.370E+00 -.107E+01 -.823E-01   0.542E-03 0.346E-02 0.531E-03
   0.851E+02 0.294E+02 -.609E+01   -.841E+02 -.291E+02 0.593E+01   -.933E+00 -.299E+00 0.142E+00   -.503E-03 -.306E-02 -.838E-03
   0.849E+02 -.300E+02 0.616E+01   -.839E+02 0.297E+02 -.600E+01   -.932E+00 0.301E+00 -.140E+00   0.219E-02 -.693E-02 -.433E-03
   -.846E+02 -.320E+02 0.520E+01   0.835E+02 0.317E+02 -.505E+01   0.102E+01 0.281E+00 -.122E+00   -.127E-02 0.474E-02 0.366E-03
   -.848E+02 0.323E+02 -.513E+01   0.837E+02 -.320E+02 0.499E+01   0.102E+01 -.284E+00 0.118E+00   0.167E-02 0.357E-02 -.828E-03
   0.766E+02 0.722E+02 0.573E+01   -.761E+02 -.727E+02 -.560E+01   -.409E+00 0.540E+00 -.105E+00   -.425E-02 0.372E-02 0.124E-02
   0.764E+02 -.715E+02 -.588E+01   -.759E+02 0.720E+02 0.576E+01   -.403E+00 -.527E+00 0.987E-01   0.419E-03 0.654E-02 -.151E-02
   -.778E+02 -.702E+02 -.474E+01   0.772E+02 0.708E+02 0.466E+01   0.509E+00 -.575E+00 0.513E-01   -.227E-02 -.492E-02 -.144E-02
   -.775E+02 0.699E+02 0.462E+01   0.770E+02 -.704E+02 -.454E+01   0.508E+00 0.569E+00 -.600E-01   0.373E-03 -.363E-02 0.133E-02
   -.249E+02 0.515E+02 0.872E+01   0.254E+02 -.542E+02 -.998E+01   -.492E+00 0.262E+01 0.126E+01   -.610E-03 0.266E-02 0.693E-03
   -.248E+02 -.515E+02 -.885E+01   0.253E+02 0.541E+02 0.101E+02   -.490E+00 -.260E+01 -.126E+01   -.124E-02 0.368E-02 -.109E-02
   0.257E+02 -.505E+02 -.973E+01   -.263E+02 0.531E+02 0.112E+02   0.557E+00 -.260E+01 -.150E+01   -.316E-03 -.508E-02 0.123E-02
   0.257E+02 0.504E+02 0.973E+01   -.262E+02 -.530E+02 -.112E+02   0.545E+00 0.256E+01 0.148E+01   0.957E-03 -.239E-02 -.578E-03
   -.139E+03 -.535E+02 -.425E+01   0.148E+03 0.556E+02 0.479E+01   -.874E+01 -.205E+01 -.546E+00   -.824E-03 0.629E-03 -.662E-02
   -.139E+03 0.537E+02 0.419E+01   0.148E+03 -.557E+02 -.471E+01   -.877E+01 0.206E+01 0.519E+00   -.138E-02 0.650E-03 0.260E-02
   0.139E+03 0.526E+02 0.455E+01   -.148E+03 -.546E+02 -.511E+01   0.873E+01 0.205E+01 0.562E+00   0.283E-02 0.119E-02 0.393E-02
   0.139E+03 -.525E+02 -.460E+01   -.148E+03 0.546E+02 0.517E+01   0.874E+01 -.205E+01 -.576E+00   -.140E-02 -.780E-03 -.608E-02
   0.440E+01 -.305E+02 -.144E+01   -.498E+01 0.319E+02 0.176E+01   0.581E+00 -.140E+01 -.320E+00   -.772E-03 -.395E-02 -.317E-03
   0.459E+01 0.308E+02 0.166E+01   -.521E+01 -.321E+02 -.203E+01   0.622E+00 0.139E+01 0.375E+00   0.437E-03 -.592E-02 0.308E-02
   -.496E+01 0.312E+02 0.525E+00   0.561E+01 -.327E+02 -.723E+00   -.658E+00 0.146E+01 0.201E+00   -.147E-02 0.425E-02 0.457E-02
   -.522E+01 -.315E+02 -.376E+00   0.589E+01 0.330E+02 0.540E+00   -.669E+00 -.145E+01 -.163E+00   0.741E-03 0.551E-02 -.491E-03
   0.116E+03 -.593E+02 0.546E+00   -.122E+03 0.644E+02 -.964E+00   0.617E+01 -.510E+01 0.423E+00   0.917E-03 0.158E-02 -.936E-03
   0.116E+03 0.595E+02 -.359E+00   -.122E+03 -.646E+02 0.752E+00   0.617E+01 0.511E+01 -.398E+00   0.794E-03 -.817E-03 0.132E-02
   -.115E+03 0.585E+02 -.895E+00   0.122E+03 -.636E+02 0.130E+01   -.613E+01 0.514E+01 -.406E+00   -.290E-02 0.674E-03 0.149E-03
   -.116E+03 -.587E+02 0.745E+00   0.122E+03 0.639E+02 -.113E+01   -.612E+01 -.515E+01 0.382E+00   0.124E-02 -.295E-02 -.422E-03
 -----------------------------------------------------------------------------------------------
   -.442E+00 0.482E-02 -.156E-01   -.142E-12 -.568E-13 -.526E-13   0.417E+00 -.840E-02 0.238E-01   -.750E-02 -.113E-02 0.515E-04
 
 
 POSITION                                       TOTAL-FORCE (eV/Angst)
 -----------------------------------------------------------------------------------
      2.32884      9.01689      0.68803        -0.001109      0.004731      0.002528
      6.92127      6.96158      0.76322        -0.004583      0.001131     -0.003574
      6.85778      1.62214      2.31417         0.003255     -0.008801      0.004337
      2.26477      3.67476      2.25143         0.001922      0.003418     -0.003754
      8.55704      9.45194      0.68261         0.006291      0.010327      0.003516
      3.96370      6.52588      0.77075        -0.001441      0.012991     -0.002851
      0.62941      1.17936      2.30662        -0.005703     -0.014437      0.010587
      5.22181      4.11735      2.25954        -0.003605     -0.000650     -0.006865
      8.46008      4.20582      0.75911         0.016146     -0.018286      0.001267
      3.86763      1.11417      0.74399         0.011744     -0.014804     -0.003226
      0.72499      6.42998      2.24847         0.004818      0.010079     -0.008383
      5.31859      9.52562      2.26466        -0.020027      0.012123      0.002203
      6.51927      3.59386      0.78691         0.000034      0.009048     -0.003413
      1.92670      1.72472      0.71663         0.001625     -0.002790      0.006268
      2.66548      7.04576      2.23384        -0.003030     -0.005444     -0.008962
      7.25852      8.91082      2.28142         0.000291     -0.003705      0.003301
      5.68142      0.24566      0.77917        -0.008844     -0.000707     -0.009167
      1.08852      5.07340      0.72450        -0.011387      0.000627     -0.000545
      3.50459     10.39355      2.22929         0.010145      0.004907      0.002636
      8.09728      5.56284      2.28285         0.002221     -0.004287     -0.006736
      0.18735      7.64030      0.73236        -0.002990     -0.010789      0.001339
      4.78009      8.33833      0.71990         0.001390     -0.007274      0.010607
      8.99736      2.99407      2.27375        -0.002894      0.009091      0.007636
      4.40438      2.30211      2.29223         0.004397      0.014721      0.000910
      8.45494      0.77484      0.78342         0.008115     -0.008384      0.004359
      3.86152      4.54420      0.72096         0.010366      0.002624     -0.003143
      0.73085      9.85768      2.20921        -0.012745      0.003032      0.003448
      5.32276      6.09792      2.30521        -0.004402      0.001508     -0.004321
 -----------------------------------------------------------------------------------
    total drift:                               -0.031859     -0.004704      0.008322


--------------------------------------------------------------------------------------------------------



  FREE ENERGIE OF THE ION-ELECTRON SYSTEM (eV)
  ---------------------------------------------------
  free  energy   TOTEN  =      -353.94607200 eV

  energy  without entropy=     -353.94607200  energy(sigma->0) =     -353.94607200
 
 d Force = 0.1380684E-03[-0.652E-04, 0.341E-03]  d Energy = 0.4196426E-03-0.282E-03
 d Force = 0.4286265E-02[ 0.981E-04, 0.847E-02]  d Ewald  =-0.7426046E+01 0.743E+01


--------------------------------------------------------------------------------------------------------


    POTLOK:  cpu time    1.8598: real time    1.8598


--------------------------------------------------------------------------------------------------------


 Steepest descent step on ions:
 trial-energy change:   -0.000420  1 .order   -0.000088   -0.000831    0.000656
  (g-gl).g = 0.831E-03      g.g   = 0.831E-03  gl.gl    = 0.000E+00
 g(Force)  = 0.341E-03   g(Stress)= 0.490E-03 ortho     = 0.000E+00
 gamma     =   0.00000
 trial     =   1.00000
 opt step  =   0.78506  (harmonic =   0.55901) maximal distance =0.00108437
 next E    =  -353.946139   (d E  =  -0.00049)


--------------------------------------------------------------------------------------------------------


  
 reached required accuracy - stopping structural energy minimisation
     LOOP+:  cpu time  766.6295: real time  766.8003
    4ORBIT:  cpu time    0.0000: real time    0.0000
 


 total charge     
 
# of ion       s       p       d       tot
------------------------------------------
    1        2.030   5.879   0.283   8.191
    2        2.030   5.878   0.283   8.191
    3        2.030   5.878   0.283   8.191
    4        2.030   5.878   0.283   8.191
    5        0.255   6.242   2.886   9.384
    6        0.255   6.242   2.886   9.384
    7        0.255   6.241   2.885   9.381
    8        0.255   6.241   2.885   9.380
    9        0.258   6.249   2.864   9.371
   10        0.258   6.249   2.864   9.372
   11        0.258   6.249   2.864   9.372
   12        0.258   6.249   2.864   9.371
   13        1.562   3.516   0.000   5.077
   14        1.562   3.516   0.000   5.078
   15        1.562   3.516   0.000   5.078
   16        1.562   3.516   0.000   5.078
   17        1.566   3.538   0.000   5.104
   18        1.566   3.538   0.000   5.104
   19        1.566   3.538   0.000   5.104
   20        1.566   3.538   0.000   5.104
   21        1.566   3.538   0.000   5.104
   22        1.566   3.538   0.000   5.104
   23        1.566   3.537   0.000   5.103
   24        1.566   3.537   0.000   5.103
   25        1.567   3.542   0.000   5.109
   26        1.567   3.542   0.000   5.109
   27        1.567   3.543   0.000   5.110
   28        1.567   3.543   0.000   5.110
--------------------------------------------------
tot         35.213 130.015  24.128 189.356
 


 magnetization (x)
 
# of ion       s       p       d       tot
------------------------------------------
    1        0.000  -0.000   0.008   0.008
    2        0.000  -0.000   0.008   0.008
    3        0.000  -0.000   0.008   0.008
    4        0.000  -0.000   0.008   0.008
    5        0.013   0.014   1.875   1.902
    6        0.013   0.014   1.875   1.902
    7        0.013   0.014   1.875   1.902
    8        0.013   0.014   1.876   1.903
    9        0.012   0.015   1.827   1.853
   10        0.012   0.015   1.827   1.853
   11        0.012   0.015   1.827   1.854
   12        0.012   0.015   1.827   1.853
   13       -0.000  -0.006   0.000  -0.007
   14       -0.000  -0.006   0.000  -0.007
   15       -0.000  -0.007   0.000  -0.007
   16       -0.000  -0.007   0.000  -0.007
   17        0.000   0.004   0.000   0.004
   18        0.001   0.004   0.000   0.005
   19        0.001   0.004   0.000   0.005
   20        0.001   0.004   0.000   0.005
   21       -0.001  -0.016   0.000  -0.017
   22       -0.001  -0.016   0.000  -0.017
   23       -0.001  -0.017   0.000  -0.018
   24       -0.001  -0.017   0.000  -0.018
   25       -0.000  -0.001   0.000  -0.001
   26       -0.000  -0.001   0.000  -0.001
   27       -0.000  -0.001   0.000  -0.001
   28       -0.000  -0.001   0.000  -0.001
--------------------------------------------------
tot          0.094   0.036  14.841  14.971
 

 total amount of memory used by VASP MPI-rank0   160160. kBytes
=======================================================================

   base      :      30000. kBytes
   nonlr-proj:       8037. kBytes
   fftplans  :       2631. kBytes
   grid      :       9983. kBytes
   one-center:        217. kBytes
   wavefun   :     109292. kBytes
 
  
  
 General timing and accounting informations for this job:
 ========================================================
  
                  Total CPU time used (sec):     2686.746
                            User time (sec):     2681.522
                          System time (sec):        5.224
                         Elapsed time (sec):     2687.461
  
                   Maximum memory used (kb):      219948.
                   Average memory used (kb):           0.
  
                          Minor page faults:        53948
                          Major page faults:           16
                 Voluntary context switches:          532
