       N       E                     dE             d eps       ncg     rms          rms(c)
DAV:   1     0.251169097897E+04    0.25117E+04   -0.12053E+05 23608   0.150E+03
DAV:   2    -0.894885977104E+02   -0.26012E+04   -0.24548E+04 24144   0.422E+02
DAV:   3    -0.425735970155E+03   -0.33625E+03   -0.32800E+03 27136   0.159E+02
DAV:   4    -0.440234850614E+03   -0.14499E+02   -0.14339E+02 30720   0.347E+01
DAV:   5    -0.441357796951E+03   -0.11229E+01   -0.11211E+01 41744   0.712E+00    0.587E+00
DAV:   6    -0.365714525299E+03    0.75643E+02   -0.17636E+01 25736   0.129E+01    0.355E+00
DAV:   7    -0.362411320351E+03    0.33032E+01   -0.26729E+00 27376   0.674E+00    0.292E+00
DAV:   8    -0.362438326523E+03   -0.27006E-01   -0.16167E-01 34992   0.140E+00    0.254E+00
DAV:   9    -0.362393872582E+03    0.44454E-01   -0.76782E-02 28744   0.814E-01    0.175E+00
DAV:  10    -0.362368896761E+03    0.24976E-01   -0.50074E-02 28840   0.636E-01    0.924E-01
DAV:  11    -0.362363294354E+03    0.56024E-02   -0.99259E-03 31408   0.283E-01    0.468E-01
DAV:  12    -0.362361326456E+03    0.19679E-02   -0.21545E-03 29168   0.141E-01    0.316E-01
DAV:  13    -0.362360960112E+03    0.36634E-03   -0.35337E-04 34896   0.630E-02    0.222E-01
DAV:  14    -0.362360391786E+03    0.56833E-03   -0.45468E-04 27808   0.628E-02    0.141E-01
DAV:  15    -0.362360227853E+03    0.16393E-03   -0.14258E-04 31792   0.346E-02    0.771E-02
DAV:  16    -0.362360181513E+03    0.46340E-04   -0.30452E-05 20888   0.181E-02    0.296E-02
DAV:  17    -0.362360161349E+03    0.20164E-04   -0.11726E-05 15184   0.111E-02    0.107E-02
DAV:  18    -0.362360163771E+03   -0.24220E-05   -0.35854E-06 14928   0.766E-03
   1 F= -.36236016E+03 E0= -.36236016E+03  d E =-.362360E+03  mag=     8.0000
       N       E                     dE             d eps       ncg     rms          rms(c)
DAV:   1    -0.362351964318E+03    0.81970E-02   -0.11979E+00 25312   0.393E+00    0.108E+00
DAV:   2    -0.362357987183E+03   -0.60229E-02   -0.84143E-02 26144   0.877E-01    0.439E-01
DAV:   3    -0.362357676382E+03    0.31080E-03   -0.41958E-03 29920   0.237E-01    0.216E-01
DAV:   4    -0.362357430729E+03    0.24565E-03   -0.88921E-04 28328   0.109E-01    0.136E-01
DAV:   5    -0.362357498294E+03   -0.67565E-04   -0.15775E-04 28528   0.459E-02    0.643E-02
DAV:   6    -0.362357481986E+03    0.16307E-04   -0.48353E-05 25888   0.273E-02    0.279E-02
DAV:   7    -0.362357519901E+03   -0.37914E-04   -0.16531E-05 17024   0.150E-02    0.135E-02
DAV:   8    -0.362357533637E+03   -0.13737E-04   -0.50541E-06 15056   0.942E-03    0.562E-03
DAV:   9    -0.362357522886E+03    0.10751E-04   -0.20829E-06 14896   0.596E-03    0.364E-03
DAV:  10    -0.362357526894E+03   -0.40077E-05   -0.86835E-07 14416   0.369E-03
   2 F= -.36235753E+03 E0= -.36235753E+03  d E =0.263688E-02  mag=     8.0000
       N       E                     dE             d eps       ncg     rms          rms(c)
DAV:   1    -0.362358723366E+03   -0.12005E-02   -0.51565E-01 25128   0.257E+00    0.771E-01
DAV:   2    -0.362361287662E+03   -0.25643E-02   -0.36251E-02 26208   0.575E-01    0.272E-01
DAV:   3    -0.362361087509E+03    0.20015E-03   -0.18185E-03 29920   0.157E-01    0.132E-01
DAV:   4    -0.362361220260E+03   -0.13275E-03   -0.36422E-04 28232   0.689E-02    0.765E-02
DAV:   5    -0.362361188384E+03    0.31875E-04   -0.57878E-05 27312   0.281E-02    0.337E-02
DAV:   6    -0.362361192261E+03   -0.38764E-05   -0.15093E-05 17480   0.169E-02
   3 F= -.36236119E+03 E0= -.36236119E+03  d E =-.102849E-02  mag=     8.0000
       N       E                     dE             d eps       ncg     rms          rms(c)
DAV:   1    -0.362357535988E+03    0.36524E-02   -0.72950E-01 24680   0.323E+00    0.550E-01
DAV:   2    -0.362362512838E+03   -0.49768E-02   -0.59169E-02 25264   0.663E-01    0.217E-01
DAV:   3    -0.362362594886E+03   -0.82048E-04   -0.21632E-03 30480   0.153E-01    0.120E-01
DAV:   4    -0.362362417155E+03    0.17773E-03   -0.29079E-04 29488   0.631E-02    0.848E-02
DAV:   5    -0.362362417174E+03   -0.18768E-07   -0.10679E-04 28744   0.365E-02    0.344E-02
DAV:   6    -0.362362429300E+03   -0.12126E-04   -0.20548E-05 18392   0.200E-02    0.242E-02
DAV:   7    -0.362362437580E+03   -0.82803E-05   -0.15196E-05 15240   0.136E-02
   4 F= -.36236244E+03 E0= -.36236244E+03  d E =-.124532E-02  mag=     8.0000
       N       E                     dE             d eps       ncg     rms          rms(c)
DAV:   1    -0.362362391680E+03    0.37620E-04   -0.10221E-02 25208   0.385E-01    0.679E-02
DAV:   2    -0.362362452496E+03   -0.60816E-04   -0.83977E-04 25352   0.804E-02    0.256E-02
DAV:   3    -0.362362454774E+03   -0.22782E-05   -0.29195E-05 21520   0.189E-02    0.143E-02
DAV:   4    -0.362362469298E+03   -0.14524E-04   -0.56119E-06 15024   0.987E-03    0.759E-03
DAV:   5    -0.362362467386E+03    0.19125E-05   -0.30371E-06 13576   0.674E-03    0.335E-03
DAV:   6    -0.362362468654E+03   -0.12680E-05   -0.97509E-07 13248   0.429E-03
   5 F= -.36236247E+03 E0= -.36236247E+03  d E =-.127639E-02  mag=     8.0000
       N       E                     dE             d eps       ncg     rms          rms(c)
DAV:   1    -0.362360527931E+03    0.19395E-02   -0.47545E-01 24240   0.262E+00    0.346E-01
DAV:   2    -0.362363731598E+03   -0.32037E-02   -0.37398E-02 24904   0.534E-01    0.149E-01
DAV:   3    -0.362363808095E+03   -0.76497E-04   -0.11394E-03 29704   0.109E-01    0.881E-02
DAV:   4    -0.362363686087E+03    0.12201E-03   -0.14287E-04 30360   0.451E-02    0.476E-02
DAV:   5    -0.362363676282E+03    0.98052E-05   -0.51521E-05 26504   0.256E-02    0.179E-02
DAV:   6    -0.362363692467E+03   -0.16185E-04   -0.92338E-06 16072   0.127E-02    0.110E-02
DAV:   7    -0.362363687882E+03    0.45856E-05   -0.51596E-06 14776   0.867E-03
   6 F= -.36236369E+03 E0= -.36236369E+03  d E =-.121923E-02  mag=     8.0000
       N       E                     dE             d eps       ncg     rms          rms(c)
DAV:   1    -0.362363359718E+03    0.33275E-03   -0.74021E-02 24728   0.103E+00    0.136E-01
DAV:   2    -0.362363850683E+03   -0.49097E-03   -0.58237E-03 24936   0.209E-01    0.586E-02
DAV:   3    -0.362363869552E+03   -0.18869E-04   -0.17685E-04 28800   0.427E-02    0.347E-02
DAV:   4    -0.362363824714E+03    0.44838E-04   -0.19467E-05 20784   0.177E-02    0.191E-02
DAV:   5    -0.362363820188E+03    0.45262E-05   -0.11413E-05 15432   0.127E-02    0.737E-03
DAV:   6    -0.362363827710E+03   -0.75219E-05   -0.29551E-06 14336   0.746E-03
   7 F= -.36236383E+03 E0= -.36236383E+03  d E =-.135906E-02  mag=     8.0000
       N       E                     dE             d eps       ncg     rms          rms(c)
DAV:   1    -0.362362615588E+03    0.12046E-02   -0.53269E-01 24056   0.261E+00    0.388E-01
DAV:   2    -0.362364683847E+03   -0.20683E-02   -0.29708E-02 25272   0.509E-01    0.151E-01
DAV:   3    -0.362364670119E+03    0.13728E-04   -0.95096E-04 30448   0.108E-01    0.878E-02
DAV:   4    -0.362364574098E+03    0.96020E-04   -0.16081E-04 29328   0.484E-02    0.473E-02
DAV:   5    -0.362364565008E+03    0.90909E-05   -0.50719E-05 26928   0.260E-02    0.200E-02
DAV:   6    -0.362364569292E+03   -0.42839E-05   -0.82599E-06 15280   0.120E-02
   8 F= -.36236457E+03 E0= -.36236457E+03  d E =-.741582E-03  mag=     8.0000
       N       E                     dE             d eps       ncg     rms          rms(c)
DAV:   1    -0.362364556880E+03    0.81279E-05   -0.46827E-04 25264   0.781E-02    0.117E-02
DAV:   2    -0.362364575991E+03   -0.19111E-04   -0.24629E-05 18200   0.159E-02    0.643E-03
DAV:   3    -0.362364568545E+03    0.74461E-05   -0.23770E-06 13496   0.636E-03    0.401E-03
DAV:   4    -0.362364574223E+03   -0.56784E-05   -0.83824E-07 13248   0.364E-03    0.276E-03
DAV:   5    -0.362364574350E+03   -0.12638E-06   -0.33166E-07 13248   0.232E-03    0.205E-03
DAV:   6    -0.362364574696E+03   -0.34607E-06   -0.20386E-07 13248   0.152E-03
   9 F= -.36236457E+03 E0= -.36236457E+03  d E =-.746986E-03  mag=     8.0000
       N       E                     dE             d eps       ncg     rms          rms(c)
DAV:   1    -0.362364577681E+03   -0.33310E-05   -0.34440E-01 24008   0.198E+00    0.228E-01
DAV:   2    -0.362365300072E+03   -0.72239E-03   -0.14267E-02 25432   0.371E-01    0.927E-02
DAV:   3    -0.362365295063E+03    0.50095E-05   -0.43200E-04 31376   0.718E-02    0.568E-02
DAV:   4    -0.362365243438E+03    0.51625E-04   -0.68992E-05 27760   0.317E-02    0.292E-02
DAV:   5    -0.362365239126E+03    0.43122E-05   -0.28545E-05 19840   0.194E-02    0.113E-02
DAV:   6    -0.362365240783E+03   -0.16570E-05   -0.58378E-06 14928   0.106E-02
  10 F= -.36236524E+03 E0= -.36236524E+03  d E =-.666087E-03  mag=     8.0000
       N       E                     dE             d eps       ncg     rms          rms(c)
DAV:   1    -0.362365116826E+03    0.12230E-03   -0.12553E-01 24128   0.120E+00    0.139E-01
DAV:   2    -0.362365367673E+03   -0.25085E-03   -0.52204E-03 25592   0.225E-01    0.560E-02
DAV:   3    -0.362365369113E+03   -0.14399E-05   -0.15702E-04 31256   0.434E-02    0.343E-02
DAV:   4    -0.362365343137E+03    0.25975E-04   -0.24080E-05 19864   0.194E-02    0.180E-02
DAV:   5    -0.362365343478E+03   -0.34093E-06   -0.13598E-05 15056   0.137E-02    0.749E-03
DAV:   6    -0.362365343843E+03   -0.36431E-06   -0.33860E-06 14544   0.832E-03
  11 F= -.36236534E+03 E0= -.36236534E+03  d E =-.769147E-03  mag=     8.0000
       N       E                     dE             d eps       ncg     rms          rms(c)
DAV:   1    -0.362365648263E+03   -0.30478E-03   -0.15724E-01 24032   0.129E+00    0.124E-01
DAV:   2    -0.362365863607E+03   -0.21534E-03   -0.57364E-03 25088   0.237E-01    0.552E-02
DAV:   3    -0.362365867106E+03   -0.34991E-05   -0.16094E-04 31768   0.440E-02    0.352E-02
DAV:   4    -0.362365854112E+03    0.12995E-04   -0.26916E-05 21296   0.203E-02    0.200E-02
DAV:   5    -0.362365861868E+03   -0.77566E-05   -0.14100E-05 15216   0.142E-02    0.879E-03
DAV:   6    -0.362365862850E+03   -0.98167E-06   -0.37203E-06 14416   0.850E-03
  12 F= -.36236586E+03 E0= -.36236586E+03  d E =-.519007E-03  mag=     8.0000
       N       E                     dE             d eps       ncg     rms          rms(c)
DAV:   1    -0.362364420723E+03    0.14411E-02   -0.14153E+00 23904   0.388E+00    0.376E-01
DAV:   2    -0.362366742806E+03   -0.23221E-02   -0.51586E-02 25128   0.712E-01    0.165E-01
DAV:   3    -0.362366689806E+03    0.53001E-04   -0.14413E-03 32128   0.132E-01    0.104E-01
DAV:   4    -0.362366617860E+03    0.71946E-04   -0.25043E-04 29568   0.595E-02    0.599E-02
DAV:   5    -0.362366643468E+03   -0.25608E-04   -0.11749E-04 27768   0.378E-02    0.263E-02
DAV:   6    -0.362366646523E+03   -0.30547E-05   -0.19410E-05 16960   0.185E-02
  13 F= -.36236665E+03 E0= -.36236665E+03  d E =-.130268E-02  mag=     8.0000
       N       E                     dE             d eps       ncg     rms          rms(c)
DAV:   1    -0.362366555083E+03    0.88385E-04   -0.91018E-02 24128   0.983E-01    0.102E-01
DAV:   2    -0.362366674912E+03   -0.11983E-03   -0.33583E-03 25584   0.182E-01    0.423E-02
DAV:   3    -0.362366679231E+03   -0.43188E-05   -0.90813E-05 30192   0.337E-02    0.265E-02
DAV:   4    -0.362366675955E+03    0.32760E-05   -0.15511E-05 16648   0.160E-02    0.162E-02
DAV:   5    -0.362366684385E+03   -0.84306E-05   -0.11394E-05 14944   0.124E-02    0.906E-03
DAV:   6    -0.362366687643E+03   -0.32583E-05   -0.36456E-06 14608   0.768E-03
  14 F= -.36236669E+03 E0= -.36236669E+03  d E =-.134380E-02  mag=     8.0000
       N       E                     dE             d eps       ncg     rms          rms(c)
DAV:   1    -0.362366983454E+03   -0.29907E-03   -0.31681E-01 23920   0.182E+00    0.214E-01
DAV:   2    -0.362367254328E+03   -0.27087E-03   -0.11267E-02 24568   0.343E-01    0.896E-02
DAV:   3    -0.362367281336E+03   -0.27008E-04   -0.37391E-04 31776   0.664E-02    0.556E-02
DAV:   4    -0.362367297993E+03   -0.16656E-04   -0.67241E-05 27640   0.318E-02    0.296E-02
DAV:   5    -0.362367315710E+03   -0.17717E-04   -0.24965E-05 17792   0.188E-02    0.138E-02
DAV:   6    -0.362367311349E+03    0.43610E-05   -0.65593E-06 15464   0.109E-02
  15 F= -.36236731E+03 E0= -.36236731E+03  d E =-.623705E-03  mag=     8.0000
       N       E                     dE             d eps       ncg     rms          rms(c)
DAV:   1    -0.362366949721E+03    0.36599E-03   -0.59609E-01 23904   0.250E+00    0.298E-01
DAV:   2    -0.362367538836E+03   -0.58912E-03   -0.21223E-02 24648   0.471E-01    0.123E-01
DAV:   3    -0.362367556529E+03   -0.17693E-04   -0.69769E-04 31584   0.909E-02    0.755E-02
DAV:   4    -0.362367571768E+03   -0.15239E-04   -0.12715E-04 29120   0.434E-02    0.395E-02
DAV:   5    -0.362367597601E+03   -0.25833E-04   -0.51465E-05 26640   0.249E-02    0.182E-02
DAV:   6    -0.362367593805E+03    0.37957E-05   -0.84655E-06 15032   0.128E-02
  16 F= -.36236759E+03 E0= -.36236759E+03  d E =-.906162E-03  mag=     8.0000
       N       E                     dE             d eps       ncg     rms          rms(c)
DAV:   1    -0.362367754417E+03   -0.15682E-03   -0.29288E-01 24224   0.177E+00    0.198E-01
DAV:   2    -0.362368050961E+03   -0.29654E-03   -0.10500E-02 25200   0.334E-01    0.844E-02
DAV:   3    -0.362368045607E+03    0.53546E-05   -0.35538E-04 31728   0.646E-02    0.528E-02
DAV:   4    -0.362368056296E+03   -0.10689E-04   -0.66861E-05 27264   0.310E-02    0.280E-02
DAV:   5    -0.362368073383E+03   -0.17087E-04   -0.24650E-05 17864   0.182E-02    0.131E-02
DAV:   6    -0.362368078110E+03   -0.47272E-05   -0.62430E-06 15496   0.108E-02
  17 F= -.36236808E+03 E0= -.36236808E+03  d E =-.484305E-03  mag=     8.0000
       N       E                     dE             d eps       ncg     rms          rms(c)
DAV:   1    -0.362367998388E+03    0.74995E-04   -0.15440E-01 24280   0.129E+00    0.143E-01
DAV:   2    -0.362368134678E+03   -0.13629E-03   -0.55344E-03 25216   0.242E-01    0.617E-02
DAV:   3    -0.362368137620E+03   -0.29418E-05   -0.18787E-04 31800   0.470E-02    0.387E-02
DAV:   4    -0.362368150103E+03   -0.12483E-04   -0.34379E-05 23208   0.227E-02    0.203E-02
DAV:   5    -0.362368162190E+03   -0.12087E-04   -0.14077E-05 15240   0.140E-02    0.985E-03
DAV:   6    -0.362368166334E+03   -0.41433E-05   -0.38050E-06 14664   0.873E-03
  18 F= -.36236817E+03 E0= -.36236817E+03  d E =-.572528E-03  mag=     8.0000
       N       E                     dE             d eps       ncg     rms          rms(c)
DAV:   1    -0.362368212084E+03   -0.49893E-04   -0.71518E-02 24272   0.928E-01    0.120E-01
DAV:   2    -0.362368372015E+03   -0.15993E-03   -0.31161E-03 24824   0.177E-01    0.512E-02
DAV:   3    -0.362368370540E+03    0.14750E-05   -0.10205E-04 29544   0.348E-02    0.320E-02
DAV:   4    -0.362368344884E+03    0.25656E-04   -0.15910E-05 18064   0.169E-02    0.166E-02
DAV:   5    -0.362368360877E+03   -0.15994E-04   -0.10410E-05 14952   0.120E-02    0.767E-03
DAV:   6    -0.362368369047E+03   -0.81691E-05   -0.28823E-06 13912   0.738E-03
  19 F= -.36236837E+03 E0= -.36236837E+03  d E =-.202713E-03  mag=     8.0000
       N       E                     dE             d eps       ncg     rms          rms(c)
DAV:   1    -0.362368320152E+03    0.40725E-04   -0.40801E-02 24320   0.700E-01    0.915E-02
DAV:   2    -0.362368410968E+03   -0.90816E-04   -0.17770E-03 24928   0.133E-01    0.388E-02
DAV:   3    -0.362368409452E+03    0.15158E-05   -0.56659E-05 27360   0.263E-02    0.240E-02
DAV:   4    -0.362368389833E+03    0.19619E-04   -0.10025E-05 15904   0.139E-02    0.126E-02
DAV:   5    -0.362368404308E+03   -0.14475E-04   -0.67302E-06 14856   0.966E-03    0.597E-03
DAV:   6    -0.362368406843E+03   -0.25349E-05   -0.19540E-06 13448   0.606E-03
  20 F= -.36236841E+03 E0= -.36236841E+03  d E =-.240510E-03  mag=     8.0000
       N       E                     dE             d eps       ncg     rms          rms(c)
DAV:   1    -0.362368319089E+03    0.85219E-04   -0.62048E-02 23968   0.938E-01    0.107E-01
DAV:   2    -0.362368616736E+03   -0.29765E-03   -0.37321E-03 24248   0.182E-01    0.461E-02
DAV:   3    -0.362368624302E+03   -0.75656E-05   -0.11288E-04 28360   0.358E-02    0.276E-02
DAV:   4    -0.362368619139E+03    0.51626E-05   -0.12956E-05 18560   0.151E-02    0.162E-02
DAV:   5    -0.362368624045E+03   -0.49056E-05   -0.93742E-06 14968   0.114E-02    0.699E-03
DAV:   6    -0.362368628400E+03   -0.43557E-05   -0.25311E-06 13600   0.697E-03
  21 F= -.36236863E+03 E0= -.36236863E+03  d E =-.221557E-03  mag=     8.0000
       N       E                     dE             d eps       ncg     rms          rms(c)
DAV:   1    -0.362367917395E+03    0.70665E-03   -0.17829E-01 23912   0.159E+00    0.183E-01
DAV:   2    -0.362368751362E+03   -0.83397E-03   -0.10715E-02 24256   0.308E-01    0.772E-02
DAV:   3    -0.362368773305E+03   -0.21943E-04   -0.32797E-04 29832   0.609E-02    0.458E-02
DAV:   4    -0.362368762044E+03    0.11260E-04   -0.42611E-05 27480   0.248E-02    0.287E-02
DAV:   5    -0.362368767374E+03   -0.53293E-05   -0.15885E-05 16768   0.156E-02    0.116E-02
DAV:   6    -0.362368777773E+03   -0.10400E-04   -0.43992E-06 14840   0.944E-03    0.843E-03
DAV:   7    -0.362368779867E+03   -0.20932E-05   -0.28856E-06 13512   0.644E-03
  22 F= -.36236878E+03 E0= -.36236878E+03  d E =-.373023E-03  mag=     8.0000
       N       E                     dE             d eps       ncg     rms          rms(c)
DAV:   1    -0.362368701507E+03    0.76266E-04   -0.43352E-02 24136   0.797E-01    0.844E-02
DAV:   2    -0.362368940679E+03   -0.23917E-03   -0.28504E-03 24192   0.155E-01    0.405E-02
DAV:   3    -0.362368946444E+03   -0.57644E-05   -0.78145E-05 26656   0.292E-02    0.254E-02
DAV:   4    -0.362368959193E+03   -0.12750E-04   -0.85407E-06 17344   0.127E-02    0.140E-02
DAV:   5    -0.362368958801E+03    0.39201E-06   -0.63143E-06 13920   0.966E-03    0.463E-03
DAV:   6    -0.362368957923E+03    0.87860E-06   -0.16642E-06 13240   0.574E-03
  23 F= -.36236896E+03 E0= -.36236896E+03  d E =-.178056E-03  mag=     8.0000
       N       E                     dE             d eps       ncg     rms          rms(c)
DAV:   1    -0.362368189203E+03    0.76960E-03   -0.16079E-01 24072   0.153E+00    0.163E-01
DAV:   2    -0.362369060214E+03   -0.87101E-03   -0.10584E-02 23912   0.298E-01    0.782E-02
DAV:   3    -0.362369085128E+03   -0.24914E-04   -0.29659E-04 29456   0.566E-02    0.487E-02
DAV:   4    -0.362369108501E+03   -0.23373E-04   -0.33971E-05 24312   0.231E-02    0.267E-02
DAV:   5    -0.362369111136E+03   -0.26351E-05   -0.16903E-05 16936   0.159E-02    0.785E-03
DAV:   6    -0.362369106735E+03    0.44010E-05   -0.40151E-06 14360   0.911E-03
  24 F= -.36236911E+03 E0= -.36236911E+03  d E =-.326868E-03  mag=     8.0000
       N       E                     dE             d eps       ncg     rms          rms(c)
DAV:   1    -0.362369124755E+03   -0.13619E-04   -0.21284E-02 24168   0.536E-01    0.865E-02
DAV:   2    -0.362369213788E+03   -0.89033E-04   -0.12659E-03 25016   0.105E-01    0.310E-02
DAV:   3    -0.362369220169E+03   -0.63805E-05   -0.41515E-05 24440   0.228E-02    0.172E-02
DAV:   4    -0.362369216016E+03    0.41527E-05   -0.79914E-06 16360   0.115E-02    0.935E-03
DAV:   5    -0.362369217210E+03   -0.11943E-05   -0.39061E-06 14560   0.769E-03    0.429E-03
DAV:   6    -0.362369219451E+03   -0.22403E-05   -0.13342E-06 13280   0.487E-03
  25 F= -.36236922E+03 E0= -.36236922E+03  d E =-.112716E-03  mag=     8.0000
       N       E                     dE             d eps       ncg     rms          rms(c)
DAV:   1    -0.362369132378E+03    0.84832E-04   -0.28719E-02 24048   0.621E-01    0.101E-01
DAV:   2    -0.362369259136E+03   -0.12676E-03   -0.17184E-03 25096   0.122E-01    0.376E-02
DAV:   3    -0.362369264283E+03   -0.51471E-05   -0.59741E-05 27760   0.263E-02    0.202E-02
DAV:   4    -0.362369260141E+03    0.41418E-05   -0.78778E-06 17096   0.114E-02    0.118E-02
DAV:   5    -0.362369260819E+03   -0.67834E-06   -0.39182E-06 14936   0.776E-03    0.435E-03
DAV:   6    -0.362369262505E+03   -0.16855E-05   -0.12414E-06 13544   0.485E-03
  26 F= -.36236926E+03 E0= -.36236926E+03  d E =-.155770E-03  mag=     8.0000
       N       E                     dE             d eps       ncg     rms          rms(c)
DAV:   1    -0.362369242874E+03    0.17946E-04   -0.31772E-02 23976   0.632E-01    0.792E-02
DAV:   2    -0.362369361593E+03   -0.11872E-03   -0.17273E-03 24848   0.122E-01    0.350E-02
DAV:   3    -0.362369370871E+03   -0.92779E-05   -0.52391E-05 25704   0.245E-02    0.216E-02
DAV:   4    -0.362369359571E+03    0.11300E-04   -0.81662E-06 16320   0.124E-02    0.110E-02
DAV:   5    -0.362369362448E+03   -0.28776E-05   -0.51463E-06 14640   0.882E-03    0.397E-03
DAV:   6    -0.362369365836E+03   -0.33879E-05   -0.14810E-06 13280   0.541E-03
  27 F= -.36236937E+03 E0= -.36236937E+03  d E =-.103331E-03  mag=     8.0000
       N       E                     dE             d eps       ncg     rms          rms(c)
DAV:   1    -0.362369249830E+03    0.11262E-03   -0.38594E-02 23952   0.700E-01    0.875E-02
DAV:   2    -0.362369395174E+03   -0.14534E-03   -0.21024E-03 24920   0.135E-01    0.387E-02
DAV:   3    -0.362369405790E+03   -0.10616E-04   -0.66503E-05 27704   0.272E-02    0.238E-02
DAV:   4    -0.362369393028E+03    0.12762E-04   -0.84649E-06 16592   0.127E-02    0.126E-02
DAV:   5    -0.362369396286E+03   -0.32579E-05   -0.57483E-06 14928   0.924E-03    0.424E-03
DAV:   6    -0.362369399762E+03   -0.34760E-05   -0.15695E-06 13424   0.564E-03
  28 F= -.36236940E+03 E0= -.36236940E+03  d E =-.137257E-03  mag=     8.0000
       N       E                     dE             d eps       ncg     rms          rms(c)
DAV:   1    -0.362369432899E+03   -0.36613E-04   -0.37459E-02 23936   0.647E-01    0.787E-02
DAV:   2    -0.362369503964E+03   -0.71064E-04   -0.16243E-03 24784   0.121E-01    0.310E-02
DAV:   3    -0.362369508329E+03   -0.43656E-05   -0.48601E-05 26784   0.237E-02    0.185E-02
DAV:   4    -0.362369513618E+03   -0.52883E-05   -0.67436E-06 15520   0.113E-02    0.104E-02
DAV:   5    -0.362369514768E+03   -0.11508E-05   -0.55019E-06 13856   0.899E-03    0.407E-03
DAV:   6    -0.362369512144E+03    0.26241E-05   -0.15366E-06 13248   0.550E-03
  29 F= -.36236951E+03 E0= -.36236951E+03  d E =-.112382E-03  mag=     8.0000
       N       E                     dE             d eps       ncg     rms          rms(c)
DAV:   1    -0.362369151497E+03    0.36327E-03   -0.19826E-01 23904   0.149E+00    0.187E-01
DAV:   2    -0.362369577755E+03   -0.42626E-03   -0.85881E-03 24848   0.278E-01    0.715E-02
DAV:   3    -0.362369587154E+03   -0.93992E-05   -0.26845E-04 30976   0.546E-02    0.418E-02
DAV:   4    -0.362369593142E+03   -0.59877E-05   -0.35823E-05 25848   0.227E-02    0.247E-02
DAV:   5    -0.362369598505E+03   -0.53630E-05   -0.17194E-05 16336   0.161E-02    0.984E-03
DAV:   6    -0.362369591112E+03    0.73924E-05   -0.44171E-06 14712   0.912E-03
  30 F= -.36236959E+03 E0= -.36236959E+03  d E =-.191350E-03  mag=     8.0000
       N       E                     dE             d eps       ncg     rms          rms(c)
DAV:   1    -0.362369627482E+03   -0.28977E-04   -0.61677E-02 23840   0.773E-01    0.969E-02
DAV:   2    -0.362369682037E+03   -0.54555E-04   -0.21934E-03 25064   0.144E-01    0.372E-02
DAV:   3    -0.362369687260E+03   -0.52222E-05   -0.66106E-05 29056   0.274E-02    0.230E-02
DAV:   4    -0.362369695274E+03   -0.80144E-05   -0.99763E-06 15488   0.135E-02    0.126E-02
DAV:   5    -0.362369690863E+03    0.44115E-05   -0.74191E-06 14472   0.101E-02    0.527E-03
DAV:   6    -0.362369689013E+03    0.18496E-05   -0.18275E-06 13352   0.618E-03
  31 F= -.36236969E+03 E0= -.36236969E+03  d E =-.979007E-04  mag=     8.0000
       N       E                     dE             d eps       ncg     rms          rms(c)
DAV:   1    -0.362369659537E+03    0.31326E-04   -0.52743E-02 23840   0.715E-01    0.894E-02
DAV:   2    -0.362369703079E+03   -0.43542E-04   -0.18734E-03 25112   0.133E-01    0.345E-02
DAV:   3    -0.362369709621E+03   -0.65414E-05   -0.55871E-05 28584   0.253E-02    0.214E-02
DAV:   4    -0.362369716811E+03   -0.71898E-05   -0.87759E-06 15128   0.128E-02    0.116E-02
DAV:   5    -0.362369713425E+03    0.33859E-05   -0.64414E-06 14400   0.949E-03    0.478E-03
DAV:   6    -0.362369711352E+03    0.20726E-05   -0.16139E-06 13304   0.583E-03
  32 F= -.36236971E+03 E0= -.36236971E+03  d E =-.120240E-03  mag=     8.0000
       N       E                     dE             d eps       ncg     rms          rms(c)
DAV:   1    -0.362369809587E+03   -0.96163E-04   -0.65602E-02 24200   0.765E-01    0.745E-02
DAV:   2    -0.362369849268E+03   -0.39681E-04   -0.19886E-03 25568   0.140E-01    0.336E-02
DAV:   3    -0.362369842217E+03    0.70512E-05   -0.61142E-05 29552   0.265E-02    0.220E-02
DAV:   4    -0.362369840123E+03    0.20942E-05   -0.10183E-05 15504   0.132E-02    0.123E-02
DAV:   5    -0.362369836422E+03    0.37006E-05   -0.82563E-06 14480   0.107E-02    0.503E-03
DAV:   6    -0.362369834192E+03    0.22298E-05   -0.19319E-06 13280   0.641E-03
  33 F= -.36236983E+03 E0= -.36236983E+03  d E =-.122840E-03  mag=     8.0000
       N       E                     dE             d eps       ncg     rms          rms(c)
DAV:   1    -0.362369812655E+03    0.23767E-04   -0.17849E-01 24192   0.126E+00    0.125E-01
DAV:   2    -0.362369940693E+03   -0.12804E-03   -0.54090E-03 25656   0.231E-01    0.557E-02
DAV:   3    -0.362369920989E+03    0.19704E-04   -0.16858E-04 31336   0.435E-02    0.362E-02
DAV:   4    -0.362369914536E+03    0.64533E-05   -0.30587E-05 21296   0.213E-02    0.198E-02
DAV:   5    -0.362369909672E+03    0.48640E-05   -0.14850E-05 15272   0.145E-02    0.805E-03
DAV:   6    -0.362369904408E+03    0.52641E-05   -0.35846E-06 14656   0.868E-03
  34 F= -.36236990E+03 E0= -.36236990E+03  d E =-.193056E-03  mag=     8.0000
       N       E                     dE             d eps       ncg     rms          rms(c)
DAV:   1    -0.362369967261E+03   -0.57589E-04   -0.92885E-02 24184   0.893E-01    0.117E-01
DAV:   2    -0.362370019428E+03   -0.52167E-04   -0.26671E-03 25496   0.161E-01    0.412E-02
DAV:   3    -0.362370004072E+03    0.15356E-04   -0.75030E-05 29680   0.291E-02    0.250E-02
DAV:   4    -0.362369993793E+03    0.10279E-04   -0.11905E-05 15888   0.140E-02    0.137E-02
DAV:   5    -0.362369991494E+03    0.22992E-05   -0.98617E-06 14896   0.115E-02    0.546E-03
DAV:   6    -0.362369989854E+03    0.16403E-05   -0.22476E-06 13352   0.669E-03
  35 F= -.36236999E+03 E0= -.36236999E+03  d E =-.854457E-04  mag=     8.0000
       N       E                     dE             d eps       ncg     rms          rms(c)
DAV:   1    -0.362369994300E+03   -0.28063E-05   -0.68478E-03 24320   0.242E-01    0.325E-02
DAV:   2    -0.362369994965E+03   -0.66497E-06   -0.19841E-04 25768   0.435E-02    0.115E-02
DAV:   3    -0.362369993408E+03    0.15570E-05   -0.42629E-06 14480   0.802E-03    0.716E-03
DAV:   4    -0.362369991108E+03    0.23000E-05   -0.18951E-06 13248   0.548E-03    0.343E-03
DAV:   5    -0.362369990527E+03    0.58114E-06   -0.10581E-06 13224   0.398E-03    0.183E-03
DAV:   6    -0.362369989789E+03    0.73772E-06   -0.37411E-07 13248   0.252E-03
  36 F= -.36236999E+03 E0= -.36236999E+03  d E =-.853814E-04  mag=     8.0000
       N       E                     dE             d eps       ncg     rms          rms(c)
DAV:   1    -0.362370035055E+03   -0.44528E-04   -0.34676E-02 23824   0.586E-01    0.688E-02
DAV:   2    -0.362370056867E+03   -0.21812E-04   -0.11587E-03 25136   0.108E-01    0.257E-02
DAV:   3    -0.362370057342E+03   -0.47504E-06   -0.33618E-05 25880   0.207E-02    0.156E-02
DAV:   4    -0.362370064909E+03   -0.75668E-05   -0.62764E-06 14952   0.107E-02    0.849E-03
DAV:   5    -0.362370059799E+03    0.51104E-05   -0.43537E-06 14040   0.801E-03    0.343E-03
DAV:   6    -0.362370059256E+03    0.54295E-06   -0.12442E-06 13256   0.488E-03
  37 F= -.36237006E+03 E0= -.36237006E+03  d E =-.694667E-04  mag=     8.0000
       N       E                     dE             d eps       ncg     rms          rms(c)
DAV:   1    -0.362370029742E+03    0.30057E-04   -0.69912E-02 23824   0.832E-01    0.991E-02
DAV:   2    -0.362370084907E+03   -0.55166E-04   -0.23341E-03 25264   0.153E-01    0.370E-02
DAV:   3    -0.362370083971E+03    0.93620E-06   -0.72652E-05 29840   0.293E-02    0.221E-02
DAV:   4    -0.362370094414E+03   -0.10443E-04   -0.93683E-06 15392   0.128E-02    0.130E-02
DAV:   5    -0.362370086708E+03    0.77059E-05   -0.74439E-06 14960   0.101E-02    0.505E-03
DAV:   6    -0.362370086423E+03    0.28564E-06   -0.18854E-06 13760   0.601E-03
  38 F= -.36237009E+03 E0= -.36237009E+03  d E =-.966333E-04  mag=     8.0000
       N       E                     dE             d eps       ncg     rms          rms(c)
DAV:   1    -0.362370113064E+03   -0.26356E-04   -0.27029E-02 23352   0.520E-01    0.505E-02
DAV:   2    -0.362370125029E+03   -0.11965E-04   -0.93525E-04 25376   0.962E-02    0.222E-02
DAV:   3    -0.362370132119E+03   -0.70897E-05   -0.25245E-05 23632   0.181E-02    0.140E-02
DAV:   4    -0.362370140783E+03   -0.86647E-05   -0.59598E-06 14944   0.102E-02    0.693E-03
DAV:   5    -0.362370138590E+03    0.21930E-05   -0.39941E-06 13976   0.756E-03    0.270E-03
DAV:   6    -0.362370139136E+03   -0.54563E-06   -0.11380E-06 13264   0.463E-03
  39 F= -.36237014E+03 E0= -.36237014E+03  d E =-.527135E-04  mag=     8.0000
       N       E                     dE             d eps       ncg     rms          rms(c)
DAV:   1    -0.362370109876E+03    0.28715E-04   -0.44599E-02 23336   0.668E-01    0.650E-02
DAV:   2    -0.362370141313E+03   -0.31437E-04   -0.15478E-03 25408   0.124E-01    0.290E-02
DAV:   3    -0.362370149296E+03   -0.79832E-05   -0.47426E-05 28184   0.233E-02    0.183E-02
DAV:   4    -0.362370159695E+03   -0.10399E-04   -0.62601E-06 15040   0.110E-02    0.958E-03
DAV:   5    -0.362370156733E+03    0.29617E-05   -0.58539E-06 14656   0.883E-03    0.357E-03
DAV:   6    -0.362370157178E+03   -0.44434E-06   -0.14029E-06 13360   0.523E-03
  40 F= -.36237016E+03 E0= -.36237016E+03  d E =-.707550E-04  mag=     8.0000
       N       E                     dE             d eps       ncg     rms          rms(c)
DAV:   1    -0.362370172661E+03   -0.15928E-04   -0.11992E-02 24240   0.349E-01    0.500E-02
DAV:   2    -0.362370168045E+03    0.46163E-05   -0.40308E-04 24976   0.646E-02    0.173E-02
DAV:   3    -0.362370173314E+03   -0.52696E-05   -0.10521E-05 19216   0.129E-02    0.102E-02
DAV:   4    -0.362370180343E+03   -0.70290E-05   -0.42620E-06 14400   0.850E-03    0.521E-03
DAV:   5    -0.362370181631E+03   -0.12879E-05   -0.22295E-06 13232   0.582E-03    0.254E-03
DAV:   6    -0.362370181797E+03   -0.16603E-06   -0.77525E-07 13248   0.369E-03
  41 F= -.36237018E+03 E0= -.36237018E+03  d E =-.246197E-04  mag=     8.0000
       N       E                     dE             d eps       ncg     rms          rms(c)
DAV:   1    -0.362370174924E+03    0.67071E-05   -0.16366E-02 24208   0.408E-01    0.597E-02
DAV:   2    -0.362370173637E+03    0.12867E-05   -0.55357E-04 25176   0.762E-02    0.207E-02
DAV:   3    -0.362370179338E+03   -0.57005E-05   -0.15656E-05 21008   0.152E-02    0.118E-02
DAV:   4    -0.362370188092E+03   -0.87536E-05   -0.51725E-06 14840   0.952E-03    0.604E-03
DAV:   5    -0.362370187861E+03    0.23063E-06   -0.27717E-06 13392   0.655E-03    0.281E-03
DAV:   6    -0.362370190211E+03   -0.23502E-05   -0.92440E-07 13248   0.413E-03
  42 F= -.36237019E+03 E0= -.36237019E+03  d E =-.330334E-04  mag=     8.0000
       N       E                     dE             d eps       ncg     rms          rms(c)
DAV:   1    -0.362370198254E+03   -0.10393E-04   -0.11786E-02 23944   0.374E-01    0.435E-02
DAV:   2    -0.362370197653E+03    0.60090E-06   -0.50219E-04 24488   0.730E-02    0.189E-02
DAV:   3    -0.362370212209E+03   -0.14556E-04   -0.13819E-05 20416   0.141E-02    0.112E-02
DAV:   4    -0.362370223897E+03   -0.11688E-04   -0.46022E-06 14336   0.893E-03    0.523E-03
DAV:   5    -0.362370223978E+03   -0.81229E-07   -0.22466E-06 13248   0.586E-03    0.254E-03
DAV:   6    -0.362370224709E+03   -0.73082E-06   -0.73600E-07 13248   0.363E-03
  43 F= -.36237022E+03 E0= -.36237022E+03  d E =-.344979E-04  mag=     8.0000
       N       E                     dE             d eps       ncg     rms          rms(c)
DAV:   1    -0.362370196927E+03    0.27051E-04   -0.21455E-02 23904   0.505E-01    0.583E-02
DAV:   2    -0.362370205613E+03   -0.86856E-05   -0.91274E-04 24544   0.984E-02    0.257E-02
DAV:   3    -0.362370224526E+03   -0.18914E-04   -0.26305E-05 22552   0.190E-02    0.152E-02
DAV:   4    -0.362370239633E+03   -0.15106E-04   -0.75259E-06 14952   0.115E-02    0.718E-03
DAV:   5    -0.362370240128E+03   -0.49569E-06   -0.39295E-06 13344   0.769E-03    0.352E-03
DAV:   6    -0.362370240967E+03   -0.83911E-06   -0.12216E-06 13248   0.475E-03
  44 F= -.36237024E+03 E0= -.36237024E+03  d E =-.507563E-04  mag=     8.0000
       N       E                     dE             d eps       ncg     rms          rms(c)
DAV:   1    -0.362370240456E+03   -0.32807E-06   -0.10509E-02 23768   0.362E-01    0.401E-02
DAV:   2    -0.362370243855E+03   -0.33985E-05   -0.47787E-04 24256   0.709E-02    0.177E-02
DAV:   3    -0.362370257777E+03   -0.13923E-04   -0.12980E-05 20288   0.135E-02    0.111E-02
DAV:   4    -0.362370270467E+03   -0.12689E-04   -0.41900E-06 13840   0.847E-03    0.515E-03
DAV:   5    -0.362370269464E+03    0.10026E-05   -0.21590E-06 13240   0.570E-03    0.267E-03
DAV:   6    -0.362370270750E+03   -0.12861E-05   -0.72060E-07 13232   0.357E-03
  45 F= -.36237027E+03 E0= -.36237027E+03  d E =-.297826E-04  mag=     8.0000
       N       E                     dE             d eps       ncg     rms          rms(c)
DAV:   1    -0.362370236166E+03    0.33298E-04   -0.17274E-02 23840   0.464E-01    0.525E-02
DAV:   2    -0.362370250928E+03   -0.14762E-04   -0.77922E-04 24304   0.907E-02    0.230E-02
DAV:   3    -0.362370266497E+03   -0.15568E-04   -0.21529E-05 22008   0.172E-02    0.143E-02
DAV:   4    -0.362370282258E+03   -0.15761E-04   -0.64701E-06 14728   0.106E-02    0.657E-03
DAV:   5    -0.362370282023E+03    0.23452E-06   -0.33569E-06 13248   0.708E-03    0.339E-03
DAV:   6    -0.362370282946E+03   -0.92300E-06   -0.10796E-06 13248   0.440E-03
  46 F= -.36237028E+03 E0= -.36237028E+03  d E =-.419789E-04  mag=     8.0000
       N       E                     dE             d eps       ncg     rms          rms(c)
DAV:   1    -0.362370276719E+03    0.53039E-05   -0.11382E-02 23904   0.373E-01    0.514E-02
DAV:   2    -0.362370292762E+03   -0.16042E-04   -0.48396E-04 24680   0.711E-02    0.182E-02
DAV:   3    -0.362370296858E+03   -0.40967E-05   -0.12925E-05 20384   0.140E-02    0.107E-02
DAV:   4    -0.362370303981E+03   -0.71231E-05   -0.40666E-06 14648   0.837E-03    0.549E-03
DAV:   5    -0.362370303458E+03    0.52322E-06   -0.23007E-06 13352   0.597E-03    0.302E-03
DAV:   6    -0.362370304888E+03   -0.14297E-05   -0.78599E-07 13248   0.374E-03
  47 F= -.36237030E+03 E0= -.36237030E+03  d E =-.219415E-04  mag=     8.0000
