       N       E                     dE             d eps       ncg     rms          ort
DAV:   1     0.284823732820E+04    0.28482E+04   -0.15309E+05  6480   0.161E+03
DAV:   2    -0.197213911084E+03   -0.30455E+04   -0.28776E+04  6480   0.445E+02
DAV:   3    -0.518707794383E+03   -0.32149E+03   -0.31722E+03  6480   0.158E+02
DAV:   4    -0.531128603599E+03   -0.12421E+02   -0.12293E+02  6480   0.283E+01
DAV:   5    -0.531881354825E+03   -0.75275E+00   -0.75148E+00  6480   0.533E+00
SDA:   6    -0.341070281239E+03    0.19081E+03   -0.75148E+00  6480   0.522E+03 0.000E+00
CGA:   7    -0.404881511523E+03   -0.63811E+02   -0.65394E+02  6480   0.129E+03-0.145E+02
CGA:   8    -0.412975392527E+03   -0.80939E+01   -0.13731E+02  6480   0.237E+02 0.404E+01
CGA:   9    -0.415741404496E+03   -0.27660E+01   -0.16640E+01  6480   0.114E+02 0.164E+02
CGA:  10    -0.417131964333E+03   -0.13906E+01   -0.82178E+00  6480   0.583E+01 0.739E+01
CGA:  11    -0.419738364636E+03   -0.26064E+01   -0.25830E+01  6480   0.432E+01 0.912E-01
CGA:  12    -0.420882969008E+03   -0.11446E+01   -0.11798E+01  6480   0.950E+00-0.353E+00
CGA:  13    -0.421113390962E+03   -0.23042E+00   -0.22831E+00  6480   0.323E+00 0.136E-01
CGA:  14    -0.421202106953E+03   -0.88716E-01   -0.92096E-01  6480   0.115E+00-0.418E-01
CGA:  15    -0.421225512145E+03   -0.23405E-01   -0.23467E-01  6480   0.358E-01-0.227E-02
CGA:  16    -0.421236039891E+03   -0.10528E-01   -0.10106E-01  6480   0.130E-01 0.512E-02
CGA:  17    -0.421240325812E+03   -0.42859E-02   -0.41880E-02  6480   0.546E-02 0.135E-02
CGA:  18    -0.421241987920E+03   -0.16621E-02   -0.15982E-02  6480   0.196E-02 0.122E-02
CGA:  19    -0.421242700460E+03   -0.71254E-03   -0.67778E-03  6480   0.886E-03 0.515E-03
CGA:  20    -0.421240813150E+03    0.18873E-02   -0.10853E-02  6480   0.119E-01-0.305E-02
CGA:  21    -0.421243023944E+03   -0.22108E-02   -0.24395E-02  6480   0.156E-02 0.115E-02
CGA:  22    -0.421243416738E+03   -0.39279E-03   -0.45067E-03  6480   0.404E-03 0.457E-03
CGA:  23    -0.421243579457E+03   -0.16272E-03   -0.16793E-03  6480   0.167E-03 0.830E-04
CGA:  24    -0.421243614675E+03   -0.35217E-04   -0.47227E-04  6480   0.667E-04 0.817E-04
CGA:  25    -0.421243645539E+03   -0.30865E-04   -0.31690E-04  6480   0.354E-04 0.153E-04
CGA:  26    -0.421243717264E+03   -0.71724E-04    0.66054E-05  6480   0.201E-04-0.376E-05
CGA:  27    -0.421243731555E+03   -0.14292E-04    0.47212E-04  6480   0.103E-04-0.384E-05
CGA:  28    -0.421243729146E+03    0.24098E-05   -0.21725E-06  6480   0.909E-05 0.762E-05
   1 F= -.42124373E+03 E0= -.42124373E+03  d E =-.421244E+03  mag=    18.0000
       N       E                     dE             d eps       ncg     rms          ort
SDA:   1    -0.421260459954E+03   -0.16728E-01    0.00000E+00  6480   0.186E-02 0.000E+00
CGA:   2    -0.421260792174E+03   -0.33222E-03   -0.37805E-03  6480   0.457E-03 0.342E-03
CGA:   3    -0.421260917706E+03   -0.12553E-03   -0.12878E-03  6480   0.187E-03 0.350E-04
CGA:   4    -0.421260974794E+03   -0.57088E-04   -0.50160E-04  6480   0.134E-03-0.909E-04
CGA:   5    -0.421260994259E+03   -0.19465E-04   -0.12305E-04  6480   0.546E-04-0.503E-04
CGA:   6    -0.421260998405E+03   -0.41465E-05   -0.50672E-05  6480   0.305E-04 0.553E-05
   2 F= -.42126100E+03 E0= -.42126100E+03  d E =-.172693E-01  mag=    18.0000
       N       E                     dE             d eps       ncg     rms          ort
SDA:   1    -0.420648858393E+03    0.61214E+00    0.00000E+00  6480   0.388E+01 0.000E+00
CGA:   2    -0.421628760277E+03   -0.97990E+00   -0.98027E+00  6480   0.116E+01 0.105E-01
CGA:   3    -0.421879786619E+03   -0.25103E+00   -0.25076E+00  6480   0.420E+00-0.398E-02
CGA:   4    -0.421951640216E+03   -0.71854E-01   -0.71425E-01  6480   0.896E-01-0.366E-02
CGA:   5    -0.421968092529E+03   -0.16452E-01   -0.16394E-01  6480   0.278E-01-0.566E-03
CGA:   6    -0.421973761457E+03   -0.56689E-02   -0.56862E-02  6480   0.988E-02 0.226E-03
CGA:   7    -0.421976387834E+03   -0.26264E-02   -0.26270E-02  6480   0.472E-02 0.408E-04
CGA:   8    -0.421977772707E+03   -0.13849E-02   -0.13872E-02  6480   0.238E-02-0.143E-03
CGA:   9    -0.421978460097E+03   -0.68739E-03   -0.68882E-03  6480   0.985E-03-0.669E-04
CGA:  10    -0.421978765955E+03   -0.30586E-03   -0.30978E-03  6480   0.439E-03-0.867E-04
CGA:  11    -0.421978905083E+03   -0.13913E-03   -0.14442E-03  6480   0.237E-03-0.663E-04
CGA:  12    -0.421978960236E+03   -0.55153E-04   -0.55449E-04  6480   0.844E-04 0.361E-04
CGA:  13    -0.421978988958E+03   -0.28722E-04   -0.28633E-04  6480   0.345E-04 0.849E-05
CGA:  14    -0.421979003660E+03   -0.14702E-04   -0.16131E-04  6480   0.206E-04-0.102E-04
CGA:  15    -0.421979003354E+03    0.30550E-06   -0.14813E-05  6480   0.131E-04 0.943E-05
   3 F= -.42197900E+03 E0= -.42197900E+03  d E =-.718005E+00  mag=    18.0000
       N       E                     dE             d eps       ncg     rms          ort
SDA:   1    -0.415324171249E+03    0.66548E+01    0.00000E+00  6480   0.237E+02 0.000E+00
CGA:   2    -0.421216516308E+03   -0.58923E+01   -0.58924E+01  6480   0.666E+01-0.157E-01
CGA:   3    -0.422658581574E+03   -0.14421E+01   -0.14418E+01  6480   0.238E+01-0.121E-01
CGA:   4    -0.423068685112E+03   -0.41010E+00   -0.40961E+00  6480   0.536E+00-0.648E-02
CGA:   5    -0.423167664996E+03   -0.98980E-01   -0.98814E-01  6480   0.167E+00-0.184E-02
CGA:   6    -0.423203179050E+03   -0.35514E-01   -0.35504E-01  6480   0.647E-01-0.217E-03
CGA:   7    -0.423220229117E+03   -0.17050E-01   -0.17048E-01  6480   0.301E-01 0.205E-03
CGA:   8    -0.423228725742E+03   -0.84966E-02   -0.84857E-02  6480   0.140E-01 0.448E-03
CGA:   9    -0.423232762898E+03   -0.40372E-02   -0.40261E-02  6480   0.526E-02 0.428E-03
CGA:  10    -0.423234436702E+03   -0.16738E-02   -0.16709E-02  6480   0.218E-02 0.553E-04
CGA:  11    -0.423235172036E+03   -0.73533E-03   -0.73494E-03  6480   0.108E-02 0.400E-05
CGA:  12    -0.423235540562E+03   -0.36853E-03   -0.35941E-03  6480   0.458E-03 0.137E-03
CGA:  13    -0.423235716841E+03   -0.17628E-03   -0.17263E-03  6480   0.183E-03 0.551E-04
CGA:  14    -0.423235781428E+03   -0.64586E-04   -0.63418E-04  6480   0.609E-04 0.321E-04
CGA:  15    -0.423235794195E+03   -0.12767E-04   -0.14867E-04  6480   0.223E-04 0.315E-04
CGA:  16    -0.423235803407E+03   -0.92126E-05   -0.88302E-05  6480   0.974E-05 0.306E-05
   4 F= -.42323580E+03 E0= -.42323580E+03  d E =-.125680E+01  mag=    18.0000
       N       E                     dE             d eps       ncg     rms          ort
SDA:   1    -0.416832111915E+03    0.64037E+01    0.00000E+00  6480   0.222E+02 0.000E+00
CGA:   2    -0.422055187261E+03   -0.52231E+01   -0.52249E+01  6480   0.593E+01 0.157E-01
CGA:   3    -0.423362143951E+03   -0.13070E+01   -0.13064E+01  6480   0.222E+01-0.141E-01
CGA:   4    -0.423747122157E+03   -0.38498E+00   -0.38426E+00  6480   0.495E+00-0.883E-02
CGA:   5    -0.423835757547E+03   -0.88635E-01   -0.88637E-01  6480   0.145E+00 0.108E-03
CGA:   6    -0.423866236750E+03   -0.30479E-01   -0.30573E-01  6480   0.557E-01 0.160E-02
CGA:   7    -0.423881169261E+03   -0.14933E-01   -0.14931E-01  6480   0.267E-01 0.423E-03
CGA:   8    -0.423889294562E+03   -0.81253E-02   -0.81452E-02  6480   0.144E-01-0.507E-03
CGA:   9    -0.423893513437E+03   -0.42189E-02   -0.42293E-02  6480   0.594E-02-0.300E-03
CGA:  10    -0.423895289878E+03   -0.17764E-02   -0.17763E-02  6480   0.233E-02 0.167E-05
CGA:  11    -0.423896035110E+03   -0.74523E-03   -0.74251E-03  6480   0.103E-02 0.524E-04
CGA:  12    -0.423896414142E+03   -0.37903E-03   -0.37460E-03  6480   0.465E-03 0.526E-04
CGA:  13    -0.423896608309E+03   -0.19417E-03   -0.20467E-03  6480   0.239E-03-0.732E-04
CGA:  14    -0.423896676525E+03   -0.68216E-04   -0.69474E-04  6480   0.783E-04-0.200E-04
CGA:  15    -0.423896688679E+03   -0.12154E-04   -0.14387E-04  6480   0.272E-04 0.262E-04
CGA:  16    -0.423896693789E+03   -0.51096E-05   -0.64734E-05  6480   0.997E-05 0.132E-04
   5 F= -.42389669E+03 E0= -.42389669E+03  d E =-.660890E+00  mag=    18.0000
       N       E                     dE             d eps       ncg     rms          ort
SDA:   1    -0.417620886963E+03    0.62758E+01    0.00000E+00  6480   0.209E+02 0.000E+00
CGA:   2    -0.422448658826E+03   -0.48278E+01   -0.48309E+01  6480   0.567E+01 0.320E-01
CGA:   3    -0.423704553866E+03   -0.12559E+01   -0.12554E+01  6480   0.220E+01-0.104E-01
CGA:   4    -0.424084103034E+03   -0.37955E+00   -0.37892E+00  6480   0.471E+00-0.809E-02
CGA:   5    -0.424168296876E+03   -0.84194E-01   -0.84234E-01  6480   0.136E+00 0.406E-03
CGA:   6    -0.424196860568E+03   -0.28564E-01   -0.28694E-01  6480   0.523E-01 0.245E-02
CGA:   7    -0.424210738963E+03   -0.13878E-01   -0.13879E-01  6480   0.251E-01 0.109E-02
CGA:   8    -0.424218766390E+03   -0.80274E-02   -0.80552E-02  6480   0.147E-01-0.531E-03
CGA:   9    -0.424223123360E+03   -0.43570E-02   -0.43760E-02  6480   0.634E-02-0.466E-03
CGA:  10    -0.424224929295E+03   -0.18059E-02   -0.18023E-02  6480   0.234E-02 0.129E-03
CGA:  11    -0.424225638773E+03   -0.70948E-03   -0.70476E-03  6480   0.927E-03 0.172E-03
CGA:  12    -0.424225984320E+03   -0.34555E-03   -0.34099E-03  6480   0.423E-03 0.612E-04
CGA:  13    -0.424226167474E+03   -0.18315E-03   -0.20028E-03  6480   0.256E-03-0.100E-03
CGA:  14    -0.424226237760E+03   -0.70286E-04   -0.79407E-04  6480   0.115E-03-0.732E-04
CGA:  15    -0.424226250692E+03   -0.12932E-04   -0.15745E-04  6480   0.498E-04 0.291E-04
CGA:  16    -0.424226257784E+03   -0.70919E-05   -0.99725E-05  6480   0.200E-04 0.235E-04
   6 F= -.42422626E+03 E0= -.42422626E+03  d E =-.329564E+00  mag=    18.0000
       N       E                     dE             d eps       ncg     rms          ort
SDA:   1    -0.417651352326E+03    0.65749E+01    0.00000E+00  6480   0.206E+02 0.000E+00
CGA:   2    -0.422462538478E+03   -0.48112E+01   -0.48144E+01  6480   0.644E+01 0.324E-01
CGA:   3    -0.423808001496E+03   -0.13455E+01   -0.13454E+01  6480   0.242E+01-0.290E-02
CGA:   4    -0.424226285284E+03   -0.41828E+00   -0.41800E+00  6480   0.479E+00-0.471E-02
CGA:   5    -0.424313140046E+03   -0.86855E-01   -0.86799E-01  6480   0.140E+00-0.929E-03
CGA:   6    -0.424343106921E+03   -0.29967E-01   -0.30002E-01  6480   0.538E-01 0.805E-03
CGA:   7    -0.424357241187E+03   -0.14134E-01   -0.14131E-01  6480   0.267E-01 0.862E-03
CGA:   8    -0.424365775233E+03   -0.85340E-02   -0.85265E-02  6480   0.153E-01 0.119E-03
CGA:   9    -0.424370587040E+03   -0.48118E-02   -0.48225E-02  6480   0.687E-02-0.213E-03
CGA:  10    -0.424372625689E+03   -0.20386E-02   -0.20378E-02  6480   0.259E-02 0.215E-04
CGA:  11    -0.424373408085E+03   -0.78240E-03   -0.77956E-03  6480   0.989E-03 0.812E-04
CGA:  12    -0.424373754929E+03   -0.34684E-03   -0.34324E-03  6480   0.414E-03 0.514E-04
CGA:  13    -0.424373907115E+03   -0.15219E-03   -0.15062E-03  6480   0.161E-03 0.205E-04
CGA:  14    -0.424373964938E+03   -0.57823E-04   -0.57485E-04  6480   0.550E-04 0.495E-05
CGA:  15    -0.424373979656E+03   -0.14718E-04   -0.14936E-04  6480   0.178E-04 0.154E-04
CGA:  16    -0.424373985741E+03   -0.60855E-05   -0.61359E-05  6480   0.790E-05 0.617E-05
   7 F= -.42437399E+03 E0= -.42437399E+03  d E =-.147728E+00  mag=    18.0000
       N       E                     dE             d eps       ncg     rms          ort
SDA:   1    -0.413165904967E+03    0.11208E+02    0.00000E+00  6480   0.317E+02 0.000E+00
CGA:   2    -0.421095231075E+03   -0.79293E+01   -0.79340E+01  6480   0.125E+02 0.512E-01
CGA:   3    -0.423476191430E+03   -0.23810E+01   -0.23818E+01  6480   0.389E+01 0.618E-02
CGA:   4    -0.424159633129E+03   -0.68344E+00   -0.68332E+00  6480   0.779E+00-0.196E-02
CGA:   5    -0.424297891889E+03   -0.13826E+00   -0.13826E+00  6480   0.222E+00-0.490E-03
CGA:   6    -0.424345877634E+03   -0.47986E-01   -0.48003E-01  6480   0.799E-01 0.274E-03
CGA:   7    -0.424366070169E+03   -0.20193E-01   -0.20200E-01  6480   0.380E-01 0.498E-03
CGA:   8    -0.424377736604E+03   -0.11666E-01   -0.11652E-01  6480   0.206E-01 0.327E-03
CGA:   9    -0.424384355324E+03   -0.66187E-02   -0.66260E-02  6480   0.962E-02-0.157E-03
CGA:  10    -0.424387289569E+03   -0.29342E-02   -0.29399E-02  6480   0.383E-02-0.153E-03
CGA:  11    -0.424388457128E+03   -0.11676E-02   -0.11668E-02  6480   0.155E-02 0.185E-04
CGA:  12    -0.424389005592E+03   -0.54846E-03   -0.54681E-03  6480   0.692E-03 0.207E-04
CGA:  13    -0.424389242486E+03   -0.23689E-03   -0.23315E-03  6480   0.260E-03 0.680E-04
CGA:  14    -0.424389326564E+03   -0.84079E-04   -0.83462E-04  6480   0.803E-04 0.492E-04
CGA:  15    -0.424389358532E+03   -0.31967E-04   -0.31505E-04  6480   0.300E-04 0.945E-05
CGA:  16    -0.424389370728E+03   -0.12196E-04   -0.11884E-04  6480   0.134E-04 0.438E-05
CGA:  17    -0.424389376685E+03   -0.59571E-05   -0.57333E-05  6480   0.674E-05 0.261E-05
   8 F= -.42438938E+03 E0= -.42438938E+03  d E =-.153909E-01  mag=    18.0000
       N       E                     dE             d eps       ncg     rms          ort
SDA:   1    -0.423558301221E+03    0.83107E+00    0.00000E+00  6480   0.253E+01 0.000E+00
CGA:   2    -0.424222868351E+03   -0.66457E+00   -0.66456E+00  6480   0.818E+00-0.109E-02
CGA:   3    -0.424395518117E+03   -0.17265E+00   -0.17251E+00  6480   0.283E+00-0.201E-02
CGA:   4    -0.424442922721E+03   -0.47405E-01   -0.47404E-01  6480   0.571E-01-0.101E-04
CGA:   5    -0.424453199582E+03   -0.10277E-01   -0.10299E-01  6480   0.170E-01 0.231E-03
CGA:   6    -0.424456824764E+03   -0.36252E-02   -0.36183E-02  6480   0.619E-02-0.110E-03
CGA:   7    -0.424458399229E+03   -0.15745E-02   -0.15716E-02  6480   0.295E-02-0.205E-03
CGA:   8    -0.424459244372E+03   -0.84514E-03   -0.84831E-03  6480   0.157E-02-0.114E-03
CGA:   9    -0.424459695387E+03   -0.45102E-03   -0.45169E-03  6480   0.668E-03-0.242E-04
CGA:  10    -0.424459900290E+03   -0.20490E-03   -0.20556E-03  6480   0.270E-03-0.164E-04
CGA:  11    -0.424459976544E+03   -0.76254E-04   -0.75962E-04  6480   0.101E-03 0.194E-04
CGA:  12    -0.424460007641E+03   -0.31096E-04   -0.30884E-04  6480   0.405E-04 0.225E-04
CGA:  13    -0.424460022280E+03   -0.14639E-04   -0.14449E-04  6480   0.172E-04 0.113E-04
CGA:  14    -0.424460026645E+03   -0.43651E-05   -0.48718E-05  6480   0.694E-05 0.934E-05
   9 F= -.42446003E+03 E0= -.42446003E+03  d E =-.706500E-01  mag=    18.0000
       N       E                     dE             d eps       ncg     rms          ort
SDA:   1    -0.424023928888E+03    0.43609E+00    0.00000E+00  6480   0.137E+01 0.000E+00
CGA:   2    -0.424363153883E+03   -0.33922E+00   -0.33918E+00  6480   0.421E+00-0.236E-02
CGA:   3    -0.424451970514E+03   -0.88817E-01   -0.88796E-01  6480   0.147E+00-0.353E-03
CGA:   4    -0.424476899802E+03   -0.24929E-01   -0.25006E-01  6480   0.296E-01 0.725E-03
CGA:   5    -0.424482167247E+03   -0.52674E-02   -0.52677E-02  6480   0.868E-02-0.646E-06
CGA:   6    -0.424484086319E+03   -0.19191E-02   -0.19024E-02  6480   0.341E-02-0.409E-03
CGA:   7    -0.424484924631E+03   -0.83831E-03   -0.83829E-03  6480   0.170E-02-0.201E-03
CGA:   8    -0.424485375047E+03   -0.45042E-03   -0.44909E-03  6480   0.827E-03 0.577E-04
CGA:   9    -0.424485626763E+03   -0.25172E-03   -0.24985E-03  6480   0.343E-03 0.555E-04
CGA:  10    -0.424485750766E+03   -0.12400E-03   -0.12683E-03  6480   0.178E-03-0.329E-04
CGA:  11    -0.424485801459E+03   -0.50693E-04   -0.51413E-04  6480   0.786E-04-0.131E-04
CGA:  12    -0.424485825178E+03   -0.23718E-04   -0.23771E-04  6480   0.317E-04-0.911E-06
CGA:  13    -0.424485832193E+03   -0.70157E-05   -0.73538E-05  6480   0.105E-04 0.943E-05
  10 F= -.42448583E+03 E0= -.42448583E+03  d E =-.258055E-01  mag=    18.0000
       N       E                     dE             d eps       ncg     rms          ort
SDA:   1    -0.422309310807E+03    0.21765E+01    0.00000E+00  6480   0.606E+01 0.000E+00
CGA:   2    -0.423868705715E+03   -0.15594E+01   -0.15594E+01  6480   0.265E+01 0.511E-02
CGA:   3    -0.424343965556E+03   -0.47526E+00   -0.47509E+00  6480   0.714E+00-0.281E-02
CGA:   4    -0.424470781879E+03   -0.12682E+00   -0.12670E+00  6480   0.154E+00-0.153E-02
CGA:   5    -0.424497239091E+03   -0.26457E-01   -0.26449E-01  6480   0.397E-01-0.166E-03
CGA:   6    -0.424505519214E+03   -0.82801E-02   -0.82663E-02  6480   0.125E-01-0.348E-03
CGA:   7    -0.424508447072E+03   -0.29279E-02   -0.29253E-02  6480   0.504E-02-0.214E-03
CGA:   8    -0.424509859779E+03   -0.14127E-02   -0.14107E-02  6480   0.247E-02 0.516E-04
CGA:   9    -0.424510641122E+03   -0.78134E-03   -0.77699E-03  6480   0.115E-02 0.687E-04
CGA:  10    -0.424511035039E+03   -0.39392E-03   -0.40092E-03  6480   0.571E-03-0.811E-04
CGA:  11    -0.424511206222E+03   -0.17118E-03   -0.17249E-03  6480   0.247E-03-0.194E-04
CGA:  12    -0.424511285187E+03   -0.78965E-04   -0.77946E-04  6480   0.104E-03 0.152E-04
CGA:  13    -0.424511314282E+03   -0.29096E-04   -0.29109E-04  6480   0.395E-04 0.330E-04
CGA:  14    -0.424511321269E+03   -0.69866E-05   -0.92452E-05  6480   0.170E-04 0.266E-04
  11 F= -.42451132E+03 E0= -.42451132E+03  d E =-.254891E-01  mag=    18.0000
       N       E                     dE             d eps       ncg     rms          ort
SDA:   1    -0.420702261879E+03    0.38091E+01    0.00000E+00  6480   0.103E+02 0.000E+00
CGA:   2    -0.423362043599E+03   -0.26598E+01   -0.26598E+01  6480   0.508E+01 0.180E-01
CGA:   3    -0.424245512843E+03   -0.88347E+00   -0.88338E+00  6480   0.125E+01-0.371E-02
CGA:   4    -0.424463597001E+03   -0.21808E+00   -0.21767E+00  6480   0.272E+00-0.515E-02
CGA:   5    -0.424511004575E+03   -0.47408E-01   -0.47368E-01  6480   0.705E-01-0.696E-03
CGA:   6    -0.424525517837E+03   -0.14513E-01   -0.14519E-01  6480   0.218E-01 0.126E-03
CGA:   7    -0.424530561716E+03   -0.50439E-02   -0.50454E-02  6480   0.853E-02 0.122E-03
CGA:   8    -0.424533084224E+03   -0.25225E-02   -0.25159E-02  6480   0.434E-02 0.129E-03
CGA:   9    -0.424534498026E+03   -0.14138E-02   -0.14109E-02  6480   0.213E-02 0.372E-04
CGA:  10    -0.424535194135E+03   -0.69611E-03   -0.70219E-03  6480   0.976E-03-0.798E-04
CGA:  11    -0.424535485886E+03   -0.29175E-03   -0.29059E-03  6480   0.396E-03 0.199E-04
CGA:  12    -0.424535618847E+03   -0.13296E-03   -0.13024E-03  6480   0.172E-03 0.407E-04
CGA:  13    -0.424535676832E+03   -0.57985E-04   -0.56281E-04  6480   0.703E-04 0.453E-04
CGA:  14    -0.424535694222E+03   -0.17390E-04   -0.19160E-04  6480   0.276E-04 0.391E-04
CGA:  15    -0.424535702158E+03   -0.79356E-05   -0.77129E-05  6480   0.106E-04 0.107E-04
  12 F= -.42453570E+03 E0= -.42453570E+03  d E =-.243809E-01  mag=    18.0000
       N       E                     dE             d eps       ncg     rms          ort
SDA:   1    -0.417319077910E+03    0.72166E+01    0.00000E+00  6480   0.194E+02 0.000E+00
CGA:   2    -0.422333910939E+03   -0.50148E+01   -0.50150E+01  6480   0.974E+01 0.369E-01
CGA:   3    -0.424019934635E+03   -0.16860E+01   -0.16862E+01  6480   0.232E+01-0.253E-02
CGA:   4    -0.424423029866E+03   -0.40310E+00   -0.40238E+00  6480   0.513E+00-0.753E-02
CGA:   5    -0.424512866512E+03   -0.89837E-01   -0.89804E-01  6480   0.133E+00-0.812E-03
CGA:   6    -0.424540208138E+03   -0.27342E-01   -0.27358E-01  6480   0.411E-01 0.319E-03
CGA:   7    -0.424549679840E+03   -0.94717E-02   -0.94739E-02  6480   0.157E-01 0.126E-03
CGA:   8    -0.424554259220E+03   -0.45794E-02   -0.45736E-02  6480   0.775E-02 0.121E-03
CGA:   9    -0.424556723444E+03   -0.24642E-02   -0.24637E-02  6480   0.366E-02 0.424E-05
CGA:  10    -0.424557902930E+03   -0.11795E-02   -0.11913E-02  6480   0.165E-02-0.162E-03
CGA:  11    -0.424558385572E+03   -0.48264E-03   -0.48023E-03  6480   0.660E-03 0.464E-04
CGA:  12    -0.424558611430E+03   -0.22586E-03   -0.22091E-03  6480   0.300E-03 0.722E-04
CGA:  13    -0.424558721913E+03   -0.11048E-03   -0.10656E-03  6480   0.133E-03 0.652E-04
CGA:  14    -0.424558758532E+03   -0.36619E-04   -0.38293E-04  6480   0.498E-04 0.638E-04
CGA:  15    -0.424558773150E+03   -0.14618E-04   -0.15993E-04  6480   0.205E-04 0.303E-04
CGA:  16    -0.424558735853E+03    0.37297E-04   -0.21768E-04  6480   0.302E-03-0.521E-04
CGA:  17    -0.424558776238E+03   -0.40385E-04   -0.56098E-04  6480   0.226E-04 0.544E-04
CGA:  18    -0.424558785822E+03   -0.95839E-05   -0.88496E-05  6480   0.671E-05-0.575E-05
  13 F= -.42455879E+03 E0= -.42455879E+03  d E =-.230837E-01  mag=    18.0000
       N       E                     dE             d eps       ncg     rms          ort
SDA:   1    -0.420655179800E+03    0.39036E+01    0.00000E+00  6480   0.102E+02 0.000E+00
CGA:   2    -0.423324372252E+03   -0.26692E+01   -0.26726E+01  6480   0.560E+01 0.669E-02
CGA:   3    -0.424281506546E+03   -0.95713E+00   -0.95658E+00  6480   0.117E+01 0.615E-02
CGA:   4    -0.424483582674E+03   -0.20208E+00   -0.20095E+00  6480   0.274E+00-0.269E-02
CGA:   5    -0.424532431150E+03   -0.48848E-01   -0.48806E-01  6480   0.706E-01-0.332E-03
CGA:   6    -0.424546569546E+03   -0.14138E-01   -0.14212E-01  6480   0.209E-01 0.348E-03
CGA:   7    -0.424551262982E+03   -0.46934E-02   -0.46958E-02  6480   0.717E-02 0.739E-05
CGA:   8    -0.424553275089E+03   -0.20121E-02   -0.20018E-02  6480   0.318E-02-0.109E-03
CGA:   9    -0.424554220903E+03   -0.94581E-03   -0.94176E-03  6480   0.134E-02-0.579E-04
CGA:  10    -0.424554633641E+03   -0.41274E-03   -0.40916E-03  6480   0.534E-03-0.641E-04
CGA:  11    -0.424554775509E+03   -0.14187E-03   -0.14420E-03  6480   0.189E-03 0.284E-04
CGA:  12    -0.424554831701E+03   -0.56193E-04   -0.58537E-04  6480   0.841E-04 0.351E-04
CGA:  13    -0.424554861853E+03   -0.30151E-04   -0.31183E-04  6480   0.449E-04 0.228E-04
CGA:  14    -0.424554871792E+03   -0.99395E-05   -0.13167E-04  6480   0.208E-04 0.258E-04
  14 F= -.42455487E+03 E0= -.42455487E+03  d E =0.391403E-02  mag=    18.0000
       N       E                     dE             d eps       ncg     rms          ort
SDA:   1    -0.422961193503E+03    0.15937E+01    0.00000E+00  6480   0.433E+01 0.000E+00
CGA:   2    -0.424073043268E+03   -0.11118E+01   -0.11118E+01  6480   0.225E+01-0.405E-02
CGA:   3    -0.424461615818E+03   -0.38857E+00   -0.38939E+00  6480   0.514E+00 0.489E-02
CGA:   4    -0.424550408550E+03   -0.88793E-01   -0.89173E-01  6480   0.118E+00 0.222E-02
CGA:   5    -0.424571238083E+03   -0.20830E-01   -0.20869E-01  6480   0.303E-01 0.236E-03
CGA:   6    -0.424577472806E+03   -0.62347E-02   -0.62435E-02  6480   0.933E-02 0.701E-04
CGA:   7    -0.424579559710E+03   -0.20869E-02   -0.20988E-02  6480   0.329E-02 0.135E-03
CGA:   8    -0.424580472435E+03   -0.91273E-03   -0.91595E-03  6480   0.145E-02 0.100E-03
CGA:   9    -0.424580927394E+03   -0.45496E-03   -0.45498E-03  6480   0.644E-03 0.310E-04
CGA:  10    -0.424581122501E+03   -0.19511E-03   -0.19532E-03  6480   0.258E-03 0.276E-04
CGA:  11    -0.424581211071E+03   -0.88570E-04   -0.88683E-04  6480   0.119E-03-0.476E-05
CGA:  12    -0.424581260702E+03   -0.49631E-04   -0.55274E-04  6480   0.995E-04-0.339E-04
CGA:  13    -0.424581284963E+03   -0.24261E-04   -0.43595E-04  6480   0.116E-03-0.650E-04
CGA:  14    -0.424581320888E+03   -0.35925E-04   -0.35409E-04  6480   0.351E-04-0.224E-04
CGA:  15    -0.424581324726E+03   -0.38380E-05   -0.53216E-05  6480   0.919E-05 0.106E-04
  15 F= -.42458132E+03 E0= -.42458132E+03  d E =-.264529E-01  mag=    18.0000
       N       E                     dE             d eps       ncg     rms          ort
SDA:   1    -0.424383913850E+03    0.19741E+00    0.00000E+00  6480   0.529E+00 0.000E+00
CGA:   2    -0.424524642690E+03   -0.14073E+00   -0.14080E+00  6480   0.292E+00 0.137E-02
CGA:   3    -0.424573700985E+03   -0.49058E-01   -0.48834E-01  6480   0.619E-01-0.167E-02
CGA:   4    -0.424584498895E+03   -0.10798E-01   -0.10671E-01  6480   0.146E-01-0.974E-03
CGA:   5    -0.424587022457E+03   -0.25236E-02   -0.25098E-02  6480   0.359E-02-0.117E-03
CGA:   6    -0.424587718649E+03   -0.69619E-03   -0.70182E-03  6480   0.101E-02 0.585E-04
CGA:   7    -0.424587945325E+03   -0.22668E-03   -0.22776E-03  6480   0.334E-03 0.162E-04
CGA:   8    -0.424588045663E+03   -0.10034E-03   -0.10061E-03  6480   0.168E-03-0.207E-04
CGA:   9    -0.424588097108E+03   -0.51445E-04   -0.52567E-04  6480   0.854E-04-0.227E-04
CGA:  10    -0.424588122471E+03   -0.25363E-04   -0.27668E-04  6480   0.482E-04-0.262E-04
CGA:  11    -0.424588130792E+03   -0.83211E-05   -0.83350E-05  6480   0.168E-04 0.314E-06
  16 F= -.42458813E+03 E0= -.42458813E+03  d E =-.680607E-02  mag=    18.0000
       N       E                     dE             d eps       ncg     rms          ort
SDA:   1    -0.416635620506E+03    0.79525E+01    0.00000E+00  6480   0.204E+02 0.000E+00
CGA:   2    -0.422247473915E+03   -0.56119E+01   -0.56124E+01  6480   0.111E+02 0.298E-01
CGA:   3    -0.424072221960E+03   -0.18247E+01   -0.18254E+01  6480   0.228E+01 0.327E-02
CGA:   4    -0.424467907526E+03   -0.39569E+00   -0.39483E+00  6480   0.536E+00-0.586E-02
CGA:   5    -0.424562742127E+03   -0.94835E-01   -0.94811E-01  6480   0.135E+00-0.548E-03
CGA:   6    -0.424590146090E+03   -0.27404E-01   -0.27455E-01  6480   0.400E-01 0.732E-03
CGA:   7    -0.424599173241E+03   -0.90272E-02   -0.90368E-02  6480   0.137E-01 0.229E-03
CGA:   8    -0.424603061160E+03   -0.38879E-02   -0.38884E-02  6480   0.617E-02-0.292E-04
CGA:   9    -0.424604932565E+03   -0.18714E-02   -0.18750E-02  6480   0.260E-02-0.880E-04
CGA:  10    -0.424605733149E+03   -0.80058E-03   -0.80893E-03  6480   0.102E-02-0.168E-03
CGA:  11    -0.424606011467E+03   -0.27832E-03   -0.27819E-03  6480   0.361E-03 0.475E-05
CGA:  12    -0.424606128556E+03   -0.11709E-03   -0.11541E-03  6480   0.160E-03 0.343E-04
CGA:  13    -0.424606190625E+03   -0.62069E-04   -0.60042E-04  6480   0.840E-04 0.287E-04
CGA:  14    -0.424606215775E+03   -0.25151E-04   -0.25719E-04  6480   0.349E-04 0.367E-04
CGA:  15    -0.424606227822E+03   -0.12046E-04   -0.12489E-04  6480   0.145E-04 0.174E-04
CGA:  16    -0.424606237326E+03   -0.95046E-05   -0.10936E-04  6480   0.151E-04-0.620E-05
  17 F= -.42460624E+03 E0= -.42460624E+03  d E =-.181065E-01  mag=    18.0000
       N       E                     dE             d eps       ncg     rms          ort
SDA:   1    -0.410234773851E+03    0.14371E+02    0.00000E+00  6480   0.361E+02 0.000E+00
CGA:   2    -0.420816887334E+03   -0.10582E+02   -0.10580E+02  6480   0.180E+02 0.538E-01
CGA:   3    -0.423707324863E+03   -0.28904E+01   -0.28938E+01  6480   0.384E+01 0.264E-01
CGA:   4    -0.424383828040E+03   -0.67650E+00   -0.67573E+00  6480   0.907E+00-0.528E-02
CGA:   5    -0.424543512343E+03   -0.15968E+00   -0.15967E+00  6480   0.233E+00-0.971E-03
CGA:   6    -0.424591892052E+03   -0.48380E-01   -0.48445E-01  6480   0.717E-01 0.109E-02
CGA:   7    -0.424608229891E+03   -0.16338E-01   -0.16357E-01  6480   0.255E-01 0.566E-03
CGA:   8    -0.424615634651E+03   -0.74048E-02   -0.74078E-02  6480   0.118E-01-0.107E-03
CGA:   9    -0.424619194319E+03   -0.35597E-02   -0.35697E-02  6480   0.486E-02-0.224E-03
CGA:  10    -0.424620633154E+03   -0.14388E-02   -0.14480E-02  6480   0.176E-02-0.216E-03
CGA:  11    -0.424621140969E+03   -0.50781E-03   -0.50954E-03  6480   0.658E-03-0.435E-04
CGA:  12    -0.424621364217E+03   -0.22325E-03   -0.22129E-03  6480   0.314E-03 0.241E-04
CGA:  13    -0.424621491632E+03   -0.12741E-03   -0.12450E-03  6480   0.168E-03 0.253E-04
CGA:  14    -0.424621551387E+03   -0.59756E-04   -0.58102E-04  6480   0.641E-04 0.365E-04
CGA:  15    -0.424621579147E+03   -0.27760E-04   -0.27346E-04  6480   0.244E-04 0.556E-05
CGA:  16    -0.424621588948E+03   -0.98004E-05   -0.17769E-04  6480   0.372E-04-0.204E-04
  18 F= -.42462159E+03 E0= -.42462159E+03  d E =-.153516E-01  mag=    18.0000
       N       E                     dE             d eps       ncg     rms          ort
SDA:   1    -0.423598721042E+03    0.10229E+01    0.00000E+00  6480   0.273E+01 0.000E+00
CGA:   2    -0.424338719107E+03   -0.74000E+00   -0.73992E+00  6480   0.137E+01-0.457E-02
CGA:   3    -0.424565014926E+03   -0.22630E+00   -0.22689E+00  6480   0.326E+00 0.413E-02
CGA:   4    -0.424622669021E+03   -0.57654E-01   -0.57933E-01  6480   0.768E-01 0.243E-02
CGA:   5    -0.424636345814E+03   -0.13677E-01   -0.13705E-01  6480   0.193E-01 0.247E-03
CGA:   6    -0.424640377425E+03   -0.40316E-02   -0.40246E-02  6480   0.621E-02-0.110E-03
CGA:   7    -0.424641791164E+03   -0.14137E-02   -0.14145E-02  6480   0.219E-02 0.151E-04
CGA:   8    -0.424642372623E+03   -0.58146E-03   -0.58184E-03  6480   0.896E-03 0.799E-04
CGA:   9    -0.424642637710E+03   -0.26509E-03   -0.26427E-03  6480   0.352E-03 0.546E-04
CGA:  10    -0.424642742946E+03   -0.10524E-03   -0.10485E-03  6480   0.131E-03 0.384E-04
CGA:  11    -0.424642792213E+03   -0.49267E-04   -0.49659E-04  6480   0.674E-04-0.563E-05
CGA:  12    -0.424642814493E+03   -0.22280E-04   -0.42592E-04  6480   0.121E-03-0.528E-04
CGA:  13    -0.424642836968E+03   -0.22475E-04   -0.24145E-04  6480   0.167E-04 0.176E-04
CGA:  14    -0.424642844646E+03   -0.76776E-05   -0.11499E-04  6480   0.208E-04-0.122E-04
  19 F= -.42464284E+03 E0= -.42464284E+03  d E =-.212557E-01  mag=    18.0000
       N       E                     dE             d eps       ncg     rms          ort
SDA:   1    -0.423877252420E+03    0.76558E+00    0.00000E+00  6480   0.192E+01 0.000E+00
CGA:   2    -0.424439547398E+03   -0.56229E+00   -0.56230E+00  6480   0.966E+00-0.620E-03
CGA:   3    -0.424595361086E+03   -0.15581E+00   -0.15600E+00  6480   0.209E+00 0.112E-02
CGA:   4    -0.424631563682E+03   -0.36203E-01   -0.36289E-01  6480   0.482E-01 0.678E-03
CGA:   5    -0.424639977691E+03   -0.84140E-02   -0.84391E-02  6480   0.121E-01 0.208E-03
CGA:   6    -0.424642532254E+03   -0.25546E-02   -0.25468E-02  6480   0.373E-02-0.112E-03
CGA:   7    -0.424643388977E+03   -0.85672E-03   -0.85111E-03  6480   0.135E-02-0.121E-03
CGA:   8    -0.424643748955E+03   -0.35998E-03   -0.35998E-03  6480   0.583E-03-0.942E-06
CGA:   9    -0.424643919385E+03   -0.17043E-03   -0.17014E-03  6480   0.230E-03 0.164E-04
CGA:  10    -0.424643994503E+03   -0.75117E-04   -0.75539E-04  6480   0.950E-04-0.976E-05
CGA:  11    -0.424644021031E+03   -0.26528E-04   -0.26476E-04  6480   0.355E-04 0.390E-05
CGA:  12    -0.424644036395E+03   -0.15364E-04   -0.18120E-04  6480   0.345E-04-0.131E-04
CGA:  13    -0.424644028445E+03    0.79499E-05   -0.20372E-04  6480   0.103E-03-0.440E-04
CGA:  14    -0.424644048922E+03   -0.20477E-04   -0.22147E-04  6480   0.154E-04 0.158E-04
CGA:  15    -0.424644055140E+03   -0.62179E-05   -0.61703E-05  6480   0.474E-05 0.151E-05
  20 F= -.42464406E+03 E0= -.42464406E+03  d E =-.121049E-02  mag=    18.0000
       N       E                     dE             d eps       ncg     rms          ort
SDA:   1    -0.424588081837E+03    0.55967E-01    0.00000E+00  6480   0.161E+00 0.000E+00
CGA:   2    -0.424628627311E+03   -0.40545E-01   -0.40471E-01  6480   0.846E-01-0.136E-02
CGA:   3    -0.424642844534E+03   -0.14217E-01   -0.14318E-01  6480   0.194E-01 0.712E-03
CGA:   4    -0.424646053989E+03   -0.32095E-02   -0.32990E-02  6480   0.421E-02 0.676E-03
CGA:   5    -0.424646780537E+03   -0.72655E-03   -0.74754E-03  6480   0.101E-02 0.171E-03
CGA:   6    -0.424647006587E+03   -0.22605E-03   -0.22574E-03  6480   0.336E-03-0.469E-05
CGA:   7    -0.424647088958E+03   -0.82371E-04   -0.81521E-04  6480   0.139E-03-0.214E-04
CGA:   8    -0.424647125679E+03   -0.36721E-04   -0.36724E-04  6480   0.656E-04-0.228E-05
CGA:   9    -0.424647143388E+03   -0.17709E-04   -0.17754E-04  6480   0.259E-04 0.670E-05
CGA:  10    -0.424647151013E+03   -0.76247E-05   -0.76848E-05  6480   0.102E-04 0.499E-05
  21 F= -.42464715E+03 E0= -.42464715E+03  d E =-.309587E-02  mag=    18.0000
       N       E                     dE             d eps       ncg     rms          ort
SDA:   1    -0.423335334533E+03    0.13118E+01    0.00000E+00  6480   0.334E+01 0.000E+00
CGA:   2    -0.424346790512E+03   -0.10115E+01   -0.10115E+01  6480   0.139E+01-0.309E-02
CGA:   3    -0.424585099638E+03   -0.23831E+00   -0.23830E+00  6480   0.345E+00-0.218E-03
CGA:   4    -0.424644298359E+03   -0.59199E-01   -0.59280E-01  6480   0.717E-01 0.575E-03
CGA:   5    -0.424657044852E+03   -0.12746E-01   -0.12770E-01  6480   0.189E-01 0.211E-03
CGA:   6    -0.424660924987E+03   -0.38801E-02   -0.38747E-02  6480   0.556E-02-0.838E-04
CGA:   7    -0.424662210126E+03   -0.12851E-02   -0.12816E-02  6480   0.210E-02-0.933E-04
CGA:   8    -0.424662825138E+03   -0.61501E-03   -0.61791E-03  6480   0.110E-02-0.952E-04
CGA:   9    -0.424663159737E+03   -0.33460E-03   -0.33775E-03  6480   0.516E-03-0.603E-04
CGA:  10    -0.424663314736E+03   -0.15500E-03   -0.15695E-03  6480   0.213E-03-0.398E-04
CGA:  11    -0.424663381136E+03   -0.66400E-04   -0.68399E-04  6480   0.101E-03-0.278E-04
CGA:  12    -0.424663416021E+03   -0.34885E-04   -0.37862E-04  6480   0.643E-04-0.198E-04
CGA:  13    -0.424663437093E+03   -0.21072E-04   -0.22518E-04  6480   0.327E-04-0.974E-05
CGA:  14    -0.424663446229E+03   -0.91357E-05   -0.91383E-05  6480   0.945E-05-0.907E-07
  22 F= -.42466345E+03 E0= -.42466345E+03  d E =-.162952E-01  mag=    18.0000
       N       E                     dE             d eps       ncg     rms          ort
SDA:   1    -0.397809158914E+03    0.26854E+02    0.00000E+00  6480   0.683E+02 0.000E+00
CGA:   2    -0.417803376916E+03   -0.19994E+02   -0.19996E+02  6480   0.311E+02 0.942E-01
CGA:   3    -0.422983737832E+03   -0.51804E+01   -0.51894E+01  6480   0.718E+01 0.885E-01
CGA:   4    -0.424251106347E+03   -0.12674E+01   -0.12678E+01  6480   0.164E+01 0.380E-02
CGA:   5    -0.424542447629E+03   -0.29134E+00   -0.29172E+00  6480   0.440E+00 0.135E-02
CGA:   6    -0.424635464999E+03   -0.93017E-01   -0.93069E-01  6480   0.139E+00 0.327E-03
CGA:   7    -0.424668036628E+03   -0.32572E-01   -0.32567E-01  6480   0.536E-01-0.216E-03
CGA:   8    -0.424683433009E+03   -0.15396E-01   -0.15399E-01  6480   0.245E-01-0.217E-03
CGA:   9    -0.424690781878E+03   -0.73489E-02   -0.73572E-02  6480   0.972E-02-0.349E-03
CGA:  10    -0.424693669389E+03   -0.28875E-02   -0.28983E-02  6480   0.353E-02-0.450E-03
CGA:  11    -0.424694710236E+03   -0.10408E-02   -0.10442E-02  6480   0.137E-02-0.110E-03
CGA:  12    -0.424695211552E+03   -0.50132E-03   -0.50681E-03  6480   0.753E-03-0.556E-04
CGA:  13    -0.424695525466E+03   -0.31391E-03   -0.32142E-03  6480   0.454E-03-0.482E-04
CGA:  14    -0.424695673968E+03   -0.14850E-03   -0.14671E-03  6480   0.158E-03 0.345E-04
CGA:  15    -0.424695740610E+03   -0.66642E-04   -0.70965E-04  6480   0.729E-04-0.358E-04
CGA:  16    -0.424695763295E+03   -0.22685E-04   -0.28328E-04  6480   0.425E-04-0.283E-04
CGA:  17    -0.424695769202E+03   -0.59071E-05   -0.63405E-05  6480   0.181E-04 0.627E-05
  23 F= -.42469577E+03 E0= -.42469577E+03  d E =-.323230E-01  mag=    18.0000
       N       E                     dE             d eps       ncg     rms          ort
SDA:   1    -0.423536771887E+03    0.11590E+01    0.00000E+00  6480   0.302E+01 0.000E+00
CGA:   2    -0.424360915238E+03   -0.82414E+00   -0.82423E+00  6480   0.147E+01 0.152E-02
CGA:   3    -0.424612565236E+03   -0.25165E+00   -0.25211E+00  6480   0.352E+00 0.298E-02
CGA:   4    -0.424674826353E+03   -0.62261E-01   -0.62292E-01  6480   0.855E-01 0.153E-03
CGA:   5    -0.424689589579E+03   -0.14763E-01   -0.14728E-01  6480   0.214E-01-0.321E-03
CGA:   6    -0.424693920706E+03   -0.43311E-02   -0.43367E-02  6480   0.678E-02 0.632E-04
CGA:   7    -0.424695411110E+03   -0.14904E-02   -0.15019E-02  6480   0.235E-02 0.191E-03
CGA:   8    -0.424696048423E+03   -0.63731E-03   -0.63876E-03  6480   0.100E-02 0.114E-03
CGA:   9    -0.424696361261E+03   -0.31284E-03   -0.31197E-03  6480   0.438E-03 0.446E-04
CGA:  10    -0.424696496693E+03   -0.13543E-03   -0.13503E-03  6480   0.178E-03 0.231E-04
CGA:  11    -0.424696554662E+03   -0.57969E-04   -0.57697E-04  6480   0.768E-04 0.938E-05
CGA:  12    -0.424696580958E+03   -0.26296E-04   -0.25868E-04  6480   0.365E-04 0.106E-04
CGA:  13    -0.424696597325E+03   -0.16367E-04   -0.16266E-04  6480   0.217E-04 0.860E-06
CGA:  14    -0.424696604824E+03   -0.74993E-05   -0.15464E-04  6480   0.372E-04-0.196E-04
  24 F= -.42469660E+03 E0= -.42469660E+03  d E =-.835622E-03  mag=    18.0000
       N       E                     dE             d eps       ncg     rms          ort
SDA:   1    -0.421935307789E+03    0.27613E+01    0.00000E+00  6480   0.701E+01 0.000E+00
CGA:   2    -0.423961712387E+03   -0.20264E+01   -0.20265E+01  6480   0.335E+01 0.139E-02
CGA:   3    -0.424517203587E+03   -0.55549E+00   -0.55605E+00  6480   0.766E+00 0.289E-02
CGA:   4    -0.424650449453E+03   -0.13325E+00   -0.13326E+00  6480   0.173E+00 0.364E-04
CGA:   5    -0.424680867024E+03   -0.30418E-01   -0.30403E-01  6480   0.444E-01-0.174E-03
CGA:   6    -0.424689866002E+03   -0.89990E-02   -0.90123E-02  6480   0.130E-01 0.154E-03
CGA:   7    -0.424692809924E+03   -0.29439E-02   -0.29492E-02  6480   0.455E-02 0.955E-04
CGA:   8    -0.424694096656E+03   -0.12867E-02   -0.12866E-02  6480   0.207E-02 0.174E-04
CGA:   9    -0.424694737283E+03   -0.64063E-03   -0.64103E-03  6480   0.889E-03-0.129E-04
CGA:  10    -0.424695002025E+03   -0.26474E-03   -0.26487E-03  6480   0.333E-03-0.628E-05
CGA:  11    -0.424695104234E+03   -0.10221E-03   -0.10227E-03  6480   0.130E-03-0.211E-05
CGA:  12    -0.424695152016E+03   -0.47782E-04   -0.47899E-04  6480   0.691E-04-0.140E-05
CGA:  13    -0.424695183642E+03   -0.31626E-04   -0.37342E-04  6480   0.655E-04-0.220E-04
CGA:  14    -0.424695199975E+03   -0.16333E-04   -0.17622E-04  6480   0.306E-04-0.134E-04
CGA:  15    -0.424695205798E+03   -0.58225E-05   -0.59601E-05  6480   0.105E-04 0.238E-05
  25 F= -.42469521E+03 E0= -.42469521E+03  d E =0.139903E-02  mag=    18.0000
       N       E                     dE             d eps       ncg     rms          ort
SDA:   1    -0.424387316639E+03    0.30788E+00    0.00000E+00  6480   0.778E+00 0.000E+00
CGA:   2    -0.424614934888E+03   -0.22762E+00   -0.22762E+00  6480   0.345E+00-0.946E-03
CGA:   3    -0.424672859078E+03   -0.57924E-01   -0.57981E-01  6480   0.851E-01 0.444E-03
CGA:   4    -0.424687865325E+03   -0.15006E-01   -0.15043E-01  6480   0.191E-01 0.314E-03
CGA:   5    -0.424691131164E+03   -0.32658E-02   -0.32926E-02  6480   0.487E-02 0.238E-03
CGA:   6    -0.424692108574E+03   -0.97741E-03   -0.99052E-03  6480   0.143E-02 0.172E-03
CGA:   7    -0.424692441525E+03   -0.33295E-03   -0.33542E-03  6480   0.519E-03 0.538E-04
CGA:   8    -0.424692597928E+03   -0.15640E-03   -0.15643E-03  6480   0.256E-03-0.150E-05
CGA:   9    -0.424692674592E+03   -0.76663E-04   -0.76579E-04  6480   0.109E-03 0.290E-05
CGA:  10    -0.424692699731E+03   -0.25140E-04   -0.26027E-04  6480   0.354E-04 0.238E-04
CGA:  11    -0.424692707014E+03   -0.72825E-05   -0.85048E-05  6480   0.147E-04 0.165E-04
  26 F= -.42469271E+03 E0= -.42469271E+03  d E =0.249878E-02  mag=    18.0000
       N       E                     dE             d eps       ncg     rms          ort
SDA:   1    -0.424619402752E+03    0.73297E-01    0.00000E+00  6480   0.196E+00 0.000E+00
CGA:   2    -0.424673096660E+03   -0.53694E-01   -0.53698E-01  6480   0.102E+00-0.494E-03
CGA:   3    -0.424690242543E+03   -0.17146E-01   -0.17152E-01  6480   0.231E-01 0.256E-04
CGA:   4    -0.424694195858E+03   -0.39533E-02   -0.39653E-02  6480   0.530E-02 0.128E-03
CGA:   5    -0.424695132048E+03   -0.93619E-03   -0.94021E-03  6480   0.133E-02 0.487E-04
CGA:   6    -0.424695409243E+03   -0.27719E-03   -0.27694E-03  6480   0.420E-03-0.601E-05
CGA:   7    -0.424695506421E+03   -0.97178E-04   -0.97061E-04  6480   0.159E-03-0.681E-05
CGA:   8    -0.424695555649E+03   -0.49227E-04   -0.51496E-04  6480   0.101E-03-0.281E-04
CGA:   9    -0.424695582889E+03   -0.27240E-04   -0.31020E-04  6480   0.667E-04-0.311E-04
CGA:  10    -0.424695592892E+03   -0.10003E-04   -0.10174E-04  6480   0.237E-04 0.440E-05
CGA:  11    -0.424695596425E+03   -0.35335E-05   -0.42794E-05  6480   0.997E-05 0.847E-05
  27 F= -.42469560E+03 E0= -.42469560E+03  d E =-.288941E-02  mag=    18.0000
       N       E                     dE             d eps       ncg     rms          ort
SDA:   1    -0.424392052852E+03    0.30354E+00    0.00000E+00  6480   0.793E+00 0.000E+00
CGA:   2    -0.424611727526E+03   -0.21967E+00   -0.21969E+00  6480   0.406E+00-0.921E-03
CGA:   3    -0.424679928152E+03   -0.68201E-01   -0.68186E-01  6480   0.904E-01-0.301E-03
CGA:   4    -0.424695415077E+03   -0.15487E-01   -0.15510E-01  6480   0.206E-01 0.282E-03
CGA:   5    -0.424699015662E+03   -0.36006E-02   -0.36104E-02  6480   0.503E-02 0.138E-03
CGA:   6    -0.424700061805E+03   -0.10461E-02   -0.10450E-02  6480   0.154E-02-0.348E-04
CGA:   7    -0.424700409842E+03   -0.34804E-03   -0.34774E-03  6480   0.548E-03-0.297E-04
CGA:   8    -0.424700562027E+03   -0.15218E-03   -0.15288E-03  6480   0.258E-03-0.149E-04
CGA:   9    -0.424700640815E+03   -0.78789E-04   -0.79680E-04  6480   0.119E-03-0.115E-04
CGA:  10    -0.424700675249E+03   -0.34434E-04   -0.34543E-04  6480   0.461E-04-0.188E-05
CGA:  11    -0.424700689061E+03   -0.13812E-04   -0.13735E-04  6480   0.177E-04 0.135E-05
CGA:  12    -0.424700696120E+03   -0.70587E-05   -0.10616E-04  6480   0.252E-04-0.107E-04
  28 F= -.42470070E+03 E0= -.42470070E+03  d E =-.509970E-02  mag=    18.0000
       N       E                     dE             d eps       ncg     rms          ort
SDA:   1    -0.396603833454E+03    0.28097E+02    0.00000E+00  6480   0.725E+02 0.000E+00
CGA:   2    -0.416684584083E+03   -0.20081E+02   -0.20075E+02  6480   0.360E+02 0.176E+00
CGA:   3    -0.422759936061E+03   -0.60754E+01   -0.60840E+01  6480   0.806E+01 0.874E-01
CGA:   4    -0.424161796888E+03   -0.14019E+01   -0.14020E+01  6480   0.191E+01 0.507E-02
CGA:   5    -0.424502311036E+03   -0.34051E+00   -0.34089E+00  6480   0.497E+00 0.287E-02
CGA:   6    -0.424606820881E+03   -0.10451E+00   -0.10459E+00  6480   0.160E+00 0.163E-02
CGA:   7    -0.424644416013E+03   -0.37595E-01   -0.37599E-01  6480   0.610E-01 0.147E-03
CGA:   8    -0.424662017718E+03   -0.17602E-01   -0.17610E-01  6480   0.283E-01-0.248E-03
CGA:   9    -0.424670501195E+03   -0.84835E-02   -0.84965E-02  6480   0.114E-01-0.262E-03
CGA:  10    -0.424673908253E+03   -0.34071E-02   -0.34193E-02  6480   0.428E-02-0.252E-03
CGA:  11    -0.424675188987E+03   -0.12807E-02   -0.12782E-02  6480   0.166E-02 0.458E-04
CGA:  12    -0.424675825799E+03   -0.63681E-03   -0.64207E-03  6480   0.938E-03-0.440E-04
CGA:  13    -0.424676225242E+03   -0.39944E-03   -0.42027E-03  6480   0.608E-03-0.107E-03
CGA:  14    -0.424676405408E+03   -0.18017E-03   -0.17811E-03  6480   0.211E-03 0.347E-04
CGA:  15    -0.424676483227E+03   -0.77819E-04   -0.79464E-04  6480   0.764E-04-0.206E-04
CGA:  16    -0.424676503546E+03   -0.20319E-04   -0.45447E-04  6480   0.105E-03-0.664E-04
CGA:  17    -0.424676523072E+03   -0.19526E-04   -0.21924E-04  6480   0.146E-04 0.262E-04
CGA:  18    -0.424676529617E+03   -0.65448E-05   -0.65690E-05  6480   0.591E-05-0.372E-06
  29 F= -.42467653E+03 E0= -.42467653E+03  d E =0.241665E-01  mag=    18.0000
       N       E                     dE             d eps       ncg     rms          ort
SDA:   1    -0.422656481740E+03    0.20200E+01    0.00000E+00  6480   0.500E+01 0.000E+00
CGA:   2    -0.424193675785E+03   -0.15372E+01   -0.15373E+01  6480   0.220E+01-0.115E-02
CGA:   3    -0.424555832234E+03   -0.36216E+00   -0.36246E+00  6480   0.558E+00 0.361E-03
CGA:   4    -0.424656191822E+03   -0.10036E+00   -0.10046E+00  6480   0.137E+00 0.121E-02
CGA:   5    -0.424680415870E+03   -0.24224E-01   -0.24383E-01  6480   0.366E-01 0.113E-02
CGA:   6    -0.424687997578E+03   -0.75817E-02   -0.76667E-02  6480   0.119E-01 0.759E-03
CGA:   7    -0.424690900105E+03   -0.29025E-02   -0.29117E-02  6480   0.456E-02 0.124E-03
CGA:   8    -0.424692160450E+03   -0.12603E-02   -0.12585E-02  6480   0.195E-02-0.497E-04
CGA:   9    -0.424692669172E+03   -0.50872E-03   -0.51485E-03  6480   0.660E-03 0.149E-03
CGA:  10    -0.424692839808E+03   -0.17064E-03   -0.17696E-03  6480   0.222E-03 0.112E-03
CGA:  11    -0.424692913802E+03   -0.73994E-04   -0.74471E-04  6480   0.993E-04 0.300E-04
CGA:  12    -0.424692953595E+03   -0.39793E-04   -0.39374E-04  6480   0.602E-04 0.870E-05
CGA:  13    -0.424692974784E+03   -0.21189E-04   -0.49303E-04  6480   0.150E-03-0.628E-04
CGA:  14    -0.424693002407E+03   -0.27623E-04   -0.30225E-04  6480   0.175E-04 0.207E-04
CGA:  15    -0.424693005909E+03   -0.35017E-05   -0.43070E-05  6480   0.562E-05 0.771E-05
  30 F= -.42469301E+03 E0= -.42469301E+03  d E =-.164763E-01  mag=    18.0000
       N       E                     dE             d eps       ncg     rms          ort
SDA:   1    -0.416695270140E+03    0.79977E+01    0.00000E+00  6480   0.204E+02 0.000E+00
CGA:   2    -0.422497511522E+03   -0.58022E+01   -0.58033E+01  6480   0.102E+02 0.170E-01
CGA:   3    -0.424180486722E+03   -0.16830E+01   -0.16850E+01  6480   0.229E+01 0.135E-01
CGA:   4    -0.424578971389E+03   -0.39848E+00   -0.39825E+00  6480   0.530E+00-0.173E-02
CGA:   5    -0.424672619540E+03   -0.93648E-01   -0.93523E-01  6480   0.136E+00-0.135E-02
CGA:   6    -0.424700610518E+03   -0.27991E-01   -0.27968E-01  6480   0.419E-01-0.337E-03
CGA:   7    -0.424710191624E+03   -0.95811E-02   -0.95864E-02  6480   0.153E-01 0.772E-04
CGA:   8    -0.424714513594E+03   -0.43220E-02   -0.43221E-02  6480   0.702E-02 0.198E-03
CGA:   9    -0.424716740201E+03   -0.22266E-02   -0.22289E-02  6480   0.310E-02-0.776E-04
CGA:  10    -0.424717733709E+03   -0.99351E-03   -0.10048E-02  6480   0.138E-02-0.266E-03
CGA:  11    -0.424718129761E+03   -0.39605E-03   -0.39837E-03  6480   0.566E-03-0.788E-04
CGA:  12    -0.424718312391E+03   -0.18263E-03   -0.18144E-03  6480   0.260E-03 0.226E-04
CGA:  13    -0.424718414283E+03   -0.10189E-03   -0.99874E-04  6480   0.130E-03 0.252E-04
CGA:  14    -0.424718462988E+03   -0.48705E-04   -0.47865E-04  6480   0.490E-04 0.208E-04
CGA:  15    -0.424718483984E+03   -0.20996E-04   -0.20913E-04  6480   0.178E-04 0.112E-05
CGA:  16    -0.424718489823E+03   -0.58387E-05   -0.57890E-05  6480   0.560E-05 0.271E-05
  31 F= -.42471849E+03 E0= -.42471849E+03  d E =-.254839E-01  mag=    18.0000
       N       E                     dE             d eps       ncg     rms          ort
SDA:   1    -0.423514458555E+03    0.12040E+01    0.00000E+00  6480   0.308E+01 0.000E+00
CGA:   2    -0.424330137643E+03   -0.81568E+00   -0.81583E+00  6480   0.159E+01 0.294E-02
CGA:   3    -0.424604790608E+03   -0.27465E+00   -0.27500E+00  6480   0.380E+00 0.165E-02
CGA:   4    -0.424671396290E+03   -0.66606E-01   -0.66618E-01  6480   0.915E-01 0.228E-03
CGA:   5    -0.424687407152E+03   -0.16011E-01   -0.16013E-01  6480   0.223E-01 0.162E-05
CGA:   6    -0.424692048252E+03   -0.46411E-02   -0.46387E-02  6480   0.726E-02-0.434E-04
CGA:   7    -0.424693707961E+03   -0.16597E-02   -0.16602E-02  6480   0.251E-02 0.966E-05
CGA:   8    -0.424694338944E+03   -0.63098E-03   -0.63379E-03  6480   0.955E-03 0.160E-03
CGA:   9    -0.424694613168E+03   -0.27422E-03   -0.27416E-03  6480   0.350E-03 0.124E-03
CGA:  10    -0.424694728089E+03   -0.11492E-03   -0.11426E-03  6480   0.141E-03 0.333E-04
CGA:  11    -0.424694778111E+03   -0.50022E-04   -0.49837E-04  6480   0.632E-04 0.344E-05
CGA:  12    -0.424694801886E+03   -0.23775E-04   -0.24056E-04  6480   0.342E-04-0.295E-05
CGA:  13    -0.424694811947E+03   -0.10061E-04   -0.99034E-05  6480   0.147E-04 0.597E-05
CGA:  14    -0.424694814299E+03   -0.23521E-05   -0.31843E-05  6480   0.672E-05 0.876E-05
  32 F= -.42469481E+03 E0= -.42469481E+03  d E =0.236755E-01  mag=    18.0000
       N       E                     dE             d eps       ncg     rms          ort
SDA:   1    -0.424180263317E+03    0.51455E+00    0.00000E+00  6480   0.138E+01 0.000E+00
CGA:   2    -0.424562619203E+03   -0.38236E+00   -0.38236E+00  6480   0.683E+00-0.105E-02
CGA:   3    -0.424678342489E+03   -0.11572E+00   -0.11559E+00  6480   0.167E+00-0.144E-02
CGA:   4    -0.424708169299E+03   -0.29827E-01   -0.29773E-01  6480   0.405E-01-0.681E-03
CGA:   5    -0.424715165630E+03   -0.69963E-02   -0.70022E-02  6480   0.988E-02 0.570E-04
CGA:   6    -0.424717177152E+03   -0.20115E-02   -0.20228E-02  6480   0.313E-02 0.214E-03
CGA:   7    -0.424717918634E+03   -0.74148E-03   -0.74232E-03  6480   0.111E-02 0.366E-04
CGA:   8    -0.424718261240E+03   -0.34261E-03   -0.35375E-03  6480   0.626E-03-0.179E-03
CGA:   9    -0.424718424110E+03   -0.16287E-03   -0.17174E-03  6480   0.294E-03-0.125E-03
CGA:  10    -0.424718485989E+03   -0.61879E-04   -0.61913E-04  6480   0.957E-04-0.952E-05
CGA:  11    -0.424718506102E+03   -0.20114E-04   -0.20836E-04  6480   0.341E-04 0.206E-04
CGA:  12    -0.424718513823E+03   -0.77210E-05   -0.85046E-05  6480   0.159E-04 0.147E-04
  33 F= -.42471851E+03 E0= -.42471851E+03  d E =-.236995E-01  mag=    18.0000
       N       E                     dE             d eps       ncg     rms          ort
SDA:   1    -0.424630561495E+03    0.87945E-01    0.00000E+00  6480   0.227E+00 0.000E+00
CGA:   2    -0.424696921079E+03   -0.66360E-01   -0.66371E-01  6480   0.108E+00-0.377E-03
CGA:   3    -0.424714922510E+03   -0.18001E-01   -0.17990E-01  6480   0.247E-01-0.164E-03
CGA:   4    -0.424719179479E+03   -0.42570E-02   -0.42619E-02  6480   0.547E-02 0.570E-04
CGA:   5    -0.424720117655E+03   -0.93818E-03   -0.94577E-03  6480   0.135E-02 0.996E-04
CGA:   6    -0.424720385454E+03   -0.26780E-03   -0.27078E-03  6480   0.383E-03 0.624E-04
CGA:   7    -0.424720476893E+03   -0.91439E-04   -0.91551E-04  6480   0.140E-03 0.857E-05
CGA:   8    -0.424720523942E+03   -0.47050E-04   -0.50248E-04  6480   0.101E-03-0.289E-04
CGA:   9    -0.424720545808E+03   -0.21865E-04   -0.21916E-04  6480   0.418E-04-0.189E-05
CGA:  10    -0.424720553632E+03   -0.78239E-05   -0.83129E-05  6480   0.151E-04 0.108E-04
  34 F= -.42472055E+03 E0= -.42472055E+03  d E =-.203981E-02  mag=    18.0000
       N       E                     dE             d eps       ncg     rms          ort
SDA:   1    -0.414599207330E+03    0.10121E+02    0.00000E+00  6480   0.257E+02 0.000E+00
CGA:   2    -0.421956226996E+03   -0.73570E+01   -0.73554E+01  6480   0.127E+02 0.193E-01
CGA:   3    -0.424059904182E+03   -0.21037E+01   -0.21051E+01  6480   0.283E+01 0.107E-01
CGA:   4    -0.424549862393E+03   -0.48996E+00   -0.48991E+00  6480   0.646E+00-0.463E-03
CGA:   5    -0.424664634684E+03   -0.11477E+00   -0.11482E+00  6480   0.165E+00 0.706E-03
CGA:   6    -0.424698360907E+03   -0.33726E-01   -0.33772E-01  6480   0.496E-01 0.147E-02
CGA:   7    -0.424709797295E+03   -0.11436E-01   -0.11439E-01  6480   0.179E-01 0.541E-03
CGA:   8    -0.424715002582E+03   -0.52053E-02   -0.52158E-02  6480   0.861E-02-0.197E-03
CGA:   9    -0.424717580800E+03   -0.25782E-02   -0.25796E-02  6480   0.364E-02-0.224E-04
CGA:  10    -0.424718635775E+03   -0.10550E-02   -0.10488E-02  6480   0.128E-02 0.122E-03
CGA:  11    -0.424719046915E+03   -0.41114E-03   -0.40901E-03  6480   0.518E-03 0.303E-04
CGA:  12    -0.424719247435E+03   -0.20052E-03   -0.20118E-03  6480   0.295E-03-0.548E-05
CGA:  13    -0.424719375146E+03   -0.12771E-03   -0.17653E-03  6480   0.353E-03-0.139E-03
CGA:  14    -0.424719430264E+03   -0.55119E-04   -0.56965E-04  6480   0.178E-03-0.518E-04
CGA:  15    -0.424719457568E+03   -0.27303E-04   -0.29004E-04  6480   0.711E-04 0.213E-04
CGA:  16    -0.424719469363E+03   -0.11795E-04   -0.13937E-04  6480   0.335E-04 0.233E-04
CGA:  17    -0.424719477212E+03   -0.78490E-05   -0.86626E-05  6480   0.187E-04 0.120E-04
  35 F= -.42471948E+03 E0= -.42471948E+03  d E =0.107642E-02  mag=    18.0000
       N       E                     dE             d eps       ncg     rms          ort
SDA:   1    -0.419301532435E+03    0.54179E+01    0.00000E+00  6480   0.134E+02 0.000E+00
CGA:   2    -0.423337283970E+03   -0.40358E+01   -0.40350E+01  6480   0.627E+01 0.954E-02
CGA:   3    -0.424360630400E+03   -0.10233E+01   -0.10245E+01  6480   0.145E+01 0.902E-02
CGA:   4    -0.424612976468E+03   -0.25235E+00   -0.25236E+00  6480   0.321E+00 0.979E-03
CGA:   5    -0.424670720996E+03   -0.57745E-01   -0.57744E-01  6480   0.845E-01-0.266E-04
CGA:   6    -0.424687966925E+03   -0.17246E-01   -0.17284E-01  6480   0.251E-01 0.823E-03
CGA:   7    -0.424693689257E+03   -0.57223E-02   -0.57337E-02  6480   0.864E-02 0.545E-03
CGA:   8    -0.424696159434E+03   -0.24702E-02   -0.24677E-02  6480   0.393E-02 0.732E-04
CGA:   9    -0.424697316454E+03   -0.11570E-02   -0.11497E-02  6480   0.152E-02 0.172E-03
CGA:  10    -0.424697756259E+03   -0.43980E-03   -0.43629E-03  6480   0.508E-03 0.136E-03
CGA:  11    -0.424697930681E+03   -0.17442E-03   -0.17413E-03  6480   0.214E-03 0.428E-05
CGA:  12    -0.424697998435E+03   -0.67754E-04   -0.65875E-04  6480   0.973E-04 0.362E-04
CGA:  13    -0.424698049417E+03   -0.50982E-04   -0.58185E-04  6480   0.104E-03-0.284E-04
CGA:  14    -0.424698067542E+03   -0.18125E-04   -0.44626E-04  6480   0.121E-03-0.791E-04
CGA:  15    -0.424698080901E+03   -0.13360E-04   -0.19923E-04  6480   0.315E-04 0.539E-04
CGA:  16    -0.424698085688E+03   -0.47867E-05   -0.71846E-05  6480   0.121E-04 0.197E-04
  36 F= -.42469809E+03 E0= -.42469809E+03  d E =0.213915E-01  mag=    18.0000
       N       E                     dE             d eps       ncg     rms          ort
SDA:   1    -0.416349361880E+03    0.83487E+01    0.00000E+00  6480   0.211E+02 0.000E+00
CGA:   2    -0.422435582231E+03   -0.60862E+01   -0.60857E+01  6480   0.108E+02 0.151E-01
CGA:   3    -0.424191171295E+03   -0.17556E+01   -0.17563E+01  6480   0.235E+01 0.477E-02
CGA:   4    -0.424596191229E+03   -0.40502E+00   -0.40498E+00  6480   0.539E+00-0.179E-02
CGA:   5    -0.424692516825E+03   -0.96326E-01   -0.96320E-01  6480   0.137E+00-0.473E-03
CGA:   6    -0.424720592176E+03   -0.28075E-01   -0.28034E-01  6480   0.411E-01-0.797E-03
CGA:   7    -0.424729983703E+03   -0.93915E-02   -0.93785E-02  6480   0.144E-01-0.480E-03
CGA:   8    -0.424733863919E+03   -0.38802E-02   -0.38795E-02  6480   0.627E-02 0.410E-04
CGA:   9    -0.424735831409E+03   -0.19675E-02   -0.19828E-02  6480   0.279E-02-0.262E-03
CGA:  10    -0.424736711488E+03   -0.88008E-03   -0.92290E-03  6480   0.133E-02-0.503E-03
CGA:  11    -0.424737032924E+03   -0.32144E-03   -0.32430E-03  6480   0.475E-03-0.846E-04
CGA:  12    -0.424737186912E+03   -0.15399E-03   -0.15580E-03  6480   0.228E-03-0.216E-04
CGA:  13    -0.424737263651E+03   -0.76740E-04   -0.74967E-04  6480   0.109E-03 0.235E-04
CGA:  14    -0.424737293092E+03   -0.29441E-04   -0.30304E-04  6480   0.411E-04 0.416E-04
CGA:  15    -0.424737312049E+03   -0.18957E-04   -0.18635E-04  6480   0.187E-04 0.570E-05
CGA:  16    -0.424737324121E+03   -0.12072E-04    0.89499E-04  6480   0.747E-05 0.571E-05
CGA:  17    -0.424737325169E+03   -0.10485E-05   -0.16116E-05  6480   0.351E-05 0.511E-05
  37 F= -.42473733E+03 E0= -.42473733E+03  d E =-.392395E-01  mag=    18.0000
       N       E                     dE             d eps       ncg     rms          ort
SDA:   1    -0.421149219745E+03    0.35881E+01    0.00000E+00  6480   0.898E+01 0.000E+00
CGA:   2    -0.423780587964E+03   -0.26314E+01   -0.26312E+01  6480   0.433E+01 0.145E-02
CGA:   3    -0.424493164328E+03   -0.71258E+00   -0.71206E+00  6480   0.970E+00-0.515E-02
CGA:   4    -0.424662649561E+03   -0.16949E+00   -0.16943E+00  6480   0.223E+00-0.830E-03
CGA:   5    -0.424701953157E+03   -0.39304E-01   -0.39325E-01  6480   0.560E-01 0.205E-03
CGA:   6    -0.424713606932E+03   -0.11654E-01   -0.11635E-01  6480   0.169E-01-0.466E-03
CGA:   7    -0.424717451227E+03   -0.38443E-02   -0.38369E-02  6480   0.594E-02-0.410E-03
CGA:   8    -0.424719053635E+03   -0.16024E-02   -0.16047E-02  6480   0.262E-02-0.764E-04
CGA:   9    -0.424719843103E+03   -0.78947E-03   -0.79550E-03  6480   0.110E-02-0.101E-03
CGA:  10    -0.424720195558E+03   -0.35245E-03   -0.37562E-03  6480   0.552E-03-0.223E-03
CGA:  11    -0.424720326628E+03   -0.13107E-03   -0.13359E-03  6480   0.206E-03-0.532E-04
CGA:  12    -0.424720394432E+03   -0.67804E-04   -0.72445E-04  6480   0.117E-03-0.356E-04
CGA:  13    -0.424720425077E+03   -0.30645E-04   -0.29950E-04  6480   0.504E-04 0.154E-04
CGA:  14    -0.424720436001E+03   -0.10924E-04   -0.12131E-04  6480   0.191E-04 0.221E-04
CGA:  15    -0.424720442834E+03   -0.68327E-05   -0.69168E-05  6480   0.760E-05 0.687E-05
  38 F= -.42472044E+03 E0= -.42472044E+03  d E =0.168823E-01  mag=    18.0000
       N       E                     dE             d eps       ncg     rms          ort
SDA:   1    -0.422400676505E+03    0.23198E+01    0.00000E+00  6480   0.584E+01 0.000E+00
CGA:   2    -0.424124535936E+03   -0.17239E+01   -0.17237E+01  6480   0.295E+01 0.266E-02
CGA:   3    -0.424599636084E+03   -0.47510E+00   -0.47586E+00  6480   0.624E+00 0.521E-02
CGA:   4    -0.424708286003E+03   -0.10865E+00   -0.10866E+00  6480   0.144E+00 0.122E-03
CGA:   5    -0.424734137243E+03   -0.25851E-01   -0.25854E-01  6480   0.364E-01 0.549E-05
CGA:   6    -0.424741398231E+03   -0.72610E-02   -0.72947E-02  6480   0.103E-01 0.642E-03
CGA:   7    -0.424743684976E+03   -0.22867E-02   -0.22973E-02  6480   0.330E-02 0.350E-03
CGA:   8    -0.424744643747E+03   -0.95877E-03   -0.95855E-03  6480   0.152E-02 0.636E-05
CGA:   9    -0.424745080197E+03   -0.43645E-03   -0.43417E-03  6480   0.583E-03 0.633E-04
CGA:  10    -0.424745232927E+03   -0.15273E-03   -0.15272E-03  6480   0.183E-03 0.996E-04
CGA:  11    -0.424745287645E+03   -0.54718E-04   -0.54593E-04  6480   0.655E-04 0.418E-04
CGA:  12    -0.424745309132E+03   -0.21487E-04   -0.21216E-04  6480   0.318E-04 0.222E-04
CGA:  13    -0.424745325346E+03   -0.16215E-04   -0.15703E-04  6480   0.230E-04 0.430E-05
CGA:  14    -0.424745245947E+03    0.79399E-04   -0.43456E-04  6480   0.311E-03-0.877E-04
CGA:  15    -0.424745297651E+03   -0.51705E-04   -0.64894E-04  6480   0.485E-04 0.503E-04
CGA:  16    -0.424745315210E+03   -0.17558E-04   -0.18589E-04  6480   0.257E-04 0.807E-05
CGA:  17    -0.424745326677E+03   -0.11467E-04   -0.11659E-04  6480   0.157E-04 0.303E-05
CGA:  18    -0.424745334458E+03   -0.77814E-05   -0.77725E-05  6480   0.905E-05-0.184E-05
CGA:  19    -0.424745342249E+03   -0.77908E-05    0.19952E-04  6480   0.602E-05-0.372E-05
  39 F= -.42474534E+03 E0= -.42474534E+03  d E =-.248994E-01  mag=    18.0000
       N       E                     dE             d eps       ncg     rms          ort
SDA:   1    -0.424648496481E+03    0.96838E-01    0.00000E+00  6480   0.235E+00 0.000E+00
CGA:   2    -0.424727211180E+03   -0.78715E-01   -0.78704E-01  6480   0.875E-01-0.145E-03
CGA:   3    -0.424741922863E+03   -0.14712E-01   -0.14802E-01  6480   0.214E-01 0.318E-03
CGA:   4    -0.424745522529E+03   -0.35997E-02   -0.36136E-02  6480   0.447E-02 0.543E-04
CGA:   5    -0.424746326509E+03   -0.80398E-03   -0.81576E-03  6480   0.122E-02 0.531E-04
CGA:   6    -0.424746544896E+03   -0.21839E-03   -0.23255E-03  6480   0.317E-03 0.699E-04
CGA:   7    -0.424746615404E+03   -0.70509E-04   -0.73998E-04  6480   0.110E-03 0.218E-04
CGA:   8    -0.424746649858E+03   -0.34453E-04   -0.34440E-04  6480   0.566E-04-0.160E-06
CGA:   9    -0.424746658112E+03   -0.82542E-05   -0.11441E-04  6480   0.207E-04 0.192E-04
  40 F= -.42474666E+03 E0= -.42474666E+03  d E =-.131586E-02  mag=    18.0000
       N       E                     dE             d eps       ncg     rms          ort
SDA:   1    -0.424394090310E+03    0.35256E+00    0.00000E+00  6480   0.911E+00 0.000E+00
CGA:   2    -0.424662276131E+03   -0.26819E+00   -0.26816E+00  6480   0.395E+00-0.760E-03
CGA:   3    -0.424730466771E+03   -0.68191E-01   -0.68162E-01  6480   0.103E+00-0.291E-03
CGA:   4    -0.424747360749E+03   -0.16894E-01   -0.16915E-01  6480   0.204E-01 0.105E-03
CGA:   5    -0.424750944552E+03   -0.35838E-02   -0.36059E-02  6480   0.554E-02 0.142E-03
CGA:   6    -0.424752043539E+03   -0.10990E-02   -0.11094E-02  6480   0.158E-02 0.833E-04
CGA:   7    -0.424752420824E+03   -0.37729E-03   -0.37579E-03  6480   0.621E-03-0.187E-04
CGA:   8    -0.424752606052E+03   -0.18523E-03   -0.18486E-03  6480   0.344E-03-0.365E-04
CGA:   9    -0.424752698905E+03   -0.92852E-04   -0.93393E-04  6480   0.144E-03 0.237E-04
CGA:  10    -0.424752741604E+03   -0.42700E-04   -0.43218E-04  6480   0.545E-04 0.173E-04
CGA:  11    -0.424752762349E+03   -0.20745E-04   -0.20791E-04  6480   0.288E-04-0.148E-05
CGA:  12    -0.424752770503E+03   -0.81534E-05   -0.82381E-05  6480   0.129E-04 0.515E-05
  41 F= -.42475277E+03 E0= -.42475277E+03  d E =-.611239E-02  mag=    18.0000
       N       E                     dE             d eps       ncg     rms          ort
SDA:   1    -0.409387071103E+03    0.15366E+02    0.00000E+00  6480   0.396E+02 0.000E+00
CGA:   2    -0.420857345016E+03   -0.11470E+02   -0.11475E+02  6480   0.167E+02 0.430E-01
CGA:   3    -0.423784438547E+03   -0.29271E+01   -0.29298E+01  6480   0.447E+01 0.236E-01
CGA:   4    -0.424524848876E+03   -0.74041E+00   -0.74072E+00  6480   0.887E+00 0.543E-02
CGA:   5    -0.424685653305E+03   -0.16080E+00   -0.16099E+00  6480   0.249E+00 0.126E-02
CGA:   6    -0.424736838022E+03   -0.51185E-01   -0.51232E-01  6480   0.756E-01 0.347E-03
CGA:   7    -0.424754909796E+03   -0.18072E-01   -0.18057E-01  6480   0.304E-01-0.294E-03
CGA:   8    -0.424763837000E+03   -0.89272E-02   -0.89278E-02  6480   0.155E-01-0.223E-03
CGA:   9    -0.424768644396E+03   -0.48074E-02   -0.48054E-02  6480   0.681E-02 0.921E-04
CGA:  10    -0.424770766224E+03   -0.21218E-02   -0.21231E-02  6480   0.271E-02-0.791E-04
CGA:  11    -0.424771635710E+03   -0.86949E-03   -0.87202E-03  6480   0.121E-02-0.817E-04
CGA:  12    -0.424772077142E+03   -0.44143E-03   -0.44199E-03  6480   0.633E-03-0.809E-05
CGA:  13    -0.424772339572E+03   -0.26243E-03   -0.26693E-03  6480   0.338E-03-0.370E-04
CGA:  14    -0.424772447037E+03   -0.10747E-03   -0.10696E-03  6480   0.107E-03 0.164E-04
CGA:  15    -0.424772482656E+03   -0.35619E-04   -0.35570E-04  6480   0.297E-04 0.460E-05
CGA:  16    -0.424772495270E+03   -0.12614E-04   -0.18574E-04  6480   0.325E-04-0.206E-04
CGA:  17    -0.424772500324E+03   -0.50539E-05   -0.63698E-05  6480   0.513E-05 0.104E-04
  42 F= -.42477250E+03 E0= -.42477250E+03  d E =-.197298E-01  mag=    18.0000
       N       E                     dE             d eps       ncg     rms          ort
SDA:   1    -0.421965267826E+03    0.28072E+01    0.00000E+00  6480   0.716E+01 0.000E+00
CGA:   2    -0.424041025627E+03   -0.20758E+01   -0.20761E+01  6480   0.324E+01 0.262E-02
CGA:   3    -0.424595609145E+03   -0.55458E+00   -0.55452E+00  6480   0.798E+00 0.161E-02
CGA:   4    -0.424731462447E+03   -0.13585E+00   -0.13578E+00  6480   0.174E+00-0.578E-03
CGA:   5    -0.424761863441E+03   -0.30401E-01   -0.30339E-01  6480   0.460E-01-0.458E-03
CGA:   6    -0.424771261732E+03   -0.93983E-02   -0.93754E-02  6480   0.138E-01-0.222E-03
CGA:   7    -0.424774337681E+03   -0.30759E-02   -0.30780E-02  6480   0.496E-02 0.217E-04
CGA:   8    -0.424775701999E+03   -0.13643E-02   -0.13658E-02  6480   0.230E-02 0.522E-04
CGA:   9    -0.424776457583E+03   -0.75558E-03   -0.75812E-03  6480   0.115E-02-0.104E-03
CGA:  10    -0.424776817878E+03   -0.36029E-03   -0.36363E-03  6480   0.515E-03-0.116E-03
CGA:  11    -0.424776966923E+03   -0.14905E-03   -0.14984E-03  6480   0.215E-03-0.399E-04
CGA:  12    -0.424777040276E+03   -0.73353E-04   -0.74598E-04  6480   0.111E-03-0.174E-04
CGA:  13    -0.424777073163E+03   -0.32887E-04   -0.32707E-04  6480   0.450E-04 0.159E-04
CGA:  14    -0.424777087392E+03   -0.14229E-04   -0.14543E-04  6480   0.158E-04 0.122E-04
CGA:  15    -0.424777094661E+03   -0.72686E-05   -0.72312E-05  6480   0.681E-05 0.712E-06
  43 F= -.42477709E+03 E0= -.42477709E+03  d E =-.459434E-02  mag=    18.0000
       N       E                     dE             d eps       ncg     rms          ort
SDA:   1    -0.422660021126E+03    0.21171E+01    0.00000E+00  6480   0.548E+01 0.000E+00
CGA:   2    -0.424187980057E+03   -0.15280E+01   -0.15280E+01  6480   0.252E+01 0.940E-03
CGA:   3    -0.424619048811E+03   -0.43107E+00   -0.43164E+00  6480   0.654E+00 0.316E-02
CGA:   4    -0.424730023119E+03   -0.11097E+00   -0.11100E+00  6480   0.137E+00-0.141E-03
CGA:   5    -0.424754369150E+03   -0.24346E-01   -0.24300E-01  6480   0.362E-01-0.430E-03
CGA:   6    -0.424761677546E+03   -0.73084E-02   -0.73253E-02  6480   0.108E-01 0.196E-03
CGA:   7    -0.424764103455E+03   -0.24259E-02   -0.24429E-02  6480   0.387E-02 0.300E-03
CGA:   8    -0.424765251510E+03   -0.11481E-02   -0.11478E-02  6480   0.194E-02 0.224E-04
CGA:   9    -0.424765893509E+03   -0.64200E-03   -0.64669E-03  6480   0.994E-03-0.885E-04
CGA:  10    -0.424766173981E+03   -0.28047E-03   -0.28029E-03  6480   0.381E-03 0.124E-04
CGA:  11    -0.424766294308E+03   -0.12033E-03   -0.12033E-03  6480   0.161E-03-0.260E-06
CGA:  12    -0.424766353376E+03   -0.59067E-04   -0.59031E-04  6480   0.844E-04 0.313E-06
CGA:  13    -0.424766388151E+03   -0.34775E-04   -0.35738E-04  6480   0.488E-04-0.723E-05
CGA:  14    -0.424766393648E+03   -0.54966E-05   -0.36004E-04  6480   0.115E-03-0.597E-04
CGA:  15    -0.424766408963E+03   -0.15316E-04   -0.20103E-04  6480   0.158E-04 0.329E-04
CGA:  16    -0.424766411887E+03   -0.29235E-05   -0.37940E-05  6480   0.534E-05 0.691E-05
  44 F= -.42476641E+03 E0= -.42476641E+03  d E =0.106828E-01  mag=    18.0000
       N       E                     dE             d eps       ncg     rms          ort
SDA:   1    -0.424507995201E+03    0.25841E+00    0.00000E+00  6480   0.700E+00 0.000E+00
CGA:   2    -0.424697262337E+03   -0.18927E+00   -0.18924E+00  6480   0.331E+00-0.949E-03
CGA:   3    -0.424755518332E+03   -0.58256E-01   -0.58193E-01  6480   0.861E-01-0.539E-03
CGA:   4    -0.424769846811E+03   -0.14328E-01   -0.14367E-01  6480   0.181E-01 0.277E-03
CGA:   5    -0.424773004952E+03   -0.31581E-02   -0.31791E-02  6480   0.475E-02 0.178E-03
CGA:   6    -0.424774011113E+03   -0.10062E-02   -0.10029E-02  6480   0.151E-02-0.440E-04
CGA:   7    -0.424774370938E+03   -0.35982E-03   -0.35643E-03  6480   0.613E-03-0.791E-04
CGA:   8    -0.424774524134E+03   -0.15320E-03   -0.15337E-03  6480   0.270E-03 0.118E-04
CGA:   9    -0.424774599231E+03   -0.75097E-04   -0.75258E-04  6480   0.108E-03 0.337E-04
CGA:  10    -0.424774638615E+03   -0.39384E-04   -0.39273E-04  6480   0.538E-04 0.244E-05
CGA:  11    -0.424774654611E+03   -0.15996E-04   -0.15936E-04  6480   0.229E-04 0.646E-05
CGA:  12    -0.424774662953E+03   -0.83419E-05   -0.82336E-05  6480   0.112E-04 0.271E-05
  45 F= -.42477466E+03 E0= -.42477466E+03  d E =-.825107E-02  mag=    18.0000
       N       E                     dE             d eps       ncg     rms          ort
SDA:   1    -0.424620982654E+03    0.15367E+00    0.00000E+00  6480   0.395E+00 0.000E+00
CGA:   2    -0.424741905652E+03   -0.12092E+00   -0.12094E+00  6480   0.156E+00-0.101E-02
CGA:   3    -0.424769471975E+03   -0.27566E-01   -0.27551E-01  6480   0.427E-01-0.191E-03
CGA:   4    -0.424776294497E+03   -0.68225E-02   -0.68585E-02  6480   0.837E-02 0.277E-03
CGA:   5    -0.424777796979E+03   -0.15025E-02   -0.15154E-02  6480   0.233E-02 0.129E-03
CGA:   6    -0.424778278776E+03   -0.48180E-03   -0.48124E-03  6480   0.695E-03-0.875E-05
CGA:   7    -0.424778452669E+03   -0.17389E-03   -0.17313E-03  6480   0.297E-03-0.381E-04
CGA:   8    -0.424778533728E+03   -0.81059E-04   -0.81187E-04  6480   0.145E-03-0.638E-05
CGA:   9    -0.424778572490E+03   -0.38763E-04   -0.38709E-04  6480   0.548E-04 0.192E-04
CGA:  10    -0.424778589842E+03   -0.17351E-04   -0.17277E-04  6480   0.215E-04 0.890E-05
CGA:  11    -0.424778598777E+03   -0.89355E-05   -0.90366E-05  6480   0.132E-04-0.114E-05
  46 F= -.42477860E+03 E0= -.42477860E+03  d E =-.393582E-02  mag=    18.0000
       N       E                     dE             d eps       ncg     rms          ort
SDA:   1    -0.424668808180E+03    0.10978E+00    0.00000E+00  6480   0.280E+00 0.000E+00
CGA:   2    -0.424755850779E+03   -0.87043E-01   -0.87088E-01  6480   0.112E+00-0.190E-02
CGA:   3    -0.424775429746E+03   -0.19579E-01   -0.19646E-01  6480   0.278E-01 0.584E-03
CGA:   4    -0.424779939691E+03   -0.45099E-02   -0.45876E-02  6480   0.550E-02 0.649E-03
CGA:   5    -0.424780936973E+03   -0.99728E-03   -0.10111E-02  6480   0.155E-02 0.143E-03
CGA:   6    -0.424781277252E+03   -0.34028E-03   -0.33778E-03  6480   0.503E-03-0.428E-04
CGA:   7    -0.424781395694E+03   -0.11844E-03   -0.11774E-03  6480   0.211E-03-0.258E-04
CGA:   8    -0.424781447668E+03   -0.51974E-04   -0.52060E-04  6480   0.898E-04 0.131E-04
CGA:   9    -0.424781469947E+03   -0.22279E-04   -0.22943E-04  6480   0.340E-04 0.254E-04
CGA:  10    -0.424781477667E+03   -0.77191E-05   -0.88097E-05  6480   0.146E-04 0.172E-04
  47 F= -.42478148E+03 E0= -.42478148E+03  d E =-.287889E-02  mag=    18.0000
       N       E                     dE             d eps       ncg     rms          ort
SDA:   1    -0.424550127918E+03    0.23134E+00    0.00000E+00  6480   0.599E+00 0.000E+00
CGA:   2    -0.424719944368E+03   -0.16982E+00   -0.16984E+00  6480   0.300E+00-0.247E-02
CGA:   3    -0.424769899755E+03   -0.49955E-01   -0.50056E-01  6480   0.647E-01 0.882E-03
CGA:   4    -0.424781068398E+03   -0.11169E-01   -0.11261E-01  6480   0.149E-01 0.961E-03
CGA:   5    -0.424783674510E+03   -0.26061E-02   -0.26241E-02  6480   0.367E-02 0.198E-03
CGA:   6    -0.424784474775E+03   -0.80026E-03   -0.79708E-03  6480   0.122E-02-0.729E-04
CGA:   7    -0.424784748917E+03   -0.27414E-03   -0.27340E-03  6480   0.452E-03-0.275E-04
CGA:   8    -0.424784868664E+03   -0.11975E-03   -0.11965E-03  6480   0.201E-03 0.582E-05
CGA:   9    -0.424784928447E+03   -0.59783E-04   -0.59288E-04  6480   0.831E-04 0.139E-04
CGA:  10    -0.424784950574E+03   -0.22127E-04   -0.22257E-04  6480   0.292E-04 0.184E-04
CGA:  11    -0.424784962427E+03   -0.11853E-04   -0.11787E-04  6480   0.162E-04 0.865E-06
CGA:  12    -0.424784901674E+03    0.60752E-04   -0.32925E-04  6480   0.308E-03-0.616E-04
CGA:  13    -0.424784955534E+03   -0.53860E-04   -0.60499E-04  6480   0.391E-04 0.237E-04
CGA:  14    -0.424784973958E+03   -0.18424E-04   -0.17997E-04  6480   0.261E-04-0.124E-04
CGA:  15    -0.424784977522E+03   -0.35637E-05   -0.39221E-05  6480   0.110E-04 0.148E-05
  48 F= -.42478498E+03 E0= -.42478498E+03  d E =-.349986E-02  mag=    18.0000
       N       E                     dE             d eps       ncg     rms          ort
SDA:   1    -0.424460358803E+03    0.32462E+00    0.00000E+00  6480   0.885E+00 0.000E+00
CGA:   2    -0.424674960586E+03   -0.21460E+00   -0.21430E+00  6480   0.473E+00-0.207E-02
CGA:   3    -0.424760541545E+03   -0.85581E-01   -0.85771E-01  6480   0.110E+00 0.743E-03
CGA:   4    -0.424778890649E+03   -0.18349E-01   -0.18621E-01  6480   0.258E-01 0.107E-02
CGA:   5    -0.424783376585E+03   -0.44859E-02   -0.45727E-02  6480   0.634E-02 0.375E-03
CGA:   6    -0.424784704297E+03   -0.13277E-02   -0.13225E-02  6480   0.205E-02-0.294E-04
CGA:   7    -0.424785174573E+03   -0.47028E-03   -0.46655E-03  6480   0.731E-03-0.249E-04
CGA:   8    -0.424785354445E+03   -0.17987E-03   -0.18416E-03  6480   0.294E-03 0.357E-04
CGA:   9    -0.424785432271E+03   -0.77825E-04   -0.82175E-04  6480   0.115E-03 0.423E-04
CGA:  10    -0.424785463833E+03   -0.31562E-04   -0.34328E-04  6480   0.473E-04 0.270E-04
CGA:  11    -0.424785480455E+03   -0.16623E-04   -0.17221E-04  6480   0.230E-04 0.939E-05
CGA:  12    -0.424785492963E+03   -0.12507E-04   -0.14376E-04  6480   0.279E-04-0.114E-04
CGA:  13    -0.424785496019E+03   -0.30569E-05   -0.28164E-05  6480   0.174E-04-0.151E-05
  49 F= -.42478550E+03 E0= -.42478550E+03  d E =-.518498E-03  mag=    18.0000
       N       E                     dE             d eps       ncg     rms          ort
SDA:   1    -0.424714721125E+03    0.70772E-01    0.00000E+00  6480   0.191E+00 0.000E+00
CGA:   2    -0.424764871805E+03   -0.50151E-01   -0.50187E-01  6480   0.960E-01 0.390E-03
CGA:   3    -0.424781484704E+03   -0.16613E-01   -0.16536E-01  6480   0.234E-01-0.468E-03
CGA:   4    -0.424785722711E+03   -0.42380E-02   -0.41842E-02  6480   0.631E-02-0.353E-03
CGA:   5    -0.424786812324E+03   -0.10896E-02   -0.10792E-02  6480   0.154E-02-0.699E-04
CGA:   6    -0.424787115776E+03   -0.30345E-03   -0.30427E-03  6480   0.486E-03 0.667E-05
CGA:   7    -0.424787234821E+03   -0.11904E-03   -0.11734E-03  6480   0.190E-03-0.241E-04
CGA:   8    -0.424787290503E+03   -0.55682E-04   -0.55721E-04  6480   0.103E-03-0.384E-04
CGA:   9    -0.424787316970E+03   -0.26467E-04   -0.26952E-04  6480   0.504E-04-0.265E-04
CGA:  10    -0.424787329376E+03   -0.12406E-04   -0.13054E-04  6480   0.259E-04-0.167E-04
CGA:  11    -0.424787332719E+03   -0.33432E-05   -0.36432E-05  6480   0.905E-05 0.297E-05
  50 F= -.42478733E+03 E0= -.42478733E+03  d E =-.183670E-02  mag=    18.0000
       N       E                     dE             d eps       ncg     rms          ort
SDA:   1    -0.424732763985E+03    0.54565E-01    0.00000E+00  6480   0.139E+00 0.000E+00
CGA:   2    -0.424774051049E+03   -0.41287E-01   -0.41284E-01  6480   0.711E-01-0.864E-03
CGA:   3    -0.424785389966E+03   -0.11339E-01   -0.11377E-01  6480   0.146E-01 0.265E-03
CGA:   4    -0.424787888031E+03   -0.24981E-02   -0.25416E-02  6480   0.340E-02 0.364E-03
CGA:   5    -0.424788481303E+03   -0.59327E-03   -0.60161E-03  6480   0.847E-03 0.727E-04
CGA:   6    -0.424788674818E+03   -0.19351E-03   -0.19030E-03  6480   0.292E-03-0.532E-04
CGA:   7    -0.424788738899E+03   -0.64081E-04   -0.63005E-04  6480   0.108E-03-0.227E-04
CGA:   8    -0.424788759907E+03   -0.21008E-04   -0.21816E-04  6480   0.356E-04 0.143E-04
CGA:   9    -0.424788767118E+03   -0.72110E-05   -0.81524E-05  6480   0.134E-04 0.134E-04
  51 F= -.42478877E+03 E0= -.42478877E+03  d E =-.143440E-02  mag=    18.0000
       N       E                     dE             d eps       ncg     rms          ort
SDA:   1    -0.424695480948E+03    0.93279E-01    0.00000E+00  6480   0.272E+00 0.000E+00
CGA:   2    -0.424752848466E+03   -0.57368E-01   -0.57339E-01  6480   0.139E+00-0.646E-03
CGA:   3    -0.424779486628E+03   -0.26638E-01   -0.26682E-01  6480   0.368E-01 0.572E-03
CGA:   4    -0.424785656957E+03   -0.61703E-02   -0.62198E-02  6480   0.830E-02 0.534E-03
CGA:   5    -0.424787071230E+03   -0.14143E-02   -0.14317E-02  6480   0.198E-02 0.203E-03
CGA:   6    -0.424787482796E+03   -0.41157E-03   -0.41351E-03  6480   0.623E-03 0.413E-04
CGA:   7    -0.424787624968E+03   -0.14217E-03   -0.14247E-03  6480   0.206E-03 0.123E-04
CGA:   8    -0.424787678482E+03   -0.53514E-04   -0.53414E-04  6480   0.828E-04 0.140E-04
CGA:   9    -0.424787701479E+03   -0.22997E-04   -0.22828E-04  6480   0.321E-04 0.154E-04
CGA:  10    -0.424787709276E+03   -0.77972E-05   -0.82248E-05  6480   0.132E-04 0.135E-04
  52 F= -.42478771E+03 E0= -.42478771E+03  d E =0.105784E-02  mag=    18.0000
       N       E                     dE             d eps       ncg     rms          ort
SDA:   1    -0.424267476372E+03    0.52023E+00    0.00000E+00  6480   0.148E+01 0.000E+00
CGA:   2    -0.424593168270E+03   -0.32569E+00   -0.32569E+00  6480   0.779E+00-0.107E-02
CGA:   3    -0.424738984297E+03   -0.14582E+00   -0.14597E+00  6480   0.197E+00 0.247E-02
CGA:   4    -0.424772431753E+03   -0.33447E-01   -0.33559E-01  6480   0.439E-01 0.153E-02
CGA:   5    -0.424780060418E+03   -0.76287E-02   -0.76569E-02  6480   0.106E-01 0.429E-03
CGA:   6    -0.424782273120E+03   -0.22127E-02   -0.22152E-02  6480   0.333E-02 0.932E-04
CGA:   7    -0.424783016019E+03   -0.74290E-03   -0.74389E-03  6480   0.108E-02 0.890E-04
CGA:   8    -0.424783310014E+03   -0.29399E-03   -0.29186E-03  6480   0.457E-03 0.694E-04
CGA:   9    -0.424783451943E+03   -0.14193E-03   -0.13940E-03  6480   0.195E-03 0.471E-04
CGA:  10    -0.424783508284E+03   -0.56341E-04   -0.55314E-04  6480   0.768E-04 0.474E-04
CGA:  11    -0.424783532593E+03   -0.24309E-04   -0.23933E-04  6480   0.331E-04 0.271E-04
CGA:  12    -0.424783549319E+03   -0.16726E-04   -0.16631E-04  6480   0.234E-04 0.654E-06
CGA:  13    -0.424783558270E+03   -0.89514E-05   -0.12239E-04  6480   0.234E-04-0.123E-04
  53 F= -.42478356E+03 E0= -.42478356E+03  d E =0.415101E-02  mag=    18.0000
       N       E                     dE             d eps       ncg     rms          ort
SDA:   1    -0.424571613887E+03    0.21194E+00    0.00000E+00  6480   0.547E+00 0.000E+00
CGA:   2    -0.424722607928E+03   -0.15099E+00   -0.15101E+00  6480   0.285E+00-0.107E-02
CGA:   3    -0.424770358021E+03   -0.47750E-01   -0.47885E-01  6480   0.622E-01 0.138E-02
CGA:   4    -0.424780921104E+03   -0.10563E-01   -0.10637E-01  6480   0.141E-01 0.855E-03
CGA:   5    -0.424783393771E+03   -0.24727E-02   -0.24903E-02  6480   0.346E-02 0.224E-03
CGA:   6    -0.424784110034E+03   -0.71626E-03   -0.71863E-03  6480   0.108E-02 0.539E-04
CGA:   7    -0.424784342654E+03   -0.23262E-03   -0.23421E-03  6480   0.352E-03 0.500E-04
CGA:   8    -0.424784433633E+03   -0.90978E-04   -0.90859E-04  6480   0.143E-03 0.461E-04
CGA:   9    -0.424784471276E+03   -0.37643E-04   -0.38049E-04  6480   0.578E-04 0.463E-04
CGA:  10    -0.424784484004E+03   -0.12728E-04   -0.14534E-04  6480   0.256E-04 0.335E-04
CGA:  11    -0.424784491017E+03   -0.70130E-05   -0.67854E-05  6480   0.126E-04 0.971E-05
  54 F= -.42478449E+03 E0= -.42478449E+03  d E =-.932746E-03  mag=    18.0000
       N       E                     dE             d eps       ncg     rms          ort
SDA:   1    -0.424682551026E+03    0.10193E+00    0.00000E+00  6480   0.291E+00 0.000E+00
CGA:   2    -0.424745912463E+03   -0.63361E-01   -0.63398E-01  6480   0.153E+00 0.132E-02
CGA:   3    -0.424775451525E+03   -0.29539E-01   -0.29524E-01  6480   0.398E-01-0.373E-03
CGA:   4    -0.424782407178E+03   -0.69557E-02   -0.68997E-02  6480   0.101E-01-0.852E-03
CGA:   5    -0.424784186059E+03   -0.17789E-02   -0.17647E-02  6480   0.258E-02-0.245E-03
CGA:   6    -0.424784662578E+03   -0.47652E-03   -0.48067E-03  6480   0.722E-03 0.947E-04
CGA:   7    -0.424784827019E+03   -0.16444E-03   -0.16497E-03  6480   0.235E-03 0.455E-04
CGA:   8    -0.424784905765E+03   -0.78747E-04   -0.86742E-04  6480   0.166E-03-0.693E-04
CGA:   9    -0.424784939092E+03   -0.33326E-04   -0.36627E-04  6480   0.852E-04-0.439E-04
CGA:  10    -0.424784957357E+03   -0.18265E-04   -0.19675E-04  6480   0.406E-04-0.194E-04
CGA:  11    -0.424784967427E+03   -0.10070E-04   -0.11771E-04  6480   0.268E-04-0.130E-04
CGA:  12    -0.424784969311E+03   -0.18845E-05   -0.27174E-05  6480   0.142E-04 0.816E-05
  55 F= -.42478497E+03 E0= -.42478497E+03  d E =-.478295E-03  mag=    18.0000
       N       E                     dE             d eps       ncg     rms          ort
SDA:   1    -0.424751952521E+03    0.33015E-01    0.00000E+00  6480   0.970E-01 0.000E+00
CGA:   2    -0.424772341551E+03   -0.20389E-01   -0.20380E-01  6480   0.485E-01-0.333E-03
CGA:   3    -0.424781592788E+03   -0.92512E-02   -0.92752E-02  6480   0.134E-01 0.495E-03
CGA:   4    -0.424783853022E+03   -0.22602E-02   -0.22889E-02  6480   0.305E-02 0.424E-03
CGA:   5    -0.424784381532E+03   -0.52851E-03   -0.53735E-03  6480   0.731E-03 0.142E-03
CGA:   6    -0.424784543526E+03   -0.16199E-03   -0.16223E-03  6480   0.244E-03 0.130E-04
CGA:   7    -0.424784598501E+03   -0.54975E-04   -0.55061E-04  6480   0.814E-04 0.124E-04
CGA:   8    -0.424784614991E+03   -0.16489E-04   -0.17140E-04  6480   0.277E-04 0.231E-04
CGA:   9    -0.424784620597E+03   -0.56063E-05   -0.63389E-05  6480   0.123E-04 0.150E-04
  56 F= -.42478462E+03 E0= -.42478462E+03  d E =0.348714E-03  mag=    18.0000
       N       E                     dE             d eps       ncg     rms          ort
SDA:   1    -0.424765244165E+03    0.19371E-01    0.00000E+00  6480   0.528E-01 0.000E+00
[...]
CGA:  13    -0.424744747879E+03   -0.88474E-04   -0.11676E-03  6480   0.217E-03-0.959E-04
CGA:  14    -0.424744783181E+03   -0.35302E-04   -0.47942E-04  6480   0.130E-03-0.869E-04
CGA:  15    -0.424744793679E+03   -0.10498E-04   -0.12596E-04  6480   0.646E-04 0.177E-04
CGA:  16    -0.424744800804E+03   -0.71251E-05   -0.10391E-04  6480   0.292E-04 0.246E-04
  66 F= -.42474480E+03 E0= -.42474480E+03  d E =0.252189E-01  mag=    18.0000
       N       E                     dE             d eps       ncg     rms          ort
SDA:   1    -0.419833418020E+03    0.49114E+01    0.00000E+00  6480   0.120E+02 0.000E+00
CGA:   2    -0.423608164743E+03   -0.37747E+01   -0.37740E+01  6480   0.506E+01 0.925E-02
CGA:   3    -0.424453911071E+03   -0.84575E+00   -0.84554E+00  6480   0.122E+01-0.116E-02
CGA:   4    -0.424658491047E+03   -0.20458E+00   -0.20453E+00  6480   0.245E+00-0.909E-03
CGA:   5    -0.424703110186E+03   -0.44619E-01   -0.44636E-01  6480   0.690E-01 0.176E-03
CGA:   6    -0.424717030936E+03   -0.13921E-01   -0.13940E-01  6480   0.190E-01 0.377E-03
CGA:   7    -0.424721344164E+03   -0.43132E-02   -0.43191E-02  6480   0.686E-02 0.247E-03
CGA:   8    -0.424723311653E+03   -0.19675E-02   -0.19625E-02  6480   0.322E-02 0.145E-03
CGA:   9    -0.424724334509E+03   -0.10229E-02   -0.10184E-02  6480   0.141E-02 0.742E-04
CGA:  10    -0.424724773875E+03   -0.43937E-03   -0.43767E-03  6480   0.535E-03 0.325E-04
CGA:  11    -0.424724943342E+03   -0.16947E-03   -0.16865E-03  6480   0.218E-03 0.152E-04
CGA:  12    -0.424725032418E+03   -0.89076E-04   -0.92420E-04  6480   0.142E-03-0.219E-04
CGA:  13    -0.424725085763E+03   -0.53345E-04   -0.55485E-04  6480   0.816E-04-0.130E-04
CGA:  14    -0.424725114690E+03   -0.28927E-04   -0.30915E-04  6480   0.358E-04-0.140E-04
CGA:  15    -0.424725123401E+03   -0.87110E-05   -0.86930E-05  6480   0.101E-04 0.147E-05
  67 F= -.42472512E+03 E0= -.42472512E+03  d E =0.196774E-01  mag=    18.0000
       N       E                     dE             d eps       ncg     rms          ort
SDA:   1    -0.415196414731E+03    0.95287E+01    0.00000E+00  6480   0.247E+02 0.000E+00
CGA:   2    -0.422331676771E+03   -0.71353E+01   -0.71351E+01  6480   0.101E+02 0.398E-02
CGA:   3    -0.424154067144E+03   -0.18224E+01   -0.18231E+01  6480   0.273E+01-0.164E-02
CGA:   4    -0.424608789578E+03   -0.45472E+00   -0.45501E+00  6480   0.525E+00 0.125E-02
CGA:   5    -0.424704172810E+03   -0.95383E-01   -0.95429E-01  6480   0.151E+00 0.310E-03
CGA:   6    -0.424735833566E+03   -0.31661E-01   -0.31626E-01  6480   0.465E-01-0.654E-03
CGA:   7    -0.424746772190E+03   -0.10939E-01   -0.10922E-01  6480   0.191E-01-0.584E-03
CGA:   8    -0.424752356567E+03   -0.55844E-02   -0.55921E-02  6480   0.988E-02-0.238E-03
CGA:   9    -0.424755485148E+03   -0.31286E-02   -0.31461E-02  6480   0.463E-02-0.309E-03
CGA:  10    -0.424756928943E+03   -0.14438E-02   -0.14628E-02  6480   0.197E-02-0.328E-03
CGA:  11    -0.424757504710E+03   -0.57577E-03   -0.57757E-03  6480   0.820E-03-0.425E-04
CGA:  12    -0.424757795231E+03   -0.29052E-03   -0.28952E-03  6480   0.404E-03 0.107E-04
CGA:  13    -0.424757932337E+03   -0.13711E-03   -0.13375E-03  6480   0.163E-03 0.679E-04
CGA:  14    -0.424757980650E+03   -0.48312E-04   -0.49486E-04  6480   0.541E-04 0.586E-04
CGA:  15    -0.424758002306E+03   -0.21656E-04   -0.21453E-04  6480   0.204E-04 0.156E-04
CGA:  16    -0.424758012107E+03   -0.98008E-05   -0.95778E-05  6480   0.985E-05 0.258E-05
  68 F= -.42475801E+03 E0= -.42475801E+03  d E =-.328887E-01  mag=    18.0000
       N       E                     dE             d eps       ncg     rms          ort
SDA:   1    -0.409792128503E+03    0.14966E+02    0.00000E+00  6480   0.369E+02 0.000E+00
CGA:   2    -0.421404372188E+03   -0.11612E+02   -0.11611E+02  6480   0.146E+02 0.104E-01
CGA:   3    -0.423935995829E+03   -0.25316E+01   -0.25358E+01  6480   0.372E+01 0.163E-01
CGA:   4    -0.424562096274E+03   -0.62610E+00   -0.62654E+00  6480   0.737E+00 0.461E-02
CGA:   5    -0.424698117009E+03   -0.13602E+00   -0.13602E+00  6480   0.218E+00-0.308E-03
CGA:   6    -0.424743324341E+03   -0.45207E-01   -0.45189E-01  6480   0.650E-01-0.453E-03
CGA:   7    -0.424758519249E+03   -0.15195E-01   -0.15188E-01  6480   0.257E-01-0.306E-03
CGA:   8    -0.424766079656E+03   -0.75604E-02   -0.75836E-02  6480   0.128E-01-0.642E-03
CGA:   9    -0.424769946095E+03   -0.38664E-02   -0.38841E-02  6480   0.541E-02-0.364E-03
CGA:  10    -0.424771552352E+03   -0.16063E-02   -0.16161E-02  6480   0.203E-02-0.228E-03
CGA:  11    -0.424772208876E+03   -0.65652E-03   -0.68100E-03  6480   0.101E-02-0.291E-03
CGA:  12    -0.424772518704E+03   -0.30983E-03   -0.31048E-03  6480   0.488E-03-0.815E-05
CGA:  13    -0.424772709452E+03   -0.19075E-03   -0.19113E-03  6480   0.248E-03-0.366E-05
CGA:  14    -0.424772802115E+03   -0.92664E-04   -0.92977E-04  6480   0.948E-04-0.348E-05
CGA:  15    -0.424772821824E+03   -0.19709E-04   -0.21412E-04  6480   0.276E-04 0.301E-04
CGA:  16    -0.424772830723E+03   -0.88985E-05   -0.91095E-05  6480   0.914E-05 0.646E-05
  69 F= -.42477283E+03 E0= -.42477283E+03  d E =-.148186E-01  mag=    18.0000
       N       E                     dE             d eps       ncg     rms          ort
SDA:   1    -0.412143784431E+03    0.12629E+02    0.00000E+00  6480   0.318E+02 0.000E+00
CGA:   2    -0.421848843816E+03   -0.97051E+01   -0.97042E+01  6480   0.119E+02 0.374E-01
CGA:   3    -0.424047773614E+03   -0.21989E+01   -0.22002E+01  6480   0.318E+01 0.957E-02
CGA:   4    -0.424572099995E+03   -0.52433E+00   -0.52440E+00  6480   0.608E+00-0.139E-02
CGA:   5    -0.424685892440E+03   -0.11379E+00   -0.11376E+00  6480   0.184E+00-0.361E-03
CGA:   6    -0.424723168191E+03   -0.37276E-01   -0.37366E-01  6480   0.540E-01 0.114E-02
CGA:   7    -0.424735985745E+03   -0.12818E-01   -0.12844E-01  6480   0.222E-01 0.680E-03
CGA:   8    -0.424742670990E+03   -0.66852E-02   -0.66852E-02  6480   0.115E-01-0.568E-05
CGA:   9    -0.424746256311E+03   -0.35853E-02   -0.35794E-02  6480   0.502E-02 0.158E-03
CGA:  10    -0.424747805492E+03   -0.15492E-02   -0.15470E-02  6480   0.193E-02 0.759E-04
CGA:  11    -0.424748465765E+03   -0.66027E-03   -0.66750E-03  6480   0.953E-03-0.116E-03
CGA:  12    -0.424748789628E+03   -0.32386E-03   -0.32174E-03  6480   0.469E-03 0.259E-04
CGA:  13    -0.424748999678E+03   -0.21005E-03   -0.23086E-03  6480   0.338E-03-0.107E-03
CGA:  14    -0.424749098853E+03   -0.99175E-04   -0.11014E-03  6480   0.152E-03-0.856E-04
CGA:  15    -0.424749117851E+03   -0.18998E-04   -0.22442E-04  6480   0.562E-04 0.333E-04
CGA:  16    -0.424749127137E+03   -0.92862E-05   -0.11802E-04  6480   0.202E-04 0.205E-04
  70 F= -.42474913E+03 E0= -.42474913E+03  d E =0.237036E-01  mag=    18.0000
       N       E                     dE             d eps       ncg     rms          ort
SDA:   1    -0.394652153707E+03    0.30097E+02    0.00000E+00  6480   0.742E+02 0.000E+00
CGA:   2    -0.417897873671E+03   -0.23246E+02   -0.23241E+02  6480   0.293E+02 0.107E+00
CGA:   3    -0.422997868840E+03   -0.51000E+01   -0.51041E+01  6480   0.724E+01 0.655E-01
CGA:   4    -0.424230201693E+03   -0.12323E+01   -0.12333E+01  6480   0.148E+01 0.508E-02
CGA:   5    -0.424506398452E+03   -0.27620E+00   -0.27635E+00  6480   0.452E+00 0.128E-02
CGA:   6    -0.424600367391E+03   -0.93969E-01   -0.94124E-01  6480   0.136E+00 0.214E-02
CGA:   7    -0.424632714864E+03   -0.32347E-01   -0.32381E-01  6480   0.553E-01 0.927E-03
CGA:   8    -0.424648949492E+03   -0.16235E-01   -0.16237E-01  6480   0.265E-01-0.155E-03
CGA:   9    -0.424656876416E+03   -0.79269E-02   -0.79251E-02  6480   0.104E-01 0.573E-04
CGA:  10    -0.424659962846E+03   -0.30864E-02   -0.30864E-02  6480   0.368E-02-0.504E-05
CGA:  11    -0.424661164263E+03   -0.12014E-02   -0.12117E-02  6480   0.167E-02-0.185E-03
CGA:  12    -0.424661774233E+03   -0.60997E-03   -0.61713E-03  6480   0.944E-03-0.648E-04
CGA:  13    -0.424662177641E+03   -0.40341E-03   -0.44052E-03  6480   0.656E-03-0.184E-03
CGA:  14    -0.424662381085E+03   -0.20344E-03   -0.21507E-03  6480   0.267E-03-0.102E-03
CGA:  15    -0.424662431256E+03   -0.50171E-04   -0.53284E-04  6480   0.823E-04 0.510E-04
CGA:  16    -0.424662452153E+03   -0.20897E-04   -0.22327E-04  6480   0.288E-04 0.215E-04
CGA:  17    -0.424662463839E+03   -0.11686E-04   -0.11609E-04  6480   0.143E-04 0.266E-05
CGA:  18    -0.424662463977E+03   -0.13792E-06   -0.19075E-05  6480   0.934E-05 0.104E-04
  71 F= -.42466246E+03 E0= -.42466246E+03  d E =0.866632E-01  mag=    18.0000
       N       E                     dE             d eps       ncg     rms          ort
SDA:   1    -0.415847367467E+03    0.88151E+01    0.00000E+00  6480   0.220E+02 0.000E+00
CGA:   2    -0.422768716905E+03   -0.69213E+01   -0.69210E+01  6480   0.817E+01-0.298E-02
CGA:   3    -0.424251689960E+03   -0.14830E+01   -0.14840E+01  6480   0.223E+01 0.181E-03
CGA:   4    -0.424618562090E+03   -0.36687E+00   -0.36720E+00  6480   0.425E+00 0.169E-02
CGA:   5    -0.424698638316E+03   -0.80076E-01   -0.80068E-01  6480   0.129E+00-0.255E-03
CGA:   6    -0.424725179179E+03   -0.26541E-01   -0.26506E-01  6480   0.384E-01-0.655E-03
CGA:   7    -0.424734411429E+03   -0.92322E-02   -0.92224E-02  6480   0.160E-01-0.493E-03
CGA:   8    -0.424739050578E+03   -0.46391E-02   -0.46543E-02  6480   0.798E-02-0.453E-03
CGA:   9    -0.424741497485E+03   -0.24469E-02   -0.24661E-02  6480   0.352E-02-0.347E-03
CGA:  10    -0.424742570367E+03   -0.10729E-02   -0.10896E-02  6480   0.143E-02-0.287E-03
CGA:  11    -0.424743011011E+03   -0.44064E-03   -0.45240E-03  6480   0.686E-03-0.157E-03
CGA:  12    -0.424743227720E+03   -0.21671E-03   -0.21590E-03  6480   0.319E-03 0.944E-05
CGA:  13    -0.424743337793E+03   -0.11007E-03   -0.10745E-03  6480   0.128E-03 0.467E-04
CGA:  14    -0.424743384236E+03   -0.46443E-04   -0.45611E-04  6480   0.441E-04 0.269E-04
CGA:  15    -0.424743399442E+03   -0.15206E-04   -0.15153E-04  6480   0.144E-04 0.134E-04
CGA:  16    -0.424743405167E+03   -0.57253E-05   -0.56381E-05  6480   0.590E-05 0.453E-05
  72 F= -.42474341E+03 E0= -.42474341E+03  d E =-.809412E-01  mag=    18.0000
       N       E                     dE             d eps       ncg     rms          ort
SDA:   1    -0.413359143862E+03    0.11384E+02    0.00000E+00  6480   0.285E+02 0.000E+00
CGA:   2    -0.422023466250E+03   -0.86643E+01   -0.86636E+01  6480   0.122E+02 0.488E-02
CGA:   3    -0.424091498539E+03   -0.20680E+01   -0.20712E+01  6480   0.302E+01 0.115E-01
CGA:   4    -0.424601435652E+03   -0.50994E+00   -0.51028E+00  6480   0.608E+00 0.324E-02
CGA:   5    -0.424711408178E+03   -0.10997E+00   -0.10994E+00  6480   0.173E+00-0.583E-03
CGA:   6    -0.424747242618E+03   -0.35834E-01   -0.35793E-01  6480   0.514E-01-0.830E-03
CGA:   7    -0.424758959106E+03   -0.11716E-01   -0.11710E-01  6480   0.194E-01-0.235E-03
CGA:   8    -0.424764556477E+03   -0.55974E-02   -0.56038E-02  6480   0.952E-02-0.204E-03
CGA:   9    -0.424767521760E+03   -0.29653E-02   -0.29818E-02  6480   0.424E-02-0.294E-03
CGA:  10    -0.424768803740E+03   -0.12820E-02   -0.12959E-02  6480   0.168E-02-0.266E-03
CGA:  11    -0.424769323152E+03   -0.51941E-03   -0.53491E-03  6480   0.771E-03-0.209E-03
CGA:  12    -0.424769564284E+03   -0.24113E-03   -0.24217E-03  6480   0.370E-03-0.122E-04
CGA:  13    -0.424769699929E+03   -0.13564E-03   -0.13294E-03  6480   0.169E-03 0.293E-04
CGA:  14    -0.424769764533E+03   -0.64604E-04   -0.63242E-04  6480   0.618E-04 0.195E-04
CGA:  15    -0.424769782732E+03   -0.18199E-04   -0.18454E-04  6480   0.178E-04 0.185E-04
CGA:  16    -0.424769789904E+03   -0.71719E-05   -0.70813E-05  6480   0.671E-05 0.358E-05
  73 F= -.42476979E+03 E0= -.42476979E+03  d E =-.263847E-01  mag=    18.0000
       N       E                     dE             d eps       ncg     rms          ort
SDA:   1    -0.423154694691E+03    0.16151E+01    0.00000E+00  6480   0.395E+01 0.000E+00
CGA:   2    -0.424397207102E+03   -0.12425E+01   -0.12423E+01  6480   0.151E+01 0.502E-02
CGA:   3    -0.424666783235E+03   -0.26958E+00   -0.26951E+00  6480   0.404E+00-0.633E-03
CGA:   4    -0.424734760280E+03   -0.67977E-01   -0.67864E-01  6480   0.800E-01-0.123E-02
CGA:   5    -0.424749437627E+03   -0.14677E-01   -0.14678E-01  6480   0.232E-01-0.125E-04
CGA:   6    -0.424754091833E+03   -0.46542E-02   -0.46785E-02  6480   0.665E-02 0.372E-03
CGA:   7    -0.424755658161E+03   -0.15663E-02   -0.15710E-02  6480   0.258E-02 0.149E-03
CGA:   8    -0.424756426697E+03   -0.76854E-03   -0.76955E-03  6480   0.129E-02-0.337E-04
CGA:   9    -0.424756808801E+03   -0.38210E-03   -0.38086E-03  6480   0.537E-03 0.334E-04
CGA:  10    -0.424756966494E+03   -0.15769E-03   -0.15689E-03  6480   0.193E-03 0.402E-04
CGA:  11    -0.424757033221E+03   -0.66727E-04   -0.66419E-04  6480   0.901E-04 0.545E-05
CGA:  12    -0.424757064187E+03   -0.30966E-04   -0.30166E-04  6480   0.436E-04 0.139E-04
CGA:  13    -0.424757086932E+03   -0.22745E-04   -0.27033E-04  6480   0.474E-04-0.162E-04
CGA:  14    -0.424757091479E+03   -0.45478E-05   -0.18440E-04  6480   0.546E-04-0.417E-04
  74 F= -.42475709E+03 E0= -.42475709E+03  d E =0.126984E-01  mag=    18.0000
       N       E                     dE             d eps       ncg     rms          ort
SDA:   1    -0.423925703649E+03    0.83138E+00    0.00000E+00  6480   0.215E+01 0.000E+00
CGA:   2    -0.424523348934E+03   -0.59765E+00   -0.59768E+00  6480   0.107E+01 0.151E-02
CGA:   3    -0.424703600194E+03   -0.18025E+00   -0.18018E+00  6480   0.254E+00-0.759E-03
CGA:   4    -0.424747137673E+03   -0.43537E-01   -0.43511E-01  6480   0.567E-01-0.238E-03
CGA:   5    -0.424757004816E+03   -0.98671E-02   -0.99008E-02  6480   0.143E-01 0.303E-03
CGA:   6    -0.424759881765E+03   -0.28769E-02   -0.28997E-02  6480   0.420E-02 0.298E-03
CGA:   7    -0.424760823113E+03   -0.94135E-03   -0.94599E-03  6480   0.140E-02 0.870E-04
CGA:   8    -0.424761204997E+03   -0.38188E-03   -0.38200E-03  6480   0.607E-03 0.371E-04
CGA:   9    -0.424761379877E+03   -0.17488E-03   -0.17441E-03  6480   0.237E-03 0.499E-04
CGA:  10    -0.424761449778E+03   -0.69900E-04   -0.69846E-04  6480   0.857E-04 0.320E-04
CGA:  11    -0.424761476308E+03   -0.26531E-04   -0.26506E-04  6480   0.338E-04 0.177E-04
CGA:  12    -0.424761491224E+03   -0.14915E-04   -0.14736E-04  6480   0.213E-04 0.194E-05
CGA:  13    -0.424761498241E+03   -0.70168E-05   -0.16967E-04  6480   0.487E-04-0.209E-04
  75 F= -.42476150E+03 E0= -.42476150E+03  d E =-.440676E-02  mag=    18.0000
       N       E                     dE             d eps       ncg     rms          ort
SDA:   1    -0.424446198276E+03    0.31529E+00    0.00000E+00  6480   0.794E+00 0.000E+00
CGA:   2    -0.424689433564E+03   -0.24324E+00   -0.24326E+00  6480   0.344E+00-0.208E-02
CGA:   3    -0.424747526179E+03   -0.58093E-01   -0.58165E-01  6480   0.848E-01 0.407E-03
CGA:   4    -0.424761670854E+03   -0.14145E-01   -0.14183E-01  6480   0.165E-01 0.290E-03
CGA:   5    -0.424764675456E+03   -0.30046E-02   -0.30005E-02  6480   0.468E-02-0.440E-04
CGA:   6    -0.424765657453E+03   -0.98200E-03   -0.97544E-03  6480   0.137E-02-0.975E-04
CGA:   7    -0.424765969856E+03   -0.31240E-03   -0.31038E-03  6480   0.521E-03-0.475E-04
CGA:   8    -0.424766125869E+03   -0.15601E-03   -0.15824E-03  6480   0.295E-03-0.523E-04
CGA:   9    -0.424766214669E+03   -0.88800E-04   -0.92123E-04  6480   0.157E-03-0.457E-04
CGA:  10    -0.424766257778E+03   -0.43109E-04   -0.44661E-04  6480   0.689E-04-0.266E-04
CGA:  11    -0.424766276849E+03   -0.19071E-04   -0.19933E-04  6480   0.326E-04-0.127E-04
CGA:  12    -0.424766283197E+03   -0.63476E-05   -0.65971E-05  6480   0.125E-04 0.701E-05
  76 F= -.42476628E+03 E0= -.42476628E+03  d E =-.478496E-02  mag=    18.0000
       N       E                     dE             d eps       ncg     rms          ort
SDA:   1    -0.424646233795E+03    0.12004E+00    0.00000E+00  6480   0.305E+00 0.000E+00
CGA:   2    -0.424733804584E+03   -0.87571E-01   -0.87579E-01  6480   0.160E+00-0.105E-02
CGA:   3    -0.424759509954E+03   -0.25705E-01   -0.25814E-01  6480   0.350E-01 0.854E-03
CGA:   4    -0.424765349168E+03   -0.58392E-02   -0.59056E-02  6480   0.761E-02 0.624E-03
CGA:   5    -0.424766718511E+03   -0.13693E-02   -0.13799E-02  6480   0.199E-02 0.116E-03
CGA:   6    -0.424767139507E+03   -0.42100E-03   -0.42049E-03  6480   0.610E-03-0.967E-05
CGA:   7    -0.424767279690E+03   -0.14018E-03   -0.13979E-03  6480   0.220E-03-0.131E-04
CGA:   8    -0.424767337298E+03   -0.57609E-04   -0.57561E-04  6480   0.952E-04 0.590E-05
CGA:   9    -0.424767358869E+03   -0.21571E-04   -0.22384E-04  6480   0.338E-04 0.267E-04
CGA:  10    -0.424767365783E+03   -0.69136E-05   -0.81801E-05  6480   0.146E-04 0.183E-04
  77 F= -.42476737E+03 E0= -.42476737E+03  d E =-.108259E-02  mag=    18.0000
       N       E                     dE             d eps       ncg     rms          ort
SDA:   1    -0.424538474905E+03    0.22888E+00    0.00000E+00  6480   0.558E+00 0.000E+00
CGA:   2    -0.424713089717E+03   -0.17461E+00   -0.17452E+00  6480   0.219E+00 0.189E-02
CGA:   3    -0.424751956145E+03   -0.38866E-01   -0.38800E-01  6480   0.575E-01-0.778E-03
CGA:   4    -0.424761408343E+03   -0.94522E-02   -0.94079E-02  6480   0.110E-01-0.475E-03
CGA:   5    -0.424763410277E+03   -0.20019E-02   -0.20028E-02  6480   0.314E-02 0.945E-05
CGA:   6    -0.424764015259E+03   -0.60498E-03   -0.61125E-03  6480   0.821E-03 0.104E-03
CGA:   7    -0.424764205232E+03   -0.18997E-03   -0.19079E-03  6480   0.302E-03 0.311E-04
CGA:   8    -0.424764301592E+03   -0.96360E-04   -0.97492E-04  6480   0.175E-03-0.184E-04
CGA:   9    -0.424764352999E+03   -0.51407E-04   -0.51734E-04  6480   0.805E-04-0.531E-05
CGA:  10    -0.424764375061E+03   -0.22062E-04   -0.21941E-04  6480   0.286E-04 0.480E-05
CGA:  11    -0.424764383132E+03   -0.80713E-05   -0.80344E-05  6480   0.109E-04 0.481E-05
  78 F= -.42476438E+03 E0= -.42476438E+03  d E =0.298265E-02  mag=    18.0000
       N       E                     dE             d eps       ncg     rms          ort
SDA:   1    -0.424738203004E+03    0.26172E-01    0.00000E+00  6480   0.743E-01 0.000E+00
CGA:   2    -0.424752952959E+03   -0.14750E-01   -0.14761E-01  6480   0.376E-01 0.138E-03
CGA:   3    -0.424760722145E+03   -0.77692E-02   -0.77280E-02  6480   0.115E-01-0.799E-03
CGA:   4    -0.424762670212E+03   -0.19481E-02   -0.19197E-02  6480   0.281E-02-0.339E-03
CGA:   5    -0.424763139898E+03   -0.46969E-03   -0.47306E-03  6480   0.678E-03 0.428E-04
CGA:   6    -0.424763259254E+03   -0.11936E-03   -0.12441E-03  6480   0.182E-03 0.761E-04
CGA:   7    -0.424763304536E+03   -0.45282E-04   -0.45499E-04  6480   0.641E-04 0.115E-04
CGA:   8    -0.424763325565E+03   -0.21029E-04   -0.22882E-04  6480   0.441E-04-0.199E-04
CGA:   9    -0.424763332451E+03   -0.68860E-05   -0.68485E-05  6480   0.176E-04-0.169E-05
  79 F= -.42476333E+03 E0= -.42476333E+03  d E =0.105068E-02  mag=    18.0000
       N       E                     dE             d eps       ncg     rms          ort
SDA:   1    -0.424738117570E+03    0.25208E-01    0.00000E+00  6480   0.686E-01 0.000E+00
CGA:   2    -0.424757818174E+03   -0.19701E-01   -0.19725E-01  6480   0.345E-01-0.571E-03
CGA:   3    -0.424763339157E+03   -0.55210E-02   -0.55598E-02  6480   0.804E-02 0.452E-03
CGA:   4    -0.424764696279E+03   -0.13571E-02   -0.13717E-02  6480   0.170E-02 0.197E-03
CGA:   5    -0.424765026297E+03   -0.33002E-03   -0.32723E-03  6480   0.481E-03-0.570E-04
CGA:   6    -0.424765133481E+03   -0.10718E-03   -0.10690E-03  6480   0.174E-03-0.552E-04
CGA:   7    -0.424765166789E+03   -0.33308E-04   -0.33200E-04  6480   0.554E-04-0.554E-05
CGA:   8    -0.424765182657E+03   -0.15868E-04   -0.16465E-04  6480   0.288E-04-0.821E-05
CGA:   9    -0.424765190184E+03   -0.75272E-05   -0.11186E-04  6480   0.310E-04-0.168E-04
  80 F= -.42476519E+03 E0= -.42476519E+03  d E =-.185773E-02  mag=    18.0000
