       N       E                     dE             d eps       ncg     rms          ort
DAV:   1     0.113042185098E+05    0.11304E+05   -0.60753E+05   720   0.157E+03
DAV:   2    -0.733522471447E+03   -0.12038E+05   -0.11534E+05   720   0.446E+02
DAV:   3    -0.204674829015E+04   -0.13132E+04   -0.12818E+04   720   0.159E+02
DAV:   4    -0.212308507281E+04   -0.76337E+02   -0.75149E+02   720   0.407E+01
DAV:   5    -0.213021791936E+04   -0.71328E+01   -0.70745E+01   720   0.809E+00
SDA:   6    -0.147732964372E+04    0.65289E+03   -0.70745E+01   720   0.181E+04 0.000E+00
CGA:   7    -0.168557710686E+04   -0.20825E+03   -0.22463E+03   720   0.386E+03 0.829E+02
CGA:   8    -0.170541537522E+04   -0.19838E+02   -0.30252E+02   720   0.903E+03-0.338E+02
CGA:   9    -0.171101736953E+04   -0.56020E+01   -0.37153E+02   720   0.231E+03-0.236E+03
CGA:  10    -0.171817204545E+04   -0.71547E+01   -0.66035E+01   720   0.125E+03 0.583E+02
CGA:  11    -0.172850612128E+04   -0.10334E+02   -0.50700E+01   720   0.716E+02 0.866E+02
CGA:  12    -0.173119534860E+04   -0.26892E+01   -0.35702E+01   720   0.242E+03-0.918E+02
CGA:  13    -0.173038507291E+04    0.81028E+00   -0.15994E+02   720   0.552E+03-0.103E+03
CGA:  14    -0.173597327324E+04   -0.55882E+01   -0.23084E+02   720   0.901E+02 0.550E+01
CGA:  15    -0.173103105879E+04    0.49422E+01   -0.43570E+01   720   0.506E+03-0.219E+03
CGA:  16    -0.173377099334E+04   -0.27399E+01   -0.36190E+02   720   0.155E+03-0.689E+02
CGA:  17    -0.173789307646E+04   -0.41221E+01   -0.71078E+01   720   0.483E+02 0.844E+01
CGA:  18    -0.174041642864E+04   -0.25234E+01   -0.14534E+01   720   0.360E+02 0.495E+02
CGA:  19    -0.174101585228E+04   -0.59942E+00   -0.13559E+01   720   0.406E+02-0.178E+02
CGA:  20    -0.174068089661E+04    0.33496E+00   -0.29977E+00   720   0.704E+02-0.483E+02
CGA:  21    -0.174083697975E+04   -0.15608E+00   -0.38470E+01   720   0.379E+02-0.159E+02
CGA:  22    -0.174139472597E+04   -0.55775E+00   -0.94090E+00   720   0.228E+02-0.113E+02
CGA:  23    -0.174181229110E+04   -0.41757E+00   -0.13807E+00   720   0.216E+02 0.316E+02
CGA:  24    -0.174206916684E+04   -0.25688E+00   -0.46558E+00   720   0.154E+02-0.169E+02
CGA:  25    -0.174199835511E+04    0.70812E-01   -0.45893E+00   720   0.208E+02-0.121E+02
CGA:  26    -0.174228453230E+04   -0.28618E+00   -0.37974E+00   720   0.662E+01-0.108E+02
CGA:  27    -0.174234735989E+04   -0.62828E-01   -0.15142E+00   720   0.558E+01-0.341E+01
CGA:  28    -0.174243359636E+04   -0.86236E-01   -0.81534E-01   720   0.145E+01 0.563E-01
CGA:  29    -0.174330703578E+04   -0.87344E+00   -0.49783E-01   720   0.429E+01-0.742E-02
CGA:  30    -0.174333839060E+04   -0.31355E-01   -0.16609E+00   720   0.347E+01-0.246E+01
CGA:  31    -0.174341654555E+04   -0.78155E-01   -0.57921E-01   720   0.492E+00 0.928E+00
CGA:  32    -0.174343775524E+04   -0.21210E-01   -0.17978E-01   720   0.761E+00 0.906E-01
CGA:  33    -0.174350747122E+04   -0.69716E-01   -0.72719E-01   720   0.204E+01-0.142E-01
CGA:  34    -0.174353708233E+04   -0.29611E-01   -0.25027E-01   720   0.517E+00 0.321E+00
CGA:  35    -0.174354484918E+04   -0.77668E-02   -0.74344E-02   720   0.195E+00 0.183E-01
CGA:  36    -0.174355106828E+04   -0.62191E-02   -0.63253E-02   720   0.386E+00-0.636E-02
CGA:  37    -0.174356144594E+04   -0.10378E-01   -0.89408E-02   720   0.430E+00 0.520E-01
CGA:  38    -0.174357132503E+04   -0.98791E-02   -0.10634E-01   720   0.346E+00-0.319E-01
CGA:  39    -0.174357872978E+04   -0.74048E-02   -0.72107E-02   720   0.298E+00 0.299E-02
CGA:  40    -0.174358490860E+04   -0.61788E-02   -0.60937E-02   720   0.218E+00-0.526E-02
CGA:  41    -0.174358996750E+04   -0.50589E-02   -0.51242E-02   720   0.198E+00-0.140E-01
CGA:  42    -0.174359445936E+04   -0.44919E-02   -0.46542E-02   720   0.158E+00-0.171E-01
CGA:  43    -0.174359788952E+04   -0.34302E-02   -0.35391E-02   720   0.134E+00-0.104E-01
CGA:  44    -0.174360137463E+04   -0.34851E-02   -0.35412E-02   720   0.129E+00-0.520E-02
CGA:  45    -0.174360540494E+04   -0.40303E-02   -0.39626E-02   720   0.150E+00-0.438E-02
CGA:  46    -0.174360996485E+04   -0.45599E-02   -0.42229E-02   720   0.120E+00-0.196E-02
CGA:  47    -0.174361277104E+04   -0.28062E-02   -0.25821E-02   720   0.615E-01-0.179E-02
CGA:  48    -0.174361445286E+04   -0.16818E-02   -0.16352E-02   720   0.529E-01-0.359E-02
CGA:  49    -0.174361608404E+04   -0.16312E-02   -0.15714E-02   720   0.501E-01-0.351E-02
CGA:  50    -0.174361790856E+04   -0.18245E-02   -0.16842E-02   720   0.580E-01-0.442E-02
CGA:  51    -0.174361974448E+04   -0.18359E-02   -0.16232E-02   720   0.436E-01-0.383E-02
CGA:  52    -0.174362092096E+04   -0.11765E-02   -0.10599E-02   720   0.339E-01-0.102E-02
CGA:  53    -0.174362198714E+04   -0.10662E-02   -0.10042E-02   720   0.304E-01-0.338E-03
CGA:  54    -0.174362283668E+04   -0.84954E-03   -0.80518E-03   720   0.252E-01-0.107E-02
CGA:  55    -0.174362379868E+04   -0.96200E-03   -0.93737E-03   720   0.342E-01-0.244E-02
CGA:  56    -0.174362487610E+04   -0.10774E-02   -0.10545E-02   720   0.259E-01-0.190E-02
CGA:  57    -0.174362547468E+04   -0.59858E-03   -0.60970E-03   720   0.153E-01 0.157E-02
CGA:  58    -0.174362582339E+04   -0.34870E-03   -0.38819E-03   720   0.103E-01 0.204E-02
CGA:  59    -0.174362614814E+04   -0.32475E-03   -0.36102E-03   720   0.142E-01 0.151E-02
CGA:  60    -0.174362677918E+04   -0.63105E-03   -0.67204E-03   720   0.243E-01 0.246E-02
SDA:  61    -0.174362748234E+04   -0.70315E-03   -0.83558E-03   720   0.135E-01 0.357E-02
CGA:  62    -0.174362790776E+04   -0.42542E-03   -0.45683E-03   720   0.391E-02 0.140E-02
CGA:  63    -0.174362818871E+04   -0.28095E-03   -0.28008E-03   720   0.349E-02 0.706E-04
CGA:  64    -0.174362842656E+04   -0.23785E-03   -0.22924E-03   720   0.264E-02 0.904E-03
CGA:  65    -0.174362857463E+04   -0.14807E-03   -0.15937E-03   720   0.170E-02 0.151E-02
CGA:  66    -0.174362868683E+04   -0.11220E-03   -0.11140E-03   720   0.153E-02 0.771E-04
CGA:  67    -0.174362871470E+04   -0.27874E-04   -0.49571E-04   720   0.755E-03 0.886E-03
CGA:  68    -0.174362873778E+04   -0.23079E-04   -0.29639E-04   720   0.493E-03 0.429E-03
CGA:  69    -0.174362878458E+04   -0.46799E-04   -0.38034E-04   720   0.563E-03 0.371E-03
CGA:  70    -0.174362878857E+04   -0.39867E-05   -0.14895E-04   720   0.414E-03 0.381E-03
CGA:  71    -0.174362882236E+04   -0.33791E-04   -0.28243E-04   720   0.410E-03 0.373E-03
CGA:  72    -0.174362882849E+04   -0.61321E-05   -0.13567E-04   720   0.376E-03 0.350E-03
CGA:  73    -0.174362886057E+04   -0.32077E-04   -0.26441E-04   720   0.393E-03 0.326E-03
CGA:  74    -0.174362886350E+04   -0.29307E-05   -0.11079E-04   720   0.337E-03 0.314E-03
CGA:  75    -0.174362888935E+04   -0.25849E-04   -0.21999E-04   720   0.336E-03 0.303E-03
CGA:  76    -0.174362889329E+04   -0.39457E-05   -0.10424E-04   720   0.306E-03 0.288E-03
CGA:  77    -0.174362891651E+04   -0.23218E-04   -0.19796E-04   720   0.309E-03 0.274E-03
CGA:  78    -0.174362891960E+04   -0.30911E-05   -0.91869E-05   720   0.278E-03 0.262E-03
CGA:  79    -0.174362893953E+04   -0.19930E-04   -0.17291E-04   720   0.278E-03 0.251E-03
CGA:  80    -0.174362894285E+04   -0.33170E-05   -0.85327E-05   720   0.255E-03 0.240E-03
CGA:  81    -0.174362896021E+04   -0.17356E-04   -0.15310E-04   720   0.257E-03 0.230E-03
CGA:  82    -0.174362896361E+04   -0.34072E-05   -0.79632E-05   720   0.236E-03 0.219E-03
CGA:  83    -0.174362897849E+04   -0.14877E-04   -0.13488E-04   720   0.240E-03 0.210E-03
CGA:  84    -0.174362898222E+04   -0.37342E-05   -0.76030E-05   720   0.221E-03 0.199E-03
CGA:  85    -0.174362899464E+04   -0.12413E-04   -0.11760E-04   720   0.229E-03 0.190E-03
CGA:  86    -0.174362899898E+04   -0.43457E-05   -0.74890E-05   720   0.210E-03 0.180E-03
CGA:  87    -0.174362900908E+04   -0.10094E-04   -0.10206E-04   720   0.221E-03 0.171E-03
CGA:  88    -0.174362901412E+04   -0.50464E-05   -0.75041E-05   720   0.204E-03 0.161E-03
   1 F= -.17436290E+04 E0= -.17436012E+04  d E =-.174363E+04  mag=    46.0000
       N       E                     dE             d eps       ncg     rms          ort
SDA:   1    -0.174362838581E+04    0.62327E-03    0.00000E+00   720   0.130E+00 0.000E+00
CGA:   2    -0.174363074640E+04   -0.23606E-02   -0.24977E-02   720   0.937E-03-0.474E-02
CGA:   3    -0.174363079894E+04   -0.52541E-04   -0.54694E-04   720   0.138E-02-0.157E-03
CGA:   4    -0.174363084844E+04   -0.49495E-04   -0.51029E-04   720   0.661E-03 0.522E-03
CGA:   5    -0.174363086669E+04   -0.18250E-04   -0.25385E-04   720   0.360E-03 0.366E-03
CGA:   6    -0.174363088659E+04   -0.19904E-04   -0.22302E-04   720   0.802E-03-0.154E-03
CGA:   7    -0.174363090803E+04   -0.21435E-04   -0.21466E-04   720   0.107E-02 0.125E-03
CGA:   8    -0.174363093303E+04   -0.25006E-04   -0.31304E-04   720   0.510E-03 0.283E-03
CGA:   9    -0.174363096163E+04   -0.28593E-04   -0.28752E-04   720   0.323E-03 0.111E-03
CGA:  10    -0.174363098084E+04   -0.19212E-04   -0.23794E-04   720   0.105E-02-0.318E-03
CGA:  11    -0.174363099570E+04   -0.14865E-04   -0.19949E-04   720   0.122E-03 0.179E-03
CGA:  12    -0.174363099942E+04   -0.37201E-05   -0.43749E-05   720   0.728E-04 0.449E-04
CGA:  13    -0.174363092982E+04    0.69606E-04   -0.37547E-04   720   0.425E-02-0.422E-03
CGA:  14    -0.174363103350E+04   -0.10368E-03   -0.11080E-03   720   0.600E-03 0.664E-04
CGA:  15    -0.174363105919E+04   -0.25696E-04   -0.21893E-04   720   0.628E-04-0.930E-04
CGA:  16    -0.174363106485E+04   -0.56578E-05   -0.74915E-05   720   0.300E-03-0.284E-04
   2 F= -.17436311E+04 E0= -.17436034E+04  d E =-.205073E-02  mag=    46.0000
       N       E                     dE             d eps       ncg     rms          ort
SDA:   1    -0.174343740516E+04    0.19365E+00    0.00000E+00   720   0.131E+01 0.000E+00
CGA:   2    -0.174350467660E+04   -0.67271E-01   -0.64642E-01   720   0.114E+01 0.249E-01
CGA:   3    -0.174359346974E+04   -0.88793E-01   -0.88804E-01   720   0.119E+01 0.996E-02
CGA:   4    -0.174365404633E+04   -0.60577E-01   -0.62935E-01   720   0.322E+00 0.739E-02
CGA:   5    -0.174366674502E+04   -0.12699E-01   -0.12575E-01   720   0.225E+00 0.107E-01
CGA:   6    -0.174368872708E+04   -0.21982E-01   -0.22045E-01   720   0.187E+00-0.382E-02
CGA:   7    -0.174369621730E+04   -0.74902E-02   -0.74138E-02   720   0.550E-01-0.335E-02
CGA:   8    -0.174369805923E+04   -0.18419E-02   -0.19093E-02   720   0.246E-01 0.212E-02
CGA:   9    -0.174370040326E+04   -0.23440E-02   -0.23387E-02   720   0.305E-01 0.186E-03
CGA:  10    -0.174370173056E+04   -0.13273E-02   -0.12847E-02   720   0.106E-01-0.166E-02
CGA:  11    -0.174370209880E+04   -0.36824E-03   -0.37000E-03   720   0.430E-02 0.104E-03
CGA:  12    -0.174370240424E+04   -0.30544E-03   -0.30535E-03   720   0.512E-02 0.661E-04
CGA:  13    -0.174370273012E+04   -0.32589E-03   -0.32458E-03   720   0.385E-02-0.195E-03
CGA:  14    -0.174370287753E+04   -0.14740E-03   -0.15592E-03   720   0.245E-02 0.315E-03
CGA:  15    -0.174370305452E+04   -0.17699E-03   -0.17691E-03   720   0.163E-02-0.830E-04
CGA:  16    -0.174370313669E+04   -0.82168E-04   -0.74954E-04   720   0.147E-02-0.367E-03
CGA:  17    -0.174370320732E+04   -0.70627E-04   -0.71228E-04   720   0.143E-02 0.151E-03
CGA:  18    -0.174370329545E+04   -0.88135E-04   -0.87494E-04   720   0.129E-02-0.581E-04
CGA:  19    -0.174370336159E+04   -0.66139E-04   -0.12992E-03   720   0.428E-02-0.163E-02
CGA:  20    -0.174370342249E+04   -0.60898E-04   -0.93184E-04   720   0.553E-03 0.709E-03
CGA:  21    -0.174370343544E+04   -0.12956E-04   -0.21010E-04   720   0.311E-03 0.246E-03
CGA:  22    -0.174370346197E+04   -0.26522E-04   -0.26495E-04   720   0.372E-03-0.340E-05
CGA:  23    -0.174370347461E+04   -0.12647E-04   -0.14009E-04   720   0.272E-03 0.543E-04
CGA:  24    -0.174370348208E+04   -0.74646E-05   -0.98906E-05   720   0.238E-03 0.786E-04
CGA:  25    -0.174370349936E+04   -0.17288E-04   -0.17291E-04   720   0.224E-03 0.560E-06
CGA:  26    -0.174370351089E+04   -0.11526E-04   -0.97705E-05   720   0.146E-03-0.105E-03
CGA:  27    -0.174370351011E+04    0.78249E-06   -0.10720E-05   720   0.119E-03 0.400E-04
   3 F= -.17437035E+04 E0= -.17436761E+04  d E =-.724453E-01  mag=    46.0000
       N       E                     dE             d eps       ncg     rms          ort
SDA:   1    -0.174256779092E+04    0.11357E+01    0.00000E+00   720   0.602E+01 0.000E+00
CGA:   2    -0.174285129551E+04   -0.28350E+00   -0.28453E+00   720   0.602E+01 0.376E-01
CGA:   3    -0.174348748462E+04   -0.63619E+00   -0.63769E+00   720   0.213E+01-0.328E-01
CGA:   4    -0.174359314991E+04   -0.10567E+00   -0.10703E+00   720   0.130E+01 0.695E-01
CGA:   5    -0.174370149804E+04   -0.10835E+00   -0.10736E+00   720   0.142E+01 0.341E-01
CGA:   6    -0.174376588439E+04   -0.64386E-01   -0.63891E-01   720   0.299E+00-0.108E-01
CGA:   7    -0.174378332376E+04   -0.17439E-01   -0.17437E-01   720   0.194E+00 0.167E-02
CGA:   8    -0.174379868877E+04   -0.15365E-01   -0.15512E-01   720   0.142E+00-0.728E-02
CGA:   9    -0.174380499510E+04   -0.63063E-02   -0.63148E-02   720   0.338E-01 0.243E-02
CGA:  10    -0.174380753567E+04   -0.25406E-02   -0.25909E-02   720   0.388E-01-0.306E-02
CGA:  11    -0.174380927400E+04   -0.17383E-02   -0.17645E-02   720   0.176E-01 0.323E-02
CGA:  12    -0.174381070037E+04   -0.14264E-02   -0.14286E-02   720   0.158E-01-0.133E-03
CGA:  13    -0.174381182122E+04   -0.11208E-02   -0.11430E-02   720   0.187E-01-0.172E-02
CGA:  14    -0.174381250397E+04   -0.68275E-03   -0.70938E-03   720   0.641E-02 0.145E-02
CGA:  15    -0.174381287556E+04   -0.37159E-03   -0.37322E-03   720   0.794E-02 0.318E-03
CGA:  16    -0.174381367065E+04   -0.79509E-03   -0.88305E-03   720   0.116E-01-0.186E-02
CGA:  17    -0.174381394464E+04   -0.27399E-03   -0.27944E-03   720   0.615E-02 0.191E-03
CGA:  18    -0.174381421674E+04   -0.27211E-03   -0.27428E-03   720   0.550E-02 0.145E-03
CGA:  19    -0.174381448140E+04   -0.26465E-03   -0.25124E-03   720   0.416E-02-0.992E-03
CGA:  20    -0.174381467638E+04   -0.19498E-03   -0.19442E-03   720   0.381E-02-0.486E-03
CGA:  21    -0.174381476131E+04   -0.84929E-04   -0.98034E-04   720   0.214E-02 0.444E-03
CGA:  22    -0.174381486797E+04   -0.10667E-03   -0.11064E-03   720   0.240E-02 0.385E-03
CGA:  23    -0.174381499736E+04   -0.12939E-03   -0.12537E-03   720   0.111E-02-0.292E-03
CGA:  24    -0.174381502270E+04   -0.25343E-04   -0.29422E-04   720   0.643E-03 0.159E-03
CGA:  25    -0.174381503719E+04   -0.14491E-04   -0.21777E-04   720   0.524E-03 0.294E-03
CGA:  26    -0.174381507119E+04   -0.33996E-04   -0.35430E-04   720   0.486E-03 0.212E-03
CGA:  27    -0.174381511076E+04   -0.39573E-04   -0.61692E-04   720   0.127E-02-0.588E-03
CGA:  28    -0.174381512281E+04   -0.12050E-04   -0.27083E-04   720   0.321E-03 0.452E-03
CGA:  29    -0.174381512853E+04   -0.57211E-05   -0.11102E-04   720   0.196E-03 0.197E-03
CGA:  30    -0.174381515243E+04   -0.23900E-04    0.28101E-04   720   0.165E-03 0.101E-04
CGA:  31    -0.174381515431E+04   -0.18778E-05   -0.45306E-05   720   0.724E-04 0.104E-03
   4 F= -.17438152E+04 E0= -.17437881E+04  d E =-.111644E+00  mag=    46.0000
       N       E                     dE             d eps       ncg     rms          ort
SDA:   1    -0.174281049102E+04    0.10047E+01    0.00000E+00   720   0.459E+01 0.000E+00
CGA:   2    -0.174308369383E+04   -0.27320E+00   -0.27273E+00   720   0.627E+01 0.736E-01
CGA:   3    -0.174362428188E+04   -0.54059E+00   -0.54342E+00   720   0.138E+01-0.754E-01
CGA:   4    -0.174371032684E+04   -0.86045E-01   -0.85726E-01   720   0.125E+01 0.164E-01
CGA:   5    -0.174379961915E+04   -0.89292E-01   -0.88108E-01   720   0.115E+01 0.467E-01
CGA:   6    -0.174385190569E+04   -0.52287E-01   -0.52244E-01   720   0.201E+00 0.130E-02
CGA:   7    -0.174386557946E+04   -0.13674E-01   -0.13564E-01   720   0.168E+00 0.560E-02
CGA:   8    -0.174387816286E+04   -0.12583E-01   -0.12753E-01   720   0.132E+00-0.901E-02
CGA:   9    -0.174388272914E+04   -0.45663E-02   -0.46267E-02   720   0.229E-01 0.500E-02
CGA:  10    -0.174388416091E+04   -0.14318E-02   -0.14311E-02   720   0.257E-01 0.262E-04
CGA:  11    -0.174388658014E+04   -0.24192E-02   -0.24458E-02   720   0.307E-01-0.670E-03
CGA:  12    -0.174388777100E+04   -0.11909E-02   -0.12242E-02   720   0.934E-02 0.225E-02
CGA:  13    -0.174388836711E+04   -0.59611E-03   -0.60378E-03   720   0.103E-01-0.138E-02
CGA:  14    -0.174388939802E+04   -0.10309E-02   -0.10841E-02   720   0.206E-01-0.784E-03
CGA:  15    -0.174389000008E+04   -0.60206E-03   -0.63690E-03   720   0.553E-02 0.127E-02
CGA:  16    -0.174389032975E+04   -0.32966E-03   -0.32982E-03   720   0.546E-02 0.200E-03
CGA:  17    -0.174389068052E+04   -0.35077E-03   -0.35401E-03   720   0.709E-02-0.591E-03
CGA:  18    -0.174389105793E+04   -0.37741E-03   -0.37787E-03   720   0.546E-02-0.181E-03
CGA:  19    -0.174389127359E+04   -0.21566E-03   -0.21485E-03   720   0.324E-02-0.302E-04
CGA:  20    -0.174389144291E+04   -0.16933E-03   -0.16822E-03   720   0.261E-02-0.274E-03
CGA:  21    -0.174389154172E+04   -0.98811E-04   -0.99691E-04   720   0.125E-02 0.484E-04
CGA:  22    -0.174389159398E+04   -0.52256E-04   -0.54398E-04   720   0.982E-03 0.165E-03
CGA:  23    -0.174389166112E+04   -0.67138E-04   -0.66839E-04   720   0.123E-02 0.559E-04
CGA:  24    -0.174389172878E+04   -0.67663E-04   -0.68298E-04   720   0.618E-03 0.239E-03
CGA:  25    -0.174389173952E+04   -0.10744E-04   -0.17154E-04   720   0.195E-03 0.201E-03
CGA:  26    -0.174389174572E+04   -0.61998E-05   -0.86208E-05   720   0.192E-03 0.120E-03
CGA:  27    -0.174389155362E+04    0.19211E-03   -0.10360E-03   720   0.134E-01-0.916E-03
CGA:  28    -0.174389179120E+04   -0.23758E-03   -0.27665E-03   720   0.388E-03 0.269E-03
CGA:  29    -0.174389179890E+04   -0.77064E-05   -0.12957E-04   720   0.937E-04 0.891E-04
   5 F= -.17438918E+04 E0= -.17438649E+04  d E =-.766446E-01  mag=    46.0000
       N       E                     dE             d eps       ncg     rms          ort
SDA:   1    -0.174222741102E+04    0.16644E+01    0.00000E+00   720   0.698E+01 0.000E+00
CGA:   2    -0.174269343337E+04   -0.46602E+00   -0.47388E+00   720   0.109E+02 0.787E-02
CGA:   3    -0.174349785996E+04   -0.80443E+00   -0.80270E+00   720   0.312E+01-0.743E-01
CGA:   4    -0.174364597585E+04   -0.14812E+00   -0.16058E+00   720   0.188E+01-0.755E-01
CGA:   5    -0.174376681419E+04   -0.12084E+00   -0.12188E+00   720   0.212E+01 0.192E-01
CGA:   6    -0.174388459199E+04   -0.11778E+00   -0.11746E+00   720   0.531E+00-0.931E-02
CGA:   7    -0.174390783757E+04   -0.23246E-01   -0.23544E-01   720   0.255E+00 0.249E-02
CGA:   8    -0.174392343051E+04   -0.15593E-01   -0.15571E-01   720   0.248E+00-0.529E-02
CGA:   9    -0.174393735159E+04   -0.13921E-01   -0.13788E-01   720   0.925E-01-0.130E-02
CGA:  10    -0.174394086012E+04   -0.35085E-02   -0.36282E-02   720   0.301E-01 0.249E-02
CGA:  11    -0.174394358784E+04   -0.27277E-02   -0.27633E-02   720   0.562E-01-0.292E-02
CGA:  12    -0.174394690395E+04   -0.33161E-02   -0.33511E-02   720   0.317E-01 0.306E-02
CGA:  13    -0.174394827436E+04   -0.13704E-02   -0.13583E-02   720   0.112E-01 0.542E-03
CGA:  14    -0.174394937031E+04   -0.10959E-02   -0.11680E-02   720   0.391E-01-0.256E-02
CGA:  15    -0.174395122932E+04   -0.18590E-02   -0.18753E-02   720   0.253E-01 0.111E-02
CGA:  16    -0.174395167263E+04   -0.44331E-03   -0.54884E-03   720   0.658E-02 0.140E-02
CGA:  17    -0.174395209203E+04   -0.41939E-03   -0.42979E-03   720   0.118E-01 0.106E-02
CGA:  18    -0.174395287015E+04   -0.77812E-03   -0.76324E-03   720   0.118E-01-0.888E-03
CGA:  19    -0.174395349710E+04   -0.62696E-03   -0.61667E-03   720   0.857E-02-0.840E-03
CGA:  20    -0.174395369890E+04   -0.20179E-03   -0.22419E-03   720   0.383E-02 0.453E-03
CGA:  21    -0.174395389305E+04   -0.19416E-03   -0.19932E-03   720   0.363E-02 0.254E-03
CGA:  22    -0.174395408687E+04   -0.19382E-03   -0.18107E-03   720   0.280E-02-0.674E-03
CGA:  23    -0.174395418216E+04   -0.95292E-04   -0.97881E-04   720   0.194E-02 0.114E-03
CGA:  24    -0.174395423953E+04   -0.57362E-04   -0.72704E-04   720   0.169E-02 0.524E-03
CGA:  25    -0.174395435517E+04   -0.11564E-03   -0.11779E-03   720   0.114E-02 0.267E-03
CGA:  26    -0.174395442190E+04   -0.66725E-04   -0.59654E-04   720   0.730E-03-0.385E-03
CGA:  27    -0.174395442531E+04   -0.34162E-05   -0.11529E-04   720   0.554E-03 0.210E-03
CGA:  28    -0.174395442945E+04   -0.41370E-05   -0.16811E-04   720   0.441E-03 0.343E-03
CGA:  29    -0.174395384801E+04    0.58144E-03   -0.31747E-03   720   0.317E-01-0.234E-02
CGA:  30    -0.174395443565E+04   -0.58764E-03   -0.71433E-03   720   0.177E-02 0.503E-03
CGA:  31    -0.174395451029E+04   -0.74644E-04   -0.77172E-04   720   0.486E-03 0.595E-04
CGA:  32    -0.174395453900E+04   -0.28714E-04   -0.26027E-04   720   0.192E-03-0.475E-04
CGA:  33    -0.174395453871E+04    0.29407E-06   -0.43679E-05   720   0.592E-04 0.648E-04
   6 F= -.17439545E+04 E0= -.17439279E+04  d E =-.627398E-01  mag=    46.0000
       N       E                     dE             d eps       ncg     rms          ort
SDA:   1    -0.173907038927E+04    0.48841E+01    0.00000E+00   720   0.184E+02 0.000E+00
CGA:   2    -0.174038091910E+04   -0.13105E+01   -0.13427E+01   720   0.297E+02 0.399E-01
CGA:   3    -0.174274145868E+04   -0.23605E+01   -0.23259E+01   720   0.751E+01-0.117E+01
CGA:   4    -0.174317959024E+04   -0.43813E+00   -0.42750E+00   720   0.508E+01 0.282E-01
CGA:   5    -0.174356570534E+04   -0.38612E+00   -0.38865E+00   720   0.627E+01 0.351E-01
CGA:   6    -0.174381730892E+04   -0.25160E+00   -0.24371E+00   720   0.943E+00 0.153E+00
CGA:   7    -0.174386761015E+04   -0.50301E-01   -0.51857E-01   720   0.737E+00-0.120E-01
CGA:   8    -0.174391964931E+04   -0.52039E-01   -0.52043E-01   720   0.552E+00 0.346E-02
CGA:   9    -0.174394381871E+04   -0.24169E-01   -0.24302E-01   720   0.172E+00-0.123E-01
CGA:  10    -0.174395020864E+04   -0.63899E-02   -0.66611E-02   720   0.858E-01 0.595E-02
CGA:  11    -0.174396083735E+04   -0.10629E-01   -0.10769E-01   720   0.147E+00-0.372E-02
CGA:  12    -0.174396712827E+04   -0.62909E-02   -0.65210E-02   720   0.543E-01 0.415E-02
CGA:  13    -0.174397010877E+04   -0.29805E-02   -0.29281E-02   720   0.315E-01-0.141E-02
CGA:  14    -0.174397434222E+04   -0.42335E-02   -0.44282E-02   720   0.886E-01-0.295E-02
CGA:  15    -0.174397751732E+04   -0.31751E-02   -0.33554E-02   720   0.222E-01 0.172E-02
CGA:  16    -0.174397896199E+04   -0.14447E-02   -0.14493E-02   720   0.226E-01 0.356E-03
CGA:  17    -0.174398077764E+04   -0.18156E-02   -0.18162E-02   720   0.375E-01-0.508E-03
CGA:  18    -0.174398252879E+04   -0.17511E-02   -0.17663E-02   720   0.100E-01 0.286E-03
CGA:  19    -0.174398318376E+04   -0.65498E-03   -0.65311E-03   720   0.144E-01-0.270E-03
CGA:  20    -0.174398398000E+04   -0.79624E-03   -0.78786E-03   720   0.790E-02-0.484E-03
CGA:  21    -0.174398433283E+04   -0.35283E-03   -0.36444E-03   720   0.458E-02 0.451E-03
CGA:  22    -0.174398454582E+04   -0.21298E-03   -0.22458E-03   720   0.280E-02 0.439E-03
CGA:  23    -0.174398480073E+04   -0.25491E-03   -0.25737E-03   720   0.556E-02-0.206E-03
CGA:  24    -0.174398502421E+04   -0.22348E-03   -0.22238E-03   720   0.195E-02-0.178E-04
CGA:  25    -0.174398507174E+04   -0.47534E-04   -0.59661E-04   720   0.135E-02 0.297E-03
CGA:  26    -0.174398514446E+04   -0.72724E-04   -0.78955E-04   720   0.122E-02 0.332E-03
CGA:  27    -0.174398524142E+04   -0.96959E-04   -0.94888E-04   720   0.192E-02-0.346E-03
CGA:  28    -0.174398529243E+04   -0.51007E-04   -0.45946E-04   720   0.129E-02-0.159E-03
CGA:  29    -0.174398530998E+04   -0.17548E-04   -0.25209E-04   720   0.875E-03 0.171E-03
CGA:  30    -0.174398532903E+04   -0.19053E-04   -0.30081E-04   720   0.975E-03 0.334E-03
CGA:  31    -0.174398536312E+04   -0.34088E-04   -0.40567E-04   720   0.390E-03 0.243E-03
SDA:  32    -0.174398538757E+04   -0.24455E-04   -0.20651E-04   720   0.402E-03-0.202E-03
CGA:  33    -0.174398539140E+04   -0.38227E-05   -0.85779E-05   720   0.107E-03 0.122E-03
   7 F= -.17439854E+04 E0= -.17439595E+04  d E =-.308527E-01  mag=    46.0000
       N       E                     dE             d eps       ncg     rms          ort
SDA:   1    -0.174257401379E+04    0.14114E+01    0.00000E+00   720   0.434E+01 0.000E+00
CGA:   2    -0.174303585239E+04   -0.46184E+00   -0.47423E+00   720   0.119E+02-0.190E+00
CGA:   3    -0.174367264456E+04   -0.63679E+00   -0.63652E+00   720   0.151E+01-0.633E-01
CGA:   4    -0.174382121024E+04   -0.14857E+00   -0.14821E+00   720   0.219E+01 0.518E-02
CGA:   5    -0.174393130042E+04   -0.11009E+00   -0.10887E+00   720   0.620E+00-0.114E-01
CGA:   6    -0.174396282341E+04   -0.31523E-01   -0.31660E-01   720   0.267E+00-0.914E-02
CGA:   7    -0.174397567218E+04   -0.12849E-01   -0.12915E-01   720   0.177E+00 0.824E-02
CGA:   8    -0.174398990316E+04   -0.14231E-01   -0.14188E-01   720   0.662E-01 0.278E-02
CGA:   9    -0.174399391654E+04   -0.40134E-02   -0.40004E-02   720   0.381E-01-0.749E-02
CGA:  10    -0.174399535092E+04   -0.14344E-02   -0.14935E-02   720   0.260E-01 0.338E-02
CGA:  11    -0.174399763429E+04   -0.22834E-02   -0.22355E-02   720   0.152E-01 0.239E-02
CGA:  12    -0.174399872742E+04   -0.10931E-02   -0.11197E-02   720   0.236E-01-0.446E-02
CGA:  13    -0.174399941447E+04   -0.68704E-03   -0.69746E-03   720   0.127E-01 0.562E-03
CGA:  14    -0.174399967681E+04   -0.26234E-03   -0.33067E-03   720   0.592E-02 0.208E-02
CGA:  15    -0.174399994398E+04   -0.26717E-03   -0.27850E-03   720   0.573E-02 0.681E-03
CGA:  16    -0.174400039589E+04   -0.45191E-03   -0.48643E-03   720   0.170E-01-0.193E-02
CGA:  17    -0.174400074510E+04   -0.34922E-03   -0.33397E-03   720   0.188E-01-0.552E-03
CGA:  18    -0.174400101887E+04   -0.27377E-03   -0.31536E-03   720   0.574E-02 0.101E-02
CGA:  19    -0.174400109487E+04   -0.76003E-04   -0.10135E-03   720   0.290E-02 0.704E-03
CGA:  20    -0.174400119534E+04   -0.10047E-03   -0.10320E-03   720   0.419E-02 0.128E-03
CGA:  21    -0.174400140459E+04   -0.20925E-03   -0.20218E-03   720   0.759E-02-0.117E-02
CGA:  22    -0.174400154235E+04   -0.13776E-03   -0.11587E-03   720   0.721E-02-0.760E-03
CGA:  23    -0.174400164851E+04   -0.10615E-03   -0.11309E-03   720   0.481E-02 0.196E-03
CGA:  24    -0.174400169866E+04   -0.50154E-04   -0.76538E-04   720   0.294E-02 0.792E-03
CGA:  25    -0.174400172851E+04   -0.29851E-04   -0.52452E-04   720   0.178E-02 0.712E-03
CGA:  26    -0.174400176191E+04   -0.33398E-04   -0.41041E-04   720   0.137E-02 0.296E-03
CGA:  27    -0.174400181760E+04   -0.55692E-04   -0.50934E-04   720   0.214E-02-0.366E-03
CGA:  28    -0.174400186282E+04   -0.45216E-04   -0.33415E-04   720   0.281E-02-0.496E-03
CGA:  29    -0.174400189893E+04   -0.36114E-04   -0.30214E-04   720   0.225E-02-0.190E-03
CGA:  30    -0.174400191803E+04   -0.19100E-04   -0.24587E-04   720   0.150E-02 0.178E-03
CGA:  31    -0.174400192651E+04   -0.84816E-05   -0.18667E-04   720   0.117E-02 0.358E-03
SDA:  32    -0.174400193507E+04   -0.85587E-05   -0.18803E-04   720   0.108E-02 0.403E-03
CGA:  33    -0.174400196811E+04   -0.33038E-04   -0.12053E-03   720   0.459E-02-0.117E-02
CGA:  34    -0.174400204117E+04   -0.73063E-04   -0.90883E-04   720   0.260E-03 0.845E-03
CGA:  35    -0.174400204609E+04   -0.49224E-05   -0.65784E-05   720   0.101E-03 0.901E-04
CGA:  36    -0.174400200320E+04    0.42892E-04   -0.24335E-04   720   0.309E-02-0.361E-03
CGA:  37    -0.174400208471E+04   -0.81506E-04   -0.88772E-04   720   0.185E-03 0.192E-03
CGA:  38    -0.174400209002E+04   -0.53149E-05   -0.65393E-05   720   0.332E-04 0.347E-04
   8 F= -.17440021E+04 E0= -.17439763E+04  d E =-.166986E-01  mag=    46.0000
       N       E                     dE             d eps       ncg     rms          ort
SDA:   1    -0.174375750544E+04    0.24458E+00    0.00000E+00   720   0.852E+00 0.000E+00
CGA:   2    -0.174383981099E+04   -0.82306E-01   -0.80843E-01   720   0.155E+01 0.437E-01
CGA:   3    -0.174394672728E+04   -0.10692E+00   -0.10687E+00   720   0.439E+00-0.152E-01
CGA:   4    -0.174397161289E+04   -0.24886E-01   -0.25055E-01   720   0.350E+00 0.105E-01
CGA:   5    -0.174399723781E+04   -0.25625E-01   -0.25646E-01   720   0.206E+00-0.868E-02
CGA:   6    -0.174400669300E+04   -0.94552E-02   -0.94996E-02   720   0.490E-01 0.429E-02
CGA:   7    -0.174400903479E+04   -0.23418E-02   -0.23941E-02   720   0.337E-01 0.252E-02
CGA:   8    -0.174401217434E+04   -0.31396E-02   -0.32385E-02   720   0.341E-01-0.392E-02
CGA:   9    -0.174401317680E+04   -0.10025E-02   -0.10518E-02   720   0.470E-02 0.185E-02
CGA:  10    -0.174401346357E+04   -0.28677E-03   -0.29282E-03   720   0.377E-02 0.960E-03
CGA:  11    -0.174401383804E+04   -0.37447E-03   -0.41449E-03   720   0.988E-02-0.154E-02
CGA:  12    -0.174401400526E+04   -0.16722E-03   -0.16560E-03   720   0.721E-02-0.470E-04
CGA:  13    -0.174401408950E+04   -0.84244E-04   -0.11731E-03   720   0.215E-02 0.657E-03
CGA:  14    -0.174401412037E+04   -0.30863E-04   -0.50195E-04   720   0.166E-02 0.474E-03
CGA:  15    -0.174401418717E+04   -0.66801E-04   -0.70373E-04   720   0.170E-02 0.145E-03
CGA:  16    -0.174401427746E+04   -0.90288E-04   -0.79661E-04   720   0.249E-02-0.668E-03
CGA:  17    -0.174401431956E+04   -0.42105E-04   -0.34837E-04   720   0.276E-02-0.195E-03
CGA:  18    -0.174401435271E+04   -0.33147E-04   -0.44685E-04   720   0.164E-02 0.300E-03
CGA:  19    -0.174401436663E+04   -0.13920E-04   -0.29689E-04   720   0.110E-02 0.419E-03
CGA:  20    -0.174401438818E+04   -0.21557E-04   -0.30147E-04   720   0.103E-02 0.279E-03
CGA:  21    -0.174401443866E+04   -0.50474E-04   -0.46033E-04   720   0.118E-02-0.301E-03
CGA:  22    -0.174401447826E+04   -0.39599E-04   -0.25643E-04   720   0.118E-02-0.733E-03
CGA:  23    -0.174401450870E+04   -0.30440E-04   -0.37341E-04   720   0.377E-03 0.390E-03
CGA:  24    -0.174401453610E+04   -0.27405E-04   -0.27231E-04   720   0.197E-03 0.313E-04
CGA:  25    -0.174401455811E+04   -0.22010E-04   -0.25111E-04   720   0.292E-03-0.436E-04
CGA:  26    -0.174401455933E+04   -0.12157E-05   -0.46280E-05   720   0.181E-03 0.107E-03
   9 F= -.17440146E+04 E0= -.17439889E+04  d E =-.124693E-01  mag=    46.0000
       N       E                     dE             d eps       ncg     rms          ort
SDA:   1    -0.174334108155E+04    0.67348E+00    0.00000E+00   720   0.201E+01 0.000E+00
CGA:   2    -0.174359061465E+04   -0.24953E+00   -0.25308E+00   720   0.560E+01-0.507E-01
CGA:   3    -0.174385892351E+04   -0.26831E+00   -0.26821E+00   720   0.838E+00-0.426E-01
CGA:   4    -0.174395576202E+04   -0.96839E-01   -0.10008E+00   720   0.915E+00-0.553E-01
CGA:   5    -0.174399368196E+04   -0.37920E-01   -0.38115E-01   720   0.344E+00 0.895E-02
CGA:   6    -0.174400777581E+04   -0.14094E-01   -0.14352E-01   720   0.105E+00 0.190E-02
CGA:   7    -0.174401482856E+04   -0.70528E-02   -0.70128E-02   720   0.962E-01 0.358E-02
CGA:   8    -0.174402088376E+04   -0.60552E-02   -0.60484E-02   720   0.387E-01 0.642E-03
CGA:   9    -0.174402289049E+04   -0.20067E-02   -0.20072E-02   720   0.118E-01-0.542E-03
CGA:  10    -0.174402370161E+04   -0.81112E-03   -0.77774E-03   720   0.949E-02 0.288E-02
CGA:  11    -0.174402465593E+04   -0.95432E-03   -0.10867E-02   720   0.133E-01-0.370E-02
CGA:  12    -0.174402490298E+04   -0.24706E-03   -0.26481E-03   720   0.605E-02 0.690E-03
CGA:  13    -0.174402502660E+04   -0.12362E-03   -0.15753E-03   720   0.309E-02 0.107E-02
CGA:  14    -0.174402519493E+04   -0.16832E-03   -0.16980E-03   720   0.313E-02 0.189E-03
CGA:  15    -0.174402537362E+04   -0.17869E-03   -0.17724E-03   720   0.393E-02-0.111E-02
CGA:  16    -0.174402543975E+04   -0.66127E-04   -0.68217E-04   720   0.331E-02 0.865E-04
CGA:  17    -0.174402549538E+04   -0.55637E-04   -0.74195E-04   720   0.193E-02 0.592E-03
CGA:  18    -0.174402556058E+04   -0.65202E-04   -0.71072E-04   720   0.188E-02 0.286E-03
CGA:  19    -0.174402567227E+04   -0.11168E-03   -0.11321E-03   720   0.246E-02-0.901E-03
CGA:  20    -0.174402571745E+04   -0.45181E-04   -0.33291E-04   720   0.248E-02-0.494E-03
CGA:  21    -0.174402575558E+04   -0.38136E-04   -0.39772E-04   720   0.150E-02 0.529E-04
CGA:  22    -0.174402577014E+04   -0.14558E-04   -0.25233E-04   720   0.889E-03 0.344E-03
CGA:  23    -0.174402578160E+04   -0.11457E-04   -0.20412E-04   720   0.753E-03 0.326E-03
CGA:  24    -0.174402580830E+04   -0.26702E-04   -0.29787E-04   720   0.936E-03 0.197E-03
CGA:  25    -0.174402585166E+04   -0.43358E-04   -0.41517E-04   720   0.101E-02-0.185E-03
CGA:  26    -0.174402586891E+04   -0.17247E-04   -0.14697E-04   720   0.762E-03-0.892E-04
CGA:  27    -0.174402587744E+04   -0.85294E-05   -0.10179E-04   720   0.513E-03 0.579E-04
  10 F= -.17440259E+04 E0= -.17440005E+04  d E =-.113181E-01  mag=    46.0000
       N       E                     dE             d eps       ncg     rms          ort
SDA:   1    -0.174025395271E+04    0.37719E+01    0.00000E+00   720   0.108E+02 0.000E+00
CGA:   2    -0.174157475520E+04   -0.13208E+01   -0.13920E+01   720   0.337E+02-0.697E+00
CGA:   3    -0.174316739104E+04   -0.15926E+01   -0.16009E+01   720   0.578E+01-0.811E+00
CGA:   4    -0.174348346942E+04   -0.31608E+00   -0.31608E+00   720   0.534E+01-0.600E-02
CGA:   5    -0.174380423263E+04   -0.32076E+00   -0.31801E+00   720   0.315E+01 0.158E+00
CGA:   6    -0.174392296429E+04   -0.11873E+00   -0.12097E+00   720   0.763E+00 0.588E-01
CGA:   7    -0.174396212773E+04   -0.39163E-01   -0.39396E-01   720   0.569E+00-0.223E-01
CGA:   8    -0.174400336378E+04   -0.41236E-01   -0.40535E-01   720   0.309E+00 0.236E-01
CGA:   9    -0.174401591411E+04   -0.12550E-01   -0.12533E-01   720   0.129E+00-0.111E-01
CGA:  10    -0.174402330684E+04   -0.73927E-02   -0.73364E-02   720   0.683E-01 0.473E-02
CGA:  11    -0.174402890730E+04   -0.56005E-02   -0.54283E-02   720   0.620E-01 0.564E-02
CGA:  12    -0.174403202797E+04   -0.31207E-02   -0.31056E-02   720   0.274E-01-0.703E-02
CGA:  13    -0.174403383985E+04   -0.18119E-02   -0.17833E-02   720   0.155E-01 0.112E-02
CGA:  14    -0.174403523853E+04   -0.13987E-02   -0.14761E-02   720   0.191E-01-0.184E-02
CGA:  15    -0.174403622341E+04   -0.98489E-03   -0.98974E-03   720   0.852E-02-0.769E-03
CGA:  16    -0.174403674312E+04   -0.51971E-03   -0.51280E-03   720   0.741E-02 0.644E-03
CGA:  17    -0.174403736233E+04   -0.61921E-03   -0.69591E-03   720   0.137E-01-0.223E-02
CGA:  18    -0.174403795436E+04   -0.59203E-03   -0.59219E-03   720   0.662E-02-0.248E-04
CGA:  19    -0.174403814523E+04   -0.19088E-03   -0.21070E-03   720   0.288E-02 0.842E-03
CGA:  20    -0.174403832689E+04   -0.18165E-03   -0.18147E-03   720   0.312E-02 0.835E-04
CGA:  21    -0.174403857830E+04   -0.25141E-03   -0.26101E-03   720   0.510E-02-0.349E-03
CGA:  22    -0.174403876295E+04   -0.18465E-03   -0.18932E-03   720   0.276E-02 0.346E-03
CGA:  23    -0.174403885061E+04   -0.87656E-04   -0.89280E-04   720   0.948E-03 0.466E-04
CGA:  24    -0.174403891205E+04   -0.61444E-04   -0.95860E-04   720   0.304E-02-0.743E-03
CGA:  25    -0.174403898213E+04   -0.70076E-04   -0.86815E-04   720   0.646E-03 0.630E-03
CGA:  26    -0.174403903316E+04   -0.51031E-04   -0.52671E-04   720   0.646E-03-0.121E-03
CGA:  27    -0.174403905716E+04   -0.23999E-04   -0.75176E-04   720   0.295E-02-0.582E-03
CGA:  28    -0.174403912706E+04   -0.69903E-04   -0.84693E-04   720   0.420E-03 0.478E-03
CGA:  29    -0.174403914961E+04   -0.22545E-04   -0.22526E-04   720   0.136E-03-0.211E-05
CGA:  30    -0.174403916522E+04   -0.15614E-04    0.67824E-03   720   0.167E-03 0.195E-04
CGA:  31    -0.174403918615E+04   -0.20935E-04   -0.17649E-04   720   0.138E-03 0.931E-04
CGA:  32    -0.174403919039E+04   -0.42326E-05   -0.48088E-05   720   0.575E-04 0.238E-04
  11 F= -.17440392E+04 E0= -.17440144E+04  d E =-.133130E-01  mag=    46.0000
       N       E                     dE             d eps       ncg     rms          ort
SDA:   1    -0.173837665494E+04    0.56625E+01    0.00000E+00   720   0.162E+02 0.000E+00
CGA:   2    -0.174030791498E+04   -0.19313E+01   -0.20264E+01   720   0.449E+02-0.354E+00
CGA:   3    -0.174288821930E+04   -0.25803E+01   -0.25446E+01   720   0.654E+01-0.247E+01
CGA:   4    -0.174343374481E+04   -0.54553E+00   -0.52785E+00   720   0.535E+01 0.597E+00
CGA:   5    -0.174378536280E+04   -0.35162E+00   -0.35218E+00   720   0.326E+01 0.278E-01
CGA:   6    -0.174391063898E+04   -0.12528E+00   -0.11906E+00   720   0.742E+00 0.123E+00
CGA:   7    -0.174395689673E+04   -0.46258E-01   -0.46400E-01   720   0.690E+00 0.173E-01
CGA:   8    -0.174400680115E+04   -0.49904E-01   -0.50263E-01   720   0.279E+00-0.287E-01
CGA:   9    -0.174401889064E+04   -0.12089E-01   -0.12329E-01   720   0.114E+00 0.140E-01
CGA:  10    -0.174402570648E+04   -0.68158E-02   -0.67968E-02   720   0.113E+00-0.707E-02
CGA:  11    -0.174403502002E+04   -0.93135E-02   -0.91995E-02   720   0.397E-01 0.418E-02
CGA:  12    -0.174403762720E+04   -0.26072E-02   -0.26067E-02   720   0.257E-01-0.129E-02
CGA:  13    -0.174403951940E+04   -0.18922E-02   -0.19225E-02   720   0.298E-01-0.223E-02
CGA:  14    -0.174404165991E+04   -0.21405E-02   -0.21082E-02   720   0.165E-01 0.219E-02
CGA:  15    -0.174404254198E+04   -0.88207E-03   -0.85048E-03   720   0.117E-01-0.203E-02
CGA:  16    -0.174404360268E+04   -0.10607E-02   -0.11078E-02   720   0.161E-01-0.111E-02
CGA:  17    -0.174404441840E+04   -0.81572E-03   -0.83486E-03   720   0.831E-02 0.199E-02
CGA:  18    -0.174404498689E+04   -0.56849E-03   -0.56024E-03   720   0.568E-02-0.141E-02
CGA:  19    -0.174404529232E+04   -0.30543E-03   -0.30608E-03   720   0.399E-02 0.112E-02
CGA:  20    -0.174404577707E+04   -0.48476E-03   -0.49581E-03   720   0.313E-02-0.285E-03
CGA:  21    -0.174404597581E+04   -0.19874E-03   -0.19991E-03   720   0.426E-02-0.864E-03
CGA:  22    -0.174404609251E+04   -0.11670E-03   -0.13138E-03   720   0.169E-02 0.589E-03
CGA:  23    -0.174404612894E+04   -0.36426E-04   -0.52917E-04   720   0.850E-03 0.426E-03
CGA:  24    -0.174404622290E+04   -0.93965E-04   -0.10962E-03   720   0.285E-02-0.406E-03
CGA:  25    -0.174404629759E+04   -0.74691E-04   -0.47445E-04   720   0.389E-02-0.799E-03
CGA:  26    -0.174404638511E+04   -0.87517E-04   -0.65199E-04   720   0.293E-02-0.558E-03
CGA:  27    -0.174404641678E+04   -0.31666E-04   -0.43176E-04   720   0.163E-02 0.269E-03
CGA:  28    -0.174404641916E+04   -0.23885E-05   -0.23891E-04   720   0.756E-03 0.470E-03
CGA:  29    -0.174404641726E+04    0.19059E-05   -0.13161E-04   720   0.500E-03 0.341E-03
CGA:  30    -0.174404642350E+04   -0.62468E-05   -0.15155E-04   720   0.656E-03 0.256E-03
CGA:  31    -0.174404650578E+04   -0.82272E-04    0.10883E-03   720   0.578E-03 0.231E-04
CGA:  32    -0.174404653716E+04   -0.31388E-04   -0.31653E-04   720   0.303E-03 0.258E-03
CGA:  33    -0.174404654516E+04   -0.79913E-05   -0.13859E-04   720   0.146E-03 0.263E-03
CGA:  34    -0.174404656384E+04   -0.18687E-04    0.18089E-04   720   0.122E-03 0.318E-04
CGA:  35    -0.174404656513E+04   -0.12848E-05   -0.41650E-05   720   0.844E-04 0.117E-03
  12 F= -.17440466E+04 E0= -.17440225E+04  d E =-.737474E-02  mag=    46.0000
       N       E                     dE             d eps       ncg     rms          ort
SDA:   1    -0.174299516405E+04    0.10514E+01    0.00000E+00   720   0.365E+01 0.000E+00
CGA:   2    -0.174334368177E+04   -0.34852E+00   -0.33693E+00   720   0.578E+01 0.262E+00
CGA:   3    -0.174376358777E+04   -0.41991E+00   -0.42805E+00   720   0.245E+01-0.341E+00
CGA:   4    -0.174388762123E+04   -0.12403E+00   -0.12401E+00   720   0.113E+01 0.120E-01
CGA:   5    -0.174397211214E+04   -0.84491E-01   -0.84227E-01   720   0.114E+01 0.919E-02
CGA:   6    -0.174402297225E+04   -0.50860E-01   -0.51417E-01   720   0.319E+00 0.220E-01
CGA:   7    -0.174403766692E+04   -0.14695E-01   -0.14671E-01   720   0.145E+00-0.537E-02
CGA:   8    -0.174404902112E+04   -0.11354E-01   -0.11223E-01   720   0.962E-01 0.512E-02
CGA:   9    -0.174405561086E+04   -0.65897E-02   -0.66116E-02   720   0.379E-01-0.280E-02
CGA:  10    -0.174405727522E+04   -0.16644E-02   -0.16967E-02   720   0.146E-01 0.373E-02
CGA:  11    -0.174405871722E+04   -0.14420E-02   -0.14688E-02   720   0.246E-01-0.780E-03
CGA:  12    -0.174406005483E+04   -0.13376E-02   -0.13382E-02   720   0.118E-01-0.527E-03
CGA:  13    -0.174406042328E+04   -0.36845E-03   -0.40225E-03   720   0.336E-02 0.158E-02
CGA:  14    -0.174406079404E+04   -0.37077E-03   -0.39070E-03   720   0.913E-02-0.421E-03
CGA:  15    -0.174406120816E+04   -0.41411E-03   -0.41476E-03   720   0.806E-02 0.103E-03
CGA:  16    -0.174406144800E+04   -0.23984E-03   -0.26328E-03   720   0.349E-02 0.943E-03
CGA:  17    -0.174406157186E+04   -0.12387E-03   -0.12706E-03   720   0.186E-02 0.113E-03
CGA:  18    -0.174406166789E+04   -0.96023E-04   -0.23729E-03   720   0.107E-01-0.206E-02
CGA:  19    -0.174406189710E+04   -0.22922E-03   -0.28289E-03   720   0.136E-02 0.169E-02
CGA:  20    -0.174406196590E+04   -0.68798E-04   -0.70793E-04   720   0.607E-03 0.175E-03
CGA:  21    -0.174406155561E+04    0.41029E-03   -0.22758E-03   720   0.253E-01-0.222E-02
CGA:  22    -0.174406210542E+04   -0.54981E-03   -0.64499E-03   720   0.167E-02 0.188E-02
CGA:  23    -0.174406220195E+04   -0.96535E-04   -0.90987E-04   720   0.422E-03-0.143E-03
CGA:  24    -0.174406222945E+04   -0.27499E-04   -0.24456E-04   720   0.578E-03-0.925E-04
CGA:  25    -0.174406226491E+04   -0.35455E-04   -0.35899E-04   720   0.369E-03 0.283E-04
CGA:  26    -0.174406227508E+04   -0.10175E-04   -0.12849E-04   720   0.133E-03 0.433E-04
CGA:  27    -0.174406229083E+04   -0.15746E-04   -0.16088E-04   720   0.350E-03-0.201E-04
CGA:  28    -0.174406230804E+04   -0.17209E-04   -0.16937E-04   720   0.402E-03-0.770E-05
CGA:  29    -0.174406232102E+04   -0.12979E-04   -0.15382E-04   720   0.228E-03 0.461E-04
CGA:  30    -0.174406232942E+04   -0.84018E-05   -0.94568E-05   720   0.168E-03 0.214E-04
CGA:  31    -0.174406234375E+04   -0.14334E-04   -0.14104E-04   720   0.256E-03-0.272E-04
CGA:  32    -0.174406235021E+04   -0.64574E-05   -0.73228E-05   720   0.157E-03 0.167E-04
  13 F= -.17440624E+04 E0= -.17440380E+04  d E =-.157851E-01  mag=    46.0000
       N       E                     dE             d eps       ncg     rms          ort
SDA:   1    -0.174382222300E+04    0.24012E+00    0.00000E+00   720   0.816E+00 0.000E+00
CGA:   2    -0.174389028734E+04   -0.68064E-01   -0.67967E-01   720   0.149E+01 0.174E-01
CGA:   3    -0.174400541755E+04   -0.11513E+00   -0.11519E+00   720   0.786E+00 0.134E-02
CGA:   4    -0.174403592035E+04   -0.30503E-01   -0.31593E-01   720   0.247E+00-0.174E-01
CGA:   5    -0.174404916019E+04   -0.13240E-01   -0.13366E-01   720   0.195E+00 0.660E-02
CGA:   6    -0.174406502879E+04   -0.15869E-01   -0.15871E-01   720   0.820E-01-0.338E-02
CGA:   7    -0.174406844905E+04   -0.34203E-02   -0.34708E-02   720   0.220E-01 0.368E-02
CGA:   8    -0.174407025564E+04   -0.18066E-02   -0.18167E-02   720   0.261E-01-0.235E-02
CGA:   9    -0.174407196717E+04   -0.17115E-02   -0.17125E-02   720   0.740E-02 0.648E-03
CGA:  10    -0.174407218916E+04   -0.22199E-03   -0.25415E-03   720   0.308E-02 0.734E-03
CGA:  11    -0.174407253670E+04   -0.34754E-03   -0.39475E-03   720   0.637E-02-0.108E-02
CGA:  12    -0.174407273858E+04   -0.20188E-03   -0.20130E-03   720   0.442E-02-0.210E-04
CGA:  13    -0.174407284718E+04   -0.10861E-03   -0.13164E-03   720   0.150E-02 0.514E-03
CGA:  14    -0.174407290316E+04   -0.55979E-04   -0.59671E-04   720   0.829E-03 0.103E-03
CGA:  15    -0.174407296950E+04   -0.66340E-04   -0.12434E-03   720   0.386E-02-0.818E-03
CGA:  16    -0.174407306662E+04   -0.97123E-04   -0.12045E-03   720   0.660E-03 0.564E-03
CGA:  17    -0.174407311600E+04   -0.49379E-04   -0.47064E-04   720   0.508E-03-0.261E-03
CGA:  18    -0.174407312887E+04   -0.12867E-04   -0.14018E-04   720   0.452E-03 0.453E-04
CGA:  19    -0.174407315077E+04   -0.21902E-04   -0.24607E-04   720   0.226E-03 0.140E-03
CGA:  20    -0.174407317015E+04   -0.19375E-04   -0.18319E-04   720   0.471E-03-0.158E-03
CGA:  21    -0.174407317669E+04   -0.65471E-05   -0.10152E-04   720   0.872E-04 0.732E-04
  14 F= -.17440732E+04 E0= -.17440488E+04  d E =-.108265E-01  mag=    46.0000
       N       E                     dE             d eps       ncg     rms          ort
SDA:   1    -0.174395211605E+04    0.12105E+00    0.00000E+00   720   0.577E+00 0.000E+00
CGA:   2    -0.174397533769E+04   -0.23222E-01   -0.24916E-01   720   0.550E+00 0.361E-02
CGA:   3    -0.174404403981E+04   -0.68702E-01   -0.69315E-01   720   0.339E+00-0.103E-01
CGA:   4    -0.174405936633E+04   -0.15327E-01   -0.15240E-01   720   0.145E+00-0.257E-02
CGA:   5    -0.174406688723E+04   -0.75209E-02   -0.75506E-02   720   0.704E-01 0.329E-02
CGA:   6    -0.174407375266E+04   -0.68654E-02   -0.68934E-02   720   0.594E-01-0.107E-02
CGA:   7    -0.174407592469E+04   -0.21720E-02   -0.22142E-02   720   0.891E-02 0.158E-02
CGA:   8    -0.174407634302E+04   -0.41833E-03   -0.44373E-03   720   0.650E-02 0.145E-02
CGA:   9    -0.174407701557E+04   -0.67255E-03   -0.68518E-03   720   0.624E-02-0.507E-03
CGA:  10    -0.174407725596E+04   -0.24039E-03   -0.25978E-03   720   0.127E-02 0.907E-03
CGA:  11    -0.174407733940E+04   -0.83445E-04   -0.83087E-04   720   0.996E-03-0.431E-04
CGA:  12    -0.174407651637E+04    0.82303E-03   -0.44683E-03   720   0.274E-01-0.340E-02
CGA:  13    -0.174407723038E+04   -0.71401E-03   -0.83006E-03   720   0.317E-02 0.159E-02
CGA:  14    -0.174407742159E+04   -0.19120E-03   -0.17929E-03   720   0.151E-02-0.151E-03
CGA:  15    -0.174407752498E+04   -0.10339E-03   -0.10733E-03   720   0.166E-02 0.106E-03
CGA:  16    -0.174407760697E+04   -0.81999E-04   -0.90725E-04   720   0.301E-03 0.144E-03
CGA:  17    -0.174407763409E+04   -0.27111E-04   -0.19267E-04   720   0.450E-03-0.166E-03
CGA:  18    -0.174407763319E+04    0.89085E-06   -0.88053E-05   720   0.790E-04 0.113E-03
  15 F= -.17440776E+04 E0= -.17440534E+04  d E =-.445650E-02  mag=    46.0000
       N       E                     dE             d eps       ncg     rms          ort
SDA:   1    -0.173321461934E+04    0.10863E+02    0.00000E+00   720   0.294E+02 0.000E+00
CGA:   2    -0.173915194495E+04   -0.59373E+01   -0.61028E+01   720   0.811E+02-0.897E+00
CGA:   3    -0.174146083240E+04   -0.23089E+01   -0.34357E+01   720   0.202E+02-0.169E+02
CGA:   4    -0.174254563725E+04   -0.10848E+01   -0.99085E+00   720   0.141E+02-0.211E+00
CGA:   5    -0.174338649808E+04   -0.84086E+00   -0.89388E+00   720   0.827E+01 0.365E-01
CGA:   6    -0.174372270408E+04   -0.33621E+00   -0.38078E+00   720   0.348E+01-0.631E+00
CGA:   7    -0.174385874559E+04   -0.13604E+00   -0.11980E+00   720   0.120E+01 0.322E+00
CGA:   8    -0.174393916501E+04   -0.80419E-01   -0.81705E-01   720   0.153E+01 0.344E-02
CGA:   9    -0.174401650207E+04   -0.77337E-01   -0.79598E-01   720   0.700E+00-0.314E-01
CGA:  10    -0.174404020304E+04   -0.23701E-01   -0.22204E-01   720   0.207E+00 0.553E-01
CGA:  11    -0.174404973265E+04   -0.95296E-02   -0.94531E-02   720   0.190E+00 0.140E-01
CGA:  12    -0.174406405966E+04   -0.14327E-01   -0.14283E-01   720   0.273E+00-0.360E-02
CGA:  13    -0.174407510410E+04   -0.11044E-01   -0.10923E-01   720   0.130E+00-0.919E-02
CGA:  14    -0.174407865307E+04   -0.35490E-02   -0.37479E-02   720   0.384E-01 0.120E-02
CGA:  15    -0.174408009275E+04   -0.14397E-02   -0.15262E-02   720   0.390E-01 0.221E-02
CGA:  16    -0.174408393966E+04   -0.38469E-02   -0.38728E-02   720   0.761E-01-0.167E-02
CGA:  17    -0.174408703871E+04   -0.30990E-02   -0.29881E-02   720   0.353E-01-0.303E-02
CGA:  18    -0.174408798807E+04   -0.94936E-03   -0.98820E-03   720   0.143E-01 0.132E-02
CGA:  19    -0.174408858081E+04   -0.59274E-03   -0.63000E-03   720   0.156E-01 0.135E-02
CGA:  20    -0.174408976654E+04   -0.11857E-02   -0.11846E-02   720   0.264E-01-0.873E-03
CGA:  21    -0.174409105214E+04   -0.12856E-02   -0.12482E-02   720   0.249E-01-0.188E-02
CGA:  22    -0.174409169672E+04   -0.64458E-03   -0.69276E-03   720   0.102E-01 0.107E-02
CGA:  23    -0.174409191815E+04   -0.22143E-03   -0.27565E-03   720   0.535E-02 0.136E-02
CGA:  24    -0.174409220406E+04   -0.28591E-03   -0.29115E-03   720   0.806E-02 0.311E-03
CGA:  25    -0.174409276554E+04   -0.56148E-03   -0.56487E-03   720   0.140E-01-0.206E-02
CGA:  26    -0.174409304852E+04   -0.28298E-03   -0.26223E-03   720   0.949E-02-0.460E-03
CGA:  27    -0.174409319742E+04   -0.14890E-03   -0.17891E-03   720   0.488E-02 0.708E-03
CGA:  28    -0.174409328887E+04   -0.91451E-04   -0.12247E-03   720   0.433E-02 0.847E-03
CGA:  29    -0.174409345456E+04   -0.16569E-03   -0.17354E-03   720   0.501E-02 0.316E-03
CGA:  30    -0.174409367728E+04   -0.22271E-03   -0.19707E-03   720   0.475E-02-0.133E-02
CGA:  31    -0.174409381172E+04   -0.13444E-03   -0.10500E-03   720   0.444E-02-0.116E-02
SDA:  32    -0.174409387826E+04   -0.66544E-04   -0.68953E-04   720   0.316E-02 0.572E-04
CGA:  33    -0.174409396280E+04   -0.84537E-04   -0.10805E-03   720   0.144E-02 0.123E-02
CGA:  34    -0.174409412294E+04   -0.16014E-03   -0.15412E-03   720   0.784E-03 0.261E-03
CGA:  35    -0.174409405608E+04    0.66860E-04   -0.14720E-03   720   0.763E-02-0.204E-02
CGA:  36    -0.174409417419E+04   -0.11811E-03   -0.17668E-03   720   0.104E-02 0.164E-02
CGA:  37    -0.174409420841E+04   -0.34220E-04   -0.43522E-04   720   0.612E-03 0.407E-03
CGA:  38    -0.174409423771E+04   -0.29300E-04   -0.11048E-03   720   0.233E-02-0.109E-02
CGA:  39    -0.174409427259E+04   -0.34879E-04   -0.56326E-04   720   0.421E-03 0.593E-03
CGA:  40    -0.174409429160E+04   -0.19013E-04   -0.21365E-04   720   0.283E-03 0.137E-03
CGA:  41    -0.174409428459E+04    0.70145E-05   -0.54529E-04   720   0.169E-02-0.696E-03
CGA:  42    -0.174409429996E+04   -0.15370E-04   -0.36896E-04   720   0.366E-03 0.538E-03
CGA:  43    -0.174409430802E+04   -0.80585E-05   -0.14054E-04   720   0.239E-03 0.195E-03
CGA:  44    -0.174409434772E+04   -0.39703E-04    0.16047E-04   720   0.245E-03-0.287E-04
CGA:  45    -0.174409435291E+04   -0.51895E-05   -0.74030E-05   720   0.788E-04 0.932E-04
  16 F= -.17440944E+04 E0= -.17440707E+04  d E =-.167197E-01  mag=    46.0000
       N       E                     dE             d eps       ncg     rms          ort
SDA:   1    -0.173591155754E+04    0.81828E+01    0.00000E+00   720   0.300E+02 0.000E+00
CGA:   2    -0.173757956213E+04   -0.16680E+01   -0.16554E+01   720   0.218E+02 0.839E+01
CGA:   3    -0.173833286143E+04   -0.75330E+00   -0.41083E+01   720   0.247E+03-0.432E+02
CGA:   4    -0.174149563311E+04   -0.31628E+01   -0.80899E+01   720   0.111E+02-0.237E+01
CGA:   5    -0.174238138804E+04   -0.88575E+00   -0.50337E+00   720   0.621E+01 0.150E+01
CGA:   6    -0.174242697136E+04   -0.45583E-01   -0.45002E-01   720   0.622E+01-0.418E+00
CGA:   7    -0.174245663939E+04   -0.29668E-01   -0.52004E-01   720   0.133E+02-0.252E+01
CGA:   8    -0.174243874653E+04    0.17893E-01   -0.11327E+00   720   0.334E+02-0.548E+01
CGA:   9    -0.174262676491E+04   -0.18802E+00   -0.14340E+00   720   0.193E+02 0.512E+01
CGA:  10    -0.174269513882E+04   -0.68374E-01   -0.29504E+00   720   0.117E+02-0.145E+02
CGA:  11    -0.174308232846E+04   -0.38719E+00   -0.37733E+00   720   0.777E+01 0.852E-01
CGA:  12    -0.174318563332E+04   -0.10330E+00   -0.62279E-01   720   0.390E+01 0.487E+01
CGA:  13    -0.174327855947E+04   -0.92926E-01   -0.93362E-01   720   0.132E+01 0.100E-01
CGA:  14    -0.174332841601E+04   -0.49857E-01   -0.48996E-01   720   0.115E+01-0.576E-01
CGA:  15    -0.174338612580E+04   -0.57710E-01   -0.57736E-01   720   0.179E+01-0.393E-02
CGA:  16    -0.174343220421E+04   -0.46078E-01   -0.47755E-01   720   0.374E+00-0.118E-03
CGA:  17    -0.174344337616E+04   -0.11172E-01   -0.11144E-01   720   0.162E+00-0.772E-02
CGA:  18    -0.174345028677E+04   -0.69106E-02   -0.69245E-02   720   0.222E+00-0.763E-02
CGA:  19    -0.174346596045E+04   -0.15674E-01   -0.15329E-01   720   0.233E+00 0.110E-01
CGA:  20    -0.174347828964E+04   -0.12329E-01   -0.12278E-01   720   0.150E+00 0.578E-02
CGA:  21    -0.174348258240E+04   -0.42928E-02   -0.42555E-02   720   0.406E-01-0.334E-02
CGA:  22    -0.174348543627E+04   -0.28539E-02   -0.27134E-02   720   0.338E-01 0.540E-02
CGA:  23    -0.174348747229E+04   -0.20360E-02   -0.20590E-02   720   0.301E-01-0.264E-02
CGA:  24    -0.174348872333E+04   -0.12510E-02   -0.12529E-02   720   0.262E-01-0.346E-02
CGA:  25    -0.174348978903E+04   -0.10657E-02   -0.10608E-02   720   0.859E-02 0.462E-02
CGA:  26    -0.174349016699E+04   -0.37797E-03   -0.38475E-03   720   0.875E-02 0.988E-03
CGA:  27    -0.174349085114E+04   -0.68415E-03   -0.78098E-03   720   0.126E-01-0.264E-02
CGA:  28    -0.174349108611E+04   -0.23496E-03   -0.25253E-03   720   0.878E-02 0.107E-02
CGA:  29    -0.174349133855E+04   -0.25244E-03   -0.27914E-03   720   0.773E-02 0.164E-02
CGA:  30    -0.174349182914E+04   -0.49059E-03   -0.48864E-03   720   0.696E-02 0.133E-03
CGA:  31    -0.174349208756E+04   -0.25841E-03   -0.23081E-03   720   0.354E-02-0.236E-02
CGA:  32    -0.174349223703E+04   -0.14948E-03   -0.16827E-03   720   0.340E-02-0.678E-03
CGA:  33    -0.174349230104E+04   -0.64011E-04   -0.79612E-04   720   0.231E-02 0.935E-03
CGA:  34    -0.174349240771E+04   -0.10667E-03   -0.11214E-03   720   0.125E-02 0.840E-03
CGA:  35    -0.174349249156E+04   -0.83848E-04   -0.89427E-04   720   0.137E-02-0.684E-03
CGA:  36    -0.174349251732E+04   -0.25754E-04   -0.33895E-04   720   0.432E-03 0.402E-03
CGA:  37    -0.174349256010E+04   -0.42779E-04   -0.55022E-04   720   0.128E-02-0.223E-03
CGA:  38    -0.174349261697E+04   -0.56879E-04   -0.56023E-04   720   0.593E-03-0.297E-03
CGA:  39    -0.174349262478E+04   -0.78093E-05   -0.12401E-04   720   0.291E-03 0.236E-03
CGA:  40    -0.174349263063E+04   -0.58469E-05   -0.10084E-04   720   0.228E-03 0.203E-03
CGA:  41    -0.174349265504E+04   -0.24413E-04    0.24754E-04   720   0.192E-03 0.933E-04
CGA:  42    -0.174349272270E+04   -0.67657E-04   -0.49497E-06   720   0.184E-02-0.751E-04
CGA:  43    -0.174349273729E+04   -0.14590E-04   -0.20690E-04   720   0.172E-02 0.102E-03
CGA:  44    -0.174349275600E+04   -0.18707E-04   -0.30053E-04   720   0.823E-03 0.200E-03
CGA:  45    -0.174349276844E+04   -0.12438E-04   -0.16369E-04   720   0.331E-03 0.768E-04
CGA:  46    -0.174349277594E+04   -0.75001E-05   -0.61430E-05   720   0.100E-03-0.258E-04
  17 F= -.17434928E+04 E0= -.17434677E+04  d E =0.601577E+00  mag=    46.0000
       N       E                     dE             d eps       ncg     rms          ort
SDA:   1    -0.174251284474E+04    0.97992E+00    0.00000E+00   720   0.603E+01 0.000E+00
CGA:   2    -0.174275796773E+04   -0.24512E+00   -0.23141E+00   720   0.614E+01 0.267E-01
CGA:   3    -0.174352162213E+04   -0.76365E+00   -0.77087E+00   720   0.665E+01-0.967E-01
CGA:   4    -0.174376839110E+04   -0.24677E+00   -0.25682E+00   720   0.201E+01-0.176E+00
CGA:   5    -0.174385550799E+04   -0.87117E-01   -0.69363E-01   720   0.553E+00 0.302E+00
CGA:   6    -0.174390465762E+04   -0.49150E-01   -0.48625E-01   720   0.937E+00 0.372E-01
CGA:   7    -0.174395986315E+04   -0.55206E-01   -0.55280E-01   720   0.356E+00-0.497E-02
CGA:   8    -0.174397316522E+04   -0.13302E-01   -0.11582E-01   720   0.104E+00 0.276E-01
CGA:   9    -0.174397739666E+04   -0.42314E-02   -0.42156E-02   720   0.742E-01 0.187E-02
CGA:  10    -0.174398408851E+04   -0.66919E-02   -0.67195E-02   720   0.157E+00-0.108E-02
CGA:  11    -0.174398922487E+04   -0.51364E-02   -0.51079E-02   720   0.412E-01-0.154E-02
CGA:  12    -0.174399054806E+04   -0.13232E-02   -0.13531E-02   720   0.212E-01 0.386E-03
CGA:  13    -0.174399146362E+04   -0.91556E-03   -0.94156E-03   720   0.195E-01 0.136E-02
CGA:  14    -0.174399282412E+04   -0.13605E-02   -0.13596E-02   720   0.226E-01 0.838E-04
CGA:  15    -0.174399395448E+04   -0.11304E-02   -0.10841E-02   720   0.123E-01-0.375E-02
CGA:  16    -0.174399435161E+04   -0.39713E-03   -0.38368E-03   720   0.723E-02-0.656E-03
CGA:  17    -0.174399458249E+04   -0.23088E-03   -0.26193E-03   720   0.508E-02 0.154E-02
CGA:  18    -0.174399486596E+04   -0.28347E-03   -0.29187E-03   720   0.466E-02 0.865E-03
CGA:  19    -0.174399516320E+04   -0.29724E-03   -0.29187E-03   720   0.360E-02-0.134E-02
CGA:  20    -0.174399525857E+04   -0.95366E-04   -0.97159E-04   720   0.252E-02 0.826E-04
CGA:  21    -0.174399534194E+04   -0.83376E-04   -0.93873E-04   720   0.232E-02 0.516E-03
CGA:  22    -0.174399551789E+04   -0.17595E-03   -0.17794E-03   720   0.147E-02-0.248E-03
CGA:  23    -0.174399558977E+04   -0.71883E-04   -0.69324E-04   720   0.156E-02-0.900E-03
CGA:  24    -0.174399560193E+04   -0.12161E-04   -0.30930E-04   720   0.385E-03 0.521E-03
CGA:  25    -0.174399560969E+04   -0.77599E-05   -0.14092E-04   720   0.315E-03 0.239E-03
CGA:  26    -0.174399565277E+04   -0.43078E-04    0.27007E-04   720   0.369E-03 0.294E-04
CGA:  27    -0.174399567993E+04   -0.27160E-04   -0.25373E-04   720   0.152E-03 0.171E-03
CGA:  28    -0.174399567957E+04    0.35546E-06   -0.44200E-05   720   0.694E-04 0.143E-03
  18 F= -.17439957E+04 E0= -.17439714E+04  d E =-.502904E+00  mag=    46.0000
       N       E                     dE             d eps       ncg     rms          ort
SDA:   1    -0.174374271004E+04    0.25297E+00    0.00000E+00   720   0.214E+01 0.000E+00
CGA:   2    -0.174380776243E+04   -0.65052E-01   -0.56506E-01   720   0.850E+00 0.175E+00
CGA:   3    -0.174397909121E+04   -0.17133E+00   -0.16922E+00   720   0.196E+01 0.157E-01
CGA:   4    -0.174404064222E+04   -0.61551E-01   -0.63668E-01   720   0.519E+00-0.524E-01
CGA:   5    -0.174406037752E+04   -0.19735E-01   -0.20144E-01   720   0.226E+00-0.823E-02
CGA:   6    -0.174407102171E+04   -0.10644E-01   -0.10696E-01   720   0.171E+00 0.903E-02
CGA:   7    -0.174408634544E+04   -0.15324E-01   -0.15385E-01   720   0.106E+00-0.170E-02
CGA:   8    -0.174408972274E+04   -0.33773E-02   -0.32413E-02   720   0.300E-01-0.595E-02
CGA:   9    -0.174409131426E+04   -0.15915E-02   -0.15921E-02   720   0.179E-01 0.391E-03
CGA:  10    -0.174409306081E+04   -0.17466E-02   -0.17004E-02   720   0.185E-01 0.132E-02
CGA:  11    -0.174409409189E+04   -0.10311E-02   -0.10152E-02   720   0.937E-02-0.192E-02
CGA:  12    -0.174409438728E+04   -0.29539E-03   -0.31398E-03   720   0.355E-02 0.833E-03
CGA:  13    -0.174409464072E+04   -0.25345E-03   -0.25213E-03   720   0.452E-02 0.185E-03
CGA:  14    -0.174409503187E+04   -0.39114E-03   -0.54670E-03   720   0.103E-01-0.277E-02
CGA:  15    -0.174409519523E+04   -0.16336E-03   -0.22820E-03   720   0.121E-02 0.165E-02
CGA:  16    -0.174409522743E+04   -0.32198E-04   -0.43991E-04   720   0.603E-03 0.425E-03
CGA:  17    -0.174409529375E+04   -0.66321E-04   -0.88100E-04   720   0.259E-02-0.436E-03
CGA:  18    -0.174409535052E+04   -0.56768E-04   -0.67763E-04   720   0.483E-03 0.315E-03
CGA:  19    -0.174409538518E+04   -0.34666E-04   -0.38638E-04   720   0.743E-03-0.317E-03
CGA:  20    -0.174409540420E+04   -0.19020E-04   -0.22977E-04   720   0.211E-03 0.142E-03
CGA:  21    -0.174409541646E+04   -0.12262E-04   -0.12617E-04   720   0.219E-03 0.463E-04
CGA:  22    -0.174409546090E+04   -0.44441E-04   -0.38806E-04   720   0.451E-03 0.639E-04
CGA:  23    -0.174409550374E+04   -0.42832E-04   -0.48054E-04   720   0.691E-03-0.256E-03
CGA:  24    -0.174409551591E+04   -0.12172E-04   -0.15065E-04   720   0.106E-03 0.699E-04
CGA:  25    -0.174409551712E+04   -0.12078E-05   -0.34402E-05   720   0.677E-04 0.710E-04
CGA:  26    -0.174409552583E+04   -0.87182E-05    0.23826E-04   720   0.860E-04 0.236E-04
CGA:  27    -0.174409548278E+04    0.43053E-04   -0.25392E-04   720   0.249E-02-0.264E-03
CGA:  28    -0.174409552301E+04   -0.40233E-04   -0.49472E-04   720   0.158E-03 0.338E-04
CGA:  29    -0.174409555092E+04   -0.27909E-04   -0.35095E-04   720   0.450E-03-0.620E-04
CGA:  30    -0.174409555038E+04    0.54691E-06   -0.56265E-05   720   0.212E-03 0.688E-04
  19 F= -.17440956E+04 E0= -.17440717E+04  d E =-.998708E-01  mag=    46.0000
       N       E                     dE             d eps       ncg     rms          ort
SDA:   1    -0.174391888264E+04    0.17667E+00    0.00000E+00   720   0.839E+00 0.000E+00
CGA:   2    -0.174395467542E+04   -0.35793E-01   -0.35159E-01   720   0.795E+00 0.139E-01
CGA:   3    -0.174405310144E+04   -0.98426E-01   -0.98664E-01   720   0.892E+00-0.552E-02
CGA:   4    -0.174409035213E+04   -0.37251E-01   -0.37332E-01   720   0.221E+00-0.214E-01
CGA:   5    -0.174410042280E+04   -0.10071E-01   -0.10140E-01   720   0.101E+00 0.673E-02
CGA:   6    -0.174411216541E+04   -0.11743E-01   -0.11757E-01   720   0.887E-01-0.132E-02
CGA:   7    -0.174411527975E+04   -0.31143E-02   -0.31282E-02   720   0.243E-01 0.122E-02
CGA:   8    -0.174411658396E+04   -0.13042E-02   -0.13198E-02   720   0.136E-01 0.246E-03
CGA:   9    -0.174411782846E+04   -0.12445E-02   -0.12453E-02   720   0.169E-01-0.114E-02
CGA:  10    -0.174411862100E+04   -0.79254E-03   -0.81970E-03   720   0.297E-02 0.854E-03
CGA:  11    -0.174411879717E+04   -0.17617E-03   -0.18284E-03   720   0.252E-02 0.231E-03
CGA:  12    -0.174411906823E+04   -0.27106E-03   -0.29421E-03   720   0.646E-02-0.107E-02
CGA:  13    -0.174411920916E+04   -0.14093E-03   -0.13354E-03   720   0.446E-02-0.143E-03
CGA:  14    -0.174411926995E+04   -0.60786E-04   -0.89559E-04   720   0.141E-02 0.461E-03
CGA:  15    -0.174411928703E+04   -0.17087E-04   -0.36134E-04   720   0.803E-03 0.328E-03
CGA:  16    -0.174411932273E+04   -0.35698E-04   -0.37853E-04   720   0.912E-03 0.537E-04
CGA:  17    -0.174411939773E+04   -0.75003E-04   -0.75338E-04   720   0.252E-02-0.658E-03
CGA:  18    -0.174411945475E+04   -0.57019E-04   -0.78930E-04   720   0.419E-03 0.483E-03
CGA:  19    -0.174411948226E+04   -0.27512E-04   -0.25669E-04   720   0.153E-03-0.760E-04
CGA:  20    -0.174411950086E+04   -0.18591E-04    0.67418E-03   720   0.216E-03 0.289E-04
CGA:  21    -0.174411951111E+04   -0.10258E-04   -0.12852E-04   720   0.557E-04 0.111E-03
CGA:  22    -0.174411950120E+04    0.99116E-05   -0.14177E-04   720   0.100E-02-0.132E-03
CGA:  23    -0.174411952063E+04   -0.19427E-04   -0.26948E-04   720   0.893E-04 0.140E-03
CGA:  24    -0.174411952861E+04   -0.79799E-05   -0.75255E-05   720   0.166E-03-0.963E-04
  20 F= -.17441195E+04 E0= -.17440958E+04  d E =-.239782E-01  mag=    46.0000
       N       E                     dE             d eps       ncg     rms          ort
SDA:   1    -0.174411245665E+04    0.70640E-02    0.00000E+00   720   0.423E-01 0.000E+00
CGA:   2    -0.174411511625E+04   -0.26596E-02   -0.26578E-02   720   0.328E-01-0.648E-03
CGA:   3    -0.174411847592E+04   -0.33597E-02   -0.33361E-02   720   0.313E-01 0.780E-03
CGA:   4    -0.174411993412E+04   -0.14582E-02   -0.14531E-02   720   0.107E-01-0.720E-04
CGA:   5    -0.174412060741E+04   -0.67329E-03   -0.67006E-03   720   0.942E-02-0.245E-03
CGA:   6    -0.174412109114E+04   -0.48373E-03   -0.48849E-03   720   0.416E-02 0.185E-03
CGA:   7    -0.174412135497E+04   -0.26382E-03   -0.25791E-03   720   0.137E-02-0.520E-03
CGA:   8    -0.174412138210E+04   -0.27133E-04   -0.42946E-04   720   0.530E-03 0.429E-03
CGA:   9    -0.174412143860E+04   -0.56500E-04   -0.56646E-04   720   0.700E-03-0.125E-04
CGA:  10    -0.174412149145E+04   -0.52844E-04   -0.64579E-04   720   0.132E-02-0.507E-03
CGA:  11    -0.174412149668E+04   -0.52300E-05   -0.25948E-04   720   0.217E-03 0.396E-03
  21 F= -.17441215E+04 E0= -.17440978E+04  d E =-.196807E-02  mag=    46.0000
       N       E                     dE             d eps       ncg     rms          ort
SDA:   1    -0.174409534358E+04    0.26148E-01    0.00000E+00   720   0.142E+00 0.000E+00
CGA:   2    -0.174410097426E+04   -0.56307E-02   -0.58125E-02   720   0.111E+00 0.500E-02
CGA:   3    -0.174411290197E+04   -0.11928E-01   -0.12033E-01   720   0.109E+00-0.266E-02
CGA:   4    -0.174411822765E+04   -0.53257E-02   -0.53076E-02   720   0.453E-01-0.178E-02
CGA:   5    -0.174412057789E+04   -0.23502E-02   -0.23888E-02   720   0.206E-01 0.304E-02
CGA:   6    -0.174412286002E+04   -0.22821E-02   -0.24187E-02   720   0.161E-01-0.315E-02
CGA:   7    -0.174412329273E+04   -0.43270E-03   -0.46989E-03   720   0.350E-02 0.103E-02
CGA:   8    -0.174412344027E+04   -0.14754E-03   -0.16394E-03   720   0.200E-02 0.736E-03
CGA:   9    -0.174412365136E+04   -0.21110E-03   -0.22498E-03   720   0.389E-02-0.512E-03
CGA:  10    -0.174412374873E+04   -0.97370E-04   -0.98193E-04   720   0.195E-02 0.203E-04
CGA:  11    -0.174412378007E+04   -0.31333E-04   -0.40405E-04   720   0.642E-03 0.210E-03
CGA:  12    -0.174412379852E+04   -0.18454E-04   -0.21186E-04   720   0.494E-03 0.857E-04
CGA:  13    -0.174412383023E+04   -0.31706E-04   -0.30739E-04   720   0.760E-03-0.146E-03
CGA:  14    -0.174412385263E+04   -0.22407E-04   -0.20243E-04   720   0.101E-02-0.929E-04
CGA:  15    -0.174412387184E+04   -0.19208E-04   -0.21525E-04   720   0.559E-03 0.643E-04
CGA:  16    -0.174412387958E+04   -0.77432E-05   -0.10959E-04   720   0.208E-03 0.826E-04
  22 F= -.17441239E+04 E0= -.17441001E+04  d E =-.238291E-02  mag=    46.0000
       N       E                     dE             d eps       ncg     rms          ort
SDA:   1    -0.174411598320E+04    0.78886E-02    0.00000E+00   720   0.573E-01 0.000E+00
CGA:   2    -0.174411798559E+04   -0.20024E-02   -0.20572E-02   720   0.253E-01 0.380E-02
CGA:   3    -0.174412096353E+04   -0.29779E-02   -0.31081E-02   720   0.416E-01-0.213E-02
CGA:   4    -0.174412284831E+04   -0.18848E-02   -0.18956E-02   720   0.176E-01 0.148E-02
CGA:   5    -0.174412352885E+04   -0.68054E-03   -0.69935E-03   720   0.574E-02 0.101E-02
CGA:   6    -0.174412415912E+04   -0.63027E-03   -0.82501E-03   720   0.112E-01-0.242E-02
CGA:   7    -0.174412426918E+04   -0.11006E-03   -0.13168E-03   720   0.509E-02 0.560E-03
CGA:   8    -0.174412433099E+04   -0.61812E-04   -0.93135E-04   720   0.191E-02 0.838E-03
CGA:   9    -0.174412437094E+04   -0.39945E-04   -0.51762E-04   720   0.129E-02 0.372E-03
CGA:  10    -0.174412444291E+04   -0.71976E-04   -0.69365E-04   720   0.208E-02-0.300E-03
CGA:  11    -0.174412450733E+04   -0.64419E-04   -0.54660E-04   720   0.253E-02-0.511E-03
CGA:  12    -0.174412453980E+04   -0.32465E-04   -0.31166E-04   720   0.142E-02-0.375E-04
CGA:  13    -0.174412455093E+04   -0.11132E-04   -0.18396E-04   720   0.658E-03 0.200E-03
CGA:  14    -0.174412455410E+04   -0.31745E-05   -0.97526E-05   720   0.377E-03 0.186E-03
  23 F= -.17441246E+04 E0= -.17441008E+04  d E =-.674518E-03  mag=    46.0000
       N       E                     dE             d eps       ncg     rms          ort
SDA:   1    -0.174411834056E+04    0.62104E-02    0.00000E+00   720   0.123E+00 0.000E+00
CGA:   2    -0.174412160457E+04   -0.32640E-02   -0.33558E-02   720   0.146E-01 0.804E-02
CGA:   3    -0.174412270243E+04   -0.10979E-02   -0.11637E-02   720   0.192E-01-0.219E-02
CGA:   4    -0.174412389815E+04   -0.11957E-02   -0.12008E-02   720   0.180E-01-0.201E-03
CGA:   5    -0.174412453053E+04   -0.63238E-03   -0.65176E-03   720   0.381E-02 0.186E-02
CGA:   6    -0.174412477843E+04   -0.24790E-03   -0.24761E-03   720   0.392E-02 0.213E-04
CGA:   7    -0.174412503265E+04   -0.25423E-03   -0.27085E-03   720   0.372E-02-0.794E-03
CGA:   8    -0.174412513317E+04   -0.10052E-03   -0.99486E-04   720   0.998E-03-0.759E-04
CGA:   9    -0.174412515291E+04   -0.19732E-04   -0.24701E-04   720   0.467E-03 0.218E-03
CGA:  10    -0.174412517138E+04   -0.18478E-04   -0.20283E-04   720   0.391E-03 0.164E-03
CGA:  11    -0.174412520590E+04   -0.34520E-04   -0.45877E-04   720   0.589E-03-0.278E-03
CGA:  12    -0.174412522323E+04   -0.17322E-04   -0.17622E-04   720   0.179E-03 0.156E-04
CGA:  13    -0.174412523012E+04   -0.68945E-05   -0.72612E-05   720   0.416E-04 0.478E-04
CGA:  14    -0.174412523526E+04   -0.51435E-05    0.30793E-04   720   0.349E-04 0.186E-04
  24 F= -.17441252E+04 E0= -.17441014E+04  d E =-.681163E-03  mag=    46.0000
       N       E                     dE             d eps       ncg     rms          ort
SDA:   1    -0.174409352202E+04    0.31708E-01    0.00000E+00   720   0.104E+00 0.000E+00
CGA:   2    -0.174410297397E+04   -0.94519E-02   -0.10058E-01   720   0.283E+00-0.124E-01
CGA:   3    -0.174411769415E+04   -0.14720E-01   -0.14634E-01   720   0.102E+00 0.816E-02
CGA:   4    -0.174412090025E+04   -0.32061E-02   -0.32840E-02   720   0.342E-01 0.641E-02
CGA:   5    -0.174412356739E+04   -0.26671E-02   -0.27346E-02   720   0.508E-01-0.266E-02
CGA:   6    -0.174412554475E+04   -0.19774E-02   -0.19641E-02   720   0.167E-01-0.173E-02
CGA:   7    -0.174412597144E+04   -0.42669E-03   -0.45801E-03   720   0.521E-02 0.165E-02
CGA:   8    -0.174412618671E+04   -0.21527E-03   -0.22019E-03   720   0.406E-02 0.507E-03
CGA:   9    -0.174412649838E+04   -0.31168E-03   -0.34898E-03   720   0.583E-02-0.124E-02
CGA:  10    -0.174412661103E+04   -0.11264E-03   -0.11397E-03   720   0.319E-02 0.535E-04
CGA:  11    -0.174412666473E+04   -0.53705E-04   -0.65989E-04   720   0.114E-02 0.442E-03
CGA:  12    -0.174412668976E+04   -0.25028E-04   -0.30442E-04   720   0.650E-03 0.227E-03
CGA:  13    -0.174412672207E+04   -0.32310E-04   -0.32126E-04   720   0.744E-03-0.398E-04
CGA:  14    -0.174412675614E+04   -0.34065E-04   -0.35050E-04   720   0.123E-02-0.223E-03
CGA:  15    -0.174412677970E+04   -0.23565E-04   -0.22256E-04   720   0.103E-02-0.652E-04
CGA:  16    -0.174412679520E+04   -0.15495E-04   -0.16968E-04   720   0.378E-03 0.538E-04
CGA:  17    -0.174412680051E+04   -0.53197E-05   -0.66642E-05   720   0.187E-03 0.492E-04
  25 F= -.17441268E+04 E0= -.17441030E+04  d E =-.156525E-02  mag=    46.0000
       N       E                     dE             d eps       ncg     rms          ort
SDA:   1    -0.174400813487E+04    0.11866E+00    0.00000E+00   720   0.460E+00 0.000E+00
CGA:   2    -0.174403494066E+04   -0.26806E-01   -0.27248E-01   720   0.656E+00-0.219E-01
CGA:   3    -0.174408876324E+04   -0.53823E-01   -0.53169E-01   720   0.527E+00 0.146E-01
CGA:   4    -0.174410921315E+04   -0.20450E-01   -0.20520E-01   720   0.112E+00 0.579E-02
CGA:   5    -0.174411895385E+04   -0.97407E-02   -0.95271E-02   720   0.113E+00 0.532E-02
CGA:   6    -0.174412467117E+04   -0.57173E-02   -0.57228E-02   720   0.534E-01-0.369E-02
CGA:   7    -0.174412691804E+04   -0.22469E-02   -0.22416E-02   720   0.140E-01-0.195E-02
CGA:   8    -0.174412750734E+04   -0.58930E-03   -0.59503E-03   720   0.704E-02 0.324E-02
CGA:   9    -0.174412832952E+04   -0.82218E-03   -0.89556E-03   720   0.105E-01-0.130E-02
CGA:  10    -0.174412865679E+04   -0.32727E-03   -0.32921E-03   720   0.332E-02 0.180E-03
CGA:  11    -0.174412874211E+04   -0.85323E-04   -0.92962E-04   720   0.124E-02 0.380E-03
CGA:  12    -0.174412883597E+04   -0.93864E-04   -0.11733E-03   720   0.317E-02-0.620E-03
CGA:  13    -0.174412893777E+04   -0.10180E-03   -0.10338E-03   720   0.731E-03 0.901E-04
CGA:  14    -0.174412895129E+04   -0.13523E-04   -0.19987E-04   720   0.271E-03 0.297E-03
CGA:  15    -0.174412896976E+04   -0.18465E-04   -0.18310E-04   720   0.408E-03 0.171E-03
CGA:  16    -0.174412891476E+04    0.54998E-04   -0.55393E-04   720   0.785E-02-0.125E-02
CGA:  17    -0.174412903033E+04   -0.11557E-03   -0.14371E-03   720   0.182E-03 0.652E-03
CGA:  18    -0.174412902936E+04    0.97619E-06   -0.31593E-05   720   0.107E-03 0.122E-03
  26 F= -.17441290E+04 E0= -.17441052E+04  d E =-.222884E-02  mag=    46.0000
       N       E                     dE             d eps       ncg     rms          ort
SDA:   1    -0.174356527261E+04    0.56376E+00    0.00000E+00   720   0.141E+01 0.000E+00
CGA:   2    -0.174390816988E+04   -0.34290E+00   -0.23137E-02   720   0.479E+01-0.250E+00
CGA:   3    -0.174401122877E+04   -0.10306E+00   -0.10963E+00   720   0.108E+01-0.153E+00
CGA:   4    -0.174404295867E+04   -0.31730E-01   -0.25102E-01   720   0.515E+00 0.240E+00
CGA:   5    -0.174407093428E+04   -0.27976E-01   -0.28032E-01   720   0.754E+00-0.300E-02
CGA:   6    -0.174410099091E+04   -0.30057E-01   -0.30201E-01   720   0.541E+00-0.854E-02
CGA:   7    -0.174411202990E+04   -0.11039E-01   -0.11527E-01   720   0.163E+00-0.174E-01
CGA:   8    -0.174411624560E+04   -0.42157E-02   -0.36583E-02   720   0.963E-01 0.249E-01
CGA:   9    -0.174411931497E+04   -0.30694E-02   -0.28683E-02   720   0.803E-01 0.964E-02
CGA:  10    -0.174412246601E+04   -0.31510E-02   -0.31144E-02   720   0.121E+00 0.630E-03
CGA:  11    -0.174412625309E+04   -0.37871E-02   -0.37864E-02   720   0.106E+00-0.220E-02
CGA:  12    -0.174412792442E+04   -0.16713E-02   -0.17230E-02   720   0.219E-01-0.419E-02
CGA:  13    -0.174412827058E+04   -0.34615E-03   -0.36353E-03   720   0.109E-01-0.520E-03
CGA:  14    -0.174412874037E+04   -0.46979E-03   -0.47302E-03   720   0.238E-01 0.175E-03
CGA:  15    -0.174412971210E+04   -0.97173E-03   -0.97069E-03   720   0.244E-01 0.119E-03
CGA:  16    -0.174413025644E+04   -0.54434E-03   -0.54154E-03   720   0.110E-01 0.167E-03
CGA:  17    -0.174413050433E+04   -0.24790E-03   -0.25895E-03   720   0.515E-02-0.765E-04
CGA:  18    -0.174413061915E+04   -0.11481E-03   -0.11663E-03   720   0.244E-02-0.314E-04
CGA:  19    -0.174413071394E+04   -0.94787E-04   -0.89809E-04   720   0.319E-02-0.289E-03
CGA:  20    -0.174413086038E+04   -0.14644E-03   -0.14551E-03   720   0.600E-02-0.534E-03
CGA:  21    -0.174413099888E+04   -0.13850E-03   -0.14032E-03   720   0.436E-02 0.745E-04
CGA:  22    -0.174413106347E+04   -0.64588E-04   -0.78984E-04   720   0.144E-02 0.441E-03
CGA:  23    -0.174413108573E+04   -0.22257E-04   -0.29095E-04   720   0.756E-03 0.218E-03
CGA:  24    -0.174413111565E+04   -0.29922E-04   -0.29007E-04   720   0.864E-03-0.575E-04
CGA:  25    -0.174413115284E+04   -0.37196E-04   -0.35177E-04   720   0.145E-02-0.516E-03
CGA:  26    -0.174413119951E+04   -0.46661E-04   -0.50863E-04   720   0.241E-03 0.325E-03
CGA:  27    -0.174413120984E+04   -0.10338E-04   -0.11374E-04   720   0.128E-03 0.121E-03
CGA:  28    -0.174413122401E+04   -0.14170E-04    0.15808E-04   720   0.912E-04 0.987E-04
CGA:  29    -0.174413123861E+04   -0.14600E-04   -0.10217E-04   720   0.619E-04 0.670E-04
CGA:  30    -0.174413124813E+04   -0.95209E-05    0.28865E-05   720   0.515E-04 0.438E-04
  27 F= -.17441312E+04 E0= -.17441075E+04  d E =-.221878E-02  mag=    46.0000
       N       E                     dE             d eps       ncg     rms          ort
SDA:   1    -0.174149226741E+04    0.26390E+01    0.00000E+00   720   0.640E+01 0.000E+00
CGA:   2    -0.174340069226E+04   -0.19084E+01   -0.71223E-01   720   0.873E+01-0.294E+00
CGA:   3    -0.174373181617E+04   -0.33112E+00   -0.33087E+00   720   0.255E+01-0.820E-01
CGA:   4    -0.174391716580E+04   -0.18535E+00   -0.18201E+00   720   0.250E+01-0.519E-01
CGA:   5    -0.174404121171E+04   -0.12405E+00   -0.12330E+00   720   0.976E+00-0.118E-01
CGA:   6    -0.174408285596E+04   -0.41644E-01   -0.42737E-01   720   0.321E+00-0.299E-02
CGA:   7    -0.174409963202E+04   -0.16776E-01   -0.16704E-01   720   0.292E+00 0.350E-02
CGA:   8    -0.174411732786E+04   -0.17696E-01   -0.17726E-01   720   0.183E+00 0.778E-03
CGA:   9    -0.174412530914E+04   -0.79813E-02   -0.78379E-02   720   0.521E-01 0.206E-02
CGA:  10    -0.174412828935E+04   -0.29802E-02   -0.28982E-02   720   0.366E-01-0.313E-02
CGA:  11    -0.174413072020E+04   -0.24309E-02   -0.24290E-02   720   0.419E-01-0.224E-03
CGA:  12    -0.174413255515E+04   -0.18350E-02   -0.19119E-02   720   0.136E-01 0.258E-02
CGA:  13    -0.174413334105E+04   -0.78590E-03   -0.75910E-03   720   0.754E-02-0.120E-02
CGA:  14    -0.174413383634E+04   -0.49529E-03   -0.49430E-03   720   0.944E-02-0.593E-03
CGA:  15    -0.174413428549E+04   -0.44915E-03   -0.46626E-03   720   0.523E-02 0.872E-03
CGA:  16    -0.174413456006E+04   -0.27456E-03   -0.27304E-03   720   0.258E-02-0.517E-04
CGA:  17    -0.174413474480E+04   -0.18475E-03   -0.18470E-03   720   0.284E-02 0.416E-04
CGA:  18    -0.174413490330E+04   -0.15849E-03   -0.16343E-03   720   0.244E-02 0.333E-03
CGA:  19    -0.174413509435E+04   -0.19105E-03   -0.19065E-03   720   0.168E-02-0.781E-03
CGA:  20    -0.174413518495E+04   -0.90594E-04   -0.90722E-04   720   0.817E-03-0.154E-04
CGA:  21    -0.174413519513E+04   -0.10181E-04   -0.22956E-04   720   0.332E-03 0.299E-03
CGA:  22    -0.174413522640E+04   -0.31271E-04   -0.31272E-04   720   0.585E-03 0.754E-04
CGA:  23    -0.174413500620E+04    0.22020E-03   -0.19176E-03   720   0.955E-02-0.208E-02
CGA:  24    -0.174413516214E+04   -0.15594E-03   -0.23514E-03   720   0.149E-02 0.147E-02
CGA:  25    -0.174413521957E+04   -0.57434E-04   -0.70471E-04   720   0.633E-03 0.371E-03
CGA:  26    -0.174413520255E+04    0.17025E-04   -0.14717E-03   720   0.873E-02-0.147E-02
CGA:  27    -0.174413532654E+04   -0.12399E-03   -0.19483E-03   720   0.799E-03 0.124E-02
CGA:  28    -0.174413535037E+04   -0.23828E-04   -0.31037E-04   720   0.213E-03 0.170E-03
CGA:  29    -0.174413407425E+04    0.12761E-02   -0.71243E-03   720   0.456E-01-0.338E-02
CGA:  30    -0.174413510434E+04   -0.10301E-02   -0.12060E-02   720   0.528E-02 0.334E-02
CGA:  31    -0.174413535981E+04   -0.25547E-03   -0.25281E-03   720   0.479E-03-0.971E-04
CGA:  32    -0.174413540208E+04   -0.42268E-04   -0.21025E-04   720   0.384E-03-0.264E-03
CGA:  33    -0.174413539831E+04    0.37685E-05   -0.71589E-05   720   0.544E-04 0.105E-03
  28 F= -.17441354E+04 E0= -.17441114E+04  d E =-.415018E-02  mag=    46.0000
       N       E                     dE             d eps       ncg     rms          ort
SDA:   1    -0.174148316789E+04    0.26522E+01    0.00000E+00   720   0.695E+01 0.000E+00
CGA:   2    -0.174247802825E+04   -0.99486E+00   -0.10138E+01   720   0.293E+02-0.360E+00
CGA:   3    -0.174344451074E+04   -0.96648E+00   -0.12354E+01   720   0.847E+01-0.435E+01
CGA:   4    -0.174370742819E+04   -0.26292E+00   -0.24613E+00   720   0.256E+01 0.314E+00
CGA:   5    -0.174387638483E+04   -0.16896E+00   -0.13532E+00   720   0.223E+01 0.438E+00
CGA:   6    -0.174401833627E+04   -0.14195E+00   -0.14345E+00   720   0.145E+01-0.356E-02
CGA:   7    -0.174406869459E+04   -0.50358E-01   -0.58242E-01   720   0.407E+00-0.115E+00
CGA:   8    -0.174408397352E+04   -0.15279E-01   -0.14662E-01   720   0.260E+00 0.125E-01
CGA:   9    -0.174410186434E+04   -0.17891E-01   -0.17951E-01   720   0.266E+00 0.329E-02
CGA:  10    -0.174411391706E+04   -0.12053E-01   -0.12282E-01   720   0.118E+00-0.315E-02
CGA:  11    -0.174411889556E+04   -0.49785E-02   -0.48178E-02   720   0.456E-01-0.268E-02
CGA:  12    -0.174412094192E+04   -0.20464E-02   -0.19720E-02   720   0.368E-01-0.877E-03
CGA:  13    -0.174412392342E+04   -0.29815E-02   -0.29860E-02   720   0.385E-01 0.955E-03
CGA:  14    -0.174412546392E+04   -0.15405E-02   -0.15470E-02   720   0.146E-01 0.242E-04
CGA:  15    -0.174412617852E+04   -0.71459E-03   -0.67237E-03   720   0.749E-02-0.116E-02
CGA:  16    -0.174412674668E+04   -0.56817E-03   -0.56820E-03   720   0.118E-01-0.703E-03
CGA:  17    -0.174412724919E+04   -0.50251E-03   -0.53671E-03   720   0.515E-02 0.108E-02
CGA:  18    -0.174412743319E+04   -0.18400E-03   -0.20594E-03   720   0.246E-02 0.507E-03
CGA:  19    -0.174412766006E+04   -0.22687E-03   -0.22875E-03   720   0.431E-02-0.312E-03
CGA:  20    -0.174412785910E+04   -0.19904E-03   -0.20224E-03   720   0.337E-02 0.134E-03
CGA:  21    -0.174412796427E+04   -0.10517E-03   -0.11566E-03   720   0.111E-02 0.262E-03
CGA:  22    -0.174412803451E+04   -0.70237E-04   -0.64945E-04   720   0.160E-02-0.251E-03
CGA:  23    -0.174412813633E+04   -0.10181E-03   -0.10960E-03   720   0.289E-02-0.558E-03
CGA:  24    -0.174412817382E+04   -0.37499E-04   -0.41107E-04   720   0.151E-02 0.564E-04
[...]
  88 F= -.17441855E+04 E0= -.17441614E+04  d E =-.173831E-03  mag=    46.0000
       N       E                     dE             d eps       ncg     rms          ort
SDA:   1    -0.174417627690E+04    0.91954E-02    0.00000E+00   720   0.236E+00 0.000E+00
CGA:   2    -0.174418219561E+04   -0.59187E-02   -0.59541E-02   720   0.969E-02-0.149E-03
CGA:   3    -0.174418353233E+04   -0.13367E-02   -0.12975E-02   720   0.174E-01 0.470E-03
CGA:   4    -0.174418452719E+04   -0.99486E-03   -0.99196E-03   720   0.821E-02-0.113E-02
CGA:   5    -0.174418484020E+04   -0.31301E-03   -0.33094E-03   720   0.360E-02 0.128E-02
CGA:   6    -0.174418517984E+04   -0.33965E-03   -0.34122E-03   720   0.200E-02-0.665E-04
CGA:   7    -0.174418526116E+04   -0.81315E-04   -0.20444E-03   720   0.846E-02-0.267E-02
CGA:   8    -0.174418535691E+04   -0.95751E-04   -0.16554E-03   720   0.735E-03 0.172E-02
CGA:   9    -0.174418535837E+04   -0.14595E-05   -0.17372E-04   720   0.370E-03 0.417E-03
CGA:  10    -0.174418511875E+04    0.23962E-03   -0.12744E-03   720   0.985E-02-0.122E-02
CGA:  11    -0.174418527661E+04   -0.15787E-03   -0.23235E-03   720   0.126E-02 0.984E-03
CGA:  12    -0.174418538925E+04   -0.11264E-03   -0.11043E-03   720   0.498E-03-0.155E-03
CGA:  13    -0.174418542839E+04   -0.39135E-04   -0.18715E-04   720   0.346E-03-0.382E-03
CGA:  14    -0.174418542132E+04    0.70647E-05   -0.50659E-05   720   0.830E-04 0.152E-03
  89 F= -.17441854E+04 E0= -.17441613E+04  d E =0.577030E-04  mag=    46.0000
       N       E                     dE             d eps       ncg     rms          ort
SDA:   1    -0.174418441431E+04    0.10141E-02    0.00000E+00   720   0.712E-02 0.000E+00
CGA:   2    -0.174418487500E+04   -0.46069E-03   -0.44478E-03   720   0.602E-02-0.800E-03
CGA:   3    -0.174418510484E+04   -0.22984E-03   -0.24927E-03   720   0.221E-02 0.420E-03
CGA:   4    -0.174418527482E+04   -0.16999E-03   -0.16818E-03   720   0.254E-02-0.152E-03
CGA:   5    -0.174418543220E+04   -0.15738E-03   -0.15818E-03   720   0.148E-02 0.474E-04
CGA:   6    -0.174418546964E+04   -0.37437E-04   -0.51217E-04   720   0.360E-03 0.285E-03
CGA:   7    -0.174418550367E+04   -0.34033E-04   -0.37573E-04   720   0.106E-02-0.435E-03
CGA:   8    -0.174418552924E+04   -0.25563E-04   -0.30847E-04   720   0.115E-03 0.109E-03
CGA:   9    -0.174418552975E+04   -0.51537E-06   -0.32087E-05   720   0.379E-04 0.519E-04
  90 F= -.17441855E+04 E0= -.17441614E+04  d E =-.108432E-03  mag=    46.0000
       N       E                     dE             d eps       ncg     rms          ort
SDA:   1    -0.174352619934E+04    0.65933E+00    0.00000E+00   720   0.228E+01 0.000E+00
CGA:   2    -0.174367064511E+04   -0.14445E+00   -0.14347E+00   720   0.346E+01-0.183E-01
CGA:   3    -0.174398981967E+04   -0.31917E+00   -0.31825E+00   720   0.133E+01 0.289E-01
CGA:   4    -0.174405064859E+04   -0.60829E-01   -0.61462E-01   720   0.813E+00-0.251E-01
CGA:   5    -0.174411040819E+04   -0.59760E-01   -0.59734E-01   720   0.671E+00 0.103E-01
CGA:   6    -0.174414046814E+04   -0.30060E-01   -0.30666E-01   720   0.126E+00-0.601E-02
CGA:   7    -0.174414724704E+04   -0.67789E-02   -0.67756E-02   720   0.838E-01 0.687E-03
CGA:   8    -0.174415426947E+04   -0.70224E-02   -0.70795E-02   720   0.719E-01-0.421E-02
CGA:   9    -0.174415748874E+04   -0.32193E-02   -0.32005E-02   720   0.253E-01-0.669E-03
CGA:  10    -0.174415838840E+04   -0.89966E-03   -0.95144E-03   720   0.850E-02 0.174E-02
CGA:  11    -0.174415939422E+04   -0.10058E-02   -0.10327E-02   720   0.164E-01-0.599E-03
CGA:  12    -0.174416025342E+04   -0.85920E-03   -0.85572E-03   720   0.531E-02-0.260E-03
CGA:  13    -0.174416040822E+04   -0.15481E-03   -0.16979E-03   720   0.229E-02 0.374E-03
CGA:  14    -0.174416061761E+04   -0.20938E-03   -0.20568E-03   720   0.291E-02 0.229E-03
CGA:  15    -0.174416086239E+04   -0.24478E-03   -0.24678E-03   720   0.410E-02-0.238E-03
CGA:  16    -0.174416098484E+04   -0.12245E-03   -0.12928E-03   720   0.120E-02 0.209E-03
CGA:  17    -0.174416102297E+04   -0.38135E-04   -0.44616E-04   720   0.898E-03 0.205E-03
CGA:  18    -0.174416108795E+04   -0.64979E-04   -0.64773E-04   720   0.115E-02-0.522E-04
CGA:  19    -0.174416117028E+04   -0.82328E-04   -0.12553E-03   720   0.273E-02-0.847E-03
CGA:  20    -0.174416122492E+04   -0.54640E-04   -0.73320E-04   720   0.635E-03 0.456E-03
CGA:  21    -0.174416125402E+04   -0.29106E-04   -0.32938E-04   720   0.266E-03 0.184E-03
CGA:  22    -0.174416128020E+04   -0.26180E-04   -0.37757E-04   720   0.998E-03-0.255E-03
CGA:  23    -0.174416129225E+04   -0.12050E-04   -0.21365E-04   720   0.151E-03 0.198E-03
CGA:  24    -0.174416129912E+04   -0.68620E-05   -0.76116E-05   720   0.113E-03 0.330E-04
CGA:  25    -0.174416132023E+04   -0.21116E-04    0.21578E-04   720   0.181E-03-0.296E-04
CGA:  26    -0.174416133773E+04   -0.17501E-04    0.15981E-03   720   0.315E-03-0.329E-04
CGA:  27    -0.174416134196E+04   -0.42234E-05   -0.70651E-05   720   0.267E-03 0.782E-04
  91 F= -.17441613E+04 E0= -.17441377E+04  d E =0.241878E-01  mag=    46.0000
       N       E                     dE             d eps       ncg     rms          ort
SDA:   1    -0.174369260480E+04    0.46873E+00    0.00000E+00   720   0.187E+01 0.000E+00
CGA:   2    -0.174381207136E+04   -0.11947E+00   -0.11886E+00   720   0.243E+01 0.771E-01
CGA:   3    -0.174404092523E+04   -0.22885E+00   -0.23311E+00   720   0.146E+01-0.114E+00
CGA:   4    -0.174409598439E+04   -0.55059E-01   -0.57232E-01   720   0.551E+00 0.150E-02
CGA:   5    -0.174415011673E+04   -0.54132E-01   -0.53896E-01   720   0.438E+00 0.536E-02
CGA:   6    -0.174416819832E+04   -0.18082E-01   -0.18214E-01   720   0.126E+00 0.293E-02
CGA:   7    -0.174417564596E+04   -0.74476E-02   -0.74419E-02   720   0.654E-01-0.216E-02
CGA:   8    -0.174417936957E+04   -0.37236E-02   -0.37324E-02   720   0.418E-01 0.253E-02
CGA:   9    -0.174418251667E+04   -0.31471E-02   -0.31345E-02   720   0.207E-01 0.110E-02
CGA:  10    -0.174418349550E+04   -0.97884E-03   -0.97167E-03   720   0.853E-02-0.597E-03
CGA:  11    -0.174418410694E+04   -0.61144E-03   -0.59936E-03   720   0.728E-02 0.104E-02
CGA:  12    -0.174418465012E+04   -0.54318E-03   -0.54512E-03   720   0.472E-02-0.382E-03
CGA:  13    -0.174418492761E+04   -0.27749E-03   -0.27747E-03   720   0.232E-02 0.392E-04
CGA:  14    -0.174418511296E+04   -0.18535E-03   -0.19513E-03   720   0.331E-02-0.454E-03
CGA:  15    -0.174418524656E+04   -0.13360E-03   -0.13353E-03   720   0.123E-02-0.558E-05
CGA:  16    -0.174418531847E+04   -0.71911E-04   -0.72762E-04   720   0.684E-03 0.291E-03
CGA:  17    -0.174418537955E+04   -0.61077E-04   -0.10374E-03   720   0.388E-02-0.707E-03
CGA:  18    -0.174418544877E+04   -0.69220E-04   -0.83518E-04   720   0.388E-03 0.348E-03
CGA:  19    -0.174418546079E+04   -0.12018E-04   -0.15987E-04   720   0.178E-03 0.158E-03
CGA:  20    -0.174418547484E+04   -0.14053E-04   -0.14103E-04   720   0.271E-03 0.912E-05
CGA:  21    -0.174418549623E+04   -0.21397E-04   -0.21029E-04   720   0.432E-03 0.293E-04
CGA:  22    -0.174418551466E+04   -0.18422E-04   -0.19605E-04   720   0.335E-03 0.557E-04
CGA:  23    -0.174418553139E+04   -0.16737E-04   -0.15884E-04   720   0.118E-03-0.446E-04
CGA:  24    -0.174418551645E+04    0.14945E-04   -0.18618E-04   720   0.161E-02-0.274E-03
CGA:  25    -0.174418554297E+04   -0.26525E-04   -0.36810E-04   720   0.202E-03 0.233E-03
CGA:  26    -0.174418555479E+04   -0.11816E-04   -0.11749E-04   720   0.100E-03-0.468E-05
CGA:  27    -0.174418551416E+04    0.40634E-04   -0.21735E-04   720   0.293E-02-0.394E-03
CGA:  28    -0.174418556097E+04   -0.46812E-04   -0.64355E-04   720   0.208E-03 0.345E-03
CGA:  29    -0.174418557265E+04   -0.11681E-04   -0.11015E-04   720   0.774E-04-0.311E-04
CGA:  30    -0.174418555196E+04    0.20688E-04   -0.10763E-04   720   0.159E-02-0.328E-03
CGA:  31    -0.174418557166E+04   -0.19699E-04   -0.34138E-04   720   0.128E-03 0.284E-03
CGA:  32    -0.174418557455E+04   -0.28907E-05   -0.42925E-05   720   0.393E-04 0.341E-04
  92 F= -.17441856E+04 E0= -.17441615E+04  d E =-.242326E-01  mag=    46.0000
       N       E                     dE             d eps       ncg     rms          ort
SDA:   1    -0.174417788777E+04    0.76839E-02    0.00000E+00   720   0.973E-01 0.000E+00
CGA:   2    -0.174418101126E+04   -0.31235E-02   -0.29971E-02   720   0.274E-01-0.544E-02
CGA:   3    -0.174418252006E+04   -0.15088E-02   -0.15256E-02   720   0.110E-01 0.238E-02
CGA:   4    -0.174418402623E+04   -0.15062E-02   -0.14749E-02   720   0.202E-01 0.536E-03
CGA:   5    -0.174418496283E+04   -0.93660E-03   -0.90890E-03   720   0.330E-02-0.106E-02
CGA:   6    -0.174418513179E+04   -0.16895E-03   -0.17755E-03   720   0.237E-02 0.766E-03
CGA:   7    -0.174418539643E+04   -0.26464E-03   -0.31341E-03   720   0.388E-02-0.123E-02
CGA:   8    -0.174418545298E+04   -0.56548E-04   -0.84217E-04   720   0.367E-03 0.609E-03
CGA:   9    -0.174418546651E+04   -0.13530E-04   -0.16349E-04   720   0.228E-03 0.997E-04
CGA:  10    -0.174418529110E+04    0.17541E-03   -0.84051E-04   720   0.735E-02-0.115E-02
CGA:  11    -0.174418545459E+04   -0.16349E-03   -0.20440E-03   720   0.125E-02 0.932E-03
CGA:  12    -0.174418551675E+04   -0.62165E-04   -0.61342E-04   720   0.141E-03-0.225E-04
CGA:  13    -0.174418552471E+04   -0.79591E-05   -0.15397E-04   720   0.816E-03-0.195E-03
CGA:  14    -0.174418552980E+04   -0.50853E-05   -0.15497E-04   720   0.626E-04 0.188E-03
  93 F= -.17441855E+04 E0= -.17441614E+04  d E =0.447512E-04  mag=    46.0000
       N       E                     dE             d eps       ncg     rms          ort
SDA:   1    -0.174418446832E+04    0.10564E-02    0.00000E+00   720   0.840E-02 0.000E+00
CGA:   2    -0.174418481244E+04   -0.34412E-03   -0.36051E-03   720   0.389E-02 0.583E-03
CGA:   3    -0.174418503424E+04   -0.22180E-03   -0.22348E-03   720   0.289E-02 0.125E-03
CGA:   4    -0.174418535242E+04   -0.31818E-03   -0.31102E-03   720   0.244E-02 0.191E-03
CGA:   5    -0.174418546859E+04   -0.11617E-03   -0.11631E-03   720   0.670E-03 0.219E-05
CGA:   6    -0.174418551877E+04   -0.50172E-04   -0.51756E-04   720   0.623E-03-0.167E-03
CGA:   7    -0.174418554192E+04   -0.23153E-04   -0.25065E-04   720   0.257E-03 0.130E-03
CGA:   8    -0.174418556323E+04   -0.21308E-04   -0.21577E-04   720   0.208E-03-0.138E-03
CGA:   9    -0.174418556513E+04   -0.19089E-05   -0.47447E-05   720   0.391E-04 0.640E-04
  94 F= -.17441856E+04 E0= -.17441615E+04  d E =-.353362E-04  mag=    46.0000
       N       E                     dE             d eps       ncg     rms          ort
SDA:   1    -0.174417988417E+04    0.56791E-02    0.00000E+00   720   0.297E-01 0.000E+00
CGA:   2    -0.174418104892E+04   -0.11647E-02   -0.11647E-02   720   0.171E-01 0.508E-03
CGA:   3    -0.174418415783E+04   -0.31089E-02   -0.30697E-02   720   0.135E-01 0.349E-03
CGA:   4    -0.174418468955E+04   -0.53172E-03   -0.53680E-03   720   0.621E-02 0.125E-03
CGA:   5    -0.174418501962E+04   -0.33006E-03   -0.33522E-03   720   0.236E-02 0.405E-03
CGA:   6    -0.174418530563E+04   -0.28602E-03   -0.34677E-03   720   0.294E-02-0.840E-03
CGA:   7    -0.174418536450E+04   -0.58866E-04   -0.61825E-04   720   0.974E-03 0.858E-04
CGA:   8    -0.174418538045E+04   -0.15951E-04   -0.25936E-04   720   0.424E-03 0.242E-03
CGA:   9    -0.174418539213E+04   -0.11682E-04   -0.17556E-04   720   0.332E-03 0.182E-03
CGA:  10    -0.174418542260E+04   -0.30467E-04   -0.30470E-04   720   0.343E-03-0.156E-04
CGA:  11    -0.174418544244E+04   -0.19844E-04   -0.17388E-04   720   0.216E-03-0.229E-03
CGA:  12    -0.174418544405E+04   -0.16129E-05   -0.58389E-05   720   0.830E-04 0.116E-03
  95 F= -.17441854E+04 E0= -.17441613E+04  d E =0.121081E-03  mag=    46.0000
       N       E                     dE             d eps       ncg     rms          ort
SDA:   1    -0.174416365959E+04    0.21783E-01    0.00000E+00   720   0.702E-01 0.000E+00
CGA:   2    -0.174417006640E+04   -0.64068E-02   -0.64714E-02   720   0.124E+00-0.183E-02
CGA:   3    -0.174417841341E+04   -0.83470E-02   -0.83354E-02   720   0.746E-01 0.295E-02
CGA:   4    -0.174418201233E+04   -0.35989E-02   -0.35866E-02   720   0.247E-01-0.272E-02
CGA:   5    -0.174418355143E+04   -0.15391E-02   -0.15386E-02   720   0.150E-01 0.832E-03
CGA:   6    -0.174418443726E+04   -0.88582E-03   -0.89207E-03   720   0.666E-02 0.101E-02
CGA:   7    -0.174418494065E+04   -0.50340E-03   -0.53797E-03   720   0.537E-02-0.291E-02
CGA:   8    -0.174418501797E+04   -0.77320E-04   -0.97394E-04   720   0.252E-02 0.610E-03
CGA:   9    -0.174418506844E+04   -0.50467E-04   -0.78600E-04   720   0.114E-02 0.825E-03
CGA:  10    -0.174418512382E+04   -0.55385E-04   -0.58122E-04   720   0.691E-03 0.120E-03
CGA:  11    -0.174418505237E+04    0.71459E-04   -0.15754E-03   720   0.663E-02-0.156E-02
CGA:  12    -0.174418516219E+04   -0.10982E-03   -0.16237E-03   720   0.882E-03 0.126E-02
CGA:  13    -0.174418519861E+04   -0.36421E-04   -0.40685E-04   720   0.326E-03 0.168E-03
CGA:  14    -0.174418444367E+04    0.75494E-03   -0.41039E-03   720   0.277E-01-0.265E-02
CGA:  15    -0.174418502921E+04   -0.58554E-03   -0.71969E-03   720   0.285E-02 0.233E-02
CGA:  16    -0.174418517673E+04   -0.14752E-03   -0.14535E-03   720   0.610E-03-0.625E-04
CGA:  17    -0.174418523058E+04   -0.53849E-04   -0.43689E-04   720   0.981E-03-0.289E-03
CGA:  18    -0.174418525487E+04   -0.24288E-04   -0.26038E-04   720   0.714E-03 0.301E-04
CGA:  19    -0.174418526257E+04   -0.77023E-05   -0.16175E-04   720   0.111E-03 0.103E-03
  96 F= -.17441853E+04 E0= -.17441611E+04  d E =0.181482E-03  mag=    46.0000
       N       E                     dE             d eps       ncg     rms          ort
SDA:   1    -0.174388737650E+04    0.29788E+00    0.00000E+00   720   0.860E+00 0.000E+00
CGA:   2    -0.174398475610E+04   -0.97380E-01   -0.97543E-01   720   0.226E+01-0.178E-02
CGA:   3    -0.174411028042E+04   -0.12552E+00   -0.12683E+00   720   0.489E+00-0.226E-01
CGA:   4    -0.174414069937E+04   -0.30419E-01   -0.30881E-01   720   0.454E+00-0.285E-03
CGA:   5    -0.174416733584E+04   -0.26636E-01   -0.26749E-01   720   0.169E+00 0.527E-02
CGA:   6    -0.174417577234E+04   -0.84365E-02   -0.82850E-02   720   0.665E-01-0.717E-02
CGA:   7    -0.174417900300E+04   -0.32307E-02   -0.32682E-02   720   0.266E-01 0.598E-03
CGA:   8    -0.174418153960E+04   -0.25366E-02   -0.25458E-02   720   0.249E-01-0.113E-02
CGA:   9    -0.174418273412E+04   -0.11945E-02   -0.12065E-02   720   0.638E-02 0.425E-03
CGA:  10    -0.174418314698E+04   -0.41285E-03   -0.39288E-03   720   0.462E-02-0.885E-03
CGA:  11    -0.174418343562E+04   -0.28865E-03   -0.29350E-03   720   0.401E-02 0.430E-03
CGA:  12    -0.174418360506E+04   -0.16944E-03   -0.18939E-03   720   0.799E-03 0.475E-03
CGA:  13    -0.174418370165E+04   -0.96592E-04   -0.12478E-03   720   0.321E-02-0.493E-03
CGA:  14    -0.174418374011E+04   -0.38461E-04   -0.74612E-04   720   0.371E-03 0.596E-03
CGA:  15    -0.174418375000E+04   -0.98830E-05   -0.15220E-04   720   0.227E-03 0.114E-03
CGA:  16    -0.174418372833E+04    0.21672E-04   -0.83778E-04   720   0.513E-02-0.518E-03
CGA:  17    -0.174418382790E+04   -0.99577E-04   -0.13127E-03   720   0.512E-03 0.514E-03
CGA:  18    -0.174418385561E+04   -0.27713E-04   -0.23898E-04   720   0.143E-03-0.816E-04
CGA:  19    -0.174418386412E+04   -0.85097E-05   -0.88435E-05   720   0.136E-03 0.314E-04
  97 F= -.17441839E+04 E0= -.17441597E+04  d E =0.139845E-02  mag=    46.0000
       N       E                     dE             d eps       ncg     rms          ort
SDA:   1    -0.174412683656E+04    0.57019E-01    0.00000E+00   720   0.247E+00 0.000E+00
CGA:   2    -0.174414107673E+04   -0.14240E-01   -0.14356E-01   720   0.222E+00 0.947E-02
CGA:   3    -0.174416207913E+04   -0.21002E-01   -0.21093E-01   720   0.236E+00-0.771E-02
CGA:   4    -0.174417190890E+04   -0.98298E-02   -0.98715E-02   720   0.632E-01-0.325E-03
CGA:   5    -0.174417755485E+04   -0.56460E-02   -0.56303E-02   720   0.690E-01 0.158E-02
CGA:   6    -0.174418122183E+04   -0.36670E-02   -0.35844E-02   720   0.246E-01-0.333E-02
CGA:   7    -0.174418211460E+04   -0.89277E-03   -0.94402E-03   720   0.555E-02 0.136E-02
CGA:   8    -0.174418263729E+04   -0.52269E-03   -0.53994E-03   720   0.799E-02-0.108E-02
CGA:   9    -0.174418307799E+04   -0.44071E-03   -0.43887E-03   720   0.324E-02-0.189E-03
CGA:  10    -0.174418319658E+04   -0.11859E-03   -0.12367E-03   720   0.115E-02 0.727E-04
CGA:  11    -0.174418329287E+04   -0.96288E-04   -0.11725E-03   720   0.284E-02-0.841E-03
CGA:  12    -0.174418335250E+04   -0.59635E-04   -0.84287E-04   720   0.581E-03 0.541E-03
CGA:  13    -0.174418338119E+04   -0.28689E-04   -0.31135E-04   720   0.258E-03 0.931E-04
CGA:  14    -0.174418340807E+04   -0.26879E-04   -0.26192E-04   720   0.417E-03 0.464E-04
CGA:  15    -0.174418342922E+04   -0.21149E-04   -0.24604E-04   720   0.158E-03 0.148E-03
CGA:  16    -0.174418343878E+04   -0.95662E-05   -0.26971E-04   720   0.103E-02-0.322E-03
CGA:  17    -0.174418345885E+04   -0.20066E-04   -0.27134E-04   720   0.129E-03 0.150E-03
CGA:  18    -0.174418346171E+04   -0.28563E-05   -0.48903E-05   720   0.544E-04 0.527E-04
  98 F= -.17441835E+04 E0= -.17441594E+04  d E =0.402417E-03  mag=    46.0000
       N       E                     dE             d eps       ncg     rms          ort
SDA:   1    -0.174412581031E+04    0.57649E-01    0.00000E+00   720   0.209E+00 0.000E+00
CGA:   2    -0.174413878292E+04   -0.12973E-01   -0.12946E-01   720   0.307E+00-0.438E-02
CGA:   3    -0.174416804387E+04   -0.29261E-01   -0.29425E-01   720   0.206E+00-0.447E-02
CGA:   4    -0.174417696569E+04   -0.89218E-02   -0.88651E-02   720   0.624E-01-0.160E-04
CGA:   5    -0.174418096616E+04   -0.40005E-02   -0.40138E-02   720   0.329E-01 0.405E-03
CGA:   6    -0.174418336696E+04   -0.24008E-02   -0.23951E-02   720   0.208E-01 0.187E-02
CGA:   7    -0.174418424399E+04   -0.87702E-03   -0.89420E-03   720   0.354E-02 0.945E-03
CGA:   8    -0.174418444770E+04   -0.20371E-03   -0.21376E-03   720   0.309E-02 0.976E-03
CGA:   9    -0.174418482241E+04   -0.37471E-03   -0.37805E-03   720   0.219E-02-0.121E-03
CGA:  10    -0.174418490033E+04   -0.77923E-04   -0.81876E-04   720   0.494E-03 0.124E-03
CGA:  11    -0.174418491644E+04   -0.16109E-04   -0.21996E-04   720   0.279E-03 0.233E-03
CGA:  12    -0.174418496518E+04   -0.48735E-04   -0.64492E-04   720   0.111E-02-0.173E-03
CGA:  13    -0.174418500175E+04   -0.36574E-04   -0.35991E-04   720   0.160E-03-0.160E-04
CGA:  14    -0.174418497024E+04    0.31506E-04   -0.29831E-04   720   0.288E-02-0.506E-03
CGA:  15    -0.174418502530E+04   -0.55051E-04   -0.67586E-04   720   0.309E-03 0.239E-03
CGA:  16    -0.174418502932E+04   -0.40219E-05   -0.90751E-05   720   0.586E-04 0.113E-03
  99 F= -.17441850E+04 E0= -.17441609E+04  d E =-.156761E-02  mag=    46.0000
       N       E                     dE             d eps       ncg     rms          ort
SDA:   1    -0.174418151466E+04    0.35106E-02    0.00000E+00   720   0.231E-01 0.000E+00
CGA:   2    -0.174418235950E+04   -0.84484E-03   -0.87820E-03   720   0.154E-01 0.155E-02
CGA:   3    -0.174418394515E+04   -0.15856E-02   -0.15786E-02   720   0.768E-02 0.217E-03
CGA:   4    -0.174418449440E+04   -0.54926E-03   -0.55499E-03   720   0.804E-02-0.164E-02
CGA:   5    -0.174418488511E+04   -0.39071E-03   -0.39544E-03   720   0.433E-02 0.884E-03
CGA:   6    -0.174418507388E+04   -0.18877E-03   -0.20509E-03   720   0.117E-02 0.641E-03
CGA:   7    -0.174418517502E+04   -0.10114E-03   -0.10114E-03   720   0.106E-02-0.203E-05
CGA:   8    -0.174418522351E+04   -0.48487E-04   -0.49460E-04   720   0.376E-03 0.478E-04
CGA:   9    -0.174418524758E+04   -0.24077E-04   -0.23804E-04   720   0.237E-03-0.527E-04
CGA:  10    -0.174418525438E+04   -0.68003E-05   -0.78244E-05   720   0.125E-03 0.376E-04
 100 F= -.17441853E+04 E0= -.17441611E+04  d E =-.225067E-03  mag=    46.0000
