       N       E                     dE             d eps       ncg     rms          rms(c)
DAV:   1     0.257145448691E+04    0.25715E+04   -0.12907E+05 35416   0.148E+03
DAV:   2     0.622876816638E+01   -0.25652E+04   -0.23971E+04 37220   0.407E+02
DAV:   3    -0.261835108924E+03   -0.26806E+03   -0.26451E+03 39280   0.147E+02
DAV:   4    -0.269606541194E+03   -0.77714E+01   -0.76702E+01 44784   0.247E+01
DAV:   5    -0.269951882275E+03   -0.34534E+00   -0.34455E+00 51424   0.421E+00    0.117E+02
DAV:   6    -0.228450440205E+03    0.41501E+02   -0.18027E+02 43108   0.435E+01    0.717E+01
DAV:   7    -0.276002032367E+03   -0.47552E+02   -0.12493E+02 41636   0.712E+01    0.962E+01
DAV:   8    -0.238666748492E+03    0.37335E+02   -0.63238E+01 38088   0.678E+01    0.571E+01
DAV:   9    -0.247977758321E+03   -0.93110E+01   -0.11771E+02 41584   0.327E+01    0.605E+01
DAV:  10    -0.237085154564E+03    0.10893E+02   -0.79475E+01 39184   0.261E+01    0.618E+01
DAV:  11    -0.228100050990E+03    0.89851E+01   -0.62615E+00 40064   0.175E+01    0.208E+01
DAV:  12    -0.228970466002E+03   -0.87042E+00   -0.73401E+00 43800   0.747E+00    0.218E+01
DAV:  13    -0.229046247839E+03   -0.75782E-01   -0.27501E-01 38632   0.196E+00    0.214E+01
DAV:  14    -0.229028973763E+03    0.17274E-01   -0.96785E-02 44376   0.994E-01    0.203E+01
DAV:  15    -0.229298777682E+03   -0.26980E+00   -0.28506E+00 45216   0.254E+00    0.149E+01
DAV:  16    -0.230883959043E+03   -0.15852E+01   -0.72765E+00 41872   0.400E+00    0.222E+01
DAV:  17    -0.231133615311E+03   -0.24966E+00   -0.19020E-01 36944   0.164E+00    0.226E+01
DAV:  18    -0.231163456446E+03   -0.29841E-01   -0.34943E-02 43952   0.715E-01    0.219E+01
DAV:  19    -0.231282709019E+03   -0.11925E+00   -0.12898E+00 47992   0.257E+00    0.184E+01
DAV:  20    -0.232091943667E+03   -0.80923E+00   -0.18143E+00 44632   0.174E+00    0.169E+01
DAV:  21    -0.232111393643E+03   -0.19450E-01   -0.10231E-01 42720   0.187E+00    0.162E+01
DAV:  22    -0.232246018672E+03   -0.13463E+00   -0.65345E-02 48120   0.716E-01    0.149E+01
DAV:  23    -0.232654805603E+03   -0.40879E+00   -0.36709E+00 44304   0.620E+00    0.148E+01
DAV:  24    -0.232840532450E+03   -0.18573E+00   -0.22215E-01 38128   0.273E+00    0.938E+00
DAV:  25    -0.232843993702E+03   -0.34613E-02   -0.82352E-02 43696   0.114E+00    0.893E+00
DAV:  26    -0.232939976362E+03   -0.95983E-01   -0.27945E-02 40616   0.972E-01    0.828E+00
DAV:  27    -0.233077138401E+03   -0.13716E+00   -0.40525E-02 47832   0.114E+00    0.731E+00
DAV:  28    -0.233128011131E+03   -0.50873E-01   -0.48644E-02 46120   0.132E+00    0.697E+00
DAV:  29    -0.233111945040E+03    0.16066E-01   -0.28536E-02 44456   0.124E+00    0.646E+00
DAV:  30    -0.233072813832E+03    0.39131E-01   -0.28435E-02 46560   0.114E+00    0.571E+00
DAV:  31    -0.233035532778E+03    0.37281E-01   -0.19502E-02 47968   0.960E-01    0.509E+00
DAV:  32    -0.233012978493E+03    0.22554E-01   -0.14055E-02 48048   0.845E-01    0.447E+00
DAV:  33    -0.233000305013E+03    0.12673E-01   -0.10854E-02 49672   0.696E-01    0.396E+00
DAV:  34    -0.233010052758E+03   -0.97477E-02   -0.10617E-02 43712   0.701E-01    0.300E+00
DAV:  35    -0.233019515239E+03   -0.94625E-02   -0.53075E-03 40560   0.233E-01    0.303E+00
DAV:  36    -0.233043499924E+03   -0.23985E-01   -0.26536E-03 46600   0.355E-01    0.893E+00
DAV:  37    -0.233081544508E+03   -0.38045E-01   -0.74796E-03 34740   0.420E-01    0.152E+01
DAV:  38    -0.233044752441E+03    0.36792E-01   -0.60608E-03 38752   0.391E-01    0.158E+01
DAV:  39    -0.233025083854E+03    0.19669E-01   -0.98179E-04 41120   0.124E-01    0.159E+01
DAV:  40    -0.233020034874E+03    0.50490E-02   -0.82793E-05 34888   0.276E-02    0.159E+01
DAV:  41    -0.233018318734E+03    0.17161E-02   -0.17003E-05 27136   0.141E-02    0.159E+01
DAV:  42    -0.233012434367E+03    0.58844E-02   -0.18401E-05 27736   0.308E-02    0.158E+01
DAV:  43    -0.233003865095E+03    0.85693E-02   -0.72499E-05 37808   0.502E-02    0.155E+01
DAV:  44    -0.232949002873E+03    0.54862E-01   -0.34664E-03 47760   0.410E-01    0.109E+01
DAV:  45    -0.232974853773E+03   -0.25851E-01   -0.10745E-02 44200   0.464E-01    0.199E+00
DAV:  46    -0.233047617245E+03   -0.72763E-01   -0.20549E-02 35248   0.662E-01    0.232E+00
DAV:  47    -0.233055618773E+03   -0.80015E-02   -0.50990E-03 40976   0.355E-01    0.224E+00
DAV:  48    -0.233051849640E+03    0.37691E-02   -0.23671E-03 45588   0.247E-01    0.182E+00
DAV:  49    -0.233049247032E+03    0.26026E-02   -0.33248E-03 47912   0.328E-01    0.100E+00
DAV:  50    -0.233054541117E+03   -0.52941E-02   -0.35144E-03 41400   0.189E-01    0.323E+00
DAV:  51    -0.233053103688E+03    0.14374E-02   -0.17092E-03 34480   0.201E-01    0.373E+00
DAV:  52    -0.233047400550E+03    0.57031E-02   -0.31119E-03 45456   0.222E-01    0.244E+00
DAV:  53    -0.233048218043E+03   -0.81749E-03   -0.13121E-03 44484   0.160E-01    0.328E-01
DAV:  54    -0.233053388039E+03   -0.51700E-02   -0.16507E-03 34376   0.158E-01    0.114E+00
DAV:  55    -0.233053471187E+03   -0.83148E-04   -0.47069E-04 39352   0.907E-02    0.131E+00
DAV:  56    -0.233052024508E+03    0.14467E-02   -0.20011E-04 38984   0.925E-02    0.957E-01
DAV:  57    -0.233052207685E+03   -0.18318E-03   -0.87423E-05 37320   0.416E-02    0.896E-01
DAV:  58    -0.233052029941E+03    0.17774E-03   -0.46998E-05 30040   0.340E-02    0.720E-01
DAV:  59    -0.233051959996E+03    0.69945E-04   -0.49963E-05 36256   0.274E-02    0.540E-01
DAV:  60    -0.233051941386E+03    0.18610E-04   -0.25573E-05 25144   0.216E-02    0.347E-01
DAV:  61    -0.233051988442E+03   -0.47056E-04   -0.16256E-05 25200   0.186E-02    0.241E-01
DAV:  62    -0.233052020948E+03   -0.32507E-04   -0.12793E-05 26024   0.176E-02    0.195E-01
DAV:  63    -0.233052014126E+03    0.68228E-05   -0.13117E-05 24736   0.159E-02
   1 F= -.23305201E+03 E0= -.23304484E+03  d E =-.233052E+03  mag=     8.2482
       N       E                     dE             d eps       ncg     rms          rms(c)
DAV:   1    -0.233066276181E+03   -0.14255E-01   -0.58110E-03 35140   0.260E-01    0.628E-02
DAV:   2    -0.233066469345E+03   -0.19316E-03   -0.36664E-04 38120   0.809E-02    0.535E-01
DAV:   3    -0.233066226044E+03    0.24330E-03   -0.10465E-04 35184   0.687E-02    0.197E-01
DAV:   4    -0.233066274963E+03   -0.48920E-04   -0.26323E-05 27280   0.243E-02    0.312E-02
DAV:   5    -0.233066307233E+03   -0.32270E-04   -0.22351E-05 23152   0.220E-02    0.820E-02
DAV:   6    -0.233066303147E+03    0.40858E-05   -0.88200E-06 19920   0.157E-02
   2 F= -.23306630E+03 E0= -.23305904E+03  d E =-.142890E-01  mag=     8.2475
       N       E                     dE             d eps       ncg     rms          rms(c)
DAV:   1    -0.233482957806E+03   -0.41665E+00   -0.76790E+00 34840   0.947E+00    0.165E+00
DAV:   2    -0.233534272515E+03   -0.51315E-01   -0.42136E-01 36880   0.194E+00    0.766E+00
DAV:   3    -0.233497585607E+03    0.36687E-01   -0.36517E-02 45808   0.106E+00    0.822E-01
DAV:   4    -0.233516544183E+03   -0.18959E-01   -0.11185E-02 40968   0.474E-01    0.139E+00
DAV:   5    -0.233516139272E+03    0.40491E-03   -0.67019E-03 43816   0.399E-01    0.123E+00
DAV:   6    -0.233514342829E+03    0.17964E-02   -0.30796E-03 45880   0.273E-01    0.562E-01
DAV:   7    -0.233514809287E+03   -0.46646E-03   -0.16785E-03 49072   0.160E-01    0.596E-01
DAV:   8    -0.233515146388E+03   -0.33710E-03   -0.39320E-04 36568   0.895E-02    0.876E-01
DAV:   9    -0.233514484050E+03    0.66234E-03   -0.22610E-04 43744   0.773E-02    0.407E-01
DAV:  10    -0.233514669286E+03   -0.18524E-03   -0.19673E-04 38576   0.434E-02    0.745E-02
DAV:  11    -0.233514809636E+03   -0.14035E-03   -0.46257E-05 30816   0.407E-02    0.660E-02
DAV:  12    -0.233514810356E+03   -0.72052E-06   -0.20905E-05 28080   0.223E-02
   3 F= -.23351481E+03 E0= -.23350812E+03  d E =-.448507E+00  mag=     8.2136
       N       E                     dE             d eps       ncg     rms          rms(c)
DAV:   1    -0.233945473522E+03   -0.43066E+00   -0.33047E+01 35024   0.204E+01    0.277E+00
DAV:   2    -0.234128712923E+03   -0.18324E+00   -0.20766E+00 36504   0.407E+00    0.418E+00
DAV:   3    -0.234137710476E+03   -0.89976E-02   -0.11965E-01 49696   0.175E+00    0.306E+00
DAV:   4    -0.234126147286E+03    0.11563E-01   -0.36996E-02 42888   0.111E+00    0.200E+00
DAV:   5    -0.234118132896E+03    0.80144E-02   -0.29999E-02 46920   0.729E-01    0.126E+00
DAV:   6    -0.234125417370E+03   -0.72845E-02   -0.11296E-02 48056   0.592E-01    0.473E+00
DAV:   7    -0.234110485881E+03    0.14931E-01   -0.80826E-03 38752   0.534E-01    0.229E+00
DAV:   8    -0.234113188182E+03   -0.27023E-02   -0.19502E-03 47824   0.190E-01    0.197E-01
DAV:   9    -0.234117555014E+03   -0.43668E-02   -0.12040E-03 36736   0.155E-01    0.809E-01
DAV:  10    -0.234117423161E+03    0.13185E-03   -0.18806E-04 37744   0.894E-02    0.790E-01
DAV:  11    -0.234116793457E+03    0.62970E-03   -0.16114E-04 45280   0.783E-02    0.329E-01
DAV:  12    -0.234116963933E+03   -0.17048E-03   -0.10538E-04 37720   0.420E-02    0.112E-01
DAV:  13    -0.234117082341E+03   -0.11841E-03   -0.37870E-05 30344   0.300E-02    0.224E-01
DAV:  14    -0.234117042679E+03    0.39662E-04   -0.77608E-06 25312   0.196E-02    0.158E-01
DAV:  15    -0.234117033608E+03    0.90705E-05   -0.54029E-06 22024   0.105E-02
   4 F= -.23411703E+03 E0= -.23411138E+03  d E =-.602223E+00  mag=     8.1789
       N       E                     dE             d eps       ncg     rms          rms(c)
DAV:   1    -0.234251354545E+03   -0.13431E+00   -0.25001E+01 35080   0.197E+01    0.218E+00
DAV:   2    -0.234421537629E+03   -0.17018E+00   -0.18265E+00 34932   0.393E+00    0.297E+00
DAV:   3    -0.234423501096E+03   -0.19635E-02   -0.11173E-01 48160   0.167E+00    0.536E+00
DAV:   4    -0.234405858221E+03    0.17643E-01   -0.26125E-02 42720   0.102E+00    0.153E+00
DAV:   5    -0.234413002818E+03   -0.71446E-02   -0.23788E-02 42696   0.620E-01    0.138E+00
DAV:   6    -0.234409541897E+03    0.34609E-02   -0.54109E-03 44888   0.426E-01    0.563E-01
DAV:   7    -0.234410864323E+03   -0.13224E-02   -0.25023E-03 42160   0.170E-01    0.133E+00
DAV:   8    -0.234409109942E+03    0.17544E-02   -0.67360E-04 42984   0.169E-01    0.247E-01
DAV:   9    -0.234409960521E+03   -0.85058E-03   -0.38721E-04 40632   0.753E-02    0.375E-01
DAV:  10    -0.234409978289E+03   -0.17768E-04   -0.90175E-05 34864   0.642E-02    0.316E-01
DAV:  11    -0.234409887658E+03    0.90631E-04   -0.59387E-05 37232   0.450E-02    0.235E-02
DAV:  12    -0.234409949922E+03   -0.62264E-04   -0.27857E-05 28352   0.239E-02    0.106E-01
DAV:  13    -0.234409942413E+03    0.75088E-05   -0.51145E-06 24504   0.149E-02
   5 F= -.23440994E+03 E0= -.23440409E+03  d E =-.292909E+00  mag=     8.1876
       N       E                     dE             d eps       ncg     rms          rms(c)
DAV:   1    -0.234301748080E+03    0.10820E+00   -0.36235E+01 35496   0.269E+01    0.320E+00
DAV:   2    -0.234681139285E+03   -0.37939E+00   -0.37292E+00 34628   0.590E+00    0.496E+00
DAV:   3    -0.234644646335E+03    0.36493E-01   -0.23575E-01 43128   0.269E+00    0.173E+00
DAV:   4    -0.234660046451E+03   -0.15400E-01   -0.33587E-02 49232   0.915E-01    0.780E+00
DAV:   5    -0.234616506827E+03    0.43540E-01   -0.31646E-02 38096   0.111E+00    0.126E+00
DAV:   6    -0.234643007999E+03   -0.26501E-01   -0.22178E-02 45984   0.609E-01    0.217E+00
DAV:   7    -0.234638809205E+03    0.41988E-02   -0.99779E-03 42840   0.548E-01    0.161E+00
DAV:   8    -0.234636217815E+03    0.25914E-02   -0.19818E-03 46576   0.227E-01    0.994E-01
DAV:   9    -0.234636153237E+03    0.64578E-04   -0.65360E-04 42656   0.107E-01    0.449E-01
DAV:  10    -0.234636576481E+03   -0.42324E-03   -0.18095E-04 39352   0.611E-02    0.273E-01
DAV:  11    -0.234636734098E+03   -0.15762E-03   -0.12606E-04 33480   0.687E-02    0.247E-01
DAV:  12    -0.234636680409E+03    0.53690E-04   -0.46650E-05 32416   0.363E-02    0.152E-02
DAV:  13    -0.234636712569E+03   -0.32161E-04   -0.16348E-05 24312   0.189E-02    0.541E-02
DAV:  14    -0.234636710803E+03    0.17668E-05   -0.32145E-06 21880   0.113E-02
   6 F= -.23463671E+03 E0= -.23463096E+03  d E =-.226768E+00  mag=     8.1928
       N       E                     dE             d eps       ncg     rms          rms(c)
DAV:   1    -0.233835168878E+03    0.80154E+00   -0.85563E+01 36080   0.426E+01    0.853E+00
DAV:   2    -0.235157141151E+03   -0.13220E+01   -0.12738E+01 36316   0.129E+01    0.134E+01
DAV:   3    -0.234893046693E+03    0.26409E+00   -0.10590E+00 37916   0.665E+00    0.490E+00
DAV:   4    -0.234784002930E+03    0.10904E+00   -0.15910E-01 48960   0.259E+00    0.298E+00
DAV:   5    -0.234848597779E+03   -0.64595E-01   -0.12542E-01 46904   0.181E+00    0.140E+01
DAV:   6    -0.234691674489E+03    0.15692E+00   -0.94875E-02 38648   0.201E+00    0.121E+00
DAV:   7    -0.234764358441E+03   -0.72684E-01   -0.40632E-02 38528   0.101E+00    0.854E-01
DAV:   8    -0.234765812617E+03   -0.14542E-02   -0.13951E-02 47224   0.536E-01    0.930E-01
DAV:   9    -0.234765026129E+03    0.78649E-03   -0.17228E-03 42216   0.251E-01    0.385E-01
DAV:  10    -0.234765262744E+03   -0.23661E-03   -0.81266E-04 41296   0.140E-01    0.889E-02
DAV:  11    -0.234765288121E+03   -0.25377E-04   -0.88173E-05 40768   0.409E-02    0.335E-02
DAV:  12    -0.234765294383E+03   -0.62621E-05   -0.19524E-05 27696   0.246E-02
   7 F= -.23476529E+03 E0= -.23475804E+03  d E =-.128584E+00  mag=     8.2759
       N       E                     dE             d eps       ncg     rms          rms(c)
DAV:   1    -0.234793074765E+03   -0.27787E-01   -0.36695E+00 37072   0.830E+00    0.200E+00
DAV:   2    -0.234828080274E+03   -0.35006E-01   -0.28829E-01 39064   0.168E+00    0.543E+00
DAV:   3    -0.234811896716E+03    0.16184E-01   -0.29151E-02 40048   0.112E+00    0.209E+00
DAV:   4    -0.234821864643E+03   -0.99679E-02   -0.93458E-03 37656   0.537E-01    0.200E+00
DAV:   5    -0.234816424831E+03    0.54398E-02   -0.63295E-03 44904   0.410E-01    0.107E+00
DAV:   6    -0.234816802892E+03   -0.37806E-03   -0.35764E-03 46064   0.250E-01    0.598E-01
DAV:   7    -0.234817678937E+03   -0.87605E-03   -0.81605E-04 36440   0.149E-01    0.961E-01
DAV:   8    -0.234816792706E+03    0.88623E-03   -0.30142E-04 43656   0.117E-01    0.737E-02
DAV:   9    -0.234817330393E+03   -0.53769E-03   -0.19341E-04 36496   0.539E-02    0.347E-01
DAV:  10    -0.234817283784E+03    0.46609E-04   -0.40660E-05 31704   0.431E-02    0.300E-01
DAV:  11    -0.234817218181E+03    0.65602E-04   -0.20502E-05 28456   0.288E-02    0.444E-02
DAV:  12    -0.234817271760E+03   -0.53579E-04   -0.20141E-05 24984   0.181E-02    0.781E-02
DAV:  13    -0.234817276195E+03   -0.44348E-05   -0.41526E-06 22792   0.111E-02
   8 F= -.23481728E+03 E0= -.23481029E+03  d E =-.519818E-01  mag=     8.2396
       N       E                     dE             d eps       ncg     rms          rms(c)
DAV:   1    -0.234817198826E+03    0.72934E-04   -0.95877E-01 35088   0.433E+00    0.539E-01
DAV:   2    -0.234826311226E+03   -0.91124E-02   -0.78337E-02 34888   0.845E-01    0.217E+00
DAV:   3    -0.234822872334E+03    0.34389E-02   -0.50202E-03 41320   0.414E-01    0.288E-01
DAV:   4    -0.234824967595E+03   -0.20953E-02   -0.14514E-03 40292   0.163E-01    0.783E-01
DAV:   5    -0.234824418336E+03    0.54926E-03   -0.75115E-04 42688   0.140E-01    0.476E-01
DAV:   6    -0.234824452754E+03   -0.34418E-04   -0.35162E-04 49464   0.107E-01    0.430E-01
DAV:   7    -0.234824612162E+03   -0.15941E-03   -0.20138E-04 35392   0.705E-02    0.617E-01
DAV:   8    -0.234824262462E+03    0.34970E-03   -0.72133E-05 36960   0.603E-02    0.158E-01
DAV:   9    -0.234824444623E+03   -0.18216E-03   -0.68838E-05 31808   0.293E-02    0.137E-01
DAV:  10    -0.234824480848E+03   -0.36225E-04   -0.16792E-05 25456   0.251E-02    0.176E-01
DAV:  11    -0.234824456907E+03    0.23942E-04   -0.45354E-06 22696   0.136E-02    0.113E-01
DAV:  12    -0.234824456247E+03    0.65978E-06   -0.40762E-06 20288   0.941E-03
   9 F= -.23482446E+03 E0= -.23481780E+03  d E =-.718005E-02  mag=     8.2323
       N       E                     dE             d eps       ncg     rms          rms(c)
DAV:   1    -0.234776431859E+03    0.48025E-01   -0.83866E+00 36592   0.139E+01    0.138E+00
DAV:   2    -0.234849793608E+03   -0.73362E-01   -0.67567E-01 36096   0.245E+00    0.221E+00
DAV:   3    -0.234852706610E+03   -0.29130E-02   -0.34605E-02 42584   0.101E+00    0.402E+00
DAV:   4    -0.234842577272E+03    0.10129E-01   -0.88449E-03 39264   0.672E-01    0.487E-01
DAV:   5    -0.234848127701E+03   -0.55504E-02   -0.47977E-03 40312   0.249E-01    0.114E+00
DAV:   6    -0.234847556770E+03    0.57093E-03   -0.18913E-03 39208   0.226E-01    0.909E-01
DAV:   7    -0.234846886444E+03    0.67033E-03   -0.66320E-04 47600   0.161E-01    0.184E-01
DAV:   8    -0.234847407410E+03   -0.52097E-03   -0.32967E-04 35936   0.829E-02    0.424E-01
DAV:   9    -0.234847224052E+03    0.18336E-03   -0.79046E-05 38600   0.627E-02    0.577E-02
DAV:  10    -0.234847316379E+03   -0.92327E-04   -0.57970E-05 34136   0.259E-02    0.158E-01
DAV:  11    -0.234847307682E+03    0.86968E-05   -0.90037E-06 24208   0.207E-02
  10 F= -.23484731E+03 E0= -.23484113E+03  d E =-.228514E-01  mag=     8.2239
       N       E                     dE             d eps       ncg     rms          rms(c)
DAV:   1    -0.234748046361E+03    0.99270E-01   -0.13972E+01 36576   0.184E+01    0.189E+00
DAV:   2    -0.234886009893E+03   -0.13796E+00   -0.11530E+00 35480   0.354E+00    0.379E+00
DAV:   3    -0.234864699711E+03    0.21310E-01   -0.86531E-02 38872   0.170E+00    0.842E-01
DAV:   4    -0.234869598487E+03   -0.48988E-02   -0.96998E-03 45200   0.415E-01    0.273E+00
DAV:   5    -0.234863566144E+03    0.60323E-02   -0.56459E-03 38376   0.479E-01    0.419E-01
DAV:   6    -0.234867470020E+03   -0.39039E-02   -0.43803E-03 40388   0.257E-01    0.137E+00
DAV:   7    -0.234865314027E+03    0.21560E-02   -0.22468E-03 41936   0.257E-01    0.722E-01
DAV:   8    -0.234865413713E+03   -0.99686E-04   -0.68443E-04 48056   0.136E-01    0.390E-01
DAV:   9    -0.234865745051E+03   -0.33134E-03   -0.27685E-04 36704   0.966E-02    0.398E-01
DAV:  10    -0.234865602102E+03    0.14295E-03   -0.47976E-05 34440   0.436E-02    0.109E-01
DAV:  11    -0.234865679746E+03   -0.77644E-04   -0.32029E-05 29104   0.223E-02    0.134E-01
DAV:  12    -0.234865687583E+03   -0.78374E-05   -0.11690E-05 23264   0.222E-02
  11 F= -.23486569E+03 E0= -.23485940E+03  d E =-.183799E-01  mag=     8.2294
       N       E                     dE             d eps       ncg     rms          rms(c)
DAV:   1    -0.234584241303E+03    0.28144E+00   -0.31720E+01 34832   0.270E+01    0.294E+00
DAV:   2    -0.234894956927E+03   -0.31072E+00   -0.27964E+00 35864   0.529E+00    0.436E+00
DAV:   3    -0.234870590400E+03    0.24367E-01   -0.17237E-01 39032   0.237E+00    0.167E+00
DAV:   4    -0.234871711522E+03   -0.11211E-02   -0.20806E-02 41432   0.713E-01    0.822E-01
DAV:   5    -0.234872007489E+03   -0.29597E-03   -0.60467E-03 42320   0.411E-01    0.210E+00
DAV:   6    -0.234868226614E+03    0.37809E-02   -0.34844E-03 39680   0.360E-01    0.368E-01
DAV:   7    -0.234870434166E+03   -0.22076E-02   -0.36594E-03 43592   0.241E-01    0.981E-01
DAV:   8    -0.234869567729E+03    0.86644E-03   -0.15137E-03 39736   0.203E-01    0.559E-01
DAV:   9    -0.234869502108E+03    0.65621E-04   -0.26288E-04 47744   0.796E-02    0.713E-02
DAV:  10    -0.234869748602E+03   -0.24649E-03   -0.95463E-05 35528   0.492E-02    0.263E-01
DAV:  11    -0.234869689526E+03    0.59076E-04   -0.22432E-05 28968   0.362E-02    0.129E-01
DAV:  12    -0.234869706013E+03   -0.16487E-04   -0.26237E-05 28800   0.236E-02    0.118E-01
DAV:  13    -0.234869709637E+03   -0.36237E-05   -0.14291E-05 24368   0.244E-02
  12 F= -.23486971E+03 E0= -.23486335E+03  d E =-.402205E-02  mag=     8.2283
       N       E                     dE             d eps       ncg     rms          rms(c)
DAV:   1    -0.234842494812E+03    0.27211E-01   -0.74746E+00 35856   0.108E+01    0.145E+00
DAV:   2    -0.234884912175E+03   -0.42417E-01   -0.39493E-01 37508   0.197E+00    0.219E+00
DAV:   3    -0.234887413751E+03   -0.25016E-02   -0.26844E-02 40568   0.971E-01    0.431E+00
DAV:   4    -0.234875161566E+03    0.12252E-01   -0.93528E-03 38556   0.693E-01    0.767E-01
DAV:   5    -0.234881257162E+03   -0.60956E-02   -0.91878E-03 41696   0.330E-01    0.100E+00
DAV:   6    -0.234880917514E+03    0.33965E-03   -0.18553E-03 38404   0.238E-01    0.655E-01
DAV:   7    -0.234880714342E+03    0.20317E-03   -0.86271E-04 47552   0.143E-01    0.357E-01
DAV:   8    -0.234880918622E+03   -0.20428E-03   -0.27717E-04 36448   0.961E-02    0.311E-01
DAV:   9    -0.234880836691E+03    0.81931E-04   -0.52774E-05 33848   0.445E-02    0.545E-02
DAV:  10    -0.234880910332E+03   -0.73641E-04   -0.41076E-05 31944   0.247E-02    0.180E-01
DAV:  11    -0.234880879407E+03    0.30925E-04   -0.57022E-06 25320   0.204E-02    0.103E-01
DAV:  12    -0.234880881500E+03   -0.20923E-05   -0.13133E-05 22128   0.157E-02
  13 F= -.23488088E+03 E0= -.23487417E+03  d E =-.111719E-01  mag=     8.2307
       N       E                     dE             d eps       ncg     rms          rms(c)
DAV:   1    -0.234865794666E+03    0.15085E-01   -0.22598E+00 35552   0.746E+00    0.931E-01
DAV:   2    -0.234894322563E+03   -0.28528E-01   -0.20793E-01 35604   0.145E+00    0.472E+00
DAV:   3    -0.234878720498E+03    0.15602E-01   -0.15056E-02 38100   0.729E-01    0.747E-01
DAV:   4    -0.234887837899E+03   -0.91174E-02   -0.40427E-03 38768   0.265E-01    0.125E+00
DAV:   5    -0.234887776375E+03    0.61524E-04   -0.19192E-03 36624   0.249E-01    0.106E+00
DAV:   6    -0.234886727183E+03    0.10492E-02   -0.70573E-04 47640   0.143E-01    0.397E-01
DAV:   7    -0.234887503884E+03   -0.77670E-03   -0.52900E-04 47016   0.114E-01    0.888E-01
DAV:   8    -0.234887159387E+03    0.34450E-03   -0.37627E-04 34912   0.117E-01    0.714E-01
DAV:   9    -0.234886878984E+03    0.28040E-03   -0.13834E-04 44712   0.583E-02    0.180E-01
DAV:  10    -0.234887174458E+03   -0.29547E-03   -0.65264E-05 31952   0.333E-02    0.144E-01
DAV:  11    -0.234887222238E+03   -0.47780E-04   -0.17719E-05 25680   0.281E-02    0.159E-01
DAV:  12    -0.234887197188E+03    0.25050E-04   -0.81486E-06 25704   0.182E-02    0.333E-02
DAV:  13    -0.234887210180E+03   -0.12992E-04   -0.60768E-06 20808   0.878E-03    0.461E-02
DAV:  14    -0.234887213063E+03   -0.28835E-05   -0.13257E-06 18824   0.562E-03
  14 F= -.23488721E+03 E0= -.23488044E+03  d E =-.633156E-02  mag=     8.2312
       N       E                     dE             d eps       ncg     rms          rms(c)
DAV:   1    -0.234884725522E+03    0.24847E-02   -0.13569E+00 36256   0.449E+00    0.426E-01
DAV:   2    -0.234891959651E+03   -0.72341E-02   -0.68406E-02 35856   0.776E-01    0.925E-01
DAV:   3    -0.234891930118E+03    0.29534E-04   -0.30296E-03 42864   0.303E-01    0.846E-01
DAV:   4    -0.234891667868E+03    0.26225E-03   -0.68142E-04 38120   0.177E-01    0.441E-01
DAV:   5    -0.234891621192E+03    0.46676E-04   -0.27058E-04 46928   0.833E-02    0.334E-01
DAV:   6    -0.234891718546E+03   -0.97354E-04   -0.17127E-04 35376   0.676E-02    0.406E-01
DAV:   7    -0.234891565213E+03    0.15333E-03   -0.57419E-05 34432   0.471E-02    0.778E-02
DAV:   8    -0.234891653435E+03   -0.88222E-04   -0.36316E-05 29368   0.218E-02    0.971E-02
DAV:   9    -0.234891657800E+03   -0.43656E-05   -0.64187E-06 23248   0.183E-02
  15 F= -.23489166E+03 E0= -.23488528E+03  d E =-.444474E-02  mag=     8.2281
       N       E                     dE             d eps       ncg     rms          rms(c)
DAV:   1    -0.234215749155E+03    0.67590E+00   -0.14442E+02 35992   0.447E+01    0.413E+00
DAV:   2    -0.234975840510E+03   -0.76009E+00   -0.68511E+00 36212   0.780E+00    0.149E+01
DAV:   3    -0.234845424165E+03    0.13042E+00   -0.27549E-01 41184   0.299E+00    0.357E+00
DAV:   4    -0.234920625763E+03   -0.75202E-01   -0.70987E-02 38964   0.140E+00    0.245E+00
DAV:   5    -0.234910625702E+03    0.10000E-01   -0.38367E-02 43720   0.791E-01    0.220E+00
DAV:   6    -0.234900403387E+03    0.10222E-01   -0.14536E-02 45416   0.606E-01    0.115E+00
DAV:   7    -0.234902697121E+03   -0.22937E-02   -0.90261E-03 42712   0.440E-01    0.253E+00
DAV:   8    -0.234898157612E+03    0.45395E-02   -0.45502E-03 37820   0.386E-01    0.902E-01
DAV:   9    -0.234899758526E+03   -0.16009E-02   -0.14057E-03 46832   0.149E-01    0.361E-01
DAV:  10    -0.234900578201E+03   -0.81968E-03   -0.39732E-04 34936   0.113E-01    0.516E-01
DAV:  11    -0.234900241705E+03    0.33650E-03   -0.16719E-04 45632   0.806E-02    0.121E-01
DAV:  12    -0.234900356383E+03   -0.11468E-03   -0.79134E-05 38664   0.334E-02    0.160E-01
DAV:  13    -0.234900354475E+03    0.19075E-05   -0.21451E-05 27016   0.305E-02
  16 F= -.23490035E+03 E0= -.23489453E+03  d E =-.869667E-02  mag=     8.1835
       N       E                     dE             d eps       ncg     rms          rms(c)
DAV:   1    -0.234134567583E+03    0.76579E+00   -0.14191E+02 35560   0.460E+01    0.480E+00
DAV:   2    -0.234919027183E+03   -0.78446E+00   -0.73926E+00 36456   0.819E+00    0.121E+01
DAV:   3    -0.234865079184E+03    0.53948E-01   -0.37885E-01 41856   0.318E+00    0.397E+00
DAV:   4    -0.234907057770E+03   -0.41979E-01   -0.72838E-02 38736   0.146E+00    0.239E+00
DAV:   5    -0.234893930438E+03    0.13127E-01   -0.44347E-02 44632   0.875E-01    0.222E+00
DAV:   6    -0.234884344334E+03    0.95861E-02   -0.20575E-02 46048   0.654E-01    0.151E+00
DAV:   7    -0.234882746512E+03    0.15978E-02   -0.87612E-03 46552   0.517E-01    0.167E+00
DAV:   8    -0.234881204367E+03    0.15421E-02   -0.51287E-03 38496   0.375E-01    0.260E-01
DAV:   9    -0.234882162864E+03   -0.95850E-03   -0.11597E-03 41440   0.148E-01    0.229E-01
DAV:  10    -0.234882261446E+03   -0.98582E-04   -0.18027E-04 37640   0.691E-02    0.288E-01
DAV:  11    -0.234882150493E+03    0.11095E-03   -0.71608E-05 39048   0.561E-02    0.277E-02
DAV:  12    -0.234882197171E+03   -0.46678E-04   -0.40025E-05 34312   0.263E-02    0.833E-02
DAV:  13    -0.234882190279E+03    0.68918E-05   -0.53952E-06 23360   0.155E-02
  17 F= -.23488219E+03 E0= -.23487709E+03  d E =0.181642E-01  mag=     8.1579
       N       E                     dE             d eps       ncg     rms          rms(c)
DAV:   1    -0.234348438420E+03    0.53376E+00   -0.11201E+02 35280   0.410E+01    0.538E+00
DAV:   2    -0.234985670551E+03   -0.63723E+00   -0.57787E+00 36404   0.826E+00    0.714E+00
DAV:   3    -0.234923359714E+03    0.62311E-01   -0.47118E-01 38888   0.412E+00    0.241E+00
DAV:   4    -0.234905811010E+03    0.17549E-01   -0.60531E-02 46528   0.130E+00    0.323E+00
DAV:   5    -0.234907968115E+03   -0.21571E-02   -0.37512E-02 39744   0.127E+00    0.231E+00
DAV:   6    -0.234897966067E+03    0.10002E-01   -0.18459E-02 42192   0.847E-01    0.906E-01
DAV:   7    -0.234899919058E+03   -0.19530E-02   -0.13008E-02 46848   0.454E-01    0.184E+00
DAV:   8    -0.234897286124E+03    0.26329E-02   -0.45354E-03 38264   0.357E-01    0.768E-01
DAV:   9    -0.234898544387E+03   -0.12583E-02   -0.15719E-03 48024   0.188E-01    0.839E-01
DAV:  10    -0.234898427994E+03    0.11639E-03   -0.60333E-04 36232   0.158E-01    0.579E-01
DAV:  11    -0.234898149311E+03    0.27868E-03   -0.24180E-04 44792   0.783E-02    0.980E-02
DAV:  12    -0.234898398747E+03   -0.24944E-03   -0.10925E-04 38192   0.431E-02    0.330E-01
DAV:  13    -0.234898343346E+03    0.55401E-04   -0.40554E-05 30040   0.413E-02    0.261E-01
DAV:  14    -0.234898297357E+03    0.45989E-04   -0.23447E-05 28064   0.261E-02    0.491E-02
DAV:  15    -0.234898335872E+03   -0.38515E-04   -0.13714E-05 23288   0.159E-02    0.560E-03
DAV:  16    -0.234898342054E+03   -0.61820E-05   -0.30949E-06 18992   0.732E-03
  18 F= -.23489834E+03 E0= -.23489281E+03  d E =-.161518E-01  mag=     8.1850
       N       E                     dE             d eps       ncg     rms          rms(c)
DAV:   1    -0.234519579799E+03    0.37876E+00   -0.60361E+01 36608   0.327E+01    0.507E+00
DAV:   2    -0.235016465659E+03   -0.49689E+00   -0.42538E+00 38904   0.755E+00    0.786E+00
DAV:   3    -0.234926825179E+03    0.89640E-01   -0.45816E-01 38428   0.416E+00    0.289E+00
DAV:   4    -0.234898546180E+03    0.28279E-01   -0.59872E-02 47352   0.138E+00    0.195E+00
DAV:   5    -0.234903580411E+03   -0.50342E-02   -0.35935E-02 38728   0.107E+00    0.224E+00
DAV:   6    -0.234896846816E+03    0.67336E-02   -0.18454E-02 43808   0.780E-01    0.135E+00
DAV:   7    -0.234897248497E+03   -0.40168E-03   -0.78353E-03 39168   0.396E-01    0.137E+00
DAV:   8    -0.234896554925E+03    0.69357E-03   -0.27283E-03 44520   0.290E-01    0.936E-01
DAV:   9    -0.234897069501E+03   -0.51458E-03   -0.13492E-03 36672   0.213E-01    0.699E-01
DAV:  10    -0.234896718244E+03    0.35126E-03   -0.25439E-04 42376   0.854E-02    0.337E-01
DAV:  11    -0.234896832187E+03   -0.11394E-03   -0.96579E-05 40112   0.437E-02    0.975E-02
DAV:  12    -0.234896933487E+03   -0.10130E-03   -0.53899E-05 32768   0.379E-02    0.143E-01
DAV:  13    -0.234896913210E+03    0.20277E-04   -0.13526E-05 27272   0.216E-02    0.454E-02
DAV:  14    -0.234896919497E+03   -0.62872E-05   -0.71179E-06 21352   0.925E-03
  19 F= -.23489692E+03 E0= -.23489025E+03  d E =0.142256E-02  mag=     8.2346
       N       E                     dE             d eps       ncg     rms          rms(c)
DAV:   1    -0.234598893868E+03    0.29802E+00   -0.61264E+01 35232   0.308E+01    0.327E+00
DAV:   2    -0.235043682002E+03   -0.44479E+00   -0.32342E+00 36072   0.577E+00    0.169E+01
DAV:   3    -0.234829419899E+03    0.21426E+00   -0.23499E-01 38948   0.291E+00    0.151E+00
DAV:   4    -0.234928557316E+03   -0.99137E-01   -0.40949E-02 39144   0.945E-01    0.210E+00
DAV:   5    -0.234925568562E+03    0.29888E-02   -0.11347E-02 42200   0.581E-01    0.180E+00
DAV:   6    -0.234920040548E+03    0.55280E-02   -0.10370E-02 46640   0.454E-01    0.108E+00
DAV:   7    -0.234920314785E+03   -0.27424E-03   -0.81025E-03 46288   0.393E-01    0.122E+00
DAV:   8    -0.234920070156E+03    0.24463E-03   -0.18713E-03 37280   0.224E-01    0.106E+00
DAV:   9    -0.234919356298E+03    0.71386E-03   -0.78552E-04 48512   0.148E-01    0.111E-01
DAV:  10    -0.234920136244E+03   -0.77995E-03   -0.29837E-04 35024   0.778E-02    0.376E-01
DAV:  11    -0.234919981900E+03    0.15434E-03   -0.78167E-05 40072   0.617E-02    0.135E-01
DAV:  12    -0.234920010605E+03   -0.28704E-04   -0.45261E-05 35776   0.250E-02    0.631E-02
DAV:  13    -0.234920027067E+03   -0.16463E-04   -0.89422E-06 24048   0.167E-02    0.753E-02
DAV:  14    -0.234920021324E+03    0.57432E-05   -0.38189E-06 20544   0.105E-02
  20 F= -.23492002E+03 E0= -.23491438E+03  d E =-.231018E-01  mag=     8.1824
       N       E                     dE             d eps       ncg     rms          rms(c)
DAV:   1    -0.234848953784E+03    0.71073E-01   -0.10095E+01 35088   0.128E+01    0.211E+00
DAV:   2    -0.234951553579E+03   -0.10260E+00   -0.62856E-01 38224   0.266E+00    0.119E+01
DAV:   3    -0.234859549638E+03    0.92004E-01   -0.68529E-02 37948   0.161E+00    0.250E+00
DAV:   4    -0.234906951952E+03   -0.47402E-01   -0.28293E-02 43152   0.659E-01    0.194E+00
DAV:   5    -0.234913672635E+03   -0.67207E-02   -0.16198E-02 36456   0.605E-01    0.175E+00
DAV:   6    -0.234909821179E+03    0.38515E-02   -0.36134E-03 44136   0.325E-01    0.150E+00
DAV:   7    -0.234906647787E+03    0.31734E-02   -0.20049E-03 47936   0.241E-01    0.840E-01
DAV:   8    -0.234906703721E+03   -0.55934E-04   -0.80765E-04 43648   0.106E-01    0.193E-01
DAV:   9    -0.234907122998E+03   -0.41928E-03   -0.19281E-04 36648   0.642E-02    0.114E-01
DAV:  10    -0.234907169354E+03   -0.46356E-04   -0.78051E-05 39624   0.535E-02    0.606E-02
DAV:  11    -0.234907166759E+03    0.25944E-05   -0.16819E-05 27120   0.220E-02
  21 F= -.23490717E+03 E0= -.23490209E+03  d E =0.128546E-01  mag=     8.1623
       N       E                     dE             d eps       ncg     rms          rms(c)
DAV:   1    -0.234877184187E+03    0.29985E-01   -0.81999E+00 35552   0.115E+01    0.190E+00
DAV:   2    -0.234942594037E+03   -0.65410E-01   -0.49141E-01 38936   0.256E+00    0.339E+00
DAV:   3    -0.234922924514E+03    0.19670E-01   -0.64338E-02 39064   0.157E+00    0.996E-01
DAV:   4    -0.234928444404E+03   -0.55199E-02   -0.10149E-02 46208   0.504E-01    0.380E+00
DAV:   5    -0.234916782705E+03    0.11662E-01   -0.95571E-03 37952   0.635E-01    0.346E-01
DAV:   6    -0.234923797721E+03   -0.70150E-02   -0.48914E-03 37660   0.261E-01    0.123E+00
DAV:   7    -0.234922169563E+03    0.16282E-02   -0.20896E-03 39320   0.240E-01    0.761E-01
DAV:   8    -0.234921862421E+03    0.30714E-03   -0.46707E-04 47584   0.120E-01    0.174E-01
DAV:   9    -0.234922173636E+03   -0.31122E-03   -0.14547E-04 36456   0.497E-02    0.431E-02
DAV:  10    -0.234922226216E+03   -0.52580E-04   -0.13252E-05 27896   0.195E-02    0.126E-01
DAV:  11    -0.234922208495E+03    0.17721E-04   -0.12864E-05 25848   0.227E-02    0.182E-02
DAV:  12    -0.234922216689E+03   -0.81939E-05   -0.87145E-06 21784   0.994E-03
  22 F= -.23492222E+03 E0= -.23491678E+03  d E =-.150499E-01  mag=     8.1822
       N       E                     dE             d eps       ncg     rms          rms(c)
DAV:   1    -0.234922196650E+03    0.11845E-04   -0.67633E-02 35416   0.121E+00    0.194E-01
DAV:   2    -0.234923813429E+03   -0.16168E-02   -0.61192E-03 38360   0.298E-01    0.148E+00
DAV:   3    -0.234921990247E+03    0.18232E-02   -0.11715E-03 35456   0.227E-01    0.408E-01
DAV:   4    -0.234922663228E+03   -0.67298E-03   -0.25396E-04 37856   0.648E-02    0.287E-01
DAV:   5    -0.234922828993E+03   -0.16576E-03   -0.12622E-04 32580   0.650E-02    0.293E-01
DAV:   6    -0.234922759853E+03    0.69140E-04   -0.21353E-05 27848   0.264E-02    0.202E-01
DAV:   7    -0.234922746432E+03    0.13421E-04   -0.30073E-05 27808   0.302E-02    0.422E-02
DAV:   8    -0.234922794222E+03   -0.47790E-04   -0.23099E-05 25020   0.184E-02    0.166E-01
DAV:   9    -0.234922772146E+03    0.22075E-04   -0.44004E-06 21760   0.159E-02    0.124E-01
DAV:  10    -0.234922764419E+03    0.77273E-05   -0.46286E-06 19552   0.108E-02
  23 F= -.23492276E+03 E0= -.23491718E+03  d E =-.547730E-03  mag=     8.1795
       N       E                     dE             d eps       ncg     rms          rms(c)
DAV:   1    -0.234845644175E+03    0.77128E-01   -0.11785E+01 35072   0.148E+01    0.149E+00
DAV:   2    -0.234956357186E+03   -0.11071E+00   -0.79672E-01 35532   0.286E+00    0.101E+01
DAV:   3    -0.234890661384E+03    0.65696E-01   -0.58853E-02 37216   0.143E+00    0.214E+00
DAV:   4    -0.234924640303E+03   -0.33979E-01   -0.16533E-02 40472   0.507E-01    0.144E+00
DAV:   5    -0.234929939575E+03   -0.52993E-02   -0.68819E-03 34856   0.421E-01    0.137E+00
DAV:   6    -0.234927628196E+03    0.23114E-02   -0.13088E-03 44576   0.205E-01    0.105E+00
DAV:   7    -0.234926349508E+03    0.12787E-02   -0.16696E-03 48960   0.246E-01    0.355E-01
DAV:   8    -0.234927471143E+03   -0.11216E-02   -0.93275E-04 37104   0.115E-01    0.985E-01
DAV:   9    -0.234926543805E+03    0.92734E-03   -0.32630E-04 42992   0.117E-01    0.468E-01
DAV:  10    -0.234926724844E+03   -0.18104E-03   -0.21419E-04 47200   0.632E-02    0.122E-01
DAV:  11    -0.234926902894E+03   -0.17805E-03   -0.73485E-05 31496   0.498E-02    0.134E-01
DAV:  12    -0.234926885397E+03    0.17498E-04   -0.11985E-05 27232   0.185E-02    0.704E-02
DAV:  13    -0.234926886257E+03   -0.86043E-06   -0.51225E-06 19424   0.843E-03
  24 F= -.23492689E+03 E0= -.23492193E+03  d E =-.412184E-02  mag=     8.1580
       N       E                     dE             d eps       ncg     rms          rms(c)
DAV:   1    -0.234601375366E+03    0.32551E+00   -0.70288E+01 35304   0.320E+01    0.303E+00
DAV:   2    -0.234959842780E+03   -0.35847E+00   -0.32746E+00 35572   0.584E+00    0.122E+01
DAV:   3    -0.234876577151E+03    0.83266E-01   -0.17149E-01 39544   0.239E+00    0.214E+00
DAV:   4    -0.234926150363E+03   -0.49573E-01   -0.36394E-02 38272   0.994E-01    0.151E+00
DAV:   5    -0.234921420727E+03    0.47296E-02   -0.14992E-02 45472   0.539E-01    0.127E+00
DAV:   6    -0.234917567989E+03    0.38527E-02   -0.10580E-02 47944   0.493E-01    0.820E-01
DAV:   7    -0.234917080054E+03    0.48793E-03   -0.45529E-03 43160   0.289E-01    0.221E-01
DAV:   8    -0.234917370645E+03   -0.29059E-03   -0.72704E-04 38960   0.118E-01    0.171E-01
DAV:   9    -0.234917354139E+03    0.16505E-04   -0.21145E-04 46672   0.741E-02    0.785E-02
DAV:  10    -0.234917362208E+03   -0.80686E-05   -0.56312E-05 36312   0.345E-02
  25 F= -.23491736E+03 E0= -.23491423E+03  d E =0.952405E-02  mag=     8.0951
       N       E                     dE             d eps       ncg     rms          rms(c)
DAV:   1    -0.234797952926E+03    0.11940E+00   -0.21969E+01 35528   0.198E+01    0.273E+00
DAV:   2    -0.234962545158E+03   -0.16459E+00   -0.14257E+00 36536   0.432E+00    0.422E+00
DAV:   3    -0.234938727571E+03    0.23818E-01   -0.14228E-01 38716   0.227E+00    0.149E+00
DAV:   4    -0.234933165853E+03    0.55617E-02   -0.18415E-02 47152   0.706E-01    0.130E+00
DAV:   5    -0.234933045665E+03    0.12019E-03   -0.11883E-02 38896   0.597E-01    0.925E-01
DAV:   6    -0.234931814048E+03    0.12316E-02   -0.51422E-03 41992   0.353E-01    0.360E-01
DAV:   7    -0.234933055989E+03   -0.12419E-02   -0.26790E-03 47768   0.241E-01    0.143E+00
DAV:   8    -0.234931041340E+03    0.20146E-02   -0.11164E-03 36808   0.206E-01    0.488E-01
DAV:   9    -0.234931650541E+03   -0.60920E-03   -0.44719E-04 47056   0.918E-02    0.266E-01
DAV:  10    -0.234931874340E+03   -0.22380E-03   -0.15073E-04 35040   0.728E-02    0.267E-01
DAV:  11    -0.234931791212E+03    0.83128E-04   -0.28513E-05 30424   0.360E-02    0.120E-01
DAV:  12    -0.234931809837E+03   -0.18625E-04   -0.37827E-05 32424   0.269E-02    0.886E-02
DAV:  13    -0.234931817278E+03   -0.74405E-05   -0.12291E-05 23688   0.203E-02
  26 F= -.23493182E+03 E0= -.23492721E+03  d E =-.144551E-01  mag=     8.1325
       N       E                     dE             d eps       ncg     rms          rms(c)
DAV:   1    -0.234920155733E+03    0.11654E-01   -0.31430E+00 35768   0.633E+00    0.891E-01
DAV:   2    -0.234936722098E+03   -0.16566E-01   -0.12473E-01 39320   0.126E+00    0.201E+00
DAV:   3    -0.234930993305E+03    0.57288E-02   -0.14858E-02 39520   0.760E-01    0.354E-01
DAV:   4    -0.234931801773E+03   -0.80847E-03   -0.18299E-03 42816   0.198E-01    0.796E-01
DAV:   5    -0.234931172975E+03    0.62880E-03   -0.11353E-03 41224   0.200E-01    0.248E-01
DAV:   6    -0.234931423294E+03   -0.25032E-03   -0.80839E-04 40472   0.110E-01    0.364E-01
DAV:   7    -0.234931262756E+03    0.16054E-03   -0.37791E-04 42608   0.896E-02    0.111E-01
DAV:   8    -0.234931305216E+03   -0.42460E-04   -0.50649E-05 33592   0.344E-02    0.698E-02
DAV:   9    -0.234931311658E+03   -0.64420E-05   -0.16553E-05 25160   0.228E-02
  27 F= -.23493131E+03 E0= -.23492647E+03  d E =0.505620E-03  mag=     8.1490
       N       E                     dE             d eps       ncg     rms          rms(c)
DAV:   1    -0.234929985012E+03    0.13202E-02   -0.66298E-01 35496   0.304E+00    0.440E-01
DAV:   2    -0.234934729625E+03   -0.47446E-02   -0.30366E-02 38360   0.622E-01    0.210E+00
DAV:   3    -0.234931163877E+03    0.35657E-02   -0.37919E-03 38008   0.391E-01    0.202E-01
DAV:   4    -0.234932825525E+03   -0.16616E-02   -0.67225E-04 37904   0.113E-01    0.449E-01
DAV:   5    -0.234932683643E+03    0.14188E-03   -0.25380E-04 38648   0.957E-02    0.258E-01
DAV:   6    -0.234932650094E+03    0.33549E-04   -0.18911E-04 42944   0.672E-02    0.109E-01
DAV:   7    -0.234932713867E+03   -0.63773E-04   -0.12576E-04 37176   0.429E-02    0.219E-01
DAV:   8    -0.234932663308E+03    0.50559E-04   -0.17964E-05 26600   0.293E-02    0.110E-01
DAV:   9    -0.234932668565E+03   -0.52569E-05   -0.16937E-05 25176   0.178E-02
  28 F= -.23493267E+03 E0= -.23492814E+03  d E =-.135691E-02  mag=     8.1402
       N       E                     dE             d eps       ncg     rms          rms(c)
DAV:   1    -0.234931764365E+03    0.89894E-03   -0.24325E-01 35696   0.211E+00    0.239E-01
DAV:   2    -0.234934016198E+03   -0.22518E-02   -0.15454E-02 35920   0.427E-01    0.121E+00
DAV:   3    -0.234932775249E+03    0.12409E-02   -0.15184E-03 37400   0.240E-01    0.150E-01
DAV:   4    -0.234933305435E+03   -0.53019E-03   -0.20505E-04 37080   0.637E-02    0.223E-01
DAV:   5    -0.234933288551E+03    0.16884E-04   -0.57783E-05 37040   0.474E-02    0.127E-01
DAV:   6    -0.234933289079E+03   -0.52814E-06   -0.42316E-05 30864   0.399E-02
  29 F= -.23493329E+03 E0= -.23492843E+03  d E =-.620515E-03  mag=     8.1356
       N       E                     dE             d eps       ncg     rms          rms(c)
DAV:   1    -0.234787892612E+03    0.14540E+00   -0.18391E+01 35040   0.195E+01    0.174E+00
DAV:   2    -0.234931972681E+03   -0.14408E+00   -0.14085E+00 35592   0.358E+00    0.955E-01
DAV:   3    -0.234937402254E+03   -0.54296E-02   -0.42249E-02 42080   0.777E-01    0.125E+00
DAV:   4    -0.234935570661E+03    0.18316E-02   -0.59082E-03 41968   0.434E-01    0.477E-01
DAV:   5    -0.234935018625E+03    0.55204E-03   -0.23661E-03 43384   0.232E-01    0.353E-01
DAV:   6    -0.234934681249E+03    0.33738E-03   -0.28954E-03 46080   0.224E-01    0.265E-01
DAV:   7    -0.234934630866E+03    0.50383E-04   -0.74266E-04 43912   0.128E-01    0.134E-01
DAV:   8    -0.234934631724E+03   -0.85732E-06   -0.16132E-04 39424   0.595E-02    0.772E-02
DAV:   9    -0.234934632415E+03   -0.69141E-06   -0.23961E-05 28248   0.265E-02
  30 F= -.23493463E+03 E0= -.23493029E+03  d E =-.134334E-02  mag=     8.1285
       N       E                     dE             d eps       ncg     rms          rms(c)
DAV:   1    -0.234306526388E+03    0.62811E+00   -0.41294E+01 35768   0.261E+01    0.770E+00
DAV:   2    -0.234614163295E+03   -0.30764E+00   -0.29240E+00 39312   0.544E+00    0.137E+01
DAV:   3    -0.234532807755E+03    0.81356E-01   -0.55781E-01 40576   0.364E+00    0.487E+00
DAV:   4    -0.234590382162E+03   -0.57574E-01   -0.11480E-01 41424   0.167E+00    0.351E+00
DAV:   5    -0.234568717535E+03    0.21665E-01   -0.66346E-02 43064   0.127E+00    0.307E+00
DAV:   6    -0.234552417039E+03    0.16300E-01   -0.28938E-02 46040   0.845E-01    0.260E+00
DAV:   7    -0.234541579845E+03    0.10837E-01   -0.78491E-03 48048   0.464E-01    0.213E+00
DAV:   8    -0.234534693275E+03    0.68866E-02   -0.24732E-03 47616   0.297E-01    0.179E+00
DAV:   9    -0.234529240446E+03    0.54528E-02   -0.17145E-03 46304   0.261E-01    0.121E+00
DAV:  10    -0.234529394684E+03   -0.15424E-03   -0.25392E-03 46248   0.313E-01    0.148E+00
DAV:  11    -0.234528186750E+03    0.12079E-02   -0.25314E-03 37648   0.327E-01    0.150E-01
DAV:  12    -0.234529077189E+03   -0.89044E-03   -0.31311E-04 37544   0.646E-02    0.461E-01
DAV:  13    -0.234528847132E+03    0.23006E-03   -0.75085E-05 34456   0.660E-02    0.229E-01
DAV:  14    -0.234528891819E+03   -0.44687E-04   -0.74434E-05 32936   0.494E-02    0.233E-01
DAV:  15    -0.234528899203E+03   -0.73836E-05   -0.42082E-05 30168   0.369E-02
  31 F= -.23452890E+03 E0= -.23452329E+03  d E =0.405733E+00  mag=     8.1623
       N       E                     dE             d eps       ncg     rms          rms(c)
DAV:   1    -0.234782985400E+03   -0.25409E+00   -0.49891E+00 35072   0.728E+00    0.297E+00
DAV:   2    -0.234809580791E+03   -0.26595E-01   -0.30971E-01 40424   0.165E+00    0.209E+00
DAV:   3    -0.234851232008E+03   -0.41651E-01   -0.47465E-02 41328   0.146E+00    0.122E+01
DAV:   4    -0.234750446133E+03    0.10079E+00   -0.34306E-02 37680   0.141E+00    0.255E+00
DAV:   5    -0.234799516057E+03   -0.49070E-01   -0.31304E-02 39816   0.708E-01    0.184E+00
DAV:   6    -0.234807338570E+03   -0.78225E-02   -0.10075E-02 37032   0.492E-01    0.167E+00
DAV:   7    -0.234804442489E+03    0.28961E-02   -0.16109E-03 41984   0.233E-01    0.148E+00
DAV:   8    -0.234802196833E+03    0.22457E-02   -0.77827E-04 47032   0.155E-01    0.121E+00
DAV:   9    -0.234801197598E+03    0.99924E-03   -0.45371E-04 47888   0.960E-02    0.869E-01
DAV:  10    -0.234800755754E+03    0.44184E-03   -0.19496E-04 41448   0.838E-02    0.323E-01
DAV:  11    -0.234801047975E+03   -0.29222E-03   -0.14228E-04 39176   0.508E-02    0.411E-02
DAV:  12    -0.234801157781E+03   -0.10981E-03   -0.53691E-05 31240   0.398E-02    0.309E-02
DAV:  13    -0.234801170557E+03   -0.12775E-04   -0.12218E-05 25744   0.198E-02    0.115E-01
DAV:  14    -0.234801153594E+03    0.16963E-04   -0.89000E-06 23648   0.210E-02    0.904E-03
DAV:  15    -0.234801161271E+03   -0.76770E-05   -0.27808E-06 20016   0.705E-03
  32 F= -.23480116E+03 E0= -.23479634E+03  d E =-.272262E+00  mag=     8.1469
       N       E                     dE             d eps       ncg     rms          rms(c)
DAV:   1    -0.234884026586E+03   -0.82873E-01   -0.17988E+00 36472   0.441E+00    0.168E+00
DAV:   2    -0.234892914383E+03   -0.88878E-02   -0.11027E-01 39896   0.971E-01    0.110E+00
DAV:   3    -0.234908232962E+03   -0.15319E-01   -0.17289E-02 42352   0.837E-01    0.700E+00
DAV:   4    -0.234873496950E+03    0.34736E-01   -0.11787E-02 37544   0.826E-01    0.178E+00
DAV:   5    -0.234888348421E+03   -0.14851E-01   -0.11483E-02 40920   0.407E-01    0.944E-01
DAV:   6    -0.234892216709E+03   -0.38683E-02   -0.29883E-03 35752   0.269E-01    0.110E+00
DAV:   7    -0.234890898085E+03    0.13186E-02   -0.50597E-04 42256   0.139E-01    0.859E-01
DAV:   8    -0.234890252843E+03    0.64524E-03   -0.29868E-04 46208   0.920E-02    0.457E-01
DAV:   9    -0.234890355124E+03   -0.10228E-03   -0.15546E-04 38496   0.445E-02    0.213E-01
DAV:  10    -0.234890438435E+03   -0.83310E-04   -0.26073E-05 28816   0.238E-02    0.515E-02
DAV:  11    -0.234890476583E+03   -0.38148E-04   -0.12865E-05 26168   0.159E-02    0.195E-02
DAV:  12    -0.234890482786E+03   -0.62031E-05   -0.32985E-06 20784   0.877E-03
  33 F= -.23489048E+03 E0= -.23488591E+03  d E =-.893215E-01  mag=     8.1369
       N       E                     dE             d eps       ncg     rms          rms(c)
DAV:   1    -0.234920556347E+03   -0.30080E-01   -0.21158E+00 35200   0.498E+00    0.171E+00
DAV:   2    -0.234931630797E+03   -0.11074E-01   -0.13514E-01 39840   0.109E+00    0.119E+00
DAV:   3    -0.234943803090E+03   -0.12172E-01   -0.20949E-02 42464   0.860E-01    0.619E+00
DAV:   4    -0.234915994242E+03    0.27809E-01   -0.10742E-02 38120   0.784E-01    0.129E+00
DAV:   5    -0.234928385510E+03   -0.12391E-01   -0.14631E-02 40832   0.429E-01    0.907E-01
DAV:   6    -0.234930060790E+03   -0.16753E-02   -0.30471E-03 37032   0.266E-01    0.900E-01
DAV:   7    -0.234929087404E+03    0.97339E-03   -0.70375E-04 42544   0.145E-01    0.555E-01
DAV:   8    -0.234928942432E+03    0.14497E-03   -0.24019E-04 45080   0.729E-02    0.218E-01
DAV:   9    -0.234929059054E+03   -0.11662E-03   -0.72092E-05 37416   0.325E-02    0.867E-02
DAV:  10    -0.234929091668E+03   -0.32614E-04   -0.13569E-05 24800   0.182E-02    0.509E-02
DAV:  11    -0.234929096825E+03   -0.51570E-05   -0.79521E-06 21144   0.126E-02
  34 F= -.23492910E+03 E0= -.23492480E+03  d E =-.386140E-01  mag=     8.1271
       N       E                     dE             d eps       ncg     rms          rms(c)
DAV:   1    -0.234931604907E+03   -0.25132E-02   -0.13945E-01 34960   0.144E+00    0.366E-01
DAV:   2    -0.234932485895E+03   -0.88099E-03   -0.92245E-03 40120   0.314E-01    0.495E-01
DAV:   3    -0.234932462545E+03    0.23350E-04   -0.12169E-03 40632   0.210E-01    0.561E-01
DAV:   4    -0.234932225183E+03    0.23736E-03   -0.35462E-04 42536   0.126E-01    0.164E-01
DAV:   5    -0.234932301401E+03   -0.76218E-04   -0.62436E-04 45048   0.897E-02    0.178E-01
DAV:   6    -0.234932288414E+03    0.12987E-04   -0.19082E-04 35784   0.604E-02    0.134E-01
DAV:   7    -0.234932270754E+03    0.17660E-04   -0.25645E-05 28976   0.311E-02    0.215E-02
DAV:   8    -0.234932278932E+03   -0.81775E-05   -0.76519E-06 22464   0.140E-02
  35 F= -.23493228E+03 E0= -.23492798E+03  d E =-.318211E-02  mag=     8.1281
       N       E                     dE             d eps       ncg     rms          rms(c)
DAV:   1    -0.234933005830E+03   -0.73508E-03   -0.21373E-01 34744   0.191E+00    0.421E-01
DAV:   2    -0.234934281506E+03   -0.12757E-02   -0.14534E-02 40056   0.388E-01    0.434E-01
DAV:   3    -0.234934640122E+03   -0.35862E-03   -0.18074E-03 41808   0.242E-01    0.894E-01
DAV:   4    -0.234933925603E+03    0.71452E-03   -0.65328E-04 42496   0.179E-01    0.193E-01
DAV:   5    -0.234934173231E+03   -0.24763E-03   -0.90652E-04 44808   0.107E-01    0.210E-01
DAV:   6    -0.234934156182E+03    0.17049E-04   -0.21425E-04 37896   0.679E-02    0.142E-01
DAV:   7    -0.234934138926E+03    0.17256E-04   -0.29758E-05 30008   0.312E-02    0.244E-02
DAV:   8    -0.234934148107E+03   -0.91818E-05   -0.10559E-05 22888   0.164E-02
  36 F= -.23493415E+03 E0= -.23492982E+03  d E =-.186918E-02  mag=     8.1294
       N       E                     dE             d eps       ncg     rms          rms(c)
DAV:   1    -0.234934303614E+03   -0.16469E-03   -0.11181E-02 35004   0.459E-01    0.828E-02
DAV:   2    -0.234934382874E+03   -0.79260E-04   -0.81612E-04 37736   0.863E-02    0.589E-02
DAV:   3    -0.234934404617E+03   -0.21743E-04   -0.67664E-05 32036   0.465E-02    0.181E-01
DAV:   4    -0.234934371403E+03    0.33214E-04   -0.25903E-05 29600   0.384E-02    0.328E-02
DAV:   5    -0.234934380357E+03   -0.89546E-05   -0.19366E-05 22636   0.164E-02
  37 F= -.23493438E+03 E0= -.23493014E+03  d E =-.232250E-03  mag=     8.1295
       N       E                     dE             d eps       ncg     rms          rms(c)
DAV:   1    -0.234933831469E+03    0.53993E-03   -0.13478E-01 34720   0.162E+00    0.249E-01
DAV:   2    -0.234934821864E+03   -0.99039E-03   -0.96496E-03 37664   0.302E-01    0.346E-01
DAV:   3    -0.234934871536E+03   -0.49671E-04   -0.75001E-04 40472   0.162E-01    0.450E-01
DAV:   4    -0.234934702657E+03    0.16888E-03   -0.21272E-04 38160   0.103E-01    0.847E-02
DAV:   5    -0.234934755220E+03   -0.52563E-04   -0.14376E-04 36320   0.446E-02    0.115E-01
DAV:   6    -0.234934750424E+03    0.47964E-05   -0.53816E-05 29120   0.341E-02
  38 F= -.23493475E+03 E0= -.23493068E+03  d E =-.370066E-03  mag=     8.1297
       N       E                     dE             d eps       ncg     rms          rms(c)
DAV:   1    -0.234934407577E+03    0.34764E-03   -0.46566E-02 35032   0.102E+00    0.131E-01
DAV:   2    -0.234934908243E+03   -0.50067E-03   -0.39114E-03 37168   0.208E-01    0.411E-01
DAV:   3    -0.234934746492E+03    0.16175E-03   -0.38781E-04 39504   0.117E-01    0.579E-02
DAV:   4    -0.234934801433E+03   -0.54940E-04   -0.43927E-05 34096   0.311E-02    0.845E-02
DAV:   5    -0.234934792052E+03    0.93804E-05   -0.10296E-05 25328   0.205E-02
  39 F= -.23493479E+03 E0= -.23493045E+03  d E =-.416285E-04  mag=     8.1316
       N       E                     dE             d eps       ncg     rms          rms(c)
DAV:   1    -0.234932208150E+03    0.25933E-02   -0.26632E-01 35968   0.249E+00    0.358E-01
DAV:   2    -0.234935514938E+03   -0.33068E-02   -0.23127E-02 37108   0.524E-01    0.109E+00
DAV:   3    -0.234934202954E+03    0.13120E-02   -0.28148E-03 38960   0.329E-01    0.134E-01
DAV:   4    -0.234934544080E+03   -0.34113E-03   -0.30734E-04 39912   0.812E-02    0.239E-01
DAV:   5    -0.234934477674E+03    0.66406E-04   -0.81411E-05 37272   0.565E-02    0.468E-02
DAV:   6    -0.234934500518E+03   -0.22845E-04   -0.55184E-05 35512   0.285E-02    0.119E-01
DAV:   7    -0.234934483446E+03    0.17072E-04   -0.25396E-05 25224   0.261E-02    0.460E-02
DAV:   8    -0.234934487079E+03   -0.36329E-05   -0.91632E-06 21232   0.145E-02
  40 F= -.23493449E+03 E0= -.23492993E+03  d E =0.304973E-03  mag=     8.1369
       N       E                     dE             d eps       ncg     rms          rms(c)
DAV:   1    -0.234929601240E+03    0.48822E-02   -0.40939E-01 36184   0.322E+00    0.342E-01
DAV:   2    -0.234933628509E+03   -0.40273E-02   -0.39139E-02 36096   0.584E-01    0.222E-01
DAV:   3    -0.234934032696E+03   -0.40419E-03   -0.15347E-03 44152   0.180E-01    0.672E-01
DAV:   4    -0.234933608221E+03    0.42447E-03   -0.40035E-04 39080   0.132E-01    0.103E-01
DAV:   5    -0.234933747920E+03   -0.13970E-03   -0.22355E-04 37096   0.545E-02    0.163E-01
DAV:   6    -0.234933730030E+03    0.17890E-04   -0.10172E-04 33128   0.485E-02    0.124E-01
DAV:   7    -0.234933719577E+03    0.10453E-04   -0.31380E-05 29584   0.353E-02    0.697E-02
DAV:   8    -0.234933724494E+03   -0.49169E-05   -0.14278E-05 23728   0.206E-02
  41 F= -.23493372E+03 E0= -.23492917E+03  d E =0.762585E-03  mag=     8.1338
       N       E                     dE             d eps       ncg     rms          rms(c)
DAV:   1    -0.234933808240E+03   -0.88663E-04   -0.50274E-02 35492   0.808E-01    0.197E-01
DAV:   2    -0.234934333754E+03   -0.52551E-03   -0.22540E-03 40872   0.195E-01    0.785E-01
DAV:   3    -0.234933760802E+03    0.57295E-03   -0.56261E-04 38276   0.162E-01    0.612E-02
DAV:   4    -0.234933996156E+03   -0.23535E-03   -0.99480E-05 35384   0.524E-02    0.182E-01
DAV:   5    -0.234933966668E+03    0.29487E-04   -0.32390E-05 29400   0.334E-02    0.104E-01
DAV:   6    -0.234933961167E+03    0.55015E-05   -0.20997E-05 26456   0.219E-02
  42 F= -.23493396E+03 E0= -.23492954E+03  d E =-.236673E-03  mag=     8.1316
       N       E                     dE             d eps       ncg     rms          rms(c)
DAV:   1    -0.234933925405E+03    0.41264E-04   -0.57802E-02 35160   0.951E-01    0.128E-01
DAV:   2    -0.234934317473E+03   -0.39207E-03   -0.30800E-03 38648   0.196E-01    0.401E-01
DAV:   3    -0.234934153786E+03    0.16369E-03   -0.34009E-04 39608   0.113E-01    0.587E-02
DAV:   4    -0.234934205433E+03   -0.51647E-04   -0.40309E-05 34728   0.289E-02    0.113E-01
DAV:   5    -0.234934189314E+03    0.16119E-04   -0.14414E-05 26384   0.252E-02    0.202E-02
DAV:   6    -0.234934196654E+03   -0.73403E-05   -0.16440E-05 22680   0.150E-02
  43 F= -.23493420E+03 E0= -.23492996E+03  d E =-.235487E-03  mag=     8.1340
       N       E                     dE             d eps       ncg     rms          rms(c)
DAV:   1    -0.234931217198E+03    0.29721E-02   -0.62674E-01 35136   0.298E+00    0.325E-01
DAV:   2    -0.234934091888E+03   -0.28747E-02   -0.29892E-02 38776   0.533E-01    0.204E-01
DAV:   3    -0.234934394770E+03   -0.30288E-03   -0.12879E-03 43904   0.181E-01    0.572E-01
DAV:   4    -0.234934018432E+03    0.37634E-03   -0.36669E-04 41320   0.131E-01    0.106E-01
DAV:   5    -0.234934113227E+03   -0.94795E-04   -0.15983E-04 41776   0.533E-02    0.206E-01
DAV:   6    -0.234934076835E+03    0.36392E-04   -0.12845E-04 36672   0.548E-02    0.909E-02
DAV:   7    -0.234934088156E+03   -0.11321E-04   -0.43354E-05 28736   0.321E-02    0.958E-02
DAV:   8    -0.234934083132E+03    0.50248E-05   -0.16394E-05 24552   0.244E-02
  44 F= -.23493408E+03 E0= -.23492974E+03  d E =0.113523E-03  mag=     8.1361
       N       E                     dE             d eps       ncg     rms          rms(c)
DAV:   1    -0.234854082957E+03    0.80005E-01   -0.22349E+01 35424   0.161E+01    0.156E+00
DAV:   2    -0.234936055258E+03   -0.81972E-01   -0.77784E-01 36872   0.273E+00    0.455E+00
DAV:   3    -0.234924015759E+03    0.12039E-01   -0.36830E-02 40016   0.109E+00    0.139E+00
DAV:   4    -0.234929589515E+03   -0.55738E-02   -0.78801E-03 38032   0.519E-01    0.109E+00
DAV:   5    -0.234927144312E+03    0.24452E-02   -0.27502E-03 44408   0.245E-01    0.626E-01
DAV:   6    -0.234927005606E+03    0.13871E-03   -0.18530E-03 45880   0.208E-01    0.532E-01
DAV:   7    -0.234927078231E+03   -0.72625E-04   -0.11869E-03 37760   0.154E-01    0.463E-01
DAV:   8    -0.234926893433E+03    0.18480E-03   -0.33984E-04 45696   0.816E-02    0.150E-01
DAV:   9    -0.234926983207E+03   -0.89774E-04   -0.69367E-05 36560   0.358E-02    0.683E-02
DAV:  10    -0.234927003640E+03   -0.20433E-04   -0.27119E-05 26568   0.277E-02    0.773E-02
DAV:  11    -0.234926995319E+03    0.83210E-05   -0.12720E-05 23784   0.186E-02
  45 F= -.23492700E+03 E0= -.23492274E+03  d E =0.708781E-02  mag=     8.1292
       N       E                     dE             d eps       ncg     rms          rms(c)
DAV:   1    -0.234877950115E+03    0.49054E-01   -0.50144E+00 35904   0.102E+01    0.223E+00
DAV:   2    -0.234927018360E+03   -0.49068E-01   -0.41377E-01 39168   0.212E+00    0.601E+00
DAV:   3    -0.234906094201E+03    0.20924E-01   -0.46607E-02 39616   0.133E+00    0.159E+00
DAV:   4    -0.234917173624E+03   -0.11079E-01   -0.11019E-02 40624   0.588E-01    0.117E+00
DAV:   5    -0.234914741915E+03    0.24317E-02   -0.76335E-03 46576   0.410E-01    0.866E-01
DAV:   6    -0.234914045279E+03    0.69664E-03   -0.56045E-03 46872   0.307E-01    0.377E-01
DAV:   7    -0.234914208385E+03   -0.16311E-03   -0.11900E-03 41376   0.148E-01    0.175E-01
DAV:   8    -0.234914203898E+03    0.44873E-05   -0.11312E-04 37216   0.610E-02    0.625E-02
DAV:   9    -0.234914209068E+03   -0.51696E-05   -0.98978E-05 42080   0.388E-02
  46 F= -.23491421E+03 E0= -.23491087E+03  d E =0.127863E-01  mag=     8.1027
       N       E                     dE             d eps       ncg     rms          rms(c)
DAV:   1    -0.234908790656E+03    0.54132E-02   -0.76301E+00 35384   0.948E+00    0.220E+00
DAV:   2    -0.234953304060E+03   -0.44513E-01   -0.33606E-01 41248   0.234E+00    0.314E+00
DAV:   3    -0.234936013842E+03    0.17290E-01   -0.57958E-02 39544   0.158E+00    0.107E+00
DAV:   4    -0.234938288937E+03   -0.22751E-02   -0.11434E-02 44984   0.564E-01    0.320E+00
DAV:   5    -0.234931264727E+03    0.70242E-02   -0.10870E-02 40240   0.735E-01    0.104E+00
DAV:   6    -0.234933908226E+03   -0.26435E-02   -0.27308E-03 39520   0.321E-01    0.694E-01
DAV:   7    -0.234933351647E+03    0.55658E-03   -0.10485E-03 47040   0.151E-01    0.314E-01
DAV:   8    -0.234933421492E+03   -0.69845E-04   -0.42593E-04 41560   0.822E-02    0.963E-02
DAV:   9    -0.234933469837E+03   -0.48345E-04   -0.82854E-05 35944   0.400E-02    0.450E-02
DAV:  10    -0.234933481610E+03   -0.11773E-04   -0.13995E-05 25064   0.167E-02    0.801E-02
DAV:  11    -0.234933473891E+03    0.77193E-05   -0.66078E-06 22400   0.162E-02
  47 F= -.23493347E+03 E0= -.23492918E+03  d E =-.192648E-01  mag=     8.1292
       N       E                     dE             d eps       ncg     rms          rms(c)
DAV:   1    -0.234932520785E+03    0.96083E-03   -0.27739E-01 34840   0.179E+00    0.525E-01
DAV:   2    -0.234934975160E+03   -0.24544E-02   -0.12446E-02 41304   0.466E-01    0.124E+00
DAV:   3    -0.234933033507E+03    0.19417E-02   -0.30906E-03 39528   0.385E-01    0.223E-01
DAV:   4    -0.234933393215E+03   -0.35971E-03   -0.58966E-04 42208   0.130E-01    0.346E-01
DAV:   5    -0.234933261811E+03    0.13140E-03   -0.24677E-04 43680   0.839E-02    0.627E-02
DAV:   6    -0.234933313569E+03   -0.51758E-04   -0.14161E-04 38976   0.481E-02    0.121E-01
DAV:   7    -0.234933296059E+03    0.17511E-04   -0.44339E-05 27896   0.313E-02    0.493E-02
DAV:   8    -0.234933297947E+03   -0.18883E-05   -0.79096E-06 23096   0.135E-02
  48 F= -.23493330E+03 E0= -.23492874E+03  d E =0.175944E-03  mag=     8.1357
       N       E                     dE             d eps       ncg     rms          rms(c)
DAV:   1    -0.234933318079E+03   -0.22021E-04   -0.40351E-02 34272   0.732E-01    0.154E-01
DAV:   2    -0.234933564367E+03   -0.24629E-03   -0.20742E-03 39600   0.151E-01    0.323E-01
DAV:   3    -0.234933487488E+03    0.76879E-04   -0.21790E-04 39608   0.954E-02    0.148E-01
DAV:   4    -0.234933498789E+03   -0.11300E-04   -0.50073E-05 36376   0.445E-02    0.101E-01
DAV:   5    -0.234933487659E+03    0.11129E-04   -0.16685E-05 28224   0.236E-02    0.360E-02
DAV:   6    -0.234933493944E+03   -0.62848E-05   -0.98146E-06 22512   0.130E-02
  49 F= -.23493349E+03 E0= -.23492890E+03  d E =-.195997E-03  mag=     8.1352
       N       E                     dE             d eps       ncg     rms          rms(c)
DAV:   1    -0.234932960283E+03    0.52738E-03   -0.12649E-01 34240   0.125E+00    0.175E-01
DAV:   2    -0.234933632763E+03   -0.67248E-03   -0.50036E-03 38280   0.247E-01    0.609E-01
DAV:   3    -0.234933307373E+03    0.32539E-03   -0.51595E-04 39008   0.146E-01    0.891E-02
DAV:   4    -0.234933432283E+03   -0.12491E-03   -0.78679E-05 36144   0.492E-02    0.143E-01
DAV:   5    -0.234933405524E+03    0.26759E-04   -0.22657E-05 28520   0.291E-02    0.417E-02
DAV:   6    -0.234933416080E+03   -0.10557E-04   -0.23993E-05 26080   0.210E-02    0.820E-02
DAV:   7    -0.234933413579E+03    0.25010E-05   -0.14333E-05 22088   0.182E-02
  50 F= -.23493341E+03 E0= -.23492883E+03  d E =0.803646E-04  mag=     8.1331
