       N       E                     dE             d eps       ncg     rms          ort
DAV:   1     0.269443068752E+04    0.26944E+04   -0.14723E+05  6120   0.160E+03
DAV:   2    -0.254468065073E+03   -0.29489E+04   -0.28676E+04  6120   0.445E+02
DAV:   3    -0.520328277529E+03   -0.26586E+03   -0.26013E+03  6120   0.149E+02
DAV:   4    -0.534274183327E+03   -0.13946E+02   -0.13494E+02  6120   0.357E+01
DAV:   5    -0.535430423559E+03   -0.11562E+01   -0.11371E+01  6120   0.611E+00
SDA:   6    -0.304932528071E+03    0.23050E+03   -0.11371E+01  6120   0.103E+04 0.000E+00
CGA:   7    -0.387502767165E+03   -0.82570E+02   -0.10959E+03  6120   0.657E+03-0.143E+03
CGA:   8    -0.408662721712E+03   -0.21160E+02   -0.24561E+02  6120   0.189E+03-0.238E+03
CGA:   9    -0.406671760813E+03    0.19910E+01   -0.10684E+02  6120   0.667E+03-0.600E+02
CGA:  10    -0.417461402136E+03   -0.10790E+02   -0.17492E+02  6120   0.616E+02-0.101E+03
CGA:  11    -0.419879269470E+03   -0.24179E+01   -0.25675E+01  6120   0.369E+02-0.371E+01
CGA:  12    -0.422700994841E+03   -0.28217E+01   -0.31500E+01  6120   0.101E+03 0.268E+01
CGA:  13    -0.410020249865E+03    0.12681E+02   -0.35756E+01  6120   0.934E+03-0.309E+03
CGA:  14    -0.410927187075E+03   -0.90694E+00   -0.62718E+02  6120   0.730E+02-0.402E+02
CGA:  15    -0.406981210453E+03    0.39460E+01   -0.29142E+01  6120   0.381E+03-0.625E+02
CGA:  16    -0.412316364079E+03   -0.53352E+01   -0.19257E+02  6120   0.648E+02-0.462E+02
CGA:  17    -0.405632141420E+03    0.66842E+01   -0.31056E+01  6120   0.605E+03 0.344E+02
CGA:  18    -0.414871898230E+03   -0.92398E+01   -0.33114E+02  6120   0.279E+03-0.141E+03
CGA:  19    -0.405318978873E+03    0.95529E+01   -0.11240E+02  6120   0.321E+03-0.512E+02
CGA:  20    -0.418529526123E+03   -0.13211E+02   -0.17214E+02  6120   0.766E+02-0.576E+02
CGA:  21    -0.420656132214E+03   -0.21266E+01   -0.25094E+01  6120   0.926E+02-0.608E+01
CGA:  22    -0.412121640012E+03    0.85345E+01   -0.25568E+01  6120   0.280E+03-0.807E+02
CGA:  23    -0.414508823228E+03   -0.23872E+01   -0.15709E+02  6120   0.444E+02-0.435E+02
CGA:  24    -0.423325044244E+03   -0.88162E+01   -0.10352E+01  6120   0.976E+02 0.258E+03
CGA:  25    -0.419600567619E+03    0.37245E+01   -0.38868E+01  6120   0.432E+03-0.141E+03
CGA:  26    -0.415515308236E+03    0.40853E+01   -0.21480E+02  6120   0.826E+02-0.466E+02
CGA:  27    -0.415808385986E+03   -0.29308E+00   -0.31081E+01  6120   0.183E+03-0.571E+02
CGA:  28    -0.415160190577E+03    0.64820E+00   -0.81910E+01  6120   0.561E+02-0.473E+02
CGA:  29    -0.423998683811E+03   -0.88385E+01   -0.99167E+00  6120   0.695E+02-0.146E+03
CGA:  30    -0.423838797124E+03    0.15989E+00   -0.29896E+01  6120   0.102E+03-0.964E+01
CGA:  31    -0.420945900664E+03    0.28929E+01   -0.22883E+01  6120   0.186E+03-0.143E+03
CGA:  32    -0.423699750557E+03   -0.27538E+01   -0.84794E+01  6120   0.357E+02-0.381E+02
CGA:  33    -0.424857717448E+03   -0.11580E+01   -0.58148E+00  6120   0.131E+02 0.196E+02
CGA:  34    -0.425237158577E+03   -0.37944E+00   -0.20823E+00  6120   0.845E+01 0.112E+02
CGA:  35    -0.425471227809E+03   -0.23407E+00   -0.10310E+00  6120   0.786E+01 0.105E+02
CGA:  36    -0.425673055569E+03   -0.20183E+00   -0.10852E+00  6120   0.310E+01 0.574E+01
CGA:  37    -0.425746625531E+03   -0.73570E-01   -0.56466E-01  6120   0.483E+00 0.739E+00
CGA:  38    -0.425766023242E+03   -0.19398E-01   -0.20033E-01  6120   0.511E+00 0.119E-02
CGA:  39    -0.425792297121E+03   -0.26274E-01   -0.24568E-01  6120   0.103E+01 0.240E-02
CGA:  40    -0.425823307889E+03   -0.31011E-01   -0.23036E-01  6120   0.110E+01 0.290E+00
CGA:  41    -0.425845978991E+03   -0.22671E-01   -0.15069E-01  6120   0.782E+00 0.671E+00
CGA:  42    -0.425872186643E+03   -0.26208E-01   -0.28776E-01  6120   0.397E+00-0.450E-01
CGA:  43    -0.425889710771E+03   -0.17524E-01   -0.17749E-01  6120   0.255E+00-0.143E-01
CGA:  44    -0.425903152233E+03   -0.13441E-01   -0.13479E-01  6120   0.381E+00-0.279E-03
CGA:  45    -0.425939281130E+03   -0.36129E-01   -0.37217E-01  6120   0.829E+00-0.286E-01
CGA:  46    -0.425948806098E+03   -0.95250E-02   -0.62304E-02  6120   0.343E+00 0.414E+00
CGA:  47    -0.425953175672E+03   -0.43696E-02   -0.39086E-02  6120   0.946E-01 0.110E+00
CGA:  48    -0.425955290723E+03   -0.21151E-02   -0.23470E-02  6120   0.188E+00 0.487E-02
CGA:  49    -0.425959539915E+03   -0.42492E-02   -0.44791E-02  6120   0.463E+00 0.585E-02
CGA:  50    -0.425966247754E+03   -0.67078E-02   -0.70139E-02  6120   0.353E+00-0.229E-03
CGA:  51    -0.425970165282E+03   -0.39175E-02   -0.52106E-02  6120   0.132E+00-0.897E-01
CGA:  52    -0.425974265666E+03   -0.41004E-02   -0.40418E-02  6120   0.251E+00-0.106E-01
CGA:  53    -0.425979273579E+03   -0.50079E-02   -0.39125E-02  6120   0.131E+00 0.464E-01
CGA:  54    -0.425982049658E+03   -0.27761E-02   -0.26904E-02  6120   0.810E-01 0.334E-02
CGA:  55    -0.425984275729E+03   -0.22261E-02   -0.21298E-02  6120   0.894E-01-0.104E-01
CGA:  56    -0.425987098471E+03   -0.28227E-02   -0.26766E-02  6120   0.114E+00-0.194E-01
CGA:  57    -0.425989434608E+03   -0.23361E-02   -0.19694E-02  6120   0.690E-01-0.948E-02
CGA:  58    -0.425991008050E+03   -0.15734E-02   -0.14345E-02  6120   0.890E-01-0.944E-03
CGA:  59    -0.425994109090E+03   -0.31010E-02   -0.30409E-02  6120   0.173E+00-0.344E-02
CGA:  60    -0.425997746370E+03   -0.36373E-02   -0.39088E-02  6120   0.759E-01-0.506E-02
CGA:  61    -0.425998950832E+03   -0.12045E-02   -0.11923E-02  6120   0.153E-01-0.799E-02
CGA:  62    -0.426000081953E+03   -0.11311E-02   -0.13343E-02  6120   0.693E-01-0.316E-02
CGA:  63    -0.426001608861E+03   -0.15269E-02   -0.15745E-02  6120   0.341E-01 0.615E-02
CGA:  64    -0.426002255632E+03   -0.64677E-03   -0.74187E-03  6120   0.236E-01 0.461E-02
CGA:  65    -0.426003728530E+03   -0.14729E-02   -0.14568E-02  6120   0.576E-01 0.138E-02
CGA:  66    -0.426006163973E+03   -0.24354E-02   -0.24277E-02  6120   0.461E-01-0.615E-02
CGA:  67    -0.426007260620E+03   -0.10966E-02   -0.10449E-02  6120   0.162E-01-0.532E-02
CGA:  68    -0.426007620745E+03   -0.36012E-03   -0.37917E-03  6120   0.155E-01 0.143E-02
CGA:  69    -0.426008599849E+03   -0.97910E-03   -0.89723E-03  6120   0.251E-01 0.646E-02
CGA:  70    -0.426009595202E+03   -0.99535E-03   -0.10559E-02  6120   0.300E-02 0.527E-02
CGA:  71    -0.426009892868E+03   -0.29767E-03   -0.23951E-03  6120   0.361E-02 0.225E-02
CGA:  72    -0.426010007450E+03   -0.11458E-03   -0.56168E-03  6120   0.274E-01-0.380E-02
CGA:  73    -0.426010679188E+03   -0.67174E-03   -0.70003E-03  6120   0.169E-02 0.251E-02
CGA:  74    -0.426010728565E+03   -0.49377E-04   -0.62732E-04  6120   0.169E-02 0.112E-02
CGA:  75    -0.426010536010E+03    0.19255E-03   -0.15970E-03  6120   0.482E-01-0.271E-02
CGA:  76    -0.426011326026E+03   -0.79002E-03   -0.92300E-03  6120   0.325E-02 0.418E-02
CGA:  77    -0.426011405702E+03   -0.79677E-04   -0.94478E-04  6120   0.975E-03 0.367E-03
CGA:  78    -0.426011054827E+03    0.35088E-03   -0.22857E-03  6120   0.656E-01-0.205E-02
CGA:  79    -0.426012156105E+03   -0.11013E-02   -0.11335E-02  6120   0.283E-02 0.564E-02
CGA:  80    -0.426012257951E+03   -0.10185E-03   -0.10356E-03  6120   0.127E-02-0.841E-04
CGA:  81    -0.426012314842E+03   -0.56891E-04   -0.66675E-04  6120   0.159E-02 0.130E-03
CGA:  82    -0.426012317375E+03   -0.25327E-05   -0.54396E-04  6120   0.503E-03 0.581E-03
CGA:  83    -0.426012328169E+03   -0.10794E-04   -0.30332E-04  6120   0.102E-02 0.254E-03
CGA:  84    -0.426012429321E+03   -0.10115E-03   -0.53584E-04  6120   0.253E-02-0.757E-03
CGA:  85    -0.426012441542E+03   -0.12221E-04   -0.43631E-04  6120   0.316E-03 0.319E-03
CGA:  86    -0.426012467176E+03   -0.25635E-04   -0.29032E-04  6120   0.103E-02 0.124E-03
CGA:  87    -0.426008991037E+03    0.34761E-02   -0.15614E-02  6120   0.183E+00-0.834E-02
CGA:  88    -0.426012698322E+03   -0.37073E-02   -0.34519E-02  6120   0.156E-01 0.222E-01
CGA:  89    -0.426013323892E+03   -0.62557E-03   -0.69468E-03  6120   0.847E-02-0.879E-03
CGA:  90    -0.426013578393E+03   -0.25450E-03   -0.34609E-03  6120   0.428E-02 0.812E-03
CGA:  91    -0.426013588807E+03   -0.10414E-04   -0.96311E-04  6120   0.338E-03 0.764E-03
CGA:  92    -0.426013582385E+03    0.64228E-05   -0.10038E-04  6120   0.279E-03 0.118E-03
CGA:  93    -0.426013639145E+03   -0.56760E-04   -0.57110E-04  6120   0.190E-02 0.579E-04
CGA:  94    -0.426013872317E+03   -0.23317E-03   -0.17734E-03  6120   0.383E-02-0.645E-03
CGA:  95    -0.426013962713E+03   -0.90396E-04   -0.53563E-04  6120   0.191E-02-0.743E-03
CGA:  96    -0.426013994398E+03   -0.31685E-04   -0.27533E-04  6120   0.984E-03-0.246E-03
CGA:  97    -0.426014010196E+03   -0.15799E-04   -0.25893E-04  6120   0.134E-02 0.379E-04
CGA:  98    -0.426014028808E+03   -0.18612E-04   -0.47047E-04  6120   0.127E-02 0.283E-03
CGA:  99    -0.426014029668E+03   -0.85972E-06   -0.34912E-04  6120   0.657E-03 0.408E-03
CGA: 100    -0.426014023653E+03    0.60142E-05   -0.19309E-04  6120   0.522E-03 0.287E-03
CGA: 101    -0.426014034010E+03   -0.10357E-04   -0.28350E-04  6120   0.101E-02 0.255E-03
CGA: 102    -0.426014117228E+03   -0.83218E-04   -0.80554E-04  6120   0.158E-02 0.901E-04
CGA: 103    -0.426014190572E+03   -0.73344E-04   -0.49485E-04  6120   0.799E-03-0.480E-03
CGA: 104    -0.426014219777E+03   -0.29204E-04   -0.18883E-04  6120   0.805E-03-0.242E-03
CGA: 105    -0.426014230030E+03   -0.10254E-04   -0.22365E-04  6120   0.125E-02 0.175E-03
CGA: 106    -0.426014264750E+03   -0.34720E-04   -0.63362E-04  6120   0.907E-03 0.902E-03
CGA: 107    -0.426014333460E+03   -0.68710E-04   -0.64220E-04  6120   0.240E-02-0.169E-03
CGA: 108    -0.426014409433E+03   -0.75974E-04   -0.10460E-03  6120   0.167E-02 0.669E-03
CGA: 109    -0.426014440210E+03   -0.30776E-04   -0.50333E-04  6120   0.500E-03 0.288E-03
CGA: 110    -0.426014367205E+03    0.73004E-04   -0.11333E-03  6120   0.102E-01-0.182E-02
CGA: 111    -0.426014550119E+03   -0.18291E-03   -0.25569E-03  6120   0.752E-03 0.164E-02
CGA: 112    -0.426014562377E+03   -0.12258E-04   -0.20067E-04  6120   0.103E-03 0.121E-03
CGA: 113    -0.426014561675E+03    0.70194E-06   -0.41424E-05  6120   0.111E-03 0.892E-04
   1 F= -.42601456E+03 E0= -.42600617E+03  d E =-.426015E+03  mag=    10.0000
       N       E                     dE             d eps       ncg     rms          ort
SDA:   1    -0.425897449604E+03    0.11711E+00    0.00000E+00  6120   0.500E+00 0.000E+00
CGA:   2    -0.425919159125E+03   -0.21710E-01   -0.20746E-01  6120   0.459E+00 0.141E-01
CGA:   3    -0.425966948057E+03   -0.47789E-01   -0.47897E-01  6120   0.610E+00-0.107E-01
CGA:   4    -0.425993167503E+03   -0.26219E-01   -0.24963E-01  6120   0.875E-01 0.331E-01
CGA:   5    -0.425998799662E+03   -0.56322E-02   -0.56805E-02  6120   0.118E+00 0.132E-02
CGA:   6    -0.426006977613E+03   -0.81780E-02   -0.82425E-02  6120   0.366E-01 0.532E-02
CGA:   7    -0.426008452128E+03   -0.14745E-02   -0.14145E-02  6120   0.128E-01-0.387E-02
CGA:   8    -0.426009392474E+03   -0.94035E-03   -0.93509E-03  6120   0.147E-01 0.201E-02
CGA:   9    -0.426010124131E+03   -0.73166E-03   -0.73382E-03  6120   0.391E-02-0.135E-03
CGA:  10    -0.426010238712E+03   -0.11458E-03   -0.15124E-03  6120   0.178E-02 0.953E-03
CGA:  11    -0.426010490962E+03   -0.25225E-03   -0.31271E-03  6120   0.665E-02-0.925E-03
CGA:  12    -0.426010561983E+03   -0.71020E-04   -0.13171E-03  6120   0.821E-03 0.108E-02
CGA:  13    -0.426010580778E+03   -0.18795E-04   -0.28524E-04  6120   0.408E-03 0.222E-03
CGA:  14    -0.426009850923E+03    0.72985E-03   -0.39471E-03  6120   0.448E-01-0.241E-02
CGA:  15    -0.426010649332E+03   -0.79841E-03   -0.84538E-03  6120   0.289E-02 0.365E-02
CGA:  16    -0.426010779371E+03   -0.13004E-03   -0.12035E-03  6120   0.101E-02-0.203E-03
CGA:  17    -0.426010812372E+03   -0.33001E-04   -0.48583E-04  6120   0.876E-03 0.214E-03
CGA:  18    -0.426010798047E+03    0.14324E-04   -0.25577E-04  6120   0.157E-03 0.422E-03
CGA:  19    -0.426010792357E+03    0.56901E-05   -0.56730E-05  6120   0.134E-03 0.125E-03
CGA:  20    -0.426010840236E+03   -0.47878E-04    0.12036E-04  6120   0.761E-03-0.704E-04
CGA:  21    -0.426010832226E+03    0.80095E-05   -0.11008E-04  6120   0.863E-04 0.195E-03
   2 F= -.42601083E+03 E0= -.42600246E+03  d E =0.372945E-02  mag=    10.0000
       N       E                     dE             d eps       ncg     rms          ort
SDA:   1    -0.425957227522E+03    0.53613E-01    0.00000E+00  6120   0.162E+00 0.000E+00
CGA:   2    -0.425975442889E+03   -0.18215E-01   -0.18185E-01  6120   0.538E+00 0.364E-02
CGA:   3    -0.426002085870E+03   -0.26643E-01   -0.26588E-01  6120   0.674E-01-0.730E-02
CGA:   4    -0.426006701910E+03   -0.46160E-02   -0.46571E-02  6120   0.667E-01 0.374E-02
CGA:   5    -0.426011940937E+03   -0.52390E-02   -0.51162E-02  6120   0.555E-01-0.518E-02
CGA:   6    -0.426013311873E+03   -0.13709E-02   -0.13693E-02  6120   0.626E-02 0.196E-02
CGA:   7    -0.426014282827E+03   -0.97095E-03   -0.95844E-03  6120   0.138E-01 0.220E-03
CGA:   8    -0.426014799422E+03   -0.51660E-03   -0.40740E-03  6120   0.207E-02-0.179E-02
CGA:   9    -0.426014922206E+03   -0.12278E-03   -0.12037E-03  6120   0.190E-02-0.921E-04
CGA:  10    -0.426015113799E+03   -0.19159E-03   -0.20322E-03  6120   0.354E-02-0.562E-03
CGA:  11    -0.426015133146E+03   -0.19347E-04   -0.49260E-04  6120   0.747E-03 0.411E-03
CGA:  12    -0.426015132481E+03    0.66524E-06   -0.12862E-04  6120   0.338E-03 0.185E-03
CGA:  13    -0.426015151878E+03   -0.19397E-04   -0.21399E-04  6120   0.956E-03 0.591E-04
CGA:  14    -0.426015232835E+03   -0.80957E-04   -0.68217E-04  6120   0.125E-02-0.571E-03
CGA:  15    -0.426015254574E+03   -0.21740E-04   -0.32840E-04  6120   0.165E-03 0.208E-03
CGA:  16    -0.426015249674E+03    0.49001E-05   -0.30559E-05  6120   0.950E-04 0.126E-03
   3 F= -.42601525E+03 E0= -.42600681E+03  d E =-.687999E-03  mag=    10.0000
       N       E                     dE             d eps       ncg     rms          ort
SDA:   1    -0.425994057131E+03    0.21197E-01    0.00000E+00  6120   0.855E-01 0.000E+00
CGA:   2    -0.425998098218E+03   -0.40411E-02   -0.41471E-02  6120   0.117E+00 0.439E-02
CGA:   3    -0.426009264736E+03   -0.11167E-01   -0.11249E-01  6120   0.297E-01-0.468E-02
CGA:   4    -0.426011734473E+03   -0.24697E-02   -0.24464E-02  6120   0.528E-01 0.191E-02
CGA:   5    -0.426014557669E+03   -0.28232E-02   -0.27499E-02  6120   0.134E-01-0.336E-02
CGA:   6    -0.426014879307E+03   -0.32164E-03   -0.39067E-03  6120   0.319E-02 0.162E-02
CGA:   7    -0.426015330968E+03   -0.45166E-03   -0.71588E-03  6120   0.118E-01-0.204E-02
CGA:   8    -0.426015525162E+03   -0.19419E-03   -0.23295E-03  6120   0.118E-02 0.897E-03
CGA:   9    -0.426015613367E+03   -0.88205E-04   -0.84564E-04  6120   0.151E-02-0.470E-03
CGA:  10    -0.426015647032E+03   -0.33664E-04   -0.40890E-04  6120   0.121E-02 0.250E-03
CGA:  11    -0.426015651955E+03   -0.49236E-05   -0.28417E-04  6120   0.228E-03 0.463E-03
   4 F= -.42601565E+03 E0= -.42600719E+03  d E =-.402281E-03  mag=    10.0000
       N       E                     dE             d eps       ncg     rms          ort
SDA:   1    -0.426015621419E+03    0.25613E-04    0.00000E+00  6120   0.143E-01 0.000E+00
CGA:   2    -0.426015773613E+03   -0.15219E-03   -0.24384E-03  6120   0.140E-02 0.181E-02
CGA:   3    -0.426015780863E+03   -0.72496E-05   -0.41935E-04  6120   0.104E-02 0.917E-03
CGA:   4    -0.426015820058E+03   -0.39195E-04   -0.41762E-04  6120   0.880E-03 0.111E-03
CGA:   5    -0.426015813927E+03    0.61306E-05   -0.19930E-04  6120   0.362E-03 0.635E-03
CGA:   6    -0.426015808013E+03    0.59136E-05   -0.46792E-05  6120   0.184E-03 0.226E-03
   5 F= -.42601581E+03 E0= -.42600733E+03  d E =-.558339E-03  mag=    10.0000
       N       E                     dE             d eps       ncg     rms          ort
SDA:   1    -0.426014942155E+03    0.87177E-03    0.00000E+00  6120   0.563E-02 0.000E+00
CGA:   2    -0.426010552728E+03    0.43894E-02   -0.25457E-02  6120   0.162E+00-0.201E-01
CGA:   3    -0.426013670937E+03   -0.31182E-02   -0.35265E-02  6120   0.339E-01 0.515E-02
CGA:   4    -0.426015597116E+03   -0.19262E-02   -0.20371E-02  6120   0.495E-02 0.393E-02
CGA:   5    -0.426015810390E+03   -0.21327E-03   -0.19600E-03  6120   0.918E-03-0.376E-03
CGA:   6    -0.426015803135E+03    0.72552E-05   -0.13053E-04  6120   0.159E-03 0.265E-03
   6 F= -.42601580E+03 E0= -.42600732E+03  d E =-.553461E-03  mag=    10.0000
       N       E                     dE             d eps       ncg     rms          ort
SDA:   1    -0.426014317813E+03    0.14926E-02    0.00000E+00  6120   0.355E-01 0.000E+00
CGA:   2    -0.426015569766E+03   -0.12520E-02   -0.11517E-02  6120   0.352E-02-0.535E-02
CGA:   3    -0.426015612933E+03   -0.43167E-04   -0.62239E-04  6120   0.614E-03 0.317E-03
CGA:   4    -0.426015648012E+03   -0.35079E-04   -0.32294E-04  6120   0.458E-03-0.879E-04
CGA:   5    -0.426015745504E+03   -0.97492E-04    0.24844E-04  6120   0.204E-02-0.689E-03
CGA:   6    -0.426015757264E+03   -0.11759E-04   -0.33080E-04  6120   0.167E-03 0.357E-03
CGA:   7    -0.426015758365E+03   -0.11012E-05   -0.44255E-05  6120   0.885E-04 0.648E-04
   7 F= -.42601576E+03 E0= -.42600727E+03  d E =-.508690E-03  mag=    10.0000
       N       E                     dE             d eps       ncg     rms          ort
SDA:   1    -0.426011040348E+03    0.47169E-02    0.00000E+00  6120   0.161E+00 0.000E+00
CGA:   2    -0.426015717166E+03   -0.46768E-02   -0.49855E-02  6120   0.686E-02-0.175E-01
CGA:   3    -0.426015768308E+03   -0.51143E-04   -0.10460E-03  6120   0.793E-03 0.101E-02
CGA:   4    -0.426015763891E+03    0.44176E-05   -0.15173E-04  6120   0.343E-03 0.397E-03
CGA:   5    -0.426015777404E+03   -0.13513E-04   -0.14423E-04  6120   0.243E-03 0.411E-04
CGA:   6    -0.426015775806E+03    0.15984E-05   -0.58266E-05  6120   0.117E-03 0.180E-03
   8 F= -.42601578E+03 E0= -.42600727E+03  d E =-.526131E-03  mag=    10.0000
       N       E                     dE             d eps       ncg     rms          ort
SDA:   1    -0.426013906705E+03    0.18707E-02    0.00000E+00  6120   0.121E+00 0.000E+00
CGA:   2    -0.426015727651E+03   -0.18209E-02   -0.20025E-02  6120   0.573E-03 0.627E-02
CGA:   3    -0.426015730352E+03   -0.27012E-05   -0.10398E-04  6120   0.170E-03 0.189E-03
CGA:   4    -0.426015391802E+03    0.33855E-03   -0.18365E-03  6120   0.135E-01-0.137E-02
CGA:   5    -0.426015822366E+03   -0.43056E-03   -0.34729E-03  6120   0.278E-02-0.139E-02
CGA:   6    -0.426015862277E+03   -0.39911E-04   -0.74225E-04  6120   0.543E-03 0.526E-03
CGA:   7    -0.426015853577E+03    0.87008E-05   -0.15990E-04  6120   0.241E-03 0.361E-03
   9 F= -.42601585E+03 E0= -.42600735E+03  d E =-.603902E-03  mag=    10.0000
       N       E                     dE             d eps       ncg     rms          ort
SDA:   1    -0.425878794650E+03    0.13707E+00    0.00000E+00  6120   0.623E+01 0.000E+00
CGA:   2    -0.426008335112E+03   -0.12954E+00   -0.10482E+00  6120   0.224E+00 0.110E+01
CGA:   3    -0.426012802578E+03   -0.44675E-02   -0.40745E-02  6120   0.264E-01 0.344E-01
CGA:   4    -0.426013844063E+03   -0.10415E-02   -0.97018E-03  6120   0.131E-01-0.298E-02
CGA:   5    -0.426014489639E+03   -0.64558E-03   -0.52812E-03  6120   0.195E-01-0.370E-02
CGA:   6    -0.426015277211E+03   -0.78757E-03   -0.75109E-03  6120   0.146E-01-0.159E-02
CGA:   7    -0.426015424127E+03   -0.14692E-03   -0.21312E-03  6120   0.338E-02 0.111E-02
CGA:   8    -0.426015470997E+03   -0.46870E-04   -0.93742E-04  6120   0.386E-02 0.101E-02
CGA:   9    -0.426015653309E+03   -0.18231E-03   -0.21328E-03  6120   0.227E-02 0.117E-02
CGA:  10    -0.426015739796E+03   -0.86487E-04   -0.71799E-04  6120   0.751E-03-0.367E-03
CGA:  11    -0.426015797351E+03   -0.57555E-04   -0.53989E-04  6120   0.346E-03 0.185E-03
CGA:  12    -0.426015489836E+03    0.30751E-03   -0.14003E-03  6120   0.172E-01-0.173E-02
CGA:  13    -0.426015893530E+03   -0.40369E-03   -0.36775E-03  6120   0.182E-02-0.132E-02
CGA:  14    -0.426015899118E+03   -0.55880E-05   -0.45099E-04  6120   0.526E-03 0.790E-03
CGA:  15    -0.426015894420E+03    0.46977E-05   -0.17908E-04  6120   0.339E-03 0.445E-03
CGA:  16    -0.426015921826E+03   -0.27405E-04   -0.29494E-04  6120   0.959E-03-0.143E-03
CGA:  17    -0.426015914123E+03    0.77026E-05   -0.74954E-05  6120   0.661E-03 0.257E-03
  10 F= -.42601591E+03 E0= -.42600742E+03  d E =-.605465E-04  mag=    10.0000
       N       E                     dE             d eps       ncg     rms          ort
SDA:   1    -0.426008001534E+03    0.79203E-02    0.00000E+00  6120   0.351E+00 0.000E+00
CGA:   2    -0.426015515824E+03   -0.75143E-02   -0.73611E-02  6120   0.186E-01-0.208E-01
CGA:   3    -0.426015918546E+03   -0.40272E-03   -0.42481E-03  6120   0.731E-03 0.723E-03
CGA:   4    -0.426015948244E+03   -0.29698E-04   -0.35879E-04  6120   0.310E-03 0.406E-03
CGA:   5    -0.426015947015E+03    0.12292E-05   -0.75479E-05  6120   0.192E-03 0.234E-03
CGA:   6    -0.426015946842E+03    0.17332E-06   -0.52065E-05  6120   0.139E-03 0.164E-03
  11 F= -.42601595E+03 E0= -.42600742E+03  d E =-.932648E-04  mag=    10.0000
       N       E                     dE             d eps       ncg     rms          ort
SDA:   1    -0.426015203473E+03    0.74354E-03    0.00000E+00  6120   0.102E-01 0.000E+00
CGA:   2    -0.426015495805E+03   -0.29233E-03   -0.31575E-03  6120   0.280E-02 0.963E-03
CGA:   3    -0.426015382294E+03    0.11351E-03   -0.41307E-03  6120   0.257E-01-0.657E-02
CGA:   4    -0.426015803755E+03   -0.42146E-03   -0.48634E-03  6120   0.219E-02 0.209E-02
CGA:   5    -0.426015904396E+03   -0.10064E-03   -0.10137E-03  6120   0.836E-03 0.516E-04
CGA:   6    -0.426015921460E+03   -0.17065E-04   -0.24397E-04  6120   0.284E-03 0.259E-03
CGA:   7    -0.426015915946E+03    0.55142E-05   -0.43798E-05  6120   0.106E-03 0.228E-03
  12 F= -.42601592E+03 E0= -.42600740E+03  d E =-.623695E-04  mag=    10.0000
       N       E                     dE             d eps       ncg     rms          ort
SDA:   1    -0.426013829320E+03    0.20921E-02    0.00000E+00  6120   0.674E-01 0.000E+00
CGA:   2    -0.426015659102E+03   -0.18298E-02   -0.16824E-02  6120   0.668E-02-0.814E-02
CGA:   3    -0.426015771619E+03   -0.11252E-03   -0.12148E-03  6120   0.226E-03 0.359E-03
CGA:   4    -0.426015785206E+03   -0.13586E-04   -0.17028E-04  6120   0.791E-03-0.148E-03
CGA:   5    -0.426015708777E+03    0.76428E-04   -0.76130E-04  6120   0.149E-01-0.329E-02
CGA:   6    -0.426015872315E+03   -0.16354E-03   -0.22956E-03  6120   0.246E-03 0.182E-02
CGA:   7    -0.426015869124E+03    0.31910E-05   -0.24024E-05  6120   0.663E-04 0.135E-03
  13 F= -.42601587E+03 E0= -.42600736E+03  d E =-.155474E-04  mag=    10.0000
       N       E                     dE             d eps       ncg     rms          ort
SDA:   1    -0.426015050359E+03    0.82196E-03    0.00000E+00  6120   0.390E-01 0.000E+00
CGA:   2    -0.426015919003E+03   -0.86864E-03   -0.76825E-03  6120   0.113E-02-0.445E-02
CGA:   3    -0.426015925092E+03   -0.60882E-05   -0.17131E-04  6120   0.222E-03 0.402E-03
CGA:   4    -0.426015922856E+03    0.22356E-05   -0.35047E-05  6120   0.125E-03 0.182E-03
CGA:   5    -0.426015923877E+03   -0.10213E-05   -0.28372E-05  6120   0.759E-04 0.964E-04
CGA:   6    -0.426015923050E+03    0.82691E-06   -0.10101E-05  6120   0.592E-04 0.673E-04
  14 F= -.42601592E+03 E0= -.42600740E+03  d E =-.694736E-04  mag=    10.0000
       N       E                     dE             d eps       ncg     rms          ort
SDA:   1    -0.426015448172E+03    0.47570E-03    0.00000E+00  6120   0.549E-02 0.000E+00
CGA:   2    -0.426015573298E+03   -0.12513E-03   -0.13764E-03  6120   0.148E-02 0.966E-03
CGA:   3    -0.426015716622E+03   -0.14332E-03    0.30132E-03  6120   0.472E-03 0.419E-03
CGA:   4    -0.426015812570E+03   -0.95947E-04    0.10038E-04  6120   0.134E-03 0.118E-03
CGA:   5    -0.426015837364E+03   -0.24794E-04    0.31421E-05  6120   0.957E-04-0.243E-04
CGA:   6    -0.426015868223E+03   -0.30859E-04    0.34048E-06  6120   0.604E-04 0.436E-04
CGA:   7    -0.426015890764E+03   -0.22542E-04    0.67068E-06  6120   0.554E-04 0.121E-04
CGA:   8    -0.426015901530E+03   -0.10765E-04    0.10601E-05  6120   0.329E-04 0.229E-04
CGA:   9    -0.426015909154E+03   -0.76247E-05    0.71976E-06  6120   0.255E-04 0.446E-05
  15 F= -.42601591E+03 E0= -.42600739E+03  d E =-.555776E-04  mag=    10.0000
       N       E                     dE             d eps       ncg     rms          ort
SDA:   1    -0.426015443035E+03    0.45849E-03    0.00000E+00  6120   0.122E-01 0.000E+00
CGA:   2    -0.426015915241E+03   -0.47221E-03   -0.47910E-03  6120   0.197E-02-0.354E-02
CGA:   3    -0.426015927655E+03   -0.12414E-04   -0.27246E-04  6120   0.859E-03 0.827E-03
CGA:   4    -0.426015932577E+03   -0.49227E-05   -0.18485E-04  6120   0.372E-03 0.639E-03
CGA:   5    -0.426015958940E+03   -0.26362E-04   -0.25558E-04  6120   0.640E-03 0.238E-04
CGA:   6    -0.426015970393E+03   -0.11453E-04   -0.17032E-04  6120   0.336E-03 0.461E-03
CGA:   7    -0.426015984324E+03   -0.13931E-04   -0.14102E-04  6120   0.243E-03-0.310E-04
CGA:   8    -0.426016011315E+03   -0.26991E-04    0.60780E-05  6120   0.173E-03 0.114E-03
CGA:   9    -0.426016028131E+03   -0.16816E-04   -0.15566E-04  6120   0.201E-03 0.515E-04
CGA:  10    -0.426016027286E+03    0.84525E-06   -0.34597E-05  6120   0.959E-04 0.174E-03
  16 F= -.42601603E+03 E0= -.42600750E+03  d E =-.118132E-03  mag=    10.0000
       N       E                     dE             d eps       ncg     rms          ort
SDA:   1    -0.426015740852E+03    0.28728E-03    0.00000E+00  6120   0.122E-01 0.000E+00
CGA:   2    -0.426016045148E+03   -0.30430E-03   -0.31547E-03  6120   0.493E-03 0.128E-02
CGA:   3    -0.426016041896E+03    0.32517E-05   -0.50972E-05  6120   0.177E-03 0.323E-03
CGA:   4    -0.426016039721E+03    0.21751E-05   -0.13126E-05  6120   0.101E-03 0.131E-03
CGA:   5    -0.426016038335E+03    0.13856E-05   -0.70585E-06  6120   0.676E-04 0.816E-04
CGA:   6    -0.426016037433E+03    0.90248E-06   -0.48158E-06  6120   0.495E-04 0.572E-04
  17 F= -.42601604E+03 E0= -.42600752E+03  d E =-.128278E-03  mag=    10.0000
