 vasp.6.1.2 22Jul20 (build Dec 05 2020 14:50:36) complex                        
  
 executed on         CrayXC-Intel date 2021.06.14  07:13:23
 running on   24 total cores
 distrk:  each k-point on   24 cores,    1 groups
 distr:  one band on NCORE=   4 cores,    6 groups


--------------------------------------------------------------------------------------------------------


 INCAR:
 POTCAR:    PAW_PBE Ca_sv 06Sep2000               
 POTCAR:    PAW_PBE V_pv 07Sep2000                
 POTCAR:    PAW_PBE O 08Apr2002                   
 POTCAR:    PAW_PBE Ca_sv 06Sep2000               
   VRHFIN =Ca: 3s3p4s                                                                               
   LEXCH  = PE                                                                                      
   EATOM  =  1006.0909 eV,   73.9456 Ry                                                             
                                                                                                    
   TITEL  = PAW_PBE Ca_sv 06Sep2000                                                                 
   LULTRA =        F    use ultrasoft PP ?                                                          
   IUNSCR =        1    unscreen: 0-lin 1-nonlin 2-no                                               
   RPACOR =    2.000    partial core radius                                                         
   POMASS =   40.078; ZVAL   =   10.000    mass and valenz                                          
   RCORE  =    2.300    outmost cutoff radius                                                       
   RWIGS  =    2.500; RWIGS  =    1.323    wigner-seitz radius (au A)                               
   ENMAX  =  266.622; ENMIN  =  199.967 eV                                                          
   RCLOC  =    1.808    cutoff for local pot                                                        
   LCOR   =        T    correct aug charges                                                         
   LPAW   =        T    paw PP                                                                      
   EAUG   =  420.852                                                                                
   RMAX   =    2.359    core radius for proj-oper                                                   
   RAUG   =    1.300    factor for augmentation sphere                                              
   RDEP   =    2.392    radius for radial grids                                                     
   RDEPT  =    1.987    core radius for aug-charge                                                  
                                                                                                    
   Atomic configuration                                                                             
    7 entries                                                                                       
     n  l   j            E        occ.                                                              
     1  0  0.50     -3949.1705   2.0000                                                             
     2  0  0.50      -414.3434   2.0000                                                             
     2  1  1.50      -334.7047   6.0000                                                             
     3  0  0.50       -47.0896   2.0000                                                             
     4  0  0.50        -3.7663   2.0000                                                             
     3  1  1.50       -28.0061   6.0000                                                             
     3  2  1.50        -4.0817   0.0000                                                             
   Description                                                                                      
     l       E           TYP  RCUT    TYP  RCUT                                                     
     0    -47.0896403     23  2.300                                                                 
     0     -3.7663320     23  2.300                                                                 
     1    -28.0060855     23  2.300                                                                 
     1      6.8029130     23  2.300                                                                 
     2     -4.0817478     23  2.300                                                                 
     2      0.4464412     23  2.300                                                                 
  local pseudopotential read in
  partial core-charges read in
  partial kinetic energy density read in
  atomic valenz-charges read in
  non local Contribution for L=           0  read in
    real space projection operators read in
  non local Contribution for L=           0  read in
    real space projection operators read in
  non local Contribution for L=           1  read in
    real space projection operators read in
  non local Contribution for L=           1  read in
    real space projection operators read in
  non local Contribution for L=           2  read in
    real space projection operators read in
  non local Contribution for L=           2  read in
    real space projection operators read in
    PAW grid and wavefunctions read in
 
   number of l-projection  operators is LMAX  =           6
   number of lm-projection operators is LMMAX =          18
 
 POTCAR:    PAW_PBE V_pv 07Sep2000                
   VRHFIN =V: p6 d4 s1                                                                              
   LEXCH  = PE                                                                                      
   EATOM  =  1321.6206 eV,   97.1364 Ry                                                             
                                                                                                    
   TITEL  = PAW_PBE V_pv 07Sep2000                                                                  
   LULTRA =        F    use ultrasoft PP ?                                                          
   IUNSCR =        1    unscreen: 0-lin 1-nonlin 2-no                                               
   RPACOR =    1.700    partial core radius                                                         
   POMASS =   50.941; ZVAL   =   11.000    mass and valenz                                          
   RCORE  =    2.300    outmost cutoff radius                                                       
   RWIGS  =    2.300; RWIGS  =    1.217    wigner-seitz radius (au A)                               
   ENMAX  =  263.673; ENMIN  =  197.755 eV                                                          
   RCLOC  =    1.779    cutoff for local pot                                                        
   LCOR   =        T    correct aug charges                                                         
   LPAW   =        T    paw PP                                                                      
   EAUG   =  598.473                                                                                
   DEXC   =    0.000                                                                                
   RMAX   =    2.359    core radius for proj-oper                                                   
   RAUG   =    1.300    factor for augmentation sphere                                              
   RDEP   =    2.430    radius for radial grids                                                     
   RDEPT  =    1.700    core radius for aug-charge                                                  
                                                                                                    
   Atomic configuration                                                                             
    8 entries                                                                                       
     n  l   j            E        occ.                                                              
     1  0  0.50     -5360.7193   2.0000                                                             
     2  0  0.50      -598.4546   2.0000                                                             
     2  1  1.50      -499.0155   6.0000                                                             
     3  0  0.50       -66.5711   2.0000                                                             
     3  1  1.50       -40.5282   6.0000                                                             
     3  2  2.50        -2.4291   4.0000                                                             
     4  0  0.50        -3.8743   1.0000                                                             
     4  3  2.50        -1.3606   0.0000                                                             
   Description                                                                                      
     l       E           TYP  RCUT    TYP  RCUT                                                     
     1    -40.5282431     23  2.000                                                                 
     1      5.4423304     23  2.000                                                                 
     2     -2.4290905     23  2.300                                                                 
     2     -1.0472488     23  2.300                                                                 
     0     -3.8742754     23  2.300                                                                 
     0     27.2116520     23  2.300                                                                 
  local pseudopotential read in
  partial core-charges read in
  partial kinetic energy density read in
  atomic valenz-charges read in
  non local Contribution for L=           1  read in
    real space projection operators read in
  non local Contribution for L=           1  read in
    real space projection operators read in
  non local Contribution for L=           2  read in
    real space projection operators read in
  non local Contribution for L=           2  read in
    real space projection operators read in
  non local Contribution for L=           0  read in
    real space projection operators read in
  non local Contribution for L=           0  read in
    real space projection operators read in
    PAW grid and wavefunctions read in
 
   number of l-projection  operators is LMAX  =           6
   number of lm-projection operators is LMMAX =          18
 
 POTCAR:    PAW_PBE O 08Apr2002                   
   VRHFIN =O: s2p4                                                                                  
   LEXCH  = PE                                                                                      
   EATOM  =   432.3788 eV,   31.7789 Ry                                                             
                                                                                                    
   TITEL  = PAW_PBE O 08Apr2002                                                                     
   LULTRA =        F    use ultrasoft PP ?                                                          
   IUNSCR =        1    unscreen: 0-lin 1-nonlin 2-no                                               
   RPACOR =    1.200    partial core radius                                                         
   POMASS =   16.000; ZVAL   =    6.000    mass and valenz                                          
   RCORE  =    1.520    outmost cutoff radius                                                       
   RWIGS  =    1.550; RWIGS  =    0.820    wigner-seitz radius (au A)                               
   ENMAX  =  400.000; ENMIN  =  300.000 eV                                                          
   ICORE  =        2    local potential                                                             
   LCOR   =        T    correct aug charges                                                         
   LPAW   =        T    paw PP                                                                      
   EAUG   =  605.392                                                                                
   DEXC   =    0.000                                                                                
   RMAX   =    1.553    core radius for proj-oper                                                   
   RAUG   =    1.300    factor for augmentation sphere                                              
   RDEP   =    1.550    radius for radial grids                                                     
   RDEPT  =    1.329    core radius for aug-charge                                                  
                                                                                                    
   Atomic configuration                                                                             
    4 entries                                                                                       
     n  l   j            E        occ.                                                              
     1  0  0.50      -514.6923   2.0000                                                             
     2  0  0.50       -23.9615   2.0000                                                             
     2  1  0.50        -9.0305   4.0000                                                             
     3  2  1.50        -9.5241   0.0000                                                             
   Description                                                                                      
     l       E           TYP  RCUT    TYP  RCUT                                                     
     0    -23.9615318     23  1.200                                                                 
     0     -9.5240782     23  1.200                                                                 
     1     -9.0304911     23  1.520                                                                 
     1      8.1634956     23  1.520                                                                 
     2     -9.5240782      7  1.500                                                                 
  local pseudopotential read in
  partial core-charges read in
  partial kinetic energy density read in
  kinetic energy density of atom read in
  atomic valenz-charges read in
  non local Contribution for L=           0  read in
    real space projection operators read in
  non local Contribution for L=           0  read in
    real space projection operators read in
  non local Contribution for L=           1  read in
    real space projection operators read in
  non local Contribution for L=           1  read in
    real space projection operators read in
    PAW grid and wavefunctions read in
 
   number of l-projection  operators is LMAX  =           4
   number of lm-projection operators is LMMAX =           8
 
 Optimization of the real space projectors (new method)

 maximal supplied QI-value         = 16.25
 optimisation between [QCUT,QGAM] = [ 11.54, 23.24] = [ 37.28,151.24] Ry 
 Optimized for a Real-space Cutoff    1.58 Angstroem

   l    n(q)    QCUT    max X(q) W(low)/X(q) W(high)/X(q)  e(spline) 
   0     11    11.539    11.817    0.25E-04    0.22E-05    0.26E-07
   0     11    11.539     8.461    0.39E-04    0.49E-05    0.55E-07
   1     11    11.539     3.957    0.21E-05    0.44E-05    0.32E-07
   1     11    11.539     4.314    0.56E-04    0.44E-04    0.19E-06
   2     10    11.539    14.565    0.25E-03    0.21E-04    0.75E-06
   2     10    11.539    14.552    0.23E-03    0.22E-04    0.72E-06
 Optimization of the real space projectors (new method)

 maximal supplied QI-value         = 16.25
 optimisation between [QCUT,QGAM] = [ 11.54, 23.24] = [ 37.28,151.24] Ry 
 Optimized for a Real-space Cutoff    1.53 Angstroem

   l    n(q)    QCUT    max X(q) W(low)/X(q) W(high)/X(q)  e(spline) 
   1     10    11.539     3.206    0.43E-05    0.46E-05    0.52E-07
   1     10    11.539     4.597    0.39E-04    0.25E-04    0.17E-06
   2     10    11.539    89.000    0.10E-03    0.13E-03    0.24E-06
   2     10    11.539    82.410    0.10E-03    0.13E-03    0.23E-06
   0     11    11.539    36.565    0.42E-04    0.19E-04    0.30E-06
   0     11    11.539    13.729    0.20E-04    0.13E-04    0.22E-06
 Optimization of the real space projectors (new method)

 maximal supplied QI-value         = 24.76
 optimisation between [QCUT,QGAM] = [ 11.64, 23.27] = [ 37.91,151.63] Ry 
 Optimized for a Real-space Cutoff    1.14 Angstroem

   l    n(q)    QCUT    max X(q) W(low)/X(q) W(high)/X(q)  e(spline) 
   0      8    11.635    20.381    0.10E-03    0.33E-03    0.24E-06
   0      8    11.635    15.268    0.11E-03    0.35E-03    0.26E-06
   1      7    11.635     5.964    0.24E-03    0.31E-03    0.30E-06
   1      7    11.635     5.382    0.22E-03    0.25E-03    0.26E-06
  PAW_PBE Ca_sv 06Sep2000               :
 energy of atom  1       EATOM=-1006.0909
 kinetic energy error for atom=    0.0022 (will be added to EATOM!!)
  PAW_PBE V_pv 07Sep2000                :
 energy of atom  2       EATOM=-1321.6206
 kinetic energy error for atom=    0.0054 (will be added to EATOM!!)
  PAW_PBE O 08Apr2002                   :
 energy of atom  3       EATOM= -432.3788
 kinetic energy error for atom=    0.0208 (will be added to EATOM!!)
 
 
 POSCAR: Ca4 V4 O14
  positions in direct lattice
  velocities in cartesian coordinates

 METAGGA = SCAN     LMAXTAU =  6    LMIXTAU =  F

 exchange correlation table for  LEXCH =        8
   RHO(1)=    0.500       N(1)  =     2000
   RHO(2)=  100.500       N(2)  =     4000
 


--------------------------------------------------------------------------------------------------------


 ion  position               nearest neighbor table
   1  0.742  0.841  0.330-  16 2.31  11 2.36  14 2.39  19 2.39  21 2.43  20 2.44   9 2.49
   2  0.258  0.159  0.670-  15 2.31  12 2.36  13 2.39  20 2.39  22 2.43  19 2.44  10 2.49
   3  0.269  0.561  0.265-  16 2.31  22 2.39  18 2.39  17 2.39  13 2.43  14 2.52
   4  0.731  0.439  0.735-  15 2.31  21 2.39  17 2.39  18 2.39  14 2.43  13 2.52
   5  0.195  0.666  0.768-  19 1.70  17 1.71  13 1.74   9 1.75
   6  0.805  0.334  0.232-  20 1.70  18 1.71  14 1.74  10 1.75
   7  0.726  0.945  0.846-  21 1.67  15 1.69  11 1.87  12 1.88   9 2.01   8 2.88
   8  0.274  0.055  0.154-  22 1.67  16 1.69  12 1.87  11 1.88  10 2.01   7 2.88
   9  0.949  0.802  0.939-   5 1.75   7 2.01   1 2.49
  10  0.051  0.198  0.061-   6 1.75   8 2.01   2 2.49
  11  0.534  0.900  0.130-   7 1.87   8 1.88   1 2.36
  12  0.466  0.100  0.870-   8 1.87   7 1.88   2 2.36
  13  0.131  0.492  0.643-   5 1.74   2 2.39   3 2.43   4 2.52
  14  0.869  0.508  0.357-   6 1.74   1 2.39   4 2.43   3 2.52
  15  0.893  0.126  0.734-   7 1.69   2 2.31   4 2.31
  16  0.107  0.874  0.266-   8 1.69   1 2.31   3 2.31
  17  0.342  0.554  0.899-   5 1.71   4 2.39   3 2.39
  18  0.658  0.446  0.101-   6 1.71   3 2.39   4 2.39
  19  0.359  0.817  0.576-   5 1.70   1 2.39   2 2.44
  20  0.641  0.183  0.424-   6 1.70   2 2.39   1 2.44
  21  0.750  0.780  0.672-   7 1.67   4 2.39   1 2.43
  22  0.250  0.220  0.328-   8 1.67   3 2.39   2 2.43
 

IMPORTANT INFORMATION: All symmetrisations will be switched off!
NOSYMM: (Re-)initialisation of all symmetry stuff for point group C_1.


----------------------------------------------------------------------------------------

                                     Primitive cell                                     

  volume of cell :     289.5182

  direct lattice vectors                    reciprocal lattice vectors
     5.987175964  0.029403208  2.940994547     0.167093052 -0.016161338  0.000020297
     0.666477818  6.891321712  0.451644566    -0.000560095  0.145184614 -0.000311292
     0.000603383  0.015055902  7.020900695    -0.069957803 -0.002569675  0.142443391

  length of vectors
     6.670576400  6.938190718  7.020916864     0.167872800  0.145186028  0.158716152

  position of ions in fractional coordinates (direct lattice)
     0.742227623  0.841215327  0.329851551
     0.257776780  0.158788046  0.670143742
     0.268944980  0.560660532  0.264674688
     0.731062219  0.439339178  0.735325883
     0.195166765  0.666020128  0.768282952
     0.804824418  0.333984630  0.231724146
     0.726315269  0.944880219  0.845661251
     0.273680556  0.055122019  0.154332784
     0.949171117  0.802054944  0.938702900
     0.050820672  0.197949070  0.061306788
     0.533809665  0.899959261  0.130285977
     0.466186335  0.100046406  0.869715868
     0.131398432  0.492019246  0.642676610
     0.868595524  0.507979390  0.357322701
     0.893362911  0.125927447  0.733672537
     0.106646837  0.874059525  0.266316796
     0.341551544  0.553670530  0.899272474
     0.658440784  0.446332711  0.100725527
     0.358992044  0.817329678  0.576039585
     0.641016997  0.182668446  0.423958188
     0.749570679  0.780418859  0.672432423
     0.250437847  0.219574407  0.327574629

  ion indices of the primitive-cell ions
   primitive index   ion index
                 1           1
                 2           2
                 3           3
                 4           4
                 5           5
                 6           6
                 7           7
                 8           8
                 9           9
                10          10
                11          11
                12          12
                13          13
                14          14
                15          15
                16          16
                17          17
                18          18
                19          19
                20          20
                21          21
                22          22

----------------------------------------------------------------------------------------

 
 
 KPOINTS: K-points file                           

Automatic generation of k-mesh.
Space group operators:
 irot       det(A)        alpha          n_x          n_y          n_z        tau_x        tau_y        tau_z
    1     1.000000     0.000000     1.000000     0.000000     0.000000     0.000000     0.000000     0.000000
 
 Subroutine IBZKPT returns following result:
 ===========================================
 
 Found     63 irreducible k-points:
 
 Following reciprocal coordinates:
            Coordinates               Weight
  0.000000  0.000000  0.000000      1.000000
  0.200000 -0.000000 -0.000000      2.000000
  0.400000 -0.000000 -0.000000      2.000000
  0.000000  0.200000 -0.000000      2.000000
  0.200000  0.200000 -0.000000      2.000000
  0.400000  0.200000  0.000000      2.000000
 -0.400000  0.200000  0.000000      2.000000
 -0.200000  0.200000  0.000000      2.000000
  0.000000  0.400000 -0.000000      2.000000
  0.200000  0.400000 -0.000000      2.000000
  0.400000  0.400000  0.000000      2.000000
 -0.400000  0.400000  0.000000      2.000000
 -0.200000  0.400000 -0.000000      2.000000
  0.000000  0.000000  0.200000      2.000000
  0.200000  0.000000  0.200000      2.000000
  0.400000 -0.000000  0.200000      2.000000
 -0.400000  0.000000  0.200000      2.000000
 -0.200000  0.000000  0.200000      2.000000
  0.000000  0.200000  0.200000      2.000000
  0.200000  0.200000  0.200000      2.000000
  0.400000  0.200000  0.200000      2.000000
 -0.400000  0.200000  0.200000      2.000000
 -0.200000  0.200000  0.200000      2.000000
  0.000000  0.400000  0.200000      2.000000
  0.200000  0.400000  0.200000      2.000000
  0.400000  0.400000  0.200000      2.000000
 -0.400000  0.400000  0.200000      2.000000
 -0.200000  0.400000  0.200000      2.000000
  0.000000 -0.400000  0.200000      2.000000
  0.200000 -0.400000  0.200000      2.000000
  0.400000 -0.400000  0.200000      2.000000
 -0.400000 -0.400000  0.200000      2.000000
 -0.200000 -0.400000  0.200000      2.000000
  0.000000 -0.200000  0.200000      2.000000
  0.200000 -0.200000  0.200000      2.000000
  0.400000 -0.200000  0.200000      2.000000
 -0.400000 -0.200000  0.200000      2.000000
 -0.200000 -0.200000  0.200000      2.000000
  0.000000 -0.000000  0.400000      2.000000
  0.200000  0.000000  0.400000      2.000000
  0.400000 -0.000000  0.400000      2.000000
 -0.400000  0.000000  0.400000      2.000000
 -0.200000 -0.000000  0.400000      2.000000
  0.000000  0.200000  0.400000      2.000000
  0.200000  0.200000  0.400000      2.000000
  0.400000  0.200000  0.400000      2.000000
 -0.400000  0.200000  0.400000      2.000000
 -0.200000  0.200000  0.400000      2.000000
  0.000000  0.400000  0.400000      2.000000
  0.200000  0.400000  0.400000      2.000000
  0.400000  0.400000  0.400000      2.000000
 -0.400000  0.400000  0.400000      2.000000
 -0.200000  0.400000  0.400000      2.000000
  0.000000 -0.400000  0.400000      2.000000
  0.200000 -0.400000  0.400000      2.000000
  0.400000 -0.400000  0.400000      2.000000
 -0.400000 -0.400000  0.400000      2.000000
 -0.200000 -0.400000  0.400000      2.000000
  0.000000 -0.200000  0.400000      2.000000
  0.200000 -0.200000  0.400000      2.000000
  0.400000 -0.200000  0.400000      2.000000
 -0.400000 -0.200000  0.400000      2.000000
 -0.200000 -0.200000  0.400000      2.000000
 
 Following cartesian coordinates:
            Coordinates               Weight
  0.000000  0.000000  0.000000      1.000000
  0.033419 -0.003232  0.000004      2.000000
  0.066837 -0.006465  0.000008      2.000000
 -0.000112  0.029037 -0.000062      2.000000
  0.033307  0.025805 -0.000058      2.000000
  0.066725  0.022572 -0.000054      2.000000
 -0.066949  0.035501 -0.000070      2.000000
 -0.033531  0.032269 -0.000066      2.000000
 -0.000224  0.058074 -0.000125      2.000000
  0.033195  0.054842 -0.000120      2.000000
  0.066613  0.051609 -0.000116      2.000000
 -0.067061  0.064538 -0.000133      2.000000
 -0.033643  0.061306 -0.000129      2.000000
 -0.013992 -0.000514  0.028489      2.000000
  0.019427 -0.003746  0.028493      2.000000
  0.052846 -0.006978  0.028497      2.000000
 -0.080829  0.005951  0.028481      2.000000
 -0.047410  0.002718  0.028485      2.000000
 -0.014104  0.028523  0.028426      2.000000
  0.019315  0.025291  0.028430      2.000000
  0.052734  0.022058  0.028435      2.000000
 -0.080941  0.034988  0.028418      2.000000
 -0.047522  0.031755  0.028422      2.000000
 -0.014216  0.057560  0.028364      2.000000
  0.019203  0.054328  0.028368      2.000000
  0.052622  0.051095  0.028372      2.000000
 -0.081053  0.064024  0.028356      2.000000
 -0.047634  0.060792  0.028360      2.000000
 -0.013768 -0.058588  0.028613      2.000000
  0.019651 -0.061820  0.028617      2.000000
  0.053070 -0.065052  0.028621      2.000000
 -0.080605 -0.052123  0.028605      2.000000
 -0.047186 -0.055356  0.028609      2.000000
 -0.013880 -0.029551  0.028551      2.000000
  0.019539 -0.032783  0.028555      2.000000
  0.052958 -0.036015  0.028559      2.000000
 -0.080717 -0.023086  0.028543      2.000000
 -0.047298 -0.026319  0.028547      2.000000
 -0.027983 -0.001028  0.056977      2.000000
  0.005435 -0.004260  0.056981      2.000000
  0.038854 -0.007492  0.056985      2.000000
 -0.094820  0.005437  0.056969      2.000000
 -0.061402  0.002204  0.056973      2.000000
 -0.028095  0.028009  0.056915      2.000000
  0.005323  0.024777  0.056919      2.000000
  0.038742  0.021545  0.056923      2.000000
 -0.094932  0.034474  0.056907      2.000000
 -0.061514  0.031241  0.056911      2.000000
 -0.028207  0.057046  0.056853      2.000000
  0.005211  0.053814  0.056857      2.000000
  0.038630  0.050581  0.056861      2.000000
 -0.095044  0.063511  0.056845      2.000000
 -0.061626  0.060278  0.056849      2.000000
 -0.027759 -0.059102  0.057102      2.000000
  0.005660 -0.062334  0.057106      2.000000
  0.039078 -0.065566  0.057110      2.000000
 -0.094596 -0.052637  0.057094      2.000000
 -0.061178 -0.055869  0.057098      2.000000
 -0.027871 -0.030065  0.057040      2.000000
  0.005548 -0.033297  0.057044      2.000000
  0.038966 -0.036529  0.057048      2.000000
 -0.094708 -0.023600  0.057031      2.000000
 -0.061290 -0.026833  0.057036      2.000000
 


--------------------------------------------------------------------------------------------------------




 Dimension of arrays:
   k-points           NKPTS =     63   k-points in BZ     NKDIM =     63   number of bands    NBANDS=    102
   number of dos      NEDOS =    301   number of ions     NIONS =     22
   non local maximal  LDIM  =      6   non local SUM 2l+1 LMDIM =     18
   total plane-waves  NPLWV = 145800
   max r-space proj   IRMAX =   8367   max aug-charges    IRDMAX=  24224
   dimension x,y,z NGX =    50 NGY =   54 NGZ =   54
   dimension x,y,z NGXF=   100 NGYF=  108 NGZF=  108
   support grid    NGXF=   100 NGYF=  108 NGZF=  108
   ions per type =               4   4  14
   NGX,Y,Z   is equivalent  to a cutoff of  12.46, 12.94, 12.79 a.u.
   NGXF,Y,Z  is equivalent  to a cutoff of  24.92, 25.88, 25.57 a.u.

 SYSTEM =  unknown system                          
 POSCAR =  Ca4 V4 O14                              

 Startparameter for this run:
   NWRITE =      2    write-flag & timer
   PREC   = accura    normal or accurate (medium, high low for compatibility)
   ISTART =      0    job   : 0-new  1-cont  2-samecut
   ICHARG =      1    charge: 1-file 2-atom 10-const
   ISPIN  =      2    spin polarized calculation?
   LNONCOLLINEAR =      F non collinear calculations
   LSORBIT =      F    spin-orbit coupling
   INIWAV =      1    electr: 0-lowe 1-rand  2-diag
   LASPH  =      T    aspherical Exc in radial PAW
   METAGGA=      F    non-selfconsistent MetaGGA calc.

 Electronic Relaxation 1
   ENCUT  =  520.0 eV  38.22 Ry    6.18 a.u.  12.40 12.90 13.05*2*pi/ulx,y,z
   ENINI  =  520.0     initial cutoff
   ENAUG  =  605.4 eV  augmentation charge cutoff
   NELM   =    100;   NELMIN=  6; NELMDL= -5     # of ELM steps 
   EDIFF  = 0.1E-04   stopping-criterion for ELM
   LREAL  =      T    real-space projection
   NLSPLINE    = F    spline interpolate recip. space projectors
   LCOMPAT=      F    compatible to vasp.4.4
   GGA_COMPAT  = T    GGA compatible to vasp.4.4-vasp.4.6
   LMAXPAW     = -100 max onsite density
   LMAXMIX     =    4 max onsite mixed and CHGCAR
   VOSKOWN=      0    Vosko Wilk Nusair interpolation
   ROPT   =   -0.00025  -0.00025  -0.00025
 Ionic relaxation
   EDIFFG = -.3E-01   stopping-criterion for IOM
   NSW    =     99    number of steps for IOM
   NBLOCK =      1;   KBLOCK =     99    inner block; outer block 
   IBRION =      2    ionic relax: 0-MD 1-quasi-New 2-CG
   NFREE  =      1    steps in history (QN), initial steepest desc. (CG)
   ISIF   =      3    stress and relaxation
   IWAVPR =     11    prediction:  0-non 1-charg 2-wave 3-comb
   ISYM   =      0    0-nonsym 1-usesym 2-fastsym
   LCORR  =      T    Harris-Foulkes like correction to forces

   POTIM  = 0.5000    time-step for ionic-motion
   TEIN   =    0.0    initial temperature
   TEBEG  =    0.0;   TEEND  =   0.0 temperature during run
   SMASS  =  -3.00    Nose mass-parameter (am)
   estimated Nose-frequenzy (Omega)   =  0.10E-29 period in steps = 0.13E+47 mass=  -0.102E-26a.u.
   SCALEE = 1.0000    scale energy and forces
   NPACO  =    256;   APACO  = 16.0  distance and # of slots for P.C.
   PSTRESS=    0.0 pullay stress

  Mass of Ions in am
   POMASS =  40.08 50.94 16.00
  Ionic Valenz
   ZVAL   =  10.00 11.00  6.00
  Atomic Wigner-Seitz radii
   RWIGS  =  -1.00 -1.00 -1.00
  virtual crystal weights 
   VCA    =   1.00  1.00  1.00
   NELECT =     168.0000    total number of electrons
   NUPDOWN=      -1.0000    fix difference up-down

 DOS related values:
   EMIN   =  10.00;   EMAX   =-10.00  energy-range for DOS
   EFERMI =   0.00
   ISMEAR =     0;   SIGMA  =   0.05  broadening in eV -4-tet -1-fermi 0-gaus

 Electronic relaxation 2 (details)
   IALGO  =     38    algorithm
   LDIAG  =      T    sub-space diagonalisation (order eigenvalues)
   LSUBROT=      F    optimize rotation matrix (better conditioning)
   TURBO    =      0    0=normal 1=particle mesh
   IRESTART =      0    0=no restart 2=restart with 2 vectors
   NREBOOT  =      0    no. of reboots
   NMIN     =      0    reboot dimension
   EREF     =   0.00    reference energy to select bands
   IMIX   =      4    mixing-type and parameters
     AMIX     =   0.40;   BMIX     =  1.00
     AMIX_MAG =   1.60;   BMIX_MAG =  1.00
     AMIN     =   0.10
     WC   =   100.;   INIMIX=   1;  MIXPRE=   1;  MAXMIX= -45

 Intra band minimization:
   WEIMIN = 0.0010     energy-eigenvalue tresh-hold
   EBREAK =  0.25E-07  absolut break condition
   DEPER  =   0.30     relativ break condition  

   TIME   =   0.40     timestep for ELM

  volume/ion in A,a.u.               =      13.16        88.81
  Fermi-wavevector in a.u.,A,eV,Ry     =   1.365482  2.580387 25.368618  1.864541
  Thomas-Fermi vector in A             =   2.491706
 
 Write flags
   LWAVE        =      F    write WAVECAR
   LDOWNSAMPLE  =      F    k-point downsampling of WAVECAR
   LCHARG       =      T    write CHGCAR
   LVTOT        =      F    write LOCPOT, total local potential
   LVHAR        =      F    write LOCPOT, Hartree potential only
   LELF         =      F    write electronic localiz. function (ELF)
   LORBIT       =     11    0 simple, 1 ext, 2 COOP (PROOUT), +10 PAW based schemes


 Dipole corrections
   LMONO  =      F    monopole corrections only (constant potential shift)
   LDIPOL =      F    correct potential (dipole corrections)
   IDIPOL =      0    1-x, 2-y, 3-z, 4-all directions 
   EPSILON=  1.0000000 bulk dielectric constant

 LDA+U is selected, type is set to LDAUTYPE =  2
   angular momentum for each species LDAUL =    -1    2   -1
   U (eV)           for each species LDAUU =   0.0  1.0  0.0
   J (eV)           for each species LDAUJ =   0.0  0.0  0.0
 Exchange correlation treatment:
   GGA     =    --    GGA type
   LEXCH   =     8    internal setting for exchange type
   VOSKOWN=      0    Vosko Wilk Nusair interpolation
   LHFCALC =     F    Hartree Fock is set to
   LHFONE  =     F    Hartree Fock one center treatment
   AEXX    =    0.0000 exact exchange contribution

 Linear response parameters
   LEPSILON=     F    determine dielectric tensor
   LRPA    =     F    only Hartree local field effects (RPA)
   LNABLA  =     F    use nabla operator in PAW spheres
   LVEL    =     F    velocity operator in full k-point grid
   LINTERFAST=   F  fast interpolation
   KINTER  =     0    interpolate to denser k-point grid
   CSHIFT  =0.1000    complex shift for real part using Kramers Kronig
   OMEGAMAX=  -1.0    maximum frequency
   DEG_THRESHOLD= 0.2000000E-02 threshold for treating states as degnerate
   RTIME   =   -0.100 relaxation time in fs
  (WPLASMAI=    0.000 imaginary part of plasma frequency in eV, 0.658/RTIME)
   DFIELD  = 0.0000000 0.0000000 0.0000000 field for delta impulse in time
 
 Orbital magnetization related:
   ORBITALMAG=     F  switch on orbital magnetization
   LCHIMAG   =     F  perturbation theory with respect to B field
   DQ        =  0.001000  dq finite difference perturbation B field
   LLRAUG    =     F  two centre corrections for induced B field



--------------------------------------------------------------------------------------------------------


 conjugate gradient relaxation of ions
 charge density and potential will be updated during run
 spin polarized calculation
 Variant of blocked Davidson
 Davidson routine will perform the subspace rotation
 perform sub-space diagonalisation
    after iterative eigenvector-optimisation
 modified Broyden-mixing scheme, WC =      100.0
 initial mixing is a Kerker type mixing with AMIX =  0.4000 and BMIX =      1.0000
 Hartree-type preconditioning will be used
 using additional bands           18
 real space projection scheme for non local part
 use partial core corrections
 calculate Harris-corrections to forces 
   (improved forces if not selfconsistent)
 use gradient corrections 
 use of overlap-Matrix (Vanderbilt PP)
 Gauss-broadening in eV      SIGMA  =   0.05


--------------------------------------------------------------------------------------------------------


  energy-cutoff  :      520.00
  volume of cell :      289.52
      direct lattice vectors                 reciprocal lattice vectors
     5.987175964  0.029403208  2.940994547     0.167093052 -0.016161338  0.000020297
     0.666477818  6.891321712  0.451644566    -0.000560095  0.145184614 -0.000311292
     0.000603383  0.015055902  7.020900695    -0.069957803 -0.002569675  0.142443391

  length of vectors
     6.670576400  6.938190718  7.020916864     0.167872800  0.145186028  0.158716152


 
 k-points in units of 2pi/SCALE and weight: K-points file                           
   0.00000000  0.00000000  0.00000000       0.008
   0.03341861 -0.00323227  0.00000406       0.016
   0.06683722 -0.00646454  0.00000812       0.016
  -0.00011202  0.02903692 -0.00006226       0.016
   0.03330659  0.02580466 -0.00005820       0.016
   0.06672520  0.02257239 -0.00005414       0.016
  -0.06694924  0.03550146 -0.00007038       0.016
  -0.03353063  0.03226919 -0.00006632       0.016
  -0.00022404  0.05807385 -0.00012452       0.016
   0.03319457  0.05484158 -0.00012046       0.016
   0.06661318  0.05160931 -0.00011640       0.016
  -0.06706126  0.06453838 -0.00013264       0.016
  -0.03364265  0.06130611 -0.00012858       0.016
  -0.01399156 -0.00051394  0.02848868       0.016
   0.01942705 -0.00374620  0.02849274       0.016
   0.05284566 -0.00697847  0.02849680       0.016
  -0.08082878  0.00595060  0.02848056       0.016
  -0.04741017  0.00271833  0.02848462       0.016
  -0.01410358  0.02852299  0.02842642       0.016
   0.01931503  0.02529072  0.02843048       0.016
   0.05273364  0.02205845  0.02843454       0.016
  -0.08094080  0.03498752  0.02841830       0.016
  -0.04752219  0.03175526  0.02842236       0.016
  -0.01421560  0.05755991  0.02836416       0.016
   0.01920301  0.05432764  0.02836822       0.016
   0.05262162  0.05109538  0.02837228       0.016
  -0.08105282  0.06402445  0.02835604       0.016
  -0.04763421  0.06079218  0.02836010       0.016
  -0.01376752 -0.05858778  0.02861319       0.016
   0.01965109 -0.06182005  0.02861725       0.016
   0.05306970 -0.06505232  0.02862131       0.016
  -0.08060474 -0.05212325  0.02860508       0.016
  -0.04718613 -0.05535551  0.02860914       0.016
  -0.01387954 -0.02955086  0.02855094       0.016
   0.01953907 -0.03278313  0.02855500       0.016
   0.05295768 -0.03601539  0.02855906       0.016
  -0.08071676 -0.02308632  0.02854282       0.016
  -0.04729815 -0.02631859  0.02854688       0.016
  -0.02798312 -0.00102787  0.05697736       0.016
   0.00543549 -0.00426014  0.05698142       0.016
   0.03885410 -0.00749241  0.05698548       0.016
  -0.09482034  0.00543667  0.05696924       0.016
  -0.06140173  0.00220440  0.05697330       0.016
  -0.02809514  0.02800905  0.05691510       0.016
   0.00532347  0.02477679  0.05691916       0.016
   0.03874208  0.02154452  0.05692322       0.016
  -0.09493236  0.03447359  0.05690698       0.016
  -0.06151375  0.03124132  0.05691104       0.016
  -0.02820716  0.05704598  0.05685284       0.016
   0.00521145  0.05381371  0.05685690       0.016
   0.03863006  0.05058144  0.05686096       0.016
  -0.09504438  0.06351051  0.05684472       0.016
  -0.06162577  0.06027824  0.05684878       0.016
  -0.02775908 -0.05910172  0.05710187       0.016
   0.00565953 -0.06233398  0.05710593       0.016
   0.03907814 -0.06556625  0.05710999       0.016
  -0.09459630 -0.05263718  0.05709375       0.016
  -0.06117769 -0.05586945  0.05709781       0.016
  -0.02787110 -0.03006479  0.05703961       0.016
   0.00554751 -0.03329706  0.05704367       0.016
   0.03896612 -0.03652933  0.05704773       0.016
  -0.09470832 -0.02360026  0.05703150       0.016
  -0.06128971 -0.02683253  0.05703556       0.016
 
 k-points in reciprocal lattice and weights: K-points file                           
   0.00000000  0.00000000  0.00000000       0.008
   0.20000000 -0.00000000 -0.00000000       0.016
   0.40000000 -0.00000000 -0.00000000       0.016
   0.00000000  0.20000000 -0.00000000       0.016
   0.20000000  0.20000000 -0.00000000       0.016
   0.40000000  0.20000000  0.00000000       0.016
  -0.40000000  0.20000000  0.00000000       0.016
  -0.20000000  0.20000000  0.00000000       0.016
   0.00000000  0.40000000 -0.00000000       0.016
   0.20000000  0.40000000 -0.00000000       0.016
   0.40000000  0.40000000  0.00000000       0.016
  -0.40000000  0.40000000  0.00000000       0.016
  -0.20000000  0.40000000 -0.00000000       0.016
   0.00000000  0.00000000  0.20000000       0.016
   0.20000000  0.00000000  0.20000000       0.016
   0.40000000 -0.00000000  0.20000000       0.016
  -0.40000000  0.00000000  0.20000000       0.016
  -0.20000000  0.00000000  0.20000000       0.016
   0.00000000  0.20000000  0.20000000       0.016
   0.20000000  0.20000000  0.20000000       0.016
   0.40000000  0.20000000  0.20000000       0.016
  -0.40000000  0.20000000  0.20000000       0.016
  -0.20000000  0.20000000  0.20000000       0.016
   0.00000000  0.40000000  0.20000000       0.016
   0.20000000  0.40000000  0.20000000       0.016
   0.40000000  0.40000000  0.20000000       0.016
  -0.40000000  0.40000000  0.20000000       0.016
  -0.20000000  0.40000000  0.20000000       0.016
   0.00000000 -0.40000000  0.20000000       0.016
   0.20000000 -0.40000000  0.20000000       0.016
   0.40000000 -0.40000000  0.20000000       0.016
  -0.40000000 -0.40000000  0.20000000       0.016
  -0.20000000 -0.40000000  0.20000000       0.016
   0.00000000 -0.20000000  0.20000000       0.016
   0.20000000 -0.20000000  0.20000000       0.016
   0.40000000 -0.20000000  0.20000000       0.016
  -0.40000000 -0.20000000  0.20000000       0.016
  -0.20000000 -0.20000000  0.20000000       0.016
   0.00000000 -0.00000000  0.40000000       0.016
   0.20000000  0.00000000  0.40000000       0.016
   0.40000000 -0.00000000  0.40000000       0.016
  -0.40000000  0.00000000  0.40000000       0.016
  -0.20000000 -0.00000000  0.40000000       0.016
   0.00000000  0.20000000  0.40000000       0.016
   0.20000000  0.20000000  0.40000000       0.016
   0.40000000  0.20000000  0.40000000       0.016
  -0.40000000  0.20000000  0.40000000       0.016
  -0.20000000  0.20000000  0.40000000       0.016
   0.00000000  0.40000000  0.40000000       0.016
   0.20000000  0.40000000  0.40000000       0.016
   0.40000000  0.40000000  0.40000000       0.016
  -0.40000000  0.40000000  0.40000000       0.016
  -0.20000000  0.40000000  0.40000000       0.016
   0.00000000 -0.40000000  0.40000000       0.016
   0.20000000 -0.40000000  0.40000000       0.016
   0.40000000 -0.40000000  0.40000000       0.016
  -0.40000000 -0.40000000  0.40000000       0.016
  -0.20000000 -0.40000000  0.40000000       0.016
   0.00000000 -0.20000000  0.40000000       0.016
   0.20000000 -0.20000000  0.40000000       0.016
   0.40000000 -0.20000000  0.40000000       0.016
  -0.40000000 -0.20000000  0.40000000       0.016
  -0.20000000 -0.20000000  0.40000000       0.016
 
 position of ions in fractional coordinates (direct lattice) 
   0.74222762  0.84121533  0.32985155
   0.25777678  0.15878805  0.67014374
   0.26894498  0.56066053  0.26467469
   0.73106222  0.43933918  0.73532588
   0.19516677  0.66602013  0.76828295
   0.80482442  0.33398463  0.23172415
   0.72631527  0.94488022  0.84566125
   0.27368056  0.05512202  0.15433278
   0.94917112  0.80205494  0.93870290
   0.05082067  0.19794907  0.06130679
   0.53380967  0.89995926  0.13028598
   0.46618634  0.10004641  0.86971587
   0.13139843  0.49201925  0.64267661
   0.86859552  0.50797939  0.35732270
   0.89336291  0.12592745  0.73367254
   0.10664684  0.87405952  0.26631680
   0.34155154  0.55367053  0.89927247
   0.65844078  0.44633271  0.10072553
   0.35899204  0.81732968  0.57603959
   0.64101700  0.18266845  0.42395819
   0.74957068  0.78041886  0.67243242
   0.25043785  0.21957441  0.32757463
 
 position of ions in cartesian coordinates  (Angst):
   5.00469777  5.82387553  4.87867270
   1.64958800  1.11192859  5.53484852
   1.98404843  3.87558486  2.90243971
   4.67025165  3.06019419  7.51112515
   1.61284897  4.60706469  6.26882707
   5.04135857  2.32874877  4.14473878
   4.97882929  6.54556176  8.50014293
   1.67540437  0.39023427  1.91334373
   6.21797272  5.56926035  9.74429068
   0.43623796  1.36654805  0.66929481
   3.79589389  6.21956609  2.89111793
   2.85834310  0.71625370  7.52242563
   1.11501323  3.40420252  5.12082855
   5.53920684  3.53156871  5.29268803
   5.43309148  0.90512039  7.83529192
   1.22121536  6.03057078  2.57819578
   2.41448092  3.83910381  7.56826625
   4.23973247  3.09669909  2.84523842
   2.69442821  5.65171007  5.46925288
   3.95988184  1.28405806  4.94429704
   5.00834914  5.41028129  7.27803648
   1.64595458  1.52545349  3.13557487
 


--------------------------------------------------------------------------------------------------------


 k-point   1 :   0.0000 0.0000 0.0000  plane waves:    7801
 k-point   2 :   0.2000-0.0000-0.0000  plane waves:    7779
 k-point   3 :   0.4000-0.0000-0.0000  plane waves:    7769
 k-point   4 :   0.0000 0.2000-0.0000  plane waves:    7804
 k-point   5 :   0.2000 0.2000-0.0000  plane waves:    7790
 k-point   6 :   0.4000 0.2000 0.0000  plane waves:    7766
 k-point   7 :  -0.4000 0.2000 0.0000  plane waves:    7773
 k-point   8 :  -0.2000 0.2000 0.0000  plane waves:    7798
 k-point   9 :   0.0000 0.4000-0.0000  plane waves:    7820
 k-point  10 :   0.2000 0.4000-0.0000  plane waves:    7798
 k-point  11 :   0.4000 0.4000 0.0000  plane waves:    7775
 k-point  12 :  -0.4000 0.4000 0.0000  plane waves:    7757
 k-point  13 :  -0.2000 0.4000-0.0000  plane waves:    7811
 k-point  14 :   0.0000 0.0000 0.2000  plane waves:    7801
 k-point  15 :   0.2000 0.0000 0.2000  plane waves:    7782
 k-point  16 :   0.4000-0.0000 0.2000  plane waves:    7795
 k-point  17 :  -0.4000 0.0000 0.2000  plane waves:    7788
 k-point  18 :  -0.2000 0.0000 0.2000  plane waves:    7772
 k-point  19 :   0.0000 0.2000 0.2000  plane waves:    7798
 k-point  20 :   0.2000 0.2000 0.2000  plane waves:    7813
 k-point  21 :   0.4000 0.2000 0.2000  plane waves:    7793
 k-point  22 :  -0.4000 0.2000 0.2000  plane waves:    7800
 k-point  23 :  -0.2000 0.2000 0.2000  plane waves:    7796
 k-point  24 :   0.0000 0.4000 0.2000  plane waves:    7812
 k-point  25 :   0.2000 0.4000 0.2000  plane waves:    7806
 k-point  26 :   0.4000 0.4000 0.2000  plane waves:    7794
 k-point  27 :  -0.4000 0.4000 0.2000  plane waves:    7795
 k-point  28 :  -0.2000 0.4000 0.2000  plane waves:    7790
 k-point  29 :   0.0000-0.4000 0.2000  plane waves:    7821
 k-point  30 :   0.2000-0.4000 0.2000  plane waves:    7807
 k-point  31 :   0.4000-0.4000 0.2000  plane waves:    7780
 k-point  32 :  -0.4000-0.4000 0.2000  plane waves:    7791
 k-point  33 :  -0.2000-0.4000 0.2000  plane waves:    7795
 k-point  34 :   0.0000-0.2000 0.2000  plane waves:    7798
 k-point  35 :   0.2000-0.2000 0.2000  plane waves:    7784
 k-point  36 :   0.4000-0.2000 0.2000  plane waves:    7787
 k-point  37 :  -0.4000-0.2000 0.2000  plane waves:    7774
 k-point  38 :  -0.2000-0.2000 0.2000  plane waves:    7794
 k-point  39 :   0.0000-0.0000 0.4000  plane waves:    7793
 k-point  40 :   0.2000 0.0000 0.4000  plane waves:    7796
 k-point  41 :   0.4000-0.0000 0.4000  plane waves:    7800
 k-point  42 :  -0.4000 0.0000 0.4000  plane waves:    7790
 k-point  43 :  -0.2000-0.0000 0.4000  plane waves:    7787
 k-point  44 :   0.0000 0.2000 0.4000  plane waves:    7795
 k-point  45 :   0.2000 0.2000 0.4000  plane waves:    7800
 k-point  46 :   0.4000 0.2000 0.4000  plane waves:    7805
 k-point  47 :  -0.4000 0.2000 0.4000  plane waves:    7789
 k-point  48 :  -0.2000 0.2000 0.4000  plane waves:    7796
 k-point  49 :   0.0000 0.4000 0.4000  plane waves:    7805
 k-point  50 :   0.2000 0.4000 0.4000  plane waves:    7823
 k-point  51 :   0.4000 0.4000 0.4000  plane waves:    7803
 k-point  52 :  -0.4000 0.4000 0.4000  plane waves:    7810
 k-point  53 :  -0.2000 0.4000 0.4000  plane waves:    7807
 k-point  54 :   0.0000-0.4000 0.4000  plane waves:    7800
 k-point  55 :   0.2000-0.4000 0.4000  plane waves:    7799
 k-point  56 :   0.4000-0.4000 0.4000  plane waves:    7807
 k-point  57 :  -0.4000-0.4000 0.4000  plane waves:    7804
 k-point  58 :  -0.2000-0.4000 0.4000  plane waves:    7796
 k-point  59 :   0.0000-0.2000 0.4000  plane waves:    7799
 k-point  60 :   0.2000-0.2000 0.4000  plane waves:    7807
 k-point  61 :   0.4000-0.2000 0.4000  plane waves:    7789
 k-point  62 :  -0.4000-0.2000 0.4000  plane waves:    7780
 k-point  63 :  -0.2000-0.2000 0.4000  plane waves:    7809

 maximum and minimum number of plane-waves per node :      1976     1924

 maximum number of plane-waves:      7823
 maximum index in each direction: 
   IXMAX=   12   IYMAX=   13   IZMAX=   13
   IXMIN=  -12   IYMIN=  -13   IZMIN=  -13


 real space projection operators:
  total allocation   :      11349.03 KBytes
  max/ min on nodes  :       2908.78       2767.86


 parallel 3D FFT for wavefunctions:
    minimum data exchange during FFTs selected (reduces bandwidth)
 parallel 3D FFT for charge:
    minimum data exchange during FFTs selected (reduces bandwidth)


 total amount of memory used by VASP MPI-rank0   121886. kBytes
=======================================================================

   base      :      30000. kBytes
   nonlr-proj:       6685. kBytes
   fftplans  :       3048. kBytes
   grid      :      11641. kBytes
   one-center:        186. kBytes
   wavefun   :      70326. kBytes
 
     INWAV:  cpu time    0.0001: real time    0.0003
 Broyden mixing: mesh for mixing (old mesh)
   NGX = 25   NGY = 25   NGZ = 27
  (NGX  =100   NGY  =108   NGZ  =108)
  gives a total of  16875 points

 initial charge density was supplied:
 number of electron     167.9999999 magnetization       0.0000000
 keeping initial charge density in first step


--------------------------------------------------------------------------------------------------------


 Maximum index for non-local projection operator         2024
 Maximum index for augmentation-charges          928 (set IRDMAX)


--------------------------------------------------------------------------------------------------------


 First call to EWALD:  gamma=   0.268
 Maximum number of real-space cells 3x 3x 3
 Maximum number of reciprocal cells 3x 3x 3

    FEWALD:  cpu time    0.0019: real time    0.0019


--------------------------------------- Iteration      1(   1)  ---------------------------------------


    POTLOK:  cpu time    0.1311: real time    0.1365
    SETDIJ:  cpu time    1.2579: real time    1.2580
atom =   5  type =  2  l = 2
 
 onsite density matrix
 
spin component  1
 
  0.3657 -0.0026 -0.0007 -0.0293 -0.0287
 -0.0026  0.3759 -0.0171  0.0121 -0.0203
 -0.0007 -0.0171  0.2659  0.0629 -0.0173
 -0.0293  0.0121  0.0629  0.3289 -0.0213
 -0.0287 -0.0203 -0.0173 -0.0213  0.2568
 
spin component  2
 
  0.3657 -0.0026 -0.0007 -0.0293 -0.0287
 -0.0026  0.3759 -0.0171  0.0121 -0.0203
 -0.0007 -0.0171  0.2659  0.0629 -0.0173
 -0.0293  0.0121  0.0629  0.3289 -0.0213
 -0.0287 -0.0203 -0.0173 -0.0213  0.2568
 
 occupancies and eigenvectors
 
  o =  0.2223  v = -0.0655  0.1509  0.8377 -0.4998  0.1466  0.0000  0.0000  0.0000  0.0000  0.0000      0.0000  0.0000  0.0000  0.0000  0.0000  0.0000  0.0000  0.0000  0.0000  0.0000
  o =  0.2223  v =  0.0000  0.0000  0.0000  0.0000  0.0000 -0.0655  0.1509  0.8377 -0.4998  0.1466      0.0000  0.0000  0.0000  0.0000  0.0000  0.0000  0.0000  0.0000  0.0000  0.0000
  o =  0.2388  v =  0.0000  0.0000  0.0000  0.0000  0.0000  0.2741  0.1166  0.0094  0.2826  0.9118      0.0000  0.0000  0.0000  0.0000  0.0000  0.0000  0.0000  0.0000  0.0000  0.0000
  o =  0.2388  v =  0.2741  0.1166  0.0094  0.2826  0.9118  0.0000  0.0000  0.0000  0.0000  0.0000      0.0000  0.0000  0.0000  0.0000  0.0000  0.0000  0.0000  0.0000  0.0000  0.0000
  o =  0.3570  v =  0.0000  0.0000  0.0000  0.0000  0.0000 -0.6267  0.1881 -0.4471 -0.5140  0.3283      0.0000  0.0000  0.0000  0.0000  0.0000  0.0000  0.0000  0.0000  0.0000  0.0000
  o =  0.3570  v = -0.6267  0.1881 -0.4471 -0.5140  0.3283  0.0000  0.0000  0.0000  0.0000  0.0000      0.0000  0.0000  0.0000  0.0000  0.0000  0.0000  0.0000  0.0000  0.0000  0.0000
  o =  0.3812  v = -0.3191 -0.9153  0.1397  0.0566  0.1940  0.0000  0.0000  0.0000  0.0000  0.0000      0.0000  0.0000  0.0000  0.0000  0.0000  0.0000  0.0000  0.0000  0.0000  0.0000
  o =  0.3812  v =  0.0000  0.0000  0.0000  0.0000  0.0000 -0.3191 -0.9153  0.1397  0.0566  0.1940      0.0000  0.0000  0.0000  0.0000  0.0000  0.0000  0.0000  0.0000  0.0000  0.0000
  o =  0.3939  v =  0.0000  0.0000  0.0000  0.0000  0.0000 -0.6527  0.3007  0.2808  0.6348 -0.0419      0.0000  0.0000  0.0000  0.0000  0.0000  0.0000  0.0000  0.0000  0.0000  0.0000
  o =  0.3939  v = -0.6527  0.3007  0.2808  0.6348 -0.0419  0.0000  0.0000  0.0000  0.0000  0.0000      0.0000  0.0000  0.0000  0.0000  0.0000  0.0000  0.0000  0.0000  0.0000  0.0000
atom =   6  type =  2  l = 2
 
 onsite density matrix
 
spin component  1
 
  0.3657 -0.0026 -0.0008 -0.0293 -0.0288
 -0.0026  0.3760 -0.0171  0.0121 -0.0203
 -0.0008 -0.0171  0.2659  0.0628 -0.0174
 -0.0293  0.0121  0.0628  0.3289 -0.0213
 -0.0288 -0.0203 -0.0174 -0.0213  0.2568
 
spin component  2
 
  0.3657 -0.0026 -0.0008 -0.0293 -0.0288
 -0.0026  0.3760 -0.0171  0.0121 -0.0203
 -0.0008 -0.0171  0.2659  0.0628 -0.0174
 -0.0293  0.0121  0.0628  0.3289 -0.0213
 -0.0288 -0.0203 -0.0174 -0.0213  0.2568
 
 occupancies and eigenvectors
 
  o =  0.2223  v =  0.0000  0.0000  0.0000  0.0000  0.0000 -0.0652  0.1509  0.8376 -0.4995  0.1476      0.0000  0.0000  0.0000  0.0000  0.0000  0.0000  0.0000  0.0000  0.0000  0.0000
  o =  0.2223  v = -0.0652  0.1509  0.8376 -0.4995  0.1476  0.0000  0.0000  0.0000  0.0000  0.0000      0.0000  0.0000  0.0000  0.0000  0.0000  0.0000  0.0000  0.0000  0.0000  0.0000
  o =  0.2388  v =  0.2743  0.1162  0.0086  0.2832  0.9116  0.0000  0.0000  0.0000  0.0000  0.0000      0.0000  0.0000  0.0000  0.0000  0.0000  0.0000  0.0000  0.0000  0.0000  0.0000
  o =  0.2388  v =  0.0000  0.0000  0.0000  0.0000  0.0000  0.2743  0.1162  0.0086  0.2832  0.9116      0.0000  0.0000  0.0000  0.0000  0.0000  0.0000  0.0000  0.0000  0.0000  0.0000
  o =  0.3570  v = -0.6261  0.1883 -0.4473 -0.5143  0.3284  0.0000  0.0000  0.0000  0.0000  0.0000      0.0000  0.0000  0.0000  0.0000  0.0000  0.0000  0.0000  0.0000  0.0000  0.0000
  o =  0.3570  v =  0.0000  0.0000  0.0000  0.0000  0.0000 -0.6261  0.1883 -0.4473 -0.5143  0.3284      0.0000  0.0000  0.0000  0.0000  0.0000  0.0000  0.0000  0.0000  0.0000  0.0000
  o =  0.3812  v =  0.0000  0.0000  0.0000  0.0000  0.0000 -0.3212 -0.9145  0.1402  0.0580  0.1939      0.0000  0.0000  0.0000  0.0000  0.0000  0.0000  0.0000  0.0000  0.0000  0.0000
  o =  0.3812  v = -0.3212 -0.9145  0.1402  0.0580  0.1939  0.0000  0.0000  0.0000  0.0000  0.0000      0.0000  0.0000  0.0000  0.0000  0.0000  0.0000  0.0000  0.0000  0.0000  0.0000
  o =  0.3939  v =  0.0000  0.0000  0.0000  0.0000  0.0000 -0.6522  0.3033  0.2803  0.6343 -0.0421      0.0000  0.0000  0.0000  0.0000  0.0000  0.0000  0.0000  0.0000  0.0000  0.0000
  o =  0.3939  v = -0.6522  0.3033  0.2803  0.6343 -0.0421  0.0000  0.0000  0.0000  0.0000  0.0000      0.0000  0.0000  0.0000  0.0000  0.0000  0.0000  0.0000  0.0000  0.0000  0.0000
atom =   7  type =  2  l = 2
 
 onsite density matrix
 
spin component  1
 
  0.3695 -0.0016 -0.0426 -0.0393 -0.0181
 -0.0016  0.3455  0.0600  0.0121 -0.0799
 -0.0426  0.0600  0.2794 -0.0373  0.0098
 -0.0393  0.0121 -0.0373  0.2989 -0.0078
 -0.0181 -0.0799  0.0098 -0.0078  0.2427
 
spin component  2
 
  0.3695 -0.0016 -0.0426 -0.0393 -0.0181
 -0.0016  0.3455  0.0600  0.0121 -0.0799
 -0.0426  0.0600  0.2794 -0.0373  0.0098
 -0.0393  0.0121 -0.0373  0.2989 -0.0078
 -0.0181 -0.0799  0.0098 -0.0078  0.2427
 
 occupancies and eigenvectors
 
  o =  0.1797  v = -0.0752  0.5151 -0.4776 -0.1821  0.6839  0.0000  0.0000  0.0000  0.0000  0.0000      0.0000  0.0000  0.0000  0.0000  0.0000  0.0000  0.0000  0.0000  0.0000  0.0000
  o =  0.1797  v =  0.0000  0.0000  0.0000  0.0000  0.0000 -0.0752  0.5151 -0.4776 -0.1821  0.6839      0.0000  0.0000  0.0000  0.0000  0.0000  0.0000  0.0000  0.0000  0.0000  0.0000
  o =  0.2266  v =  0.3752  0.0369  0.5390  0.5334  0.5318  0.0000  0.0000  0.0000  0.0000  0.0000      0.0000  0.0000  0.0000  0.0000  0.0000  0.0000  0.0000  0.0000  0.0000  0.0000
  o =  0.2266  v =  0.0000  0.0000  0.0000  0.0000  0.0000  0.3752  0.0369  0.5390  0.5334  0.5318      0.0000  0.0000  0.0000  0.0000  0.0000  0.0000  0.0000  0.0000  0.0000  0.0000
  o =  0.3272  v = -0.0568 -0.1279  0.5520 -0.7769  0.2687  0.0000  0.0000  0.0000  0.0000  0.0000      0.0000  0.0000  0.0000  0.0000  0.0000  0.0000  0.0000  0.0000  0.0000  0.0000
  o =  0.3272  v =  0.0000  0.0000  0.0000  0.0000  0.0000 -0.0568 -0.1279  0.5520 -0.7769  0.2687      0.0000  0.0000  0.0000  0.0000  0.0000  0.0000  0.0000  0.0000  0.0000  0.0000
  o =  0.3899  v = -0.8217 -0.4013  0.0384  0.2600  0.3079  0.0000  0.0000  0.0000  0.0000  0.0000      0.0000  0.0000  0.0000  0.0000  0.0000  0.0000  0.0000  0.0000  0.0000  0.0000
  o =  0.3899  v =  0.0000  0.0000  0.0000  0.0000  0.0000 -0.8217 -0.4013  0.0384  0.2600  0.3079      0.0000  0.0000  0.0000  0.0000  0.0000  0.0000  0.0000  0.0000  0.0000  0.0000
  o =  0.4126  v =  0.4186 -0.7456 -0.4186 -0.1060  0.2870  0.0000  0.0000  0.0000  0.0000  0.0000      0.0000  0.0000  0.0000  0.0000  0.0000  0.0000  0.0000  0.0000  0.0000  0.0000
  o =  0.4126  v =  0.0000  0.0000  0.0000  0.0000  0.0000  0.4186 -0.7456 -0.4186 -0.1060  0.2870      0.0000  0.0000  0.0000  0.0000  0.0000  0.0000  0.0000  0.0000  0.0000  0.0000
atom =   8  type =  2  l = 2
 
 onsite density matrix
 
spin component  1
 
  0.3695 -0.0017 -0.0425 -0.0393 -0.0182
 -0.0017  0.3454  0.0600  0.0121 -0.0799
 -0.0425  0.0600  0.2794 -0.0373  0.0099
 -0.0393  0.0121 -0.0373  0.2989 -0.0077
 -0.0182 -0.0799  0.0099 -0.0077  0.2427
 
spin component  2
 
  0.3695 -0.0017 -0.0425 -0.0393 -0.0182
 -0.0017  0.3454  0.0600  0.0121 -0.0799
 -0.0425  0.0600  0.2794 -0.0373  0.0099
 -0.0393  0.0121 -0.0373  0.2989 -0.0077
 -0.0182 -0.0799  0.0099 -0.0077  0.2427
 
 occupancies and eigenvectors
 
  o =  0.1796  v =  0.0000  0.0000  0.0000  0.0000  0.0000 -0.0747  0.5151 -0.4775 -0.1818  0.6841      0.0000  0.0000  0.0000  0.0000  0.0000  0.0000  0.0000  0.0000  0.0000  0.0000
  o =  0.1796  v = -0.0747  0.5151 -0.4775 -0.1818  0.6841  0.0000  0.0000  0.0000  0.0000  0.0000      0.0000  0.0000  0.0000  0.0000  0.0000  0.0000  0.0000  0.0000  0.0000  0.0000
  o =  0.2266  v =  0.3753  0.0364  0.5391  0.5334  0.5316  0.0000  0.0000  0.0000  0.0000  0.0000      0.0000  0.0000  0.0000  0.0000  0.0000  0.0000  0.0000  0.0000  0.0000  0.0000
  o =  0.2266  v =  0.0000  0.0000  0.0000  0.0000  0.0000  0.3753  0.0364  0.5391  0.5334  0.5316      0.0000  0.0000  0.0000  0.0000  0.0000  0.0000  0.0000  0.0000  0.0000  0.0000
  o =  0.3272  v = -0.0569 -0.1279  0.5518 -0.7769  0.2688  0.0000  0.0000  0.0000  0.0000  0.0000      0.0000  0.0000  0.0000  0.0000  0.0000  0.0000  0.0000  0.0000  0.0000  0.0000
  o =  0.3272  v =  0.0000  0.0000  0.0000  0.0000  0.0000 -0.0569 -0.1279  0.5518 -0.7769  0.2688      0.0000  0.0000  0.0000  0.0000  0.0000  0.0000  0.0000  0.0000  0.0000  0.0000
  o =  0.3899  v = -0.8207 -0.4028  0.0373  0.2597  0.3087  0.0000  0.0000  0.0000  0.0000  0.0000      0.0000  0.0000  0.0000  0.0000  0.0000  0.0000  0.0000  0.0000  0.0000  0.0000
  o =  0.3899  v =  0.0000  0.0000  0.0000  0.0000  0.0000 -0.8207 -0.4028  0.0373  0.2597  0.3087      0.0000  0.0000  0.0000  0.0000  0.0000  0.0000  0.0000  0.0000  0.0000  0.0000
  o =  0.4125  v =  0.0000  0.0000  0.0000  0.0000  0.0000  0.4204 -0.7448 -0.4188 -0.1067  0.2860      0.0000  0.0000  0.0000  0.0000  0.0000  0.0000  0.0000  0.0000  0.0000  0.0000
  o =  0.4125  v =  0.4204 -0.7448 -0.4188 -0.1067  0.2860  0.0000  0.0000  0.0000  0.0000  0.0000      0.0000  0.0000  0.0000  0.0000  0.0000  0.0000  0.0000  0.0000  0.0000  0.0000
     EDDAV:  cpu time   50.4038: real time   50.4110
       DOS:  cpu time    0.0061: real time    0.0061
    --------------------------------------------
      LOOP:  cpu time   51.7989: real time   51.8116

 eigenvalue-minimisations  : 25800
 total energy-change (2. order) : 0.1982922E+04  (-0.9116121E+04)
 number of electron     167.9999999 magnetization       0.0000000
 augmentation part      167.9999999 magnetization       0.0000000

 Free energy of the ion-electron system (eV)
  ---------------------------------------------------
  alpha Z        PSCENC =       773.40721062
  Ewald energy   TEWEN  =    -10521.04160793
  -Hartree energ DENC   =     -4384.21880042
  -exchange      EXHF   =         0.00000000
  -V(xc)+E(xc)   XCENC  =       796.98388893
  PAW double counting   =     18107.06251747   -18136.01331235
  entropy T*S    EENTRO =        -0.00817481
  eigenvalues    EBANDS =       -17.07731333
  atomic energy  EATOM  =     15363.82740373
  Solvation  Ediel_sol  =         0.00000000
  ---------------------------------------------------
  free energy    TOTEN  =      1982.92181191 eV

  energy without entropy =     1982.92998672  energy(sigma->0) =     1982.92589931


--------------------------------------------------------------------------------------------------------




--------------------------------------- Iteration      1(   2)  ---------------------------------------


     EDDAV:  cpu time   51.0329: real time   51.0357
       DOS:  cpu time    0.0052: real time    0.0052
    --------------------------------------------
      LOOP:  cpu time   51.0382: real time   51.0409

 eigenvalue-minimisations  : 26232
 total energy-change (2. order) :-0.1994139E+04  (-0.1925553E+04)
 number of electron     167.9999999 magnetization       0.0000000
 augmentation part      167.9999999 magnetization       0.0000000

 Free energy of the ion-electron system (eV)
  ---------------------------------------------------
  alpha Z        PSCENC =       773.40721062
  Ewald energy   TEWEN  =    -10521.04160793
  -Hartree energ DENC   =     -4384.21880042
  -exchange      EXHF   =         0.00000000
  -V(xc)+E(xc)   XCENC  =       796.98388893
  PAW double counting   =     18107.06251747   -18136.01331235
  entropy T*S    EENTRO =        -0.01090926
  eigenvalues    EBANDS =     -2011.21327537
  atomic energy  EATOM  =     15363.82740373
  Solvation  Ediel_sol  =         0.00000000
  ---------------------------------------------------
  free energy    TOTEN  =       -11.21688458 eV

  energy without entropy =      -11.20597532  energy(sigma->0) =      -11.21142995


--------------------------------------------------------------------------------------------------------




--------------------------------------- Iteration      1(   3)  ---------------------------------------


     EDDAV:  cpu time   64.8911: real time   64.8943
       DOS:  cpu time    0.0024: real time    0.0024
    --------------------------------------------
      LOOP:  cpu time   64.8936: real time   64.8968

 eigenvalue-minimisations  : 37740
 total energy-change (2. order) :-0.2820944E+03  (-0.2656669E+03)
 number of electron     167.9999999 magnetization       0.0000000
 augmentation part      167.9999999 magnetization       0.0000000

 Free energy of the ion-electron system (eV)
  ---------------------------------------------------
  alpha Z        PSCENC =       773.40721062
  Ewald energy   TEWEN  =    -10521.04160793
  -Hartree energ DENC   =     -4384.21880042
  -exchange      EXHF   =         0.00000000
  -V(xc)+E(xc)   XCENC  =       796.98388893
  PAW double counting   =     18107.06251747   -18136.01331235
  entropy T*S    EENTRO =        -0.00000000
  eigenvalues    EBANDS =     -2293.31855117
  atomic energy  EATOM  =     15363.82740373
  Solvation  Ediel_sol  =         0.00000000
  ---------------------------------------------------
  free energy    TOTEN  =      -293.31125112 eV

  energy without entropy =     -293.31125112  energy(sigma->0) =     -293.31125112


--------------------------------------------------------------------------------------------------------




--------------------------------------- Iteration      1(   4)  ---------------------------------------


     EDDAV:  cpu time   60.0795: real time   60.0827
       DOS:  cpu time    0.0024: real time    0.0024
    --------------------------------------------
      LOOP:  cpu time   60.0819: real time   60.0851

 eigenvalue-minimisations  : 33708
 total energy-change (2. order) :-0.1527848E+02  (-0.1514058E+02)
 number of electron     167.9999999 magnetization       0.0000000
 augmentation part      167.9999999 magnetization       0.0000000

 Free energy of the ion-electron system (eV)
  ---------------------------------------------------
  alpha Z        PSCENC =       773.40721062
  Ewald energy   TEWEN  =    -10521.04160793
  -Hartree energ DENC   =     -4384.21880042
  -exchange      EXHF   =         0.00000000
  -V(xc)+E(xc)   XCENC  =       796.98388893
  PAW double counting   =     18107.06251747   -18136.01331235
  entropy T*S    EENTRO =        -0.00000000
  eigenvalues    EBANDS =     -2308.59703568
  atomic energy  EATOM  =     15363.82740373
  Solvation  Ediel_sol  =         0.00000000
  ---------------------------------------------------
  free energy    TOTEN  =      -308.58973563 eV

  energy without entropy =     -308.58973563  energy(sigma->0) =     -308.58973563


--------------------------------------------------------------------------------------------------------




--------------------------------------- Iteration      1(   5)  ---------------------------------------


     EDDAV:  cpu time   78.4067: real time   78.4109
       DOS:  cpu time    0.0023: real time    0.0023
    CHARGE:  cpu time    7.0571: real time    7.0575
    MIXING:  cpu time    0.0015: real time    0.0015
    --------------------------------------------
      LOOP:  cpu time   85.4676: real time   85.4721

 eigenvalue-minimisations  : 48900
 total energy-change (2. order) :-0.1238517E+01  (-0.1237462E+01)
 number of electron     167.9999999 magnetization       0.0000000
 augmentation part       36.5344647 magnetization      -0.0012124

 Broyden mixing:
  rms(total) = 0.10387E+01    rms(broyden)= 0.10386E+01
  rms(prec ) = 0.11297E+01
  weight for this iteration     100.00

 Free energy of the ion-electron system (eV)
  ---------------------------------------------------
  alpha Z        PSCENC =       773.40721062
  Ewald energy   TEWEN  =    -10521.04160793
  -Hartree energ DENC   =     -4384.21880042
  -exchange      EXHF   =         0.00000000
  -V(xc)+E(xc)   XCENC  =       796.98388893
  PAW double counting   =     18107.06251747   -18136.01331235
  entropy T*S    EENTRO =        -0.00000000
  eigenvalues    EBANDS =     -2309.83555309
  atomic energy  EATOM  =     15363.82740373
  Solvation  Ediel_sol  =         0.00000000
  ---------------------------------------------------
  free energy    TOTEN  =      -309.82825303 eV

  energy without entropy =     -309.82825303  energy(sigma->0) =     -309.82825303


--------------------------------------------------------------------------------------------------------




--------------------------------------- Iteration      1(   6)  ---------------------------------------


    POTLOK:  cpu time    0.1250: real time    0.1250
    SETDIJ:  cpu time    1.2622: real time    1.2622
atom =   5  type =  2  l = 2
 
 onsite density matrix
 
spin component  1
 
  0.3684 -0.0026 -0.0009 -0.0291 -0.0284
 -0.0026  0.3784 -0.0170  0.0120 -0.0203
 -0.0009 -0.0170  0.2689  0.0625 -0.0173
 -0.0291  0.0120  0.0625  0.3316 -0.0212
 -0.0284 -0.0203 -0.0173 -0.0212  0.2603
 
spin component  2
 
  0.3683 -0.0026 -0.0009 -0.0291 -0.0284
 -0.0026  0.3784 -0.0170  0.0120 -0.0202
 -0.0009 -0.0170  0.2689  0.0625 -0.0173
 -0.0291  0.0120  0.0625  0.3317 -0.0212
 -0.0284 -0.0202 -0.0173 -0.0212  0.2603
 
 occupancies and eigenvectors
 
  o =  0.2256  v = -0.0642  0.1508  0.8379 -0.4992  0.1480  0.0000  0.0000  0.0000  0.0000  0.0000      0.0000  0.0000  0.0000  0.0000  0.0000  0.0000  0.0000  0.0000  0.0000  0.0000
  o =  0.2256  v =  0.0000  0.0000  0.0000  0.0000  0.0000 -0.0644  0.1508  0.8380 -0.4992  0.1474      0.0000  0.0000  0.0000  0.0000  0.0000  0.0000  0.0000  0.0000  0.0000  0.0000
  o =  0.2424  v =  0.2735  0.1171  0.0082  0.2841  0.9114  0.0000  0.0000  0.0000  0.0000  0.0000      0.0000  0.0000  0.0000  0.0000  0.0000  0.0000  0.0000  0.0000  0.0000  0.0000
  o =  0.2424  v =  0.0000  0.0000  0.0000  0.0000  0.0000  0.2736  0.1169  0.0088  0.2838  0.9115      0.0000  0.0000  0.0000  0.0000  0.0000  0.0000  0.0000  0.0000  0.0000  0.0000
  o =  0.3595  v = -0.6265  0.1918 -0.4465 -0.5139  0.3276  0.0000  0.0000  0.0000  0.0000  0.0000      0.0000  0.0000  0.0000  0.0000  0.0000  0.0000  0.0000  0.0000  0.0000  0.0000
  o =  0.3595  v =  0.0000  0.0000  0.0000  0.0000  0.0000 -0.6269  0.1916 -0.4462 -0.5136  0.3278      0.0000  0.0000  0.0000  0.0000  0.0000  0.0000  0.0000  0.0000  0.0000  0.0000
  o =  0.3836  v = -0.3219 -0.9143  0.1385  0.0555  0.1955  0.0000  0.0000  0.0000  0.0000  0.0000      0.0000  0.0000  0.0000  0.0000  0.0000  0.0000  0.0000  0.0000  0.0000  0.0000
  o =  0.3836  v =  0.0000  0.0000  0.0000  0.0000  0.0000 -0.3221 -0.9142  0.1388  0.0560  0.1951      0.0000  0.0000  0.0000  0.0000  0.0000  0.0000  0.0000  0.0000  0.0000  0.0000
  o =  0.3963  v =  0.0000  0.0000  0.0000  0.0000  0.0000 -0.6514  0.3018  0.2817  0.6351 -0.0436      0.0000  0.0000  0.0000  0.0000  0.0000  0.0000  0.0000  0.0000  0.0000  0.0000
  o =  0.3964  v = -0.6519  0.3015  0.2817  0.6348 -0.0435  0.0000  0.0000  0.0000  0.0000  0.0000      0.0000  0.0000  0.0000  0.0000  0.0000  0.0000  0.0000  0.0000  0.0000  0.0000
atom =   6  type =  2  l = 2
 
 onsite density matrix
 
spin component  1
 
  0.3683 -0.0026 -0.0009 -0.0291 -0.0284
 -0.0026  0.3784 -0.0169  0.0121 -0.0202
 -0.0009 -0.0169  0.2689  0.0625 -0.0173
 -0.0291  0.0121  0.0625  0.3316 -0.0212
 -0.0284 -0.0202 -0.0173 -0.0212  0.2603
 
spin component  2
 
  0.3683 -0.0026 -0.0009 -0.0291 -0.0284
 -0.0026  0.3784 -0.0170  0.0120 -0.0203
 -0.0009 -0.0170  0.2689  0.0625 -0.0173
 -0.0291  0.0120  0.0625  0.3316 -0.0212
 -0.0284 -0.0203 -0.0173 -0.0212  0.2603
 
 occupancies and eigenvectors
 
  o =  0.2256  v = -0.0641  0.1508  0.8379 -0.4990  0.1487  0.0000  0.0000  0.0000  0.0000  0.0000      0.0000  0.0000  0.0000  0.0000  0.0000  0.0000  0.0000  0.0000  0.0000  0.0000
  o =  0.2256  v =  0.0000  0.0000  0.0000  0.0000  0.0000 -0.0639  0.1509  0.8380 -0.4989  0.1485      0.0000  0.0000  0.0000  0.0000  0.0000  0.0000  0.0000  0.0000  0.0000  0.0000
  o =  0.2424  v =  0.2737  0.1166  0.0076  0.2845  0.9113  0.0000  0.0000  0.0000  0.0000  0.0000      0.0000  0.0000  0.0000  0.0000  0.0000  0.0000  0.0000  0.0000  0.0000  0.0000
  o =  0.2424  v =  0.0000  0.0000  0.0000  0.0000  0.0000  0.2739  0.1167  0.0077  0.2845  0.9113      0.0000  0.0000  0.0000  0.0000  0.0000  0.0000  0.0000  0.0000  0.0000  0.0000
  o =  0.3595  v =  0.0000  0.0000  0.0000  0.0000  0.0000 -0.6257  0.1918 -0.4467 -0.5145  0.3279      0.0000  0.0000  0.0000  0.0000  0.0000  0.0000  0.0000  0.0000  0.0000  0.0000
  o =  0.3595  v = -0.6266  0.1927 -0.4465 -0.5134  0.3276  0.0000  0.0000  0.0000  0.0000  0.0000      0.0000  0.0000  0.0000  0.0000  0.0000  0.0000  0.0000  0.0000  0.0000  0.0000
  o =  0.3837  v = -0.3246 -0.9132  0.1389  0.0572  0.1953  0.0000  0.0000  0.0000  0.0000  0.0000      0.0000  0.0000  0.0000  0.0000  0.0000  0.0000  0.0000  0.0000  0.0000  0.0000
  o =  0.3837  v =  0.0000  0.0000  0.0000  0.0000  0.0000 -0.3238 -0.9135  0.1390  0.0570  0.1953      0.0000  0.0000  0.0000  0.0000  0.0000  0.0000  0.0000  0.0000  0.0000  0.0000
  o =  0.3963  v =  0.0000  0.0000  0.0000  0.0000  0.0000 -0.6516  0.3040  0.2809  0.6342 -0.0435      0.0000  0.0000  0.0000  0.0000  0.0000  0.0000  0.0000  0.0000  0.0000  0.0000
  o =  0.3964  v = -0.6504  0.3043  0.2815  0.6350 -0.0442  0.0000  0.0000  0.0000  0.0000  0.0000      0.0000  0.0000  0.0000  0.0000  0.0000  0.0000  0.0000  0.0000  0.0000  0.0000
atom =   7  type =  2  l = 2
 
 onsite density matrix
 
spin component  1
 
  0.3717 -0.0016 -0.0424 -0.0391 -0.0179
 -0.0016  0.3482  0.0598  0.0120 -0.0798
 -0.0424  0.0598  0.2822 -0.0371  0.0098
 -0.0391  0.0120 -0.0371  0.3019 -0.0076
 -0.0179 -0.0798  0.0098 -0.0076  0.2455
 
spin component  2
 
  0.3718 -0.0016 -0.0424 -0.0391 -0.0179
 -0.0016  0.3482  0.0597  0.0121 -0.0797
 -0.0424  0.0597  0.2822 -0.0371  0.0098
 -0.0391  0.0121 -0.0371  0.3019 -0.0076
 -0.0179 -0.0797  0.0098 -0.0076  0.2454
 
 occupancies and eigenvectors
 
  o =  0.1827  v =  0.0000  0.0000  0.0000  0.0000  0.0000 -0.0749  0.5146 -0.4761 -0.1810  0.6857      0.0000  0.0000  0.0000  0.0000  0.0000  0.0000  0.0000  0.0000  0.0000  0.0000
  o =  0.1827  v = -0.0748  0.5147 -0.4762 -0.1809  0.6856  0.0000  0.0000  0.0000  0.0000  0.0000      0.0000  0.0000  0.0000  0.0000  0.0000  0.0000  0.0000  0.0000  0.0000  0.0000
  o =  0.2298  v =  0.0000  0.0000  0.0000  0.0000  0.0000  0.3756  0.0354  0.5410  0.5324  0.5306      0.0000  0.0000  0.0000  0.0000  0.0000  0.0000  0.0000  0.0000  0.0000  0.0000
  o =  0.2298  v =  0.3754  0.0353  0.5409  0.5326  0.5306  0.0000  0.0000  0.0000  0.0000  0.0000      0.0000  0.0000  0.0000  0.0000  0.0000  0.0000  0.0000  0.0000  0.0000  0.0000
  o =  0.3299  v = -0.0578 -0.1281  0.5515 -0.7775  0.2677  0.0000  0.0000  0.0000  0.0000  0.0000      0.0000  0.0000  0.0000  0.0000  0.0000  0.0000  0.0000  0.0000  0.0000  0.0000
  o =  0.3299  v =  0.0000  0.0000  0.0000  0.0000  0.0000 -0.0578 -0.1279  0.5515 -0.7776  0.2674      0.0000  0.0000  0.0000  0.0000  0.0000  0.0000  0.0000  0.0000  0.0000  0.0000
  o =  0.3921  v = -0.8250 -0.3953  0.0420  0.2613  0.3050  0.0000  0.0000  0.0000  0.0000  0.0000      0.0000  0.0000  0.0000  0.0000  0.0000  0.0000  0.0000  0.0000  0.0000  0.0000
  o =  0.3921  v =  0.0000  0.0000  0.0000  0.0000  0.0000 -0.8234 -0.3982  0.0407  0.2609  0.3061      0.0000  0.0000  0.0000  0.0000  0.0000  0.0000  0.0000  0.0000  0.0000  0.0000
  o =  0.4150  v =  0.4116 -0.7491 -0.4181 -0.1042  0.2894  0.0000  0.0000  0.0000  0.0000  0.0000      0.0000  0.0000  0.0000  0.0000  0.0000  0.0000  0.0000  0.0000  0.0000  0.0000
  o =  0.4150  v =  0.0000  0.0000  0.0000  0.0000  0.0000  0.4147 -0.7477 -0.4181 -0.1053  0.2883      0.0000  0.0000  0.0000  0.0000  0.0000  0.0000  0.0000  0.0000  0.0000  0.0000
atom =   8  type =  2  l = 2
 
 onsite density matrix
 
spin component  1
 
  0.3718 -0.0016 -0.0424 -0.0391 -0.0180
 -0.0016  0.3481  0.0598  0.0121 -0.0797
 -0.0424  0.0598  0.2822 -0.0371  0.0099
 -0.0391  0.0121 -0.0371  0.3019 -0.0076
 -0.0180 -0.0797  0.0099 -0.0076  0.2454
 
spin component  2
 
  0.3718 -0.0017 -0.0424 -0.0391 -0.0179
 -0.0017  0.3482  0.0598  0.0120 -0.0797
 -0.0424  0.0598  0.2822 -0.0371  0.0099
 -0.0391  0.0120 -0.0371  0.3020 -0.0076
 -0.0179 -0.0797  0.0099 -0.0076  0.2454
 
 occupancies and eigenvectors
 
  o =  0.1826  v =  0.0000  0.0000  0.0000  0.0000  0.0000 -0.0744  0.5146 -0.4761 -0.1807  0.6858      0.0000  0.0000  0.0000  0.0000  0.0000  0.0000  0.0000  0.0000  0.0000  0.0000
  o =  0.1826  v = -0.0744  0.5147 -0.4760 -0.1806  0.6858  0.0000  0.0000  0.0000  0.0000  0.0000      0.0000  0.0000  0.0000  0.0000  0.0000  0.0000  0.0000  0.0000  0.0000  0.0000
  o =  0.2299  v =  0.3757  0.0348  0.5410  0.5326  0.5304  0.0000  0.0000  0.0000  0.0000  0.0000      0.0000  0.0000  0.0000  0.0000  0.0000  0.0000  0.0000  0.0000  0.0000  0.0000
  o =  0.2299  v =  0.0000  0.0000  0.0000  0.0000  0.0000  0.3755  0.0350  0.5412  0.5324  0.5305      0.0000  0.0000  0.0000  0.0000  0.0000  0.0000  0.0000  0.0000  0.0000  0.0000
  o =  0.3299  v = -0.0575 -0.1277  0.5514 -0.7776  0.2676  0.0000  0.0000  0.0000  0.0000  0.0000      0.0000  0.0000  0.0000  0.0000  0.0000  0.0000  0.0000  0.0000  0.0000  0.0000
  o =  0.3300  v =  0.0000  0.0000  0.0000  0.0000  0.0000 -0.0581 -0.1282  0.5512 -0.7776  0.2677      0.0000  0.0000  0.0000  0.0000  0.0000  0.0000  0.0000  0.0000  0.0000  0.0000
  o =  0.3922  v =  0.0000  0.0000  0.0000  0.0000  0.0000 -0.8228 -0.3992  0.0396  0.2609  0.3065      0.0000  0.0000  0.0000  0.0000  0.0000  0.0000  0.0000  0.0000  0.0000  0.0000
  o =  0.3922  v = -0.8239 -0.3973  0.0411  0.2607  0.3060  0.0000  0.0000  0.0000  0.0000  0.0000      0.0000  0.0000  0.0000  0.0000  0.0000  0.0000  0.0000  0.0000  0.0000  0.0000
  o =  0.4149  v =  0.4137 -0.7481 -0.4183 -0.1052  0.2883  0.0000  0.0000  0.0000  0.0000  0.0000      0.0000  0.0000  0.0000  0.0000  0.0000  0.0000  0.0000  0.0000  0.0000  0.0000
  o =  0.4149  v =  0.0000  0.0000  0.0000  0.0000  0.0000  0.4160 -0.7471 -0.4183 -0.1054  0.2875      0.0000  0.0000  0.0000  0.0000  0.0000  0.0000  0.0000  0.0000  0.0000  0.0000
     EDDAV:  cpu time   58.7945: real time   58.7979
       DOS:  cpu time    0.0025: real time    0.0025
    CHARGE:  cpu time    7.0734: real time    7.0737
    MIXING:  cpu time    0.0016: real time    0.0016
    --------------------------------------------
      LOOP:  cpu time   67.2592: real time   67.2628

 eigenvalue-minimisations  : 32658
 total energy-change (2. order) : 0.5225677E+02  (-0.1939825E+01)
 number of electron     167.9999999 magnetization       0.0000000
 augmentation part       37.7467272 magnetization      -0.0008619

 Broyden mixing:
  rms(total) = 0.55723E+00    rms(broyden)= 0.55697E+00
  rms(prec ) = 0.67045E+00
  weight for this iteration     100.00

 eigenvalues of (default mixing * dielectric matrix)
  average eigenvalue GAMMA=   0.6563
  0.6563

 Free energy of the ion-electron system (eV)
  ---------------------------------------------------
  alpha Z        PSCENC =       773.40721062
  Ewald energy   TEWEN  =    -10521.04160793
  -Hartree energ DENC   =     -4346.04705207
  -exchange      EXHF   =         0.00000000
  -V(xc)+E(xc)   XCENC  =       816.07852291
  PAW double counting   =     18477.49676458   -18504.00327871
  entropy T*S    EENTRO =        -0.00000000
  eigenvalues    EBANDS =     -2317.28945068
  atomic energy  EATOM  =     15363.82740373
  Solvation  Ediel_sol  =         0.00000000
  ---------------------------------------------------
  free energy    TOTEN  =      -257.57148754 eV

  energy without entropy =     -257.57148754  energy(sigma->0) =     -257.57148754


--------------------------------------------------------------------------------------------------------




--------------------------------------- Iteration      1(   7)  ---------------------------------------


    POTLOK:  cpu time    0.1246: real time    0.1246
    SETDIJ:  cpu time    1.2628: real time    1.2628
atom =   5  type =  2  l = 2
 
 onsite density matrix
 
spin component  1
 
  0.3664 -0.0026 -0.0009 -0.0292 -0.0285
 -0.0026  0.3765 -0.0170  0.0119 -0.0202
 -0.0009 -0.0170  0.2668  0.0625 -0.0173
 -0.0292  0.0119  0.0625  0.3297 -0.0212
 -0.0285 -0.0202 -0.0173 -0.0212  0.2580
 
spin component  2
 
  0.3664 -0.0026 -0.0009 -0.0292 -0.0285
 -0.0026  0.3765 -0.0170  0.0119 -0.0202
 -0.0009 -0.0170  0.2668  0.0625 -0.0173
 -0.0292  0.0119  0.0625  0.3297 -0.0213
 -0.0285 -0.0202 -0.0173 -0.0213  0.2580
 
 occupancies and eigenvectors
 
  o =  0.2236  v = -0.0650  0.1503  0.8381 -0.4994  0.1461  0.0000  0.0000  0.0000  0.0000  0.0000      0.0000  0.0000  0.0000  0.0000  0.0000  0.0000  0.0000  0.0000  0.0000  0.0000
[...]
  0.001   0.004   6.987   0.004   0.007   8.532   0.009  -0.004
 -0.006   0.001   0.004   6.972  -0.007   0.009   8.546  -0.015
 -0.002  -0.006   0.007  -0.007   6.965  -0.004  -0.015   8.524
 -0.005  -0.001   0.002  -0.002  -0.001  -0.008   0.002   0.003
 -0.004   0.002  -0.002  -0.002  -0.002  -0.000   0.005   0.002
 -0.000   0.003   0.000   0.002  -0.003  -0.002  -0.001   0.008
  0.009  -0.004  -0.002   0.001   0.004   0.002  -0.005  -0.008
  0.010  -0.000   0.001   0.003   0.004  -0.006  -0.004  -0.009
 -0.006  -0.001   0.003  -0.002  -0.001  -0.007  -0.000   0.002
 -0.005   0.001  -0.002  -0.002  -0.002  -0.005   0.004  -0.000
  0.000   0.002   0.000   0.002  -0.003  -0.001  -0.003   0.005
  0.011  -0.002  -0.002   0.002   0.005  -0.000  -0.003  -0.007
  0.012   0.000   0.002   0.003   0.004  -0.004  -0.001  -0.006
 total augmentation occupancy for first ion, spin component:           1
  2.003   0.006   0.000  -0.000  -0.000   0.000  -0.001  -0.001   0.002   0.001  -0.001  -0.002  -0.003  -0.000   0.000   0.000
  0.006   0.411   0.002  -0.007  -0.004  -0.001   0.005   0.004  -0.038  -0.025  -0.011   0.043   0.050   0.022   0.016   0.005
  0.000   0.002   2.007  -0.000  -0.000   0.001   0.001   0.002  -0.003  -0.012   0.000  -0.005  -0.002   0.001   0.005  -0.000
 -0.000  -0.007  -0.000   2.007   0.000   0.001  -0.003  -0.002  -0.005   0.002   0.005   0.002   0.003   0.002  -0.000  -0.003
 -0.000  -0.004  -0.000   0.000   2.007   0.002  -0.002  -0.005  -0.001  -0.005   0.003  -0.005  -0.000   0.001   0.002  -0.000
  0.000  -0.001   0.001   0.001   0.002   0.025  -0.002  -0.002   0.006   0.019   0.001   0.008   0.006  -0.003  -0.011  -0.001
 -0.001   0.005   0.001  -0.003  -0.002  -0.002   0.027   0.003   0.008  -0.001  -0.016  -0.007  -0.003  -0.004   0.001   0.009
 -0.001   0.004   0.002  -0.002  -0.005  -0.002   0.003   0.031   0.003   0.008  -0.010   0.012   0.005  -0.002  -0.004   0.006
  0.002  -0.038  -0.003  -0.005  -0.001   0.006   0.008   0.003   0.143   0.015   0.002  -0.008   0.090  -0.081  -0.009  -0.002
  0.001  -0.025  -0.012   0.002  -0.005   0.019  -0.001   0.008   0.015   0.142  -0.043  -0.041   0.005  -0.009  -0.081   0.026
 -0.001  -0.011   0.000   0.005   0.003   0.001  -0.016  -0.010   0.002  -0.043   0.376   0.014   0.005  -0.002   0.026  -0.220
 -0.002   0.043  -0.005   0.002  -0.005   0.008  -0.007   0.012  -0.008  -0.041   0.014   0.308   0.031   0.005   0.024  -0.008
 -0.003   0.050  -0.002   0.003  -0.000   0.006  -0.003   0.005   0.090   0.005   0.005   0.031   0.446  -0.052  -0.003  -0.002
 -0.000   0.022   0.001   0.002   0.001  -0.003  -0.004  -0.002  -0.081  -0.009  -0.002   0.005  -0.052   0.047   0.005   0.001
  0.000   0.016   0.005  -0.000   0.002  -0.011   0.001  -0.004  -0.009  -0.081   0.026   0.024  -0.003   0.005   0.047  -0.016
  0.000   0.005  -0.000  -0.003  -0.000  -0.001   0.009   0.006  -0.002   0.026  -0.220  -0.008  -0.002   0.001  -0.016   0.130
 -0.000  -0.026   0.002  -0.001   0.001  -0.004   0.004  -0.007   0.005   0.024  -0.009  -0.179  -0.019  -0.003  -0.015   0.005
  0.000  -0.031   0.001  -0.002  -0.001  -0.004   0.002  -0.003  -0.052  -0.003  -0.002  -0.019  -0.262   0.031   0.002   0.001
 total augmentation occupancy for first ion, spin component:           2
 -0.000  -0.000  -0.000   0.000   0.000  -0.000   0.000  -0.000   0.000  -0.000  -0.000  -0.000  -0.000   0.000   0.000   0.000
 -0.000   0.000  -0.000   0.000   0.000  -0.000   0.000   0.000  -0.000  -0.000  -0.000   0.000   0.000   0.000   0.000   0.000
 -0.000  -0.000  -0.000  -0.000   0.000  -0.000  -0.000   0.000   0.000   0.000  -0.000   0.000  -0.000  -0.000  -0.000   0.000
  0.000   0.000  -0.000  -0.000  -0.000  -0.000  -0.000  -0.000   0.000  -0.000   0.000  -0.000  -0.000  -0.000   0.000  -0.000
  0.000   0.000   0.000  -0.000  -0.000   0.000  -0.000  -0.000   0.000   0.000  -0.000   0.000   0.000  -0.000  -0.000   0.000
 -0.000  -0.000  -0.000  -0.000   0.000   0.000  -0.000  -0.000   0.000   0.000   0.000  -0.000   0.000  -0.000  -0.000  -0.000
  0.000   0.000  -0.000  -0.000  -0.000  -0.000  -0.000   0.000  -0.000  -0.000  -0.000  -0.000   0.000   0.000   0.000   0.000
 -0.000   0.000   0.000  -0.000  -0.000  -0.000   0.000   0.000   0.000  -0.000  -0.000   0.000   0.000  -0.000   0.000   0.000
  0.000  -0.000   0.000   0.000   0.000   0.000  -0.000   0.000  -0.000   0.000   0.000  -0.000   0.000  -0.000  -0.000  -0.000
 -0.000  -0.000   0.000  -0.000   0.000   0.000  -0.000  -0.000   0.000  -0.000  -0.000  -0.000   0.000  -0.000  -0.000   0.000
 -0.000  -0.000  -0.000   0.000  -0.000   0.000  -0.000  -0.000   0.000  -0.000  -0.000   0.000   0.000  -0.000   0.000  -0.000
 -0.000   0.000   0.000  -0.000   0.000  -0.000  -0.000   0.000  -0.000  -0.000   0.000   0.000   0.000   0.000   0.000  -0.000
 -0.000   0.000  -0.000  -0.000   0.000   0.000   0.000   0.000   0.000   0.000   0.000   0.000   0.000  -0.000  -0.000   0.000
  0.000   0.000  -0.000  -0.000  -0.000  -0.000   0.000  -0.000  -0.000  -0.000  -0.000   0.000  -0.000   0.000   0.000   0.000
  0.000   0.000  -0.000   0.000  -0.000  -0.000   0.000   0.000  -0.000  -0.000   0.000   0.000  -0.000   0.000   0.000  -0.000
  0.000   0.000   0.000  -0.000   0.000  -0.000   0.000   0.000  -0.000   0.000  -0.000  -0.000   0.000   0.000  -0.000   0.000
  0.000  -0.000  -0.000   0.000  -0.000   0.000   0.000  -0.000   0.000   0.000  -0.000  -0.000  -0.000  -0.000  -0.000   0.000
  0.000  -0.000   0.000   0.000   0.000  -0.000  -0.000  -0.000  -0.000  -0.000   0.000  -0.000  -0.000   0.000   0.000  -0.000


------------------------ aborting loop because EDIFF is reached ----------------------------------------


 


 total charge     
 
# of ion       s       p       d       tot
------------------------------------------
    1        2.021   5.870   0.217   8.108
    2        2.021   5.870   0.217   8.108
    3        2.018   5.864   0.205   8.087
    4        2.018   5.864   0.205   8.087
    5        0.466   6.475   3.138  10.079
    6        0.466   6.475   3.138  10.079
    7        0.427   6.467   3.027   9.921
    8        0.427   6.467   3.027   9.921
    9        1.585   3.490   0.000   5.075
   10        1.585   3.490   0.000   5.075
   11        1.586   3.498   0.000   5.084
   12        1.586   3.498   0.000   5.084
   13        1.583   3.487   0.000   5.070
   14        1.583   3.487   0.000   5.070
   15        1.594   3.483   0.000   5.077
   16        1.594   3.483   0.000   5.077
   17        1.587   3.469   0.000   5.056
   18        1.587   3.469   0.000   5.056
   19        1.588   3.464   0.000   5.053
   20        1.588   3.464   0.000   5.053
   21        1.598   3.459   0.000   5.057
   22        1.598   3.459   0.000   5.057
--------------------------------------------------
tot         32.104  98.053  13.174 143.330
 


 magnetization (x)
 
# of ion       s       p       d       tot
------------------------------------------
    1       -0.000  -0.000  -0.000  -0.000
    2        0.000  -0.000   0.000   0.000
    3        0.000  -0.000  -0.000   0.000
    4        0.000  -0.000  -0.000   0.000
    5       -0.000  -0.000  -0.000  -0.000
    6        0.000  -0.000  -0.000  -0.000
    7       -0.000  -0.000  -0.000  -0.000
    8       -0.000  -0.000  -0.000  -0.000
    9        0.000   0.000   0.000   0.000
   10        0.000   0.000   0.000   0.000
   11       -0.000   0.000   0.000   0.000
   12        0.000   0.000   0.000   0.000
   13       -0.000  -0.000   0.000  -0.000
   14       -0.000  -0.000   0.000  -0.000
   15       -0.000   0.000   0.000   0.000
   16       -0.000   0.000   0.000   0.000
   17       -0.000   0.000   0.000   0.000
   18       -0.000   0.000   0.000   0.000
   19       -0.000   0.000   0.000   0.000
   20       -0.000   0.000   0.000   0.000
   21       -0.000   0.000   0.000   0.000
   22       -0.000  -0.000   0.000  -0.000
--------------------------------------------------
tot          0.000   0.000  -0.000   0.000
 
    CHARGE:  cpu time    0.9210: real time    0.9210
    FORLOC:  cpu time    0.0057: real time    0.0057
    FORNL :  cpu time    7.1171: real time    7.1175
    STRESS:  cpu time  138.5387: real time  138.5447
    FORCOR:  cpu time    0.1256: real time    0.1257
    FORHAR:  cpu time    0.0109: real time    0.0109
    MIXING:  cpu time    0.0022: real time    0.0022
    OFIELD:  cpu time    0.0000: real time    0.0000

  FORCE on cell =-STRESS in cart. coord.  units (eV):
  Direction    XX          YY          ZZ          XY          YZ          ZX
  --------------------------------------------------------------------------------------
  Alpha Z   773.40721   773.40721   773.40721
  Ewald   -3247.72753 -3588.75647 -3684.58709  -294.62489  -188.96042     5.60980
  Hartree  1651.26773  1376.38541  1356.60254  -200.91463  -125.85959    28.47358
  E(xc)    -891.49371  -891.68410  -891.43561    -0.04312    -0.17662    -0.11444
  Local    -852.09102  -233.12503  -123.85014   493.24371   315.72260   -34.49626
  n-local  -725.94191  -727.93585  -728.05349    -1.11616    -0.91626     0.72880
  augment   373.05136   373.49285   373.51982     0.84838     0.34370    -0.24885
  Kinetic  2919.59400  2918.32675  2924.49945     2.57991    -0.09965     0.01752
  Fock        0.00000     0.00000     0.00000     0.00000     0.00000     0.00000
  -------------------------------------------------------------------------------------
  Total       0.06613     0.11077     0.10268    -0.02681     0.05377    -0.02986
  in kB       0.36596     0.61301     0.56825    -0.14834     0.29756    -0.16522
  external pressure =        0.52 kB  Pullay stress =        0.00 kB


 VOLUME and BASIS-vectors are now :
 -----------------------------------------------------------------------------
  energy-cutoff  :      520.00
  volume of cell :      289.52
      direct lattice vectors                 reciprocal lattice vectors
     5.987175964  0.029403208  2.940994547     0.167093052 -0.016161338  0.000020297
     0.666477818  6.891321712  0.451644566    -0.000560095  0.145184614 -0.000311292
     0.000603383  0.015055902  7.020900695    -0.069957803 -0.002569675  0.142443391

  length of vectors
     6.670576400  6.938190718  7.020916864     0.167872800  0.145186028  0.158716152


 FORCES acting on ions
    electron-ion (+dipol)            ewald-force                    non-local-force                 convergence-correction
 -----------------------------------------------------------------------------------------------
   0.334E+02 0.345E+02 -.159E+02   -.330E+02 -.347E+02 0.167E+02   -.361E+00 0.189E+00 -.804E+00   0.606E-05 -.128E-03 0.290E-03
   -.334E+02 -.345E+02 0.159E+02   0.330E+02 0.347E+02 -.167E+02   0.361E+00 -.189E+00 0.805E+00   0.198E-04 0.139E-03 -.365E-03
   -.398E+02 -.602E+01 -.301E+02   0.388E+02 0.495E+01 0.288E+02   0.984E+00 0.107E+01 0.130E+01   0.449E-04 0.847E-04 0.232E-03
   0.398E+02 0.604E+01 0.301E+02   -.389E+02 -.497E+01 -.288E+02   -.984E+00 -.107E+01 -.130E+01   -.577E-04 -.121E-03 -.216E-03
   -.386E+02 0.528E+02 -.124E+02   0.381E+02 -.529E+02 0.123E+02   0.604E+00 0.843E-01 0.333E-01   0.875E-04 -.184E-03 -.273E-04
   0.386E+02 -.528E+02 0.124E+02   -.381E+02 0.529E+02 -.124E+02   -.604E+00 -.904E-01 -.239E-01   -.123E-03 0.200E-03 0.224E-04
   -.483E+02 0.202E+02 0.782E+01   0.477E+02 -.199E+02 -.675E+01   0.686E+00 -.311E+00 -.132E+01   0.288E-03 0.291E-03 -.630E-04
   0.483E+02 -.203E+02 -.782E+01   -.477E+02 0.199E+02 0.675E+01   -.676E+00 0.306E+00 0.132E+01   -.257E-03 -.254E-03 0.126E-03
   0.428E+02 -.809E+01 -.130E+03   -.508E+02 0.127E+02 0.142E+03   0.799E+01 -.461E+01 -.119E+02   -.960E-04 0.561E-04 0.322E-03
   -.428E+02 0.808E+01 0.130E+03   0.508E+02 -.127E+02 -.142E+03   -.798E+01 0.461E+01 0.119E+02   -.638E-04 0.460E-04 -.357E-03
   0.566E-01 0.142E+03 -.170E+03   0.499E+00 -.153E+03 0.185E+03   -.565E+00 0.114E+02 -.144E+02   0.965E-04 -.399E-03 0.613E-03
   -.646E-01 -.142E+03 0.170E+03   -.490E+00 0.153E+03 -.185E+03   0.565E+00 -.114E+02 0.144E+02   0.142E-03 0.353E-03 -.674E-03
   0.277E+02 0.110E+03 0.103E+03   -.337E+02 -.122E+03 -.114E+03   0.605E+01 0.114E+02 0.111E+02   -.446E-04 -.423E-03 -.426E-03
   -.277E+02 -.110E+03 -.103E+03   0.338E+02 0.122E+03 0.114E+03   -.605E+01 -.114E+02 -.111E+02   0.414E-04 0.365E-03 0.355E-03
   -.129E+03 -.143E+03 0.574E+02   0.142E+03 0.155E+03 -.619E+02   -.129E+02 -.116E+02 0.450E+01   0.358E-03 0.392E-03 -.136E-03
   0.129E+03 0.143E+03 -.574E+02   -.142E+03 -.155E+03 0.619E+02   0.129E+02 0.116E+02 -.450E+01   -.513E-03 -.567E-03 0.162E-03
   -.838E+02 0.953E+02 -.119E+03   0.909E+02 -.104E+03 0.132E+03   -.705E+01 0.861E+01 -.134E+02   0.250E-03 -.173E-03 0.277E-03
   0.838E+02 -.952E+02 0.119E+03   -.909E+02 0.104E+03 -.132E+03   0.705E+01 -.860E+01 0.134E+02   -.229E-03 0.131E-03 -.200E-03
   -.118E+03 -.708E+02 0.105E+03   0.129E+03 0.817E+02 -.116E+03   -.112E+02 -.109E+02 0.104E+02   0.303E-03 0.216E-03 -.254E-03
   0.118E+03 0.708E+02 -.105E+03   -.129E+03 -.817E+02 0.116E+03   0.112E+02 0.109E+02 -.104E+02   -.258E-03 -.161E-03 0.203E-03
   -.289E+01 0.142E+03 0.162E+03   0.419E+01 -.155E+03 -.177E+03   -.130E+01 0.131E+02 0.154E+02   0.405E-04 -.296E-03 -.501E-03
   0.288E+01 -.142E+03 -.162E+03   -.418E+01 0.155E+03 0.177E+03   0.130E+01 -.131E+02 -.154E+02   -.305E-04 0.487E-03 0.684E-03
 -----------------------------------------------------------------------------------------------
   -.324E-02 0.698E-02 -.650E-02   0.178E-14 0.568E-13 -.853E-13   0.349E-02 -.801E-02 0.692E-02   0.512E-05 0.563E-04 0.657E-04
 
 
 POSITION                                       TOTAL-FORCE (eV/Angst)
 -----------------------------------------------------------------------------------
      5.00470      5.82388      4.87867        -0.010181      0.004242      0.004617
      1.64959      1.11193      5.53485         0.010169     -0.004251     -0.004593
      1.98405      3.87558      2.90244        -0.009678     -0.003046     -0.004994
      4.67025      3.06019      7.51113         0.009629      0.003078      0.005005
      1.61285      4.60706      6.26883         0.006847     -0.001890      0.007589
      5.04136      2.32875      4.14474        -0.006754      0.001195     -0.008001
      4.97883      6.54556      8.50014        -0.008564      0.014042     -0.006430
      1.67540      0.39023      1.91334         0.008249     -0.014020      0.006916
      6.21797      5.56926      9.74429        -0.017877     -0.008000      0.012818
      0.43624      1.36655      0.66929         0.017648      0.008234     -0.012811
      3.79589      6.21957      2.89112        -0.009683      0.019496      0.004689
      2.85834      0.71625      7.52243         0.009909     -0.019480     -0.004847
      1.11501      3.40420      5.12083        -0.001945     -0.006136     -0.017312
      5.53921      3.53157      5.29269         0.001954      0.006262      0.017489
      5.43309      0.90512      7.83529        -0.008454      0.002000      0.005180
      1.22122      6.03057      2.57820         0.008549     -0.001771     -0.005308
      2.41448      3.83910      7.56827         0.010745     -0.005042      0.014588
      4.23973      3.09670      2.84524        -0.010645      0.004950     -0.014452
      2.69443      5.65171      5.46925         0.000611      0.020690      0.003673
      3.95988      1.28406      4.94430        -0.000464     -0.020406     -0.003393
      5.00835      5.41028      7.27804         0.005551      0.008919      0.012942
      1.64595      1.52545      3.13557        -0.005620     -0.009064     -0.013366
 -----------------------------------------------------------------------------------
    total drift:                                0.000261     -0.000972      0.000491


--------------------------------------------------------------------------------------------------------



  FREE ENERGIE OF THE ION-ELECTRON SYSTEM (eV)
  ---------------------------------------------------
  free  energy   TOTEN  =      -257.36163103 eV

  energy  without entropy=     -257.36163103  energy(sigma->0) =     -257.36163103
 


--------------------------------------------------------------------------------------------------------


    POTLOK:  cpu time    1.3849: real time    1.3849


--------------------------------------------------------------------------------------------------------




--------------------------------------------------------------------------------------------------------


  
 reached required accuracy - stopping structural energy minimisation
     LOOP+:  cpu time 1435.5116: real time 1435.6172
    4ORBIT:  cpu time    0.0000: real time    0.0000
 


 total charge     
 
# of ion       s       p       d       tot
------------------------------------------
    1        2.021   5.870   0.217   8.108
    2        2.021   5.870   0.217   8.108
    3        2.018   5.864   0.205   8.087
    4        2.018   5.864   0.205   8.087
    5        0.466   6.475   3.138  10.079
    6        0.466   6.475   3.138  10.079
    7        0.427   6.467   3.027   9.921
    8        0.427   6.467   3.027   9.921
    9        1.585   3.490   0.000   5.075
   10        1.585   3.490   0.000   5.075
   11        1.586   3.498   0.000   5.084
   12        1.586   3.498   0.000   5.084
   13        1.583   3.487   0.000   5.070
   14        1.583   3.487   0.000   5.070
   15        1.594   3.483   0.000   5.077
   16        1.594   3.483   0.000   5.077
   17        1.587   3.469   0.000   5.056
   18        1.587   3.469   0.000   5.056
   19        1.588   3.464   0.000   5.053
   20        1.588   3.464   0.000   5.053
   21        1.598   3.459   0.000   5.057
   22        1.598   3.459   0.000   5.057
--------------------------------------------------
tot         32.104  98.053  13.174 143.330
 


 magnetization (x)
 
# of ion       s       p       d       tot
------------------------------------------
    1       -0.000  -0.000  -0.000  -0.000
    2        0.000  -0.000   0.000   0.000
    3        0.000  -0.000  -0.000   0.000
    4        0.000  -0.000  -0.000   0.000
    5       -0.000  -0.000  -0.000  -0.000
    6        0.000  -0.000  -0.000  -0.000
    7       -0.000  -0.000  -0.000  -0.000
    8       -0.000  -0.000  -0.000  -0.000
    9        0.000   0.000   0.000   0.000
   10        0.000   0.000   0.000   0.000
   11       -0.000   0.000   0.000   0.000
   12        0.000   0.000   0.000   0.000
   13       -0.000  -0.000   0.000  -0.000
   14       -0.000  -0.000   0.000  -0.000
   15       -0.000   0.000   0.000   0.000
   16       -0.000   0.000   0.000   0.000
   17       -0.000   0.000   0.000   0.000
   18       -0.000   0.000   0.000   0.000
   19       -0.000   0.000   0.000   0.000
   20       -0.000   0.000   0.000   0.000
   21       -0.000   0.000   0.000   0.000
   22       -0.000  -0.000   0.000  -0.000
--------------------------------------------------
tot          0.000   0.000  -0.000   0.000
 

 total amount of memory used by VASP MPI-rank0   121886. kBytes
=======================================================================

   base      :      30000. kBytes
   nonlr-proj:       6685. kBytes
   fftplans  :       3048. kBytes
   grid      :      11641. kBytes
   one-center:        186. kBytes
   wavefun   :      70326. kBytes
 
  
  
 General timing and accounting informations for this job:
 ========================================================
  
                  Total CPU time used (sec):     1450.445
                            User time (sec):     1446.933
                          System time (sec):        3.512
                         Elapsed time (sec):     1450.903
  
                   Maximum memory used (kb):      164620.
                   Average memory used (kb):           0.
  
                          Minor page faults:        46204
                          Major page faults:           14
                 Voluntary context switches:          461
