 vasp.6.1.2 22Jul20 (build Dec 05 2020 14:50:36) complex                        
  
 executed on         CrayXC-Intel date 2021.06.20  17:13:21
 running on   24 total cores
 distrk:  each k-point on   24 cores,    1 groups
 distr:  one band on NCORE=   4 cores,    6 groups


--------------------------------------------------------------------------------------------------------


 INCAR:
 POTCAR:    PAW_PBE Ca_sv 06Sep2000               
 POTCAR:    PAW_PBE V_pv 07Sep2000                
 POTCAR:    PAW_PBE O 08Apr2002                   
 POTCAR:    PAW_PBE Ca_sv 06Sep2000               
   VRHFIN =Ca: 3s3p4s                                                                               
   LEXCH  = PE                                                                                      
   EATOM  =  1006.0909 eV,   73.9456 Ry                                                             
                                                                                                    
   TITEL  = PAW_PBE Ca_sv 06Sep2000                                                                 
   LULTRA =        F    use ultrasoft PP ?                                                          
   IUNSCR =        1    unscreen: 0-lin 1-nonlin 2-no                                               
   RPACOR =    2.000    partial core radius                                                         
   POMASS =   40.078; ZVAL   =   10.000    mass and valenz                                          
   RCORE  =    2.300    outmost cutoff radius                                                       
   RWIGS  =    2.500; RWIGS  =    1.323    wigner-seitz radius (au A)                               
   ENMAX  =  266.622; ENMIN  =  199.967 eV                                                          
   RCLOC  =    1.808    cutoff for local pot                                                        
   LCOR   =        T    correct aug charges                                                         
   LPAW   =        T    paw PP                                                                      
   EAUG   =  420.852                                                                                
   RMAX   =    2.359    core radius for proj-oper                                                   
   RAUG   =    1.300    factor for augmentation sphere                                              
   RDEP   =    2.392    radius for radial grids                                                     
   RDEPT  =    1.987    core radius for aug-charge                                                  
                                                                                                    
   Atomic configuration                                                                             
    7 entries                                                                                       
     n  l   j            E        occ.                                                              
     1  0  0.50     -3949.1705   2.0000                                                             
     2  0  0.50      -414.3434   2.0000                                                             
     2  1  1.50      -334.7047   6.0000                                                             
     3  0  0.50       -47.0896   2.0000                                                             
     4  0  0.50        -3.7663   2.0000                                                             
     3  1  1.50       -28.0061   6.0000                                                             
     3  2  1.50        -4.0817   0.0000                                                             
   Description                                                                                      
     l       E           TYP  RCUT    TYP  RCUT                                                     
     0    -47.0896403     23  2.300                                                                 
     0     -3.7663320     23  2.300                                                                 
     1    -28.0060855     23  2.300                                                                 
     1      6.8029130     23  2.300                                                                 
     2     -4.0817478     23  2.300                                                                 
     2      0.4464412     23  2.300                                                                 
  local pseudopotential read in
  partial core-charges read in
  partial kinetic energy density read in
  atomic valenz-charges read in
  non local Contribution for L=           0  read in
    real space projection operators read in
  non local Contribution for L=           0  read in
    real space projection operators read in
  non local Contribution for L=           1  read in
    real space projection operators read in
  non local Contribution for L=           1  read in
    real space projection operators read in
  non local Contribution for L=           2  read in
    real space projection operators read in
  non local Contribution for L=           2  read in
    real space projection operators read in
    PAW grid and wavefunctions read in
 
   number of l-projection  operators is LMAX  =           6
   number of lm-projection operators is LMMAX =          18
 
 POTCAR:    PAW_PBE V_pv 07Sep2000                
   VRHFIN =V: p6 d4 s1                                                                              
   LEXCH  = PE                                                                                      
   EATOM  =  1321.6206 eV,   97.1364 Ry                                                             
                                                                                                    
   TITEL  = PAW_PBE V_pv 07Sep2000                                                                  
   LULTRA =        F    use ultrasoft PP ?                                                          
   IUNSCR =        1    unscreen: 0-lin 1-nonlin 2-no                                               
   RPACOR =    1.700    partial core radius                                                         
   POMASS =   50.941; ZVAL   =   11.000    mass and valenz                                          
   RCORE  =    2.300    outmost cutoff radius                                                       
   RWIGS  =    2.300; RWIGS  =    1.217    wigner-seitz radius (au A)                               
   ENMAX  =  263.673; ENMIN  =  197.755 eV                                                          
   RCLOC  =    1.779    cutoff for local pot                                                        
   LCOR   =        T    correct aug charges                                                         
   LPAW   =        T    paw PP                                                                      
   EAUG   =  598.473                                                                                
   DEXC   =    0.000                                                                                
   RMAX   =    2.359    core radius for proj-oper                                                   
   RAUG   =    1.300    factor for augmentation sphere                                              
   RDEP   =    2.430    radius for radial grids                                                     
   RDEPT  =    1.700    core radius for aug-charge                                                  
                                                                                                    
   Atomic configuration                                                                             
    8 entries                                                                                       
     n  l   j            E        occ.                                                              
     1  0  0.50     -5360.7193   2.0000                                                             
     2  0  0.50      -598.4546   2.0000                                                             
     2  1  1.50      -499.0155   6.0000                                                             
     3  0  0.50       -66.5711   2.0000                                                             
     3  1  1.50       -40.5282   6.0000                                                             
     3  2  2.50        -2.4291   4.0000                                                             
     4  0  0.50        -3.8743   1.0000                                                             
     4  3  2.50        -1.3606   0.0000                                                             
   Description                                                                                      
     l       E           TYP  RCUT    TYP  RCUT                                                     
     1    -40.5282431     23  2.000                                                                 
     1      5.4423304     23  2.000                                                                 
     2     -2.4290905     23  2.300                                                                 
     2     -1.0472488     23  2.300                                                                 
     0     -3.8742754     23  2.300                                                                 
     0     27.2116520     23  2.300                                                                 
  local pseudopotential read in
  partial core-charges read in
  partial kinetic energy density read in
  atomic valenz-charges read in
  non local Contribution for L=           1  read in
    real space projection operators read in
  non local Contribution for L=           1  read in
    real space projection operators read in
  non local Contribution for L=           2  read in
    real space projection operators read in
  non local Contribution for L=           2  read in
    real space projection operators read in
  non local Contribution for L=           0  read in
    real space projection operators read in
  non local Contribution for L=           0  read in
    real space projection operators read in
    PAW grid and wavefunctions read in
 
   number of l-projection  operators is LMAX  =           6
   number of lm-projection operators is LMMAX =          18
 
 POTCAR:    PAW_PBE O 08Apr2002                   
   VRHFIN =O: s2p4                                                                                  
   LEXCH  = PE                                                                                      
   EATOM  =   432.3788 eV,   31.7789 Ry                                                             
                                                                                                    
   TITEL  = PAW_PBE O 08Apr2002                                                                     
   LULTRA =        F    use ultrasoft PP ?                                                          
   IUNSCR =        1    unscreen: 0-lin 1-nonlin 2-no                                               
   RPACOR =    1.200    partial core radius                                                         
   POMASS =   16.000; ZVAL   =    6.000    mass and valenz                                          
   RCORE  =    1.520    outmost cutoff radius                                                       
   RWIGS  =    1.550; RWIGS  =    0.820    wigner-seitz radius (au A)                               
   ENMAX  =  400.000; ENMIN  =  300.000 eV                                                          
   ICORE  =        2    local potential                                                             
   LCOR   =        T    correct aug charges                                                         
   LPAW   =        T    paw PP                                                                      
   EAUG   =  605.392                                                                                
   DEXC   =    0.000                                                                                
   RMAX   =    1.553    core radius for proj-oper                                                   
   RAUG   =    1.300    factor for augmentation sphere                                              
   RDEP   =    1.550    radius for radial grids                                                     
   RDEPT  =    1.329    core radius for aug-charge                                                  
                                                                                                    
   Atomic configuration                                                                             
    4 entries                                                                                       
     n  l   j            E        occ.                                                              
     1  0  0.50      -514.6923   2.0000                                                             
     2  0  0.50       -23.9615   2.0000                                                             
     2  1  0.50        -9.0305   4.0000                                                             
     3  2  1.50        -9.5241   0.0000                                                             
   Description                                                                                      
     l       E           TYP  RCUT    TYP  RCUT                                                     
     0    -23.9615318     23  1.200                                                                 
     0     -9.5240782     23  1.200                                                                 
     1     -9.0304911     23  1.520                                                                 
     1      8.1634956     23  1.520                                                                 
     2     -9.5240782      7  1.500                                                                 
  local pseudopotential read in
  partial core-charges read in
  partial kinetic energy density read in
  kinetic energy density of atom read in
  atomic valenz-charges read in
  non local Contribution for L=           0  read in
    real space projection operators read in
  non local Contribution for L=           0  read in
    real space projection operators read in
  non local Contribution for L=           1  read in
    real space projection operators read in
  non local Contribution for L=           1  read in
    real space projection operators read in
    PAW grid and wavefunctions read in
 
   number of l-projection  operators is LMAX  =           4
   number of lm-projection operators is LMMAX =           8
 
 Optimization of the real space projectors (new method)

 maximal supplied QI-value         = 16.25
 optimisation between [QCUT,QGAM] = [ 11.54, 23.24] = [ 37.28,151.24] Ry 
 Optimized for a Real-space Cutoff    1.58 Angstroem

   l    n(q)    QCUT    max X(q) W(low)/X(q) W(high)/X(q)  e(spline) 
   0     11    11.539    11.817    0.25E-04    0.22E-05    0.26E-07
   0     11    11.539     8.461    0.39E-04    0.49E-05    0.55E-07
   1     11    11.539     3.957    0.21E-05    0.44E-05    0.32E-07
   1     11    11.539     4.314    0.56E-04    0.44E-04    0.19E-06
   2     10    11.539    14.565    0.25E-03    0.21E-04    0.75E-06
   2     10    11.539    14.552    0.23E-03    0.22E-04    0.72E-06
 Optimization of the real space projectors (new method)

 maximal supplied QI-value         = 16.25
 optimisation between [QCUT,QGAM] = [ 11.54, 23.24] = [ 37.28,151.24] Ry 
 Optimized for a Real-space Cutoff    1.53 Angstroem

   l    n(q)    QCUT    max X(q) W(low)/X(q) W(high)/X(q)  e(spline) 
   1     10    11.539     3.206    0.43E-05    0.46E-05    0.52E-07
   1     10    11.539     4.597    0.39E-04    0.25E-04    0.17E-06
   2     10    11.539    89.000    0.10E-03    0.13E-03    0.24E-06
   2     10    11.539    82.410    0.10E-03    0.13E-03    0.23E-06
   0     11    11.539    36.565    0.42E-04    0.19E-04    0.30E-06
   0     11    11.539    13.729    0.20E-04    0.13E-04    0.22E-06
 Optimization of the real space projectors (new method)

 maximal supplied QI-value         = 24.76
 optimisation between [QCUT,QGAM] = [ 11.64, 23.27] = [ 37.91,151.63] Ry 
 Optimized for a Real-space Cutoff    1.14 Angstroem

   l    n(q)    QCUT    max X(q) W(low)/X(q) W(high)/X(q)  e(spline) 
   0      8    11.635    20.381    0.10E-03    0.33E-03    0.24E-06
   0      8    11.635    15.268    0.11E-03    0.35E-03    0.26E-06
   1      7    11.635     5.964    0.24E-03    0.31E-03    0.30E-06
   1      7    11.635     5.382    0.22E-03    0.25E-03    0.26E-06
  PAW_PBE Ca_sv 06Sep2000               :
 energy of atom  1       EATOM=-1006.0909
 kinetic energy error for atom=    0.0022 (will be added to EATOM!!)
  PAW_PBE V_pv 07Sep2000                :
 energy of atom  2       EATOM=-1321.6206
 kinetic energy error for atom=    0.0054 (will be added to EATOM!!)
  PAW_PBE O 08Apr2002                   :
 energy of atom  3       EATOM= -432.3788
 kinetic energy error for atom=    0.0208 (will be added to EATOM!!)
 
 
 POSCAR: Ca2 V8 O18
  positions in direct lattice
  velocities in cartesian coordinates

 METAGGA = SCAN     LMAXTAU =  6    LMIXTAU =  F

 exchange correlation table for  LEXCH =        8
   RHO(1)=    0.500       N(1)  =     2000
   RHO(2)=  100.500       N(2)  =     4000
 


--------------------------------------------------------------------------------------------------------


 ion  position               nearest neighbor table
   1  0.750  0.750  0.835-  19 2.41  20 2.41  22 2.41  21 2.41  13 2.46  12 2.46  11 2.46  14 2.46

   2  0.250  0.250  0.165-  24 2.41  23 2.41  25 2.41  26 2.41  18 2.46  15 2.46  16 2.46  17 2.46

   3  0.463  0.658  0.365-  19 1.63  13 1.95  15 1.96  11 1.96  27 2.04
   4  0.037  0.842  0.365-  20 1.63  14 1.95  16 1.96  12 1.96  27 2.04
   5  0.658  0.037  0.365-  21 1.63  12 1.95  17 1.96  13 1.96  28 2.04
   6  0.842  0.463  0.365-  22 1.63  11 1.95  18 1.96  14 1.96  28 2.04
   7  0.537  0.342  0.635-  23 1.63  17 1.95  11 1.96  15 1.96  28 2.04
   8  0.963  0.158  0.635-  24 1.63  18 1.95  12 1.96  16 1.96  28 2.04
   9  0.342  0.963  0.635-  25 1.63  16 1.95  13 1.96  17 1.96  27 2.04
  10  0.158  0.537  0.635-  26 1.63  15 1.95  14 1.96  18 1.96  27 2.04
  11  0.644  0.543  0.528-   6 1.95   7 1.96   3 1.96   1 2.46
  12  0.856  0.957  0.528-   5 1.95   8 1.96   4 1.96   1 2.46
  13  0.543  0.856  0.528-   3 1.95   9 1.96   5 1.96   1 2.46
  14  0.957  0.644  0.528-   4 1.95  10 1.96   6 1.96   1 2.46
  15  0.356  0.457  0.472-  10 1.95   3 1.96   7 1.96   2 2.46
  16  0.144  0.043  0.472-   9 1.95   4 1.96   8 1.96   2 2.46
  17  0.457  0.144  0.472-   7 1.95   5 1.96   9 1.96   2 2.46
  18  0.043  0.356  0.472-   8 1.95   6 1.96  10 1.96   2 2.46
  19  0.498  0.677  0.044-   3 1.63   1 2.41
  20  0.002  0.823  0.044-   4 1.63   1 2.41
  21  0.677  0.002  0.044-   5 1.63   1 2.41
  22  0.823  0.498  0.044-   6 1.63   1 2.41
  23  0.502  0.323  0.956-   7 1.63   2 2.41
  24  0.998  0.177  0.956-   8 1.63   2 2.41
  25  0.323  0.998  0.956-   9 1.63   2 2.41
  26  0.177  0.502  0.956-  10 1.63   2 2.41
  27  0.250  0.750  0.500-   3 2.04   9 2.04   4 2.04  10 2.04
  28  0.750  0.250  0.500-   8 2.04   6 2.04   7 2.04   5 2.04
 

IMPORTANT INFORMATION: All symmetrisations will be switched off!
NOSYMM: (Re-)initialisation of all symmetry stuff for point group C_1.


----------------------------------------------------------------------------------------

                                     Primitive cell                                     

  volume of cell :     343.0832

  direct lattice vectors                    reciprocal lattice vectors
     8.303064522  0.002755318  0.000000591     0.120437448  0.000035928 -0.000000006
    -0.002476854  8.302994270 -0.000017163    -0.000039967  0.120438467  0.000000250
     0.000000257 -0.000010336  4.976525897    -0.000000014  0.000000415  0.200943393

  length of vectors
     8.303064979  8.302994640  4.976525897     0.120437453  0.120438474  0.200943393

  position of ions in fractional coordinates (direct lattice)
     0.749970473  0.749990674  0.834826501
     0.249970055  0.249991480  0.165173777
     0.462524926  0.657689030  0.364895925
     0.037442196  0.842278592  0.364943615
     0.657710408  0.037417202  0.364869873
     0.842288851  0.462515416  0.364988196
     0.537441924  0.342278844  0.635056672
     0.962524516  0.157689557  0.635103499
     0.342290156  0.962516591  0.635011354
     0.157709973  0.537417135  0.635128881
     0.643776856  0.542597660  0.527910904
     0.856217190  0.957284591  0.527893414
     0.542693389  0.856175150  0.527881157
     0.957406808  0.643775634  0.527997119
     0.356217139  0.457284292  0.472106939
     0.143776732  0.042597573  0.472091779
     0.457407891  0.143775178  0.472000782
     0.042691932  0.356175828  0.472115161
     0.498354666  0.676705722  0.043858412
     0.001516983  0.823464999  0.043912213
     0.676589528  0.001697050  0.043777992
     0.823459555  0.498419666  0.043937720
     0.501516464  0.323465363  0.956089088
     0.998354190  0.176706809  0.956142996
     0.323462840  0.998424128  0.956064965
     0.176588489  0.501697658  0.956220661
     0.250048171  0.749984146  0.499980095
     0.750047700  0.249984031  0.500020310

  ion indices of the primitive-cell ions
   primitive index   ion index
                 1           1
                 2           2
                 3           3
                 4           4
                 5           5
                 6           6
                 7           7
                 8           8
                 9           9
                10          10
                11          11
                12          12
                13          13
                14          14
                15          15
                16          16
                17          17
                18          18
                19          19
                20          20
                21          21
                22          22
                23          23
                24          24
                25          25
                26          26
                27          27
                28          28

----------------------------------------------------------------------------------------

 
 
 KPOINTS: K-points file                           

Automatic generation of k-mesh.
Space group operators:
 irot       det(A)        alpha          n_x          n_y          n_z        tau_x        tau_y        tau_z
    1     1.000000     0.000000     1.000000     0.000000     0.000000     0.000000     0.000000     0.000000
 
 Subroutine IBZKPT returns following result:
 ===========================================
 
 Found     58 irreducible k-points:
 
 Following reciprocal coordinates:
            Coordinates               Weight
  0.000000  0.000000  0.000000      1.000000
  0.250000  0.000000  0.000000      2.000000
  0.000000 -0.250000 -0.000000      2.000000
  0.500000 -0.000000 -0.000000      1.000000
 -0.000000  0.500000  0.000000      1.000000
  0.250000  0.250000 -0.000000      2.000000
  0.500000  0.250000  0.000000      2.000000
 -0.250000  0.500000 -0.000000      2.000000
 -0.250000  0.250000 -0.000000      2.000000
  0.500000  0.500000 -0.000000      1.000000
  0.000000 -0.000000  0.142857      2.000000
  0.250000  0.000000  0.142857      2.000000
 -0.250000  0.000000  0.142857      2.000000
  0.000000 -0.250000 -0.142857      2.000000
  0.000000  0.250000 -0.142857      2.000000
  0.500000 -0.000000  0.142857      2.000000
  0.000000  0.500000 -0.142857      2.000000
  0.250000  0.250000  0.142857      2.000000
 -0.250000 -0.250000  0.142857      2.000000
  0.500000  0.250000  0.142857      2.000000
  0.500000 -0.250000  0.142857      2.000000
 -0.250000  0.500000 -0.142857      2.000000
  0.250000  0.500000 -0.142857      2.000000
 -0.250000  0.250000  0.142857      2.000000
  0.250000 -0.250000  0.142857      2.000000
  0.500000  0.500000  0.142857      2.000000
  0.000000 -0.000000  0.285714      2.000000
  0.250000 -0.000000  0.285714      2.000000
 -0.250000 -0.000000  0.285714      2.000000
 -0.000000 -0.250000 -0.285714      2.000000
 -0.000000  0.250000 -0.285714      2.000000
  0.500000  0.000000  0.285714      2.000000
  0.000000  0.500000 -0.285714      2.000000
  0.250000  0.250000  0.285714      2.000000
 -0.250000 -0.250000  0.285714      2.000000
  0.500000  0.250000  0.285714      2.000000
  0.500000 -0.250000  0.285714      2.000000
 -0.250000  0.500000 -0.285714      2.000000
  0.250000  0.500000 -0.285714      2.000000
 -0.250000  0.250000  0.285714      2.000000
  0.250000 -0.250000  0.285714      2.000000
  0.500000  0.500000  0.285714      2.000000
 -0.000000  0.000000  0.428571      2.000000
  0.250000  0.000000  0.428571      2.000000
 -0.250000 -0.000000  0.428571      2.000000
 -0.000000 -0.250000 -0.428571      2.000000
  0.000000  0.250000 -0.428571      2.000000
  0.500000 -0.000000  0.428571      2.000000
 -0.000000  0.500000 -0.428571      2.000000
  0.250000  0.250000  0.428571      2.000000
 -0.250000 -0.250000  0.428571      2.000000
  0.500000  0.250000  0.428571      2.000000
  0.500000 -0.250000  0.428571      2.000000
 -0.250000  0.500000 -0.428571      2.000000
  0.250000  0.500000 -0.428571      2.000000
 -0.250000  0.250000  0.428571      2.000000
  0.250000 -0.250000  0.428571      2.000000
  0.500000  0.500000  0.428571      2.000000
 
 Following cartesian coordinates:
            Coordinates               Weight
  0.000000  0.000000  0.000000      1.000000
  0.030109  0.000009 -0.000000      2.000000
  0.000010 -0.030110 -0.000000      2.000000
  0.060219  0.000018 -0.000000      1.000000
 -0.000020  0.060219  0.000000      1.000000
  0.030099  0.030119  0.000000      2.000000
  0.060209  0.030128  0.000000      2.000000
 -0.030129  0.060210  0.000000      2.000000
 -0.030119  0.030101  0.000000      2.000000
  0.060199  0.060237  0.000000      1.000000
 -0.000000  0.000000  0.028706      2.000000
  0.030109  0.000009  0.028706      2.000000
 -0.030109 -0.000009  0.028706      2.000000
  0.000010 -0.030110 -0.028706      2.000000
 -0.000010  0.030110 -0.028706      2.000000
  0.060219  0.000018  0.028706      2.000000
 -0.000020  0.060219 -0.028706      2.000000
  0.030099  0.030119  0.028706      2.000000
 -0.030099 -0.030119  0.028706      2.000000
  0.060209  0.030128  0.028706      2.000000
  0.060229 -0.030092  0.028706      2.000000
 -0.030129  0.060210 -0.028706      2.000000
  0.030089  0.060228 -0.028706      2.000000
 -0.030119  0.030101  0.028706      2.000000
  0.030119 -0.030101  0.028706      2.000000
  0.060199  0.060237  0.028706      2.000000
 -0.000000  0.000000  0.057412      2.000000
  0.030109  0.000009  0.057412      2.000000
 -0.030109 -0.000009  0.057412      2.000000
  0.000010 -0.030110 -0.057412      2.000000
 -0.000010  0.030109 -0.057412      2.000000
  0.060219  0.000018  0.057412      2.000000
 -0.000020  0.060219 -0.057412      2.000000
  0.030099  0.030119  0.057412      2.000000
 -0.030099 -0.030118  0.057412      2.000000
  0.060209  0.030128  0.057412      2.000000
  0.060229 -0.030092  0.057412      2.000000
 -0.030129  0.060210 -0.057412      2.000000
  0.030089  0.060228 -0.057412      2.000000
 -0.030119  0.030101  0.057412      2.000000
  0.030119 -0.030101  0.057412      2.000000
  0.060199  0.060237  0.057413      2.000000
 -0.000000  0.000000  0.086119      2.000000
  0.030109  0.000009  0.086119      2.000000
 -0.030109 -0.000009  0.086119      2.000000
  0.000010 -0.030110 -0.086119      2.000000
 -0.000010  0.030109 -0.086119      2.000000
  0.060219  0.000018  0.086119      2.000000
 -0.000020  0.060219 -0.086118      2.000000
  0.030099  0.030119  0.086119      2.000000
 -0.030099 -0.030118  0.086119      2.000000
  0.060209  0.030128  0.086119      2.000000
  0.060229 -0.030091  0.086119      2.000000
 -0.030129  0.060210 -0.086118      2.000000
  0.030089  0.060228 -0.086118      2.000000
 -0.030119  0.030101  0.086119      2.000000
  0.030119 -0.030100  0.086119      2.000000
  0.060199  0.060237  0.086119      2.000000
 


--------------------------------------------------------------------------------------------------------




 Dimension of arrays:
   k-points           NKPTS =     58   k-points in BZ     NKDIM =     58   number of bands    NBANDS=    138
   number of dos      NEDOS =    301   number of ions     NIONS =     28
   non local maximal  LDIM  =      6   non local SUM 2l+1 LMDIM =     18
   total plane-waves  NPLWV = 163840
   max r-space proj   IRMAX =   7937   max aug-charges    IRDMAX=  22982
   dimension x,y,z NGX =    64 NGY =   64 NGZ =   40
   dimension x,y,z NGXF=   128 NGYF=  128 NGZF=   80
   support grid    NGXF=   128 NGYF=  128 NGZF=   80
   ions per type =               2   8  18
   NGX,Y,Z   is equivalent  to a cutoff of  12.81, 12.81, 13.36 a.u.
   NGXF,Y,Z  is equivalent  to a cutoff of  25.63, 25.63, 26.72 a.u.

 SYSTEM =  unknown system                          
 POSCAR =  Ca2 V8 O18                              

 Startparameter for this run:
   NWRITE =      2    write-flag & timer
   PREC   = accura    normal or accurate (medium, high low for compatibility)
   ISTART =      0    job   : 0-new  1-cont  2-samecut
   ICHARG =      1    charge: 1-file 2-atom 10-const
   ISPIN  =      2    spin polarized calculation?
   LNONCOLLINEAR =      F non collinear calculations
   LSORBIT =      F    spin-orbit coupling
   INIWAV =      1    electr: 0-lowe 1-rand  2-diag
   LASPH  =      T    aspherical Exc in radial PAW
   METAGGA=      F    non-selfconsistent MetaGGA calc.

 Electronic Relaxation 1
   ENCUT  =  520.0 eV  38.22 Ry    6.18 a.u.  15.44 15.44  9.25*2*pi/ulx,y,z
   ENINI  =  520.0     initial cutoff
   ENAUG  =  605.4 eV  augmentation charge cutoff
   NELM   =    100;   NELMIN=  6; NELMDL= -5     # of ELM steps 
   EDIFF  = 0.1E-04   stopping-criterion for ELM
   LREAL  =      T    real-space projection
   NLSPLINE    = F    spline interpolate recip. space projectors
   LCOMPAT=      F    compatible to vasp.4.4
   GGA_COMPAT  = T    GGA compatible to vasp.4.4-vasp.4.6
   LMAXPAW     = -100 max onsite density
   LMAXMIX     =    4 max onsite mixed and CHGCAR
   VOSKOWN=      0    Vosko Wilk Nusair interpolation
   ROPT   =   -0.00025  -0.00025  -0.00025
 Ionic relaxation
   EDIFFG = -.3E-01   stopping-criterion for IOM
   NSW    =     99    number of steps for IOM
   NBLOCK =      1;   KBLOCK =     99    inner block; outer block 
   IBRION =      2    ionic relax: 0-MD 1-quasi-New 2-CG
   NFREE  =      1    steps in history (QN), initial steepest desc. (CG)
   ISIF   =      3    stress and relaxation
   IWAVPR =     11    prediction:  0-non 1-charg 2-wave 3-comb
   ISYM   =      0    0-nonsym 1-usesym 2-fastsym
   LCORR  =      T    Harris-Foulkes like correction to forces

   POTIM  = 0.5000    time-step for ionic-motion
   TEIN   =    0.0    initial temperature
   TEBEG  =    0.0;   TEEND  =   0.0 temperature during run
   SMASS  =  -3.00    Nose mass-parameter (am)
   estimated Nose-frequenzy (Omega)   =  0.10E-29 period in steps = 0.13E+47 mass=  -0.158E-26a.u.
   SCALEE = 1.0000    scale energy and forces
   NPACO  =    256;   APACO  = 16.0  distance and # of slots for P.C.
   PSTRESS=    0.0 pullay stress

  Mass of Ions in am
   POMASS =  40.08 50.94 16.00
  Ionic Valenz
   ZVAL   =  10.00 11.00  6.00
  Atomic Wigner-Seitz radii
   RWIGS  =  -1.00 -1.00 -1.00
  virtual crystal weights 
   VCA    =   1.00  1.00  1.00
   NELECT =     216.0000    total number of electrons
   NUPDOWN=      -1.0000    fix difference up-down

 DOS related values:
   EMIN   =  10.00;   EMAX   =-10.00  energy-range for DOS
   EFERMI =   0.00
   ISMEAR =     0;   SIGMA  =   0.05  broadening in eV -4-tet -1-fermi 0-gaus

 Electronic relaxation 2 (details)
   IALGO  =     38    algorithm
   LDIAG  =      T    sub-space diagonalisation (order eigenvalues)
   LSUBROT=      F    optimize rotation matrix (better conditioning)
   TURBO    =      0    0=normal 1=particle mesh
   IRESTART =      0    0=no restart 2=restart with 2 vectors
   NREBOOT  =      0    no. of reboots
   NMIN     =      0    reboot dimension
   EREF     =   0.00    reference energy to select bands
   IMIX   =      4    mixing-type and parameters
     AMIX     =   0.40;   BMIX     =  1.00
     AMIX_MAG =   1.60;   BMIX_MAG =  1.00
     AMIN     =   0.10
     WC   =   100.;   INIMIX=   1;  MIXPRE=   1;  MAXMIX= -45

 Intra band minimization:
   WEIMIN = 0.0010     energy-eigenvalue tresh-hold
   EBREAK =  0.18E-07  absolut break condition
   DEPER  =   0.30     relativ break condition  

   TIME   =   0.40     timestep for ELM

  volume/ion in A,a.u.               =      12.25        82.69
  Fermi-wavevector in a.u.,A,eV,Ry     =   1.403114  2.651501 26.786179  1.968729
  Thomas-Fermi vector in A             =   2.525808
 
 Write flags
   LWAVE        =      F    write WAVECAR
   LDOWNSAMPLE  =      F    k-point downsampling of WAVECAR
   LCHARG       =      T    write CHGCAR
   LVTOT        =      F    write LOCPOT, total local potential
   LVHAR        =      F    write LOCPOT, Hartree potential only
   LELF         =      F    write electronic localiz. function (ELF)
   LORBIT       =     11    0 simple, 1 ext, 2 COOP (PROOUT), +10 PAW based schemes


 Dipole corrections
   LMONO  =      F    monopole corrections only (constant potential shift)
   LDIPOL =      F    correct potential (dipole corrections)
   IDIPOL =      0    1-x, 2-y, 3-z, 4-all directions 
   EPSILON=  1.0000000 bulk dielectric constant

 LDA+U is selected, type is set to LDAUTYPE =  2
   angular momentum for each species LDAUL =    -1    2   -1
   U (eV)           for each species LDAUU =   0.0  1.0  0.0
   J (eV)           for each species LDAUJ =   0.0  0.0  0.0
 Exchange correlation treatment:
   GGA     =    --    GGA type
   LEXCH   =     8    internal setting for exchange type
   VOSKOWN=      0    Vosko Wilk Nusair interpolation
   LHFCALC =     F    Hartree Fock is set to
   LHFONE  =     F    Hartree Fock one center treatment
   AEXX    =    0.0000 exact exchange contribution

 Linear response parameters
   LEPSILON=     F    determine dielectric tensor
   LRPA    =     F    only Hartree local field effects (RPA)
   LNABLA  =     F    use nabla operator in PAW spheres
   LVEL    =     F    velocity operator in full k-point grid
   LINTERFAST=   F  fast interpolation
   KINTER  =     0    interpolate to denser k-point grid
   CSHIFT  =0.1000    complex shift for real part using Kramers Kronig
   OMEGAMAX=  -1.0    maximum frequency
   DEG_THRESHOLD= 0.2000000E-02 threshold for treating states as degnerate
   RTIME   =   -0.100 relaxation time in fs
  (WPLASMAI=    0.000 imaginary part of plasma frequency in eV, 0.658/RTIME)
   DFIELD  = 0.0000000 0.0000000 0.0000000 field for delta impulse in time
 
 Orbital magnetization related:
   ORBITALMAG=     F  switch on orbital magnetization
   LCHIMAG   =     F  perturbation theory with respect to B field
   DQ        =  0.001000  dq finite difference perturbation B field
   LLRAUG    =     F  two centre corrections for induced B field



--------------------------------------------------------------------------------------------------------


 conjugate gradient relaxation of ions
 charge density and potential will be updated during run
 spin polarized calculation
 Variant of blocked Davidson
 Davidson routine will perform the subspace rotation
 perform sub-space diagonalisation
    after iterative eigenvector-optimisation
 modified Broyden-mixing scheme, WC =      100.0
 initial mixing is a Kerker type mixing with AMIX =  0.4000 and BMIX =      1.0000
 Hartree-type preconditioning will be used
 using additional bands           30
 real space projection scheme for non local part
 use partial core corrections
 calculate Harris-corrections to forces 
   (improved forces if not selfconsistent)
 use gradient corrections 
 use of overlap-Matrix (Vanderbilt PP)
 Gauss-broadening in eV      SIGMA  =   0.05


--------------------------------------------------------------------------------------------------------


  energy-cutoff  :      520.00
  volume of cell :      343.08
      direct lattice vectors                 reciprocal lattice vectors
     8.303064522  0.002755318  0.000000591     0.120437448  0.000035928 -0.000000006
    -0.002476854  8.302994270 -0.000017163    -0.000039967  0.120438467  0.000000250
     0.000000257 -0.000010336  4.976525897    -0.000000014  0.000000415  0.200943393

  length of vectors
     8.303064979  8.302994640  4.976525897     0.120437453  0.120438474  0.200943393


 
 k-points in units of 2pi/SCALE and weight: K-points file                           
   0.00000000  0.00000000  0.00000000       0.009
   0.03010936  0.00000898 -0.00000000       0.018
   0.00000999 -0.03010962 -0.00000006       0.018
   0.06021872  0.00001796 -0.00000000       0.009
  -0.00001998  0.06021923  0.00000013       0.009
   0.03009937  0.03011860  0.00000006       0.018
   0.06020873  0.03012758  0.00000006       0.018
  -0.03012935  0.06021025  0.00000013       0.018
  -0.03011935  0.03010063  0.00000006       0.018
   0.06019874  0.06023720  0.00000012       0.009
  -0.00000000  0.00000006  0.02870620       0.018
   0.03010936  0.00000904  0.02870620       0.018
  -0.03010936 -0.00000892  0.02870620       0.018
   0.00000999 -0.03010968 -0.02870626       0.018
  -0.00000999  0.03010956 -0.02870614       0.018
   0.06021872  0.00001802  0.02870620       0.018
  -0.00001998  0.06021917 -0.02870607       0.018
   0.03009937  0.03011866  0.02870626       0.018
  -0.03009937 -0.03011854  0.02870614       0.018
   0.06020873  0.03012764  0.02870626       0.018
   0.06022871 -0.03009159  0.02870613       0.018
  -0.03012934  0.06021019 -0.02870607       0.018
   0.03008938  0.06022816 -0.02870608       0.018
  -0.03011936  0.03010069  0.02870626       0.018
   0.03011935 -0.03010058  0.02870613       0.018
   0.06019874  0.06023726  0.02870632       0.018
  -0.00000000  0.00000012  0.05741240       0.018
   0.03010936  0.00000910  0.05741240       0.018
  -0.03010937 -0.00000886  0.05741240       0.018
   0.00001000 -0.03010974 -0.05741246       0.018
  -0.00000999  0.03010950 -0.05741234       0.018
   0.06021872  0.00001808  0.05741239       0.018
  -0.00001998  0.06021911 -0.05741227       0.018
   0.03009937  0.03011872  0.05741246       0.018
  -0.03009937 -0.03011848  0.05741234       0.018
   0.06020873  0.03012770  0.05741246       0.018
   0.06022871 -0.03009153  0.05741233       0.018
  -0.03012934  0.06021013 -0.05741227       0.018
   0.03008938  0.06022810 -0.05741227       0.018
  -0.03011936  0.03010075  0.05741246       0.018
   0.03011935 -0.03010052  0.05741233       0.018
   0.06019874  0.06023732  0.05741252       0.018
  -0.00000001  0.00000018  0.08611860       0.018
   0.03010936  0.00000916  0.08611860       0.018
  -0.03010937 -0.00000880  0.08611860       0.018
   0.00001000 -0.03010979 -0.08611866       0.018
  -0.00000999  0.03010944 -0.08611853       0.018
   0.06021872  0.00001814  0.08611859       0.018
  -0.00001998  0.06021906 -0.08611847       0.018
   0.03009936  0.03011878  0.08611866       0.018
  -0.03009938 -0.03011842  0.08611854       0.018
   0.06020873  0.03012776  0.08611866       0.018
   0.06022871 -0.03009147  0.08611853       0.018
  -0.03012934  0.06021007 -0.08611847       0.018
   0.03008938  0.06022804 -0.08611847       0.018
  -0.03011936  0.03010081  0.08611866       0.018
   0.03011935 -0.03010046  0.08611853       0.018
   0.06019873  0.06023738  0.08611872       0.018
 
 k-points in reciprocal lattice and weights: K-points file                           
   0.00000000  0.00000000  0.00000000       0.009
   0.25000000  0.00000000  0.00000000       0.018
   0.00000000 -0.25000000 -0.00000000       0.018
   0.50000000 -0.00000000 -0.00000000       0.009
  -0.00000000  0.50000000  0.00000000       0.009
   0.25000000  0.25000000 -0.00000000       0.018
   0.50000000  0.25000000  0.00000000       0.018
  -0.25000000  0.50000000 -0.00000000       0.018
  -0.25000000  0.25000000 -0.00000000       0.018
   0.50000000  0.50000000 -0.00000000       0.009
   0.00000000 -0.00000000  0.14285714       0.018
   0.25000000  0.00000000  0.14285714       0.018
  -0.25000000  0.00000000  0.14285714       0.018
   0.00000000 -0.25000000 -0.14285714       0.018
   0.00000000  0.25000000 -0.14285714       0.018
   0.50000000 -0.00000000  0.14285714       0.018
   0.00000000  0.50000000 -0.14285714       0.018
   0.25000000  0.25000000  0.14285714       0.018
  -0.25000000 -0.25000000  0.14285714       0.018
   0.50000000  0.25000000  0.14285714       0.018
   0.50000000 -0.25000000  0.14285714       0.018
  -0.25000000  0.50000000 -0.14285714       0.018
   0.25000000  0.50000000 -0.14285714       0.018
  -0.25000000  0.25000000  0.14285714       0.018
   0.25000000 -0.25000000  0.14285714       0.018
   0.50000000  0.50000000  0.14285714       0.018
   0.00000000 -0.00000000  0.28571429       0.018
   0.25000000 -0.00000000  0.28571429       0.018
  -0.25000000 -0.00000000  0.28571429       0.018
  -0.00000000 -0.25000000 -0.28571429       0.018
  -0.00000000  0.25000000 -0.28571429       0.018
   0.50000000  0.00000000  0.28571429       0.018
   0.00000000  0.50000000 -0.28571429       0.018
   0.25000000  0.25000000  0.28571429       0.018
  -0.25000000 -0.25000000  0.28571429       0.018
   0.50000000  0.25000000  0.28571429       0.018
   0.50000000 -0.25000000  0.28571429       0.018
  -0.25000000  0.50000000 -0.28571429       0.018
   0.25000000  0.50000000 -0.28571429       0.018
  -0.25000000  0.25000000  0.28571429       0.018
   0.25000000 -0.25000000  0.28571429       0.018
   0.50000000  0.50000000  0.28571429       0.018
  -0.00000000  0.00000000  0.42857143       0.018
   0.25000000  0.00000000  0.42857143       0.018
  -0.25000000 -0.00000000  0.42857143       0.018
  -0.00000000 -0.25000000 -0.42857143       0.018
   0.00000000  0.25000000 -0.42857143       0.018
   0.50000000 -0.00000000  0.42857143       0.018
  -0.00000000  0.50000000 -0.42857143       0.018
   0.25000000  0.25000000  0.42857143       0.018
  -0.25000000 -0.25000000  0.42857143       0.018
   0.50000000  0.25000000  0.42857143       0.018
   0.50000000 -0.25000000  0.42857143       0.018
  -0.25000000  0.50000000 -0.42857143       0.018
   0.25000000  0.50000000 -0.42857143       0.018
  -0.25000000  0.25000000  0.42857143       0.018
   0.25000000 -0.25000000  0.42857143       0.018
   0.50000000  0.50000000  0.42857143       0.018
 
 position of ions in fractional coordinates (direct lattice) 
   0.74997047  0.74999067  0.83482650
   0.24997006  0.24999148  0.16517378
   0.46252493  0.65768903  0.36489593
   0.03744220  0.84227859  0.36494362
   0.65771041  0.03741720  0.36486987
   0.84228885  0.46251542  0.36498820
   0.53744192  0.34227884  0.63505667
   0.96252452  0.15768956  0.63510350
   0.34229016  0.96251659  0.63501135
   0.15770997  0.53741714  0.63512888
   0.64377686  0.54259766  0.52791090
   0.85621719  0.95728459  0.52789341
   0.54269339  0.85617515  0.52788116
   0.95740681  0.64377563  0.52799712
   0.35621714  0.45728429  0.47210694
   0.14377673  0.04259757  0.47209178
   0.45740789  0.14377518  0.47200078
   0.04269193  0.35617583  0.47211516
   0.49835467  0.67670572  0.04385841
   0.00151698  0.82346500  0.04391221
   0.67658953  0.00169705  0.04377799
   0.82345955  0.49841967  0.04393772
   0.50151646  0.32346536  0.95608909
   0.99835419  0.17670681  0.95614300
   0.32346284  0.99842413  0.95606496
   0.17658849  0.50169766  0.95622066
   0.25004817  0.74998415  0.49998010
   0.75004770  0.24998403  0.50002031
 
 position of ions in cartesian coordinates  (Angst):
   6.22519583  6.22922605  4.15452327
   2.07489835  2.07636487  0.82198744
   3.83874540  5.46205888  1.81590301
   0.30879886  6.99353371  1.81613692
   5.46091937  0.31248325  1.81578412
   6.99243319  3.84257985  1.81636577
   4.46156736  2.84341354  3.16037042
   7.99151275  1.31194098  3.16060687
   2.83967340  7.99270629  3.16013413
   1.30814514  4.46259937  3.16072619
   5.34397697  4.50695361  2.62715335
   7.10685566  7.95068217  2.62705932
   4.50389774  7.11030720  2.62699988
   7.94781609  5.34789790  2.62758085
   2.95656138  3.79780547  2.34944477
   1.19368210  0.35407868  2.34937632
   3.79753124  1.19501990  2.34892192
   0.35359179  2.95743861  2.34948724
   4.13619486  5.62005640  0.21825120
   0.01055601  6.83722890  0.21851613
   5.61776231  0.01595437  0.21786268
   6.83600331  4.14064407  0.21864913
   4.16332263  2.68710301  4.75799685
   8.28896182  1.46993652  4.75826794
   2.68326012  8.29079118  4.75786511
   1.46498324  4.16606946  4.75864838
   2.07430862  6.22779786  2.48815117
   6.22707540  2.07767743  2.48836017
 


--------------------------------------------------------------------------------------------------------


 k-point   1 :   0.0000 0.0000 0.0000  plane waves:    9231
 k-point   2 :   0.2500 0.0000 0.0000  plane waves:    9229
 k-point   3 :   0.0000-0.2500-0.0000  plane waves:    9229
 k-point   4 :   0.5000-0.0000-0.0000  plane waves:    9258
 k-point   5 :  -0.0000 0.5000 0.0000  plane waves:    9258
 k-point   6 :   0.2500 0.2500-0.0000  plane waves:    9239
 k-point   7 :   0.5000 0.2500 0.0000  plane waves:    9248
 k-point   8 :  -0.2500 0.5000-0.0000  plane waves:    9248
 k-point   9 :  -0.2500 0.2500-0.0000  plane waves:    9236
 k-point  10 :   0.5000 0.5000-0.0000  plane waves:    9244
 k-point  11 :   0.0000-0.0000 0.1429  plane waves:    9243
 k-point  12 :   0.2500 0.0000 0.1429  plane waves:    9239
 k-point  13 :  -0.2500 0.0000 0.1429  plane waves:    9239
 k-point  14 :   0.0000-0.2500-0.1429  plane waves:    9239
 k-point  15 :   0.0000 0.2500-0.1429  plane waves:    9239
 k-point  16 :   0.5000-0.0000 0.1429  plane waves:    9244
 k-point  17 :   0.0000 0.5000-0.1429  plane waves:    9244
 k-point  18 :   0.2500 0.2500 0.1429  plane waves:    9252
 k-point  19 :  -0.2500-0.2500 0.1429  plane waves:    9252
 k-point  20 :   0.5000 0.2500 0.1429  plane waves:    9254
 k-point  21 :   0.5000-0.2500 0.1429  plane waves:    9254
 k-point  22 :  -0.2500 0.5000-0.1429  plane waves:    9254
 k-point  23 :   0.2500 0.5000-0.1429  plane waves:    9254
 k-point  24 :  -0.2500 0.2500 0.1429  plane waves:    9252
 k-point  25 :   0.2500-0.2500 0.1429  plane waves:    9252
 k-point  26 :   0.5000 0.5000 0.1429  plane waves:    9212
 k-point  27 :   0.0000-0.0000 0.2857  plane waves:    9242
 k-point  28 :   0.2500-0.0000 0.2857  plane waves:    9251
 k-point  29 :  -0.2500-0.0000 0.2857  plane waves:    9251
 k-point  30 :  -0.0000-0.2500-0.2857  plane waves:    9251
 k-point  31 :  -0.0000 0.2500-0.2857  plane waves:    9251
 k-point  32 :   0.5000 0.0000 0.2857  plane waves:    9238
 k-point  33 :   0.0000 0.5000-0.2857  plane waves:    9238
 k-point  34 :   0.2500 0.2500 0.2857  plane waves:    9227
 k-point  35 :  -0.2500-0.2500 0.2857  plane waves:    9227
 k-point  36 :   0.5000 0.2500 0.2857  plane waves:    9230
 k-point  37 :   0.5000-0.2500 0.2857  plane waves:    9230
 k-point  38 :  -0.2500 0.5000-0.2857  plane waves:    9230
 k-point  39 :   0.2500 0.5000-0.2857  plane waves:    9230
 k-point  40 :  -0.2500 0.2500 0.2857  plane waves:    9227
 k-point  41 :   0.2500-0.2500 0.2857  plane waves:    9227
 k-point  42 :   0.5000 0.5000 0.2857  plane waves:    9200
 k-point  43 :  -0.0000 0.0000 0.4286  plane waves:    9238
 k-point  44 :   0.2500 0.0000 0.4286  plane waves:    9257
 k-point  45 :  -0.2500-0.0000 0.4286  plane waves:    9257
 k-point  46 :  -0.0000-0.2500-0.4286  plane waves:    9257
 k-point  47 :   0.0000 0.2500-0.4286  plane waves:    9257
 k-point  48 :   0.5000-0.0000 0.4286  plane waves:    9260
 k-point  49 :  -0.0000 0.5000-0.4286  plane waves:    9260
 k-point  50 :   0.2500 0.2500 0.4286  plane waves:    9247
 k-point  51 :  -0.2500-0.2500 0.4286  plane waves:    9247
 k-point  52 :   0.5000 0.2500 0.4286  plane waves:    9224
 k-point  53 :   0.5000-0.2500 0.4286  plane waves:    9224
 k-point  54 :  -0.2500 0.5000-0.4286  plane waves:    9224
 k-point  55 :   0.2500 0.5000-0.4286  plane waves:    9224
 k-point  56 :  -0.2500 0.2500 0.4286  plane waves:    9247
 k-point  57 :   0.2500-0.2500 0.4286  plane waves:    9247
 k-point  58 :   0.5000 0.5000 0.4286  plane waves:    9208

 maximum and minimum number of plane-waves per node :      2355     2265

 maximum number of plane-waves:      9260
 maximum index in each direction: 
   IXMAX=   15   IYMAX=   15   IZMAX=    9
   IXMIN=  -15   IYMIN=  -15   IZMIN=   -9


 real space projection operators:
  total allocation   :      13281.91 KBytes
  max/ min on nodes  :       3337.16       3295.75


 parallel 3D FFT for wavefunctions:
    minimum data exchange during FFTs selected (reduces bandwidth)
 parallel 3D FFT for charge:
    minimum data exchange during FFTs selected (reduces bandwidth)


 total amount of memory used by VASP MPI-rank0   158292. kBytes
=======================================================================

   base      :      30000. kBytes
   nonlr-proj:       7851. kBytes
   fftplans  :       3269. kBytes
   grid      :      12455. kBytes
   one-center:        217. kBytes
   wavefun   :     104500. kBytes
 
     INWAV:  cpu time    0.0000: real time    0.0000
 Broyden mixing: mesh for mixing (old mesh)
   NGX = 31   NGY = 31   NGZ = 19
  (NGX  =128   NGY  =128   NGZ  = 80)
  gives a total of  18259 points

 initial charge density was supplied:
 number of electron     216.0000011 magnetization       8.0000010
 keeping initial charge density in first step


--------------------------------------------------------------------------------------------------------


 Maximum index for non-local projection operator         1867
 Maximum index for augmentation-charges         1248 (set IRDMAX)


--------------------------------------------------------------------------------------------------------


 First call to EWALD:  gamma=   0.253
 Maximum number of real-space cells 2x 2x 4
 Maximum number of reciprocal cells 3x 3x 2

    FEWALD:  cpu time    0.0019: real time    0.0019


--------------------------------------- Iteration      1(   1)  ---------------------------------------


    POTLOK:  cpu time    0.1410: real time    0.1438
    SETDIJ:  cpu time    1.7304: real time    1.7304
atom =   3  type =  2  l = 2
 
 onsite density matrix
 
spin component  1
 
  0.4643 -0.0052 -0.0005  0.0756  0.3187
 -0.0052  0.2748 -0.0180  0.0099  0.0182
 -0.0005 -0.0180  0.3930 -0.0519  0.0134
  0.0756  0.0099 -0.0519  0.2956  0.1118
  0.3187  0.0182  0.0134  0.1118  0.6423
 
spin component  2
 
  0.1597 -0.0071 -0.0013 -0.0249 -0.0741
 -0.0071  0.2104 -0.0248  0.0077 -0.0018
 -0.0013 -0.0248  0.3339 -0.0530  0.0087
 -0.0249  0.0077 -0.0530  0.2072 -0.0221
 -0.0741 -0.0018  0.0087 -0.0221  0.1141
 
 occupancies and eigenvectors
 
  o =  0.0523  v =  0.0000  0.0000  0.0000  0.0000  0.0000 -0.5887 -0.0284 -0.0209 -0.2115 -0.7794      0.0000  0.0000  0.0000  0.0000  0.0000  0.0000  0.0000  0.0000  0.0000  0.0000
  o =  0.1905  v =  0.0000  0.0000  0.0000  0.0000  0.0000 -0.1741 -0.1512 -0.3556 -0.8264  0.3707      0.0000  0.0000  0.0000  0.0000  0.0000  0.0000  0.0000  0.0000  0.0000  0.0000
  o =  0.2046  v =  0.0000  0.0000  0.0000  0.0000  0.0000  0.2333  0.9133  0.0625 -0.3012 -0.1294      0.0000  0.0000  0.0000  0.0000  0.0000  0.0000  0.0000  0.0000  0.0000  0.0000
  o =  0.2151  v = -0.7057 -0.2494 -0.1415 -0.2360  0.6034  0.0000  0.0000  0.0000  0.0000  0.0000      0.0000  0.0000  0.0000  0.0000  0.0000  0.0000  0.0000  0.0000  0.0000  0.0000
  o =  0.2191  v =  0.0000  0.0000  0.0000  0.0000  0.0000  0.7538 -0.3348 -0.1439 -0.2530 -0.4847      0.0000  0.0000  0.0000  0.0000  0.0000  0.0000  0.0000  0.0000  0.0000  0.0000
  o =  0.2493  v =  0.2995  0.1870 -0.2968 -0.8872  0.0110  0.0000  0.0000  0.0000  0.0000  0.0000      0.0000  0.0000  0.0000  0.0000  0.0000  0.0000  0.0000  0.0000  0.0000  0.0000
  o =  0.2768  v = -0.2551  0.9404  0.1549  0.0621  0.1509  0.0000  0.0000  0.0000  0.0000  0.0000      0.0000  0.0000  0.0000  0.0000  0.0000  0.0000  0.0000  0.0000  0.0000  0.0000
  o =  0.3588  v =  0.0000  0.0000  0.0000  0.0000  0.0000  0.0214 -0.1733  0.9211 -0.3429  0.0585      0.0000  0.0000  0.0000  0.0000  0.0000  0.0000  0.0000  0.0000  0.0000  0.0000
  o =  0.4149  v =  0.0322 -0.1346  0.9316 -0.3283  0.0721  0.0000  0.0000  0.0000  0.0000  0.0000      0.0000  0.0000  0.0000  0.0000  0.0000  0.0000  0.0000  0.0000  0.0000  0.0000
  o =  0.9138  v = -0.5884 -0.0208  0.0024 -0.2135 -0.7796  0.0000  0.0000  0.0000  0.0000  0.0000      0.0000  0.0000  0.0000  0.0000  0.0000  0.0000  0.0000  0.0000  0.0000  0.0000
atom =   4  type =  2  l = 2
 
 onsite density matrix
 
spin component  1
 
  0.4652  0.0041 -0.0003 -0.0757  0.3189
  0.0041  0.2747  0.0177  0.0101 -0.0196
 -0.0003  0.0177  0.3931  0.0521  0.0137
 -0.0757  0.0101  0.0521  0.2956 -0.1113
  0.3189 -0.0196  0.0137 -0.1113  0.6415
 
spin component  2
 
  0.1597  0.0072 -0.0013  0.0249 -0.0741
  0.0072  0.2104  0.0244  0.0077  0.0020
 -0.0013  0.0244  0.3339  0.0531  0.0087
  0.0249  0.0077  0.0531  0.2074  0.0221
 -0.0741  0.0020  0.0087  0.0221  0.1141
 
 occupancies and eigenvectors
 
  o =  0.0523  v =  0.0000  0.0000  0.0000  0.0000  0.0000 -0.5889  0.0297 -0.0210  0.2112 -0.7793      0.0000  0.0000  0.0000  0.0000  0.0000  0.0000  0.0000  0.0000  0.0000  0.0000
  o =  0.1906  v =  0.0000  0.0000  0.0000  0.0000  0.0000 -0.1751  0.1436 -0.3554  0.8272  0.3716      0.0000  0.0000  0.0000  0.0000  0.0000  0.0000  0.0000  0.0000  0.0000  0.0000
  o =  0.2047  v =  0.0000  0.0000  0.0000  0.0000  0.0000  0.2320 -0.9154  0.0633  0.2945 -0.1320      0.0000  0.0000  0.0000  0.0000  0.0000  0.0000  0.0000  0.0000  0.0000  0.0000
  o =  0.2153  v = -0.7047  0.2504 -0.1415  0.2348  0.6046  0.0000  0.0000  0.0000  0.0000  0.0000      0.0000  0.0000  0.0000  0.0000  0.0000  0.0000  0.0000  0.0000  0.0000  0.0000
  o =  0.2192  v =  0.0000  0.0000  0.0000  0.0000  0.0000  0.7538  0.3334 -0.1446  0.2568 -0.4835      0.0000  0.0000  0.0000  0.0000  0.0000  0.0000  0.0000  0.0000  0.0000  0.0000
  o =  0.2492  v = -0.2993  0.1828  0.2990 -0.8874 -0.0099  0.0000  0.0000  0.0000  0.0000  0.0000      0.0000  0.0000  0.0000  0.0000  0.0000  0.0000  0.0000  0.0000  0.0000  0.0000
  o =  0.2767  v =  0.2559  0.9412 -0.1511  0.0583 -0.1495  0.0000  0.0000  0.0000  0.0000  0.0000      0.0000  0.0000  0.0000  0.0000  0.0000  0.0000  0.0000  0.0000  0.0000  0.0000
  o =  0.3589  v =  0.0000  0.0000  0.0000  0.0000  0.0000  0.0214  0.1713  0.9211  0.3441  0.0588      0.0000  0.0000  0.0000  0.0000  0.0000  0.0000  0.0000  0.0000  0.0000  0.0000
  o =  0.4150  v =  0.0317  0.1320  0.9315  0.3295  0.0723  0.0000  0.0000  0.0000  0.0000  0.0000      0.0000  0.0000  0.0000  0.0000  0.0000  0.0000  0.0000  0.0000  0.0000  0.0000
  o =  0.9138  v = -0.5894  0.0236  0.0019  0.2129 -0.7789  0.0000  0.0000  0.0000  0.0000  0.0000      0.0000  0.0000  0.0000  0.0000  0.0000  0.0000  0.0000  0.0000  0.0000  0.0000
atom =   5  type =  2  l = 2
 
 onsite density matrix
 
spin component  1
 
  0.4643  0.0747  0.0008  0.0043  0.3189
  0.0747  0.2947  0.0519 -0.0099  0.1105
  0.0008  0.0519  0.3935 -0.0177 -0.0131
  0.0043 -0.0099 -0.0177  0.2746 -0.0193
  0.3189  0.1105 -0.0131 -0.0193  0.6430
 
spin component  2
 
  0.1597 -0.0249  0.0013  0.0071 -0.0741
 -0.0249  0.2072  0.0529 -0.0076 -0.0219
  0.0013  0.0529  0.3341 -0.0245 -0.0087
  0.0071 -0.0076 -0.0245  0.2104  0.0019
 -0.0741 -0.0219 -0.0087  0.0019  0.1140
 
 occupancies and eigenvectors
 
  o =  0.0523  v =  0.0000  0.0000  0.0000  0.0000  0.0000  0.5887  0.2105 -0.0207 -0.0291  0.7796      0.0000  0.0000  0.0000  0.0000  0.0000  0.0000  0.0000  0.0000  0.0000  0.0000
  o =  0.1905  v =  0.0000  0.0000  0.0000  0.0000  0.0000  0.1773  0.8268 -0.3538 -0.1463 -0.3720      0.0000  0.0000  0.0000  0.0000  0.0000  0.0000  0.0000  0.0000  0.0000  0.0000
  o =  0.2047  v =  0.0000  0.0000  0.0000  0.0000  0.0000  0.2312 -0.2971 -0.0633 -0.9151 -0.1301      0.0000  0.0000  0.0000  0.0000  0.0000  0.0000  0.0000  0.0000  0.0000  0.0000
  o =  0.2152  v = -0.7061 -0.2351  0.1409  0.2509  0.6028  0.0000  0.0000  0.0000  0.0000  0.0000      0.0000  0.0000  0.0000  0.0000  0.0000  0.0000  0.0000  0.0000  0.0000  0.0000
  o =  0.2191  v =  0.0000  0.0000  0.0000  0.0000  0.0000  0.7537 -0.2583  0.1444  0.3330 -0.4831      0.0000  0.0000  0.0000  0.0000  0.0000  0.0000  0.0000  0.0000  0.0000  0.0000
  o =  0.2492  v =  0.2979 -0.8889  0.2962 -0.1825  0.0091  0.0000  0.0000  0.0000  0.0000  0.0000      0.0000  0.0000  0.0000  0.0000  0.0000  0.0000  0.0000  0.0000  0.0000  0.0000
  o =  0.2766  v =  0.2560 -0.0589  0.1504  0.9412 -0.1500  0.0000  0.0000  0.0000  0.0000  0.0000      0.0000  0.0000  0.0000  0.0000  0.0000  0.0000  0.0000  0.0000  0.0000  0.0000
  o =  0.3588  v =  0.0000  0.0000  0.0000  0.0000  0.0000 -0.0209  0.3422  0.9217 -0.1718 -0.0586      0.0000  0.0000  0.0000  0.0000  0.0000  0.0000  0.0000  0.0000  0.0000  0.0000
  o =  0.4151  v =  0.0312 -0.3266 -0.9326  0.1316  0.0723  0.0000  0.0000  0.0000  0.0000  0.0000      0.0000  0.0000  0.0000  0.0000  0.0000  0.0000  0.0000  0.0000  0.0000  0.0000
  o =  0.9138  v = -0.5883 -0.2109 -0.0031  0.0230 -0.7803  0.0000  0.0000  0.0000  0.0000  0.0000      0.0000  0.0000  0.0000  0.0000  0.0000  0.0000  0.0000  0.0000  0.0000  0.0000
atom =   6  type =  2  l = 2
 
 onsite density matrix
 
spin component  1
 
  0.4632 -0.0757  0.0001 -0.0038  0.3183
 -0.0757  0.2956 -0.0518 -0.0102 -0.1115
  0.0001 -0.0518  0.3931  0.0178 -0.0140
 -0.0038 -0.0102  0.0178  0.2746  0.0201
  0.3183 -0.1115 -0.0140  0.0201  0.6433
 
spin component  2
 
  0.1597  0.0248  0.0013 -0.0072 -0.0741
  0.0248  0.2073 -0.0531 -0.0077  0.0222
  0.0013 -0.0531  0.3339  0.0245 -0.0087
 -0.0072 -0.0077  0.0245  0.2104 -0.0020
 -0.0741  0.0222 -0.0087 -0.0020  0.1141
 
 occupancies and eigenvectors
 
  o =  0.0523  v =  0.0000  0.0000  0.0000  0.0000  0.0000  0.5886 -0.2113 -0.0211  0.0297  0.7794      0.0000  0.0000  0.0000  0.0000  0.0000  0.0000  0.0000  0.0000  0.0000  0.0000
  o =  0.1906  v =  0.0000  0.0000  0.0000  0.0000  0.0000  0.1722 -0.8280 -0.3559  0.1460 -0.3697      0.0000  0.0000  0.0000  0.0000  0.0000  0.0000  0.0000  0.0000  0.0000  0.0000
  o =  0.2046  v =  0.0000  0.0000  0.0000  0.0000  0.0000  0.2346  0.2964 -0.0629  0.9140 -0.1332      0.0000  0.0000  0.0000  0.0000  0.0000  0.0000  0.0000  0.0000  0.0000  0.0000
  o =  0.2154  v = -0.7092  0.2251  0.1386 -0.2531  0.6026  0.0000  0.0000  0.0000  0.0000  0.0000      0.0000  0.0000  0.0000  0.0000  0.0000  0.0000  0.0000  0.0000  0.0000  0.0000
  o =  0.2190  v =  0.0000  0.0000  0.0000  0.0000  0.0000  0.7539  0.2523  0.1431 -0.3361 -0.4843      0.0000  0.0000  0.0000  0.0000  0.0000  0.0000  0.0000  0.0000  0.0000  0.0000
  o =  0.2491  v = -0.2922 -0.8903 -0.2995 -0.1787 -0.0174  0.0000  0.0000  0.0000  0.0000  0.0000      0.0000  0.0000  0.0000  0.0000  0.0000  0.0000  0.0000  0.0000  0.0000  0.0000
  o =  0.2766  v = -0.2571 -0.0566 -0.1511  0.9412  0.1487  0.0000  0.0000  0.0000  0.0000  0.0000      0.0000  0.0000  0.0000  0.0000  0.0000  0.0000  0.0000  0.0000  0.0000  0.0000
  o =  0.3588  v =  0.0000  0.0000  0.0000  0.0000  0.0000 -0.0211 -0.3438  0.9211  0.1717 -0.0589      0.0000  0.0000  0.0000  0.0000  0.0000  0.0000  0.0000  0.0000  0.0000  0.0000
  o =  0.4150  v =  0.0308  0.3286 -0.9318 -0.1328  0.0721  0.0000  0.0000  0.0000  0.0000  0.0000      0.0000  0.0000  0.0000  0.0000  0.0000  0.0000  0.0000  0.0000  0.0000  0.0000
  o =  0.9138  v = -0.5871  0.2132 -0.0011 -0.0244 -0.7806  0.0000  0.0000  0.0000  0.0000  0.0000      0.0000  0.0000  0.0000  0.0000  0.0000  0.0000  0.0000  0.0000  0.0000  0.0000
atom =   7  type =  2  l = 2
 
 onsite density matrix
 
spin component  1
 
  0.4651 -0.0041 -0.0003  0.0757  0.3189
 -0.0041  0.2747 -0.0177  0.0101  0.0196
 -0.0003 -0.0177  0.3930 -0.0521  0.0137
  0.0757  0.0101 -0.0521  0.2956  0.1113
  0.3189  0.0196  0.0137  0.1113  0.6415
 
spin component  2
 
  0.1597 -0.0072 -0.0013 -0.0249 -0.0741
 -0.0072  0.2104 -0.0244  0.0077 -0.0020
 -0.0013 -0.0244  0.3339 -0.0531  0.0087
 -0.0249  0.0077 -0.0531  0.2074 -0.0221
 -0.0741 -0.0020  0.0087 -0.0221  0.1141
 
 occupancies and eigenvectors
 
  o =  0.0523  v =  0.0000  0.0000  0.0000  0.0000  0.0000 -0.5889 -0.0297 -0.0210 -0.2112 -0.7793      0.0000  0.0000  0.0000  0.0000  0.0000  0.0000  0.0000  0.0000  0.0000  0.0000
  o =  0.1906  v =  0.0000  0.0000  0.0000  0.0000  0.0000 -0.1751 -0.1437 -0.3554 -0.8272  0.3717      0.0000  0.0000  0.0000  0.0000  0.0000  0.0000  0.0000  0.0000  0.0000  0.0000
  o =  0.2047  v =  0.0000  0.0000  0.0000  0.0000  0.0000  0.2320  0.9154  0.0633 -0.2946 -0.1320      0.0000  0.0000  0.0000  0.0000  0.0000  0.0000  0.0000  0.0000  0.0000  0.0000
  o =  0.2153  v = -0.7047 -0.2504 -0.1415 -0.2348  0.6046  0.0000  0.0000  0.0000  0.0000  0.0000      0.0000  0.0000  0.0000  0.0000  0.0000  0.0000  0.0000  0.0000  0.0000  0.0000
  o =  0.2192  v =  0.0000  0.0000  0.0000  0.0000  0.0000  0.7538 -0.3334 -0.1446 -0.2568 -0.4834      0.0000  0.0000  0.0000  0.0000  0.0000  0.0000  0.0000  0.0000  0.0000  0.0000
  o =  0.2492  v =  0.2993  0.1827 -0.2990 -0.8874  0.0099  0.0000  0.0000  0.0000  0.0000  0.0000      0.0000  0.0000  0.0000  0.0000  0.0000  0.0000  0.0000  0.0000  0.0000  0.0000
  o =  0.2767  v = -0.2558  0.9412  0.1511  0.0583  0.1495  0.0000  0.0000  0.0000  0.0000  0.0000      0.0000  0.0000  0.0000  0.0000  0.0000  0.0000  0.0000  0.0000  0.0000  0.0000
  o =  0.3589  v =  0.0000  0.0000  0.0000  0.0000  0.0000  0.0214 -0.1713  0.9211 -0.3441  0.0588      0.0000  0.0000  0.0000  0.0000  0.0000  0.0000  0.0000  0.0000  0.0000  0.0000
  o =  0.4150  v =  0.0317 -0.1320  0.9315 -0.3295  0.0723  0.0000  0.0000  0.0000  0.0000  0.0000      0.0000  0.0000  0.0000  0.0000  0.0000  0.0000  0.0000  0.0000  0.0000  0.0000
  o =  0.9138  v = -0.5894 -0.0236  0.0019 -0.2130 -0.7789  0.0000  0.0000  0.0000  0.0000  0.0000      0.0000  0.0000  0.0000  0.0000  0.0000  0.0000  0.0000  0.0000  0.0000  0.0000
atom =   8  type =  2  l = 2
 
 onsite density matrix
 
spin component  1
 
  0.4643  0.0052 -0.0005 -0.0756  0.3187
  0.0052  0.2748  0.0180  0.0099 -0.0182
 -0.0005  0.0180  0.3930  0.0519  0.0134
 -0.0756  0.0099  0.0519  0.2956 -0.1118
  0.3187 -0.0182  0.0134 -0.1118  0.6423
 
spin component  2
 
  0.1597  0.0071 -0.0013  0.0249 -0.0741
  0.0071  0.2104  0.0248  0.0077  0.0018
 -0.0013  0.0248  0.3338  0.0530  0.0087
  0.0249  0.0077  0.0530  0.2072  0.0221
 -0.0741  0.0018  0.0087  0.0221  0.1141
 
 occupancies and eigenvectors
 
  o =  0.0523  v =  0.0000  0.0000  0.0000  0.0000  0.0000 -0.5887  0.0284 -0.0209  0.2115 -0.7794      0.0000  0.0000  0.0000  0.0000  0.0000  0.0000  0.0000  0.0000  0.0000  0.0000
  o =  0.1905  v =  0.0000  0.0000  0.0000  0.0000  0.0000 -0.1740  0.1512 -0.3556  0.8264  0.3707      0.0000  0.0000  0.0000  0.0000  0.0000  0.0000  0.0000  0.0000  0.0000  0.0000
  o =  0.2046  v =  0.0000  0.0000  0.0000  0.0000  0.0000  0.2332 -0.9134  0.0625  0.3012 -0.1294      0.0000  0.0000  0.0000  0.0000  0.0000  0.0000  0.0000  0.0000  0.0000  0.0000
  o =  0.2151  v = -0.7057  0.2494 -0.1415  0.2360  0.6034  0.0000  0.0000  0.0000  0.0000  0.0000      0.0000  0.0000  0.0000  0.0000  0.0000  0.0000  0.0000  0.0000  0.0000  0.0000
  o =  0.2191  v =  0.0000  0.0000  0.0000  0.0000  0.0000  0.7539  0.3348 -0.1439  0.2530 -0.4847      0.0000  0.0000  0.0000  0.0000  0.0000  0.0000  0.0000  0.0000  0.0000  0.0000
  o =  0.2493  v = -0.2995  0.1870  0.2968 -0.8872 -0.0110  0.0000  0.0000  0.0000  0.0000  0.0000      0.0000  0.0000  0.0000  0.0000  0.0000  0.0000  0.0000  0.0000  0.0000  0.0000
  o =  0.2768  v =  0.2551  0.9404 -0.1549  0.0621 -0.1509  0.0000  0.0000  0.0000  0.0000  0.0000      0.0000  0.0000  0.0000  0.0000  0.0000  0.0000  0.0000  0.0000  0.0000  0.0000
  o =  0.3588  v =  0.0000  0.0000  0.0000  0.0000  0.0000  0.0214  0.1733  0.9211  0.3429  0.0585      0.0000  0.0000  0.0000  0.0000  0.0000  0.0000  0.0000  0.0000  0.0000  0.0000
  o =  0.4149  v =  0.0322  0.1346  0.9316  0.3283  0.0721  0.0000  0.0000  0.0000  0.0000  0.0000      0.0000  0.0000  0.0000  0.0000  0.0000  0.0000  0.0000  0.0000  0.0000  0.0000
  o =  0.9138  v = -0.5884  0.0208  0.0024  0.2135 -0.7796  0.0000  0.0000  0.0000  0.0000  0.0000      0.0000  0.0000  0.0000  0.0000  0.0000  0.0000  0.0000  0.0000  0.0000  0.0000
atom =   9  type =  2  l = 2
 
 onsite density matrix
 
spin component  1
 
  0.4632  0.0757  0.0001  0.0038  0.3183
  0.0757  0.2956  0.0518 -0.0102  0.1115
  0.0001  0.0518  0.3931 -0.0178 -0.0140
  0.0038 -0.0102 -0.0178  0.2746 -0.0201
  0.3183  0.1115 -0.0140 -0.0201  0.6433
 
spin component  2
 
  0.1597 -0.0248  0.0013  0.0072 -0.0741
 -0.0248  0.2073  0.0531 -0.0077 -0.0222
  0.0013  0.0531  0.3339 -0.0245 -0.0087
  0.0072 -0.0077 -0.0245  0.2103  0.0020
 -0.0741 -0.0222 -0.0087  0.0020  0.1141
 
 occupancies and eigenvectors
 
  o =  0.0523  v =  0.0000  0.0000  0.0000  0.0000  0.0000  0.5886  0.2113 -0.0211 -0.0297  0.7794      0.0000  0.0000  0.0000  0.0000  0.0000  0.0000  0.0000  0.0000  0.0000  0.0000
  o =  0.1906  v =  0.0000  0.0000  0.0000  0.0000  0.0000  0.1722  0.8280 -0.3560 -0.1460 -0.3697      0.0000  0.0000  0.0000  0.0000  0.0000  0.0000  0.0000  0.0000  0.0000  0.0000
  o =  0.2046  v =  0.0000  0.0000  0.0000  0.0000  0.0000  0.2345 -0.2965 -0.0629 -0.9140 -0.1332      0.0000  0.0000  0.0000  0.0000  0.0000  0.0000  0.0000  0.0000  0.0000  0.0000
  o =  0.2153  v = -0.7092 -0.2251  0.1386  0.2531  0.6026  0.0000  0.0000  0.0000  0.0000  0.0000      0.0000  0.0000  0.0000  0.0000  0.0000  0.0000  0.0000  0.0000  0.0000  0.0000
  o =  0.2190  v =  0.0000  0.0000  0.0000  0.0000  0.0000  0.7539 -0.2523  0.1431  0.3360 -0.4843      0.0000  0.0000  0.0000  0.0000  0.0000  0.0000  0.0000  0.0000  0.0000  0.0000
  o =  0.2491  v =  0.2922 -0.8904  0.2995 -0.1786  0.0174  0.0000  0.0000  0.0000  0.0000  0.0000      0.0000  0.0000  0.0000  0.0000  0.0000  0.0000  0.0000  0.0000  0.0000  0.0000
  o =  0.2765  v =  0.2570 -0.0566  0.1510  0.9412 -0.1486  0.0000  0.0000  0.0000  0.0000  0.0000      0.0000  0.0000  0.0000  0.0000  0.0000  0.0000  0.0000  0.0000  0.0000  0.0000
  o =  0.3588  v =  0.0000  0.0000  0.0000  0.0000  0.0000 -0.0211  0.3438  0.9211 -0.1717 -0.0589      0.0000  0.0000  0.0000  0.0000  0.0000  0.0000  0.0000  0.0000  0.0000  0.0000
  o =  0.4150  v =  0.0308 -0.3286 -0.9318  0.1328  0.0721  0.0000  0.0000  0.0000  0.0000  0.0000      0.0000  0.0000  0.0000  0.0000  0.0000  0.0000  0.0000  0.0000  0.0000  0.0000
  o =  0.9138  v = -0.5871 -0.2132 -0.0011  0.0244 -0.7806  0.0000  0.0000  0.0000  0.0000  0.0000      0.0000  0.0000  0.0000  0.0000  0.0000  0.0000  0.0000  0.0000  0.0000  0.0000
atom =  10  type =  2  l = 2
 
 onsite density matrix
 
spin component  1
 
  0.4642 -0.0747  0.0008 -0.0043  0.3189
 -0.0747  0.2947 -0.0519 -0.0099 -0.1105
  0.0008 -0.0519  0.3935  0.0177 -0.0131
 -0.0043 -0.0099  0.0177  0.2746  0.0193
  0.3189 -0.1105 -0.0131  0.0193  0.6430
 
spin component  2
 
  0.1597  0.0249  0.0013 -0.0071 -0.0741
  0.0249  0.2072 -0.0529 -0.0076  0.0219
  0.0013 -0.0529  0.3341  0.0245 -0.0087
 -0.0071 -0.0076  0.0245  0.2104 -0.0019
 -0.0741  0.0219 -0.0087 -0.0019  0.1140
 
 occupancies and eigenvectors
 
  o =  0.0523  v =  0.0000  0.0000  0.0000  0.0000  0.0000  0.5887 -0.2105 -0.0207  0.0291  0.7796      0.0000  0.0000  0.0000  0.0000  0.0000  0.0000  0.0000  0.0000  0.0000  0.0000
  o =  0.1905  v =  0.0000  0.0000  0.0000  0.0000  0.0000  0.1773 -0.8268 -0.3538  0.1463 -0.3720      0.0000  0.0000  0.0000  0.0000  0.0000  0.0000  0.0000  0.0000  0.0000  0.0000
  o =  0.2047  v =  0.0000  0.0000  0.0000  0.0000  0.0000  0.2312  0.2972 -0.0633  0.9150 -0.1301      0.0000  0.0000  0.0000  0.0000  0.0000  0.0000  0.0000  0.0000  0.0000  0.0000
  o =  0.2152  v = -0.7062  0.2350  0.1408 -0.2509  0.6028  0.0000  0.0000  0.0000  0.0000  0.0000      0.0000  0.0000  0.0000  0.0000  0.0000  0.0000  0.0000  0.0000  0.0000  0.0000
  o =  0.2191  v =  0.0000  0.0000  0.0000  0.0000  0.0000  0.7537  0.2583  0.1444 -0.3331 -0.4831      0.0000  0.0000  0.0000  0.0000  0.0000  0.0000  0.0000  0.0000  0.0000  0.0000
  o =  0.2492  v = -0.2979 -0.8889 -0.2962 -0.1824 -0.0091  0.0000  0.0000  0.0000  0.0000  0.0000      0.0000  0.0000  0.0000  0.0000  0.0000  0.0000  0.0000  0.0000  0.0000  0.0000
  o =  0.2766  v = -0.2559 -0.0588 -0.1504  0.9412  0.1500  0.0000  0.0000  0.0000  0.0000  0.0000      0.0000  0.0000  0.0000  0.0000  0.0000  0.0000  0.0000  0.0000  0.0000  0.0000
  o =  0.3588  v =  0.0000  0.0000  0.0000  0.0000  0.0000 -0.0209 -0.3422  0.9217  0.1718 -0.0586      0.0000  0.0000  0.0000  0.0000  0.0000  0.0000  0.0000  0.0000  0.0000  0.0000
  o =  0.4151  v =  0.0312  0.3266 -0.9326 -0.1316  0.0723  0.0000  0.0000  0.0000  0.0000  0.0000      0.0000  0.0000  0.0000  0.0000  0.0000  0.0000  0.0000  0.0000  0.0000  0.0000
  o =  0.9138  v = -0.5883  0.2109 -0.0031 -0.0230 -0.7803  0.0000  0.0000  0.0000  0.0000  0.0000      0.0000  0.0000  0.0000  0.0000  0.0000  0.0000  0.0000  0.0000  0.0000  0.0000
     EDDAV:  cpu time   64.5360: real time   64.5431
       DOS:  cpu time    0.0074: real time    0.0074
    --------------------------------------------
      LOOP:  cpu time   66.4147: real time   66.4247

 eigenvalue-minimisations  : 32448
 total energy-change (2. order) : 0.2732528E+04  (-0.1172494E+05)
 number of electron     216.0000011 magnetization       8.0000010
 augmentation part      216.0000011 magnetization       8.0000010

 Free energy of the ion-electron system (eV)
  ---------------------------------------------------
  alpha Z        PSCENC =      1052.90156362
  Ewald energy   TEWEN  =    -13812.45223379
  -Hartree energ DENC   =     -6048.20071582
  -exchange      EXHF   =         0.00000000
  -V(xc)+E(xc)   XCENC  =       974.81488950
  PAW double counting   =     25127.64844640   -25108.48715615
  entropy T*S    EENTRO =        -0.01043583
  eigenvalues    EBANDS =       178.77122366
  atomic energy  EATOM  =     20367.54287510
  Solvation  Ediel_sol  =         0.00000000
  ---------------------------------------------------
  free energy    TOTEN  =      2732.52845669 eV

  energy without entropy =     2732.53889252  energy(sigma->0) =     2732.53367460


--------------------------------------------------------------------------------------------------------




--------------------------------------- Iteration      1(   2)  ---------------------------------------


     EDDAV:  cpu time   64.8551: real time   64.8587
       DOS:  cpu time    0.0070: real time    0.0070
    --------------------------------------------
      LOOP:  cpu time   64.8621: real time   64.8656

 eigenvalue-minimisations  : 32616
 total energy-change (2. order) :-0.2735557E+04  (-0.2627924E+04)
 number of electron     216.0000011 magnetization       8.0000010
 augmentation part      216.0000011 magnetization       8.0000010

 Free energy of the ion-electron system (eV)
  ---------------------------------------------------
  alpha Z        PSCENC =      1052.90156362
  Ewald energy   TEWEN  =    -13812.45223379
  -Hartree energ DENC   =     -6048.20071582
  -exchange      EXHF   =         0.00000000
  -V(xc)+E(xc)   XCENC  =       974.81488950
  PAW double counting   =     25127.64844640   -25108.48715615
  entropy T*S    EENTRO =        -0.01506613
  eigenvalues    EBANDS =     -2556.78102120
  atomic energy  EATOM  =     20367.54287510
  Solvation  Ediel_sol  =         0.00000000
  ---------------------------------------------------
  free energy    TOTEN  =        -3.02841847 eV

  energy without entropy =       -3.01335234  energy(sigma->0) =       -3.02088541


--------------------------------------------------------------------------------------------------------




--------------------------------------- Iteration      1(   3)  ---------------------------------------


     EDDAV:  cpu time   77.5231: real time   77.5271
       DOS:  cpu time    0.0029: real time    0.0029
    --------------------------------------------
      LOOP:  cpu time   77.5260: real time   77.5300

 eigenvalue-minimisations  : 42708
 total energy-change (2. order) :-0.3828628E+03  (-0.3633394E+03)
 number of electron     216.0000011 magnetization       8.0000010
 augmentation part      216.0000011 magnetization       8.0000010

 Free energy of the ion-electron system (eV)
  ---------------------------------------------------
  alpha Z        PSCENC =      1052.90156362
  Ewald energy   TEWEN  =    -13812.45223379
  -Hartree energ DENC   =     -6048.20071582
  -exchange      EXHF   =         0.00000000
  -V(xc)+E(xc)   XCENC  =       974.81488950
  PAW double counting   =     25127.64844640   -25108.48715615
  entropy T*S    EENTRO =        -0.00000000
  eigenvalues    EBANDS =     -2939.65886002
  atomic energy  EATOM  =     20367.54287510
  Solvation  Ediel_sol  =         0.00000000
  ---------------------------------------------------
  free energy    TOTEN  =      -385.89119116 eV

  energy without entropy =     -385.89119116  energy(sigma->0) =     -385.89119116


--------------------------------------------------------------------------------------------------------




--------------------------------------- Iteration      1(   4)  ---------------------------------------


     EDDAV:  cpu time   81.2911: real time   81.2954
       DOS:  cpu time    0.0028: real time    0.0028
    --------------------------------------------
      LOOP:  cpu time   81.2939: real time   81.2982

 eigenvalue-minimisations  : 45756
 total energy-change (2. order) :-0.2228409E+02  (-0.2206331E+02)
 number of electron     216.0000011 magnetization       8.0000010
 augmentation part      216.0000011 magnetization       8.0000010

 Free energy of the ion-electron system (eV)
  ---------------------------------------------------
  alpha Z        PSCENC =      1052.90156362
  Ewald energy   TEWEN  =    -13812.45223379
  -Hartree energ DENC   =     -6048.20071582
  -exchange      EXHF   =         0.00000000
  -V(xc)+E(xc)   XCENC  =       974.81488950
  PAW double counting   =     25127.64844640   -25108.48715615
  entropy T*S    EENTRO =        -0.00000000
  eigenvalues    EBANDS =     -2961.94295094
  atomic energy  EATOM  =     20367.54287510
  Solvation  Ediel_sol  =         0.00000000
  ---------------------------------------------------
  free energy    TOTEN  =      -408.17528208 eV

  energy without entropy =     -408.17528208  energy(sigma->0) =     -408.17528208


--------------------------------------------------------------------------------------------------------




--------------------------------------- Iteration      1(   5)  ---------------------------------------


     EDDAV:  cpu time   95.4883: real time   95.4931
       DOS:  cpu time    0.0030: real time    0.0030
    CHARGE:  cpu time    8.3306: real time    8.3311
    MIXING:  cpu time    0.0016: real time    0.0016
    --------------------------------------------
      LOOP:  cpu time  103.8235: real time  103.8288

 eigenvalue-minimisations  : 57120
 total energy-change (2. order) :-0.1101829E+01  (-0.1099885E+01)
 number of electron     216.0000012 magnetization       8.0000010
 augmentation part       52.4263063 magnetization       4.8799272

 Broyden mixing:
  rms(total) = 0.11839E+01    rms(broyden)= 0.11838E+01
  rms(prec ) = 0.12549E+01
  weight for this iteration     100.00

 Free energy of the ion-electron system (eV)
  ---------------------------------------------------
  alpha Z        PSCENC =      1052.90156362
  Ewald energy   TEWEN  =    -13812.45223379
  -Hartree energ DENC   =     -6048.20071582
  -exchange      EXHF   =         0.00000000
  -V(xc)+E(xc)   XCENC  =       974.81488950
  PAW double counting   =     25127.64844640   -25108.48715615
  entropy T*S    EENTRO =        -0.00000000
  eigenvalues    EBANDS =     -2963.04477974
  atomic energy  EATOM  =     20367.54287510
  Solvation  Ediel_sol  =         0.00000000
  ---------------------------------------------------
  free energy    TOTEN  =      -409.27711088 eV

  energy without entropy =     -409.27711088  energy(sigma->0) =     -409.27711088


--------------------------------------------------------------------------------------------------------




--------------------------------------- Iteration      1(   6)  ---------------------------------------


    POTLOK:  cpu time    0.1334: real time    0.1334
    SETDIJ:  cpu time    1.7301: real time    1.7302
atom =   3  type =  2  l = 2
 
 onsite density matrix
 
spin component  1
 
  0.4664 -0.0047 -0.0008  0.0742  0.3098
 -0.0047  0.2807 -0.0177  0.0094  0.0173
 -0.0008 -0.0177  0.3991 -0.0520  0.0126
  0.0742  0.0094 -0.0520  0.3005  0.1100
  0.3098  0.0173  0.0126  0.1100  0.6389
 
spin component  2
 
  0.1627 -0.0075 -0.0010 -0.0241 -0.0691
 -0.0075  0.2110 -0.0249  0.0079 -0.0011
 -0.0010 -0.0249  0.3337 -0.0529  0.0093
 -0.0241  0.0079 -0.0529  0.2084 -0.0212
 -0.0691 -0.0011  0.0093 -0.0212  0.1202
 
 occupancies and eigenvectors
 
  o =  0.0622  v =  0.0000  0.0000  0.0000  0.0000  0.0000 -0.5890 -0.0273 -0.0199 -0.2157 -0.7781      0.0000  0.0000  0.0000  0.0000  0.0000  0.0000  0.0000  0.0000  0.0000  0.0000
  o =  0.1912  v =  0.0000  0.0000  0.0000  0.0000  0.0000 -0.1912 -0.1759 -0.3580 -0.8102  0.3846      0.0000  0.0000  0.0000  0.0000  0.0000  0.0000  0.0000  0.0000  0.0000  0.0000
  o =  0.2047  v =  0.0000  0.0000  0.0000  0.0000  0.0000  0.2669  0.8891  0.0436 -0.3417 -0.1397      0.0000  0.0000  0.0000  0.0000  0.0000  0.0000  0.0000  0.0000  0.0000  0.0000
  o =  0.2191  v =  0.0000  0.0000  0.0000  0.0000  0.0000  0.7380 -0.3835 -0.1531 -0.2477 -0.4727      0.0000  0.0000  0.0000  0.0000  0.0000  0.0000  0.0000  0.0000  0.0000  0.0000
  o =  0.2238  v = -0.6955 -0.2443 -0.1498 -0.2641  0.6037  0.0000  0.0000  0.0000  0.0000  0.0000      0.0000  0.0000  0.0000  0.0000  0.0000  0.0000  0.0000  0.0000  0.0000  0.0000
  o =  0.2549  v =  0.3243  0.1864 -0.2922 -0.8801 -0.0084  0.0000  0.0000  0.0000  0.0000  0.0000      0.0000  0.0000  0.0000  0.0000  0.0000  0.0000  0.0000  0.0000  0.0000  0.0000
  o =  0.2825  v = -0.2527  0.9422  0.1495  0.0554  0.1515  0.0000  0.0000  0.0000  0.0000  0.0000      0.0000  0.0000  0.0000  0.0000  0.0000  0.0000  0.0000  0.0000  0.0000  0.0000
  o =  0.3589  v =  0.0000  0.0000  0.0000  0.0000  0.0000  0.0230 -0.1750  0.9198 -0.3450  0.0608      0.0000  0.0000  0.0000  0.0000  0.0000  0.0000  0.0000  0.0000  0.0000  0.0000
  o =  0.4208  v =  0.0332 -0.1318  0.9326 -0.3260  0.0737  0.0000  0.0000  0.0000  0.0000  0.0000      0.0000  0.0000  0.0000  0.0000  0.0000  0.0000  0.0000  0.0000  0.0000  0.0000
  o =  0.9036  v = -0.5884 -0.0206  0.0044 -0.2152 -0.7791  0.0000  0.0000  0.0000  0.0000  0.0000      0.0000  0.0000  0.0000  0.0000  0.0000  0.0000  0.0000  0.0000  0.0000  0.0000
atom =   4  type =  2  l = 2
 
 onsite density matrix
 
spin component  1
 
  0.4671  0.0036 -0.0006 -0.0743  0.3099
  0.0036  0.2806  0.0174  0.0096 -0.0187
 -0.0006  0.0174  0.3992  0.0522  0.0129
 -0.0743  0.0096  0.0522  0.3004 -0.1095
  0.3099 -0.0187  0.0129 -0.1095  0.6382
 
spin component  2
 
  0.1628  0.0075 -0.0010  0.0241 -0.0691
  0.0075  0.2110  0.0246  0.0079  0.0013
[...]
 -0.000   0.000  -0.000  -0.000  -0.001   0.000  -0.000   0.001  -0.000   0.000   0.000   0.353  -0.000   0.000  -0.000  -0.000
 -0.000   0.000  -0.000  -0.000   0.000   0.000   0.000  -0.000   0.044   0.000  -0.000  -0.000   0.307  -0.028  -0.000   0.000
  0.000  -0.000   0.000   0.000   0.000  -0.000  -0.000  -0.000  -0.145  -0.000   0.000   0.000  -0.028   0.084   0.000  -0.000
  0.000   0.000   0.001  -0.000  -0.000  -0.001  -0.000  -0.000  -0.000  -0.205   0.000  -0.000  -0.000   0.000   0.121  -0.000
 -0.001   0.021   0.000  -0.005   0.000  -0.000   0.010   0.000   0.000   0.000  -0.061  -0.000   0.000  -0.000  -0.000   0.036
  0.000  -0.000   0.000   0.000   0.001  -0.000   0.000  -0.001   0.000  -0.000  -0.000  -0.205   0.000  -0.000   0.000   0.000
 -0.000  -0.000   0.000   0.000  -0.000  -0.000  -0.000   0.000  -0.028  -0.000   0.000   0.000  -0.179   0.018   0.000  -0.000
 total augmentation occupancy for first ion, spin component:           2
 -0.000  -0.000   0.000   0.000  -0.000   0.000   0.000  -0.000  -0.000  -0.000   0.000   0.000  -0.000   0.000   0.000  -0.000
 -0.000   0.006   0.000   0.001  -0.000   0.000  -0.002  -0.000   0.000  -0.000   0.000   0.000   0.000  -0.000   0.000  -0.000
  0.000   0.000  -0.000  -0.000   0.000   0.000  -0.000  -0.000   0.000   0.000  -0.000   0.000  -0.000  -0.000  -0.000   0.000
  0.000   0.001  -0.000  -0.000   0.000  -0.000   0.000  -0.000  -0.000  -0.000  -0.000  -0.000  -0.000   0.000  -0.000  -0.000
 -0.000  -0.000   0.000   0.000  -0.000  -0.000  -0.000   0.000   0.000  -0.000  -0.000   0.000  -0.000  -0.000   0.000   0.000
  0.000   0.000   0.000  -0.000  -0.000  -0.000  -0.000   0.000  -0.000  -0.001   0.000  -0.000   0.000   0.000   0.001  -0.000
  0.000  -0.002  -0.000   0.000  -0.000  -0.000   0.000   0.000   0.000   0.000   0.000  -0.000   0.000  -0.000  -0.000  -0.000
 -0.000  -0.000  -0.000  -0.000   0.000   0.000   0.000  -0.000  -0.000  -0.000  -0.000  -0.001  -0.000   0.000  -0.000  -0.000
 -0.000   0.000   0.000  -0.000   0.000  -0.000   0.000  -0.000  -0.002   0.000  -0.000  -0.000  -0.001   0.001   0.000   0.000
 -0.000  -0.000   0.000  -0.000  -0.000  -0.001   0.000  -0.000   0.000  -0.001  -0.000   0.000   0.000   0.000   0.001   0.000
  0.000   0.000  -0.000  -0.000  -0.000   0.000   0.000  -0.000  -0.000  -0.000  -0.001   0.000  -0.000   0.000   0.000   0.001
  0.000   0.000   0.000  -0.000   0.000  -0.000  -0.000  -0.001  -0.000   0.000   0.000  -0.001   0.000   0.000  -0.000  -0.000
 -0.000   0.000  -0.000  -0.000  -0.000   0.000   0.000  -0.000  -0.001   0.000  -0.000   0.000  -0.003   0.001  -0.000   0.000
  0.000  -0.000  -0.000   0.000  -0.000   0.000  -0.000   0.000   0.001   0.000   0.000   0.000   0.001  -0.001  -0.000  -0.000
  0.000   0.000  -0.000  -0.000   0.000   0.001  -0.000  -0.000   0.000   0.001   0.000  -0.000  -0.000  -0.000  -0.001  -0.000
 -0.000  -0.000   0.000  -0.000   0.000  -0.000  -0.000  -0.000   0.000   0.000   0.001  -0.000   0.000  -0.000  -0.000  -0.000
  0.000  -0.000  -0.000   0.000  -0.000   0.000   0.000   0.001   0.000  -0.000  -0.000   0.001  -0.000  -0.000   0.000   0.000
  0.000  -0.000   0.000   0.000   0.000  -0.000  -0.000  -0.000   0.001  -0.000   0.000  -0.000   0.002  -0.001   0.000  -0.000


------------------------ aborting loop because EDIFF is reached ----------------------------------------


 


 total charge     
 
# of ion       s       p       d       tot
------------------------------------------
    1        2.019   5.868   0.211   8.098
    2        2.019   5.868   0.211   8.098
    3        0.337   6.341   3.056   9.735
    4        0.337   6.342   3.057   9.735
    5        0.337   6.341   3.057   9.735
    6        0.337   6.341   3.056   9.735
    7        0.337   6.342   3.057   9.735
    8        0.337   6.341   3.056   9.735
    9        0.337   6.341   3.056   9.735
   10        0.337   6.341   3.057   9.735
   11        1.572   3.544   0.000   5.115
   12        1.572   3.544   0.000   5.115
   13        1.572   3.544   0.000   5.115
   14        1.572   3.544   0.000   5.115
   15        1.572   3.544   0.000   5.115
   16        1.572   3.544   0.000   5.115
   17        1.572   3.544   0.000   5.115
   18        1.572   3.544   0.000   5.115
   19        1.605   3.429   0.000   5.034
   20        1.605   3.429   0.000   5.034
   21        1.605   3.429   0.000   5.034
   22        1.605   3.429   0.000   5.034
   23        1.605   3.429   0.000   5.034
   24        1.605   3.429   0.000   5.034
   25        1.605   3.428   0.000   5.034
   26        1.605   3.429   0.000   5.034
   27        1.566   3.535   0.000   5.101
   28        1.566   3.535   0.000   5.101
--------------------------------------------------
tot         35.281 125.315  24.875 185.471
 


 magnetization (x)
 
# of ion       s       p       d       tot
------------------------------------------
    1        0.001  -0.000   0.000   0.000
    2        0.001  -0.000   0.000   0.000
    3        0.010   0.005   1.043   1.058
    4        0.010   0.005   1.042   1.058
    5        0.010   0.005   1.043   1.058
    6        0.010   0.005   1.042   1.058
    7        0.010   0.005   1.042   1.058
    8        0.010   0.005   1.043   1.058
    9        0.010   0.005   1.042   1.058
   10        0.010   0.005   1.043   1.058
   11       -0.000   0.008   0.000   0.008
   12       -0.000   0.008   0.000   0.008
   13       -0.000   0.008   0.000   0.008
   14       -0.000   0.008   0.000   0.008
   15       -0.000   0.008   0.000   0.008
   16       -0.000   0.008   0.000   0.008
   17       -0.000   0.008   0.000   0.008
   18       -0.000   0.008   0.000   0.008
   19       -0.002  -0.109   0.000  -0.111
   20       -0.002  -0.109   0.000  -0.111
   21       -0.002  -0.109   0.000  -0.111
   22       -0.002  -0.109   0.000  -0.111
   23       -0.002  -0.109   0.000  -0.111
   24       -0.002  -0.109   0.000  -0.111
   25       -0.002  -0.109   0.000  -0.111
   26       -0.002  -0.109   0.000  -0.111
   27       -0.000   0.001   0.000   0.001
   28       -0.000   0.001   0.000   0.001
--------------------------------------------------
tot          0.065  -0.765   8.340   7.640
 
    CHARGE:  cpu time    1.0252: real time    1.0252
    FORLOC:  cpu time    0.0071: real time    0.0071
    FORNL :  cpu time    8.8097: real time    8.8103
    STRESS:  cpu time  164.7508: real time  164.7576
    FORCOR:  cpu time    0.1367: real time    0.1367
    FORHAR:  cpu time    0.0128: real time    0.0128
    MIXING:  cpu time    0.0025: real time    0.0025
    OFIELD:  cpu time    0.0000: real time    0.0000

  FORCE on cell =-STRESS in cart. coord.  units (eV):
  Direction    XX          YY          ZZ          XY          YZ          ZX
  --------------------------------------------------------------------------------------
  Alpha Z  1052.90156  1052.90156  1052.90156
  Ewald   -4129.04282 -4129.71994 -5553.73620    -0.36182     0.01175     0.00064
  Hartree  2488.34666  2488.06656  1071.79922    -0.24333     0.00706     0.00017
  E(xc)   -1187.97719 -1187.97956 -1188.33588     0.00007     0.00002    -0.00001
  Local   -1520.97154 -1520.01552  1437.14237     0.62198    -0.01888    -0.00066
  n-local -1042.43580 -1042.40593 -1030.90744    -0.00394    -0.00003     0.00002
  augment   513.32106   513.31565   472.13443    -0.01225     0.00003    -0.00005
  Kinetic  3825.90984  3825.87556  3739.22072    -0.01021     0.00032    -0.00018
  Fock        0.00000     0.00000     0.00000     0.00000     0.00000     0.00000
  -------------------------------------------------------------------------------------
  Total       0.05177     0.03838     0.21879    -0.00951     0.00028    -0.00006
  in kB       0.24176     0.17925     1.02172    -0.04442     0.00131    -0.00028
  external pressure =        0.48 kB  Pullay stress =        0.00 kB


 VOLUME and BASIS-vectors are now :
 -----------------------------------------------------------------------------
  energy-cutoff  :      520.00
  volume of cell :      343.08
      direct lattice vectors                 reciprocal lattice vectors
     8.303064522  0.002755318  0.000000591     0.120437448  0.000035928 -0.000000006
    -0.002476854  8.302994270 -0.000017163    -0.000039967  0.120438467  0.000000250
     0.000000257 -0.000010336  4.976525897    -0.000000014  0.000000415  0.200943393

  length of vectors
     8.303064979  8.302994640  4.976525897     0.120437453  0.120438474  0.200943393


 FORCES acting on ions
    electron-ion (+dipol)            ewald-force                    non-local-force                 convergence-correction
 -----------------------------------------------------------------------------------------------
   -.728E-02 0.133E+00 -.106E+03   0.964E-02 -.130E+00 0.105E+03   -.734E-03 -.221E-02 0.770E+00   0.406E-05 -.603E-08 -.138E-03
   -.369E-02 0.135E+00 0.106E+03   0.610E-02 -.132E+00 -.105E+03   -.790E-03 -.213E-02 -.770E+00   0.116E-05 0.293E-05 0.135E-03
   0.220E+02 -.169E+02 0.811E+02   -.215E+02 0.163E+02 -.785E+02   -.349E+00 0.636E+00 -.309E+01   0.551E-04 -.284E-04 -.418E-03
   -.223E+02 0.174E+02 0.811E+02   0.219E+02 -.168E+02 -.785E+02   0.277E+00 -.628E+00 -.305E+01   -.641E-04 0.438E-04 -.428E-03
   -.173E+02 -.220E+02 0.811E+02   0.167E+02 0.216E+02 -.784E+02   0.602E+00 0.306E+00 -.306E+01   -.420E-04 -.649E-04 -.428E-03
   0.173E+02 0.220E+02 0.810E+02   -.166E+02 -.215E+02 -.784E+02   -.664E+00 -.330E+00 -.307E+01   0.240E-04 0.514E-04 -.406E-03
   -.223E+02 0.174E+02 -.811E+02   0.219E+02 -.168E+02 0.785E+02   0.277E+00 -.628E+00 0.305E+01   -.617E-04 0.430E-04 0.425E-03
   0.220E+02 -.169E+02 -.811E+02   -.215E+02 0.163E+02 0.785E+02   -.349E+00 0.636E+00 0.309E+01   0.496E-04 -.264E-04 0.409E-03
   0.173E+02 0.220E+02 -.810E+02   -.166E+02 -.215E+02 0.784E+02   -.664E+00 -.330E+00 0.307E+01   0.258E-04 0.514E-04 0.403E-03
   -.173E+02 -.220E+02 -.811E+02   0.167E+02 0.216E+02 0.784E+02   0.602E+00 0.306E+00 0.306E+01   -.383E-04 -.657E-04 0.418E-03
   -.469E+02 -.792E+02 -.631E+02   0.503E+02 0.858E+02 0.693E+02   -.342E+01 -.666E+01 -.619E+01   -.992E-04 -.175E-03 -.873E-04
   0.469E+02 0.790E+02 -.632E+02   -.504E+02 -.856E+02 0.694E+02   0.344E+01 0.664E+01 -.620E+01   0.106E-03 0.177E-03 -.847E-04
   -.791E+02 0.469E+02 -.632E+02   0.857E+02 -.503E+02 0.694E+02   -.665E+01 0.343E+01 -.620E+01   -.181E-03 0.110E-03 -.851E-04
   0.792E+02 -.468E+02 -.632E+02   -.859E+02 0.503E+02 0.694E+02   0.666E+01 -.343E+01 -.619E+01   0.177E-03 -.116E-03 -.853E-04
   0.469E+02 0.790E+02 0.632E+02   -.504E+02 -.856E+02 -.694E+02   0.344E+01 0.664E+01 0.620E+01   0.104E-03 0.178E-03 0.842E-04
   -.469E+02 -.792E+02 0.631E+02   0.503E+02 0.858E+02 -.693E+02   -.342E+01 -.666E+01 0.619E+01   -.103E-03 -.175E-03 0.848E-04
   0.792E+02 -.468E+02 0.632E+02   -.859E+02 0.503E+02 -.694E+02   0.666E+01 -.343E+01 0.619E+01   0.179E-03 -.113E-03 0.831E-04
   -.791E+02 0.469E+02 0.632E+02   0.857E+02 -.503E+02 -.694E+02   -.665E+01 0.343E+01 0.620E+01   -.184E-03 0.109E-03 0.850E-04
   0.101E+02 -.166E+02 0.223E+03   -.969E+01 0.176E+02 -.246E+03   -.396E+00 -.106E+01 0.235E+02   -.231E-03 -.718E-04 0.164E-03
   -.101E+02 0.165E+02 0.223E+03   0.967E+01 -.175E+02 -.246E+03   0.416E+00 0.103E+01 0.235E+02   0.227E-03 0.686E-04 0.159E-03
   -.166E+02 -.102E+02 0.223E+03   0.176E+02 0.985E+01 -.246E+03   -.104E+01 0.389E+00 0.235E+02   -.712E-04 0.230E-03 0.168E-03
   0.166E+02 0.100E+02 0.223E+03   -.176E+02 -.959E+01 -.246E+03   0.102E+01 -.413E+00 0.235E+02   0.695E-04 -.231E-03 0.173E-03
   -.101E+02 0.165E+02 -.223E+03   0.966E+01 -.175E+02 0.246E+03   0.416E+00 0.103E+01 -.235E+02   0.229E-03 0.711E-04 -.156E-03
   0.101E+02 -.166E+02 -.223E+03   -.969E+01 0.176E+02 0.246E+03   -.396E+00 -.106E+01 -.235E+02   -.230E-03 -.700E-04 -.165E-03
   0.166E+02 0.100E+02 -.223E+03   -.176E+02 -.960E+01 0.246E+03   0.102E+01 -.413E+00 -.235E+02   0.690E-04 -.230E-03 -.168E-03
   -.166E+02 -.102E+02 -.223E+03   0.176E+02 0.985E+01 0.246E+03   -.104E+01 0.389E+00 -.235E+02   -.697E-04 0.229E-03 -.166E-03
   0.186E+00 0.446E-01 0.765E-03   -.209E+00 -.547E-01 -.962E-03   0.270E-01 0.101E-01 -.458E-03   0.678E-07 0.298E-05 0.160E-05
   0.185E+00 0.460E-01 -.394E-02   -.208E+00 -.560E-01 0.431E-02   0.269E-01 0.100E-01 0.288E-03   0.147E-05 0.499E-05 -.200E-05
 -----------------------------------------------------------------------------------------------
   0.147E+00 0.176E+00 -.122E-03   -.178E-13 0.480E-13 0.467E-13   -.148E+00 -.167E+00 0.130E-03   -.540E-04 0.665E-05 -.229E-04
 
 
 POSITION                                       TOTAL-FORCE (eV/Angst)
 -----------------------------------------------------------------------------------
      6.22520      6.22923      4.15452         0.001681      0.000459     -0.008870
      2.07490      2.07636      0.82199         0.001669      0.000437      0.008847
      3.83875      5.46206      1.81590         0.002354      0.000199     -0.001869
      0.30880      6.99353      1.81614        -0.006762     -0.004591     -0.000642
      5.46092      0.31248      1.81578         0.003898     -0.001299     -0.000473
      6.99243      3.84258      1.81637         0.002655      0.004716     -0.006089
      4.46157      2.84341      3.16037        -0.006778     -0.004569      0.000946
      7.99151      1.31194      3.16061         0.002446      0.000318      0.002280
      2.83967      7.99271      3.16013         0.002578      0.004764      0.006663
      1.30815      4.46260      3.16073         0.003805     -0.001206      0.000496
      5.34398      4.50695      2.62715         0.001190     -0.006512      0.009022
      7.10686      7.95068      2.62706        -0.002749      0.011352      0.009681
      4.50390      7.11031      2.62700        -0.011989     -0.001388      0.008876
      7.94782      5.34790      2.62758         0.007357     -0.000442      0.008877
      2.95656      3.79781      2.34944        -0.002751      0.011345     -0.009701
      1.19368      0.35408      2.34938         0.001311     -0.006497     -0.009064
      3.79753      1.19502      2.34892         0.007229     -0.000406     -0.008798
      0.35359      2.95744      2.34949        -0.011852     -0.001557     -0.008708
      4.13619      5.62006      0.21825        -0.003591     -0.006810     -0.000107
      0.01056      6.83723      0.21852         0.003629      0.005902     -0.002859
      5.61776      0.01595      0.21786        -0.006894      0.003018      0.000749
      6.83600      4.14064      0.21865         0.005610     -0.004166      0.000985
      4.16332      2.68710      4.75800         0.003678      0.005933      0.002545
      8.28896      1.46994      4.75827        -0.003651     -0.006863     -0.000305
      2.68326      8.29079      4.75787         0.005605     -0.004439     -0.001732
      1.46498      4.16607      4.75865        -0.006888      0.003006     -0.000758
      2.07431      6.22780      2.48815         0.003599     -0.000346     -0.000653
      6.22708      2.07768      2.48836         0.003611     -0.000359      0.000660
 -----------------------------------------------------------------------------------
    total drift:                               -0.001409      0.009660     -0.000015


--------------------------------------------------------------------------------------------------------



  FREE ENERGIE OF THE ION-ELECTRON SYSTEM (eV)
  ---------------------------------------------------
  free  energy   TOTEN  =      -341.43289222 eV

  energy  without entropy=     -341.43289222  energy(sigma->0) =     -341.43289222
 


--------------------------------------------------------------------------------------------------------


    POTLOK:  cpu time    1.8624: real time    1.8625


--------------------------------------------------------------------------------------------------------




--------------------------------------------------------------------------------------------------------


  
 reached required accuracy - stopping structural energy minimisation
     LOOP+:  cpu time 1905.9878: real time 1906.1229
    4ORBIT:  cpu time    0.0000: real time    0.0000
 


 total charge     
 
# of ion       s       p       d       tot
------------------------------------------
    1        2.019   5.868   0.211   8.098
    2        2.019   5.868   0.211   8.098
    3        0.337   6.341   3.056   9.735
    4        0.337   6.342   3.057   9.735
    5        0.337   6.341   3.057   9.735
    6        0.337   6.341   3.056   9.735
    7        0.337   6.342   3.057   9.735
    8        0.337   6.341   3.056   9.735
    9        0.337   6.341   3.056   9.735
   10        0.337   6.341   3.057   9.735
   11        1.572   3.544   0.000   5.115
   12        1.572   3.544   0.000   5.115
   13        1.572   3.544   0.000   5.115
   14        1.572   3.544   0.000   5.115
   15        1.572   3.544   0.000   5.115
   16        1.572   3.544   0.000   5.115
   17        1.572   3.544   0.000   5.115
   18        1.572   3.544   0.000   5.115
   19        1.605   3.429   0.000   5.034
   20        1.605   3.429   0.000   5.034
   21        1.605   3.429   0.000   5.034
   22        1.605   3.429   0.000   5.034
   23        1.605   3.429   0.000   5.034
   24        1.605   3.429   0.000   5.034
   25        1.605   3.428   0.000   5.034
   26        1.605   3.429   0.000   5.034
   27        1.566   3.535   0.000   5.101
   28        1.566   3.535   0.000   5.101
--------------------------------------------------
tot         35.281 125.315  24.875 185.471
 


 magnetization (x)
 
# of ion       s       p       d       tot
------------------------------------------
    1        0.001  -0.000   0.000   0.000
    2        0.001  -0.000   0.000   0.000
    3        0.010   0.005   1.043   1.058
    4        0.010   0.005   1.042   1.058
    5        0.010   0.005   1.043   1.058
    6        0.010   0.005   1.042   1.058
    7        0.010   0.005   1.042   1.058
    8        0.010   0.005   1.043   1.058
    9        0.010   0.005   1.042   1.058
   10        0.010   0.005   1.043   1.058
   11       -0.000   0.008   0.000   0.008
   12       -0.000   0.008   0.000   0.008
   13       -0.000   0.008   0.000   0.008
   14       -0.000   0.008   0.000   0.008
   15       -0.000   0.008   0.000   0.008
   16       -0.000   0.008   0.000   0.008
   17       -0.000   0.008   0.000   0.008
   18       -0.000   0.008   0.000   0.008
   19       -0.002  -0.109   0.000  -0.111
   20       -0.002  -0.109   0.000  -0.111
   21       -0.002  -0.109   0.000  -0.111
   22       -0.002  -0.109   0.000  -0.111
   23       -0.002  -0.109   0.000  -0.111
   24       -0.002  -0.109   0.000  -0.111
   25       -0.002  -0.109   0.000  -0.111
   26       -0.002  -0.109   0.000  -0.111
   27       -0.000   0.001   0.000   0.001
   28       -0.000   0.001   0.000   0.001
--------------------------------------------------
tot          0.065  -0.765   8.340   7.640
 

 total amount of memory used by VASP MPI-rank0   158292. kBytes
=======================================================================

   base      :      30000. kBytes
   nonlr-proj:       7851. kBytes
   fftplans  :       3269. kBytes
   grid      :      12455. kBytes
   one-center:        217. kBytes
   wavefun   :     104500. kBytes
 
  
  
 General timing and accounting informations for this job:
 ========================================================
  
                  Total CPU time used (sec):     1925.745
                            User time (sec):     1920.893
                          System time (sec):        4.852
                         Elapsed time (sec):     1926.296
  
                   Maximum memory used (kb):      212404.
                   Average memory used (kb):           0.
  
                          Minor page faults:        51657
                          Major page faults:           13
                 Voluntary context switches:          487
