       N       E                     dE             d eps       ncg     rms          ort
DAV:   1     0.283498218274E+04    0.28350E+04   -0.15332E+05  9180   0.161E+03
DAV:   2    -0.201074156418E+03   -0.30361E+04   -0.28679E+04  9180   0.445E+02
DAV:   3    -0.523382228301E+03   -0.32231E+03   -0.31812E+03  9180   0.157E+02
DAV:   4    -0.534792272729E+03   -0.11410E+02   -0.11298E+02  9180   0.281E+01
DAV:   5    -0.535568100442E+03   -0.77583E+00   -0.77463E+00  9180   0.523E+00
SDA:   6    -0.346791925020E+03    0.18878E+03   -0.77463E+00  9180   0.498E+03 0.000E+00
CGA:   7    -0.410979397697E+03   -0.64187E+02   -0.67038E+02  9180   0.505E+02 0.115E+02
CGA:   8    -0.419571073521E+03   -0.85917E+01   -0.85979E+01  9180   0.130E+02 0.282E+00
CGA:   9    -0.422829582983E+03   -0.32585E+01   -0.32452E+01  9180   0.677E+01 0.200E+00
CGA:  10    -0.424310624435E+03   -0.14810E+01   -0.14831E+01  9180   0.276E+01-0.699E-01
CGA:  11    -0.424965829957E+03   -0.65521E+00   -0.65589E+00  9180   0.909E+00-0.280E-01
CGA:  12    -0.425172592335E+03   -0.20676E+00   -0.20761E+00  9180   0.269E+00-0.286E-01
CGA:  13    -0.425238897441E+03   -0.66305E-01   -0.66460E-01  9180   0.839E-01-0.283E-02
CGA:  14    -0.425261090057E+03   -0.22193E-01   -0.21953E-01  9180   0.296E-01 0.398E-02
CGA:  15    -0.425270873817E+03   -0.97838E-02   -0.97861E-02  9180   0.124E-01-0.358E-04
CGA:  16    -0.425274820121E+03   -0.39463E-02   -0.39501E-02  9180   0.493E-02-0.544E-04
CGA:  17    -0.425276328539E+03   -0.15084E-02   -0.14827E-02  9180   0.172E-02 0.300E-03
CGA:  18    -0.425276899206E+03   -0.57067E-03   -0.55059E-03  9180   0.663E-03 0.248E-03
CGA:  19    -0.425277109595E+03   -0.21039E-03   -0.20177E-03  9180   0.272E-03 0.219E-03
CGA:  20    -0.425277208215E+03   -0.98620E-04   -0.94747E-04  9180   0.124E-03 0.116E-03
CGA:  21    -0.425277261783E+03   -0.53567E-04   -0.50905E-04  9180   0.614E-04 0.464E-04
CGA:  22    -0.425277275757E+03   -0.13974E-04   -0.16002E-04  9180   0.328E-04 0.464E-04
CGA:  23    -0.425277279577E+03   -0.38206E-05   -0.53500E-05  9180   0.169E-04 0.225E-04
   1 F= -.42527728E+03 E0= -.42527728E+03  d E =-.425277E+03  mag=    18.0000
       N       E                     dE             d eps       ncg     rms          ort
SDA:   1    -0.425278655965E+03   -0.13802E-02    0.00000E+00  9180   0.137E-03 0.000E+00
CGA:   2    -0.425278673004E+03   -0.17039E-04   -0.21052E-04  9180   0.474E-04 0.545E-04
CGA:   3    -0.425278679030E+03   -0.60258E-05   -0.90183E-05  9180   0.224E-04 0.342E-04
CGA:   4    -0.425278684734E+03   -0.57041E-05   -0.54482E-05  9180   0.106E-04 0.104E-04
   2 F= -.42527868E+03 E0= -.42527868E+03  d E =-.140516E-02  mag=    18.0000
       N       E                     dE             d eps       ncg     rms          ort
SDA:   1    -0.425254525055E+03    0.24154E-01    0.00000E+00  9180   0.243E+00 0.000E+00
CGA:   2    -0.425312577136E+03   -0.58052E-01   -0.57989E-01  9180   0.902E-01 0.244E-02
CGA:   3    -0.425330882525E+03   -0.18305E-01   -0.18301E-01  9180   0.303E-01-0.350E-03
CGA:   4    -0.425336600131E+03   -0.57176E-02   -0.57012E-02  9180   0.634E-02-0.656E-03
CGA:   5    -0.425337779131E+03   -0.11790E-02   -0.11796E-02  9180   0.167E-02 0.237E-04
CGA:   6    -0.425338121779E+03   -0.34265E-03   -0.34367E-03  9180   0.525E-03 0.142E-03
CGA:   7    -0.425338274394E+03   -0.15262E-03   -0.15036E-03  9180   0.221E-03 0.430E-04
CGA:   8    -0.425338358318E+03   -0.83924E-04   -0.96348E-04  9180   0.193E-03-0.660E-04
CGA:   9    -0.425338390736E+03   -0.32417E-04   -0.32407E-04  9180   0.812E-04 0.629E-06
CGA:  10    -0.425338403198E+03   -0.12463E-04   -0.13779E-04  9180   0.349E-04 0.238E-04
CGA:  11    -0.425338410307E+03   -0.71091E-05   -0.78257E-05  9180   0.159E-04 0.149E-04
   3 F= -.42533841E+03 E0= -.42533841E+03  d E =-.597256E-01  mag=    18.0000
       N       E                     dE             d eps       ncg     rms          ort
SDA:   1    -0.424842336435E+03    0.49607E+00    0.00000E+00  9180   0.186E+01 0.000E+00
CGA:   2    -0.425282035864E+03   -0.43970E+00   -0.43956E+00  9180   0.671E+00 0.798E-02
CGA:   3    -0.425418303873E+03   -0.13627E+00   -0.13624E+00  9180   0.227E+00-0.154E-02
CGA:   4    -0.425460526454E+03   -0.42223E-01   -0.42147E-01  9180   0.464E-01-0.218E-02
CGA:   5    -0.425469417462E+03   -0.88910E-02   -0.88945E-02  9180   0.125E-01 0.133E-03
CGA:   6    -0.425472145488E+03   -0.27280E-02   -0.27284E-02  9180   0.431E-02 0.491E-03
CGA:   7    -0.425473398340E+03   -0.12529E-02   -0.12469E-02  9180   0.193E-02 0.978E-04
CGA:   8    -0.425474059533E+03   -0.66119E-03   -0.68941E-03  9180   0.117E-02-0.220E-03
CGA:   9    -0.425474376574E+03   -0.31704E-03   -0.32099E-03  9180   0.475E-03-0.488E-04
CGA:  10    -0.425474501923E+03   -0.12535E-03   -0.12305E-03  9180   0.168E-03 0.593E-04
CGA:  11    -0.425474562379E+03   -0.60455E-04   -0.59033E-04  9180   0.808E-04 0.178E-04
CGA:  12    -0.425474597094E+03   -0.34715E-04   -0.36295E-04  9180   0.472E-04-0.941E-05
CGA:  13    -0.425474612735E+03   -0.15642E-04   -0.17349E-04  9180   0.230E-04-0.101E-04
CGA:  14    -0.425474618841E+03   -0.61051E-05   -0.64435E-05  9180   0.891E-05-0.335E-05
   4 F= -.42547462E+03 E0= -.42547462E+03  d E =-.136209E+00  mag=    18.0000
       N       E                     dE             d eps       ncg     rms          ort
SDA:   1    -0.424598361939E+03    0.87625E+00    0.00000E+00  9180   0.309E+01 0.000E+00
CGA:   2    -0.425303191763E+03   -0.70483E+00   -0.70516E+00  9180   0.102E+01 0.964E-02
CGA:   3    -0.425517323021E+03   -0.21413E+00   -0.21405E+00  9180   0.364E+00-0.196E-02
CGA:   4    -0.425583748258E+03   -0.66425E-01   -0.66262E-01  9180   0.724E-01-0.244E-02
CGA:   5    -0.425597919435E+03   -0.14171E-01   -0.14181E-01  9180   0.203E-01 0.184E-03
CGA:   6    -0.425602409976E+03   -0.44905E-02   -0.45070E-02  9180   0.756E-02 0.640E-03
CGA:   7    -0.425604653627E+03   -0.22437E-02   -0.22364E-02  9180   0.366E-02 0.180E-03
CGA:   8    -0.425605924078E+03   -0.12705E-02   -0.12910E-02  9180   0.216E-02-0.214E-03
CGA:   9    -0.425606565489E+03   -0.64141E-03   -0.64438E-03  9180   0.896E-03-0.476E-04
CGA:  10    -0.425606815349E+03   -0.24986E-03   -0.24747E-03  9180   0.308E-03 0.913E-04
CGA:  11    -0.425606920452E+03   -0.10510E-03   -0.10305E-03  9180   0.131E-03 0.441E-04
CGA:  12    -0.425606977888E+03   -0.57436E-04   -0.58315E-04  9180   0.700E-04-0.684E-05
CGA:  13    -0.425607004130E+03   -0.26242E-04   -0.29288E-04  9180   0.351E-04-0.174E-04
CGA:  14    -0.425607012087E+03   -0.79573E-05   -0.79626E-05  9180   0.116E-04-0.214E-06
   5 F= -.42560701E+03 E0= -.42560701E+03  d E =-.132393E+00  mag=    18.0000
       N       E                     dE             d eps       ncg     rms          ort
SDA:   1    -0.423994573166E+03    0.16124E+01    0.00000E+00  9180   0.537E+01 0.000E+00
CGA:   2    -0.425216971523E+03   -0.12224E+01   -0.12230E+01  9180   0.168E+01 0.886E-02
CGA:   3    -0.425578532823E+03   -0.36156E+00   -0.36143E+00  9180   0.610E+00-0.213E-02
CGA:   4    -0.425686825880E+03   -0.10829E+00   -0.10816E+00  9180   0.119E+00-0.179E-02
CGA:   5    -0.425710524586E+03   -0.23699E-01   -0.23727E-01  9180   0.342E-01 0.400E-03
CGA:   6    -0.425718297256E+03   -0.77727E-02   -0.77994E-02  9180   0.137E-01 0.753E-03
CGA:   7    -0.425722449324E+03   -0.41521E-02   -0.41424E-02  9180   0.715E-02 0.277E-03
CGA:   8    -0.425724935758E+03   -0.24864E-02   -0.24947E-02  9180   0.409E-02-0.109E-03
CGA:   9    -0.425726209054E+03   -0.12733E-02   -0.12732E-02  9180   0.165E-02-0.981E-07
CGA:  10    -0.425726690182E+03   -0.48113E-03   -0.47858E-03  9180   0.546E-03 0.125E-03
CGA:  11    -0.425726870704E+03   -0.18052E-03   -0.17819E-03  9180   0.211E-03 0.707E-04
CGA:  12    -0.425726963920E+03   -0.93216E-04   -0.95817E-04  9180   0.116E-03-0.201E-04
CGA:  13    -0.425727005704E+03   -0.41783E-04   -0.46828E-04  9180   0.576E-04-0.305E-04
CGA:  14    -0.425727018954E+03   -0.13251E-04   -0.13291E-04  9180   0.189E-04-0.158E-05
CGA:  15    -0.425727025045E+03   -0.60904E-05   -0.61352E-05  9180   0.797E-05-0.994E-06
   6 F= -.42572703E+03 E0= -.42572703E+03  d E =-.120013E+00  mag=    18.0000
       N       E                     dE             d eps       ncg     rms          ort
SDA:   1    -0.422739630654E+03    0.29874E+01    0.00000E+00  9180   0.905E+01 0.000E+00
CGA:   2    -0.424966383823E+03   -0.22268E+01   -0.22275E+01  9180   0.283E+01 0.305E-02
CGA:   3    -0.425586876409E+03   -0.62049E+00   -0.62034E+00  9180   0.953E+00-0.179E-02
CGA:   4    -0.425746459428E+03   -0.15958E+00   -0.15967E+00  9180   0.183E+00 0.206E-03
CGA:   5    -0.425783860963E+03   -0.37402E-01   -0.37459E-01  9180   0.526E-01 0.629E-03
CGA:   6    -0.425796018954E+03   -0.12158E-01   -0.12180E-01  9180   0.217E-01 0.463E-03
CGA:   7    -0.425802647369E+03   -0.66284E-02   -0.66236E-02  9180   0.119E-01 0.173E-03
CGA:   8    -0.425806775845E+03   -0.41285E-02   -0.41235E-02  9180   0.660E-02 0.647E-04
CGA:   9    -0.425808876794E+03   -0.21009E-02   -0.20991E-02  9180   0.258E-02 0.472E-04
CGA:  10    -0.425809658648E+03   -0.78185E-03   -0.78065E-03  9180   0.861E-03 0.645E-04
CGA:  11    -0.425809940301E+03   -0.28165E-03   -0.27968E-03  9180   0.321E-03 0.587E-04
CGA:  12    -0.425810074871E+03   -0.13457E-03   -0.13789E-03  9180   0.165E-03-0.286E-04
CGA:  13    -0.425810133726E+03   -0.58855E-04   -0.62246E-04  9180   0.681E-04-0.276E-04
CGA:  14    -0.425810151780E+03   -0.18054E-04   -0.18034E-04  9180   0.197E-04 0.925E-06
CGA:  15    -0.425810159345E+03   -0.75646E-05   -0.78669E-05  9180   0.931E-05-0.318E-05
   7 F= -.42581016E+03 E0= -.42581016E+03  d E =-.831343E-01  mag=    18.0000
       N       E                     dE             d eps       ncg     rms          ort
SDA:   1    -0.420214656558E+03    0.55955E+01    0.00000E+00  9180   0.154E+02 0.000E+00
CGA:   2    -0.424345960334E+03   -0.41313E+01   -0.41323E+01  9180   0.551E+01 0.375E-02
CGA:   3    -0.425453604417E+03   -0.11076E+01   -0.11076E+01  9180   0.170E+01-0.108E-02
CGA:   4    -0.425735851909E+03   -0.28225E+00   -0.28265E+00  9180   0.300E+00 0.187E-02
CGA:   5    -0.425796409137E+03   -0.60557E-01   -0.60599E-01  9180   0.859E-01 0.293E-03
CGA:   6    -0.425815701926E+03   -0.19293E-01   -0.19277E-01  9180   0.307E-01-0.268E-03
CGA:   7    -0.425824724108E+03   -0.90222E-02   -0.90227E-02  9180   0.160E-01-0.562E-04
CGA:   8    -0.425830142605E+03   -0.54185E-02   -0.54027E-02  9180   0.893E-02 0.275E-03
CGA:   9    -0.425833176651E+03   -0.30340E-02   -0.30304E-02  9180   0.376E-02 0.697E-04
CGA:  10    -0.425834389190E+03   -0.12125E-02   -0.12141E-02  9180   0.137E-02-0.538E-04
CGA:  11    -0.425834829210E+03   -0.44002E-03   -0.43859E-03  9180   0.518E-03 0.413E-04
CGA:  12    -0.425835022777E+03   -0.19357E-03   -0.19224E-03  9180   0.216E-03 0.193E-04
CGA:  13    -0.425835104739E+03   -0.81961E-04   -0.81121E-04  9180   0.759E-04 0.127E-04
CGA:  14    -0.425835129430E+03   -0.24691E-04   -0.24602E-04  9180   0.214E-04 0.126E-04
CGA:  15    -0.425835138213E+03   -0.87830E-05   -0.87039E-05  9180   0.808E-05 0.158E-05
   8 F= -.42583514E+03 E0= -.42583514E+03  d E =-.249789E-01  mag=    18.0000
       N       E                     dE             d eps       ncg     rms          ort
SDA:   1    -0.425653760650E+03    0.18137E+00    0.00000E+00  9180   0.575E+00 0.000E+00
CGA:   2    -0.425790134091E+03   -0.13637E+00   -0.13644E+00  9180   0.209E+00 0.582E-03
CGA:   3    -0.425831125304E+03   -0.40991E-01   -0.40894E-01  9180   0.696E-01-0.885E-03
CGA:   4    -0.425843587591E+03   -0.12462E-01   -0.12464E-01  9180   0.135E-01-0.163E-04
CGA:   5    -0.425846167068E+03   -0.25795E-02   -0.25874E-02  9180   0.368E-02 0.701E-04
CGA:   6    -0.425847026985E+03   -0.85992E-03   -0.85287E-03  9180   0.134E-02-0.114E-03
CGA:   7    -0.425847431951E+03   -0.40497E-03   -0.40795E-03  9180   0.762E-03-0.129E-03
CGA:   8    -0.425847643622E+03   -0.21167E-03   -0.21180E-03  9180   0.365E-03-0.842E-05
CGA:   9    -0.425847755853E+03   -0.11223E-03   -0.11197E-03  9180   0.142E-03 0.139E-04
CGA:  10    -0.425847805206E+03   -0.49353E-04   -0.49607E-04  9180   0.625E-04-0.576E-05
CGA:  11    -0.425847825327E+03   -0.20121E-04   -0.20106E-04  9180   0.260E-04 0.339E-06
CGA:  12    -0.425847836096E+03   -0.10770E-04   -0.11680E-04  9180   0.160E-04-0.613E-05
CGA:  13    -0.425847838103E+03   -0.20069E-05   -0.24739E-05  9180   0.629E-05 0.456E-05
   9 F= -.42584784E+03 E0= -.42584784E+03  d E =-.126999E-01  mag=    18.0000
       N       E                     dE             d eps       ncg     rms          ort
SDA:   1    -0.425745019936E+03    0.10282E+00    0.00000E+00  9180   0.326E+00 0.000E+00
CGA:   2    -0.425820192737E+03   -0.75173E-01   -0.75185E-01  9180   0.124E+00 0.341E-04
CGA:   3    -0.425844241059E+03   -0.24048E-01   -0.23991E-01  9180   0.403E-01-0.630E-03
CGA:   4    -0.425851605445E+03   -0.73644E-02   -0.73682E-02  9180   0.790E-02 0.220E-04
CGA:   5    -0.425853088608E+03   -0.14832E-02   -0.14880E-02  9180   0.209E-02 0.498E-04
CGA:   6    -0.425853583327E+03   -0.49472E-03   -0.49139E-03  9180   0.770E-03-0.820E-04
CGA:   7    -0.425853811143E+03   -0.22782E-03   -0.23161E-03  9180   0.441E-03-0.932E-04
CGA:   8    -0.425853927241E+03   -0.11610E-03   -0.11617E-03  9180   0.205E-03-0.299E-05
CGA:   9    -0.425853987680E+03   -0.60439E-04   -0.60126E-04  9180   0.771E-04 0.155E-04
CGA:  10    -0.425854016191E+03   -0.28511E-04   -0.28859E-04  9180   0.381E-04-0.491E-05
CGA:  11    -0.425854028342E+03   -0.12151E-04   -0.12228E-04  9180   0.171E-04-0.124E-05
CGA:  12    -0.425854034797E+03   -0.64547E-05   -0.69094E-05  9180   0.941E-05-0.338E-05
  10 F= -.42585403E+03 E0= -.42585403E+03  d E =-.619669E-02  mag=    18.0000
       N       E                     dE             d eps       ncg     rms          ort
SDA:   1    -0.424820460503E+03    0.10336E+01    0.00000E+00  9180   0.270E+01 0.000E+00
CGA:   2    -0.425573584630E+03   -0.75312E+00   -0.75313E+00  9180   0.130E+01-0.338E-03
CGA:   3    -0.425791811283E+03   -0.21823E+00   -0.21802E+00  9180   0.304E+00-0.203E-02
CGA:   4    -0.425847244072E+03   -0.55433E-01   -0.55463E-01  9180   0.610E-01 0.222E-03
CGA:   5    -0.425858324009E+03   -0.11080E-01   -0.11119E-01  9180   0.147E-01 0.395E-03
CGA:   6    -0.425861587655E+03   -0.32636E-02   -0.32611E-02  9180   0.417E-02-0.547E-04
CGA:   7    -0.425862668586E+03   -0.10809E-02   -0.10792E-02  9180   0.161E-02-0.201E-03
CGA:   8    -0.425863137558E+03   -0.46897E-03   -0.46985E-03  9180   0.725E-03-0.235E-04
CGA:   9    -0.425863358290E+03   -0.22073E-03   -0.21944E-03  9180   0.277E-03 0.342E-04
CGA:  10    -0.425863457549E+03   -0.99260E-04   -0.99944E-04  9180   0.123E-03-0.965E-05
CGA:  11    -0.425863498657E+03   -0.41108E-04   -0.41257E-04  9180   0.559E-04-0.223E-05
CGA:  12    -0.425863522252E+03   -0.23594E-04   -0.26012E-04  9180   0.403E-04-0.125E-04
CGA:  13    -0.425863531216E+03   -0.89643E-05   -0.89765E-05  9180   0.157E-04 0.640E-05
  11 F= -.42586353E+03 E0= -.42586353E+03  d E =-.949642E-02  mag=    18.0000
       N       E                     dE             d eps       ncg     rms          ort
SDA:   1    -0.423497576697E+03    0.23659E+01    0.00000E+00  9180   0.607E+01 0.000E+00
CGA:   2    -0.425201287240E+03   -0.17037E+01   -0.17037E+01  9180   0.313E+01-0.614E-04
CGA:   3    -0.425717770809E+03   -0.51648E+00   -0.51626E+00  9180   0.679E+00-0.200E-02
CGA:   4    -0.425840489090E+03   -0.12272E+00   -0.12281E+00  9180   0.139E+00 0.821E-03
CGA:   5    -0.425865902860E+03   -0.25414E-01   -0.25471E-01  9180   0.336E-01 0.568E-03
CGA:   6    -0.425873467296E+03   -0.75644E-02   -0.75527E-02  9180   0.966E-02-0.262E-03
CGA:   7    -0.425875894498E+03   -0.24272E-02   -0.24224E-02  9180   0.356E-02-0.313E-03
CGA:   8    -0.425876940635E+03   -0.10461E-02   -0.10444E-02  9180   0.158E-02 0.476E-04
CGA:   9    -0.425877444735E+03   -0.50410E-03   -0.50069E-03  9180   0.617E-03 0.763E-04
CGA:  10    -0.425877668998E+03   -0.22426E-03   -0.22616E-03  9180   0.277E-03-0.249E-04
CGA:  11    -0.425877760796E+03   -0.91797E-04   -0.92427E-04  9180   0.124E-03-0.909E-05
CGA:  12    -0.425877808399E+03   -0.47603E-04   -0.48498E-04  9180   0.654E-04-0.738E-05
CGA:  13    -0.425877825576E+03   -0.17177E-04   -0.17257E-04  9180   0.238E-04 0.178E-04
CGA:  14    -0.425877833875E+03   -0.82998E-05   -0.83598E-05  9180   0.842E-05 0.638E-05
  12 F= -.42587783E+03 E0= -.42587783E+03  d E =-.143027E-01  mag=    18.0000
       N       E                     dE             d eps       ncg     rms          ort
SDA:   1    -0.421181185435E+03    0.46966E+01    0.00000E+00  9180   0.121E+02 0.000E+00
CGA:   2    -0.424481109177E+03   -0.32999E+01   -0.33004E+01  9180   0.653E+01 0.346E-02
CGA:   3    -0.425565833160E+03   -0.10847E+01   -0.10847E+01  9180   0.136E+01 0.157E-02
CGA:   4    -0.425812575294E+03   -0.24674E+00   -0.24684E+00  9180   0.288E+00 0.903E-03
CGA:   5    -0.425865254072E+03   -0.52679E-01   -0.52792E-01  9180   0.685E-01 0.930E-03
CGA:   6    -0.425880594541E+03   -0.15340E-01   -0.15333E-01  9180   0.199E-01-0.151E-03
CGA:   7    -0.425885537990E+03   -0.49434E-02   -0.49303E-02  9180   0.696E-02-0.434E-03
CGA:   8    -0.425887615661E+03   -0.20777E-02   -0.20775E-02  9180   0.306E-02 0.328E-05
CGA:   9    -0.425888571070E+03   -0.95541E-03   -0.95289E-03  9180   0.115E-02 0.780E-04
CGA:  10    -0.425888969503E+03   -0.39843E-03   -0.40130E-03  9180   0.478E-03-0.496E-04
CGA:  11    -0.425889120969E+03   -0.15147E-03   -0.15167E-03  9180   0.198E-03-0.485E-05
CGA:  12    -0.425889200498E+03   -0.79529E-04   -0.81803E-04  9180   0.114E-03-0.176E-04
CGA:  13    -0.425889234082E+03   -0.33584E-04   -0.33027E-04  9180   0.446E-04 0.213E-04
CGA:  14    -0.425889250168E+03   -0.16086E-04   -0.16014E-04  9180   0.154E-04 0.827E-05
CGA:  15    -0.425889258123E+03   -0.79554E-05   -0.10188E-04  9180   0.149E-04-0.850E-05
  13 F= -.42588926E+03 E0= -.42588926E+03  d E =-.114242E-01  mag=    18.0000
       N       E                     dE             d eps       ncg     rms          ort
SDA:   1    -0.423769348519E+03    0.21199E+01    0.00000E+00  9180   0.541E+01 0.000E+00
CGA:   2    -0.425316970541E+03   -0.15476E+01   -0.15476E+01  9180   0.264E+01-0.470E-02
CGA:   3    -0.425755893304E+03   -0.43892E+00   -0.43865E+00  9180   0.592E+00-0.263E-02
CGA:   4    -0.425863668954E+03   -0.10778E+00   -0.10792E+00  9180   0.122E+00 0.125E-02
CGA:   5    -0.425885916374E+03   -0.22247E-01   -0.22356E-01  9180   0.294E-01 0.101E-02
CGA:   6    -0.425892463601E+03   -0.65472E-02   -0.65535E-02  9180   0.854E-02 0.958E-04
CGA:   7    -0.425894651439E+03   -0.21878E-02   -0.21799E-02  9180   0.316E-02-0.328E-03
CGA:   8    -0.425895596526E+03   -0.94509E-03   -0.94944E-03  9180   0.144E-02-0.125E-03
CGA:   9    -0.425896017984E+03   -0.42146E-03   -0.42104E-03  9180   0.521E-03 0.166E-04
CGA:  10    -0.425896182314E+03   -0.16433E-03   -0.16396E-03  9180   0.187E-03 0.121E-04
CGA:  11    -0.425896241553E+03   -0.59239E-04   -0.58785E-04  9180   0.743E-04 0.183E-04
CGA:  12    -0.425896278945E+03   -0.37392E-04   -0.42887E-04  9180   0.747E-04-0.228E-04
CGA:  13    -0.425896298265E+03   -0.19319E-04   -0.20269E-04  9180   0.431E-04-0.100E-04
CGA:  14    -0.425896308074E+03   -0.98092E-05   -0.98645E-05  9180   0.157E-04 0.150E-05
  14 F= -.42589631E+03 E0= -.42589631E+03  d E =-.704995E-02  mag=    18.0000
       N       E                     dE             d eps       ncg     rms          ort
SDA:   1    -0.424963291350E+03    0.93301E+00    0.00000E+00  9180   0.240E+01 0.000E+00
CGA:   2    -0.425638242691E+03   -0.67495E+00   -0.67500E+00  9180   0.122E+01 0.227E-02
CGA:   3    -0.425837843444E+03   -0.19960E+00   -0.19994E+00  9180   0.263E+00 0.205E-02
CGA:   4    -0.425886862182E+03   -0.49019E-01   -0.48943E-01  9180   0.567E-01-0.781E-03
CGA:   5    -0.425897270320E+03   -0.10408E-01   -0.10350E-01  9180   0.135E-01-0.593E-03
CGA:   6    -0.425900215696E+03   -0.29454E-02   -0.29439E-02  9180   0.384E-02-0.281E-04
CGA:   7    -0.425901085770E+03   -0.87007E-03   -0.87967E-03  9180   0.118E-02 0.202E-03
CGA:   8    -0.425901449983E+03   -0.36421E-03   -0.36270E-03  9180   0.509E-03 0.876E-04
CGA:   9    -0.425901644308E+03   -0.19432E-03   -0.19903E-03  9180   0.273E-03-0.532E-04
CGA:  10    -0.425901722356E+03   -0.78048E-04   -0.79148E-04  9180   0.109E-03-0.251E-04
CGA:  11    -0.425901752140E+03   -0.29784E-04   -0.29812E-04  9180   0.405E-04-0.150E-05
CGA:  12    -0.425901766016E+03   -0.13876E-04   -0.13710E-04  9180   0.199E-04 0.275E-05
CGA:  13    -0.425901773440E+03   -0.74239E-05   -0.72476E-05  9180   0.957E-05 0.316E-05
  15 F= -.42590177E+03 E0= -.42590177E+03  d E =-.546537E-02  mag=    18.0000
       N       E                     dE             d eps       ncg     rms          ort
SDA:   1    -0.425804022238E+03    0.97744E-01    0.00000E+00  9180   0.257E+00 0.000E+00
CGA:   2    -0.425880955480E+03   -0.76933E-01   -0.76948E-01  9180   0.109E+00-0.153E-02
CGA:   3    -0.425899855386E+03   -0.18900E-01   -0.18866E-01  9180   0.273E-01-0.310E-03
CGA:   4    -0.425904524828E+03   -0.46694E-02   -0.47219E-02  9180   0.495E-02 0.466E-03
CGA:   5    -0.425905479159E+03   -0.95433E-03   -0.96166E-03  9180   0.130E-02 0.830E-04
CGA:   6    -0.425905798315E+03   -0.31916E-03   -0.31487E-03  9180   0.444E-03-0.119E-03
CGA:   7    -0.425905904885E+03   -0.10657E-03   -0.10620E-03  9180   0.181E-03-0.409E-04
CGA:   8    -0.425905949006E+03   -0.44121E-04   -0.44162E-04  9180   0.686E-04 0.120E-04
CGA:   9    -0.425905974183E+03   -0.25177E-04   -0.25609E-04  9180   0.345E-04-0.553E-05
CGA:  10    -0.425905984587E+03   -0.10404E-04   -0.10507E-04  9180   0.150E-04-0.188E-05
CGA:  11    -0.425905988657E+03   -0.40697E-05   -0.40591E-05  9180   0.576E-05 0.147E-05
  16 F= -.42590599E+03 E0= -.42590599E+03  d E =-.421522E-02  mag=    18.0000
       N       E                     dE             d eps       ncg     rms          ort
SDA:   1    -0.421884663052E+03    0.40213E+01    0.00000E+00  9180   0.102E+02 0.000E+00
CGA:   2    -0.424942095117E+03   -0.30574E+01   -0.30575E+01  9180   0.424E+01-0.864E-02
CGA:   3    -0.425678393230E+03   -0.73630E+00   -0.73629E+00  9180   0.106E+01-0.285E-03
CGA:   4    -0.425864035173E+03   -0.18564E+00   -0.18602E+00  9180   0.197E+00 0.331E-02
CGA:   5    -0.425902059641E+03   -0.38024E-01   -0.38086E-01  9180   0.528E-01 0.702E-03
CGA:   6    -0.425913682230E+03   -0.11623E-01   -0.11595E-01  9180   0.153E-01-0.552E-03
CGA:   7    -0.425917612346E+03   -0.39301E-02   -0.39279E-02  9180   0.609E-02-0.304E-03
CGA:   8    -0.425919457273E+03   -0.18449E-02   -0.18435E-02  9180   0.285E-02 0.312E-04
CGA:   9    -0.425920411114E+03   -0.95384E-03   -0.95830E-03  9180   0.122E-02-0.691E-04
CGA:  10    -0.425920801691E+03   -0.39058E-03   -0.39236E-03  9180   0.476E-03-0.312E-04
CGA:  11    -0.425920954587E+03   -0.15290E-03   -0.15210E-03  9180   0.201E-03 0.146E-04
CGA:  12    -0.425921044994E+03   -0.90406E-04   -0.94671E-04  9180   0.136E-03-0.239E-04
CGA:  13    -0.425921086911E+03   -0.41917E-04   -0.41117E-04  9180   0.527E-04 0.143E-04
CGA:  14    -0.425921106587E+03   -0.19676E-04   -0.19687E-04  9180   0.178E-04-0.277E-06
CGA:  15    -0.425921113182E+03   -0.65954E-05   -0.68415E-05  9180   0.644E-05-0.260E-05
  17 F= -.42592111E+03 E0= -.42592111E+03  d E =-.151245E-01  mag=    18.0000
       N       E                     dE             d eps       ncg     rms          ort
SDA:   1    -0.418996216789E+03    0.69249E+01    0.00000E+00  9180   0.173E+02 0.000E+00
CGA:   2    -0.424313094935E+03   -0.53169E+01   -0.53168E+01  9180   0.688E+01-0.731E-02
CGA:   3    -0.425515600848E+03   -0.12025E+01   -0.12029E+01  9180   0.178E+01 0.342E-02
CGA:   4    -0.425824126919E+03   -0.30853E+00   -0.30915E+00  9180   0.324E+00 0.473E-02
CGA:   5    -0.425887684861E+03   -0.63558E-01   -0.63633E-01  9180   0.889E-01 0.781E-03
CGA:   6    -0.425907053800E+03   -0.19369E-01   -0.19329E-01  9180   0.254E-01-0.718E-03
CGA:   7    -0.425913744750E+03   -0.66909E-02   -0.66885E-02  9180   0.103E-01-0.331E-03
CGA:   8    -0.425916907380E+03   -0.31626E-02   -0.31606E-02  9180   0.482E-02 0.473E-04
CGA:   9    -0.425918529726E+03   -0.16223E-02   -0.16310E-02  9180   0.201E-02-0.141E-03
CGA:  10    -0.425919159836E+03   -0.63011E-03   -0.63210E-03  9180   0.753E-03-0.435E-04
CGA:  11    -0.425919408865E+03   -0.24903E-03   -0.24886E-03  9180   0.334E-03 0.228E-05
CGA:  12    -0.425919557030E+03   -0.14816E-03   -0.15514E-03  9180   0.227E-03-0.389E-04
CGA:  13    -0.425919627570E+03   -0.70540E-04   -0.69223E-04  9180   0.855E-04 0.242E-04
CGA:  14    -0.425919661174E+03   -0.33604E-04   -0.33936E-04  9180   0.306E-04-0.523E-05
CGA:  15    -0.425919672586E+03   -0.11412E-04   -0.12865E-04  9180   0.144E-04-0.973E-05
CGA:  16    -0.425919673901E+03   -0.13146E-05   -0.18242E-05  9180   0.654E-05 0.424E-05
  18 F= -.42591967E+03 E0= -.42591967E+03  d E =0.143928E-02  mag=    18.0000
       N       E                     dE             d eps       ncg     rms          ort
SDA:   1    -0.425317952241E+03    0.60172E+00    0.00000E+00  9180   0.168E+01 0.000E+00
CGA:   2    -0.425731930037E+03   -0.41398E+00   -0.41411E+00  9180   0.823E+00 0.234E-02
CGA:   3    -0.425881346940E+03   -0.14942E+00   -0.14956E+00  9180   0.203E+00 0.117E-02
CGA:   4    -0.425918414071E+03   -0.37067E-01   -0.37002E-01  9180   0.429E-01-0.721E-03
CGA:   5    -0.425926421008E+03   -0.80069E-02   -0.79792E-02  9180   0.107E-01-0.314E-03
CGA:   6    -0.425928739029E+03   -0.23180E-02   -0.23227E-02  9180   0.321E-02 0.786E-04
CGA:   7    -0.425929524580E+03   -0.78555E-03   -0.78850E-03  9180   0.114E-02 0.104E-03
CGA:   8    -0.425929895566E+03   -0.37099E-03   -0.37129E-03  9180   0.566E-03-0.717E-05
CGA:   9    -0.425930088739E+03   -0.19317E-03   -0.19624E-03  9180   0.282E-03-0.405E-04
CGA:  10    -0.425930174750E+03   -0.86011E-04   -0.86634E-04  9180   0.117E-03-0.116E-04
CGA:  11    -0.425930215886E+03   -0.41135E-04   -0.43017E-04  9180   0.621E-04-0.182E-04
CGA:  12    -0.425930235185E+03   -0.19299E-04   -0.19472E-04  9180   0.273E-04-0.203E-05
CGA:  13    -0.425930243791E+03   -0.86056E-05   -0.85088E-05  9180   0.968E-05 0.291E-05
  19 F= -.42593024E+03 E0= -.42593024E+03  d E =-.105699E-01  mag=    18.0000
       N       E                     dE             d eps       ncg     rms          ort
SDA:   1    -0.425570063773E+03    0.36017E+00    0.00000E+00  9180   0.915E+00 0.000E+00
CGA:   2    -0.425849830413E+03   -0.27977E+00   -0.27973E+00  9180   0.324E+00 0.328E-02
CGA:   3    -0.425911010528E+03   -0.61180E-01   -0.61129E-01  9180   0.914E-01-0.611E-03
CGA:   4    -0.425926483873E+03   -0.15473E-01   -0.15373E-01  9180   0.164E-01-0.847E-03
CGA:   5    -0.425929737033E+03   -0.32532E-02   -0.32527E-02  9180   0.441E-02-0.883E-05
CGA:   6    -0.425930612562E+03   -0.87553E-03   -0.89013E-03  9180   0.118E-02 0.184E-03
CGA:   7    -0.425930944354E+03   -0.33179E-03   -0.33198E-03  9180   0.492E-03 0.302E-04
CGA:   8    -0.425931115392E+03   -0.17104E-03   -0.17263E-03  9180   0.290E-03-0.243E-04
CGA:   9    -0.425931194293E+03   -0.78901E-04   -0.78732E-04  9180   0.104E-03 0.304E-04
CGA:  10    -0.425931232862E+03   -0.38569E-04   -0.38975E-04  9180   0.525E-04-0.693E-05
CGA:  11    -0.425931251865E+03   -0.19003E-04   -0.24101E-04  9180   0.505E-04-0.245E-04
CGA:  12    -0.425931256772E+03   -0.49067E-05   -0.54734E-05  9180   0.288E-04 0.622E-05
  20 F= -.42593126E+03 E0= -.42593126E+03  d E =-.101298E-02  mag=    18.0000
       N       E                     dE             d eps       ncg     rms          ort
SDA:   1    -0.425887951019E+03    0.43301E-01    0.00000E+00  9180   0.116E+00 0.000E+00
CGA:   2    -0.425921124898E+03   -0.33174E-01   -0.33172E-01  9180   0.558E-01 0.591E-03
CGA:   3    -0.425930359408E+03   -0.92345E-02   -0.92750E-02  9180   0.124E-01 0.326E-03
CGA:   4    -0.425932709812E+03   -0.23504E-02   -0.23335E-02  9180   0.261E-02-0.190E-03
CGA:   5    -0.425933190671E+03   -0.48086E-03   -0.47772E-03  9180   0.648E-03-0.366E-04
CGA:   6    -0.425933315883E+03   -0.12521E-03   -0.12836E-03  9180   0.159E-03 0.463E-04
CGA:   7    -0.425933351727E+03   -0.35844E-04   -0.37057E-04  9180   0.503E-04 0.256E-04
CGA:   8    -0.425933373926E+03   -0.22199E-04   -0.25464E-04  9180   0.542E-04-0.189E-04
CGA:   9    -0.425933383744E+03   -0.98179E-05   -0.10418E-04  9180   0.330E-04-0.165E-04
  21 F= -.42593338E+03 E0= -.42593338E+03  d E =-.212697E-02  mag=    18.0000
       N       E                     dE             d eps       ncg     rms          ort
SDA:   1    -0.425260120537E+03    0.67325E+00    0.00000E+00  9180   0.183E+01 0.000E+00
CGA:   2    -0.425724833310E+03   -0.46471E+00   -0.46472E+00  9180   0.949E+00-0.255E-03
CGA:   3    -0.425889454008E+03   -0.16462E+00   -0.16472E+00  9180   0.216E+00 0.778E-03
CGA:   4    -0.425928447894E+03   -0.38994E-01   -0.39027E-01  9180   0.447E-01 0.342E-03
CGA:   5    -0.425936613358E+03   -0.81655E-02   -0.81828E-02  9180   0.106E-01 0.212E-03
CGA:   6    -0.425938961406E+03   -0.23480E-02   -0.23500E-02  9180   0.302E-02 0.512E-04
CGA:   7    -0.425939724662E+03   -0.76326E-03   -0.76320E-03  9180   0.109E-02-0.316E-04
CGA:   8    -0.425940068778E+03   -0.34412E-03   -0.34839E-03  9180   0.534E-03-0.604E-04
CGA:   9    -0.425940237916E+03   -0.16914E-03   -0.17233E-03  9180   0.235E-03-0.379E-04
CGA:  10    -0.425940297979E+03   -0.60063E-04   -0.59713E-04  9180   0.777E-04 0.270E-04
CGA:  11    -0.425940326347E+03   -0.28368E-04   -0.28137E-04  9180   0.364E-04 0.359E-05
CGA:  12    -0.425940315559E+03    0.10788E-04   -0.40506E-04  9180   0.196E-03-0.642E-04
CGA:  13    -0.425940348526E+03   -0.32967E-04   -0.37490E-04  9180   0.228E-04 0.397E-04
CGA:  14    -0.425940358551E+03   -0.10025E-04   -0.10408E-04  9180   0.851E-05-0.474E-05
CGA:  15    -0.425940336864E+03    0.21686E-04   -0.97756E-05  9180   0.103E-03-0.274E-04
CGA:  16    -0.425940362378E+03   -0.25514E-04   -0.26181E-04  9180   0.103E-04 0.626E-05
CGA:  17    -0.425940361997E+03    0.38112E-06   -0.13793E-05  9180   0.549E-05 0.770E-05
  22 F= -.42594036E+03 E0= -.42594036E+03  d E =-.697825E-02  mag=    18.0000
       N       E                     dE             d eps       ncg     rms          ort
SDA:   1    -0.414269966361E+03    0.11670E+02    0.00000E+00  9180   0.307E+02 0.000E+00
CGA:   2    -0.422389147084E+03   -0.81192E+01   -0.81267E+01  9180   0.158E+02 0.232E-01
CGA:   3    -0.425099749966E+03   -0.27106E+01   -0.27141E+01  9180   0.354E+01 0.397E-01
CGA:   4    -0.425739577637E+03   -0.63983E+00   -0.64004E+00  9180   0.737E+00 0.294E-02
CGA:   5    -0.425875826292E+03   -0.13625E+00   -0.13648E+00  9180   0.184E+00 0.106E-02
CGA:   6    -0.425916851902E+03   -0.41026E-01   -0.41042E-01  9180   0.537E-01 0.906E-04
CGA:   7    -0.425930468682E+03   -0.13617E-01   -0.13603E-01  9180   0.197E-01-0.280E-03
CGA:   8    -0.425936566711E+03   -0.60980E-02   -0.60981E-02  9180   0.874E-02-0.225E-04
CGA:   9    -0.425939411468E+03   -0.28448E-02   -0.28475E-02  9180   0.346E-02-0.128E-03
CGA:  10    -0.425940499529E+03   -0.10881E-02   -0.10883E-02  9180   0.130E-02-0.216E-04
CGA:  11    -0.425940935734E+03   -0.43621E-03   -0.43624E-03  9180   0.564E-03-0.203E-05
CGA:  12    -0.425941191183E+03   -0.25545E-03   -0.27898E-03  9180   0.440E-03-0.126E-03
CGA:  13    -0.425941300487E+03   -0.10930E-03   -0.10919E-03  9180   0.180E-03 0.461E-04
CGA:  14    -0.425941360679E+03   -0.60191E-04   -0.60278E-04  9180   0.626E-04 0.624E-05
CGA:  15    -0.425941343492E+03    0.17186E-04   -0.61720E-04  9180   0.261E-03-0.124E-03
CGA:  16    -0.425941383167E+03   -0.39675E-04   -0.51767E-04  9180   0.386E-04 0.807E-04
CGA:  17    -0.425941400285E+03   -0.17118E-04   -0.17106E-04  9180   0.125E-04-0.626E-05
CGA:  18    -0.425941404589E+03   -0.43039E-05   -0.49403E-05  9180   0.732E-05-0.490E-05
  23 F= -.42594140E+03 E0= -.42594140E+03  d E =-.104259E-02  mag=    18.0000
       N       E                     dE             d eps       ncg     rms          ort
SDA:   1    -0.424912980901E+03    0.10284E+01    0.00000E+00  9180   0.289E+01 0.000E+00
CGA:   2    -0.425601372746E+03   -0.68839E+00   -0.68903E+00  9180   0.146E+01 0.499E-02
CGA:   3    -0.425865626331E+03   -0.26425E+00   -0.26435E+00  9180   0.342E+00 0.167E-04
CGA:   4    -0.425929266193E+03   -0.63640E-01   -0.63361E-01  9180   0.756E-01-0.206E-02
CGA:   5    -0.425943126275E+03   -0.13860E-01   -0.13792E-01  9180   0.174E-01-0.535E-03
CGA:   6    -0.425946804927E+03   -0.36787E-02   -0.37120E-02  9180   0.487E-02 0.353E-03
CGA:   7    -0.425947970170E+03   -0.11652E-02   -0.11787E-02  9180   0.152E-02 0.201E-03
CGA:   8    -0.425948443826E+03   -0.47366E-03   -0.47371E-03  9180   0.658E-03 0.236E-04
CGA:   9    -0.425948652718E+03   -0.20889E-03   -0.20886E-03  9180   0.258E-03 0.258E-05
CGA:  10    -0.425948739247E+03   -0.86530E-04   -0.87149E-04  9180   0.108E-03-0.177E-04
CGA:  11    -0.425948766588E+03   -0.27341E-04   -0.27727E-04  9180   0.369E-04 0.142E-04
CGA:  12    -0.425948774873E+03   -0.82852E-05   -0.94667E-05  9180   0.166E-04 0.158E-04
  24 F= -.42594877E+03 E0= -.42594877E+03  d E =-.737028E-02  mag=    18.0000
       N       E                     dE             d eps       ncg     rms          ort
SDA:   1    -0.424780613322E+03    0.11682E+01    0.00000E+00  9180   0.301E+01 0.000E+00
CGA:   2    -0.425619276990E+03   -0.83866E+00   -0.83868E+00  9180   0.150E+01-0.682E-04
CGA:   3    -0.425872043782E+03   -0.25277E+00   -0.25283E+00  9180   0.344E+00 0.241E-04
CGA:   4    -0.425933495544E+03   -0.61452E-01   -0.61424E-01  9180   0.682E-01-0.328E-03
CGA:   5    -0.425946241726E+03   -0.12746E-01   -0.12733E-01  9180   0.173E-01-0.161E-03
CGA:   6    -0.425949984087E+03   -0.37424E-02   -0.37436E-02  9180   0.469E-02 0.136E-04
CGA:   7    -0.425951144974E+03   -0.11609E-02   -0.11629E-02  9180   0.166E-02 0.666E-04
CGA:   8    -0.425951658452E+03   -0.51348E-03   -0.51201E-03  9180   0.743E-03 0.518E-04
CGA:   9    -0.425951920727E+03   -0.26227E-03   -0.26256E-03  9180   0.336E-03-0.463E-05
CGA:  10    -0.425952039059E+03   -0.11833E-03   -0.12174E-03  9180   0.164E-03-0.406E-04
CGA:  11    -0.425952083952E+03   -0.44893E-04   -0.44805E-04  9180   0.631E-04 0.328E-05
CGA:  12    -0.425952104558E+03   -0.20606E-04   -0.20305E-04  9180   0.277E-04 0.100E-04
CGA:  13    -0.425952117996E+03   -0.13438E-04   -0.13598E-04  9180   0.178E-04-0.121E-05
CGA:  14    -0.425952123052E+03   -0.50558E-05   -0.50498E-05  9180   0.632E-05 0.298E-05
  25 F= -.42595212E+03 E0= -.42595212E+03  d E =-.334818E-02  mag=    18.0000
       N       E                     dE             d eps       ncg     rms          ort
SDA:   1    -0.425790514638E+03    0.16160E+00    0.00000E+00  9180   0.451E+00 0.000E+00
CGA:   2    -0.425894563344E+03   -0.10405E+00   -0.10412E+00  9180   0.241E+00 0.920E-03
CGA:   3    -0.425939049403E+03   -0.44486E-01   -0.44444E-01  9180   0.569E-01-0.521E-03
CGA:   4    -0.425949359656E+03   -0.10310E-01   -0.10253E-01  9180   0.124E-01-0.570E-03
CGA:   5    -0.425951612615E+03   -0.22530E-02   -0.22474E-02  9180   0.289E-02-0.617E-04
CGA:   6    -0.425952201537E+03   -0.58892E-03   -0.59865E-03  9180   0.773E-03 0.151E-03
CGA:   7    -0.425952393007E+03   -0.19147E-03   -0.19286E-03  9180   0.247E-03 0.433E-04
CGA:   8    -0.425952477545E+03   -0.84539E-04   -0.85595E-04  9180   0.130E-03-0.177E-04
CGA:   9    -0.425952510308E+03   -0.32763E-04   -0.32755E-04  9180   0.465E-04 0.110E-04
CGA:  10    -0.425952525588E+03   -0.15280E-04   -0.15235E-04  9180   0.200E-04 0.138E-05
CGA:  11    -0.425952533102E+03   -0.75139E-05   -0.78942E-05  9180   0.117E-04-0.341E-05
  26 F= -.42595253E+03 E0= -.42595253E+03  d E =-.410050E-03  mag=    18.0000
       N       E                     dE             d eps       ncg     rms          ort
SDA:   1    -0.425917636564E+03    0.34889E-01    0.00000E+00  9180   0.983E-01 0.000E+00
CGA:   2    -0.425941985896E+03   -0.24349E-01   -0.24375E-01  9180   0.484E-01 0.108E-02
CGA:   3    -0.425950951824E+03   -0.89659E-02   -0.89630E-02  9180   0.118E-01-0.512E-04
CGA:   4    -0.425953132162E+03   -0.21803E-02   -0.21534E-02  9180   0.245E-02-0.331E-03
CGA:   5    -0.425953586712E+03   -0.45455E-03   -0.44894E-03  9180   0.621E-03-0.780E-04
CGA:   6    -0.425953699430E+03   -0.11272E-03   -0.11659E-03  9180   0.148E-03 0.606E-04
CGA:   7    -0.425953734666E+03   -0.35236E-04   -0.35982E-04  9180   0.499E-04 0.230E-04
CGA:   8    -0.425953754054E+03   -0.19388E-04   -0.19868E-04  9180   0.336E-04-0.524E-05
CGA:   9    -0.425953760714E+03   -0.66592E-05   -0.68290E-05  9180   0.137E-04 0.565E-05
  27 F= -.42595376E+03 E0= -.42595376E+03  d E =-.122761E-02  mag=    18.0000
       N       E                     dE             d eps       ncg     rms          ort
SDA:   1    -0.425841634646E+03    0.11212E+00    0.00000E+00  9180   0.294E+00 0.000E+00
CGA:   2    -0.425924377485E+03   -0.82743E-01   -0.82715E-01  9180   0.134E+00 0.101E-02
CGA:   3    -0.425947992686E+03   -0.23615E-01   -0.23609E-01  9180   0.327E-01-0.132E-03
CGA:   4    -0.425953719290E+03   -0.57266E-02   -0.57132E-02  9180   0.614E-02-0.178E-03
CGA:   5    -0.425954886102E+03   -0.11668E-02   -0.11665E-02  9180   0.162E-02-0.618E-05
CGA:   6    -0.425955220148E+03   -0.33405E-03   -0.33602E-03  9180   0.418E-03 0.492E-04
CGA:   7    -0.425955337202E+03   -0.11705E-03   -0.11745E-03  9180   0.185E-03-0.147E-04
CGA:   8    -0.425955395711E+03   -0.58509E-04   -0.60071E-04  9180   0.103E-03-0.173E-04
CGA:   9    -0.425955423502E+03   -0.27792E-04   -0.27482E-04  9180   0.383E-04 0.703E-05
CGA:  10    -0.425955437862E+03   -0.14360E-04   -0.15035E-04  9180   0.209E-04-0.598E-05
CGA:  11    -0.425955442976E+03   -0.51141E-05   -0.50689E-05  9180   0.839E-05 0.157E-05
  28 F= -.42595544E+03 E0= -.42595544E+03  d E =-.168226E-02  mag=    18.0000
       N       E                     dE             d eps       ncg     rms          ort
SDA:   1    -0.415939738933E+03    0.10016E+02    0.00000E+00  9180   0.253E+02 0.000E+00
CGA:   2    -0.423535210607E+03   -0.75955E+01   -0.75935E+01  9180   0.103E+02 0.276E-01
CGA:   3    -0.425365967004E+03   -0.18308E+01   -0.18319E+01  9180   0.258E+01 0.109E-02
CGA:   4    -0.425811665642E+03   -0.44570E+00   -0.44558E+00  9180   0.487E+00-0.178E-02
CGA:   5    -0.425908353028E+03   -0.96687E-01   -0.96688E-01  9180   0.136E+00-0.197E-04
CGA:   6    -0.425937217320E+03   -0.28864E-01   -0.28895E-01  9180   0.378E-01 0.740E-03
CGA:   7    -0.425947480450E+03   -0.10263E-01   -0.10265E-01  9180   0.161E-01-0.825E-04
CGA:   8    -0.425952500632E+03   -0.50202E-02   -0.50352E-02  9180   0.762E-02-0.243E-03
CGA:   9    -0.425954956415E+03   -0.24558E-02   -0.24598E-02  9180   0.304E-02-0.564E-04
CGA:  10    -0.425955944724E+03   -0.98831E-03   -0.10033E-02  9180   0.123E-02-0.198E-03
CGA:  11    -0.425956327268E+03   -0.38254E-03   -0.37959E-03  9180   0.512E-03 0.421E-04
CGA:  12    -0.425956542438E+03   -0.21517E-03   -0.21474E-03  9180   0.294E-03 0.245E-05
CGA:  13    -0.425956678041E+03   -0.13560E-03   -0.15336E-03  9180   0.203E-03-0.723E-04
CGA:  14    -0.425956713978E+03   -0.35937E-04   -0.37235E-04  9180   0.693E-04 0.327E-04
CGA:  15    -0.425956731047E+03   -0.17069E-04   -0.17757E-04  9180   0.199E-04 0.113E-04
CGA:  16    -0.425956735270E+03   -0.42232E-05   -0.16108E-04  9180   0.442E-04-0.285E-04
  29 F= -.42595674E+03 E0= -.42595674E+03  d E =-.129229E-02  mag=    18.0000
       N       E                     dE             d eps       ncg     rms          ort
SDA:   1    -0.425377915229E+03    0.57882E+00    0.00000E+00  9180   0.153E+01 0.000E+00
CGA:   2    -0.425777276551E+03   -0.39936E+00   -0.39940E+00  9180   0.776E+00 0.599E-03
CGA:   3    -0.425910539276E+03   -0.13326E+00   -0.13313E+00  9180   0.178E+00-0.132E-02
CGA:   4    -0.425943541252E+03   -0.33002E-01   -0.32920E-01  9180   0.382E-01-0.861E-03
CGA:   5    -0.425950441691E+03   -0.69004E-02   -0.69035E-02  9180   0.887E-02 0.186E-04
CGA:   6    -0.425952380291E+03   -0.19386E-02   -0.19467E-02  9180   0.252E-02 0.145E-03
CGA:   7    -0.425952992181E+03   -0.61189E-03   -0.61426E-03  9180   0.810E-03 0.730E-04
CGA:   8    -0.425953253131E+03   -0.26095E-03   -0.26197E-03  9180   0.375E-03-0.233E-04
CGA:   9    -0.425953379283E+03   -0.12615E-03   -0.13300E-03  9180   0.189E-03-0.737E-04
CGA:  10    -0.425953424328E+03   -0.45045E-04   -0.45285E-04  9180   0.640E-04-0.112E-04
CGA:  11    -0.425953437753E+03   -0.13426E-04   -0.14016E-04  9180   0.218E-04 0.130E-04
CGA:  12    -0.425953444365E+03   -0.66119E-05   -0.67300E-05  9180   0.109E-04 0.624E-05
  30 F= -.42595344E+03 E0= -.42595344E+03  d E =0.329090E-02  mag=    18.0000
       N       E                     dE             d eps       ncg     rms          ort
SDA:   1    -0.423078679168E+03    0.28748E+01    0.00000E+00  9180   0.723E+01 0.000E+00
CGA:   2    -0.425285319482E+03   -0.22066E+01   -0.22067E+01  9180   0.290E+01-0.437E-02
CGA:   3    -0.425796222301E+03   -0.51090E+00   -0.51128E+00  9180   0.726E+00 0.296E-02
CGA:   4    -0.425920569355E+03   -0.12435E+00   -0.12451E+00  9180   0.134E+00 0.130E-02
CGA:   5    -0.425947141696E+03   -0.26572E-01   -0.26565E-01  9180   0.369E-01-0.150E-03
CGA:   6    -0.425955003583E+03   -0.78619E-02   -0.78402E-02  9180   0.995E-02-0.393E-03
CGA:   7    -0.425957559341E+03   -0.25558E-02   -0.25563E-02  9180   0.395E-02 0.705E-04
CGA:   8    -0.425958754698E+03   -0.11954E-02   -0.11915E-02  9180   0.177E-02 0.117E-03
CGA:   9    -0.425959387159E+03   -0.63246E-03   -0.63533E-03  9180   0.819E-03-0.366E-04
CGA:  10    -0.425959634115E+03   -0.24696E-03   -0.24599E-03  9180   0.293E-03 0.275E-04
CGA:  11    -0.425959747472E+03   -0.11336E-03   -0.11775E-03  9180   0.168E-03-0.385E-04
CGA:  12    -0.425959808405E+03   -0.60933E-04   -0.63703E-04  9180   0.990E-04-0.178E-04
CGA:  13    -0.425959830220E+03   -0.21815E-04   -0.22687E-04  9180   0.364E-04 0.278E-04
CGA:  14    -0.425959840879E+03   -0.10659E-04   -0.11198E-04  9180   0.123E-04 0.117E-04
CGA:  15    -0.425959847491E+03   -0.66116E-05   -0.87112E-05  9180   0.126E-04-0.831E-05
  31 F= -.42595985E+03 E0= -.42595985E+03  d E =-.640313E-02  mag=    18.0000
       N       E                     dE             d eps       ncg     rms          ort
SDA:   1    -0.425462275107E+03    0.49757E+00    0.00000E+00  9180   0.130E+01 0.000E+00
CGA:   2    -0.425824935043E+03   -0.36266E+00   -0.36265E+00  9180   0.574E+00-0.167E-02
CGA:   3    -0.425924752418E+03   -0.99817E-01   -0.99833E-01  9180   0.144E+00-0.631E-04
CGA:   4    -0.425950028565E+03   -0.25276E-01   -0.25346E-01  9180   0.268E-01 0.614E-03
CGA:   5    -0.425955161607E+03   -0.51330E-02   -0.51390E-02  9180   0.700E-02 0.598E-04
CGA:   6    -0.425956731260E+03   -0.15697E-02   -0.15585E-02  9180   0.202E-02-0.219E-03
CGA:   7    -0.425957237384E+03   -0.50612E-03   -0.50586E-03  9180   0.772E-03-0.210E-04
CGA:   8    -0.425957448126E+03   -0.21074E-03   -0.21031E-03  9180   0.306E-03 0.847E-04
CGA:   9    -0.425957563095E+03   -0.11497E-03   -0.11380E-03  9180   0.144E-03 0.180E-04
CGA:  10    -0.425957618139E+03   -0.55044E-04   -0.56324E-04  9180   0.757E-04-0.135E-04
CGA:  11    -0.425957638661E+03   -0.20522E-04   -0.20413E-04  9180   0.290E-04 0.570E-05
CGA:  12    -0.425957649370E+03   -0.10709E-04   -0.10573E-04  9180   0.145E-04 0.229E-05
CGA:  13    -0.425957653999E+03   -0.46287E-05   -0.45872E-05  9180   0.622E-05 0.400E-05
  32 F= -.42595765E+03 E0= -.42595765E+03  d E =0.219349E-02  mag=    18.0000
       N       E                     dE             d eps       ncg     rms          ort
SDA:   1    -0.425784332379E+03    0.17332E+00    0.00000E+00  9180   0.448E+00 0.000E+00
CGA:   2    -0.425917102998E+03   -0.13277E+00   -0.13275E+00  9180   0.181E+00 0.103E-02
CGA:   3    -0.425949385050E+03   -0.32282E-01   -0.32257E-01  9180   0.465E-01-0.324E-03
CGA:   4    -0.425957530452E+03   -0.81454E-02   -0.81086E-02  9180   0.870E-02-0.381E-03
CGA:   5    -0.425959204051E+03   -0.16736E-02   -0.16759E-02  9180   0.228E-02 0.283E-04
CGA:   6    -0.425959650037E+03   -0.44599E-03   -0.45540E-03  9180   0.567E-03 0.138E-03
CGA:   7    -0.425959810154E+03   -0.16012E-03   -0.16008E-03  9180   0.237E-03 0.104E-04
CGA:   8    -0.425959898322E+03   -0.88168E-04   -0.99423E-04  9180   0.205E-03-0.756E-04
CGA:   9    -0.425959933188E+03   -0.34866E-04   -0.34883E-04  9180   0.835E-04 0.741E-06
CGA:  10    -0.425959949894E+03   -0.16706E-04   -0.17386E-04  9180   0.326E-04 0.109E-04
CGA:  11    -0.425959960811E+03   -0.10917E-04   -0.11038E-04  9180   0.176E-04-0.365E-05
CGA:  12    -0.425959965192E+03   -0.43812E-05   -0.43721E-05  9180   0.963E-05 0.838E-06
  33 F= -.42595997E+03 E0= -.42595997E+03  d E =-.231119E-02  mag=    18.0000
       N       E                     dE             d eps       ncg     rms          ort
SDA:   1    -0.425930828593E+03    0.29132E-01    0.00000E+00  9180   0.748E-01 0.000E+00
CGA:   2    -0.425952090036E+03   -0.21261E-01   -0.21262E-01  9180   0.382E-01-0.863E-04
CGA:   3    -0.425958424175E+03   -0.63341E-02   -0.63308E-02  9180   0.825E-02-0.412E-04
CGA:   4    -0.425959885859E+03   -0.14617E-02   -0.14662E-02  9180   0.169E-02 0.490E-04
CGA:   5    -0.425960194595E+03   -0.30874E-03   -0.31146E-03  9180   0.405E-03 0.339E-04
CGA:   6    -0.425960285675E+03   -0.91081E-04   -0.90921E-04  9180   0.114E-03-0.427E-05
CGA:   7    -0.425960315037E+03   -0.29362E-04   -0.29392E-04  9180   0.448E-04-0.716E-05
CGA:   8    -0.425960328439E+03   -0.13402E-04   -0.13748E-04  9180   0.225E-04-0.489E-05
CGA:   9    -0.425960335495E+03   -0.70563E-05   -0.98849E-05  9180   0.233E-04-0.122E-04
  34 F= -.42596034E+03 E0= -.42596034E+03  d E =-.370304E-03  mag=    18.0000
       N       E                     dE             d eps       ncg     rms          ort
SDA:   1    -0.423236811541E+03    0.27235E+01    0.00000E+00  9180   0.743E+01 0.000E+00
CGA:   2    -0.425015814422E+03   -0.17790E+01   -0.17793E+01  9180   0.398E+01 0.406E-02
CGA:   3    -0.425741484480E+03   -0.72567E+00   -0.72569E+00  9180   0.911E+00-0.516E-03
CGA:   4    -0.425903484741E+03   -0.16200E+00   -0.16206E+00  9180   0.196E+00 0.717E-03
CGA:   5    -0.425939708966E+03   -0.36224E-01   -0.36289E-01  9180   0.469E-01 0.816E-03
CGA:   6    -0.425949943906E+03   -0.10235E-01   -0.10234E-01  9180   0.134E-01-0.448E-04
CGA:   7    -0.425953166241E+03   -0.32223E-02   -0.32214E-02  9180   0.442E-02-0.959E-04
CGA:   8    -0.425954391751E+03   -0.12255E-02   -0.12212E-02  9180   0.171E-02 0.156E-03
CGA:   9    -0.425954950000E+03   -0.55825E-03   -0.55778E-03  9180   0.719E-03 0.656E-05
CGA:  10    -0.425955194144E+03   -0.24414E-03   -0.24667E-03  9180   0.319E-03-0.296E-04
CGA:  11    -0.425955279161E+03   -0.85017E-04   -0.84221E-04  9180   0.112E-03 0.496E-04
CGA:  12    -0.425955325965E+03   -0.46804E-04   -0.46979E-04  9180   0.636E-04-0.186E-05
CGA:  13    -0.425955348405E+03   -0.22440E-04   -0.22139E-04  9180   0.327E-04 0.329E-05
CGA:  14    -0.425955355391E+03   -0.69864E-05   -0.76288E-05  9180   0.129E-04 0.134E-04
  35 F= -.42595536E+03 E0= -.42595536E+03  d E =0.498010E-02  mag=    18.0000
       N       E                     dE             d eps       ncg     rms          ort
SDA:   1    -0.423396934911E+03    0.25584E+01    0.00000E+00  9180   0.660E+01 0.000E+00
CGA:   2    -0.425233893978E+03   -0.18370E+01   -0.18370E+01  9180   0.309E+01-0.240E-02
CGA:   3    -0.425764357088E+03   -0.53046E+00   -0.53052E+00  9180   0.739E+00-0.191E-03
CGA:   4    -0.425897509195E+03   -0.13315E+00   -0.13324E+00  9180   0.146E+00 0.929E-03
CGA:   5    -0.425924705781E+03   -0.27197E-01   -0.27238E-01  9180   0.370E-01 0.528E-03
CGA:   6    -0.425932872929E+03   -0.81671E-02   -0.81702E-02  9180   0.107E-01 0.751E-04
CGA:   7    -0.425935580148E+03   -0.27072E-02   -0.27072E-02  9180   0.403E-02 0.491E-04
CGA:   8    -0.425936803868E+03   -0.12237E-02   -0.12181E-02  9180   0.182E-02 0.119E-03
CGA:   9    -0.425937431990E+03   -0.62812E-03   -0.63020E-03  9180   0.821E-03-0.265E-04
CGA:  10    -0.425937700995E+03   -0.26900E-03   -0.27101E-03  9180   0.346E-03-0.274E-04
CGA:  11    -0.425937804469E+03   -0.10347E-03   -0.10203E-03  9180   0.135E-03 0.343E-04
CGA:  12    -0.425937864007E+03   -0.59538E-04   -0.59508E-04  9180   0.819E-04 0.295E-07
CGA:  13    -0.425937899045E+03   -0.35038E-04   -0.36574E-04  9180   0.466E-04-0.901E-05
CGA:  14    -0.425937910844E+03   -0.11799E-04   -0.11783E-04  9180   0.141E-04 0.582E-05
CGA:  15    -0.425937916322E+03   -0.54775E-05   -0.57160E-05  9180   0.596E-05-0.304E-05
  36 F= -.42593792E+03 E0= -.42593792E+03  d E =0.174391E-01  mag=    18.0000
       N       E                     dE             d eps       ncg     rms          ort
SDA:   1    -0.423116586401E+03    0.28213E+01    0.00000E+00  9180   0.763E+01 0.000E+00
CGA:   2    -0.425066812241E+03   -0.19502E+01   -0.19508E+01  9180   0.381E+01 0.815E-02
CGA:   3    -0.425744755874E+03   -0.67794E+00   -0.67797E+00  9180   0.892E+00 0.232E-02
CGA:   4    -0.425907864773E+03   -0.16311E+00   -0.16296E+00  9180   0.186E+00-0.139E-02
CGA:   5    -0.425942273760E+03   -0.34409E-01   -0.34378E-01  9180   0.456E-01-0.403E-03
CGA:   6    -0.425952226182E+03   -0.99524E-02   -0.99705E-02  9180   0.132E-01 0.300E-03
CGA:   7    -0.425955476846E+03   -0.32507E-02   -0.32529E-02  9180   0.467E-02 0.742E-04
CGA:   8    -0.425956899773E+03   -0.14229E-02   -0.14237E-02  9180   0.212E-02-0.251E-04
CGA:   9    -0.425957549972E+03   -0.65020E-03   -0.64835E-03  9180   0.835E-03 0.544E-04
CGA:  10    -0.425957830496E+03   -0.28052E-03   -0.28003E-03  9180   0.343E-03 0.896E-05
CGA:  11    -0.425957958685E+03   -0.12819E-03   -0.13125E-03  9180   0.180E-03-0.308E-04
CGA:  12    -0.425958021550E+03   -0.62865E-04   -0.63449E-04  9180   0.879E-04-0.593E-05
CGA:  13    -0.425958055722E+03   -0.34172E-04   -0.34936E-04  9180   0.412E-04-0.637E-05
CGA:  14    -0.425958070304E+03   -0.14581E-04   -0.14992E-04  9180   0.151E-04-0.422E-05
CGA:  15    -0.425958074616E+03   -0.43128E-05   -0.42998E-05  9180   0.413E-05 0.764E-06
  37 F= -.42595807E+03 E0= -.42595807E+03  d E =-.201583E-01  mag=    18.0000
       N       E                     dE             d eps       ncg     rms          ort
SDA:   1    -0.423723386521E+03    0.22347E+01    0.00000E+00  9180   0.591E+01 0.000E+00
CGA:   2    -0.425277002158E+03   -0.15536E+01   -0.15539E+01  9180   0.294E+01 0.294E-02
CGA:   3    -0.425785412738E+03   -0.50841E+00   -0.50860E+00  9180   0.693E+00 0.127E-02
CGA:   4    -0.425911243048E+03   -0.12583E+00   -0.12581E+00  9180   0.142E+00-0.351E-03
CGA:   5    -0.425937576079E+03   -0.26333E-01   -0.26324E-01  9180   0.353E-01-0.129E-03
CGA:   6    -0.425945288886E+03   -0.77128E-02   -0.77143E-02  9180   0.100E-01 0.987E-05
CGA:   7    -0.425947795200E+03   -0.25063E-02   -0.25055E-02  9180   0.360E-02-0.265E-04
CGA:   8    -0.425948887633E+03   -0.10924E-02   -0.10926E-02  9180   0.160E-02-0.795E-05
CGA:   9    -0.425949403714E+03   -0.51608E-03   -0.51601E-03  9180   0.656E-03 0.119E-05
CGA:  10    -0.425949618875E+03   -0.21516E-03   -0.21559E-03  9180   0.267E-03-0.107E-04
CGA:  11    -0.425949713648E+03   -0.94772E-04   -0.96393E-04  9180   0.130E-03-0.209E-04
CGA:  12    -0.425949765919E+03   -0.52271E-04   -0.58245E-04  9180   0.919E-04-0.311E-04
CGA:  13    -0.425949788315E+03   -0.22395E-04   -0.22267E-04  9180   0.341E-04 0.779E-05
CGA:  14    -0.425949799471E+03   -0.11157E-04   -0.11159E-04  9180   0.115E-04 0.161E-05
CGA:  15    -0.425949803648E+03   -0.41766E-05   -0.75400E-05  9180   0.151E-04-0.104E-04
  38 F= -.42594980E+03 E0= -.42594980E+03  d E =0.827097E-02  mag=    18.0000
       N       E                     dE             d eps       ncg     rms          ort
SDA:   1    -0.424563682733E+03    0.13861E+01    0.00000E+00  9180   0.372E+01 0.000E+00
CGA:   2    -0.425539612373E+03   -0.97593E+00   -0.97596E+00  9180   0.182E+01-0.788E-03
CGA:   3    -0.425856876839E+03   -0.31726E+00   -0.31723E+00  9180   0.435E+00-0.782E-03
CGA:   4    -0.425935829984E+03   -0.78953E-01   -0.78974E-01  9180   0.884E-01 0.118E-03
CGA:   5    -0.425952139541E+03   -0.16310E-01   -0.16343E-01  9180   0.218E-01 0.277E-03
CGA:   6    -0.425956930271E+03   -0.47907E-02   -0.47961E-02  9180   0.624E-02 0.693E-04
CGA:   7    -0.425958486286E+03   -0.15560E-02   -0.15572E-02  9180   0.224E-02 0.282E-04
CGA:   8    -0.425959152035E+03   -0.66575E-03   -0.66506E-03  9180   0.972E-03 0.691E-04
CGA:   9    -0.425959486308E+03   -0.33427E-03   -0.33506E-03  9180   0.434E-03-0.169E-04
CGA:  10    -0.425959629952E+03   -0.14364E-03   -0.14471E-03  9180   0.186E-03-0.213E-04
CGA:  11    -0.425959679666E+03   -0.49713E-04   -0.49943E-04  9180   0.663E-04 0.259E-04
CGA:  12    -0.425959705672E+03   -0.26006E-04   -0.25598E-04  9180   0.347E-04 0.838E-05
CGA:  13    -0.425959723174E+03   -0.17502E-04   -0.18678E-04  9180   0.269E-04-0.645E-05
CGA:  14    -0.425959728347E+03   -0.51731E-05   -0.54393E-05  9180   0.108E-04 0.488E-05
  39 F= -.42595973E+03 E0= -.42595973E+03  d E =-.992470E-02  mag=    18.0000
       N       E                     dE             d eps       ncg     rms          ort
SDA:   1    -0.425914603452E+03    0.45120E-01    0.00000E+00  9180   0.115E+00 0.000E+00
CGA:   2    -0.425947573446E+03   -0.32970E-01   -0.32968E-01  9180   0.525E-01-0.233E-03
CGA:   3    -0.425956515249E+03   -0.89418E-02   -0.89342E-02  9180   0.126E-01-0.858E-04
CGA:   4    -0.425958748170E+03   -0.22329E-02   -0.22385E-02  9180   0.243E-02 0.466E-04
CGA:   5    -0.425959206227E+03   -0.45806E-03   -0.45976E-03  9180   0.614E-03 0.173E-04
CGA:   6    -0.425959343838E+03   -0.13761E-03   -0.13723E-03  9180   0.176E-03-0.685E-05
CGA:   7    -0.425959383760E+03   -0.39922E-04   -0.40571E-04  9180   0.595E-04 0.153E-04
CGA:   8    -0.425959400110E+03   -0.16350E-04   -0.16591E-04  9180   0.245E-04 0.139E-04
CGA:   9    -0.425959411055E+03   -0.10945E-04   -0.10865E-04  9180   0.154E-04 0.917E-06
CGA:  10    -0.425959416762E+03   -0.57072E-05   -0.59634E-05  9180   0.900E-05-0.269E-05
  40 F= -.42595942E+03 E0= -.42595942E+03  d E =0.311585E-03  mag=    18.0000
       N       E                     dE             d eps       ncg     rms          ort
SDA:   1    -0.425864756491E+03    0.94655E-01    0.00000E+00  9180   0.247E+00 0.000E+00
CGA:   2    -0.425930002460E+03   -0.65246E-01   -0.65246E-01  9180   0.129E+00-0.636E-04
CGA:   3    -0.425952578973E+03   -0.22577E-01   -0.22578E-01  9180   0.286E-01-0.162E-04
CGA:   4    -0.425957623226E+03   -0.50443E-02   -0.50508E-02  9180   0.581E-02 0.607E-04
CGA:   5    -0.425958708076E+03   -0.10848E-02   -0.10893E-02  9180   0.145E-02 0.528E-04
CGA:   6    -0.425959029637E+03   -0.32156E-03   -0.32142E-03  9180   0.415E-03-0.356E-05
CGA:   7    -0.425959133031E+03   -0.10339E-03   -0.10345E-03  9180   0.154E-03 0.407E-05
CGA:   8    -0.425959181091E+03   -0.48060E-04   -0.48083E-04  9180   0.739E-04-0.532E-06
CGA:   9    -0.425959206432E+03   -0.25341E-04   -0.25534E-04  9180   0.355E-04-0.239E-05
CGA:  10    -0.425959216988E+03   -0.10556E-04   -0.10475E-04  9180   0.134E-04 0.220E-05
CGA:  11    -0.425959222698E+03   -0.57099E-05   -0.66952E-05  9180   0.116E-04-0.495E-05
  41 F= -.42595922E+03 E0= -.42595922E+03  d E =0.194064E-03  mag=    18.0000
       N       E                     dE             d eps       ncg     rms          ort
SDA:   1    -0.422487309111E+03    0.34719E+01    0.00000E+00  9180   0.895E+01 0.000E+00
CGA:   2    -0.424862774415E+03   -0.23755E+01   -0.23757E+01  9180   0.476E+01 0.603E-02
CGA:   3    -0.425699574514E+03   -0.83680E+00   -0.83683E+00  9180   0.104E+01 0.217E-02
CGA:   4    -0.425884088080E+03   -0.18451E+00   -0.18458E+00  9180   0.210E+00 0.621E-03
CGA:   5    -0.425923955994E+03   -0.39868E-01   -0.39935E-01  9180   0.545E-01 0.714E-03
CGA:   6    -0.425935759503E+03   -0.11804E-01   -0.11816E-01  9180   0.152E-01 0.229E-03
CGA:   7    -0.425939577525E+03   -0.38180E-02   -0.38177E-02  9180   0.562E-02-0.214E-04
CGA:   8    -0.425941245125E+03   -0.16676E-02   -0.16658E-02  9180   0.246E-02 0.566E-04
CGA:   9    -0.425942033122E+03   -0.78800E-03   -0.78413E-03  9180   0.104E-02 0.790E-04
CGA:  10    -0.425942378683E+03   -0.34556E-03   -0.34295E-03  9180   0.426E-03 0.502E-04
CGA:  11    -0.425942541736E+03   -0.16305E-03   -0.16433E-03  9180   0.219E-03-0.138E-04
CGA:  12    -0.425942630198E+03   -0.88462E-04   -0.93682E-04  9180   0.137E-03-0.318E-04
CGA:  13    -0.425942668995E+03   -0.38798E-04   -0.38346E-04  9180   0.497E-04 0.106E-04
CGA:  14    -0.425942689882E+03   -0.20886E-04   -0.23140E-04  9180   0.280E-04-0.156E-04
CGA:  15    -0.425942696478E+03   -0.65959E-05   -0.99393E-05  9180   0.204E-04-0.150E-04
  42 F= -.42594270E+03 E0= -.42594270E+03  d E =0.165262E-01  mag=    18.0000
       N       E                     dE             d eps       ncg     rms          ort
SDA:   1    -0.425128993398E+03    0.81370E+00    0.00000E+00  9180   0.210E+01 0.000E+00
CGA:   2    -0.425703714203E+03   -0.57472E+00   -0.57473E+00  9180   0.115E+01-0.592E-03
CGA:   3    -0.425897320343E+03   -0.19361E+00   -0.19368E+00  9180   0.238E+00 0.199E-03
CGA:   4    -0.425939916291E+03   -0.42596E-01   -0.42578E-01  9180   0.514E-01-0.235E-03
CGA:   5    -0.425949650895E+03   -0.97346E-02   -0.97234E-02  9180   0.130E-01-0.133E-03
CGA:   6    -0.425952461924E+03   -0.28110E-02   -0.28173E-02  9180   0.367E-02 0.906E-04
CGA:   7    -0.425953393184E+03   -0.93126E-03   -0.93198E-03  9180   0.134E-02 0.246E-04
CGA:   8    -0.425953808851E+03   -0.41567E-03   -0.41574E-03  9180   0.612E-03-0.301E-05
CGA:   9    -0.425954004952E+03   -0.19610E-03   -0.19574E-03  9180   0.255E-03 0.852E-05
CGA:  10    -0.425954093951E+03   -0.88999E-04   -0.90118E-04  9180   0.117E-03-0.169E-04
CGA:  11    -0.425954129337E+03   -0.35386E-04   -0.35250E-04  9180   0.478E-04 0.347E-05
CGA:  12    -0.425954146705E+03   -0.17368E-04   -0.17091E-04  9180   0.220E-04 0.455E-05
CGA:  13    -0.425954157027E+03   -0.10322E-04   -0.15687E-04  9180   0.323E-04-0.149E-04
CGA:  14    -0.425954162299E+03   -0.52720E-05   -0.61465E-05  9180   0.379E-05 0.741E-05
  43 F= -.42595416E+03 E0= -.42595416E+03  d E =-.114658E-01  mag=    18.0000
       N       E                     dE             d eps       ncg     rms          ort
SDA:   1    -0.425380382343E+03    0.57377E+00    0.00000E+00  9180   0.160E+01 0.000E+00
CGA:   2    -0.425748774473E+03   -0.36839E+00   -0.36853E+00  9180   0.834E+00 0.110E-02
CGA:   3    -0.425907746171E+03   -0.15897E+00   -0.15900E+00  9180   0.208E+00 0.903E-04
CGA:   4    -0.425944827453E+03   -0.37081E-01   -0.37036E-01  9180   0.428E-01-0.365E-03
CGA:   5    -0.425952902559E+03   -0.80751E-02   -0.80514E-02  9180   0.110E-01-0.242E-03
CGA:   6    -0.425955295742E+03   -0.23932E-02   -0.23905E-02  9180   0.319E-02-0.437E-04
CGA:   7    -0.425956053139E+03   -0.75740E-03   -0.75866E-03  9180   0.105E-02 0.280E-04
CGA:   8    -0.425956345092E+03   -0.29195E-03   -0.29219E-03  9180   0.402E-03 0.477E-04
CGA:   9    -0.425956485362E+03   -0.14027E-03   -0.14147E-03  9180   0.194E-03-0.214E-04
CGA:  10    -0.425956555059E+03   -0.69696E-04   -0.76760E-04  9180   0.129E-03-0.524E-04
CGA:  11    -0.425956576624E+03   -0.21565E-04   -0.22433E-04  9180   0.493E-04 0.167E-04
CGA:  12    -0.425956586936E+03   -0.10312E-04   -0.11478E-04  9180   0.209E-04 0.143E-04
CGA:  13    -0.425956595435E+03   -0.84994E-05   -0.84733E-05  9180   0.123E-04 0.808E-06
  44 F= -.42595660E+03 E0= -.42595660E+03  d E =-.243314E-02  mag=    18.0000
       N       E                     dE             d eps       ncg     rms          ort
SDA:   1    -0.425864986055E+03    0.91601E-01    0.00000E+00  9180   0.247E+00 0.000E+00
CGA:   2    -0.425926525756E+03   -0.61540E-01   -0.61551E-01  9180   0.134E+00 0.220E-03
CGA:   3    -0.425950692484E+03   -0.24167E-01   -0.24194E-01  9180   0.305E-01 0.240E-03
CGA:   4    -0.425956078285E+03   -0.53858E-02   -0.54020E-02  9180   0.637E-02 0.153E-03
CGA:   5    -0.425957271193E+03   -0.11929E-02   -0.12016E-02  9180   0.161E-02 0.991E-04
CGA:   6    -0.425957626577E+03   -0.35538E-03   -0.35722E-03  9180   0.470E-03 0.358E-04
CGA:   7    -0.425957744790E+03   -0.11821E-03   -0.11840E-03  9180   0.165E-03 0.916E-05
CGA:   8    -0.425957789266E+03   -0.44476E-04   -0.44495E-04  9180   0.607E-04 0.166E-04
CGA:   9    -0.425957804396E+03   -0.15130E-04   -0.15708E-04  9180   0.216E-04 0.190E-04
CGA:  10    -0.425957809843E+03   -0.54469E-05   -0.60220E-05  9180   0.965E-05 0.110E-04
  45 F= -.42595781E+03 E0= -.42595781E+03  d E =-.121441E-02  mag=    18.0000
       N       E                     dE             d eps       ncg     rms          ort
SDA:   1    -0.425925426133E+03    0.32378E-01    0.00000E+00  9180   0.797E-01 0.000E+00
CGA:   2    -0.425949752836E+03   -0.24327E-01   -0.24331E-01  9180   0.349E-01-0.140E-03
CGA:   3    -0.425955660716E+03   -0.59079E-02   -0.59022E-02  9180   0.824E-02-0.588E-04
CGA:   4    -0.425957158104E+03   -0.14974E-02   -0.14972E-02  9180   0.171E-02-0.428E-05
CGA:   5    -0.425957478848E+03   -0.32074E-03   -0.32363E-03  9180   0.422E-03 0.371E-04
CGA:   6    -0.425957571597E+03   -0.92749E-04   -0.93491E-04  9180   0.123E-03 0.160E-04
CGA:   7    -0.425957606372E+03   -0.34775E-04   -0.34782E-04  9180   0.528E-04-0.642E-06
CGA:   8    -0.425957625377E+03   -0.19005E-04   -0.21192E-04  9180   0.427E-04-0.154E-04
CGA:   9    -0.425957633868E+03   -0.84909E-05   -0.85307E-05  9180   0.169E-04-0.292E-05
  46 F= -.42595763E+03 E0= -.42595763E+03  d E =0.175975E-03  mag=    18.0000
       N       E                     dE             d eps       ncg     rms          ort
SDA:   1    -0.425913976947E+03    0.43648E-01    0.00000E+00  9180   0.110E+00 0.000E+00
CGA:   2    -0.425945327626E+03   -0.31351E-01   -0.31357E-01  9180   0.532E-01-0.370E-03
CGA:   3    -0.425954393981E+03   -0.90664E-02   -0.90982E-02  9180   0.120E-01 0.324E-03
CGA:   4    -0.425956525389E+03   -0.21314E-02   -0.21446E-02  9180   0.234E-02 0.153E-03
CGA:   5    -0.425956976123E+03   -0.45073E-03   -0.45234E-03  9180   0.608E-03 0.238E-04
CGA:   6    -0.425957110381E+03   -0.13426E-03   -0.13425E-03  9180   0.176E-03-0.448E-06
CGA:   7    -0.425957153263E+03   -0.42882E-04   -0.42938E-04  9180   0.623E-04 0.724E-05
CGA:   8    -0.425957173211E+03   -0.19947E-04   -0.19880E-04  9180   0.299E-04 0.121E-05
CGA:   9    -0.425957183366E+03   -0.10156E-04   -0.10089E-04  9180   0.131E-04 0.857E-06
CGA:  10    -0.425957186849E+03   -0.34824E-05   -0.34829E-05  9180   0.449E-05 0.277E-05
  47 F= -.42595719E+03 E0= -.42595719E+03  d E =0.447019E-03  mag=    18.0000
       N       E                     dE             d eps       ncg     rms          ort
SDA:   1    -0.425810169214E+03    0.14701E+00    0.00000E+00  9180   0.379E+00 0.000E+00
CGA:   2    -0.425912992102E+03   -0.10282E+00   -0.10282E+00  9180   0.198E+00-0.516E-03
CGA:   3    -0.425946615337E+03   -0.33623E-01   -0.33713E-01  9180   0.434E-01 0.893E-03
CGA:   4    -0.425954361154E+03   -0.77458E-02   -0.77777E-02  9180   0.878E-02 0.369E-03
CGA:   5    -0.425956040162E+03   -0.16790E-02   -0.16786E-02  9180   0.223E-02-0.713E-05
CGA:   6    -0.425956535435E+03   -0.49527E-03   -0.49421E-03  9180   0.646E-03-0.315E-04
CGA:   7    -0.425956685082E+03   -0.14965E-03   -0.15000E-03  9180   0.210E-03 0.182E-04
CGA:   8    -0.425956743168E+03   -0.58086E-04   -0.57752E-04  9180   0.797E-04 0.242E-04
CGA:   9    -0.425956770902E+03   -0.27734E-04   -0.27280E-04  9180   0.341E-04 0.862E-05
CGA:  10    -0.425956784388E+03   -0.13486E-04   -0.13741E-04  9180   0.181E-04-0.244E-05
CGA:  11    -0.425956790253E+03   -0.58645E-05   -0.60436E-05  9180   0.869E-05-0.185E-05
  48 F= -.42595679E+03 E0= -.42595679E+03  d E =0.396596E-03  mag=    18.0000
       N       E                     dE             d eps       ncg     rms          ort
SDA:   1    -0.425805236362E+03    0.15155E+00    0.00000E+00  9180   0.399E+00 0.000E+00
CGA:   2    -0.425907993579E+03   -0.10276E+00   -0.10276E+00  9180   0.214E+00 0.298E-03
CGA:   3    -0.425945565698E+03   -0.37572E-01   -0.37652E-01  9180   0.467E-01 0.805E-03
CGA:   4    -0.425954001892E+03   -0.84362E-02   -0.84359E-02  9180   0.983E-02-0.182E-05
CGA:   5    -0.425955850626E+03   -0.18487E-02   -0.18432E-02  9180   0.241E-02-0.762E-04
CGA:   6    -0.425956360366E+03   -0.50974E-03   -0.51144E-03  9180   0.673E-03 0.370E-04
CGA:   7    -0.425956520551E+03   -0.16019E-03   -0.16064E-03  9180   0.212E-03 0.210E-04
CGA:   8    -0.425956585045E+03   -0.64494E-04   -0.64366E-04  9180   0.922E-04 0.320E-05
CGA:   9    -0.425956613208E+03   -0.28164E-04   -0.27919E-04  9180   0.353E-04 0.599E-05
CGA:  10    -0.425956626682E+03   -0.13473E-04   -0.14113E-04  9180   0.190E-04-0.554E-05
CGA:  11    -0.425956632001E+03   -0.53197E-05   -0.54131E-05  9180   0.804E-05-0.132E-05
  49 F= -.42595663E+03 E0= -.42595663E+03  d E =0.158251E-03  mag=    18.0000
       N       E                     dE             d eps       ncg     rms          ort
SDA:   1    -0.425923245033E+03    0.33382E-01    0.00000E+00  9180   0.937E-01 0.000E+00
CGA:   2    -0.425945663047E+03   -0.22418E-01   -0.22430E-01  9180   0.476E-01 0.355E-03
CGA:   3    -0.425954503452E+03   -0.88404E-02   -0.88232E-02  9180   0.118E-01-0.206E-03
CGA:   4    -0.425956695670E+03   -0.21922E-02   -0.21836E-02  9180   0.260E-02-0.111E-03
CGA:   5    -0.425957158508E+03   -0.46284E-03   -0.46831E-03  9180   0.624E-03 0.693E-04
CGA:   6    -0.425957286347E+03   -0.12784E-03   -0.13083E-03  9180   0.167E-03 0.575E-04
CGA:   7    -0.425957334467E+03   -0.48120E-04   -0.48140E-04  9180   0.668E-04-0.193E-05
CGA:   8    -0.425957356031E+03   -0.21565E-04   -0.22940E-04  9180   0.393E-04-0.147E-04
CGA:   9    -0.425957362848E+03   -0.68170E-05   -0.69312E-05  9180   0.130E-04 0.351E-05
  50 F= -.42595736E+03 E0= -.42595736E+03  d E =-.730847E-03  mag=    18.0000
       N       E                     dE             d eps       ncg     rms          ort
SDA:   1    -0.425924613198E+03    0.32743E-01    0.00000E+00  9180   0.803E-01 0.000E+00
CGA:   2    -0.425949510726E+03   -0.24898E-01   -0.24914E-01  9180   0.336E-01-0.305E-03
CGA:   3    -0.425955180275E+03   -0.56695E-02   -0.56984E-02  9180   0.800E-02 0.334E-03
CGA:   4    -0.425956582189E+03   -0.14019E-02   -0.14072E-02  9180   0.150E-02 0.676E-04
CGA:   5    -0.425956886342E+03   -0.30415E-03   -0.30311E-03  9180   0.415E-03-0.227E-04
CGA:   6    -0.425956971115E+03   -0.84773E-04   -0.84806E-04  9180   0.108E-03 0.792E-06
CGA:   7    -0.425956996199E+03   -0.25084E-04   -0.25167E-04  9180   0.354E-04 0.925E-05
CGA:   8    -0.425957008085E+03   -0.11886E-04   -0.11827E-04  9180   0.175E-04 0.898E-06
CGA:   9    -0.425957013184E+03   -0.50992E-05   -0.49932E-05  9180   0.665E-05 0.318E-05
  51 F= -.42595701E+03 E0= -.42595701E+03  d E =0.349664E-03  mag=    18.0000
       N       E                     dE             d eps       ncg     rms          ort
SDA:   1    -0.425912972542E+03    0.44036E-01    0.00000E+00  9180   0.112E+00 0.000E+00
CGA:   2    -0.425944716003E+03   -0.31743E-01   -0.31739E-01  9180   0.572E-01 0.101E-03
CGA:   3    -0.425954125002E+03   -0.94090E-02   -0.94274E-02  9180   0.121E-01 0.203E-03
CGA:   4    -0.425956331633E+03   -0.22066E-02   -0.22052E-02  9180   0.255E-02-0.252E-04
CGA:   5    -0.425956809563E+03   -0.47793E-03   -0.47591E-03  9180   0.628E-03-0.381E-04
CGA:   6    -0.425956947025E+03   -0.13746E-03   -0.13717E-03  9180   0.176E-03-0.180E-04
CGA:   7    -0.425956985637E+03   -0.38612E-04   -0.38725E-04  9180   0.530E-04 0.959E-05
CGA:   8    -0.425957003557E+03   -0.17920E-04   -0.18126E-04  9180   0.265E-04-0.237E-05
CGA:   9    -0.425957012631E+03   -0.90737E-05   -0.10559E-04  9180   0.186E-04-0.850E-05
  52 F= -.42595701E+03 E0= -.42595701E+03  d E =0.553424E-06  mag=    18.0000
       N       E                     dE             d eps       ncg     rms          ort
SDA:   1    -0.425758216923E+03    0.19879E+00    0.00000E+00  9180   0.492E+00 0.000E+00
CGA:   2    -0.425904339738E+03   -0.14612E+00   -0.14609E+00  9180   0.246E+00 0.484E-03
CGA:   3    -0.425944182129E+03   -0.39842E-01   -0.39907E-01  9180   0.508E-01 0.671E-03
CGA:   4    -0.425953427526E+03   -0.92454E-02   -0.92412E-02  9180   0.106E-01-0.726E-04
CGA:   5    -0.425955414665E+03   -0.19871E-02   -0.19867E-02  9180   0.262E-02-0.115E-04
CGA:   6    -0.425955974679E+03   -0.56001E-03   -0.56105E-03  9180   0.695E-03 0.424E-04
CGA:   7    -0.425956138396E+03   -0.16372E-03   -0.16396E-03  9180   0.225E-03 0.491E-04
CGA:   8    -0.425956210689E+03   -0.72293E-04   -0.71131E-04  9180   0.101E-03 0.197E-04
CGA:   9    -0.425956246246E+03   -0.35558E-04   -0.34905E-04  9180   0.448E-04 0.831E-05
CGA:  10    -0.425956256704E+03   -0.10458E-04   -0.10788E-04  9180   0.155E-04 0.156E-04
CGA:  11    -0.425956262628E+03   -0.59239E-05   -0.58056E-05  9180   0.790E-05 0.338E-05
CGA:  12    -0.425956267645E+03   -0.50170E-05    0.17828E-04  9180   0.422E-05 0.347E-05
  53 F= -.42595627E+03 E0= -.42595627E+03  d E =0.744986E-03  mag=    18.0000
       N       E                     dE             d eps       ncg     rms          ort
SDA:   1    -0.425886705822E+03    0.69557E-01    0.00000E+00  9180   0.172E+00 0.000E+00
CGA:   2    -0.425937682263E+03   -0.50976E-01   -0.50977E-01  9180   0.840E-01-0.152E-03
CGA:   3    -0.425951660502E+03   -0.13978E-01   -0.14024E-01  9180   0.177E-01 0.357E-03
CGA:   4    -0.425954865422E+03   -0.32049E-02   -0.32058E-02  9180   0.370E-02 0.489E-05
CGA:   5    -0.425955576724E+03   -0.71130E-03   -0.71094E-03  9180   0.954E-03-0.501E-05
CGA:   6    -0.425955773772E+03   -0.19705E-03   -0.19834E-03  9180   0.256E-03 0.197E-04
CGA:   7    -0.425955835776E+03   -0.62004E-04   -0.62392E-04  9180   0.851E-04 0.124E-04
CGA:   8    -0.425955862570E+03   -0.26794E-04   -0.26700E-04  9180   0.390E-04 0.298E-05
CGA:   9    -0.425955874713E+03   -0.12143E-04   -0.12035E-04  9180   0.152E-04 0.378E-05
CGA:  10    -0.425955879441E+03   -0.47282E-05   -0.47028E-05  9180   0.550E-05 0.242E-05
  54 F= -.42595588E+03 E0= -.42595588E+03  d E =0.388204E-03  mag=    18.0000
       N       E                     dE             d eps       ncg     rms          ort
SDA:   1    -0.425920034637E+03    0.35840E-01    0.00000E+00  9180   0.931E-01 0.000E+00
CGA:   2    -0.425944171277E+03   -0.24137E-01   -0.24139E-01  9180   0.497E-01 0.100E-03
CGA:   3    -0.425952875821E+03   -0.87045E-02   -0.86613E-02  9180   0.111E-01-0.421E-03
CGA:   4    -0.425954908973E+03   -0.20332E-02   -0.20251E-02  9180   0.258E-02-0.909E-04
CGA:   5    -0.425955386183E+03   -0.47721E-03   -0.47592E-03  9180   0.610E-03-0.160E-04
CGA:   6    -0.425955523616E+03   -0.13743E-03   -0.13664E-03  9180   0.195E-03-0.198E-04
CGA:   7    -0.425955570645E+03   -0.47028E-04   -0.46957E-04  9180   0.648E-04-0.491E-05
CGA:   8    -0.425955587114E+03   -0.16469E-04   -0.16479E-04  9180   0.216E-04 0.461E-05
CGA:   9    -0.425955594414E+03   -0.72999E-05   -0.73311E-05  9180   0.868E-05-0.577E-06
  55 F= -.42595559E+03 E0= -.42595559E+03  d E =0.285027E-03  mag=    18.0000
       N       E                     dE             d eps       ncg     rms          ort
SDA:   1    -0.425943354039E+03    0.12233E-01    0.00000E+00  9180   0.326E-01 0.000E+00
CGA:   2    -0.425952767692E+03   -0.94137E-02   -0.94134E-02  9180   0.150E-01 0.165E-03
CGA:   3    -0.425955277154E+03   -0.25095E-02   -0.25201E-02  9180   0.347E-02 0.840E-04
CGA:   4    -0.425955939394E+03   -0.66224E-03   -0.65963E-03  9180   0.720E-03-0.292E-04
CGA:   5    -0.425956077991E+03   -0.13860E-03   -0.13981E-03  9180   0.178E-03 0.149E-04
CGA:   6    -0.425956114070E+03   -0.36079E-04   -0.37098E-04  9180   0.490E-04 0.150E-04
CGA:   7    -0.425956127320E+03   -0.13250E-04   -0.13310E-04  9180   0.188E-04 0.320E-05
CGA:   8    -0.425956134108E+03   -0.67873E-05   -0.70348E-05  9180   0.111E-04-0.295E-05
  56 F= -.42595613E+03 E0= -.42595613E+03  d E =-.539694E-03  mag=    18.0000
       N       E                     dE             d eps       ncg     rms          ort
SDA:   1    -0.425952925942E+03    0.32014E-02    0.00000E+00  9180   0.794E-02 0.000E+00
CGA:   2    -0.425955261420E+03   -0.23355E-02   -0.23337E-02  9180   0.357E-02 0.806E-04
CGA:   3    -0.425955912753E+03   -0.65133E-03   -0.64181E-03  9180   0.873E-03-0.996E-04
CGA:   4    -0.425956065862E+03   -0.15311E-03   -0.15130E-03  9180   0.171E-03-0.201E-04
CGA:   5    -0.425956095493E+03   -0.29631E-04   -0.30215E-04  9180   0.415E-04 0.693E-05
CGA:   6    -0.425956105561E+03   -0.10069E-04   -0.10017E-04  9180   0.136E-04-0.185E-05
CGA:   7    -0.425956108122E+03   -0.25603E-05   -0.26730E-05  9180   0.431E-05 0.212E-05
  57 F= -.42595611E+03 E0= -.42595611E+03  d E =0.259860E-04  mag=    18.0000
       N       E                     dE             d eps       ncg     rms          ort
SDA:   1    -0.425449980454E+03    0.50613E+00    0.00000E+00  9180   0.126E+01 0.000E+00
CGA:   2    -0.425837981261E+03   -0.38800E+00   -0.38789E+00  9180   0.500E+00 0.187E-02
CGA:   3    -0.425926103463E+03   -0.88122E-01   -0.87968E-01  9180   0.129E+00-0.197E-02
CGA:   4    -0.425948219688E+03   -0.22116E-01   -0.22090E-01  9180   0.235E-01-0.354E-03
CGA:   5    -0.425952766730E+03   -0.45470E-02   -0.45563E-02  9180   0.620E-02 0.164E-03
CGA:   6    -0.425954083642E+03   -0.13169E-02   -0.13173E-02  9180   0.167E-02 0.751E-05
CGA:   7    -0.425954525422E+03   -0.44178E-03   -0.44190E-03  9180   0.670E-03-0.659E-05
CGA:   8    -0.425954730681E+03   -0.20526E-03   -0.20446E-03  9180   0.316E-03 0.130E-04
CGA:   9    -0.425954843655E+03   -0.11297E-03   -0.11380E-03  9180   0.146E-03-0.815E-05
CGA:  10    -0.425954886920E+03   -0.43265E-04   -0.42854E-04  9180   0.517E-04 0.867E-05
CGA:  11    -0.425954906075E+03   -0.19155E-04   -0.19186E-04  9180   0.253E-04-0.385E-06
CGA:  12    -0.425954917065E+03   -0.10991E-04   -0.15302E-04  9180   0.314E-04-0.125E-04
CGA:  13    -0.425954919250E+03   -0.21850E-05   -0.27298E-05  9180   0.196E-04 0.504E-05
  58 F= -.42595492E+03 E0= -.42595492E+03  d E =0.118887E-02  mag=    18.0000
       N       E                     dE             d eps       ncg     rms          ort
SDA:   1    -0.425845522873E+03    0.10939E+00    0.00000E+00  9180   0.290E+00 0.000E+00
CGA:   2    -0.425920785054E+03   -0.75262E-01   -0.75264E-01  9180   0.150E+00 0.195E-03
CGA:   3    -0.425947126879E+03   -0.26342E-01   -0.26429E-01  9180   0.338E-01 0.912E-03
CGA:   4    -0.425953241086E+03   -0.61142E-02   -0.61263E-02  9180   0.685E-02 0.141E-03
CGA:   5    -0.425954529322E+03   -0.12882E-02   -0.12927E-02  9180   0.171E-02 0.613E-04
CGA:   6    -0.425954885540E+03   -0.35622E-03   -0.36029E-03  9180   0.458E-03 0.888E-04
CGA:   7    -0.425955009183E+03   -0.12364E-03   -0.12366E-03  9180   0.173E-03-0.530E-05
CGA:   8    -0.425955069210E+03   -0.60027E-04   -0.68414E-04  9180   0.137E-03-0.569E-04
CGA:   9    -0.425955087802E+03   -0.18592E-04   -0.19209E-04  9180   0.526E-04 0.121E-04
CGA:  10    -0.425955094432E+03   -0.66296E-05   -0.86489E-05  9180   0.211E-04 0.190E-04
  59 F= -.42595509E+03 E0= -.42595509E+03  d E =-.175181E-03  mag=    18.0000
       N       E                     dE             d eps       ncg     rms          ort
SDA:   1    -0.425824166912E+03    0.13092E+00    0.00000E+00  9180   0.333E+00 0.000E+00
CGA:   2    -0.425926780642E+03   -0.10261E+00   -0.10267E+00  9180   0.123E+00-0.992E-03
CGA:   3    -0.425948789950E+03   -0.22009E-01   -0.22078E-01  9180   0.325E-01 0.953E-03
CGA:   4    -0.425954366489E+03   -0.55765E-02   -0.55866E-02  9180   0.604E-02 0.121E-03
CGA:   5    -0.425955618828E+03   -0.12523E-02   -0.12468E-02  9180   0.170E-02-0.147E-03
CGA:   6    -0.425955961347E+03   -0.34252E-03   -0.34194E-03  9180   0.456E-03-0.166E-04
CGA:   7    -0.425956069955E+03   -0.10861E-03   -0.10858E-03  9180   0.155E-03 0.373E-04
CGA:   8    -0.425956120115E+03   -0.50160E-04   -0.49534E-04  9180   0.727E-04 0.112E-04
CGA:   9    -0.425956147141E+03   -0.27026E-04   -0.27015E-04  9180   0.351E-04 0.775E-07
CGA:  10    -0.425956159715E+03   -0.12574E-04   -0.14819E-04  9180   0.256E-04-0.129E-04
CGA:  11    -0.425956164760E+03   -0.50453E-05   -0.70389E-05  9180   0.182E-04-0.111E-04
  60 F= -.42595616E+03 E0= -.42595616E+03  d E =-.107033E-02  mag=    18.0000
       N       E                     dE             d eps       ncg     rms          ort
SDA:   1    -0.425926931489E+03    0.29228E-01    0.00000E+00  9180   0.850E-01 0.000E+00
CGA:   2    -0.425945165382E+03   -0.18234E-01   -0.18252E-01  9180   0.417E-01 0.373E-03
CGA:   3    -0.425953512879E+03   -0.83475E-02   -0.83206E-02  9180   0.117E-01-0.464E-03
CGA:   4    -0.425955631267E+03   -0.21184E-02   -0.20999E-02  9180   0.246E-02-0.252E-03
CGA:   5    -0.425956083620E+03   -0.45235E-03   -0.44806E-03  9180   0.619E-03-0.663E-04
CGA:   6    -0.425956218458E+03   -0.13484E-03   -0.13426E-03  9180   0.182E-03-0.233E-04
CGA:   7    -0.425956258205E+03   -0.39747E-04   -0.39860E-04  9180   0.540E-04 0.602E-05
CGA:   8    -0.425956269686E+03   -0.11481E-04   -0.11933E-04  9180   0.173E-04 0.142E-04
CGA:   9    -0.425956275896E+03   -0.62107E-05   -0.60999E-05  9180   0.896E-05 0.314E-05
  61 F= -.42595628E+03 E0= -.42595628E+03  d E =-.111136E-03  mag=    18.0000
       N       E                     dE             d eps       ncg     rms          ort
SDA:   1    -0.425935797612E+03    0.20472E-01    0.00000E+00  9180   0.538E-01 0.000E+00
CGA:   2    -0.425950673991E+03   -0.14876E-01   -0.14876E-01  9180   0.259E-01 0.679E-04
CGA:   3    -0.425955152040E+03   -0.44780E-02   -0.44659E-02  9180   0.644E-02-0.129E-03
CGA:   4    -0.425956256890E+03   -0.11048E-02   -0.11078E-02  9180   0.125E-02 0.283E-04
CGA:   5    -0.425956474484E+03   -0.21759E-03   -0.22265E-03  9180   0.313E-03 0.582E-04
CGA:   6    -0.425956544084E+03   -0.69600E-04   -0.70344E-04  9180   0.858E-04 0.163E-04
CGA:   7    -0.425956571905E+03   -0.27821E-04   -0.28831E-04  9180   0.515E-04-0.164E-04
CGA:   8    -0.425956584969E+03   -0.13064E-04   -0.13664E-04  9180   0.280E-04-0.895E-05
CGA:   9    -0.425956591312E+03   -0.63433E-05   -0.63343E-05  9180   0.105E-04 0.940E-06
  62 F= -.42595659E+03 E0= -.42595659E+03  d E =-.315416E-03  mag=    18.0000
       N       E                     dE             d eps       ncg     rms          ort
SDA:   1    -0.425944975488E+03    0.11609E-01    0.00000E+00  9180   0.318E-01 0.000E+00
CGA:   2    -0.425952726579E+03   -0.77511E-02   -0.77467E-02  9180   0.180E-01-0.252E-03
CGA:   3    -0.425955854971E+03   -0.31284E-02   -0.31452E-02  9180   0.385E-02 0.193E-03
CGA:   4    -0.425956522118E+03   -0.66715E-03   -0.67882E-03  9180   0.807E-03 0.142E-03
CGA:   5    -0.425956678220E+03   -0.15610E-03   -0.15740E-03  9180   0.197E-03 0.200E-04
CGA:   6    -0.425956723757E+03   -0.45537E-04   -0.45456E-04  9180   0.601E-04-0.342E-05
CGA:   7    -0.425956737109E+03   -0.13352E-04   -0.13442E-04  9180   0.183E-04 0.447E-05
CGA:   8    -0.425956742187E+03   -0.50778E-05   -0.50501E-05  9180   0.682E-05 0.266E-05
  63 F= -.42595674E+03 E0= -.42595674E+03  d E =-.150875E-03  mag=    18.0000
       N       E                     dE             d eps       ncg     rms          ort
SDA:   1    -0.425952145115E+03    0.45920E-02    0.00000E+00  9180   0.134E-01 0.000E+00
[...]
  65 F= -.42595750E+03 E0= -.42595750E+03  d E =-.428176E-03  mag=    18.0000
       N       E                     dE             d eps       ncg     rms          ort
SDA:   1    -0.424975310636E+03    0.98218E+00    0.00000E+00  9180   0.286E+01 0.000E+00
CGA:   2    -0.425582373407E+03   -0.60706E+00   -0.60728E+00  9180   0.147E+01 0.286E-02
CGA:   3    -0.425867770149E+03   -0.28540E+00   -0.28540E+00  9180   0.396E+00-0.899E-03
CGA:   4    -0.425937060467E+03   -0.69290E-01   -0.69257E-01  9180   0.773E-01-0.606E-03
CGA:   5    -0.425951185013E+03   -0.14125E-01   -0.14134E-01  9180   0.192E-01 0.137E-03
CGA:   6    -0.425955413420E+03   -0.42284E-02   -0.42309E-02  9180   0.542E-02 0.135E-03
CGA:   7    -0.425956763840E+03   -0.13504E-02   -0.13505E-02  9180   0.189E-02-0.896E-05
CGA:   8    -0.425957332937E+03   -0.56910E-03   -0.56771E-03  9180   0.831E-03 0.209E-04
CGA:   9    -0.425957620124E+03   -0.28719E-03   -0.28840E-03  9180   0.407E-03-0.123E-04
CGA:  10    -0.425957757853E+03   -0.13773E-03   -0.13902E-03  9180   0.192E-03-0.131E-04
CGA:  11    -0.425957814929E+03   -0.57077E-04   -0.55963E-04  9180   0.724E-04 0.216E-04
CGA:  12    -0.425957844740E+03   -0.29811E-04   -0.29776E-04  9180   0.373E-04 0.218E-06
CGA:  13    -0.425957859116E+03   -0.14376E-04   -0.14339E-04  9180   0.177E-04 0.248E-06
CGA:  14    -0.425957864291E+03   -0.51749E-05   -0.50985E-05  9180   0.549E-05 0.348E-05
  66 F= -.42595786E+03 E0= -.42595786E+03  d E =-.369211E-03  mag=    18.0000
       N       E                     dE             d eps       ncg     rms          ort
SDA:   1    -0.425039869344E+03    0.91799E+00    0.00000E+00  9180   0.243E+01 0.000E+00
CGA:   2    -0.425639547012E+03   -0.59968E+00   -0.59973E+00  9180   0.141E+01-0.943E-04
CGA:   3    -0.425887597470E+03   -0.24805E+00   -0.24807E+00  9180   0.298E+00-0.256E-03
CGA:   4    -0.425939663150E+03   -0.52066E-01   -0.52091E-01  9180   0.630E-01 0.159E-03
CGA:   5    -0.425951461936E+03   -0.11799E-01   -0.11814E-01  9180   0.155E-01 0.162E-03
CGA:   6    -0.425954822457E+03   -0.33605E-02   -0.33614E-02  9180   0.431E-02 0.122E-04
CGA:   7    -0.425955895084E+03   -0.10726E-02   -0.10715E-02  9180   0.147E-02-0.759E-04
CGA:   8    -0.425956330162E+03   -0.43508E-03   -0.43631E-03  9180   0.615E-03-0.326E-04
CGA:   9    -0.425956525160E+03   -0.19500E-03   -0.19620E-03  9180   0.255E-03-0.199E-04
CGA:  10    -0.425956609381E+03   -0.84221E-04   -0.86173E-04  9180   0.113E-03-0.244E-04
CGA:  11    -0.425956642980E+03   -0.33599E-04   -0.33717E-04  9180   0.461E-04-0.215E-05
CGA:  12    -0.425956661871E+03   -0.18891E-04   -0.20710E-04  9180   0.314E-04-0.997E-05
CGA:  13    -0.425956671791E+03   -0.99200E-05   -0.10353E-04  9180   0.153E-04-0.321E-05
  67 F= -.42595667E+03 E0= -.42595667E+03  d E =0.119250E-02  mag=    18.0000
       N       E                     dE             d eps       ncg     rms          ort
SDA:   1    -0.423993109839E+03    0.19636E+01    0.00000E+00  9180   0.580E+01 0.000E+00
CGA:   2    -0.425195530116E+03   -0.12024E+01   -0.12039E+01  9180   0.293E+01 0.437E-02
CGA:   3    -0.425768249824E+03   -0.57272E+00   -0.57314E+00  9180   0.804E+00 0.319E-02
CGA:   4    -0.425910188661E+03   -0.14194E+00   -0.14195E+00  9180   0.160E+00 0.279E-05
CGA:   5    -0.425939524664E+03   -0.29336E-01   -0.29353E-01  9180   0.398E-01 0.731E-04
CGA:   6    -0.425948332827E+03   -0.88082E-02   -0.88163E-02  9180   0.115E-01 0.126E-03
CGA:   7    -0.425951184607E+03   -0.28518E-02   -0.28521E-02  9180   0.394E-02 0.653E-05
CGA:   8    -0.425952368069E+03   -0.11835E-02   -0.11830E-02  9180   0.171E-02 0.156E-04
CGA:   9    -0.425952936429E+03   -0.56836E-03   -0.56825E-03  9180   0.780E-03 0.103E-05
CGA:  10    -0.425953200279E+03   -0.26385E-03   -0.26418E-03  9180   0.357E-03-0.607E-05
CGA:  11    -0.425953320789E+03   -0.12051E-03   -0.11989E-03  9180   0.153E-03 0.106E-04
CGA:  12    -0.425953382597E+03   -0.61808E-04   -0.62872E-04  9180   0.795E-04-0.935E-05
CGA:  13    -0.425953409124E+03   -0.26528E-04   -0.26142E-04  9180   0.302E-04 0.630E-05
CGA:  14    -0.425953420111E+03   -0.10986E-04   -0.10892E-04  9180   0.981E-05 0.226E-05
CGA:  15    -0.425953424017E+03   -0.39066E-05   -0.39487E-05  9180   0.333E-05-0.534E-06
  68 F= -.42595342E+03 E0= -.42595342E+03  d E =0.324777E-02  mag=    18.0000
       N       E                     dE             d eps       ncg     rms          ort
SDA:   1    -0.423320639596E+03    0.26328E+01    0.00000E+00  9180   0.737E+01 0.000E+00
CGA:   2    -0.424915624116E+03   -0.15950E+01   -0.15972E+01  9180   0.414E+01 0.825E-02
CGA:   3    -0.425708763852E+03   -0.79314E+00   -0.79398E+00  9180   0.986E+00 0.509E-02
CGA:   4    -0.425879315707E+03   -0.17055E+00   -0.17039E+00  9180   0.206E+00-0.105E-02
CGA:   5    -0.425918194290E+03   -0.38879E-01   -0.38857E-01  9180   0.518E-01-0.336E-03
CGA:   6    -0.425929355310E+03   -0.11161E-01   -0.11190E-01  9180   0.147E-01 0.456E-03
CGA:   7    -0.425932926354E+03   -0.35710E-02   -0.35803E-02  9180   0.469E-02 0.286E-03
CGA:   8    -0.425934300991E+03   -0.13746E-02   -0.13730E-02  9180   0.184E-02 0.986E-04
CGA:   9    -0.425934895593E+03   -0.59460E-03   -0.59402E-03  9180   0.756E-03 0.124E-04
CGA:  10    -0.425935136519E+03   -0.24093E-03   -0.24040E-03  9180   0.308E-03 0.122E-04
CGA:  11    -0.425935229178E+03   -0.92659E-04   -0.91949E-04  9180   0.117E-03 0.415E-04
CGA:  12    -0.425935274011E+03   -0.44832E-04   -0.43855E-04  9180   0.574E-04 0.178E-04
CGA:  13    -0.425935299677E+03   -0.25667E-04   -0.25125E-04  9180   0.321E-04 0.527E-05
CGA:  14    -0.425935311392E+03   -0.11715E-04   -0.11474E-04  9180   0.121E-04 0.559E-05
CGA:  15    -0.425935316267E+03   -0.48750E-05   -0.48379E-05  9180   0.430E-05 0.659E-06
  69 F= -.42593532E+03 E0= -.42593532E+03  d E =0.181078E-01  mag=    18.0000
       N       E                     dE             d eps       ncg     rms          ort
SDA:   1    -0.423478507125E+03    0.24568E+01    0.00000E+00  9180   0.722E+01 0.000E+00
CGA:   2    -0.425006273637E+03   -0.15278E+01   -0.15295E+01  9180   0.371E+01 0.522E-02
CGA:   3    -0.425724059070E+03   -0.71779E+00   -0.71802E+00  9180   0.992E+00 0.101E-02
CGA:   4    -0.425899606609E+03   -0.17555E+00   -0.17554E+00  9180   0.203E+00-0.199E-03
CGA:   5    -0.425937031058E+03   -0.37424E-01   -0.37465E-01  9180   0.504E-01 0.293E-03
CGA:   6    -0.425948237744E+03   -0.11207E-01   -0.11210E-01  9180   0.148E-01 0.464E-04
CGA:   7    -0.425951939299E+03   -0.37016E-02   -0.36997E-02  9180   0.516E-02-0.975E-04
CGA:   8    -0.425953442802E+03   -0.15035E-02   -0.15021E-02  9180   0.211E-02 0.562E-04
CGA:   9    -0.425954148723E+03   -0.70592E-03   -0.70770E-03  9180   0.952E-03-0.300E-04
CGA:  10    -0.425954468894E+03   -0.32017E-03   -0.32310E-03  9180   0.443E-03-0.424E-04
CGA:  11    -0.425954606843E+03   -0.13795E-03   -0.13685E-03  9180   0.180E-03 0.236E-04
CGA:  12    -0.425954682962E+03   -0.76119E-04   -0.78534E-04  9180   0.105E-03-0.183E-04
CGA:  13    -0.425954715298E+03   -0.32336E-04   -0.31809E-04  9180   0.416E-04 0.103E-04
CGA:  14    -0.425954729930E+03   -0.14632E-04   -0.14528E-04  9180   0.139E-04 0.353E-05
CGA:  15    -0.425954652054E+03    0.77876E-04   -0.41978E-04  9180   0.305E-03-0.668E-04
CGA:  16    -0.425954722784E+03   -0.70730E-04   -0.78577E-04  9180   0.304E-04 0.288E-04
CGA:  17    -0.425954737643E+03   -0.14859E-04   -0.29668E-04  9180   0.684E-04-0.394E-04
CGA:  18    -0.425954734952E+03    0.26907E-05   -0.10431E-04  9180   0.194E-04 0.343E-04
  70 F= -.42595473E+03 E0= -.42595473E+03  d E =-.194187E-01  mag=    18.0000
       N       E                     dE             d eps       ncg     rms          ort
SDA:   1    -0.421077545806E+03    0.48772E+01    0.00000E+00  9180   0.140E+02 0.000E+00
CGA:   2    -0.424043806063E+03   -0.29663E+01   -0.29810E+01  9180   0.748E+01 0.118E-01
CGA:   3    -0.425514027381E+03   -0.14702E+01   -0.14737E+01  9180   0.183E+01 0.508E-01
CGA:   4    -0.425834444368E+03   -0.32042E+00   -0.32047E+00  9180   0.376E+00 0.782E-02
CGA:   5    -0.425905198446E+03   -0.70754E-01   -0.70962E-01  9180   0.949E-01 0.459E-03
CGA:   6    -0.425926040118E+03   -0.20842E-01   -0.20899E-01  9180   0.273E-01 0.196E-03
CGA:   7    -0.425932808304E+03   -0.67682E-02   -0.67630E-02  9180   0.910E-02-0.373E-04
CGA:   8    -0.425935449432E+03   -0.26411E-02   -0.26500E-02  9180   0.362E-02 0.614E-04
CGA:   9    -0.425936614427E+03   -0.11650E-02   -0.11674E-02  9180   0.151E-02 0.220E-04
CGA:  10    -0.425937114885E+03   -0.50046E-03   -0.49998E-03  9180   0.651E-03-0.673E-05
CGA:  11    -0.425937330308E+03   -0.21542E-03   -0.21676E-03  9180   0.277E-03 0.166E-04
CGA:  12    -0.425937450150E+03   -0.11984E-03   -0.12034E-03  9180   0.164E-03-0.319E-04
CGA:  13    -0.425937503014E+03   -0.52864E-04   -0.53112E-04  9180   0.680E-04 0.565E-05
CGA:  14    -0.425937529117E+03   -0.26103E-04   -0.25975E-04  9180   0.251E-04-0.354E-05
CGA:  15    -0.425937536906E+03   -0.77895E-05   -0.17968E-04  9180   0.490E-04-0.290E-04
CGA:  16    -0.425937544914E+03   -0.80078E-05   -0.10367E-04  9180   0.572E-05 0.112E-04
CGA:  17    -0.425937515068E+03    0.29846E-04   -0.12816E-04  9180   0.131E-03-0.302E-04
CGA:  18    -0.425937538424E+03   -0.23356E-04   -0.31455E-04  9180   0.148E-04 0.335E-04
CGA:  19    -0.425937556435E+03   -0.18011E-04    0.13177E-03  9180   0.686E-05-0.875E-05
CGA:  20    -0.425937554554E+03    0.18815E-05   -0.38808E-06  9180   0.426E-05 0.549E-05
  71 F= -.42593755E+03 E0= -.42593755E+03  d E =0.171804E-01  mag=    18.0000
       N       E                     dE             d eps       ncg     rms          ort
SDA:   1    -0.424344053206E+03    0.15935E+01    0.00000E+00  9180   0.454E+01 0.000E+00
CGA:   2    -0.425346871290E+03   -0.10028E+01   -0.10047E+01  9180   0.248E+01 0.761E-04
CGA:   3    -0.425810648296E+03   -0.46378E+00   -0.46411E+00  9180   0.608E+00 0.309E-02
CGA:   4    -0.425919389248E+03   -0.10874E+00   -0.10848E+00  9180   0.129E+00-0.758E-03
CGA:   5    -0.425943413101E+03   -0.24024E-01   -0.23977E-01  9180   0.319E-01-0.294E-03
CGA:   6    -0.425950384753E+03   -0.69717E-02   -0.69980E-02  9180   0.933E-02 0.146E-03
CGA:   7    -0.425952689833E+03   -0.23051E-02   -0.23169E-02  9180   0.314E-02 0.868E-04
CGA:   8    -0.425953638440E+03   -0.94861E-03   -0.94694E-03  9180   0.132E-02-0.243E-04
CGA:   9    -0.425954074834E+03   -0.43639E-03   -0.43465E-03  9180   0.577E-03-0.496E-04
CGA:  10    -0.425954259009E+03   -0.18418E-03   -0.18336E-03  9180   0.248E-03-0.234E-04
CGA:  11    -0.425954330066E+03   -0.71056E-04   -0.72359E-04  9180   0.950E-04 0.216E-04
CGA:  12    -0.425954361790E+03   -0.31725E-04   -0.32541E-04  9180   0.426E-04 0.177E-04
CGA:  13    -0.425954379668E+03   -0.17878E-04   -0.17907E-04  9180   0.216E-04 0.744E-05
CGA:  14    -0.425954387401E+03   -0.77331E-05   -0.79844E-05  9180   0.807E-05 0.567E-05
  72 F= -.42595439E+03 E0= -.42595439E+03  d E =-.168328E-01  mag=    18.0000
       N       E                     dE             d eps       ncg     rms          ort
SDA:   1    -0.423938884318E+03    0.20155E+01    0.00000E+00  9180   0.573E+01 0.000E+00
CGA:   2    -0.425173559472E+03   -0.12347E+01   -0.12367E+01  9180   0.318E+01 0.171E-02
CGA:   3    -0.425778779270E+03   -0.60522E+00   -0.60592E+00  9180   0.766E+00 0.370E-02
CGA:   4    -0.425912512195E+03   -0.13373E+00   -0.13369E+00  9180   0.162E+00 0.539E-04
CGA:   5    -0.425942786908E+03   -0.30275E-01   -0.30301E-01  9180   0.398E-01 0.962E-04
CGA:   6    -0.425951406209E+03   -0.86193E-02   -0.86408E-02  9180   0.114E-01 0.187E-03
CGA:   7    -0.425954218628E+03   -0.28124E-02   -0.28168E-02  9180   0.377E-02 0.585E-04
CGA:   8    -0.425955304654E+03   -0.10860E-02   -0.10881E-02  9180   0.148E-02 0.800E-04
CGA:   9    -0.425955782071E+03   -0.47742E-03   -0.47724E-03  9180   0.614E-03 0.335E-04
CGA:  10    -0.425955985170E+03   -0.20310E-03   -0.20299E-03  9180   0.263E-03 0.909E-05
CGA:  11    -0.425956070653E+03   -0.85483E-04   -0.85340E-04  9180   0.108E-03 0.176E-04
CGA:  12    -0.425956117555E+03   -0.46902E-04   -0.47788E-04  9180   0.642E-04-0.891E-05
CGA:  13    -0.425956137343E+03   -0.19788E-04   -0.19667E-04  9180   0.268E-04 0.755E-05
CGA:  14    -0.425956147167E+03   -0.98237E-05   -0.98039E-05  9180   0.961E-05 0.214E-05
CGA:  15    -0.425956141528E+03    0.56385E-05   -0.11416E-04  9180   0.554E-04-0.218E-04
CGA:  16    -0.425956151201E+03   -0.96731E-05   -0.11629E-04  9180   0.653E-05 0.132E-04
  73 F= -.42595615E+03 E0= -.42595615E+03  d E =-.176380E-02  mag=    18.0000
       N       E                     dE             d eps       ncg     rms          ort
SDA:   1    -0.425621886966E+03    0.33425E+00    0.00000E+00  9180   0.911E+00 0.000E+00
CGA:   2    -0.425838545776E+03   -0.21666E+00   -0.21672E+00  9180   0.499E+00-0.426E-04
CGA:   3    -0.425927938262E+03   -0.89392E-01   -0.89426E-01  9180   0.120E+00 0.357E-04
CGA:   4    -0.425949656720E+03   -0.21718E-01   -0.21750E-01  9180   0.263E-01 0.157E-03
CGA:   5    -0.425954569043E+03   -0.49123E-02   -0.49220E-02  9180   0.656E-02 0.539E-04
CGA:   6    -0.425956040284E+03   -0.14712E-02   -0.14668E-02  9180   0.201E-02-0.430E-04
CGA:   7    -0.425956550664E+03   -0.51038E-03   -0.50976E-03  9180   0.717E-03-0.965E-05
CGA:   8    -0.425956747382E+03   -0.19672E-03   -0.19832E-03  9180   0.265E-03 0.364E-04
CGA:   9    -0.425956838295E+03   -0.90913E-04   -0.90915E-04  9180   0.113E-03-0.379E-06
CGA:  10    -0.425956876923E+03   -0.38628E-04   -0.38806E-04  9180   0.530E-04-0.754E-05
CGA:  11    -0.425956891607E+03   -0.14684E-04   -0.14796E-04  9180   0.206E-04 0.503E-05
CGA:  12    -0.425956899678E+03   -0.80707E-05   -0.80314E-05  9180   0.108E-04 0.105E-05
  74 F= -.42595690E+03 E0= -.42595690E+03  d E =-.748477E-03  mag=    18.0000
       N       E                     dE             d eps       ncg     rms          ort
SDA:   1    -0.425754209816E+03    0.20268E+00    0.00000E+00  9180   0.551E+00 0.000E+00
CGA:   2    -0.425892627150E+03   -0.13842E+00   -0.13841E+00  9180   0.312E+00-0.272E-03
CGA:   3    -0.425946281593E+03   -0.53654E-01   -0.53644E-01  9180   0.680E-01-0.175E-03
CGA:   4    -0.425958729695E+03   -0.12448E-01   -0.12449E-01  9180   0.160E-01-0.124E-04
CGA:   5    -0.425961726105E+03   -0.29964E-02   -0.29979E-02  9180   0.385E-02 0.779E-05
CGA:   6    -0.425962565248E+03   -0.83914E-03   -0.84128E-03  9180   0.116E-02 0.252E-04
CGA:   7    -0.425962869965E+03   -0.30472E-03   -0.30399E-03  9180   0.419E-03-0.210E-04
CGA:   8    -0.425963001296E+03   -0.13133E-03   -0.13271E-03  9180   0.195E-03-0.475E-04
CGA:   9    -0.425963054261E+03   -0.52965E-04   -0.53098E-04  9180   0.684E-04-0.108E-04
CGA:  10    -0.425963074638E+03   -0.20376E-04   -0.20472E-04  9180   0.254E-04-0.449E-05
CGA:  11    -0.425963082765E+03   -0.81276E-05   -0.82113E-05  9180   0.115E-04-0.173E-05
  75 F= -.42596308E+03 E0= -.42596308E+03  d E =-.618309E-02  mag=    18.0000
       N       E                     dE             d eps       ncg     rms          ort
SDA:   1    -0.425900679936E+03    0.62395E-01    0.00000E+00  9180   0.185E+00 0.000E+00
CGA:   2    -0.425938654434E+03   -0.37974E-01   -0.37992E-01  9180   0.942E-01 0.645E-04
CGA:   3    -0.425956954610E+03   -0.18300E-01   -0.18341E-01  9180   0.257E-01 0.335E-03
CGA:   4    -0.425961488079E+03   -0.45335E-02   -0.45394E-02  9180   0.512E-02 0.403E-04
CGA:   5    -0.425962437125E+03   -0.94905E-03   -0.94779E-03  9180   0.127E-02-0.141E-04
CGA:   6    -0.425962715816E+03   -0.27869E-03   -0.27926E-03  9180   0.362E-03 0.843E-05
CGA:   7    -0.425962799747E+03   -0.83932E-04   -0.84894E-04  9180   0.115E-03 0.200E-04
CGA:   8    -0.425962831821E+03   -0.32074E-04   -0.32270E-04  9180   0.443E-04 0.162E-04
CGA:   9    -0.425962846327E+03   -0.14506E-04   -0.14429E-04  9180   0.200E-04 0.938E-05
CGA:  10    -0.425962854053E+03   -0.77259E-05   -0.76032E-05  9180   0.995E-05 0.339E-05
  76 F= -.42596285E+03 E0= -.42596285E+03  d E =0.228712E-03  mag=    18.0000
       N       E                     dE             d eps       ncg     rms          ort
SDA:   1    -0.425926483380E+03    0.36363E-01    0.00000E+00  9180   0.106E+00 0.000E+00
CGA:   2    -0.425949293055E+03   -0.22810E-01   -0.22804E-01  9180   0.527E-01-0.110E-03
CGA:   3    -0.425959357637E+03   -0.10065E-01   -0.10132E-01  9180   0.134E-01 0.741E-03
CGA:   4    -0.425961787940E+03   -0.24303E-02   -0.24476E-02  9180   0.278E-02 0.176E-03
CGA:   5    -0.425962341545E+03   -0.55361E-03   -0.54978E-03  9180   0.732E-03-0.508E-04
CGA:   6    -0.425962496473E+03   -0.15493E-03   -0.15563E-03  9180   0.209E-03 0.132E-04
CGA:   7    -0.425962538848E+03   -0.42374E-04   -0.44449E-04  9180   0.617E-04 0.367E-04
CGA:   8    -0.425962553575E+03   -0.14728E-04   -0.15739E-04  9180   0.247E-04 0.220E-04
CGA:   9    -0.425962560555E+03   -0.69796E-05   -0.74296E-05  9180   0.121E-04 0.117E-04
  77 F= -.42596256E+03 E0= -.42596256E+03  d E =0.293498E-03  mag=    18.0000
       N       E                     dE             d eps       ncg     rms          ort
SDA:   1    -0.425919711534E+03    0.42842E-01    0.00000E+00  9180   0.126E+00 0.000E+00
CGA:   2    -0.425946716867E+03   -0.27005E-01   -0.27007E-01  9180   0.668E-01-0.343E-04
CGA:   3    -0.425959524387E+03   -0.12808E-01   -0.12793E-01  9180   0.174E-01-0.244E-03
CGA:   4    -0.425962539479E+03   -0.30151E-02   -0.30184E-02  9180   0.348E-02 0.333E-04
CGA:   5    -0.425963166843E+03   -0.62736E-03   -0.63276E-03  9180   0.838E-03 0.772E-04
CGA:   6    -0.425963350734E+03   -0.18389E-03   -0.18479E-03  9180   0.232E-03 0.285E-04
CGA:   7    -0.425963416130E+03   -0.65396E-04   -0.66068E-04  9180   0.969E-04-0.228E-04
CGA:   8    -0.425963444598E+03   -0.28468E-04   -0.30828E-04  9180   0.556E-04-0.223E-04
CGA:   9    -0.425963456956E+03   -0.12357E-04   -0.12425E-04  9180   0.204E-04-0.179E-05
CGA:  10    -0.425963461233E+03   -0.42776E-05   -0.44237E-05  9180   0.713E-05 0.496E-05
  78 F= -.42596346E+03 E0= -.42596346E+03  d E =-.900678E-03  mag=    18.0000
       N       E                     dE             d eps       ncg     rms          ort
SDA:   1    -0.425942411685E+03    0.21045E-01    0.00000E+00  9180   0.654E-01 0.000E+00
CGA:   2    -0.425954521880E+03   -0.12110E-01   -0.12113E-01  9180   0.299E-01 0.303E-04
CGA:   3    -0.425961084172E+03   -0.65623E-02   -0.65447E-02  9180   0.926E-02-0.644E-03
CGA:   4    -0.425962722117E+03   -0.16379E-02   -0.16260E-02  9180   0.202E-02-0.185E-03
CGA:   5    -0.425963089013E+03   -0.36690E-03   -0.36816E-03  9180   0.481E-03 0.217E-04
CGA:   6    -0.425963193787E+03   -0.10477E-03   -0.10498E-03  9180   0.134E-03 0.885E-05
CGA:   7    -0.425963231286E+03   -0.37499E-04   -0.38319E-04  9180   0.558E-04-0.193E-04
CGA:   8    -0.425963244817E+03   -0.13530E-04   -0.13864E-04  9180   0.216E-04-0.670E-05
CGA:   9    -0.425963250921E+03   -0.61040E-05   -0.67906E-05  9180   0.107E-04-0.600E-05
  79 F= -.42596325E+03 E0= -.42596325E+03  d E =0.210313E-03  mag=    18.0000
       N       E                     dE             d eps       ncg     rms          ort
SDA:   1    -0.425955695743E+03    0.75491E-02    0.00000E+00  9180   0.245E-01 0.000E+00
CGA:   2    -0.425960382729E+03   -0.46870E-02   -0.46863E-02  9180   0.117E-01-0.140E-04
CGA:   3    -0.425962727439E+03   -0.23447E-02   -0.23666E-02  9180   0.319E-02 0.422E-03
CGA:   4    -0.425963301509E+03   -0.57407E-03   -0.58292E-03  9180   0.669E-03 0.118E-03
CGA:   5    -0.425963442879E+03   -0.14137E-03   -0.14064E-03  9180   0.188E-03-0.166E-04
CGA:   6    -0.425963481038E+03   -0.38159E-04   -0.38309E-04  9180   0.518E-04 0.409E-05
CGA:   7    -0.425963490444E+03   -0.94061E-05   -0.10049E-04  9180   0.139E-04 0.120E-04
  80 F= -.42596349E+03 E0= -.42596349E+03  d E =-.239523E-03  mag=    18.0000
