       N       E                     dE             d eps       ncg     rms          ort
DAV:   1     0.224381767403E+04    0.22438E+04   -0.13742E+05 10080   0.154E+03
DAV:   2    -0.249894609540E+03   -0.24937E+04   -0.23512E+04 10080   0.412E+02
DAV:   3    -0.481899874692E+03   -0.23201E+03   -0.22869E+03 10080   0.142E+02
DAV:   4    -0.488199479679E+03   -0.62996E+01   -0.62392E+01 10080   0.223E+01
DAV:   5    -0.488496491132E+03   -0.29701E+00   -0.29666E+00 10080   0.374E+00
SDA:   6    -0.243905193971E+03    0.24459E+03   -0.29666E+00 10080   0.102E+04 0.000E+00
CGA:   7    -0.290680052301E+03   -0.46775E+02   -0.96178E+02 10080   0.523E+03 0.172E+03
CGA:   8    -0.319078495593E+03   -0.28398E+02   -0.34522E+02 10080   0.575E+03-0.446E+02
CGA:   9    -0.315209301680E+03    0.38692E+01   -0.26352E+02 10080   0.495E+03-0.707E+00
CGA:  10    -0.326634972263E+03   -0.11426E+02   -0.21336E+02 10080   0.959E+03-0.180E+03
CGA:  11    -0.295292007133E+03    0.31343E+02   -0.24390E+02 10080   0.554E+03-0.253E+03
CGA:  12    -0.322152908979E+03   -0.26861E+02   -0.16155E+02 10080   0.594E+03-0.627E+03
CGA:  13    -0.313556659024E+03    0.85962E+01   -0.41242E+02 10080   0.696E+03-0.182E+03
CGA:  14    -0.355475504350E+03   -0.41919E+02   -0.23893E+02 10080   0.239E+03 0.114E+03
CGA:  15    -0.359053570426E+03   -0.35781E+01   -0.13598E+02 10080   0.291E+03-0.161E+03
CGA:  16    -0.346267894363E+03    0.12786E+02   -0.13300E+02 10080   0.129E+04-0.610E+03
CGA:  17    -0.343601756355E+03    0.26661E+01   -0.81933E+02 10080   0.284E+03-0.241E+03
CGA:  18    -0.366558264017E+03   -0.22957E+02   -0.97937E+01 10080   0.125E+03-0.603E+02
CGA:  19    -0.364637236726E+03    0.19210E+01   -0.21708E+01 10080   0.456E+03-0.488E+03
CGA:  20    -0.353898499515E+03    0.10739E+02   -0.22442E+02 10080   0.405E+03-0.245E+03
CGA:  21    -0.354917532815E+03   -0.10190E+01   -0.17133E+02 10080   0.497E+03-0.485E+03
CGA:  22    -0.351805724290E+03    0.31118E+01   -0.23190E+02 10080   0.396E+03-0.356E+03
CGA:  23    -0.358685371744E+03   -0.68796E+01   -0.15714E+02 10080   0.453E+03-0.545E+03
CGA:  24    -0.356088966966E+03    0.25964E+01   -0.19291E+02 10080   0.400E+03-0.363E+03
CGA:  25    -0.361326466540E+03   -0.52375E+01   -0.14799E+02 10080   0.419E+03-0.484E+03
CGA:  26    -0.358949977163E+03    0.23765E+01   -0.16956E+02 10080   0.412E+03-0.371E+03
CGA:  27    -0.363616681914E+03   -0.46667E+01   -0.14258E+02 10080   0.406E+03-0.472E+03
CGA:  28    -0.361702486710E+03    0.19142E+01   -0.15541E+02 10080   0.419E+03-0.381E+03
CGA:  29    -0.366024522899E+03   -0.43220E+01   -0.13624E+02 10080   0.365E+03-0.442E+03
CGA:  30    -0.365711120085E+03    0.31340E+00   -0.12721E+02 10080   0.357E+03-0.349E+03
CGA:  31    -0.370015096928E+03   -0.43040E+01   -0.10241E+02 10080   0.225E+03-0.314E+03
CGA:  32    -0.371413251065E+03   -0.13982E+01   -0.65183E+01 10080   0.161E+03-0.192E+03
CGA:  33    -0.373904311796E+03   -0.24911E+01   -0.33439E+01 10080   0.233E+02-0.613E+02
CGA:  34    -0.374322696217E+03   -0.41838E+00   -0.40832E+00 10080   0.142E+01 0.222E+00
CGA:  35    -0.374752491717E+03   -0.42980E+00   -0.36479E+00 10080   0.103E+02 0.404E+00
CGA:  36    -0.375419756968E+03   -0.66727E+00   -0.68230E+00 10080   0.224E+01-0.103E+01
CGA:  37    -0.375513145861E+03   -0.93389E-01   -0.94499E-01 10080   0.108E+01-0.602E-01
CGA:  38    -0.375667673663E+03   -0.15453E+00   -0.14518E+00 10080   0.183E+01 0.126E+00
CGA:  39    -0.375833212664E+03   -0.16554E+00   -0.16735E+00 10080   0.558E+00 0.149E+00
CGA:  40    -0.375896261206E+03   -0.63049E-01   -0.62782E-01 10080   0.673E+00-0.178E-01
CGA:  41    -0.376028390999E+03   -0.13213E+00   -0.13219E+00 10080   0.285E+00-0.980E-02
CGA:  42    -0.376051838053E+03   -0.23447E-01   -0.23205E-01 10080   0.146E+00-0.369E-01
CGA:  43    -0.376076590466E+03   -0.24752E-01   -0.43405E-02 10080   0.565E+00-0.993E-01
CGA:  44    -0.376106767046E+03   -0.30177E-01   -0.31511E-01 10080   0.645E-01-0.820E-02
CGA:  45    -0.376124016186E+03   -0.17249E-01   -0.15831E-01 10080   0.324E-01 0.162E-01
CGA:  46    -0.376130805656E+03   -0.67895E-02   -0.67763E-02 10080   0.458E-01 0.975E-02
CGA:  47    -0.376138058224E+03   -0.72526E-02   -0.77317E-02 10080   0.113E-01 0.134E-01
CGA:  48    -0.376140514945E+03   -0.24567E-02   -0.24347E-02 10080   0.774E-02 0.813E-02
CGA:  49    -0.376141193929E+03   -0.67898E-03   -0.77462E-03 10080   0.696E-02 0.151E-02
CGA:  50    -0.376142478175E+03   -0.12842E-02   -0.13031E-02 10080   0.320E-02 0.440E-02
CGA:  51    -0.376142900162E+03   -0.42199E-03   -0.44660E-03 10080   0.368E-02 0.116E-02
CGA:  52    -0.376143654876E+03   -0.75471E-03   -0.77159E-03 10080   0.262E-02 0.290E-02
CGA:  53    -0.376143903618E+03   -0.24874E-03   -0.30193E-03 10080   0.206E-02 0.120E-02
CGA:  54    -0.376144202254E+03   -0.29864E-03   -0.36589E-03 10080   0.184E-02 0.189E-02
CGA:  55    -0.376144649139E+03   -0.44689E-03   -0.40375E-03 10080   0.226E-02 0.677E-03
CGA:  56    -0.376145129634E+03   -0.48050E-03   -0.48374E-03 10080   0.311E-02 0.154E-02
CGA:  57    -0.376145308534E+03   -0.17890E-03   -0.22227E-03 10080   0.160E-02 0.501E-03
CGA:  58    -0.376145515914E+03   -0.20738E-03   -0.23478E-03 10080   0.139E-02 0.996E-03
CGA:  59    -0.376145795655E+03   -0.27974E-03   -0.27800E-03 10080   0.303E-02 0.371E-04
CGA:  60    -0.376146353068E+03   -0.55741E-03   -0.54270E-03 10080   0.368E-02 0.773E-03
CGA:  61    -0.376147409025E+03   -0.10560E-02   -0.93918E-03 10080   0.172E-02 0.248E-02
CGA:  62    -0.376147528593E+03   -0.11957E-03   -0.12220E-03 10080   0.577E-03 0.317E-04
CGA:  63    -0.376147787699E+03   -0.25911E-03   -0.25591E-03 10080   0.224E-02 0.943E-05
CGA:  64    -0.376147883234E+03   -0.95535E-04   -0.13776E-02 10080   0.360E-01-0.295E-02
CGA:  65    -0.376149957585E+03   -0.20744E-02   -0.19881E-02 10080   0.264E-02-0.368E-03
CGA:  66    -0.376150333908E+03   -0.37632E-03   -0.33860E-03 10080   0.124E-02-0.703E-03
CGA:  67    -0.376150410414E+03   -0.76506E-04   -0.67873E-04 10080   0.348E-03-0.805E-04
CGA:  68    -0.376150436427E+03   -0.26013E-04   -0.36097E-04 10080   0.244E-03 0.157E-03
CGA:  69    -0.376150456273E+03   -0.19847E-04   -0.29628E-04 10080   0.133E-03 0.111E-03
CGA:  70    -0.376150567022E+03   -0.11075E-03   -0.97662E-04 10080   0.867E-03 0.378E-04
CGA:  71    -0.376150816893E+03   -0.24987E-03   -0.30057E-03 10080   0.194E-02-0.563E-03
CGA:  72    -0.376151163780E+03   -0.34689E-03   -0.33291E-03 10080   0.256E-02-0.820E-03
CGA:  73    -0.376151336903E+03   -0.17312E-03   -0.12231E-03 10080   0.100E-02-0.483E-03
CGA:  74    -0.376151401053E+03   -0.64150E-04   -0.68275E-04 10080   0.890E-03 0.422E-04
CGA:  75    -0.376151465264E+03   -0.64211E-04   -0.80408E-04 10080   0.321E-03 0.179E-03
CGA:  76    -0.376151492390E+03   -0.27126E-04   -0.27376E-04 10080   0.155E-03 0.264E-05
CGA:  77    -0.376151554697E+03   -0.62307E-04    0.71122E-04 10080   0.241E-03 0.221E-04
CGA:  78    -0.376151649426E+03   -0.94729E-04    0.91349E-03 10080   0.326E-03-0.112E-03
CGA:  79    -0.376151739367E+03   -0.89941E-04    0.27823E-04 10080   0.554E-03-0.101E-03
CGA:  80    -0.376151038206E+03    0.70116E-03   -0.22827E-03 10080   0.116E-01-0.216E-02
CGA:  81    -0.376151747629E+03   -0.70942E-03   -0.71717E-03 10080   0.118E-02 0.574E-05
CGA:  82    -0.376152002629E+03   -0.25500E-03   -0.25128E-03 10080   0.130E-02 0.126E-03
CGA:  83    -0.376152150731E+03   -0.14810E-03   -0.15394E-03 10080   0.598E-03 0.779E-04
CGA:  84    -0.376152262204E+03   -0.11147E-03   -0.11233E-03 10080   0.179E-03 0.236E-03
CGA:  85    -0.376152314262E+03   -0.52058E-04   -0.50913E-04 10080   0.224E-03 0.488E-04
CGA:  86    -0.376152351497E+03   -0.37235E-04   -0.37391E-04 10080   0.103E-03 0.432E-05
CGA:  87    -0.376152365349E+03   -0.13853E-04   -0.15021E-04 10080   0.367E-04 0.320E-04
CGA:  88    -0.376152366826E+03   -0.14764E-05   -0.41068E-05 10080   0.174E-04 0.286E-04
   1 F= -.37615237E+03 E0= -.37614807E+03  d E =-.376152E+03  mag=     8.0000
       N       E                     dE             d eps       ncg     rms          ort
SDA:   1    -0.376168452801E+03   -0.16087E-01    0.00000E+00 10080   0.275E-02 0.000E+00
CGA:   2    -0.376168910416E+03   -0.45762E-03   -0.45787E-03 10080   0.259E-02 0.717E-04
CGA:   3    -0.376169122245E+03   -0.21183E-03   -0.22137E-03 10080   0.437E-03 0.115E-03
CGA:   4    -0.376169243435E+03   -0.12119E-03   -0.16382E-03 10080   0.636E-03-0.221E-03
CGA:   5    -0.376169280848E+03   -0.37413E-04   -0.38717E-04 10080   0.126E-03 0.124E-04
CGA:   6    -0.376169300462E+03   -0.19615E-04   -0.19566E-04 10080   0.359E-04-0.308E-05
CGA:   7    -0.376169307389E+03   -0.69263E-05   -0.78757E-05 10080   0.956E-04-0.171E-04
CGA:   8    -0.376169308559E+03   -0.11701E-05   -0.13545E-04 10080   0.191E-03-0.126E-03
CGA:   9    -0.376169344714E+03   -0.36155E-04   -0.36890E-04 10080   0.197E-03-0.441E-04
CGA:  10    -0.376169363941E+03   -0.19227E-04   -0.14491E-04 10080   0.718E-04-0.584E-04
CGA:  11    -0.376169372573E+03   -0.86324E-05   -0.86301E-05 10080   0.358E-04-0.167E-05
   2 F= -.37616937E+03 E0= -.37616508E+03  d E =-.170057E-01  mag=     8.0000
       N       E                     dE             d eps       ncg     rms          ort
SDA:   1    -0.375493132954E+03    0.67623E+00    0.00000E+00 10080   0.397E+01 0.000E+00
CGA:   2    -0.376257648139E+03   -0.76452E+00   -0.76258E+00 10080   0.302E+01 0.538E-01
CGA:   3    -0.376534464498E+03   -0.27682E+00   -0.26216E+00 10080   0.656E+00 0.979E-01
CGA:   4    -0.376670032246E+03   -0.13557E+00   -0.13565E+00 10080   0.516E+00-0.213E-02
CGA:   5    -0.376707764197E+03   -0.37732E-01   -0.37151E-01 10080   0.856E-01 0.616E-02
CGA:   6    -0.376726618240E+03   -0.18854E-01   -0.18900E-01 10080   0.217E-01-0.835E-03
CGA:   7    -0.376731788524E+03   -0.51703E-02   -0.51722E-02 10080   0.153E-01-0.188E-04
CGA:   8    -0.376733477712E+03   -0.16892E-02   -0.16839E-02 10080   0.122E-01-0.739E-04
CGA:   9    -0.376735778098E+03   -0.23004E-02   -0.23138E-02 10080   0.545E-02-0.551E-03
CGA:  10    -0.376736618788E+03   -0.84069E-03   -0.83957E-03 10080   0.616E-02-0.171E-03
CGA:  11    -0.376737471734E+03   -0.85295E-03   -0.84748E-03 10080   0.167E-02-0.220E-03
CGA:  12    -0.376737823255E+03   -0.35152E-03   -0.35325E-03 10080   0.207E-02-0.328E-04
CGA:  13    -0.376738054729E+03   -0.23147E-03   -0.21897E-03 10080   0.614E-03-0.207E-03
CGA:  14    -0.376738197995E+03   -0.14327E-03   -0.16516E-03 10080   0.103E-02-0.166E-03
CGA:  15    -0.376738274697E+03   -0.76702E-04   -0.65034E-04 10080   0.280E-03-0.136E-03
CGA:  16    -0.376738338549E+03   -0.63852E-04   -0.77030E-04 10080   0.608E-03-0.908E-04
CGA:  17    -0.376738365846E+03   -0.27298E-04   -0.25782E-04 10080   0.172E-03-0.137E-04
CGA:  18    -0.376738380353E+03   -0.14506E-04   -0.12563E-04 10080   0.143E-03-0.207E-04
CGA:  19    -0.376737763002E+03    0.61735E-03   -0.33173E-03 10080   0.521E-02-0.840E-03
CGA:  20    -0.376738163914E+03   -0.40091E-03   -0.42486E-03 10080   0.175E-02 0.140E-03
CGA:  21    -0.376738377196E+03   -0.21328E-03   -0.23886E-03 10080   0.406E-03 0.163E-03
CGA:  22    -0.376738424137E+03   -0.46940E-04   -0.46712E-04 10080   0.249E-03-0.249E-06
CGA:  23    -0.376738495492E+03   -0.71355E-04   -0.85023E-04 10080   0.303E-03-0.203E-03
CGA:  24    -0.376738508092E+03   -0.12600E-04   -0.24109E-04 10080   0.111E-03 0.587E-04
CGA:  25    -0.376738513878E+03   -0.57856E-05   -0.13754E-04 10080   0.317E-04 0.487E-04
   3 F= -.37673851E+03 E0= -.37673433E+03  d E =-.569141E+00  mag=     8.0000
       N       E                     dE             d eps       ncg     rms          ort
SDA:   1    -0.371698427846E+03    0.50401E+01    0.00000E+00 10080   0.199E+02 0.000E+00
CGA:   2    -0.375018377028E+03   -0.33199E+01   -0.34450E+01 10080   0.169E+02 0.480E-01
CGA:   3    -0.376294545553E+03   -0.12762E+01   -0.88652E+00 10080   0.412E+01 0.728E+01
CGA:   4    -0.376692445282E+03   -0.39790E+00   -0.35280E+00 10080   0.288E+01 0.626E+00
CGA:   5    -0.377153060362E+03   -0.46062E+00   -0.45804E+00 10080   0.386E+01 0.850E-03
CGA:   6    -0.377341793773E+03   -0.18873E+00   -0.19677E+00 10080   0.924E+00-0.117E+00
CGA:   7    -0.377390140263E+03   -0.48346E-01   -0.47000E-01 10080   0.487E+00 0.245E-01
CGA:   8    -0.377440832489E+03   -0.50692E-01   -0.50820E-01 10080   0.538E+00-0.411E-03
CGA:   9    -0.377471526892E+03   -0.30694E-01   -0.31067E-01 10080   0.157E+00-0.574E-02
CGA:  10    -0.377482250487E+03   -0.10724E-01   -0.10824E-01 10080   0.150E+00-0.121E-02
CGA:  11    -0.377502721654E+03   -0.20471E-01   -0.20501E-01 10080   0.162E+00 0.972E-04
CGA:  12    -0.377511109173E+03   -0.83875E-02   -0.83733E-02 10080   0.437E-01-0.294E-03
CGA:  13    -0.377516294361E+03   -0.51852E-02   -0.51322E-02 10080   0.727E-01-0.953E-03
CGA:  14    -0.377522905766E+03   -0.66114E-02   -0.64728E-02 10080   0.283E-01-0.176E-02
CGA:  15    -0.377524541929E+03   -0.16362E-02   -0.16179E-02 10080   0.152E-01-0.312E-03
CGA:  16    -0.377526755481E+03   -0.22136E-02   -0.22187E-02 10080   0.233E-01 0.260E-03
CGA:  17    -0.377528466833E+03   -0.17114E-02   -0.17199E-02 10080   0.748E-02 0.642E-04
CGA:  18    -0.377529125180E+03   -0.65835E-03   -0.63659E-03 10080   0.673E-02-0.286E-03
CGA:  19    -0.377530146168E+03   -0.10210E-02   -0.10212E-02 10080   0.783E-02-0.740E-03
CGA:  20    -0.377530586805E+03   -0.44064E-03   -0.42409E-03 10080   0.277E-02-0.191E-03
CGA:  21    -0.377530839133E+03   -0.25233E-03   -0.25973E-03 10080   0.349E-02 0.127E-03
CGA:  22    -0.377531198999E+03   -0.35987E-03   -0.37113E-03 10080   0.178E-02 0.232E-03
CGA:  23    -0.377531331666E+03   -0.13267E-03   -0.13087E-03 10080   0.106E-02-0.266E-04
CGA:  24    -0.377531522911E+03   -0.19124E-03   -0.21946E-03 10080   0.174E-02-0.427E-03
CGA:  25    -0.377531589928E+03   -0.67017E-04   -0.48656E-04 10080   0.751E-03-0.186E-03
CGA:  26    -0.377531629891E+03   -0.39963E-04   -0.33687E-04 10080   0.511E-03-0.699E-04
CGA:  27    -0.377531670182E+03   -0.40290E-04   -0.40705E-04 10080   0.748E-03 0.782E-05
CGA:  28    -0.377531711131E+03   -0.40949E-04   -0.46638E-04 10080   0.402E-03 0.767E-04
CGA:  29    -0.377531728878E+03   -0.17748E-04   -0.21128E-04 10080   0.193E-03 0.403E-04
CGA:  30    -0.377531750816E+03   -0.21937E-04   -0.21175E-04 10080   0.321E-03-0.281E-04
CGA:  31    -0.377531781939E+03   -0.31123E-04   -0.26677E-04 10080   0.286E-03-0.159E-03
SDA:  32    -0.377531792854E+03   -0.10916E-04   -0.51271E-05 10080   0.152E-03-0.657E-04
CGA:  33    -0.377531813427E+03   -0.20572E-04   -0.20285E-04 10080   0.891E-04 0.217E-04
CGA:  34    -0.377531824754E+03   -0.11328E-04   -0.11395E-04 10080   0.344E-04 0.801E-05
CGA:  35    -0.377531838417E+03   -0.13663E-04    0.43422E-05 10080   0.163E-04 0.173E-04
CGA:  36    -0.377531845230E+03   -0.68124E-05    0.13184E-05 10080   0.111E-04 0.436E-05
   4 F= -.37753185E+03 E0= -.37752795E+03  d E =-.793331E+00  mag=     8.0000
       N       E                     dE             d eps       ncg     rms          ort
SDA:   1    -0.374141170012E+03    0.33907E+01    0.00000E+00 10080   0.117E+02 0.000E+00
CGA:   2    -0.376563566477E+03   -0.24224E+01   -0.24079E+01 10080   0.758E+01 0.153E+00
CGA:   3    -0.377238990878E+03   -0.67542E+00   -0.65008E+00 10080   0.210E+01 0.240E-01
CGA:   4    -0.377685225975E+03   -0.44624E+00   -0.44703E+00 10080   0.981E+00-0.100E-01
CGA:   5    -0.377758195265E+03   -0.72969E-01   -0.72698E-01 10080   0.291E+00 0.200E-03
CGA:   6    -0.377810753599E+03   -0.52558E-01   -0.52606E-01 10080   0.771E-01-0.843E-03
CGA:   7    -0.377821769563E+03   -0.11016E-01   -0.10990E-01 10080   0.692E-01 0.178E-02
CGA:   8    -0.377831441011E+03   -0.96714E-02   -0.96713E-02 10080   0.268E-01 0.118E-04
CGA:   9    -0.377838631316E+03   -0.71903E-02   -0.74110E-02 10080   0.291E-01-0.146E-02
CGA:  10    -0.377841407388E+03   -0.27761E-02   -0.27359E-02 10080   0.148E-01-0.122E-02
CGA:  11    -0.377844749248E+03   -0.33419E-02   -0.34914E-02 10080   0.101E-01-0.132E-02
CGA:  12    -0.377845653520E+03   -0.90427E-03   -0.89226E-03 10080   0.469E-02-0.278E-03
CGA:  13    -0.377846809135E+03   -0.11556E-02   -0.12273E-02 10080   0.173E-02-0.541E-03
CGA:  14    -0.377847086412E+03   -0.27728E-03   -0.27865E-03 10080   0.211E-02-0.362E-04
CGA:  15    -0.377847367581E+03   -0.28117E-03   -0.28014E-03 10080   0.635E-03-0.104E-03
CGA:  16    -0.377847490456E+03   -0.12287E-03   -0.14387E-03 10080   0.150E-02-0.226E-03
CGA:  17    -0.377847593127E+03   -0.10267E-03   -0.95511E-04 10080   0.409E-03-0.143E-03
CGA:  18    -0.377847620644E+03   -0.27517E-04   -0.26473E-04 10080   0.309E-03-0.145E-04
CGA:  19    -0.377847686048E+03   -0.65405E-04   -0.80288E-04 10080   0.455E-03-0.120E-03
CGA:  20    -0.377847704660E+03   -0.18612E-04   -0.13392E-04 10080   0.177E-03-0.525E-04
CGA:  21    -0.377847723782E+03   -0.19122E-04   -0.15624E-04 10080   0.320E-03-0.782E-04
CGA:  22    -0.377847747541E+03   -0.23759E-04   -0.28768E-04 10080   0.834E-03-0.274E-03
CGA:  23    -0.377847800552E+03   -0.53010E-04   -0.54244E-04 10080   0.113E-03 0.162E-04
CGA:  24    -0.377847811857E+03   -0.11305E-04   -0.12771E-04 10080   0.429E-04 0.508E-04
CGA:  25    -0.377847819279E+03   -0.74221E-05   -0.76855E-05 10080   0.359E-04 0.184E-04
CGA:  26    -0.377847835231E+03   -0.15951E-04    0.26447E-04 10080   0.219E-04 0.235E-04
CGA:  27    -0.377847845061E+03   -0.98302E-05    0.23790E-05 10080   0.169E-04 0.635E-05
   5 F= -.37784785E+03 E0= -.37784425E+03  d E =-.316000E+00  mag=     8.0000
       N       E                     dE             d eps       ncg     rms          ort
SDA:   1    -0.374442927780E+03    0.34049E+01    0.00000E+00 10080   0.100E+02 0.000E+00
CGA:   2    -0.376920357498E+03   -0.24774E+01   -0.24852E+01 10080   0.610E+01-0.724E-01
CGA:   3    -0.377467077646E+03   -0.54672E+00   -0.54964E+00 10080   0.231E+01 0.420E-01
CGA:   4    -0.377874540962E+03   -0.40746E+00   -0.40935E+00 10080   0.803E+00-0.384E-01
CGA:   5    -0.377936933511E+03   -0.62393E-01   -0.62562E-01 10080   0.267E+00-0.417E-02
CGA:   6    -0.377979928499E+03   -0.42995E-01   -0.43011E-01 10080   0.639E-01-0.516E-03
CGA:   7    -0.377990950902E+03   -0.11022E-01   -0.10995E-01 10080   0.552E-01 0.806E-03
CGA:   8    -0.377997197347E+03   -0.62464E-02   -0.62621E-02 10080   0.225E-01 0.430E-03
CGA:   9    -0.378002324220E+03   -0.51269E-02   -0.51962E-02 10080   0.244E-01-0.770E-03
CGA:  10    -0.378004770680E+03   -0.24465E-02   -0.24367E-02 10080   0.104E-01-0.178E-03
CGA:  11    -0.378007659670E+03   -0.28890E-02   -0.30599E-02 10080   0.892E-02-0.111E-02
CGA:  12    -0.378008387227E+03   -0.72756E-03   -0.73099E-03 10080   0.374E-02 0.631E-04
CGA:  13    -0.378009387989E+03   -0.10008E-02   -0.10474E-02 10080   0.155E-02-0.354E-03
CGA:  14    -0.378009592391E+03   -0.20440E-03   -0.20374E-03 10080   0.166E-02-0.783E-04
CGA:  15    -0.378009860015E+03   -0.26762E-03   -0.26853E-03 10080   0.497E-03-0.552E-04
CGA:  16    -0.378009944236E+03   -0.84222E-04   -0.84330E-04 10080   0.638E-03-0.546E-05
CGA:  17    -0.378010050581E+03   -0.10634E-03   -0.10791E-03 10080   0.248E-03-0.102E-03
CGA:  18    -0.378010082362E+03   -0.31781E-04   -0.31773E-04 10080   0.210E-03-0.220E-05
CGA:  19    -0.378010121320E+03   -0.38958E-04   -0.48440E-04 10080   0.346E-03-0.125E-03
CGA:  20    -0.378010136672E+03   -0.15352E-04   -0.19512E-04 10080   0.602E-04 0.407E-04
CGA:  21    -0.378010148387E+03   -0.11715E-04   -0.11468E-04 10080   0.508E-04 0.154E-04
CGA:  22    -0.378010158217E+03   -0.98300E-05   -0.16302E-04 10080   0.268E-03-0.645E-04
CGA:  23    -0.378010171134E+03   -0.12917E-04   -0.15012E-04 10080   0.294E-04 0.204E-04
CGA:  24    -0.378010094073E+03    0.77061E-04   -0.41772E-04 10080   0.104E-02-0.133E-03
CGA:  25    -0.378010180634E+03   -0.86561E-04   -0.90165E-04 10080   0.265E-03 0.187E-04
CGA:  26    -0.378010205375E+03   -0.24741E-04   -0.28553E-04 10080   0.169E-04 0.229E-04
CGA:  27    -0.378010209959E+03   -0.45843E-05   -0.39166E-05 10080   0.580E-04-0.128E-04
   6 F= -.37801021E+03 E0= -.37800679E+03  d E =-.162365E+00  mag=     8.0000
       N       E                     dE             d eps       ncg     rms          ort
SDA:   1    -0.371871240967E+03    0.61390E+01    0.00000E+00 10080   0.158E+02 0.000E+00
CGA:   2    -0.376364052028E+03   -0.44928E+01   -0.44956E+01 10080   0.114E+02-0.624E-01
CGA:   3    -0.377349276847E+03   -0.98522E+00   -0.87266E+00 10080   0.285E+01 0.156E+01
CGA:   4    -0.377929855663E+03   -0.58058E+00   -0.58014E+00 10080   0.126E+01 0.703E-03
CGA:   5    -0.378029383435E+03   -0.99528E-01   -0.98238E-01 10080   0.396E+00 0.132E-01
CGA:   6    -0.378096100674E+03   -0.66717E-01   -0.66624E-01 10080   0.103E+00-0.118E-02
CGA:   7    -0.378111899987E+03   -0.15799E-01   -0.15840E-01 10080   0.824E-01 0.473E-03
CGA:   8    -0.378120853217E+03   -0.89532E-02   -0.90106E-02 10080   0.244E-01 0.756E-04
CGA:   9    -0.378127695667E+03   -0.68424E-02   -0.68789E-02 10080   0.189E-01-0.598E-03
CGA:  10    -0.378129786955E+03   -0.20913E-02   -0.20462E-02 10080   0.156E-01-0.578E-03
CGA:  11    -0.378132945962E+03   -0.31590E-02   -0.31533E-02 10080   0.604E-02-0.580E-03
CGA:  12    -0.378133924293E+03   -0.97833E-03   -0.96853E-03 10080   0.686E-02-0.195E-03
CGA:  13    -0.378134855809E+03   -0.93152E-03   -0.91741E-03 10080   0.157E-02-0.190E-03
CGA:  14    -0.378135354705E+03   -0.49890E-03   -0.60024E-03 10080   0.346E-02-0.558E-03
CGA:  15    -0.378135492047E+03   -0.13734E-03   -0.12873E-03 10080   0.118E-02-0.508E-04
CGA:  16    -0.378135576232E+03   -0.84186E-04   -0.95042E-04 10080   0.138E-02 0.818E-04
CGA:  17    -0.378135749958E+03   -0.17373E-03   -0.18374E-03 10080   0.968E-03 0.121E-03
CGA:  18    -0.378135829311E+03   -0.79353E-04   -0.69445E-04 10080   0.417E-03-0.763E-04
CGA:  19    -0.378135863152E+03   -0.33842E-04   -0.14866E-03 10080   0.225E-02-0.602E-03
CGA:  20    -0.378135986497E+03   -0.12334E-03   -0.14627E-03 10080   0.288E-03 0.164E-03
CGA:  21    -0.378136011240E+03   -0.24744E-04   -0.35178E-04 10080   0.107E-03 0.125E-03
CGA:  22    -0.378136025933E+03   -0.14693E-04   -0.17271E-04 10080   0.671E-04 0.318E-04
CGA:  23    -0.378136039636E+03   -0.13703E-04   -0.38418E-04 10080   0.157E-03-0.983E-04
CGA:  24    -0.378136073002E+03   -0.33365E-04   -0.36413E-04 10080   0.447E-03-0.100E-03
CGA:  25    -0.378136093135E+03   -0.20134E-04   -0.24678E-04 10080   0.180E-04 0.314E-04
CGA:  26    -0.378136098122E+03   -0.49870E-05   -0.56303E-05 10080   0.775E-04-0.675E-05
CGA:  27    -0.378136107305E+03   -0.91831E-05   -0.10837E-04 10080   0.117E-03-0.745E-04
CGA:  28    -0.378136129593E+03   -0.22288E-04   -0.19736E-04 10080   0.218E-03-0.754E-04
CGA:  29    -0.378136142247E+03   -0.12654E-04   -0.13242E-04 10080   0.152E-04 0.453E-05
CGA:  30    -0.378136147057E+03   -0.48103E-05   -0.77074E-05 10080   0.839E-04-0.965E-05
   7 F= -.37813615E+03 E0= -.37813286E+03  d E =-.125937E+00  mag=     8.0000
       N       E                     dE             d eps       ncg     rms          ort
SDA:   1    -0.359282584552E+03    0.18854E+02    0.00000E+00 10080   0.472E+02 0.000E+00
CGA:   2    -0.372229581824E+03   -0.12947E+02   -0.12912E+02 10080   0.459E+02 0.282E+00
CGA:   3    -0.375058880008E+03   -0.28293E+01   -0.19238E+01 10080   0.132E+02 0.224E+02
CGA:   4    -0.376393759505E+03   -0.13349E+01   -0.12615E+01 10080   0.864E+01 0.989E+00
CGA:   5    -0.377429540866E+03   -0.10358E+01   -0.10336E+01 10080   0.739E+01 0.147E-01
CGA:   6    -0.377790915049E+03   -0.36137E+00   -0.30508E+00 10080   0.227E+01 0.132E+01
CGA:   7    -0.377935373178E+03   -0.14446E+00   -0.13256E+00 10080   0.138E+01 0.193E+00
CGA:   8    -0.378059951947E+03   -0.12458E+00   -0.12418E+00 10080   0.142E+01-0.908E-02
CGA:   9    -0.378126216533E+03   -0.66265E-01   -0.69229E-01 10080   0.433E+00-0.593E-01
CGA:  10    -0.378146557964E+03   -0.20341E-01   -0.21408E-01 10080   0.270E+00-0.160E-01
CGA:  11    -0.378173539119E+03   -0.26981E-01   -0.27175E-01 10080   0.331E+00 0.394E-02
CGA:  12    -0.378191653290E+03   -0.18114E-01   -0.18106E-01 10080   0.919E-01 0.753E-02
CGA:  13    -0.378198090141E+03   -0.64369E-02   -0.63670E-02 10080   0.909E-01 0.581E-04
CGA:  14    -0.378209506677E+03   -0.11417E-01   -0.11334E-01 10080   0.102E+00-0.424E-02
CGA:  15    -0.378214731438E+03   -0.52248E-02   -0.50675E-02 10080   0.323E-01-0.375E-02
CGA:  16    -0.378217102397E+03   -0.23710E-02   -0.23362E-02 10080   0.312E-01-0.731E-03
CGA:  17    -0.378220340744E+03   -0.32383E-02   -0.32479E-02 10080   0.306E-01 0.301E-03
CGA:  18    -0.378222160146E+03   -0.18194E-02   -0.18430E-02 10080   0.992E-02 0.254E-03
CGA:  19    -0.378223016521E+03   -0.85637E-03   -0.82892E-03 10080   0.107E-01-0.583E-03
CGA:  20    -0.378224464309E+03   -0.14478E-02   -0.15039E-02 10080   0.112E-01-0.265E-02
CGA:  21    -0.378224943201E+03   -0.47889E-03   -0.41475E-03 10080   0.490E-02-0.858E-03
CGA:  22    -0.378225332965E+03   -0.38976E-03   -0.38505E-03 10080   0.716E-02-0.133E-03
CGA:  23    -0.378225987733E+03   -0.65477E-03   -0.66261E-03 10080   0.547E-02 0.275E-03
CGA:  24    -0.378226269778E+03   -0.28205E-03   -0.28802E-03 10080   0.209E-02 0.753E-04
CGA:  25    -0.378226541453E+03   -0.27167E-03   -0.27720E-03 10080   0.453E-02-0.454E-03
CGA:  26    -0.378226887198E+03   -0.34574E-03   -0.31160E-03 10080   0.383E-02-0.111E-02
CGA:  27    -0.378227051508E+03   -0.16431E-03   -0.12556E-03 10080   0.165E-02-0.535E-03
CGA:  28    -0.378227145153E+03   -0.93645E-04   -0.82435E-04 10080   0.159E-02-0.203E-03
CGA:  29    -0.378227252425E+03   -0.10727E-03   -0.10775E-03 10080   0.204E-02 0.131E-04
CGA:  30    -0.378227354689E+03   -0.10226E-03   -0.11101E-03 10080   0.992E-03 0.157E-03
CGA:  31    -0.378227402487E+03   -0.47798E-04   -0.49882E-04 10080   0.481E-03 0.345E-04
SDA:  32    -0.378227459990E+03   -0.57502E-04   -0.73510E-04 10080   0.154E-02-0.364E-03
CGA:  33    -0.378227570855E+03   -0.11087E-03   -0.10278E-03 10080   0.210E-03-0.209E-03
CGA:  34    -0.378227405632E+03    0.16522E-03   -0.93118E-04 10080   0.570E-02-0.497E-03
CGA:  35    -0.378227685728E+03   -0.28010E-03   -0.28128E-03 10080   0.109E-03-0.113E-04
CGA:  36    -0.378227693780E+03   -0.80523E-05   -0.12015E-04 10080   0.350E-04 0.553E-04
CGA:  37    -0.378227705672E+03   -0.11892E-04   -0.10955E-04 10080   0.318E-04 0.702E-05
CGA:  38    -0.378227724002E+03   -0.18331E-04    0.11996E-04 10080   0.808E-04-0.110E-04
CGA:  39    -0.378227769024E+03   -0.45022E-04    0.37862E-05 10080   0.124E-03-0.133E-04
CGA:  40    -0.378227772198E+03   -0.31735E-05   -0.25685E-04 10080   0.112E-02-0.358E-03
CGA:  41    -0.378227837768E+03   -0.65570E-04   -0.63081E-04 10080   0.104E-03-0.162E-04
CGA:  42    -0.378227853981E+03   -0.16214E-04   -0.16829E-04 10080   0.522E-04 0.349E-04
CGA:  43    -0.378227861111E+03   -0.71293E-05   -0.80428E-05 10080   0.177E-04 0.140E-04
   8 F= -.37822786E+03 E0= -.37822442E+03  d E =-.917141E-01  mag=     8.0000
       N       E                     dE             d eps       ncg     rms          ort
SDA:   1    -0.375867519840E+03    0.23603E+01    0.00000E+00 10080   0.578E+01 0.000E+00
CGA:   2    -0.377740545171E+03   -0.18730E+01   -0.18762E+01 10080   0.385E+01-0.190E-01
CGA:   3    -0.378034851982E+03   -0.29431E+00   -0.31309E+00 10080   0.145E+01-0.150E+00
CGA:   4    -0.378227991066E+03   -0.19314E+00   -0.19261E+00 10080   0.309E+00-0.967E-03
CGA:   5    -0.378262865539E+03   -0.34874E-01   -0.34602E-01 10080   0.149E+00-0.893E-03
CGA:   6    -0.378281281672E+03   -0.18416E-01   -0.18399E-01 10080   0.340E-01-0.459E-03
CGA:   7    -0.378286572452E+03   -0.52908E-02   -0.52924E-02 10080   0.244E-01 0.760E-04
CGA:   8    -0.378288793473E+03   -0.22210E-02   -0.22526E-02 10080   0.643E-02 0.517E-03
CGA:   9    -0.378290181221E+03   -0.13877E-02   -0.13756E-02 10080   0.403E-02 0.290E-03
CGA:  10    -0.378290665874E+03   -0.48465E-03   -0.48419E-03 10080   0.228E-02-0.778E-05
CGA:  11    -0.378291139641E+03   -0.47377E-03   -0.47239E-03 10080   0.127E-02 0.351E-04
CGA:  12    -0.378291279914E+03   -0.14027E-03   -0.14211E-03 10080   0.807E-03 0.333E-04
CGA:  13    -0.378291442475E+03   -0.16256E-03   -0.16423E-03 10080   0.420E-03-0.520E-04
CGA:  14    -0.378291484190E+03   -0.41715E-04   -0.42143E-04 10080   0.195E-03 0.781E-05
CGA:  15    -0.378291400885E+03    0.83305E-04   -0.14492E-03 10080   0.215E-02-0.406E-03
CGA:  16    -0.378291511250E+03   -0.11036E-03   -0.12770E-03 10080   0.413E-03 0.136E-03
CGA:  17    -0.378291569791E+03   -0.58541E-04   -0.63552E-04 10080   0.142E-03 0.122E-03
CGA:  18    -0.378291600032E+03   -0.30241E-04   -0.28605E-04 10080   0.213E-03-0.584E-04
CGA:  19    -0.378291615252E+03   -0.15220E-04   -0.12407E-04 10080   0.144E-03-0.336E-04
CGA:  20    -0.378291620848E+03   -0.55957E-05   -0.58946E-05 10080   0.585E-04 0.265E-05
   9 F= -.37829162E+03 E0= -.37828832E+03  d E =-.637597E-01  mag=     8.0000
       N       E                     dE             d eps       ncg     rms          ort
SDA:   1    -0.377543904205E+03    0.74771E+00    0.00000E+00 10080   0.205E+01 0.000E+00
CGA:   2    -0.378118724892E+03   -0.57482E+00   -0.57571E+00 10080   0.113E+01-0.744E-02
CGA:   3    -0.378231282254E+03   -0.11256E+00   -0.11408E+00 10080   0.486E+00-0.427E-02
CGA:   4    -0.378306381133E+03   -0.75099E-01   -0.75103E-01 10080   0.894E-01 0.233E-02
CGA:   5    -0.378318289856E+03   -0.11909E-01   -0.11916E-01 10080   0.534E-01 0.287E-03
CGA:   6    -0.378323418154E+03   -0.51283E-02   -0.51152E-02 10080   0.132E-01-0.475E-03
CGA:   7    -0.378325461054E+03   -0.20429E-02   -0.20436E-02 10080   0.823E-02 0.969E-04
CGA:   8    -0.378326436338E+03   -0.97528E-03   -0.95779E-03 10080   0.329E-02-0.342E-03
CGA:   9    -0.378327142404E+03   -0.70607E-03   -0.72504E-03 10080   0.208E-02-0.270E-03
CGA:  10    -0.378327429701E+03   -0.28730E-03   -0.28192E-03 10080   0.197E-02-0.312E-03
CGA:  11    -0.378327716436E+03   -0.28674E-03   -0.28891E-03 10080   0.109E-02-0.242E-03
CGA:  12    -0.378327844558E+03   -0.12812E-03   -0.12135E-03 10080   0.802E-03-0.181E-03
CGA:  13    -0.378327983069E+03   -0.13851E-03   -0.16253E-03 10080   0.581E-03-0.297E-03
CGA:  14    -0.378328044597E+03   -0.61528E-04   -0.64410E-04 10080   0.700E-03-0.292E-03
CGA:  15    -0.378328100030E+03   -0.55434E-04   -0.52227E-04 10080   0.239E-03-0.343E-04
CGA:  16    -0.378327937281E+03    0.16275E-03   -0.18090E-03 10080   0.324E-02-0.542E-03
CGA:  17    -0.378328121026E+03   -0.18374E-03   -0.19494E-03 10080   0.617E-03 0.918E-04
CGA:  18    -0.378328251086E+03   -0.13006E-03   -0.12946E-03 10080   0.748E-04 0.357E-04
CGA:  19    -0.378328264380E+03   -0.13294E-04   -0.19058E-04 10080   0.360E-03-0.109E-03
CGA:  20    -0.378328284870E+03   -0.20490E-04   -0.21146E-04 10080   0.965E-05 0.570E-05
CGA:  21    -0.378328293014E+03   -0.81446E-05    0.71561E-06 10080   0.128E-04 0.279E-05
  10 F= -.37832829E+03 E0= -.37832518E+03  d E =-.366722E-01  mag=     8.0000
       N       E                     dE             d eps       ncg     rms          ort
SDA:   1    -0.375839630641E+03    0.24887E+01    0.00000E+00 10080   0.607E+01 0.000E+00
CGA:   2    -0.377815402584E+03   -0.19758E+01   -0.19764E+01 10080   0.294E+01-0.403E-02
CGA:   3    -0.378136873522E+03   -0.32147E+00   -0.32355E+00 10080   0.136E+01 0.417E-02
CGA:   4    -0.378299509564E+03   -0.16264E+00   -0.16068E+00 10080   0.310E+00 0.812E-02
CGA:   5    -0.378331727535E+03   -0.32218E-01   -0.32105E-01 10080   0.153E+00-0.397E-03
CGA:   6    -0.378350505391E+03   -0.18778E-01   -0.18748E-01 10080   0.315E-01-0.555E-03
CGA:   7    -0.378356540242E+03   -0.60349E-02   -0.60432E-02 10080   0.168E-01-0.508E-03
CGA:   8    -0.378358200666E+03   -0.16604E-02   -0.16713E-02 10080   0.671E-02 0.781E-04
CGA:   9    -0.378359537261E+03   -0.13366E-02   -0.13569E-02 10080   0.522E-02-0.733E-03
CGA:  10    -0.378360000432E+03   -0.46317E-03   -0.44666E-03 10080   0.218E-02-0.200E-03
CGA:  11    -0.378360570074E+03   -0.56964E-03   -0.67490E-03 10080   0.218E-02-0.694E-03
CGA:  12    -0.378360760008E+03   -0.18993E-03   -0.16233E-03 10080   0.114E-02-0.400E-03
CGA:  13    -0.378360957119E+03   -0.19711E-03   -0.36354E-03 10080   0.105E-02-0.777E-03
CGA:  14    -0.378361182492E+03   -0.22537E-03   -0.23564E-03 10080   0.104E-02-0.261E-03
CGA:  15    -0.378361263770E+03   -0.81278E-04   -0.67183E-04 10080   0.320E-03-0.137E-03
CGA:  16    -0.378361324897E+03   -0.61127E-04   -0.63430E-04 10080   0.547E-03-0.504E-04
CGA:  17    -0.378361390991E+03   -0.66095E-04   -0.57548E-04 10080   0.172E-03-0.142E-03
CGA:  18    -0.378361462100E+03   -0.71109E-04    0.21644E-04 10080   0.263E-03-0.236E-04
CGA:  19    -0.378361558643E+03   -0.96543E-04    0.12160E-03 10080   0.159E-03-0.134E-03
CGA:  20    -0.378361568464E+03   -0.98203E-05   -0.13141E-04 10080   0.557E-04 0.336E-04
  11 F= -.37836157E+03 E0= -.37835870E+03  d E =-.332754E-01  mag=     8.0000
       N       E                     dE             d eps       ncg     rms          ort
SDA:   1    -0.353675485340E+03    0.24686E+02    0.00000E+00 10080   0.700E+02 0.000E+00
CGA:   2    -0.368350246289E+03   -0.14675E+02   -0.14328E+02 10080   0.593E+02 0.653E+01
CGA:   3    -0.374551108683E+03   -0.62009E+01   -0.49790E+01 10080   0.112E+02 0.164E+02
CGA:   4    -0.376908295429E+03   -0.23572E+01   -0.23552E+01 10080   0.120E+02-0.210E+00
CGA:   5    -0.377818510994E+03   -0.91022E+00   -0.85886E+00 10080   0.268E+01 0.868E+00
CGA:   6    -0.378062201016E+03   -0.24369E+00   -0.23647E+00 10080   0.208E+01 0.434E-01
CGA:   7    -0.378249004687E+03   -0.18680E+00   -0.18819E+00 10080   0.512E+00-0.272E-01
CGA:   8    -0.378289853399E+03   -0.40849E-01   -0.41581E-01 10080   0.340E+00-0.825E-02
CGA:   9    -0.378334618709E+03   -0.44765E-01   -0.44856E-01 10080   0.230E+00 0.505E-02
CGA:  10    -0.378352014126E+03   -0.17395E-01   -0.17463E-01 10080   0.743E-01 0.384E-02
CGA:  11    -0.378365324669E+03   -0.13311E-01   -0.13404E-01 10080   0.104E+00-0.340E-02
CGA:  12    -0.378372930124E+03   -0.76055E-02   -0.74173E-02 10080   0.253E-01-0.378E-02
CGA:  13    -0.378377023146E+03   -0.40930E-02   -0.41170E-02 10080   0.375E-01-0.107E-02
CGA:  14    -0.378380108916E+03   -0.30858E-02   -0.30597E-02 10080   0.949E-02-0.641E-03
CGA:  15    -0.378381160632E+03   -0.10517E-02   -0.10350E-02 10080   0.882E-02-0.504E-03
CGA:  16    -0.378382586614E+03   -0.14260E-02   -0.15387E-02 10080   0.779E-02-0.268E-02
CGA:  17    -0.378383053986E+03   -0.46737E-03   -0.37734E-03 10080   0.314E-02-0.128E-02
CGA:  18    -0.378383494695E+03   -0.44071E-03   -0.47468E-03 10080   0.571E-02-0.841E-03
CGA:  19    -0.378383794766E+03   -0.30007E-03   -0.27692E-03 10080   0.227E-02-0.311E-03
CGA:  20    -0.378383976865E+03   -0.18210E-03   -0.16688E-03 10080   0.232E-02-0.248E-03
CGA:  21    -0.378384276034E+03   -0.29917E-03   -0.48083E-03 10080   0.574E-02-0.187E-02
CGA:  22    -0.378384711534E+03   -0.43550E-03   -0.43009E-03 10080   0.940E-03-0.967E-04
CGA:  23    -0.378384822885E+03   -0.11135E-03   -0.11457E-03 10080   0.404E-03 0.241E-03
CGA:  24    -0.378384888192E+03   -0.65307E-04   -0.65660E-04 10080   0.312E-03 0.485E-04
CGA:  25    -0.378384861867E+03    0.26325E-04   -0.20463E-03 10080   0.124E-02-0.513E-03
CGA:  26    -0.378384986267E+03   -0.12440E-03   -0.12139E-03 10080   0.644E-03-0.464E-04
CGA:  27    -0.378385106376E+03   -0.12011E-03   -0.12078E-03 10080   0.293E-03-0.165E-04
CGA:  28    -0.378385151061E+03   -0.44684E-04   -0.42233E-04 10080   0.463E-03-0.255E-03
CGA:  29    -0.378385175405E+03   -0.24344E-04   -0.26311E-04 10080   0.434E-04 0.207E-04
CGA:  30    -0.378385197115E+03   -0.21710E-04    0.60008E-05 10080   0.373E-04 0.119E-04
CGA:  31    -0.378385228566E+03   -0.31451E-04    0.30680E-05 10080   0.191E-04 0.961E-05
CGA:  32    -0.378385251195E+03   -0.22629E-04    0.87669E-06 10080   0.222E-04 0.135E-04
CGA:  33    -0.378385262744E+03   -0.11550E-04    0.23623E-05 10080   0.398E-04-0.511E-05
CGA:  34    -0.378385290805E+03   -0.28061E-04    0.11597E-05 10080   0.313E-04 0.122E-04
CGA:  35    -0.378385320466E+03   -0.29661E-04    0.22466E-05 10080   0.918E-04-0.250E-04
CGA:  36    -0.378385331858E+03   -0.11392E-04   -0.83826E-05 10080   0.567E-04-0.492E-04
CGA:  37    -0.378385335767E+03   -0.39087E-05   -0.35637E-05 10080   0.101E-04-0.389E-05
  12 F= -.37838534E+03 E0= -.37838270E+03  d E =-.237673E-01  mag=     8.0000
       N       E                     dE             d eps       ncg     rms          ort
SDA:   1    -0.367370291519E+03    0.11015E+02    0.00000E+00 10080   0.274E+02 0.000E+00
CGA:   2    -0.375027378425E+03   -0.76571E+01   -0.76410E+01 10080   0.263E+02-0.123E+00
CGA:   3    -0.377146053713E+03   -0.21187E+01   -0.22382E+01 10080   0.603E+01 0.522E+00
CGA:   4    -0.377949234538E+03   -0.80318E+00   -0.80045E+00 10080   0.314E+01-0.434E-01
CGA:   5    -0.378222995067E+03   -0.27376E+00   -0.26909E+00 10080   0.566E+00 0.183E-01
CGA:   6    -0.378338131266E+03   -0.11514E+00   -0.11570E+00 10080   0.149E+00-0.956E-02
CGA:   7    -0.378362214371E+03   -0.24083E-01   -0.24078E-01 10080   0.125E+00 0.101E-03
CGA:   8    -0.378373503023E+03   -0.11289E-01   -0.11445E-01 10080   0.315E-01 0.271E-02
CGA:   9    -0.378380068930E+03   -0.65659E-02   -0.65840E-02 10080   0.289E-01-0.285E-03
CGA:  10    -0.378383164064E+03   -0.30951E-02   -0.30806E-02 10080   0.103E-01-0.518E-03
CGA:  11    -0.378386129714E+03   -0.29657E-02   -0.31519E-02 10080   0.621E-02-0.111E-02
CGA:  12    -0.378386693514E+03   -0.56380E-03   -0.56803E-03 10080   0.416E-02 0.869E-04
CGA:  13    -0.378387554499E+03   -0.86098E-03   -0.89953E-03 10080   0.154E-02-0.625E-03
CGA:  14    -0.378387756969E+03   -0.20247E-03   -0.20254E-03 10080   0.152E-02-0.216E-03
CGA:  15    -0.378387974412E+03   -0.21744E-03   -0.35788E-03 10080   0.228E-02-0.118E-02
CGA:  16    -0.378388086014E+03   -0.11160E-03   -0.14042E-03 10080   0.564E-03 0.294E-03
CGA:  17    -0.378388163641E+03   -0.77628E-04   -0.83625E-04 10080   0.260E-03 0.244E-03
CGA:  18    -0.378388215509E+03   -0.51868E-04   -0.51124E-04 10080   0.371E-03-0.434E-04
CGA:  19    -0.378388254757E+03   -0.39248E-04   -0.38336E-04 10080   0.286E-03-0.311E-04
CGA:  20    -0.378388276146E+03   -0.21389E-04   -0.19121E-04 10080   0.191E-03-0.285E-04
CGA:  21    -0.378388327531E+03   -0.51386E-04    0.22902E-02 10080   0.270E-03-0.315E-04
CGA:  22    -0.378388139858E+03    0.18767E-03   -0.94154E-04 10080   0.346E-02-0.105E-02
CGA:  23    -0.378388312032E+03   -0.17217E-03   -0.20669E-03 10080   0.573E-03 0.342E-03
CGA:  24    -0.378388383050E+03   -0.71018E-04   -0.77784E-04 10080   0.231E-03 0.203E-03
CGA:  25    -0.378388423506E+03   -0.40456E-04   -0.39497E-04 10080   0.180E-03-0.323E-04
CGA:  26    -0.378388448885E+03   -0.25379E-04   -0.25939E-04 10080   0.160E-03-0.417E-04
CGA:  27    -0.378387627106E+03    0.82178E-03   -0.44680E-03 10080   0.114E-01-0.112E-02
CGA:  28    -0.378388306231E+03   -0.67913E-03   -0.71317E-03 10080   0.841E-03-0.334E-04
CGA:  29    -0.378388413004E+03   -0.10677E-03   -0.12775E-03 10080   0.586E-03 0.178E-03
CGA:  30    -0.378388454289E+03   -0.41285E-04   -0.69745E-04 10080   0.150E-03 0.172E-03
CGA:  31    -0.378388526157E+03   -0.71868E-04   -0.10863E-03 10080   0.202E-03-0.122E-03
CGA:  32    -0.378388534866E+03   -0.87093E-05   -0.19353E-04 10080   0.895E-04 0.611E-04
CGA:  33    -0.378388539047E+03   -0.41802E-05   -0.12062E-04 10080   0.260E-04 0.496E-04
  13 F= -.37838854E+03 E0= -.37838585E+03  d E =-.320328E-02  mag=     8.0000
       N       E                     dE             d eps       ncg     rms          ort
SDA:   1    -0.372934980618E+03    0.54536E+01    0.00000E+00 10080   0.135E+02 0.000E+00
CGA:   2    -0.376967354678E+03   -0.40324E+01   -0.40327E+01 10080   0.101E+02-0.833E-02
CGA:   3    -0.377768935197E+03   -0.80158E+00   -0.67512E+00 10080   0.247E+01 0.173E+01
CGA:   4    -0.378247940118E+03   -0.47900E+00   -0.47906E+00 10080   0.108E+01 0.245E-03
CGA:   5    -0.378341626635E+03   -0.93687E-01   -0.90882E-01 10080   0.430E+00 0.245E-01
CGA:   6    -0.378395768916E+03   -0.54142E-01   -0.53884E-01 10080   0.182E+00 0.166E-02
CGA:   7    -0.378414196794E+03   -0.18428E-01   -0.18334E-01 10080   0.578E-01-0.211E-02
CGA:   8    -0.378423249156E+03   -0.90524E-02   -0.89865E-02 10080   0.370E-01-0.935E-03
CGA:   9    -0.378426245496E+03   -0.29963E-02   -0.29873E-02 10080   0.124E-01 0.413E-03
CGA:  10    -0.378429225163E+03   -0.29797E-02   -0.30211E-02 10080   0.919E-02-0.146E-02
CGA:  11    -0.378430233819E+03   -0.10087E-02   -0.88784E-03 10080   0.604E-02-0.114E-02
CGA:  12    -0.378431286356E+03   -0.10525E-02   -0.10423E-02 10080   0.455E-02-0.841E-03
CGA:  13    -0.378431654109E+03   -0.36775E-03   -0.33118E-03 10080   0.155E-02-0.272E-03
CGA:  14    -0.378432057380E+03   -0.40327E-03   -0.54212E-03 10080   0.218E-02-0.820E-03
CGA:  15    -0.378432189991E+03   -0.13261E-03   -0.14900E-03 10080   0.637E-03 0.124E-03
CGA:  16    -0.378432340922E+03   -0.15093E-03   -0.15203E-03 10080   0.293E-03-0.497E-04
CGA:  17    -0.378432387775E+03   -0.46853E-04   -0.43738E-04 10080   0.293E-03-0.722E-04
CGA:  18    -0.378432432291E+03   -0.44516E-04   -0.44544E-04 10080   0.114E-03 0.456E-04
CGA:  19    -0.378432442395E+03   -0.10104E-04   -0.14217E-04 10080   0.780E-04 0.435E-04
CGA:  20    -0.378432471572E+03   -0.29177E-04   -0.28930E-04 10080   0.499E-04 0.341E-05
CGA:  21    -0.378432499693E+03   -0.28121E-04    0.15476E-04 10080   0.101E-03-0.157E-04
CGA:  22    -0.378432461393E+03    0.38300E-04   -0.39570E-04 10080   0.480E-03-0.213E-03
CGA:  23    -0.378432502701E+03   -0.41308E-04   -0.49169E-04 10080   0.230E-03 0.671E-04
CGA:  24    -0.378432521075E+03   -0.18374E-04   -0.26089E-04 10080   0.598E-04 0.674E-04
CGA:  25    -0.378432178541E+03    0.34253E-03   -0.18457E-03 10080   0.369E-02-0.393E-03
CGA:  26    -0.378432413075E+03   -0.23453E-03   -0.27410E-03 10080   0.474E-03 0.167E-03
CGA:  27    -0.378432493867E+03   -0.80793E-04   -0.95741E-04 10080   0.417E-03 0.877E-04
CGA:  28    -0.378432556920E+03   -0.63053E-04   -0.54078E-04 10080   0.715E-04-0.366E-04
CGA:  29    -0.378432560525E+03   -0.36051E-05   -0.62229E-05 10080   0.196E-04 0.107E-04
  14 F= -.37843256E+03 E0= -.37843023E+03  d E =-.440215E-01  mag=     8.0000
       N       E                     dE             d eps       ncg     rms          ort
SDA:   1    -0.378304302791E+03    0.12825E+00    0.00000E+00 10080   0.387E+00 0.000E+00
CGA:   2    -0.378383923503E+03   -0.79621E-01   -0.79346E-01 10080   0.411E+00-0.191E-03
CGA:   3    -0.378421018262E+03   -0.37095E-01   -0.36922E-01 10080   0.100E+00 0.146E-02
CGA:   4    -0.378437392397E+03   -0.16374E-01   -0.16299E-01 10080   0.419E-01-0.935E-03
CGA:   5    -0.378441461231E+03   -0.40688E-02   -0.41861E-02 10080   0.105E-01 0.102E-02
CGA:   6    -0.378443351905E+03   -0.18907E-02   -0.18730E-02 10080   0.387E-02-0.132E-03
CGA:   7    -0.378443755311E+03   -0.40341E-03   -0.41729E-03 10080   0.174E-02 0.778E-04
CGA:   8    -0.378444064844E+03   -0.30953E-03   -0.30244E-03 10080   0.905E-03-0.631E-04
CGA:   9    -0.378444163791E+03   -0.98947E-04   -0.98351E-04 10080   0.539E-03-0.189E-05
CGA:  10    -0.378444281971E+03   -0.11818E-03   -0.11247E-03 10080   0.252E-03-0.100E-03
CGA:  11    -0.378444310539E+03   -0.28568E-04   -0.30640E-04 10080   0.148E-03 0.187E-04
CGA:  12    -0.378444339064E+03   -0.28525E-04   -0.27204E-04 10080   0.973E-04-0.153E-04
CGA:  13    -0.378444343876E+03   -0.48117E-05   -0.72730E-05 10080   0.324E-04 0.147E-04
  15 F= -.37844434E+03 E0= -.37844204E+03  d E =-.117834E-01  mag=     8.0000
       N       E                     dE             d eps       ncg     rms          ort
SDA:   1    -0.378101929441E+03    0.34241E+00    0.00000E+00 10080   0.822E+00 0.000E+00
CGA:   2    -0.378356972188E+03   -0.25504E+00   -0.25511E+00 10080   0.786E+00 0.325E-03
CGA:   3    -0.378412445466E+03   -0.55473E-01   -0.58089E-01 10080   0.173E+00-0.346E-01
CGA:   4    -0.378439991341E+03   -0.27546E-01   -0.27541E-01 10080   0.409E-01 0.244E-03
CGA:   5    -0.378444521046E+03   -0.45297E-02   -0.44686E-02 10080   0.174E-01-0.299E-03
CGA:   6    -0.378446735145E+03   -0.22141E-02   -0.22153E-02 10080   0.564E-02 0.459E-04
CGA:   7    -0.378447445901E+03   -0.71076E-03   -0.67961E-03 10080   0.288E-02-0.321E-03
CGA:   8    -0.378447773401E+03   -0.32750E-03   -0.34683E-03 10080   0.658E-03 0.223E-03
CGA:   9    -0.378447888862E+03   -0.11546E-03   -0.11886E-03 10080   0.543E-03 0.769E-04
CGA:  10    -0.378447964127E+03   -0.75265E-04   -0.77937E-04 10080   0.207E-03 0.337E-04
CGA:  11    -0.378448015530E+03   -0.51403E-04   -0.52134E-04 10080   0.321E-03-0.228E-04
CGA:  12    -0.378448028420E+03   -0.12889E-04   -0.21494E-04 10080   0.719E-04 0.656E-04
CGA:  13    -0.378448031879E+03   -0.34594E-05   -0.70524E-05 10080   0.661E-04 0.301E-04
CGA:  14    -0.378448049092E+03   -0.17213E-04   -0.17268E-04 10080   0.249E-04 0.498E-05
CGA:  15    -0.378448027501E+03    0.21591E-04   -0.14142E-04 10080   0.890E-03-0.107E-03
CGA:  16    -0.378448054961E+03   -0.27460E-04   -0.41272E-04 10080   0.315E-04 0.883E-04
CGA:  17    -0.378448053726E+03    0.12355E-05   -0.17489E-05 10080   0.187E-04 0.196E-04
  16 F= -.37844805E+03 E0= -.37844573E+03  d E =-.370985E-02  mag=     8.0000
       N       E                     dE             d eps       ncg     rms          ort
SDA:   1    -0.360041432590E+03    0.18407E+02    0.00000E+00 10080   0.447E+02 0.000E+00
CGA:   2    -0.373454002032E+03   -0.13413E+02   -0.13492E+02 10080   0.303E+02-0.617E+00
CGA:   3    -0.376109568148E+03   -0.26556E+01   -0.25035E+01 10080   0.869E+01 0.281E+01
CGA:   4    -0.377588524921E+03   -0.14790E+01   -0.14801E+01 10080   0.369E+01 0.957E-02
CGA:   5    -0.377890637710E+03   -0.30211E+00   -0.25900E+00 10080   0.110E+01 0.491E+00
CGA:   6    -0.378099374637E+03   -0.20874E+00   -0.20852E+00 10080   0.382E+00-0.127E-01
CGA:   7    -0.378140377548E+03   -0.41003E-01   -0.41699E-01 10080   0.324E+00-0.531E-02
CGA:   8    -0.378176307200E+03   -0.35930E-01   -0.36152E-01 10080   0.938E-01 0.368E-02
CGA:   9    -0.378188518227E+03   -0.12211E-01   -0.12258E-01 10080   0.754E-01 0.114E-02
CGA:  10    -0.378200467463E+03   -0.11949E-01   -0.11909E-01 10080   0.302E-01-0.238E-02
CGA:  11    -0.378203744240E+03   -0.32768E-02   -0.32528E-02 10080   0.289E-01-0.463E-03
CGA:  12    -0.378208586938E+03   -0.48427E-02   -0.48411E-02 10080   0.689E-02-0.212E-02
CGA:  13    -0.378210115474E+03   -0.15285E-02   -0.15764E-02 10080   0.741E-02-0.624E-03
CGA:  14    -0.378210737623E+03   -0.62215E-03   -0.60484E-03 10080   0.188E-02-0.230E-03
CGA:  15    -0.378211129000E+03   -0.39138E-03   -0.50947E-03 10080   0.535E-02-0.107E-02
CGA:  16    -0.378211376752E+03   -0.24775E-03   -0.28551E-03 10080   0.584E-03 0.292E-03
CGA:  17    -0.378211466400E+03   -0.89648E-04   -0.92879E-04 10080   0.511E-03 0.172E-03
CGA:  18    -0.378211548262E+03   -0.81862E-04   -0.87231E-04 10080   0.296E-03 0.145E-03
CGA:  19    -0.378211644797E+03   -0.96535E-04   -0.95614E-04 10080   0.636E-03 0.114E-04
CGA:  20    -0.378211749011E+03   -0.10421E-03   -0.97188E-04 10080   0.530E-03-0.298E-03
CGA:  21    -0.378211771968E+03   -0.22957E-04   -0.26978E-04 10080   0.341E-03 0.528E-04
CGA:  22    -0.378211782932E+03   -0.10965E-04   -0.25361E-04 10080   0.230E-03 0.146E-03
CGA:  23    -0.378211801779E+03   -0.18846E-04   -0.29110E-04 10080   0.155E-03 0.141E-03
CGA:  24    -0.378211852441E+03   -0.50662E-04    0.31019E-03 10080   0.235E-03 0.710E-05
CGA:  25    -0.378211901325E+03   -0.48885E-04   -0.50761E-04 10080   0.152E-03-0.383E-04
CGA:  26    -0.378211908534E+03   -0.72087E-05   -0.97254E-05 10080   0.501E-04 0.301E-04
  17 F= -.37821191E+03 E0= -.37820889E+03  d E =0.236145E+00  mag=     8.0000
       N       E                     dE             d eps       ncg     rms          ort
SDA:   1    -0.369876128678E+03    0.83358E+01    0.00000E+00 10080   0.209E+02 0.000E+00
CGA:   2    -0.376106578124E+03   -0.62304E+01   -0.62200E+01 10080   0.128E+02 0.675E-01
CGA:   3    -0.377288078720E+03   -0.11815E+01   -0.12512E+01 10080   0.499E+01 0.197E-01
CGA:   4    -0.378039324921E+03   -0.75125E+00   -0.74993E+00 10080   0.122E+01-0.116E+00
CGA:   5    -0.378220817303E+03   -0.18149E+00   -0.18151E+00 10080   0.556E+00 0.349E-02
CGA:   6    -0.378278435966E+03   -0.57619E-01   -0.57197E-01 10080   0.164E+00-0.143E-02
CGA:   7    -0.378303817354E+03   -0.25381E-01   -0.25379E-01 10080   0.112E+00 0.119E-02
CGA:   8    -0.378315923552E+03   -0.12106E-01   -0.12015E-01 10080   0.481E-01-0.221E-02
CGA:   9    -0.378323933540E+03   -0.80100E-02   -0.80442E-02 10080   0.344E-01-0.160E-02
CGA:  10    -0.378328234120E+03   -0.43006E-02   -0.41949E-02 10080   0.170E-01-0.431E-02
CGA:  11    -0.378331171823E+03   -0.29377E-02   -0.30587E-02 10080   0.116E-01-0.213E-02
CGA:  12    -0.378332483800E+03   -0.13120E-02   -0.12610E-02 10080   0.635E-02-0.178E-02
CGA:  13    -0.378333207728E+03   -0.72393E-03   -0.72254E-03 10080   0.315E-02-0.780E-04
CGA:  14    -0.378333743475E+03   -0.53575E-03   -0.56508E-03 10080   0.432E-02-0.923E-03
CGA:  15    -0.378334188885E+03   -0.44541E-03   -0.43566E-03 10080   0.148E-02-0.106E-02
CGA:  16    -0.378334534911E+03   -0.34603E-03    0.33331E-02 10080   0.937E-03 0.433E-03
CGA:  17    -0.378332871314E+03    0.16636E-02   -0.93666E-03 10080   0.215E-01-0.337E-02
CGA:  18    -0.378334417379E+03   -0.15461E-02   -0.16047E-02 10080   0.667E-02 0.497E-03
CGA:  19    -0.378335357598E+03   -0.94022E-03   -0.95380E-03 10080   0.241E-02 0.999E-04
CGA:  20    -0.378335536344E+03   -0.17875E-03   -0.21833E-03 10080   0.354E-03 0.238E-03
CGA:  21    -0.378335624973E+03   -0.88629E-04   -0.88983E-04 10080   0.343E-03 0.160E-04
CGA:  22    -0.378335655969E+03   -0.30997E-04   -0.35001E-04 10080   0.953E-04 0.273E-04
CGA:  23    -0.378335661433E+03   -0.54634E-05   -0.12665E-04 10080   0.732E-04 0.604E-04
  18 F= -.37833566E+03 E0= -.37833327E+03  d E =-.123753E+00  mag=     8.0000
       N       E                     dE             d eps       ncg     rms          ort
SDA:   1    -0.377234873577E+03    0.11008E+01    0.00000E+00 10080   0.294E+01 0.000E+00
CGA:   2    -0.378159801799E+03   -0.92493E+00   -0.92428E+00 10080   0.172E+01 0.831E-02
CGA:   3    -0.378300746452E+03   -0.14094E+00   -0.14395E+00 10080   0.767E+00-0.956E-02
CGA:   4    -0.378413588683E+03   -0.11284E+00   -0.11284E+00 10080   0.241E+00-0.390E-02
CGA:   5    -0.378437212613E+03   -0.23624E-01   -0.23507E-01 10080   0.941E-01 0.130E-02
CGA:   6    -0.378450854348E+03   -0.13642E-01   -0.13567E-01 10080   0.245E-01-0.101E-02
CGA:   7    -0.378454796508E+03   -0.39422E-02   -0.39383E-02 10080   0.174E-01-0.208E-04
CGA:   8    -0.378456755531E+03   -0.19590E-02   -0.19561E-02 10080   0.781E-02-0.598E-04
CGA:   9    -0.378457599953E+03   -0.84442E-03   -0.91892E-03 10080   0.405E-02 0.865E-03
CGA:  10    -0.378458333240E+03   -0.73329E-03   -0.74180E-03 10080   0.169E-02 0.235E-03
CGA:  11    -0.378458615649E+03   -0.28241E-03   -0.29133E-03 10080   0.109E-02 0.246E-03
CGA:  12    -0.378458829656E+03   -0.21401E-03   -0.21167E-03 10080   0.666E-03-0.815E-04
CGA:  13    -0.378458906585E+03   -0.76929E-04   -0.79957E-04 10080   0.257E-03 0.465E-04
CGA:  14    -0.378458964689E+03   -0.58104E-04   -0.58134E-04 10080   0.301E-03-0.154E-05
CGA:  15    -0.378458975935E+03   -0.11245E-04   -0.20345E-04 10080   0.725E-04 0.727E-04
CGA:  16    -0.378458987178E+03   -0.11243E-04   -0.12615E-04 10080   0.121E-03 0.290E-04
CGA:  17    -0.378459023519E+03   -0.36340E-04   -0.41135E-04 10080   0.196E-03-0.843E-04
CGA:  18    -0.378459025654E+03   -0.21350E-05   -0.10906E-04 10080   0.646E-04 0.666E-04
  19 F= -.37845903E+03 E0= -.37845666E+03  d E =-.123364E+00  mag=     8.0000
       N       E                     dE             d eps       ncg     rms          ort
SDA:   1    -0.378440351976E+03    0.18672E-01    0.00000E+00 10080   0.795E-01 0.000E+00
CGA:   2    -0.378449590276E+03   -0.92383E-02   -0.93038E-02 10080   0.777E-01 0.174E-02
CGA:   3    -0.378460021708E+03   -0.10431E-01   -0.10431E-01 10080   0.165E-01-0.154E-03
CGA:   4    -0.378462731097E+03   -0.27094E-02   -0.27129E-02 10080   0.840E-02 0.551E-03
CGA:   5    -0.378463609106E+03   -0.87801E-03   -0.84883E-03 10080   0.225E-02-0.390E-03
CGA:   6    -0.378463922062E+03   -0.31296E-03   -0.31425E-03 10080   0.781E-03 0.643E-04
CGA:   7    -0.378464029182E+03   -0.10712E-03   -0.97870E-04 10080   0.697E-03-0.207E-03
CGA:   8    -0.378464072990E+03   -0.43808E-04   -0.48720E-04 10080   0.155E-03 0.718E-04
CGA:   9    -0.378464075278E+03   -0.22877E-05   -0.99659E-05 10080   0.967E-04 0.751E-04
CGA:  10    -0.378464080702E+03   -0.54242E-05   -0.11358E-04 10080   0.620E-04 0.775E-04
  20 F= -.37846408E+03 E0= -.37846173E+03  d E =-.505505E-02  mag=     8.0000
       N       E                     dE             d eps       ncg     rms          ort
SDA:   1    -0.378385153648E+03    0.78922E-01    0.00000E+00 10080   0.261E+00 0.000E+00
CGA:   2    -0.378424900622E+03   -0.39747E-01   -0.39748E-01 10080   0.320E+00-0.392E-02
CGA:   3    -0.378457429296E+03   -0.32529E-01   -0.32540E-01 10080   0.616E-01 0.197E-02
CGA:   4    -0.378467724504E+03   -0.10295E-01   -0.10284E-01 10080   0.278E-01 0.719E-03
CGA:   5    -0.378470482212E+03   -0.27577E-02   -0.27371E-02 10080   0.708E-02-0.484E-03
CGA:   6    -0.378471497052E+03   -0.10148E-02   -0.10151E-02 10080   0.238E-02 0.159E-03
CGA:   7    -0.378471777659E+03   -0.28061E-03   -0.27803E-03 10080   0.117E-02-0.728E-04
CGA:   8    -0.378471891238E+03   -0.11358E-03   -0.11943E-03 10080   0.475E-03 0.146E-03
CGA:   9    -0.378471970961E+03   -0.79723E-04   -0.80403E-04 10080   0.389E-03-0.103E-03
CGA:  10    -0.378472004533E+03   -0.33572E-04   -0.35196E-04 10080   0.119E-03 0.568E-04
CGA:  11    -0.378472012601E+03   -0.80676E-05   -0.11183E-04 10080   0.738E-04 0.517E-04
CGA:  12    -0.378472031274E+03   -0.18673E-04   -0.18360E-04 10080   0.485E-04 0.930E-05
CGA:  13    -0.378472039247E+03   -0.79728E-05   -0.12088E-04 10080   0.116E-03-0.511E-04
  21 F= -.37847204E+03 E0= -.37846970E+03  d E =-.795854E-02  mag=     8.0000
       N       E                     dE             d eps       ncg     rms          ort
SDA:   1    -0.378337808221E+03    0.13422E+00    0.00000E+00 10080   0.371E+00 0.000E+00
CGA:   2    -0.378428655311E+03   -0.90847E-01   -0.90941E-01 10080   0.336E+00-0.800E-03
CGA:   3    -0.378457106882E+03   -0.28452E-01   -0.28404E-01 10080   0.116E+00-0.223E-02
CGA:   4    -0.378472488739E+03   -0.15382E-01   -0.15400E-01 10080   0.367E-01 0.219E-02
CGA:   5    -0.378476841062E+03   -0.43523E-02   -0.43198E-02 10080   0.101E-01-0.119E-02
CGA:   6    -0.378478209642E+03   -0.13686E-02   -0.13689E-02 10080   0.309E-02 0.593E-03
CGA:   7    -0.378478607265E+03   -0.39762E-03   -0.39068E-03 10080   0.222E-02-0.310E-03
CGA:   8    -0.378478823087E+03   -0.21582E-03   -0.21971E-03 10080   0.506E-03 0.131E-03
CGA:   9    -0.378478899694E+03   -0.76607E-04   -0.76429E-04 10080   0.431E-03 0.458E-04
CGA:  10    -0.378478966929E+03   -0.67235E-04   -0.67269E-04 10080   0.149E-03-0.736E-05
CGA:  11    -0.378478981003E+03   -0.14075E-04   -0.15756E-04 10080   0.100E-03 0.541E-04
CGA:  12    -0.378479008706E+03   -0.27702E-04   -0.31296E-04 10080   0.150E-03-0.391E-04
CGA:  13    -0.378479011688E+03   -0.29827E-05   -0.46881E-05 10080   0.785E-04 0.189E-04
  22 F= -.37847901E+03 E0= -.37847669E+03  d E =-.697244E-02  mag=     8.0000
       N       E                     dE             d eps       ncg     rms          ort
SDA:   1    -0.377998028496E+03    0.48098E+00    0.00000E+00 10080   0.126E+01 0.000E+00
CGA:   2    -0.378330289168E+03   -0.33226E+00   -0.33239E+00 10080   0.993E+00-0.818E-03
CGA:   3    -0.378414067286E+03   -0.83778E-01   -0.84523E-01 10080   0.397E+00-0.608E-02
CGA:   4    -0.378467456616E+03   -0.53389E-01   -0.53391E-01 10080   0.880E-01 0.280E-02
CGA:   5    -0.378478411618E+03   -0.10955E-01   -0.10926E-01 10080   0.379E-01-0.223E-02
CGA:   6    -0.378482483709E+03   -0.40721E-02   -0.40955E-02 10080   0.102E-01 0.101E-02
CGA:   7    -0.378483863146E+03   -0.13794E-02   -0.13788E-02 10080   0.594E-02-0.261E-03
CGA:   8    -0.378484509944E+03   -0.64680E-03   -0.64990E-03 10080   0.189E-02 0.149E-03
CGA:   9    -0.378484795728E+03   -0.28578E-03   -0.28863E-03 10080   0.167E-02-0.182E-03
CGA:  10    -0.378484959409E+03   -0.16368E-03   -0.16858E-03 10080   0.374E-03 0.222E-03
CGA:  11    -0.378485040509E+03   -0.81100E-04   -0.77217E-04 10080   0.420E-03 0.795E-04
CGA:  12    -0.378485117978E+03   -0.77469E-04   -0.78925E-04 10080   0.240E-03-0.747E-04
CGA:  13    -0.378485137752E+03   -0.19774E-04   -0.20687E-04 10080   0.145E-03 0.289E-04
CGA:  14    -0.378485169044E+03   -0.31292E-04   -0.32508E-04 10080   0.148E-03-0.186E-04
CGA:  15    -0.378485182328E+03   -0.13283E-04   -0.12928E-04 10080   0.606E-04-0.930E-05
CGA:  16    -0.378485198697E+03   -0.16369E-04    0.67206E-04 10080   0.568E-04 0.107E-04
CGA:  17    -0.378485220428E+03   -0.21731E-04    0.23427E-04 10080   0.376E-04 0.239E-05
CGA:  18    -0.378485225325E+03   -0.48973E-05   -0.49568E-05 10080   0.230E-04 0.610E-05
CGA:  19    -0.378485233033E+03   -0.77083E-05    0.28349E-04 10080   0.185E-04 0.134E-04
  23 F= -.37848523E+03 E0= -.37848294E+03  d E =-.622135E-02  mag=     8.0000
       N       E                     dE             d eps       ncg     rms          ort
SDA:   1    -0.377654204556E+03    0.83102E+00    0.00000E+00 10080   0.201E+01 0.000E+00
CGA:   2    -0.378283256297E+03   -0.62905E+00   -0.63052E+00 10080   0.139E+01-0.804E-02
CGA:   3    -0.378398210453E+03   -0.11495E+00   -0.11599E+00 10080   0.494E+00-0.577E-02
CGA:   4    -0.378461874075E+03   -0.63664E-01   -0.63658E-01 10080   0.156E+00 0.354E-02
CGA:   5    -0.378478061639E+03   -0.16188E-01   -0.16102E-01 10080   0.417E-01-0.282E-02
CGA:   6    -0.378484147666E+03   -0.60860E-02   -0.60804E-02 10080   0.165E-01 0.678E-03
CGA:   7    -0.378486009105E+03   -0.18614E-02   -0.18476E-02 10080   0.681E-02-0.441E-03
CGA:   8    -0.378486986170E+03   -0.97707E-03   -0.97471E-03 10080   0.256E-02 0.267E-03
CGA:   9    -0.378487322037E+03   -0.33587E-03   -0.33242E-03 10080   0.221E-02-0.256E-03
CGA:  10    -0.378487599886E+03   -0.27785E-03   -0.27767E-03 10080   0.536E-03 0.118E-03
CGA:  11    -0.378487737904E+03   -0.13802E-03   -0.32973E-03 10080   0.169E-02-0.429E-03
CGA:  12    -0.378487862516E+03   -0.12461E-03   -0.13690E-03 10080   0.369E-03 0.159E-03
CGA:  13    -0.378487912069E+03   -0.49553E-04   -0.52157E-04 10080   0.186E-03 0.964E-04
CGA:  14    -0.378487928630E+03   -0.16561E-04   -0.70899E-04 10080   0.114E-02-0.367E-03
CGA:  15    -0.378487976091E+03   -0.47461E-04   -0.64045E-04 10080   0.135E-03 0.162E-03
CGA:  16    -0.378487995015E+03   -0.18924E-04   -0.18949E-04 10080   0.103E-03 0.114E-05
CGA:  17    -0.378488029847E+03   -0.34833E-04    0.10041E-03 10080   0.514E-04-0.632E-05
CGA:  18    -0.378488037190E+03   -0.73430E-05   -0.72194E-05 10080   0.104E-03-0.222E-04
CGA:  19    -0.378488060632E+03   -0.23442E-04    0.16619E-04 10080   0.182E-03 0.166E-04
CGA:  20    -0.378488087696E+03   -0.27064E-04   -0.48482E-04 10080   0.873E-03-0.282E-03
CGA:  21    -0.378488134510E+03   -0.46813E-04   -0.47825E-04 10080   0.737E-04 0.127E-04
CGA:  22    -0.378488173467E+03   -0.38958E-04    0.82664E-05 10080   0.386E-04 0.642E-05
CGA:  23    -0.378488172721E+03    0.74608E-06   -0.16651E-04 10080   0.210E-03-0.712E-04
CGA:  24    -0.378488193113E+03   -0.20392E-04   -0.18874E-04 10080   0.290E-04-0.191E-04
CGA:  25    -0.378488192793E+03    0.32033E-06   -0.15007E-05 10080   0.127E-04 0.174E-04
  24 F= -.37848819E+03 E0= -.37848589E+03  d E =-.295976E-02  mag=     8.0000
       N       E                     dE             d eps       ncg     rms          ort
SDA:   1    -0.378291226029E+03    0.19697E+00    0.00000E+00 10080   0.491E+00 0.000E+00
CGA:   2    -0.378443617323E+03   -0.15239E+00   -0.15238E+00 10080   0.267E+00 0.474E-04
CGA:   3    -0.378470478136E+03   -0.26861E-01   -0.26783E-01 10080   0.140E+00-0.115E-02
CGA:   4    -0.378485941967E+03   -0.15464E-01   -0.15506E-01 10080   0.275E-01 0.171E-02
CGA:   5    -0.378489516287E+03   -0.35743E-02   -0.35483E-02 10080   0.113E-01-0.100E-02
CGA:   6    -0.378490851462E+03   -0.13352E-02   -0.13443E-02 10080   0.287E-02 0.340E-03
CGA:   7    -0.378491262452E+03   -0.41099E-03   -0.41126E-03 10080   0.181E-02 0.266E-04
CGA:   8    -0.378491473635E+03   -0.21118E-03   -0.21086E-03 10080   0.522E-03-0.607E-05
CGA:   9    -0.378491575307E+03   -0.10167E-03   -0.11533E-03 10080   0.928E-03-0.186E-03
CGA:  10    -0.378491603591E+03   -0.28284E-04   -0.36454E-04 10080   0.339E-03 0.901E-04
CGA:  11    -0.378491612009E+03   -0.84178E-05   -0.16673E-04 10080   0.162E-03 0.807E-04
CGA:  12    -0.378491629735E+03   -0.17727E-04   -0.19953E-04 10080   0.222E-03 0.515E-04
CGA:  13    -0.378491662892E+03   -0.33157E-04   -0.30514E-04 10080   0.807E-04-0.726E-04
CGA:  14    -0.378491665624E+03   -0.27318E-05   -0.16691E-04 10080   0.340E-03-0.826E-04
CGA:  15    -0.378491678478E+03   -0.12854E-04   -0.18483E-04 10080   0.429E-04 0.618E-04
CGA:  16    -0.378491684573E+03   -0.60952E-05   -0.63263E-05 10080   0.428E-04 0.131E-04
CGA:  17    -0.378491687945E+03   -0.33721E-05   -0.16785E-04 10080   0.128E-03-0.840E-04
  25 F= -.37849169E+03 E0= -.37848939E+03  d E =-.349515E-02  mag=     8.0000
       N       E                     dE             d eps       ncg     rms          ort
SDA:   1    -0.377902229621E+03    0.58945E+00    0.00000E+00 10080   0.145E+01 0.000E+00
CGA:   2    -0.378357410269E+03   -0.45518E+00   -0.45505E+00 10080   0.839E+00 0.644E-03
CGA:   3    -0.378430287124E+03   -0.72877E-01   -0.74166E-01 10080   0.403E+00-0.971E-02
CGA:   4    -0.378482434003E+03   -0.52147E-01   -0.52130E-01 10080   0.564E-01 0.135E-02
CGA:   5    -0.378492123348E+03   -0.96893E-02   -0.97067E-02 10080   0.245E-01-0.786E-03
CGA:   6    -0.378494338494E+03   -0.22151E-02   -0.22208E-02 10080   0.945E-02 0.214E-03
CGA:   7    -0.378495796643E+03   -0.14581E-02   -0.14607E-02 10080   0.384E-02-0.448E-03
CGA:   8    -0.378496156711E+03   -0.36007E-03   -0.38147E-03 10080   0.135E-02 0.501E-03
CGA:   9    -0.378496475424E+03   -0.31871E-03   -0.32227E-03 10080   0.881E-03-0.528E-04
CGA:  10    -0.378496564266E+03   -0.88842E-04   -0.92102E-04 10080   0.520E-03 0.828E-04
CGA:  11    -0.378496695887E+03   -0.13162E-03   -0.13419E-03 10080   0.315E-03-0.286E-04
CGA:  12    -0.378496717849E+03   -0.21962E-04   -0.26985E-04 10080   0.162E-03 0.831E-04
CGA:  13    -0.378496758340E+03   -0.40492E-04   -0.38833E-04 10080   0.879E-04 0.399E-04
CGA:  14    -0.378496760790E+03   -0.24493E-05   -0.36594E-04 10080   0.759E-03-0.185E-03
CGA:  15    -0.378496787173E+03   -0.26383E-04   -0.39842E-04 10080   0.737E-04 0.129E-03
CGA:  16    -0.378496789593E+03   -0.24205E-05   -0.54467E-05 10080   0.337E-04 0.334E-04
  26 F= -.37849679E+03 E0= -.37849450E+03  d E =-.510165E-02  mag=     8.0000
       N       E                     dE             d eps       ncg     rms          ort
SDA:   1    -0.372463469725E+03    0.60333E+01    0.00000E+00 10080   0.146E+02 0.000E+00
CGA:   2    -0.377209443151E+03   -0.47460E+01   -0.47557E+01 10080   0.641E+01-0.548E-01
CGA:   3    -0.378003133233E+03   -0.79369E+00   -0.80490E+00 10080   0.328E+01 0.114E+00
CGA:   4    -0.378366758335E+03   -0.36363E+00   -0.35529E+00 10080   0.539E+00 0.955E-02
CGA:   5    -0.378454449053E+03   -0.87691E-01   -0.87755E-01 10080   0.241E+00-0.463E-02
CGA:   6    -0.378476544578E+03   -0.22096E-01   -0.22219E-01 10080   0.102E+00-0.418E-02
CGA:   7    -0.378490203181E+03   -0.13659E-01   -0.13672E-01 10080   0.369E-01 0.138E-02
CGA:   8    -0.378494727168E+03   -0.45240E-02   -0.45223E-02 10080   0.187E-01 0.646E-04
CGA:   9    -0.378497841429E+03   -0.31143E-02   -0.31069E-02 10080   0.843E-02 0.443E-03
CGA:  10    -0.378499374165E+03   -0.15327E-02   -0.15855E-02 10080   0.958E-02-0.150E-02
CGA:  11    -0.378500459883E+03   -0.10857E-02   -0.10857E-02 10080   0.336E-02 0.184E-04
CGA:  12    -0.378500939192E+03   -0.47931E-03   -0.47979E-03 10080   0.309E-02 0.670E-04
CGA:  13    -0.378501384609E+03   -0.44542E-03   -0.44491E-03 10080   0.100E-02-0.569E-04
CGA:  14    -0.378501508345E+03   -0.12374E-03   -0.34527E-03 10080   0.444E-02-0.109E-02
CGA:  15    -0.378501750444E+03   -0.24210E-03   -0.27491E-03 10080   0.390E-03 0.354E-03
CGA:  16    -0.378501786591E+03   -0.36147E-04   -0.43104E-04 10080   0.249E-03 0.134E-03
CGA:  17    -0.378501836774E+03   -0.50183E-04   -0.50346E-04 10080   0.131E-03 0.976E-04
CGA:  18    -0.378501868994E+03   -0.32219E-04   -0.51449E-04 10080   0.655E-03-0.147E-03
CGA:  19    -0.378501903099E+03   -0.34105E-04   -0.40142E-04 10080   0.784E-04 0.643E-04
CGA:  20    -0.378501909128E+03   -0.60291E-05   -0.83267E-05 10080   0.551E-04 0.406E-04
CGA:  21    -0.378501929650E+03   -0.20522E-04    0.17501E-04 10080   0.552E-04 0.887E-05
CGA:  22    -0.378501944955E+03   -0.15305E-04   -0.14041E-04 10080   0.348E-04 0.184E-04
CGA:  23    -0.378501953626E+03   -0.86708E-05   -0.87029E-05 10080   0.667E-04-0.884E-06
CGA:  24    -0.378501967037E+03   -0.13411E-04   -0.12935E-04 10080   0.634E-04 0.109E-04
CGA:  25    -0.378501977490E+03   -0.10453E-04   -0.15666E-04 10080   0.198E-03-0.955E-04
CGA:  26    -0.378501986328E+03   -0.88384E-05   -0.11638E-04 10080   0.161E-04 0.281E-04
  27 F= -.37850199E+03 E0= -.37849969E+03  d E =-.519673E-02  mag=     8.0000
       N       E                     dE             d eps       ncg     rms          ort
SDA:   1    -0.373104672701E+03    0.53973E+01    0.00000E+00 10080   0.124E+02 0.000E+00
CGA:   2    -0.376524731957E+03   -0.34201E+01   -0.33916E+01 10080   0.925E+01 0.212E+00
CGA:   3    -0.377418332279E+03   -0.89360E+00   -0.78860E+00 10080   0.267E+01 0.737E+00
CGA:   4    -0.377937464773E+03   -0.51913E+00   -0.51916E+00 10080   0.746E+00-0.108E-02
CGA:   5    -0.378033862301E+03   -0.96398E-01   -0.96014E-01 10080   0.446E+00-0.359E-02
CGA:   6    -0.378079446265E+03   -0.45584E-01   -0.45930E-01 10080   0.109E+00-0.249E-03
CGA:   7    -0.378097996092E+03   -0.18550E-01   -0.18579E-01 10080   0.608E-01-0.121E-02
CGA:   8    -0.378105791714E+03   -0.77956E-02   -0.78063E-02 10080   0.243E-01 0.523E-03
CGA:   9    -0.378111191982E+03   -0.54003E-02   -0.55287E-02 10080   0.178E-01-0.170E-02
CGA:  10    -0.378112709020E+03   -0.15170E-02   -0.15284E-02 10080   0.829E-02 0.183E-03
CGA:  11    -0.378114677344E+03   -0.19683E-02   -0.20145E-02 10080   0.297E-02-0.513E-03
CGA:  12    -0.378115222213E+03   -0.54487E-03   -0.56061E-03 10080   0.348E-02-0.343E-03
CGA:  13    -0.378115551062E+03   -0.32885E-03   -0.33671E-03 10080   0.108E-02 0.171E-03
CGA:  14    -0.378115707584E+03   -0.15652E-03   -0.15506E-03 10080   0.102E-02-0.812E-04
CGA:  15    -0.378115920420E+03   -0.21284E-03   -0.23311E-03 10080   0.681E-03-0.219E-03
CGA:  16    -0.378115966258E+03   -0.45839E-04   -0.52016E-04 10080   0.540E-03 0.100E-03
CGA:  17    -0.378116095387E+03   -0.12913E-03   -0.12244E-03 10080   0.346E-03 0.158E-03
CGA:  18    -0.378116158779E+03   -0.63392E-04   -0.62948E-04 10080   0.482E-03-0.274E-04
CGA:  19    -0.378116214549E+03   -0.55770E-04   -0.58512E-04 10080   0.303E-03 0.108E-03
CGA:  20    -0.378116229840E+03   -0.15290E-04   -0.23960E-04 10080   0.157E-03 0.954E-04
CGA:  21    -0.378116249885E+03   -0.20046E-04   -0.23986E-04 10080   0.181E-03 0.111E-03
CGA:  22    -0.378116266149E+03   -0.16264E-04   -0.15905E-04 10080   0.932E-04-0.603E-05
CGA:  23    -0.378116274581E+03   -0.84314E-05   -0.10377E-04 10080   0.466E-04 0.621E-04
  28 F= -.37811627E+03 E0= -.37811367E+03  d E =0.385712E+00  mag=     8.0000
       N       E                     dE             d eps       ncg     rms          ort
SDA:   1    -0.377585974610E+03    0.53029E+00    0.00000E+00 10080   0.199E+01 0.000E+00
CGA:   2    -0.378212578685E+03   -0.62660E+00   -0.62719E+00 10080   0.147E+01-0.404E-02
CGA:   3    -0.378326160622E+03   -0.11358E+00   -0.11351E+00 10080   0.418E+00 0.625E-03
CGA:   4    -0.378406468563E+03   -0.80308E-01   -0.80338E-01 10080   0.858E-01-0.483E-03
CGA:   5    -0.378420638884E+03   -0.14170E-01   -0.14198E-01 10080   0.509E-01-0.163E-02
CGA:   6    -0.378425236336E+03   -0.45975E-02   -0.46454E-02 10080   0.150E-01 0.114E-02
CGA:   7    -0.378428128685E+03   -0.28923E-02   -0.29210E-02 10080   0.844E-02-0.642E-03
CGA:   8    -0.378429226316E+03   -0.10976E-02   -0.10935E-02 10080   0.444E-02-0.274E-03
CGA:   9    -0.378430002102E+03   -0.77579E-03   -0.79262E-03 10080   0.295E-02-0.459E-03
CGA:  10    -0.378430259369E+03   -0.25727E-03   -0.25723E-03 10080   0.120E-02 0.128E-04
CGA:  11    -0.378430561217E+03   -0.30185E-03   -0.38650E-03 10080   0.764E-03-0.490E-03
CGA:  12    -0.378430642497E+03   -0.81280E-04   -0.96077E-04 10080   0.934E-03-0.261E-03
CGA:  13    -0.378430703555E+03   -0.61058E-04   -0.58523E-04 10080   0.287E-03-0.385E-04
CGA:  14    -0.378430750754E+03   -0.47199E-04   -0.56474E-04 10080   0.596E-03-0.186E-03
CGA:  15    -0.378430792908E+03   -0.42154E-04   -0.44443E-04 10080   0.886E-04 0.285E-04
CGA:  16    -0.378430809409E+03   -0.16501E-04   -0.15891E-04 10080   0.801E-04 0.348E-04
CGA:  17    -0.378430745316E+03    0.64093E-04   -0.71994E-04 10080   0.161E-02-0.277E-03
CGA:  18    -0.378430827631E+03   -0.82316E-04   -0.10061E-03 10080   0.147E-03 0.164E-03
CGA:  19    -0.378430852342E+03   -0.24711E-04   -0.24573E-04 10080   0.132E-03-0.620E-05
CGA:  20    -0.378430875048E+03   -0.22706E-04   -0.23793E-04 10080   0.449E-04-0.668E-04
CGA:  21    -0.378430881321E+03   -0.62731E-05   -0.65128E-05 10080   0.205E-04 0.859E-05
CGA:  22    -0.378430813656E+03    0.67665E-04   -0.20010E-04 10080   0.107E-02-0.135E-03
CGA:  23    -0.378430874001E+03   -0.60345E-04   -0.65795E-04 10080   0.127E-03 0.403E-04
CGA:  24    -0.378430896332E+03   -0.22332E-04   -0.22608E-04 10080   0.519E-04 0.108E-04
CGA:  25    -0.378430898480E+03   -0.21481E-05   -0.18193E-04 10080   0.334E-03-0.125E-03
CGA:  26    -0.378430909490E+03   -0.11010E-04   -0.19779E-04 10080   0.271E-04 0.625E-04
CGA:  27    -0.378430911122E+03   -0.16324E-05   -0.25559E-05 10080   0.125E-04 0.806E-05
CGA:  28    -0.378430830077E+03    0.81046E-04   -0.43719E-04 10080   0.470E-03-0.964E-04
CGA:  29    -0.378430874626E+03   -0.44549E-04   -0.52833E-04 10080   0.290E-03 0.367E-04
CGA:  30    -0.378430937263E+03   -0.62637E-04   -0.51881E-04 10080   0.558E-04-0.638E-04
CGA:  31    -0.378430936312E+03    0.95130E-06   -0.24307E-05 10080   0.138E-04 0.127E-04
  29 F= -.37843094E+03 E0= -.37842857E+03  d E =-.314662E+00  mag=     8.0000
       N       E                     dE             d eps       ncg     rms          ort
SDA:   1    -0.378402293728E+03    0.28644E-01    0.00000E+00 10080   0.185E+00 0.000E+00
CGA:   2    -0.378450603355E+03   -0.48310E-01   -0.48330E-01 10080   0.201E+00 0.112E-02
CGA:   3    -0.378466993991E+03   -0.16391E-01   -0.16881E-01 10080   0.406E-01-0.522E-02
CGA:   4    -0.378474814183E+03   -0.78202E-02   -0.78034E-02 10080   0.103E-01-0.163E-03
CGA:   5    -0.378476223931E+03   -0.14097E-02   -0.13912E-02 10080   0.595E-02-0.128E-03
CGA:   6    -0.378476849817E+03   -0.62589E-03   -0.61784E-03 10080   0.148E-02-0.555E-04
CGA:   7    -0.378477106088E+03   -0.25627E-03   -0.25942E-03 10080   0.875E-03 0.384E-04
CGA:   8    -0.378477237717E+03   -0.13163E-03   -0.11367E-03 10080   0.637E-03-0.133E-03
CGA:   9    -0.378477300629E+03   -0.62912E-04   -0.69435E-04 10080   0.190E-03 0.529E-04
CGA:  10    -0.378477335522E+03   -0.34893E-04   -0.35801E-04 10080   0.142E-03 0.125E-04
CGA:  11    -0.378477368107E+03   -0.32586E-04   -0.29647E-04 10080   0.175E-03-0.598E-04
CGA:  12    -0.378477380949E+03   -0.12842E-04   -0.90919E-05 10080   0.803E-04-0.242E-04
CGA:  13    -0.378477392087E+03   -0.11138E-04   -0.88634E-05 10080   0.962E-04-0.211E-04
CGA:  14    -0.378477406754E+03   -0.14667E-04   -0.10318E-04 10080   0.930E-04-0.519E-04
CGA:  15    -0.378477414563E+03   -0.78094E-05   -0.78950E-05 10080   0.269E-04 0.949E-06
CGA:  16    -0.378477416912E+03   -0.23492E-05   -0.12687E-04 10080   0.244E-03-0.414E-04
CGA:  17    -0.378477422446E+03   -0.55338E-05   -0.11726E-04 10080   0.204E-04 0.351E-04
  30 F= -.37847742E+03 E0= -.37847512E+03  d E =-.464861E-01  mag=     8.0000
       N       E                     dE             d eps       ncg     rms          ort
SDA:   1    -0.378075400153E+03    0.40202E+00    0.00000E+00 10080   0.113E+01 0.000E+00
CGA:   2    -0.378353278076E+03   -0.27788E+00   -0.27793E+00 10080   0.108E+01 0.114E-02
CGA:   3    -0.378445450561E+03   -0.92172E-01   -0.95061E-01 10080   0.292E+00-0.167E-01
CGA:   4    -0.378495706055E+03   -0.50255E-01   -0.50229E-01 10080   0.803E-01-0.954E-03
CGA:   5    -0.378504541227E+03   -0.88352E-02   -0.87941E-02 10080   0.471E-01 0.127E-02
CGA:   6    -0.378509866677E+03   -0.53255E-02   -0.52312E-02 10080   0.113E-01-0.120E-02
CGA:   7    -0.378511550786E+03   -0.16841E-02   -0.16863E-02 10080   0.681E-02 0.666E-04
CGA:   8    -0.378512411256E+03   -0.86047E-03   -0.84382E-03 10080   0.302E-02-0.209E-03
CGA:   9    -0.378512781366E+03   -0.37011E-03   -0.39467E-03 10080   0.144E-02 0.420E-03
CGA:  10    -0.378513054792E+03   -0.27343E-03   -0.27090E-03 10080   0.118E-02-0.942E-04
CGA:  11    -0.378513148901E+03   -0.94109E-04   -0.10705E-03 10080   0.427E-03 0.144E-03
CGA:  12    -0.378513239740E+03   -0.90839E-04   -0.90751E-04 10080   0.300E-03 0.244E-04
CGA:  13    -0.378513285767E+03   -0.46027E-04   -0.99816E-04 10080   0.127E-02-0.416E-03
CGA:  14    -0.378513329260E+03   -0.43493E-04   -0.69921E-04 10080   0.178E-03 0.201E-03
CGA:  15    -0.378513341274E+03   -0.12014E-04   -0.17983E-04 10080   0.899E-04 0.613E-04
CGA:  16    -0.378513364240E+03   -0.22966E-04   -0.23372E-04 10080   0.126E-03-0.314E-04
CGA:  17    -0.378513366706E+03   -0.24664E-05   -0.36388E-05 10080   0.659E-04 0.875E-05
  31 F= -.37851337E+03 E0= -.37851111E+03  d E =-.359443E-01  mag=     8.0000
       N       E                     dE             d eps       ncg     rms          ort
SDA:   1    -0.378505733015E+03    0.76312E-02    0.00000E+00 10080   0.316E-01 0.000E+00
CGA:   2    -0.378510157175E+03   -0.44242E-02   -0.44572E-02 10080   0.331E-01 0.132E-02
CGA:   3    -0.378513824778E+03   -0.36676E-02   -0.36585E-02 10080   0.707E-02-0.202E-03
CGA:   4    -0.378514969087E+03   -0.11443E-02   -0.11445E-02 10080   0.296E-02 0.389E-03
CGA:   5    -0.378515329336E+03   -0.36025E-03   -0.34100E-03 10080   0.142E-02-0.359E-03
CGA:   6    -0.378515460084E+03   -0.13075E-03   -0.13310E-03 10080   0.342E-03 0.466E-04
CGA:   7    -0.378515505462E+03   -0.45378E-04   -0.45172E-04 10080   0.164E-03-0.621E-05
CGA:   8    -0.378515521306E+03   -0.15844E-04   -0.17247E-04 10080   0.522E-04 0.285E-04
CGA:   9    -0.378515503731E+03    0.17575E-04   -0.32334E-04 10080   0.720E-03-0.133E-03
CGA:  10    -0.378515528172E+03   -0.24440E-04   -0.39878E-04 10080   0.634E-04 0.134E-03
CGA:  11    -0.378515530971E+03   -0.27994E-05   -0.51341E-05 10080   0.275E-04 0.238E-04
CGA:  12    -0.378515538381E+03   -0.74102E-05   -0.10137E-04 10080   0.600E-04-0.257E-04
  32 F= -.37851554E+03 E0= -.37851330E+03  d E =-.217167E-02  mag=     8.0000
       N       E                     dE             d eps       ncg     rms          ort
SDA:   1    -0.378462554474E+03    0.52976E-01    0.00000E+00 10080   0.147E+00 0.000E+00
CGA:   2    -0.378497192634E+03   -0.34638E-01   -0.34489E-01 10080   0.175E+00 0.221E-02
CGA:   3    -0.378511021051E+03   -0.13828E-01   -0.13732E-01 10080   0.330E-01-0.226E-02
CGA:   4    -0.378516787300E+03   -0.57662E-02   -0.57625E-02 10080   0.134E-01 0.301E-03
CGA:   5    -0.378518062564E+03   -0.12753E-02   -0.12668E-02 10080   0.463E-02-0.140E-03
CGA:   6    -0.378518690488E+03   -0.62792E-03   -0.63115E-03 10080   0.125E-02 0.158E-03
CGA:   7    -0.378518892026E+03   -0.20154E-03   -0.20062E-03 10080   0.135E-02-0.305E-03
CGA:   8    -0.378518967623E+03   -0.75596E-04   -0.84831E-04 10080   0.368E-03 0.125E-03
CGA:   9    -0.378518986935E+03   -0.19313E-04   -0.28160E-04 10080   0.215E-03 0.106E-03
CGA:  10    -0.378519021849E+03   -0.34913E-04   -0.35110E-04 10080   0.186E-03 0.878E-05
CGA:  11    -0.378519052010E+03   -0.30162E-04   -0.31874E-04 10080   0.167E-03-0.111E-03
CGA:  12    -0.378519058435E+03   -0.64250E-05   -0.10602E-04 10080   0.555E-04 0.487E-04
CGA:  13    -0.378519071252E+03   -0.12817E-04   -0.13150E-04 10080   0.285E-04-0.876E-05
CGA:  14    -0.378519081806E+03   -0.10554E-04    0.36064E-05 10080   0.409E-04-0.184E-04
CGA:  15    -0.378519081521E+03    0.28490E-06   -0.16425E-05 10080   0.117E-04 0.180E-04
  33 F= -.37851908E+03 E0= -.37851687E+03  d E =-.354314E-02  mag=     8.0000
       N       E                     dE             d eps       ncg     rms          ort
SDA:   1    -0.378518373204E+03    0.70860E-03    0.00000E+00 10080   0.280E-02 0.000E+00
CGA:   2    -0.378518714413E+03   -0.34121E-03   -0.34394E-03 10080   0.289E-02 0.203E-03
CGA:   3    -0.378519183941E+03   -0.46953E-03   -0.47700E-03 10080   0.787E-03-0.421E-03
CGA:   4    -0.378519240183E+03   -0.56241E-04   -0.61769E-04 10080   0.271E-03 0.123E-03
CGA:   5    -0.378519288177E+03   -0.47994E-04   -0.48347E-04 10080   0.718E-04-0.181E-04
CGA:   6    -0.378519289752E+03   -0.15750E-05   -0.40515E-05 10080   0.284E-04 0.329E-04
  34 F= -.37851929E+03 E0= -.37851708E+03  d E =-.208231E-03  mag=     8.0000
       N       E                     dE             d eps       ncg     rms          ort
SDA:   1    -0.378514086754E+03    0.52014E-02    0.00000E+00 10080   0.170E-01 0.000E+00
CGA:   2    -0.378516505756E+03   -0.24190E-02   -0.24071E-02 10080   0.190E-01 0.101E-02
CGA:   3    -0.378519074382E+03   -0.25686E-02   -0.25670E-02 10080   0.422E-02-0.624E-03
CGA:   4    -0.378519532268E+03   -0.45789E-03   -0.46160E-03 10080   0.204E-02 0.235E-03
CGA:   5    -0.378519782778E+03   -0.25051E-03   -0.24864E-03 10080   0.476E-03-0.137E-03
CGA:   6    -0.378519824440E+03   -0.41663E-04   -0.43806E-04 10080   0.141E-03 0.731E-04
CGA:   7    -0.378519850207E+03   -0.25766E-04   -0.48188E-04 10080   0.359E-03-0.133E-03
CGA:   8    -0.378519859753E+03   -0.95466E-05   -0.16279E-04 10080   0.511E-04 0.760E-04
  35 F= -.37851986E+03 E0= -.37851765E+03  d E =-.570002E-03  mag=     8.0000
       N       E                     dE             d eps       ncg     rms          ort
SDA:   1    -0.378488430940E+03    0.31419E-01    0.00000E+00 10080   0.878E-01 0.000E+00
CGA:   2    -0.378505054808E+03   -0.16624E-01   -0.16521E-01 10080   0.121E+00 0.187E-02
CGA:   3    -0.378516536531E+03   -0.11482E-01   -0.11426E-01 10080   0.194E-01-0.177E-02
CGA:   4    -0.378519800088E+03   -0.32636E-02   -0.32493E-02 10080   0.706E-02 0.366E-03
CGA:   5    -0.378520451397E+03   -0.65131E-03   -0.64498E-03 10080   0.236E-02-0.158E-03
CGA:   6    -0.378520742811E+03   -0.29141E-03   -0.29198E-03 10080   0.590E-03 0.200E-03
CGA:   7    -0.378520844098E+03   -0.10129E-03   -0.12775E-03 10080   0.129E-02-0.374E-03
CGA:   8    -0.378520884870E+03   -0.40772E-04   -0.57122E-04 10080   0.100E-03 0.190E-03
CGA:   9    -0.378520889755E+03   -0.48847E-05   -0.77636E-05 10080   0.685E-04 0.475E-04
CGA:  10    -0.378520907751E+03   -0.17996E-04   -0.20563E-04 10080   0.109E-03-0.326E-04
CGA:  11    -0.378520915472E+03   -0.77206E-05   -0.55908E-05 10080   0.884E-04-0.682E-04
[...]
CGA:   6    -0.378676532414E+03   -0.28574E-03   -0.28344E-03 10080   0.421E-03-0.469E-04
CGA:   7    -0.378676593930E+03   -0.61516E-04   -0.62634E-04 10080   0.211E-03 0.316E-04
CGA:   8    -0.378676632240E+03   -0.38310E-04   -0.35561E-04 10080   0.236E-03-0.929E-04
CGA:   9    -0.378676655119E+03   -0.22880E-04   -0.20342E-04 10080   0.111E-03-0.826E-04
CGA:  10    -0.378676689079E+03   -0.33959E-04    0.22715E-04 10080   0.961E-04-0.111E-04
CGA:  11    -0.378676721743E+03   -0.32664E-04    0.24787E-03 10080   0.153E-03-0.678E-04
CGA:  12    -0.378676728075E+03   -0.63322E-05   -0.90561E-05 10080   0.281E-04 0.221E-04
  92 F= -.37867673E+03 E0= -.37867200E+03  d E =-.219175E-02  mag=     8.0000
       N       E                     dE             d eps       ncg     rms          ort
SDA:   1    -0.378570242560E+03    0.10648E+00    0.00000E+00 10080   0.415E+00 0.000E+00
CGA:   2    -0.378625483228E+03   -0.55241E-01   -0.55425E-01 10080   0.289E+00 0.198E-02
CGA:   3    -0.378658032887E+03   -0.32550E-01   -0.32365E-01 10080   0.825E-01-0.176E-03
CGA:   4    -0.378673649954E+03   -0.15617E-01   -0.15618E-01 10080   0.339E-01-0.340E-04
CGA:   5    -0.378676660753E+03   -0.30108E-02   -0.30252E-02 10080   0.132E-01 0.227E-03
CGA:   6    -0.378678517961E+03   -0.18572E-02   -0.18477E-02 10080   0.273E-02-0.324E-03
CGA:   7    -0.378678936487E+03   -0.41853E-03   -0.41921E-03 10080   0.147E-02 0.786E-04
CGA:   8    -0.378679119996E+03   -0.18351E-03   -0.17470E-03 10080   0.679E-03-0.175E-03
CGA:   9    -0.378679224416E+03   -0.10442E-03   -0.10547E-03 10080   0.404E-03-0.782E-04
CGA:  10    -0.378679285558E+03   -0.61142E-04   -0.70865E-04 10080   0.857E-03-0.280E-03
CGA:  11    -0.378679327330E+03   -0.41772E-04   -0.45538E-04 10080   0.976E-04 0.348E-04
CGA:  12    -0.378679220162E+03    0.10717E-03   -0.63232E-04 10080   0.996E-03-0.251E-03
CGA:  13    -0.378679402801E+03   -0.18264E-03   -0.17684E-03 10080   0.500E-03-0.513E-04
CGA:  14    -0.378679434335E+03   -0.31533E-04   -0.31655E-04 10080   0.652E-04 0.126E-05
CGA:  15    -0.378679454624E+03   -0.20290E-04   -0.26454E-04 10080   0.139E-03-0.475E-04
CGA:  16    -0.378679463843E+03   -0.92192E-05   -0.96448E-05 10080   0.262E-04 0.198E-05
CGA:  17    -0.378679479794E+03   -0.15951E-04    0.32716E-04 10080   0.141E-04-0.853E-05
CGA:  18    -0.378679492114E+03   -0.12320E-04    0.92023E-06 10080   0.267E-04-0.101E-05
CGA:  19    -0.378679514570E+03   -0.22455E-04    0.49707E-05 10080   0.744E-04-0.217E-04
CGA:  20    -0.378679524155E+03   -0.95857E-05   -0.58953E-05 10080   0.253E-04-0.191E-04
CGA:  21    -0.378679416700E+03    0.10746E-03   -0.24309E-04 10080   0.171E-02-0.128E-03
CGA:  22    -0.378679531014E+03   -0.11431E-03   -0.10661E-03 10080   0.237E-03-0.251E-04
CGA:  23    -0.378679558102E+03   -0.27087E-04   -0.32658E-04 10080   0.148E-04 0.346E-04
CGA:  24    -0.378679568922E+03   -0.10821E-04    0.26794E-04 10080   0.155E-04-0.140E-05
CGA:  25    -0.378679571557E+03   -0.26342E-05   -0.16420E-05 10080   0.877E-05-0.564E-05
  93 F= -.37867957E+03 E0= -.37867479E+03  d E =-.284348E-02  mag=     8.0000
       N       E                     dE             d eps       ncg     rms          ort
SDA:   1    -0.378656335752E+03    0.23233E-01    0.00000E+00 10080   0.654E-01 0.000E+00
CGA:   2    -0.378670672644E+03   -0.14337E-01   -0.14338E-01 10080   0.679E-01 0.725E-04
CGA:   3    -0.378676340844E+03   -0.56682E-02   -0.57182E-02 10080   0.174E-01-0.352E-03
CGA:   4    -0.378679364911E+03   -0.30241E-02   -0.30171E-02 10080   0.375E-02-0.653E-04
CGA:   5    -0.378679840660E+03   -0.47575E-03   -0.47935E-03 10080   0.194E-02 0.310E-04
CGA:   6    -0.378680058302E+03   -0.21764E-03   -0.20086E-03 10080   0.503E-03-0.108E-03
CGA:   7    -0.378680127379E+03   -0.69077E-04   -0.70953E-04 10080   0.214E-03 0.188E-04
CGA:   8    -0.378680155595E+03   -0.28216E-04   -0.25957E-04 10080   0.124E-03-0.174E-04
CGA:   9    -0.378680172111E+03   -0.16516E-04   -0.16602E-04 10080   0.404E-04 0.101E-05
CGA:  10    -0.378680174321E+03   -0.22106E-05   -0.21560E-04 10080   0.380E-03-0.657E-04
CGA:  11    -0.378680193446E+03   -0.19125E-04   -0.20982E-04 10080   0.390E-04 0.102E-04
CGA:  12    -0.378680203875E+03   -0.10429E-04   -0.11144E-04 10080   0.341E-04-0.185E-04
CGA:  13    -0.378680204968E+03   -0.10933E-05   -0.11419E-05 10080   0.160E-04 0.302E-06
  94 F= -.37868020E+03 E0= -.37867540E+03  d E =-.633411E-03  mag=     8.0000
       N       E                     dE             d eps       ncg     rms          ort
SDA:   1    -0.378581594225E+03    0.98610E-01    0.00000E+00 10080   0.264E+00 0.000E+00
CGA:   2    -0.378635870033E+03   -0.54276E-01   -0.54288E-01 10080   0.334E+00 0.939E-03
CGA:   3    -0.378667577273E+03   -0.31707E-01   -0.31609E-01 10080   0.562E-01-0.354E-03
CGA:   4    -0.378676543399E+03   -0.89661E-02   -0.89738E-02 10080   0.299E-01 0.859E-04
CGA:   5    -0.378678933546E+03   -0.23901E-02   -0.23869E-02 10080   0.563E-02 0.515E-04
CGA:   6    -0.378679984153E+03   -0.10506E-02   -0.10492E-02 10080   0.138E-02-0.553E-04
CGA:   7    -0.378680204566E+03   -0.22041E-03   -0.22051E-03 10080   0.968E-03 0.286E-05
CGA:   8    -0.378680294230E+03   -0.89664E-04   -0.92760E-04 10080   0.254E-03 0.290E-04
CGA:   9    -0.378680357358E+03   -0.63128E-04   -0.65053E-04 10080   0.278E-03-0.417E-04
CGA:  10    -0.378680372286E+03   -0.14928E-04   -0.17480E-04 10080   0.861E-04 0.202E-04
CGA:  11    -0.378680393043E+03   -0.20757E-04   -0.20905E-04 10080   0.149E-03-0.526E-05
CGA:  12    -0.378680410809E+03   -0.17766E-04   -0.12858E-04 10080   0.522E-04-0.455E-04
CGA:  13    -0.378680420693E+03   -0.98838E-05   -0.11526E-04 10080   0.487E-04-0.133E-04
  95 F= -.37868042E+03 E0= -.37867554E+03  d E =-.215725E-03  mag=     8.0000
       N       E                     dE             d eps       ncg     rms          ort
SDA:   1    -0.378636228572E+03    0.44182E-01    0.00000E+00 10080   0.108E+00 0.000E+00
CGA:   2    -0.378666549582E+03   -0.30321E-01   -0.30423E-01 10080   0.125E+00-0.114E-02
CGA:   3    -0.378676054824E+03   -0.95052E-02   -0.95347E-02 10080   0.198E-01 0.131E-02
CGA:   4    -0.378679721686E+03   -0.36669E-02   -0.36687E-02 10080   0.604E-02 0.219E-03
CGA:   5    -0.378680246366E+03   -0.52468E-03   -0.53331E-03 10080   0.227E-02 0.109E-03
CGA:   6    -0.378680586806E+03   -0.34044E-03   -0.34458E-03 10080   0.427E-03 0.115E-03
CGA:   7    -0.378680685420E+03   -0.98614E-04   -0.97595E-04 10080   0.130E-03 0.300E-04
CGA:   8    -0.378680711121E+03   -0.25701E-04   -0.25704E-04 10080   0.146E-03 0.470E-05
CGA:   9    -0.378680718860E+03   -0.77396E-05   -0.11535E-04 10080   0.335E-04 0.348E-04
  96 F= -.37868072E+03 E0= -.37867578E+03  d E =-.298167E-03  mag=     8.0000
       N       E                     dE             d eps       ncg     rms          ort
SDA:   1    -0.378640684898E+03    0.40026E-01    0.00000E+00 10080   0.102E+00 0.000E+00
CGA:   2    -0.378665789110E+03   -0.25104E-01   -0.25141E-01 10080   0.137E+00-0.500E-03
CGA:   3    -0.378676372248E+03   -0.10583E-01   -0.10489E-01 10080   0.217E-01-0.293E-03
CGA:   4    -0.378680281263E+03   -0.39090E-02   -0.39058E-02 10080   0.417E-02 0.512E-03
CGA:   5    -0.378680858145E+03   -0.57688E-03   -0.58202E-03 10080   0.244E-02 0.141E-03
CGA:   6    -0.378681080356E+03   -0.22221E-03   -0.23467E-03 10080   0.493E-03 0.159E-03
CGA:   7    -0.378681177011E+03   -0.96656E-04   -0.95904E-04 10080   0.210E-03 0.536E-04
CGA:   8    -0.378681206330E+03   -0.29319E-04   -0.28269E-04 10080   0.177E-03-0.218E-04
CGA:   9    -0.378681224572E+03   -0.18242E-04   -0.19433E-04 10080   0.428E-04 0.271E-04
CGA:  10    -0.378681227435E+03   -0.28632E-05   -0.46305E-05 10080   0.332E-04 0.249E-04
  97 F= -.37868123E+03 E0= -.37867625E+03  d E =-.508575E-03  mag=     8.0000
       N       E                     dE             d eps       ncg     rms          ort
SDA:   1    -0.378370409467E+03    0.31082E+00    0.00000E+00 10080   0.766E+00 0.000E+00
CGA:   2    -0.378572913454E+03   -0.20250E+00   -0.20301E+00 10080   0.989E+00-0.477E-02
CGA:   3    -0.378647292468E+03   -0.74379E-01   -0.74048E-01 10080   0.146E+00 0.518E-02
CGA:   4    -0.378674380977E+03   -0.27089E-01   -0.27053E-01 10080   0.390E-01 0.154E-02
CGA:   5    -0.378678214339E+03   -0.38334E-02   -0.38246E-02 10080   0.186E-01-0.489E-04
CGA:   6    -0.378680553196E+03   -0.23389E-02   -0.23566E-02 10080   0.364E-02 0.584E-03
CGA:   7    -0.378681210830E+03   -0.65763E-03   -0.65860E-03 10080   0.289E-02-0.513E-04
CGA:   8    -0.378681447368E+03   -0.23654E-03   -0.23842E-03 10080   0.703E-03 0.307E-04
CGA:   9    -0.378681629578E+03   -0.18221E-03   -0.18516E-03 10080   0.287E-03-0.275E-04
CGA:  10    -0.378681695301E+03   -0.65724E-04   -0.73484E-04 10080   0.616E-03-0.721E-04
CGA:  11    -0.378681721835E+03   -0.26533E-04   -0.32017E-04 10080   0.180E-03 0.577E-04
CGA:  12    -0.378681726937E+03   -0.51026E-05   -0.10618E-04 10080   0.108E-03 0.521E-04
CGA:  13    -0.378681735223E+03   -0.82855E-05   -0.12460E-04 10080   0.107E-03 0.636E-04
  98 F= -.37868174E+03 E0= -.37867665E+03  d E =-.507788E-03  mag=     8.0000
       N       E                     dE             d eps       ncg     rms          ort
SDA:   1    -0.378361834229E+03    0.31989E+00    0.00000E+00 10080   0.743E+00 0.000E+00
CGA:   2    -0.378624702529E+03   -0.26287E+00   -0.26348E+00 10080   0.305E+00-0.299E-02
CGA:   3    -0.378655495358E+03   -0.30793E-01   -0.30845E-01 10080   0.172E+00 0.218E-02
CGA:   4    -0.378675613728E+03   -0.20118E-01   -0.20123E-01 10080   0.238E-01 0.135E-03
CGA:   5    -0.378679415390E+03   -0.38017E-02   -0.38016E-02 10080   0.146E-01 0.197E-04
CGA:   6    -0.378680629100E+03   -0.12137E-02   -0.12239E-02 10080   0.387E-02 0.164E-03
CGA:   7    -0.378681325262E+03   -0.69616E-03   -0.69483E-03 10080   0.127E-02 0.504E-04
CGA:   8    -0.378681475116E+03   -0.14985E-03   -0.15353E-03 10080   0.910E-03 0.116E-03
CGA:   9    -0.378681621169E+03   -0.14605E-03   -0.14600E-03 10080   0.339E-03-0.145E-04
CGA:  10    -0.378681677363E+03   -0.56194E-04   -0.55614E-04 10080   0.301E-03 0.356E-04
CGA:  11    -0.378681722249E+03   -0.44886E-04   -0.45264E-04 10080   0.131E-03 0.258E-04
CGA:  12    -0.378681738146E+03   -0.15897E-04   -0.17342E-04 10080   0.607E-04 0.506E-04
CGA:  13    -0.378681745128E+03   -0.69820E-05   -0.90477E-05 10080   0.266E-04 0.501E-04
  99 F= -.37868175E+03 E0= -.37867659E+03  d E =-.990549E-05  mag=     8.0000
       N       E                     dE             d eps       ncg     rms          ort
SDA:   1    -0.378625345838E+03    0.56392E-01    0.00000E+00 10080   0.136E+00 0.000E+00
CGA:   2    -0.378669006416E+03   -0.43661E-01   -0.43565E-01 10080   0.753E-01 0.540E-03
CGA:   3    -0.378676277038E+03   -0.72706E-02   -0.72827E-02 10080   0.375E-01 0.159E-03
CGA:   4    -0.378680672988E+03   -0.43960E-02   -0.43869E-02 10080   0.616E-02-0.256E-03
CGA:   5    -0.378681678068E+03   -0.10051E-02   -0.10097E-02 10080   0.340E-02-0.270E-03
CGA:   6    -0.378681953194E+03   -0.27513E-03   -0.26678E-03 10080   0.101E-02-0.128E-03
CGA:   7    -0.378682112514E+03   -0.15932E-03   -0.15898E-03 10080   0.282E-03 0.192E-04
CGA:   8    -0.378682141136E+03   -0.28621E-04   -0.30737E-04 10080   0.161E-03 0.536E-04
CGA:   9    -0.378682172204E+03   -0.31069E-04   -0.31211E-04 10080   0.687E-04-0.761E-05
CGA:  10    -0.378682177824E+03   -0.56197E-05   -0.65810E-05 10080   0.327E-04 0.214E-04
CGA:  11    -0.378682188299E+03   -0.10475E-04   -0.10538E-04 10080   0.140E-04-0.611E-06
CGA:  12    -0.378682190187E+03   -0.18887E-05   -0.19398E-05 10080   0.662E-05 0.749E-05
 100 F= -.37868219E+03 E0= -.37867701E+03  d E =-.445059E-03  mag=     8.0000
       N       E                     dE             d eps       ncg     rms          ort
SDA:   1    -0.378631949265E+03    0.50239E-01    0.00000E+00 10080   0.117E+00 0.000E+00
CGA:   2    -0.378673202178E+03   -0.41253E-01   -0.41507E-01 10080   0.459E-01-0.125E-02
CGA:   3    -0.378678065171E+03   -0.48630E-02   -0.48962E-02 10080   0.289E-01 0.675E-03
CGA:   4    -0.378681196544E+03   -0.31314E-02   -0.31353E-02 10080   0.354E-02 0.110E-03
CGA:   5    -0.378681795449E+03   -0.59890E-03   -0.59758E-03 10080   0.203E-02 0.875E-04
CGA:   6    -0.378681961060E+03   -0.16561E-03   -0.16856E-03 10080   0.594E-03 0.456E-04
CGA:   7    -0.378682062601E+03   -0.10154E-03   -0.10109E-03 10080   0.180E-03 0.274E-04
CGA:   8    -0.378682087246E+03   -0.24645E-04   -0.24956E-04 10080   0.142E-03 0.167E-04
CGA:   9    -0.378682109345E+03   -0.22099E-04   -0.22054E-04 10080   0.571E-04-0.555E-05
CGA:  10    -0.378682117444E+03   -0.80992E-05   -0.81187E-05 10080   0.391E-04 0.109E-04
 101 F= -.37868212E+03 E0= -.37867690E+03  d E =0.727433E-04  mag=     8.0000
       N       E                     dE             d eps       ncg     rms          ort
SDA:   1    -0.377907357562E+03    0.77475E+00    0.00000E+00 10080   0.185E+01 0.000E+00
CGA:   2    -0.378516103352E+03   -0.60875E+00   -0.60973E+00 10080   0.975E+00-0.581E-02
CGA:   3    -0.378600185960E+03   -0.84083E-01   -0.83574E-01 10080   0.464E+00 0.660E-02
CGA:   4    -0.378663889846E+03   -0.63704E-01   -0.63744E-01 10080   0.673E-01 0.157E-02
CGA:   5    -0.378672586523E+03   -0.86967E-02   -0.86843E-02 10080   0.497E-01-0.443E-03
CGA:   6    -0.378677239755E+03   -0.46532E-02   -0.46624E-02 10080   0.905E-02 0.326E-03
CGA:   7    -0.378679028368E+03   -0.17886E-02   -0.17778E-02 10080   0.368E-02 0.236E-03
CGA:   8    -0.378679449658E+03   -0.42129E-03   -0.42265E-03 10080   0.275E-02 0.411E-04
CGA:   9    -0.378679894274E+03   -0.44462E-03   -0.44537E-03 10080   0.893E-03-0.670E-04
CGA:  10    -0.378680117486E+03   -0.22321E-03   -0.23323E-03 10080   0.156E-02-0.848E-04
CGA:  11    -0.378680234322E+03   -0.11684E-03   -0.11966E-03 10080   0.392E-03 0.449E-04
CGA:  12    -0.378680313572E+03   -0.79250E-04   -0.74926E-04 10080   0.304E-03 0.130E-03
CGA:  13    -0.378680349530E+03   -0.35958E-04   -0.38827E-04 10080   0.152E-03 0.499E-04
CGA:  14    -0.378680368602E+03   -0.19072E-04   -0.21347E-04 10080   0.651E-04 0.754E-04
CGA:  15    -0.378680374433E+03   -0.58308E-05   -0.89734E-05 10080   0.465E-04 0.545E-04
 102 F= -.37868037E+03 E0= -.37867500E+03  d E =0.174301E-02  mag=     8.0000
       N       E                     dE             d eps       ncg     rms          ort
SDA:   1    -0.378350028095E+03    0.33034E+00    0.00000E+00 10080   0.844E+00 0.000E+00
CGA:   2    -0.378580928512E+03   -0.23090E+00   -0.23142E+00 10080   0.660E+00-0.420E-02
CGA:   3    -0.378630955131E+03   -0.50027E-01   -0.50801E-01 10080   0.216E+00-0.211E-02
CGA:   4    -0.378668294910E+03   -0.37340E-01   -0.37324E-01 10080   0.325E-01 0.674E-03
CGA:   5    -0.378673040009E+03   -0.47451E-02   -0.47445E-02 10080   0.233E-01-0.232E-03
CGA:   6    -0.378674982257E+03   -0.19422E-02   -0.19532E-02 10080   0.480E-02 0.213E-03
CGA:   7    -0.378675889629E+03   -0.90737E-03   -0.90180E-03 10080   0.257E-02 0.134E-03
CGA:   8    -0.378676128816E+03   -0.23919E-03   -0.24359E-03 10080   0.152E-02 0.858E-04
CGA:   9    -0.378676422239E+03   -0.29342E-03   -0.28644E-03 10080   0.515E-03 0.181E-03
CGA:  10    -0.378676595621E+03   -0.17338E-03   -0.15870E-03 10080   0.570E-03 0.114E-03
CGA:  11    -0.378676658834E+03   -0.63214E-04   -0.70037E-04 10080   0.299E-03 0.131E-03
CGA:  12    -0.378676729576E+03   -0.70742E-04   -0.66557E-04 10080   0.101E-03 0.134E-03
CGA:  13    -0.378676752346E+03   -0.22769E-04   -0.22522E-04 10080   0.574E-04 0.839E-04
CGA:  14    -0.378676754384E+03   -0.20383E-05   -0.46848E-05 10080   0.432E-04 0.377E-04
 103 F= -.37867675E+03 E0= -.37867127E+03  d E =0.362005E-02  mag=     8.0000
       N       E                     dE             d eps       ncg     rms          ort
SDA:   1    -0.378127672106E+03    0.54908E+00    0.00000E+00 10080   0.132E+01 0.000E+00
CGA:   2    -0.378573749601E+03   -0.44608E+00   -0.44577E+00 10080   0.450E+00 0.126E-02
CGA:   3    -0.378640179246E+03   -0.66430E-01   -0.66442E-01 10080   0.344E+00 0.116E-02
CGA:   4    -0.378667874026E+03   -0.27695E-01   -0.27569E-01 10080   0.434E-01-0.842E-03
CGA:   5    -0.378675437489E+03   -0.75635E-02   -0.75835E-02 10080   0.246E-01-0.887E-03
CGA:   6    -0.378677267861E+03   -0.18304E-02   -0.18321E-02 10080   0.737E-02 0.186E-03
CGA:   7    -0.378678517642E+03   -0.12498E-02   -0.12465E-02 10080   0.190E-02 0.174E-03
CGA:   8    -0.378678896101E+03   -0.37846E-03   -0.37985E-03 10080   0.204E-02-0.302E-04
CGA:   9    -0.378679082202E+03   -0.18610E-03   -0.18377E-03 10080   0.568E-03-0.369E-04
CGA:  10    -0.378679268718E+03   -0.18652E-03   -0.20982E-03 10080   0.437E-03-0.103E-03
CGA:  11    -0.378679310849E+03   -0.42130E-04   -0.43896E-04 10080   0.329E-03 0.464E-04
CGA:  12    -0.378679375460E+03   -0.64611E-04   -0.65342E-04 10080   0.135E-03-0.355E-04
CGA:  13    -0.378679397547E+03   -0.22087E-04   -0.24558E-04 10080   0.249E-03-0.567E-04
CGA:  14    -0.378679405917E+03   -0.83698E-05   -0.37388E-04 10080   0.342E-03-0.302E-03
CGA:  15    -0.378679425409E+03   -0.19492E-04   -0.26251E-04 10080   0.152E-03 0.749E-04
CGA:  16    -0.378679445221E+03   -0.19812E-04   -0.22496E-04 10080   0.398E-04 0.660E-04
CGA:  17    -0.378679452543E+03   -0.73216E-05   -0.18727E-04 10080   0.347E-03-0.681E-04
CGA:  18    -0.378679466380E+03   -0.13837E-04   -0.16568E-04 10080   0.135E-04 0.223E-04
CGA:  19    -0.378679433942E+03    0.32438E-04   -0.17619E-04 10080   0.607E-03-0.540E-04
CGA:  20    -0.378679474355E+03   -0.40414E-04   -0.34749E-04 10080   0.631E-04-0.213E-04
CGA:  21    -0.378679482205E+03   -0.78492E-05   -0.10021E-04 10080   0.909E-05 0.181E-04
 104 F= -.37867948E+03 E0= -.37867406E+03  d E =-.272782E-02  mag=     8.0000
       N       E                     dE             d eps       ncg     rms          ort
SDA:   1    -0.378634097725E+03    0.45377E-01    0.00000E+00 10080   0.130E+00 0.000E+00
CGA:   2    -0.378655101644E+03   -0.21004E-01   -0.21072E-01 10080   0.169E+00-0.319E-03
CGA:   3    -0.378672916941E+03   -0.17815E-01   -0.17554E-01 10080   0.255E-01 0.829E-03
CGA:   4    -0.378677703450E+03   -0.47865E-02   -0.48026E-02 10080   0.931E-02 0.219E-03
CGA:   5    -0.378678380316E+03   -0.67687E-03   -0.69998E-03 10080   0.327E-02 0.132E-03
CGA:   6    -0.378678852748E+03   -0.47243E-03   -0.48247E-03 10080   0.633E-03 0.984E-04
CGA:   7    -0.378678972585E+03   -0.11984E-03   -0.11884E-03 10080   0.507E-03-0.160E-04
CGA:   8    -0.378679004102E+03   -0.31517E-04   -0.37585E-04 10080   0.119E-03 0.374E-04
CGA:   9    -0.378679029431E+03   -0.25329E-04   -0.25995E-04 10080   0.594E-04 0.225E-04
CGA:  10    -0.378679039083E+03   -0.96526E-05   -0.88499E-05 10080   0.740E-04-0.748E-05
 105 F= -.37867904E+03 E0= -.37867358E+03  d E =0.443121E-03  mag=     8.0000
       N       E                     dE             d eps       ncg     rms          ort
SDA:   1    -0.378658731314E+03    0.20298E-01    0.00000E+00 10080   0.606E-01 0.000E+00
CGA:   2    -0.378667473844E+03   -0.87425E-02   -0.86845E-02 10080   0.722E-01-0.711E-03
CGA:   3    -0.378675929879E+03   -0.84560E-02   -0.84918E-02 10080   0.988E-02 0.382E-03
CGA:   4    -0.378677977048E+03   -0.20472E-02   -0.20483E-02 10080   0.365E-02 0.211E-03
CGA:   5    -0.378678256785E+03   -0.27974E-03   -0.27298E-03 10080   0.122E-02-0.514E-04
CGA:   6    -0.378678443531E+03   -0.18675E-03   -0.18896E-03 10080   0.286E-03 0.468E-04
CGA:   7    -0.378678479383E+03   -0.35852E-04   -0.37873E-04 10080   0.223E-03 0.273E-04
CGA:   8    -0.378678508948E+03   -0.29565E-04   -0.28847E-04 10080   0.803E-04-0.885E-05
CGA:   9    -0.378678519077E+03   -0.10128E-04   -0.11167E-04 10080   0.428E-04 0.210E-04
CGA:  10    -0.378678527437E+03   -0.83604E-05   -0.86245E-05 10080   0.345E-04 0.826E-05
 106 F= -.37867853E+03 E0= -.37867305E+03  d E =0.511646E-03  mag=     8.0000
