       N       E                     dE             d eps       ncg     rms          ort
DAV:   1     0.245474836923E+04    0.24547E+04   -0.13857E+05 10080   0.163E+03
DAV:   2    -0.200775775111E+03   -0.26555E+04   -0.24515E+04 10080   0.437E+02
DAV:   3    -0.489580463310E+03   -0.28880E+03   -0.28397E+03 10080   0.161E+02
DAV:   4    -0.498221777818E+03   -0.86413E+01   -0.85489E+01 10080   0.279E+01
DAV:   5    -0.498573185133E+03   -0.35141E+00   -0.35036E+00 10080   0.432E+00
SDA:   6    -0.242175348068E+03    0.25640E+03   -0.35036E+00 10080   0.771E+03 0.000E+00
CGA:   7    -0.349237038502E+03   -0.10706E+03   -0.10820E+03 10080   0.887E+02 0.654E+01
CGA:   8    -0.366921789443E+03   -0.17685E+02   -0.17687E+02 10080   0.322E+02-0.176E+01
CGA:   9    -0.373687161607E+03   -0.67654E+01   -0.67691E+01 10080   0.151E+02-0.992E-02
CGA:  10    -0.376679503604E+03   -0.29923E+01   -0.29923E+01 10080   0.449E+01 0.133E+00
CGA:  11    -0.377620430481E+03   -0.94093E+00   -0.94090E+00 10080   0.125E+01-0.506E-02
CGA:  12    -0.377900863098E+03   -0.28043E+00   -0.28106E+00 10080   0.420E+00-0.230E-01
CGA:  13    -0.378005836328E+03   -0.10497E+00   -0.10633E+00 10080   0.163E+00-0.235E-01
CGA:  14    -0.378047230568E+03   -0.41394E-01   -0.42043E-01 10080   0.609E-01-0.934E-02
CGA:  15    -0.378062502138E+03   -0.15272E-01   -0.15344E-01 10080   0.218E-01-0.129E-02
CGA:  16    -0.378068528167E+03   -0.60260E-02   -0.61468E-02 10080   0.786E-02-0.156E-02
CGA:  17    -0.378070633517E+03   -0.21053E-02   -0.21025E-02 10080   0.273E-02 0.488E-04
CGA:  18    -0.378071505490E+03   -0.87197E-03   -0.90836E-03 10080   0.104E-02-0.315E-03
CGA:  19    -0.378071916869E+03   -0.41138E-03    0.16156E-01 10080   0.402E-03 0.275E-03
CGA:  20    -0.378072157072E+03   -0.24020E-03    0.93445E-03 10080   0.138E-03 0.125E-03
CGA:  21    -0.378072254367E+03   -0.97295E-04    0.98040E-04 10080   0.590E-04 0.554E-04
CGA:  22    -0.378072326936E+03   -0.72569E-04    0.94636E-05 10080   0.278E-04 0.268E-04
CGA:  23    -0.378072381961E+03   -0.55025E-04    0.21825E-05 10080   0.142E-04 0.135E-04
CGA:  24    -0.378072406548E+03   -0.24587E-04    0.14661E-05 10080   0.810E-05 0.876E-05
CGA:  25    -0.378072405605E+03    0.94340E-06   -0.37051E-06 10080   0.659E-05 0.743E-05
   1 F= -.37807241E+03 E0= -.37807241E+03  d E =-.378072E+03  mag=    12.0000
       N       E                     dE             d eps       ncg     rms          ort
SDA:   1    -0.378074065312E+03   -0.16588E-02    0.00000E+00 10080   0.381E-03 0.000E+00
CGA:   2    -0.378074159665E+03   -0.94353E-04   -0.20189E-03 10080   0.726E-03-0.332E-03
CGA:   3    -0.378074233621E+03   -0.73956E-04   -0.86899E-04 10080   0.753E-04 0.126E-03
CGA:   4    -0.378074254027E+03   -0.20406E-04   -0.21323E-04 10080   0.320E-04-0.378E-04
CGA:   5    -0.378074261015E+03   -0.69872E-05   -0.69888E-05 10080   0.199E-04-0.170E-04
   2 F= -.37807426E+03 E0= -.37807426E+03  d E =-.185541E-02  mag=    12.0000
       N       E                     dE             d eps       ncg     rms          ort
SDA:   1    -0.377749176930E+03    0.32508E+00    0.00000E+00 10080   0.105E+01 0.000E+00
CGA:   2    -0.378050355671E+03   -0.30118E+00   -0.30163E+00 10080   0.340E+00-0.613E-02
CGA:   3    -0.378123073751E+03   -0.72718E-01   -0.72718E-01 10080   0.109E+00-0.815E-03
CGA:   4    -0.378143282958E+03   -0.20209E-01   -0.20112E-01 10080   0.247E-01-0.322E-02
CGA:   5    -0.378147640953E+03   -0.43580E-02   -0.43543E-02 10080   0.680E-02-0.116E-03
CGA:   6    -0.378148974055E+03   -0.13331E-02   -0.13420E-02 10080   0.203E-02 0.644E-03
CGA:   7    -0.378149690657E+03   -0.71660E-03   -0.78461E-03 10080   0.150E-02-0.480E-03
CGA:   8    -0.378150010517E+03   -0.31986E-03   -0.37689E-03 10080   0.978E-03-0.517E-03
CGA:   9    -0.378150142179E+03   -0.13166E-03   -0.13216E-03 10080   0.360E-03 0.280E-04
CGA:  10    -0.378150205624E+03   -0.63445E-04   -0.66334E-04 10080   0.149E-03 0.656E-04
CGA:  11    -0.378150246205E+03   -0.40581E-04   -0.40426E-04 10080   0.644E-04 0.196E-04
CGA:  12    -0.378150258824E+03   -0.12619E-04   -0.13403E-04 10080   0.293E-04 0.210E-04
CGA:  13    -0.378150262678E+03   -0.38548E-05   -0.53822E-05 10080   0.156E-04 0.189E-04
   3 F= -.37815026E+03 E0= -.37815026E+03  d E =-.760017E-01  mag=    12.0000
       N       E                     dE             d eps       ncg     rms          ort
SDA:   1    -0.377595179145E+03    0.55508E+00    0.00000E+00 10080   0.172E+01 0.000E+00
CGA:   2    -0.378064769670E+03   -0.46959E+00   -0.46980E+00 10080   0.487E+00-0.423E-02
CGA:   3    -0.378180403942E+03   -0.11563E+00   -0.11564E+00 10080   0.148E+00-0.270E-03
CGA:   4    -0.378206633469E+03   -0.26230E-01   -0.26089E-01 10080   0.348E-01-0.306E-02
CGA:   5    -0.378212989845E+03   -0.63564E-02   -0.63539E-02 10080   0.938E-02-0.801E-04
CGA:   6    -0.378214941971E+03   -0.19521E-02   -0.19583E-02 10080   0.328E-02 0.713E-03
CGA:   7    -0.378216075296E+03   -0.11333E-02   -0.11972E-02 10080   0.217E-02-0.523E-03
CGA:   8    -0.378216600179E+03   -0.52488E-03   -0.53988E-03 10080   0.105E-02-0.206E-03
CGA:   9    -0.378216815601E+03   -0.21542E-03   -0.21555E-03 10080   0.318E-03 0.131E-03
CGA:  10    -0.378216915588E+03   -0.99987E-04   -0.10121E-03 10080   0.133E-03-0.220E-04
CGA:  11    -0.378216942402E+03   -0.26815E-04   -0.27019E-04 10080   0.427E-04 0.187E-04
CGA:  12    -0.378216947455E+03   -0.50529E-05   -0.70081E-05 10080   0.190E-04 0.229E-04
   4 F= -.37821695E+03 E0= -.37821695E+03  d E =-.666848E-01  mag=    12.0000
       N       E                     dE             d eps       ncg     rms          ort
SDA:   1    -0.377478558894E+03    0.73838E+00    0.00000E+00 10080   0.222E+01 0.000E+00
CGA:   2    -0.378085812090E+03   -0.60725E+00   -0.60723E+00 10080   0.591E+00-0.518E-03
CGA:   3    -0.378234835460E+03   -0.14902E+00   -0.14896E+00 10080   0.152E+00 0.298E-02
CGA:   4    -0.378261871741E+03   -0.27036E-01   -0.26957E-01 10080   0.388E-01-0.145E-02
CGA:   5    -0.378269004469E+03   -0.71327E-02   -0.71354E-02 10080   0.103E-01 0.490E-04
CGA:   6    -0.378271340845E+03   -0.23364E-02   -0.23372E-02 10080   0.423E-02 0.692E-03
CGA:   7    -0.378272652928E+03   -0.13121E-02   -0.13095E-02 10080   0.220E-02 0.416E-04
CGA:   8    -0.378273305315E+03   -0.65239E-03   -0.63889E-03 10080   0.947E-03 0.240E-03
CGA:   9    -0.378273561651E+03   -0.25634E-03   -0.25448E-03 10080   0.281E-03 0.214E-03
CGA:  10    -0.378273683784E+03   -0.12213E-03   -0.14259E-03 10080   0.224E-03-0.114E-03
CGA:  11    -0.378273698202E+03   -0.14417E-04   -0.18734E-04 10080   0.117E-03 0.423E-04
CGA:  12    -0.378273707340E+03   -0.91386E-05   -0.15462E-04 10080   0.430E-04 0.497E-04
   5 F= -.37827371E+03 E0= -.37827371E+03  d E =-.567599E-01  mag=    12.0000
       N       E                     dE             d eps       ncg     rms          ort
SDA:   1    -0.376851075494E+03    0.14226E+01    0.00000E+00 10080   0.403E+01 0.000E+00
CGA:   2    -0.377972864943E+03   -0.11218E+01   -0.11219E+01 10080   0.110E+01-0.390E-02
CGA:   3    -0.378243980734E+03   -0.27112E+00   -0.27100E+00 10080   0.286E+00 0.662E-02
CGA:   4    -0.378293823094E+03   -0.49842E-01   -0.49777E-01 10080   0.694E-01-0.125E-02
CGA:   5    -0.378306925748E+03   -0.13103E-01   -0.13112E-01 10080   0.185E-01 0.216E-03
CGA:   6    -0.378311196959E+03   -0.42712E-02   -0.42664E-02 10080   0.759E-02 0.999E-03
CGA:   7    -0.378313534375E+03   -0.23374E-02   -0.23313E-02 10080   0.400E-02 0.931E-04
CGA:   8    -0.378314738014E+03   -0.12036E-02   -0.11779E-02 10080   0.176E-02 0.413E-03
CGA:   9    -0.378315227600E+03   -0.48959E-03   -0.48343E-03 10080   0.523E-03 0.375E-03
CGA:  10    -0.378315447211E+03   -0.21961E-03   -0.23615E-03 10080   0.302E-03-0.119E-03
CGA:  11    -0.378315488064E+03   -0.40853E-04   -0.44028E-04 10080   0.112E-03 0.622E-04
CGA:  12    -0.378315505621E+03   -0.17557E-04   -0.20989E-04 10080   0.407E-04 0.416E-04
CGA:  13    -0.378315522290E+03   -0.16669E-04   -0.17785E-04 10080   0.280E-04-0.130E-04
CGA:  14    -0.378315474260E+03    0.48030E-04   -0.20956E-04 10080   0.212E-03-0.802E-04
CGA:  15    -0.378315513173E+03   -0.38913E-04   -0.43638E-04 10080   0.368E-04 0.636E-04
CGA:  16    -0.378315281290E+03    0.23188E-03   -0.12508E-03 10080   0.848E-03-0.213E-03
CGA:  17    -0.378315452513E+03   -0.17122E-03   -0.21832E-03 10080   0.123E-03 0.190E-03
CGA:  18    -0.378314454947E+03    0.99757E-03   -0.29809E-03 10080   0.519E-02-0.867E-03
CGA:  19    -0.378315022268E+03   -0.56732E-03   -0.90811E-03 10080   0.999E-03 0.883E-03
CGA:  20    -0.378315458007E+03   -0.43574E-03   -0.41780E-03 10080   0.107E-03-0.947E-04
CGA:  21    -0.378315650627E+03   -0.19262E-03    0.30514E-04 10080   0.428E-03-0.169E-03
CGA:  22    -0.378315601122E+03    0.49505E-04   -0.35877E-04 10080   0.856E-04 0.189E-03
CGA:  23    -0.378315574472E+03    0.26650E-04   -0.58488E-05 10080   0.291E-04 0.695E-04
CGA:  24    -0.378315565489E+03    0.89826E-05   -0.12070E-05 10080   0.178E-04 0.226E-04
   6 F= -.37831557E+03 E0= -.37831557E+03  d E =-.418581E-01  mag=    12.0000
       N       E                     dE             d eps       ncg     rms          ort
SDA:   1    -0.374404441692E+03    0.39111E+01    0.00000E+00 10080   0.980E+01 0.000E+00
CGA:   2    -0.377450221694E+03   -0.30458E+01   -0.30454E+01 10080   0.314E+01-0.111E-01
CGA:   3    -0.378119901299E+03   -0.66968E+00   -0.67194E+00 10080   0.800E+00 0.928E-02
CGA:   4    -0.378257360254E+03   -0.13746E+00   -0.13726E+00 10080   0.164E+00-0.915E-03
CGA:   5    -0.378288904175E+03   -0.31544E-01   -0.31527E-01 10080   0.497E-01-0.115E-03
CGA:   6    -0.378299237754E+03   -0.10334E-01   -0.10512E-01 10080   0.166E-01 0.917E-03
CGA:   7    -0.378304082644E+03   -0.48449E-02   -0.48391E-02 10080   0.785E-02-0.531E-04
CGA:   8    -0.378306457053E+03   -0.23744E-02   -0.23745E-02 10080   0.411E-02-0.152E-05
CGA:   9    -0.378307494751E+03   -0.10377E-02   -0.10858E-02 10080   0.129E-02 0.394E-03
CGA:  10    -0.378307943670E+03   -0.44892E-03   -0.44614E-03 10080   0.501E-03-0.433E-04
CGA:  11    -0.378308092443E+03   -0.14877E-03   -0.14749E-03 10080   0.180E-03-0.180E-04
CGA:  12    -0.378308137855E+03   -0.45412E-04   -0.48201E-04 10080   0.622E-04 0.292E-04
CGA:  13    -0.378308169280E+03   -0.31425E-04   -0.43287E-04 10080   0.104E-03-0.516E-04
CGA:  14    -0.378308179189E+03   -0.99088E-05   -0.16785E-04 10080   0.143E-04 0.314E-04
   7 F= -.37830818E+03 E0= -.37830818E+03  d E =0.738630E-02  mag=    12.0000
       N       E                     dE             d eps       ncg     rms          ort
SDA:   1    -0.377390015269E+03    0.91815E+00    0.00000E+00 10080   0.220E+01 0.000E+00
CGA:   2    -0.378146580911E+03   -0.75657E+00   -0.75652E+00 10080   0.750E+00-0.343E-02
CGA:   3    -0.378281686888E+03   -0.13511E+00   -0.13574E+00 10080   0.188E+00 0.308E-02
CGA:   4    -0.378316242389E+03   -0.34556E-01   -0.34648E-01 10080   0.399E-01 0.502E-03
CGA:   5    -0.378323597632E+03   -0.73552E-02   -0.73233E-02 10080   0.117E-01-0.194E-03
CGA:   6    -0.378326020560E+03   -0.24229E-02   -0.24486E-02 10080   0.327E-02 0.197E-03
CGA:   7    -0.378326830289E+03   -0.80973E-03   -0.82884E-03 10080   0.124E-02 0.228E-03
CGA:   8    -0.378327189408E+03   -0.35912E-03   -0.36207E-03 10080   0.552E-03 0.520E-04
CGA:   9    -0.378327320835E+03   -0.13143E-03   -0.14021E-03 10080   0.164E-03 0.107E-03
CGA:  10    -0.378327359019E+03   -0.38184E-04   -0.43686E-04 10080   0.537E-04 0.559E-04
CGA:  11    -0.378327379765E+03   -0.20746E-04   -0.20908E-04 10080   0.233E-04 0.602E-05
CGA:  12    -0.378327382030E+03   -0.22657E-05   -0.42785E-05 10080   0.106E-04 0.134E-04
   8 F= -.37832738E+03 E0= -.37832738E+03  d E =-.192028E-01  mag=    12.0000
       N       E                     dE             d eps       ncg     rms          ort
SDA:   1    -0.378182518677E+03    0.14486E+00    0.00000E+00 10080   0.444E+00 0.000E+00
CGA:   2    -0.378301915312E+03   -0.11940E+00   -0.11944E+00 10080   0.113E+00 0.107E-02
CGA:   3    -0.378331538338E+03   -0.29623E-01   -0.29590E-01 10080   0.310E-01-0.910E-03
CGA:   4    -0.378336779870E+03   -0.52415E-02   -0.52888E-02 10080   0.769E-02 0.361E-03
CGA:   5    -0.378338288214E+03   -0.15083E-02   -0.15032E-02 10080   0.220E-02-0.561E-04
CGA:   6    -0.378338902010E+03   -0.61380E-03   -0.61271E-03 10080   0.133E-02-0.250E-03
CGA:   7    -0.378339194719E+03   -0.29271E-03   -0.29450E-03 10080   0.565E-03 0.507E-04
CGA:   8    -0.378339382819E+03   -0.18810E-03   -0.18895E-03 10080   0.297E-03-0.221E-04
CGA:   9    -0.378339473390E+03   -0.90571E-04   -0.14158E-03 10080   0.421E-03-0.242E-03
CGA:  10    -0.378339509152E+03   -0.35762E-04   -0.55059E-04 10080   0.570E-04 0.117E-03
CGA:  11    -0.378339515977E+03   -0.68250E-05   -0.10519E-04 10080   0.190E-04 0.258E-04
CGA:  12    -0.378339524947E+03   -0.89700E-05   -0.11170E-04 10080   0.201E-04-0.178E-04
   9 F= -.37833952E+03 E0= -.37833952E+03  d E =-.121429E-01  mag=    12.0000
       N       E                     dE             d eps       ncg     rms          ort
SDA:   1    -0.378097933148E+03    0.24158E+00    0.00000E+00 10080   0.580E+00 0.000E+00
CGA:   2    -0.378303184106E+03   -0.20525E+00   -0.20543E+00 10080   0.168E+00-0.237E-02
CGA:   3    -0.378336084018E+03   -0.32900E-01   -0.33019E-01 10080   0.402E-01 0.135E-02
CGA:   4    -0.378342768223E+03   -0.66842E-02   -0.67022E-02 10080   0.886E-02 0.159E-03
CGA:   5    -0.378344474798E+03   -0.17066E-02   -0.17110E-02 10080   0.237E-02 0.549E-04
CGA:   6    -0.378344927463E+03   -0.45266E-03   -0.46196E-03 10080   0.630E-03 0.126E-03
CGA:   7    -0.378345097215E+03   -0.16975E-03   -0.16993E-03 10080   0.244E-03 0.235E-04
CGA:   8    -0.378345163920E+03   -0.66705E-04   -0.66706E-04 10080   0.104E-03 0.261E-04
CGA:   9    -0.378345180526E+03   -0.16606E-04   -0.20718E-04 10080   0.369E-04 0.497E-04
CGA:  10    -0.378345185840E+03   -0.53139E-05   -0.82219E-05 10080   0.163E-04 0.267E-04
  10 F= -.37834519E+03 E0= -.37834519E+03  d E =-.566089E-02  mag=    12.0000
       N       E                     dE             d eps       ncg     rms          ort
SDA:   1    -0.375843615693E+03    0.25016E+01    0.00000E+00 10080   0.581E+01 0.000E+00
CGA:   2    -0.377940158495E+03   -0.20965E+01   -0.20980E+01 10080   0.163E+01-0.149E-01
CGA:   3    -0.378259720856E+03   -0.31956E+00   -0.32026E+00 10080   0.377E+00 0.835E-02
CGA:   4    -0.378323258154E+03   -0.63537E-01   -0.63428E-01 10080   0.859E-01-0.104E-02
CGA:   5    -0.378339839034E+03   -0.16581E-01   -0.16554E-01 10080   0.234E-01-0.417E-03
CGA:   6    -0.378344325471E+03   -0.44864E-02   -0.45385E-02 10080   0.601E-02 0.842E-03
CGA:   7    -0.378346021207E+03   -0.16957E-02   -0.16991E-02 10080   0.259E-02-0.170E-03
CGA:   8    -0.378346762204E+03   -0.74100E-03   -0.74848E-03 10080   0.129E-02-0.172E-03
CGA:   9    -0.378347021135E+03   -0.25893E-03   -0.26784E-03 10080   0.375E-03 0.256E-03
CGA:  10    -0.378347131756E+03   -0.11062E-03   -0.11108E-03 10080   0.137E-03 0.598E-04
CGA:  11    -0.378347183186E+03   -0.51430E-04   -0.78423E-04 10080   0.193E-03-0.113E-03
CGA:  12    -0.378347196303E+03   -0.13117E-04   -0.24140E-04 10080   0.416E-04 0.781E-04
CGA:  13    -0.378347200543E+03   -0.42399E-05   -0.73913E-05 10080   0.163E-04 0.237E-04
  11 F= -.37834720E+03 E0= -.37834720E+03  d E =-.201470E-02  mag=    12.0000
       N       E                     dE             d eps       ncg     rms          ort
SDA:   1    -0.373894400059E+03    0.44528E+01    0.00000E+00 10080   0.105E+02 0.000E+00
CGA:   2    -0.377567364686E+03   -0.36730E+01   -0.36740E+01 10080   0.305E+01-0.125E-01
CGA:   3    -0.378172411017E+03   -0.60505E+00   -0.60569E+00 10080   0.727E+00 0.924E-02
CGA:   4    -0.378296080914E+03   -0.12367E+00   -0.12352E+00 10080   0.158E+00-0.192E-02
CGA:   5    -0.378326786623E+03   -0.30706E-01   -0.30673E-01 10080   0.451E-01-0.607E-03
CGA:   6    -0.378335694288E+03   -0.89077E-02   -0.89535E-02 10080   0.125E-01 0.935E-03
CGA:   7    -0.378339256518E+03   -0.35622E-02   -0.35775E-02 10080   0.557E-02-0.440E-03
CGA:   8    -0.378340864917E+03   -0.16084E-02   -0.16327E-02 10080   0.290E-02-0.425E-03
CGA:   9    -0.378341549629E+03   -0.68471E-03   -0.68354E-03 10080   0.866E-03 0.229E-03
CGA:  10    -0.378341844258E+03   -0.29463E-03   -0.30153E-03 10080   0.373E-03-0.953E-04
CGA:  11    -0.378341951516E+03   -0.10726E-03   -0.11626E-03 10080   0.189E-03-0.931E-04
CGA:  12    -0.378341984570E+03   -0.33053E-04   -0.33704E-04 10080   0.754E-04 0.320E-04
CGA:  13    -0.378342011381E+03   -0.26812E-04   -0.26926E-04 10080   0.447E-04-0.246E-05
CGA:  14    -0.378342025547E+03   -0.14165E-04   -0.25358E-04 10080   0.592E-04-0.343E-04
CGA:  15    -0.378342027779E+03   -0.22322E-05   -0.72773E-05 10080   0.195E-04 0.329E-04
  12 F= -.37834203E+03 E0= -.37834203E+03  d E =0.517276E-02  mag=    12.0000
       N       E                     dE             d eps       ncg     rms          ort
SDA:   1    -0.377368053135E+03    0.97397E+00    0.00000E+00 10080   0.231E+01 0.000E+00
CGA:   2    -0.378190274973E+03   -0.82222E+00   -0.82224E+00 10080   0.673E+00-0.487E-03
CGA:   3    -0.378321270144E+03   -0.13100E+00   -0.13092E+00 10080   0.175E+00-0.133E-02
CGA:   4    -0.378350090865E+03   -0.28821E-01   -0.28692E-01 10080   0.372E-01-0.131E-02
CGA:   5    -0.378357230802E+03   -0.71399E-02   -0.71210E-02 10080   0.102E-01-0.285E-03
CGA:   6    -0.378359260805E+03   -0.20300E-02   -0.20321E-02 10080   0.280E-02 0.361E-04
CGA:   7    -0.378360046496E+03   -0.78569E-03   -0.79585E-03 10080   0.132E-02-0.365E-03
CGA:   8    -0.378360399315E+03   -0.35282E-03   -0.37575E-03 10080   0.766E-03-0.321E-03
CGA:   9    -0.378360564483E+03   -0.16517E-03   -0.16902E-03 10080   0.271E-03-0.122E-03
CGA:  10    -0.378360633789E+03   -0.69306E-04   -0.10613E-03 10080   0.258E-03-0.181E-03
CGA:  11    -0.378360670993E+03   -0.37204E-04   -0.42705E-04 10080   0.327E-04 0.517E-04
CGA:  12    -0.378360680649E+03   -0.96566E-05   -0.97994E-05 10080   0.134E-04 0.837E-05
  13 F= -.37836068E+03 E0= -.37836068E+03  d E =-.186529E-01  mag=    12.0000
       N       E                     dE             d eps       ncg     rms          ort
SDA:   1    -0.378175110187E+03    0.18556E+00    0.00000E+00 10080   0.462E+00 0.000E+00
CGA:   2    -0.378326188868E+03   -0.15108E+00   -0.15115E+00 10080   0.144E+00-0.126E-02
CGA:   3    -0.378355040911E+03   -0.28852E-01   -0.28913E-01 10080   0.400E-01 0.855E-03
CGA:   4    -0.378362498886E+03   -0.74580E-02   -0.74195E-02 10080   0.789E-02-0.496E-03
CGA:   5    -0.378364014324E+03   -0.15154E-02   -0.15053E-02 10080   0.258E-02-0.156E-03
CGA:   6    -0.378364520527E+03   -0.50620E-03   -0.50992E-03 10080   0.743E-03 0.690E-04
CGA:   7    -0.378364752246E+03   -0.23172E-03   -0.23309E-03 10080   0.372E-03-0.259E-04
CGA:   8    -0.378364865532E+03   -0.11329E-03   -0.11954E-03 10080   0.252E-03-0.802E-04
CGA:   9    -0.378364911506E+03   -0.45974E-04   -0.46234E-04 10080   0.728E-04 0.104E-04
CGA:  10    -0.378364928358E+03   -0.16853E-04   -0.17085E-04 10080   0.280E-04 0.716E-05
CGA:  11    -0.378364937574E+03   -0.92160E-05   -0.15122E-04 10080   0.398E-04-0.251E-04
  14 F= -.37836494E+03 E0= -.37836494E+03  d E =-.425692E-02  mag=    12.0000
       N       E                     dE             d eps       ncg     rms          ort
SDA:   1    -0.378254708866E+03    0.11022E+00    0.00000E+00 10080   0.264E+00 0.000E+00
CGA:   2    -0.378347562724E+03   -0.92854E-01   -0.92899E-01 10080   0.784E-01-0.562E-03
CGA:   3    -0.378363028551E+03   -0.15466E-01   -0.15494E-01 10080   0.184E-01 0.402E-03
CGA:   4    -0.378366078181E+03   -0.30496E-02   -0.30702E-02 10080   0.393E-02 0.208E-03
CGA:   5    -0.378366836994E+03   -0.75881E-03   -0.76356E-03 10080   0.109E-02 0.714E-04
CGA:   6    -0.378367057656E+03   -0.22066E-03   -0.22215E-03 10080   0.304E-03 0.267E-04
CGA:   7    -0.378367130092E+03   -0.72436E-04   -0.73102E-04 10080   0.104E-03 0.384E-04
CGA:   8    -0.378367155066E+03   -0.24974E-04   -0.26002E-04 10080   0.416E-04 0.341E-04
CGA:   9    -0.378367165371E+03   -0.10305E-04   -0.11322E-04 10080   0.178E-04 0.229E-04
CGA:  10    -0.378367169173E+03   -0.38017E-05   -0.39846E-05 10080   0.813E-05 0.763E-05
  15 F= -.37836717E+03 E0= -.37836717E+03  d E =-.223160E-02  mag=    12.0000
       N       E                     dE             d eps       ncg     rms          ort
SDA:   1    -0.378014168132E+03    0.35300E+00    0.00000E+00 10080   0.856E+00 0.000E+00
CGA:   2    -0.378303571391E+03   -0.28940E+00   -0.28950E+00 10080   0.276E+00-0.126E-02
CGA:   3    -0.378358122277E+03   -0.54551E-01   -0.54587E-01 10080   0.650E-01 0.641E-03
CGA:   4    -0.378368769297E+03   -0.10647E-01   -0.10666E-01 10080   0.140E-01 0.210E-03
CGA:   5    -0.378371455603E+03   -0.26863E-02   -0.26926E-02 10080   0.380E-02 0.124E-03
CGA:   6    -0.378372233777E+03   -0.77817E-03   -0.78176E-03 10080   0.107E-02 0.102E-03
CGA:   7    -0.378372509565E+03   -0.27579E-03   -0.27515E-03 10080   0.428E-03 0.447E-04
CGA:   8    -0.378372626975E+03   -0.11741E-03   -0.11587E-03 10080   0.177E-03 0.680E-04
CGA:   9    -0.378372675096E+03   -0.48121E-04   -0.48304E-04 10080   0.655E-04 0.644E-04
CGA:  10    -0.378372696150E+03   -0.21055E-04   -0.21110E-04 10080   0.272E-04 0.286E-04
CGA:  11    -0.378372705775E+03   -0.96241E-05   -0.95439E-05 10080   0.121E-04 0.137E-04
  16 F= -.37837271E+03 E0= -.37837271E+03  d E =-.553660E-02  mag=    12.0000
       N       E                     dE             d eps       ncg     rms          ort
SDA:   1    -0.371737535258E+03    0.66352E+01    0.00000E+00 10080   0.162E+02 0.000E+00
CGA:   2    -0.376950681901E+03   -0.52131E+01   -0.52136E+01 10080   0.571E+01-0.979E-02
CGA:   3    -0.378052192632E+03   -0.11015E+01   -0.11023E+01 10080   0.141E+01 0.862E-02
CGA:   4    -0.378289330370E+03   -0.23714E+00   -0.23699E+00 10080   0.296E+00-0.200E-02
CGA:   5    -0.378345401178E+03   -0.56071E-01   -0.56043E-01 10080   0.825E-01-0.677E-03
CGA:   6    -0.378362454909E+03   -0.17054E-01   -0.17086E-01 10080   0.234E-01 0.123E-02
CGA:   7    -0.378368683333E+03   -0.62284E-02   -0.62398E-02 10080   0.100E-01-0.381E-03
CGA:   8    -0.378371615606E+03   -0.29323E-02   -0.29566E-02 10080   0.492E-02-0.369E-03
CGA:   9    -0.378372925141E+03   -0.13095E-02   -0.12956E-02 10080   0.165E-02 0.382E-03
CGA:  10    -0.378373506962E+03   -0.58182E-03   -0.59559E-03 10080   0.719E-03-0.143E-03
CGA:  11    -0.378373709680E+03   -0.20272E-03   -0.20356E-03 10080   0.266E-03-0.129E-04
CGA:  12    -0.378373786655E+03   -0.76974E-04   -0.75362E-04 10080   0.104E-03 0.389E-04
CGA:  13    -0.378373836230E+03   -0.49575E-04   -0.55663E-04 10080   0.868E-04-0.283E-04
CGA:  14    -0.378373843169E+03   -0.69389E-05   -0.99893E-05 10080   0.487E-04 0.299E-04
  17 F= -.37837384E+03 E0= -.37837384E+03  d E =-.113739E-02  mag=    12.0000
       N       E                     dE             d eps       ncg     rms          ort
SDA:   1    -0.377252322809E+03    0.11215E+01    0.00000E+00 10080   0.275E+01 0.000E+00
CGA:   2    -0.378133904618E+03   -0.88158E+00   -0.88124E+00 10080   0.998E+00 0.346E-02
CGA:   3    -0.378325164907E+03   -0.19126E+00   -0.19130E+00 10080   0.251E+00-0.868E-04
CGA:   4    -0.378367669930E+03   -0.42505E-01   -0.42448E-01 10080   0.529E-01-0.815E-03
CGA:   5    -0.378377653248E+03   -0.99833E-02   -0.99554E-02 10080   0.145E-01-0.505E-03
CGA:   6    -0.378380697524E+03   -0.30443E-02   -0.30409E-02 10080   0.424E-02-0.116E-03
CGA:   7    -0.378381776686E+03   -0.10792E-02   -0.10811E-02 10080   0.173E-02-0.121E-03
CGA:   8    -0.378382305249E+03   -0.52856E-03   -0.55123E-03 10080   0.997E-03-0.264E-03
CGA:   9    -0.378382575277E+03   -0.27003E-03   -0.29286E-03 10080   0.496E-03-0.226E-03
CGA:  10    -0.378382696271E+03   -0.12099E-03   -0.13876E-03 10080   0.247E-03-0.160E-03
CGA:  11    -0.378382747930E+03   -0.51659E-04   -0.53953E-04 10080   0.937E-04-0.351E-04
CGA:  12    -0.378382771594E+03   -0.23664E-04   -0.23301E-04 10080   0.375E-04 0.121E-04
CGA:  13    -0.378382781861E+03   -0.10267E-04   -0.10464E-04 10080   0.159E-04 0.141E-04
CGA:  14    -0.378382784095E+03   -0.22340E-05   -0.34961E-05 10080   0.777E-05 0.126E-04
  18 F= -.37838278E+03 E0= -.37838278E+03  d E =-.894093E-02  mag=    12.0000
       N       E                     dE             d eps       ncg     rms          ort
SDA:   1    -0.378343543176E+03    0.39239E-01    0.00000E+00 10080   0.999E-01 0.000E+00
CGA:   2    -0.378371754379E+03   -0.28211E-01   -0.28185E-01 10080   0.470E-01 0.753E-03
CGA:   3    -0.378380606521E+03   -0.88521E-02   -0.88475E-02 10080   0.115E-01-0.979E-04
CGA:   4    -0.378382631112E+03   -0.20246E-02   -0.20173E-02 10080   0.270E-02-0.105E-03
CGA:   5    -0.378383132205E+03   -0.50109E-03   -0.49654E-03 10080   0.708E-03-0.783E-04
CGA:   6    -0.378383291828E+03   -0.15962E-03   -0.15896E-03 10080   0.239E-03-0.680E-04
CGA:   7    -0.378383345517E+03   -0.53689E-04   -0.53876E-04 10080   0.898E-04-0.207E-04
CGA:   8    -0.378383370539E+03   -0.25022E-04   -0.28442E-04 10080   0.609E-04-0.322E-04
CGA:   9    -0.378383098898E+03    0.27164E-03   -0.14666E-03 10080   0.162E-02-0.245E-03
CGA:  10    -0.378383342632E+03   -0.24373E-03   -0.25346E-03 10080   0.171E-03 0.330E-04
CGA:  11    -0.378383392273E+03   -0.49641E-04   -0.51954E-04 10080   0.455E-04 0.168E-04
CGA:  12    -0.378383404643E+03   -0.12370E-04   -0.14204E-04 10080   0.159E-04 0.128E-04
CGA:  13    -0.378383406500E+03   -0.18573E-05   -0.41739E-05 10080   0.688E-05 0.107E-04
  19 F= -.37838341E+03 E0= -.37838341E+03  d E =-.622405E-03  mag=    12.0000
       N       E                     dE             d eps       ncg     rms          ort
SDA:   1    -0.378367289359E+03    0.16115E-01    0.00000E+00 10080   0.406E-01 0.000E+00
CGA:   2    -0.378380802409E+03   -0.13513E-01   -0.13495E-01 10080   0.131E-01-0.290E-03
CGA:   3    -0.378383459291E+03   -0.26569E-02   -0.26700E-02 10080   0.309E-02 0.654E-04
CGA:   4    -0.378383973981E+03   -0.51469E-03   -0.51322E-03 10080   0.672E-03-0.785E-05
CGA:   5    -0.378384101172E+03   -0.12719E-03   -0.12934E-03 10080   0.181E-03 0.117E-04
CGA:   6    -0.378384134570E+03   -0.33398E-04   -0.36045E-04 10080   0.513E-04 0.155E-04
CGA:   7    -0.378384151982E+03   -0.17412E-04   -0.17135E-04 10080   0.297E-04-0.554E-05
CGA:   8    -0.378384157277E+03   -0.52958E-05   -0.59821E-05 10080   0.119E-04 0.532E-05
  20 F= -.37838416E+03 E0= -.37838416E+03  d E =-.750777E-03  mag=    12.0000
       N       E                     dE             d eps       ncg     rms          ort
SDA:   1    -0.378343357072E+03    0.40795E-01    0.00000E+00 10080   0.101E+00 0.000E+00
CGA:   2    -0.378376522010E+03   -0.33165E-01   -0.33163E-01 10080   0.341E-01-0.211E-03
CGA:   3    -0.378383361988E+03   -0.68400E-02   -0.68318E-02 10080   0.844E-02-0.693E-04
CGA:   4    -0.378384723413E+03   -0.13614E-02   -0.13567E-02 10080   0.173E-02-0.304E-04
CGA:   5    -0.378385071783E+03   -0.34837E-03   -0.34785E-03 10080   0.471E-03-0.462E-05
CGA:   6    -0.378385170948E+03   -0.99165E-04   -0.98974E-04 10080   0.147E-03-0.201E-05
CGA:   7    -0.378385217507E+03   -0.46559E-04   -0.46872E-04 10080   0.904E-04-0.322E-04
CGA:   8    -0.378385238256E+03   -0.20748E-04   -0.20569E-04 10080   0.423E-04-0.877E-05
CGA:   9    -0.378385247553E+03   -0.92971E-05   -0.95097E-05 10080   0.132E-04 0.342E-05
  21 F= -.37838525E+03 E0= -.37838525E+03  d E =-.109028E-02  mag=    12.0000
       N       E                     dE             d eps       ncg     rms          ort
SDA:   1    -0.375398770309E+03    0.29865E+01    0.00000E+00 10080   0.729E+01 0.000E+00
CGA:   2    -0.377719884165E+03   -0.23211E+01   -0.23211E+01 10080   0.268E+01 0.110E-02
CGA:   3    -0.378238165942E+03   -0.51828E+00   -0.51846E+00 10080   0.681E+00-0.421E-04
CGA:   4    -0.378348766831E+03   -0.11060E+00   -0.11049E+00 10080   0.137E+00-0.769E-03
CGA:   5    -0.378375433800E+03   -0.26667E-01   -0.26633E-01 10080   0.382E-01-0.346E-03
CGA:   6    -0.378383237374E+03   -0.78036E-02   -0.78172E-02 10080   0.111E-01 0.137E-03
CGA:   7    -0.378386178982E+03   -0.29416E-02   -0.29343E-02 10080   0.459E-02-0.284E-03
CGA:   8    -0.378387550819E+03   -0.13718E-02   -0.13772E-02 10080   0.235E-02-0.287E-03
CGA:   9    -0.378388198864E+03   -0.64804E-03   -0.64806E-03 10080   0.852E-03-0.219E-05
CGA:  10    -0.378388492998E+03   -0.29413E-03   -0.30448E-03 10080   0.396E-03-0.153E-03
CGA:  11    -0.378388592040E+03   -0.99041E-04   -0.99194E-04 10080   0.135E-03-0.126E-04
CGA:  12    -0.378388633384E+03   -0.41344E-04   -0.41208E-04 10080   0.547E-04 0.642E-05
CGA:  13    -0.378388653921E+03   -0.20538E-04   -0.20369E-04 10080   0.249E-04 0.275E-05
CGA:  14    -0.378388656342E+03   -0.24202E-05   -0.43278E-05 10080   0.111E-04 0.144E-04
  22 F= -.37838866E+03 E0= -.37838866E+03  d E =-.340879E-02  mag=    12.0000
       N       E                     dE             d eps       ncg     rms          ort
SDA:   1    -0.376751426353E+03    0.16372E+01    0.00000E+00 10080   0.395E+01 0.000E+00
CGA:   2    -0.378042370715E+03   -0.12909E+01   -0.12909E+01 10080   0.137E+01-0.171E-02
CGA:   3    -0.378312585363E+03   -0.27021E+00   -0.27036E+00 10080   0.330E+00 0.926E-03
CGA:   4    -0.378366700678E+03   -0.54115E-01   -0.54076E-01 10080   0.680E-01-0.441E-03
CGA:   5    -0.378380071741E+03   -0.13371E-01   -0.13362E-01 10080   0.189E-01-0.120E-03
CGA:   6    -0.378383891222E+03   -0.38195E-02   -0.38381E-02 10080   0.543E-02 0.258E-03
CGA:   7    -0.378385352838E+03   -0.14616E-02   -0.14612E-02 10080   0.231E-02-0.950E-04
CGA:   8    -0.378386041844E+03   -0.68901E-03   -0.69242E-03 10080   0.118E-02-0.964E-04
CGA:   9    -0.378386354946E+03   -0.31310E-03   -0.31262E-03 10080   0.404E-03 0.849E-04
CGA:  10    -0.378386499857E+03   -0.14491E-03   -0.14790E-03 10080   0.181E-03-0.434E-04
CGA:  11    -0.378386550568E+03   -0.50711E-04   -0.50920E-04 10080   0.679E-04-0.538E-05
CGA:  12    -0.378386570208E+03   -0.19640E-04   -0.19493E-04 10080   0.268E-04 0.798E-05
CGA:  13    -0.378386582989E+03   -0.12781E-04   -0.15211E-04 10080   0.249E-04-0.106E-04
CGA:  14    -0.378386583902E+03   -0.91254E-06   -0.20313E-05 10080   0.157E-04 0.722E-05
  23 F= -.37838658E+03 E0= -.37838658E+03  d E =0.207244E-02  mag=    12.0000
       N       E                     dE             d eps       ncg     rms          ort
SDA:   1    -0.376369508347E+03    0.20171E+01    0.00000E+00 10080   0.494E+01 0.000E+00
CGA:   2    -0.377932377276E+03   -0.15629E+01   -0.15627E+01 10080   0.185E+01 0.803E-03
CGA:   3    -0.378283246569E+03   -0.35087E+00   -0.35112E+00 10080   0.468E+00 0.201E-02
CGA:   4    -0.378360671159E+03   -0.77425E-01   -0.77314E-01 10080   0.945E-01-0.118E-02
CGA:   5    -0.378379107521E+03   -0.18436E-01   -0.18378E-01 10080   0.266E-01-0.832E-03
CGA:   6    -0.378384482728E+03   -0.53752E-02   -0.53826E-02 10080   0.761E-02 0.115E-03
CGA:   7    -0.378386470901E+03   -0.19882E-02   -0.19882E-02 10080   0.307E-02-0.145E-03
CGA:   8    -0.378387427507E+03   -0.95661E-03   -0.98357E-03 10080   0.179E-02-0.408E-03
CGA:   9    -0.378387884552E+03   -0.45705E-03   -0.46086E-03 10080   0.669E-03-0.113E-03
CGA:  10    -0.378388093986E+03   -0.20943E-03   -0.22237E-03 10080   0.306E-03-0.145E-03
CGA:  11    -0.378388174967E+03   -0.80981E-04   -0.87214E-04 10080   0.140E-03-0.668E-04
CGA:  12    -0.378388205868E+03   -0.30901E-04   -0.30807E-04 10080   0.514E-04 0.123E-04
CGA:  13    -0.378388225954E+03   -0.20086E-04   -0.20427E-04 10080   0.272E-04-0.380E-05
CGA:  14    -0.378388229451E+03   -0.34964E-05   -0.45827E-05 10080   0.117E-04 0.112E-04
  24 F= -.37838823E+03 E0= -.37838823E+03  d E =-.164555E-02  mag=    12.0000
       N       E                     dE             d eps       ncg     rms          ort
SDA:   1    -0.377041509388E+03    0.13467E+01    0.00000E+00 10080   0.316E+01 0.000E+00
CGA:   2    -0.378130274846E+03   -0.10888E+01   -0.10886E+01 10080   0.102E+01 0.406E-03
CGA:   3    -0.378328389231E+03   -0.19811E+00   -0.19824E+00 10080   0.244E+00 0.123E-02
CGA:   4    -0.378369401283E+03   -0.41012E-01   -0.40923E-01 10080   0.533E-01-0.100E-02
CGA:   5    -0.378379781856E+03   -0.10381E-01   -0.10344E-01 10080   0.151E-01-0.559E-03
CGA:   6    -0.378382831797E+03   -0.30499E-02   -0.30536E-02 10080   0.433E-02 0.639E-04
CGA:   7    -0.378384009256E+03   -0.11775E-02   -0.11804E-02 10080   0.189E-02-0.189E-03
CGA:   8    -0.378384586745E+03   -0.57749E-03   -0.60189E-03 10080   0.115E-02-0.322E-03
CGA:   9    -0.378384866061E+03   -0.27932E-03   -0.28341E-03 10080   0.432E-03-0.115E-03
CGA:  10    -0.378384996218E+03   -0.13016E-03   -0.14658E-03 10080   0.235E-03-0.143E-03
CGA:  11    -0.378385043440E+03   -0.47222E-04   -0.48333E-04 10080   0.926E-04-0.280E-04
CGA:  12    -0.378385064858E+03   -0.21418E-04   -0.21502E-04 10080   0.378E-04 0.134E-04
CGA:  13    -0.378385076340E+03   -0.11482E-04   -0.11515E-04 10080   0.164E-04 0.895E-05
CGA:  14    -0.378385078516E+03   -0.21761E-05   -0.33274E-05 10080   0.775E-05 0.109E-04
  25 F= -.37838508E+03 E0= -.37838508E+03  d E =0.315093E-02  mag=    12.0000
       N       E                     dE             d eps       ncg     rms          ort
SDA:   1    -0.376933138492E+03    0.14519E+01    0.00000E+00 10080   0.353E+01 0.000E+00
CGA:   2    -0.378085971532E+03   -0.11528E+01   -0.11529E+01 10080   0.122E+01-0.244E-02
CGA:   3    -0.378324560103E+03   -0.23859E+00   -0.23871E+00 10080   0.301E+00 0.725E-03
CGA:   4    -0.378374088908E+03   -0.49529E-01   -0.49489E-01 10080   0.617E-01-0.433E-03
CGA:   5    -0.378386206857E+03   -0.12118E-01   -0.12114E-01 10080   0.171E-01-0.695E-04
CGA:   6    -0.378389672392E+03   -0.34655E-02   -0.34775E-02 10080   0.495E-02 0.249E-03
CGA:   7    -0.378391013149E+03   -0.13408E-02   -0.13434E-02 10080   0.211E-02-0.133E-03
CGA:   8    -0.378391631981E+03   -0.61883E-03   -0.62394E-03 10080   0.106E-02-0.919E-04
CGA:   9    -0.378391907865E+03   -0.27588E-03   -0.27416E-03 10080   0.354E-03 0.933E-04
CGA:  10    -0.378392037909E+03   -0.13004E-03   -0.13421E-03 10080   0.169E-03-0.434E-04
CGA:  11    -0.378392083104E+03   -0.45195E-04   -0.45304E-04 10080   0.638E-04-0.230E-05
CGA:  12    -0.378392100096E+03   -0.16992E-04   -0.16890E-04 10080   0.250E-04 0.117E-04
CGA:  13    -0.378392111797E+03   -0.11701E-04   -0.12551E-04 10080   0.187E-04-0.520E-05
CGA:  14    -0.378392113735E+03   -0.19376E-05   -0.25585E-05 10080   0.998E-05 0.651E-05
  26 F= -.37839211E+03 E0= -.37839211E+03  d E =-.703522E-02  mag=    12.0000
       N       E                     dE             d eps       ncg     rms          ort
SDA:   1    -0.378141817802E+03    0.25029E+00    0.00000E+00 10080   0.608E+00 0.000E+00
CGA:   2    -0.378329976106E+03   -0.18816E+00   -0.18822E+00 10080   0.254E+00-0.143E-02
CGA:   3    -0.378377517981E+03   -0.47542E-01   -0.47566E-01 10080   0.645E-01 0.214E-03
CGA:   4    -0.378388258001E+03   -0.10740E-01   -0.10730E-01 10080   0.134E-01-0.129E-03
CGA:   5    -0.378390809096E+03   -0.25511E-02   -0.25462E-02 10080   0.372E-02-0.814E-04
CGA:   6    -0.378391573992E+03   -0.76490E-03   -0.76749E-03 10080   0.109E-02 0.619E-04
CGA:   7    -0.378391865241E+03   -0.29125E-03   -0.29181E-03 10080   0.460E-03-0.359E-04
CGA:   8    -0.378392001446E+03   -0.13621E-03   -0.14064E-03 10080   0.246E-03-0.648E-04
CGA:   9    -0.378392054006E+03   -0.52559E-04   -0.52605E-04 10080   0.780E-04 0.201E-04
CGA:  10    -0.378392077657E+03   -0.23651E-04   -0.23535E-04 10080   0.287E-04 0.408E-05
CGA:  11    -0.378392087876E+03   -0.10219E-04   -0.15072E-04 10080   0.368E-04-0.197E-04
CGA:  12    -0.378392092038E+03   -0.41622E-05   -0.54561E-05 10080   0.625E-05 0.111E-04
  27 F= -.37839209E+03 E0= -.37839209E+03  d E =0.216965E-04  mag=    12.0000
       N       E                     dE             d eps       ncg     rms          ort
SDA:   1    -0.378290204755E+03    0.10188E+00    0.00000E+00 10080   0.247E+00 0.000E+00
CGA:   2    -0.378370627058E+03   -0.80422E-01   -0.80339E-01 10080   0.915E-01 0.116E-02
CGA:   3    -0.378388140392E+03   -0.17513E-01   -0.17506E-01 10080   0.233E-01-0.139E-03
CGA:   4    -0.378391982470E+03   -0.38421E-02   -0.38438E-02 10080   0.482E-02 0.101E-04
CGA:   5    -0.378392915271E+03   -0.93280E-03   -0.93248E-03 10080   0.130E-02-0.630E-05
CGA:   6    -0.378393205916E+03   -0.29064E-03   -0.28953E-03 10080   0.412E-03-0.386E-04
CGA:   7    -0.378393301367E+03   -0.95451E-04   -0.95675E-04 10080   0.144E-03 0.205E-04
CGA:   8    -0.378393344038E+03   -0.42671E-04   -0.42448E-04 10080   0.612E-04 0.734E-05
CGA:   9    -0.378393365477E+03   -0.21439E-04   -0.34826E-04 10080   0.944E-04-0.461E-04
CGA:  10    -0.378393377994E+03   -0.12516E-04   -0.14383E-04 10080   0.111E-04 0.165E-04
CGA:  11    -0.378393382075E+03   -0.40818E-05   -0.41931E-05 10080   0.489E-05-0.183E-05
CGA:  12    -0.378393384244E+03   -0.21684E-05    0.56975E-04 10080   0.223E-05 0.517E-06
  28 F= -.37839338E+03 E0= -.37839338E+03  d E =-.129221E-02  mag=    12.0000
       N       E                     dE             d eps       ncg     rms          ort
SDA:   1    -0.378380228704E+03    0.13153E-01    0.00000E+00 10080   0.345E-01 0.000E+00
CGA:   2    -0.378390756187E+03   -0.10527E-01   -0.10525E-01 10080   0.125E-01 0.321E-04
CGA:   3    -0.378393256887E+03   -0.25007E-02   -0.24993E-02 10080   0.338E-02-0.246E-04
CGA:   4    -0.378393792550E+03   -0.53566E-03   -0.53866E-03 10080   0.662E-03 0.280E-04
CGA:   5    -0.378393919839E+03   -0.12729E-03   -0.12800E-03 10080   0.175E-03 0.107E-04
CGA:   6    -0.378393959139E+03   -0.39300E-04   -0.39035E-04 10080   0.579E-04-0.755E-05
CGA:   7    -0.378393972744E+03   -0.13605E-04   -0.13609E-04 10080   0.212E-04 0.533E-06
CGA:   8    -0.378393978528E+03   -0.57836E-05   -0.57572E-05 10080   0.872E-05 0.161E-05
  29 F= -.37839398E+03 E0= -.37839398E+03  d E =-.594284E-03  mag=    12.0000
       N       E                     dE             d eps       ncg     rms          ort
SDA:   1    -0.368503126127E+03    0.98908E+01    0.00000E+00 10080   0.244E+02 0.000E+00
CGA:   2    -0.376058582859E+03   -0.75555E+01   -0.75535E+01 10080   0.929E+01 0.197E-01
CGA:   3    -0.377860829254E+03   -0.18022E+01   -0.18036E+01 10080   0.238E+01 0.448E-02
CGA:   4    -0.378254945694E+03   -0.39412E+00   -0.39390E+00 10080   0.478E+00-0.297E-02
CGA:   5    -0.378347863561E+03   -0.92918E-01   -0.92836E-01 10080   0.135E+00-0.135E-02
CGA:   6    -0.378375902558E+03   -0.28039E-01   -0.28072E-01 10080   0.404E-01 0.641E-03
CGA:   7    -0.378386478106E+03   -0.10576E-01   -0.10579E-01 10080   0.167E-01-0.476E-03
CGA:   8    -0.378391420269E+03   -0.49422E-02   -0.49814E-02 10080   0.823E-02-0.822E-03
CGA:   9    -0.378393770081E+03   -0.23498E-02   -0.23560E-02 10080   0.314E-02-0.133E-03
CGA:  10    -0.378394780150E+03   -0.10101E-02   -0.10440E-02 10080   0.133E-02-0.422E-03
CGA:  11    -0.378395154468E+03   -0.37432E-03   -0.38182E-03 10080   0.497E-03-0.107E-03
CGA:  12    -0.378395317810E+03   -0.16334E-03   -0.16630E-03 10080   0.223E-03-0.303E-04
CGA:  13    -0.378395402332E+03   -0.84522E-04   -0.88092E-04 10080   0.107E-03-0.239E-04
CGA:  14    -0.378395417377E+03   -0.15045E-04   -0.18585E-04 10080   0.400E-04 0.422E-04
CGA:  15    -0.378395425210E+03   -0.78336E-05   -0.97684E-05 10080   0.123E-04 0.196E-04
  30 F= -.37839543E+03 E0= -.37839543E+03  d E =-.144668E-02  mag=    12.0000
       N       E                     dE             d eps       ncg     rms          ort
SDA:   1    -0.376955534419E+03    0.14399E+01    0.00000E+00 10080   0.344E+01 0.000E+00
CGA:   2    -0.378059463623E+03   -0.11039E+01   -0.11039E+01 10080   0.150E+01-0.361E-03
CGA:   3    -0.378320993069E+03   -0.26153E+00   -0.26162E+00 10080   0.336E+00 0.104E-02
CGA:   4    -0.378379184014E+03   -0.58191E-01   -0.58204E-01 10080   0.766E-01-0.202E-04
CGA:   5    -0.378393216953E+03   -0.14033E-01   -0.14026E-01 10080   0.201E-01-0.106E-03
CGA:   6    -0.378397416979E+03   -0.42000E-02   -0.42070E-02 10080   0.567E-02 0.135E-03
CGA:   7    -0.378398787533E+03   -0.13706E-02   -0.13721E-02 10080   0.201E-02 0.922E-04
CGA:   8    -0.378399348778E+03   -0.56125E-03   -0.56121E-03 10080   0.820E-03 0.188E-05
CGA:   9    -0.378399590127E+03   -0.24135E-03   -0.24117E-03 10080   0.299E-03 0.500E-05
CGA:  10    -0.378399684908E+03   -0.94781E-04   -0.95901E-04 10080   0.105E-03-0.188E-04
CGA:  11    -0.378399718692E+03   -0.33784E-04   -0.36682E-04 10080   0.486E-04-0.262E-04
CGA:  12    -0.378399731166E+03   -0.12474E-04   -0.13440E-04 10080   0.216E-04-0.964E-05
CGA:  13    -0.378399655912E+03    0.75254E-04   -0.40653E-04 10080   0.381E-03-0.711E-04
CGA:  14    -0.378399730540E+03   -0.74628E-04   -0.81997E-04 10080   0.406E-04 0.261E-04
CGA:  15    -0.378399749828E+03   -0.19288E-04   -0.18068E-04 10080   0.276E-04-0.183E-04
CGA:  16    -0.378399749054E+03    0.77415E-06   -0.17292E-05 10080   0.147E-04 0.685E-05
  31 F= -.37839975E+03 E0= -.37839975E+03  d E =-.432384E-02  mag=    12.0000
       N       E                     dE             d eps       ncg     rms          ort
SDA:   1    -0.376545763828E+03    0.18540E+01    0.00000E+00 10080   0.463E+01 0.000E+00
CGA:   2    -0.377913474207E+03   -0.13677E+01   -0.13685E+01 10080   0.202E+01 0.133E-02
CGA:   3    -0.378293392293E+03   -0.37992E+00   -0.37981E+00 10080   0.512E+00-0.644E-03
CGA:   4    -0.378378881634E+03   -0.85489E-01   -0.85350E-01 10080   0.106E+00-0.534E-03
CGA:   5    -0.378398731381E+03   -0.19850E-01   -0.19839E-01 10080   0.287E-01-0.735E-04
CGA:   6    -0.378404805969E+03   -0.60746E-02   -0.60694E-02 10080   0.848E-02-0.363E-04
CGA:   7    -0.378406951523E+03   -0.21456E-02   -0.21293E-02 10080   0.331E-02-0.121E-03
CGA:   8    -0.378407896814E+03   -0.94529E-03   -0.93676E-03 10080   0.145E-02-0.892E-04
CGA:   9    -0.378408354143E+03   -0.45733E-03   -0.45240E-03 10080   0.623E-03-0.841E-04
CGA:  10    -0.378408551173E+03   -0.19703E-03   -0.19407E-03 10080   0.249E-03-0.662E-04
CGA:  11    -0.378408621464E+03   -0.70290E-04   -0.70028E-04 10080   0.838E-04-0.465E-05
CGA:  12    -0.378408652848E+03   -0.31384E-04   -0.31509E-04 10080   0.416E-04-0.958E-05
CGA:  13    -0.378408662579E+03   -0.97310E-05   -0.10474E-04 10080   0.151E-04 0.858E-05
  32 F= -.37840866E+03 E0= -.37840866E+03  d E =-.891352E-02  mag=    12.0000
       N       E                     dE             d eps       ncg     rms          ort
SDA:   1    -0.378255809420E+03    0.15284E+00    0.00000E+00 10080   0.407E+00 0.000E+00
CGA:   2    -0.378363688317E+03   -0.10788E+00   -0.10788E+00 10080   0.176E+00-0.186E-03
CGA:   3    -0.378398197453E+03   -0.34509E-01   -0.34458E-01 10080   0.536E-01-0.416E-03
CGA:   4    -0.378407561045E+03   -0.93636E-02   -0.93406E-02 10080   0.113E-01-0.140E-03
CGA:   5    -0.378409661906E+03   -0.21009E-02   -0.21007E-02 10080   0.297E-02-0.302E-05
CGA:   6    -0.378410292758E+03   -0.63085E-03   -0.62997E-03 10080   0.927E-03-0.819E-05
CGA:   7    -0.378410544845E+03   -0.25209E-03   -0.24918E-03 10080   0.380E-03-0.514E-04
CGA:   8    -0.378410651357E+03   -0.10651E-03   -0.10521E-03 10080   0.173E-03-0.433E-04
CGA:   9    -0.378410698401E+03   -0.47044E-04   -0.46743E-04 10080   0.669E-04-0.182E-04
CGA:  10    -0.378410719365E+03   -0.20964E-04   -0.21563E-04 10080   0.326E-04-0.153E-04
CGA:  11    -0.378410727711E+03   -0.83459E-05   -0.83894E-05 10080   0.123E-04-0.417E-05
  33 F= -.37841073E+03 E0= -.37841073E+03  d E =-.206513E-02  mag=    12.0000
       N       E                     dE             d eps       ncg     rms          ort
SDA:   1    -0.378157198943E+03    0.25352E+00    0.00000E+00 10080   0.625E+00 0.000E+00
CGA:   2    -0.378349354840E+03   -0.19216E+00   -0.19216E+00 10080   0.267E+00 0.481E-04
CGA:   3    -0.378398536543E+03   -0.49182E-01   -0.49223E-01 10080   0.653E-01 0.191E-03
CGA:   4    -0.378409469506E+03   -0.10933E-01   -0.10950E-01 10080   0.137E-01 0.864E-04
CGA:   5    -0.378412040138E+03   -0.25706E-02   -0.25725E-02 10080   0.369E-02 0.117E-04
CGA:   6    -0.378412815351E+03   -0.77521E-03   -0.77681E-03 10080   0.107E-02 0.158E-04
CGA:   7    -0.378413072095E+03   -0.25674E-03   -0.25854E-03 10080   0.389E-03 0.302E-04
CGA:   8    -0.378413181850E+03   -0.10975E-03   -0.11014E-03 10080   0.162E-03 0.170E-04
CGA:   9    -0.378413233712E+03   -0.51862E-04   -0.51799E-04 10080   0.665E-04 0.611E-05
CGA:  10    -0.378413253364E+03   -0.19652E-04   -0.19726E-04 10080   0.224E-04 0.668E-05
CGA:  11    -0.378413262510E+03   -0.91457E-05   -0.93848E-05 10080   0.115E-04-0.287E-05
  34 F= -.37841326E+03 E0= -.37841326E+03  d E =-.253480E-02  mag=    12.0000
       N       E                     dE             d eps       ncg     rms          ort
SDA:   1    -0.377687103193E+03    0.72615E+00    0.00000E+00 10080   0.170E+01 0.000E+00
CGA:   2    -0.378276357216E+03   -0.58925E+00   -0.58931E+00 10080   0.611E+00-0.164E-02
CGA:   3    -0.378384444982E+03   -0.10809E+00   -0.10827E+00 10080   0.144E+00 0.985E-03
CGA:   4    -0.378408862985E+03   -0.24418E-01   -0.24414E-01 10080   0.319E-01-0.649E-04
CGA:   5    -0.378414885854E+03   -0.60229E-02   -0.59995E-02 10080   0.866E-02-0.227E-03
CGA:   6    -0.378416651777E+03   -0.17659E-02   -0.17681E-02 10080   0.245E-02 0.254E-04
CGA:   7    -0.378417256254E+03   -0.60448E-03   -0.60388E-03 10080   0.888E-03-0.154E-04
CGA:   8    -0.378417528154E+03   -0.27190E-03   -0.27441E-03 10080   0.455E-03-0.890E-04
CGA:   9    -0.378417647438E+03   -0.11928E-03   -0.11938E-03 10080   0.161E-03-0.135E-04
CGA:  10    -0.378417699758E+03   -0.52320E-04   -0.54274E-04 10080   0.676E-04-0.316E-04
CGA:  11    -0.378417718943E+03   -0.19185E-04   -0.24042E-04 10080   0.482E-04-0.315E-04
CGA:  12    -0.378417725615E+03   -0.66726E-05   -0.66867E-05 10080   0.208E-04 0.374E-06
  35 F= -.37841773E+03 E0= -.37841773E+03  d E =-.446311E-02  mag=    12.0000
       N       E                     dE             d eps       ncg     rms          ort
SDA:   1    -0.371411983849E+03    0.70057E+01    0.00000E+00 10080   0.180E+02 0.000E+00
CGA:   2    -0.375924923640E+03   -0.45129E+01   -0.45171E+01 10080   0.849E+01 0.446E-01
CGA:   3    -0.377606427694E+03   -0.16815E+01   -0.16792E+01 10080   0.244E+01-0.491E-02
CGA:   4    -0.378023848228E+03   -0.41742E+00   -0.41682E+00 10080   0.589E+00-0.349E-02
CGA:   5    -0.378132338021E+03   -0.10849E+00   -0.10868E+00 10080   0.148E+00 0.110E-02
CGA:   6    -0.378163172686E+03   -0.30835E-01   -0.30867E-01 10080   0.448E-01 0.448E-03
CGA:   7    -0.378174316201E+03   -0.11144E-01   -0.11137E-01 10080   0.166E-01-0.263E-03
CGA:   8    -0.378178518208E+03   -0.42020E-02   -0.42033E-02 10080   0.564E-02 0.758E-04
CGA:   9    -0.378180193660E+03   -0.16755E-02   -0.16804E-02 10080   0.202E-02-0.190E-03
CGA:  10    -0.378180784851E+03   -0.59119E-03   -0.59478E-03 10080   0.716E-03-0.108E-03
CGA:  11    -0.378180953193E+03   -0.16834E-03   -0.17049E-03 10080   0.187E-03 0.982E-04
CGA:  12    -0.378181019927E+03   -0.66734E-04   -0.66825E-04 10080   0.693E-04-0.230E-05
CGA:  13    -0.378181041343E+03   -0.21416E-04   -0.21273E-04 10080   0.274E-04 0.393E-05
CGA:  14    -0.378181051216E+03   -0.98733E-05   -0.96405E-05 10080   0.116E-04 0.406E-05
CGA:  15    -0.378181034180E+03    0.17036E-04   -0.18094E-04 10080   0.112E-03-0.326E-04
CGA:  16    -0.378181047294E+03   -0.13113E-04   -0.19135E-04 10080   0.180E-04 0.372E-04
CGA:  17    -0.378181052454E+03   -0.51600E-05   -0.54977E-05 10080   0.492E-05 0.350E-05
  36 F= -.37818105E+03 E0= -.37818105E+03  d E =0.236673E+00  mag=    12.0000
       N       E                     dE             d eps       ncg     rms          ort
SDA:   1    -0.377583831538E+03    0.59722E+00    0.00000E+00 10080   0.186E+01 0.000E+00
CGA:   2    -0.378151480954E+03   -0.56765E+00   -0.56769E+00 10080   0.773E+00 0.162E-02
CGA:   3    -0.378292377281E+03   -0.14090E+00   -0.14092E+00 10080   0.218E+00 0.450E-03
CGA:   4    -0.378331816644E+03   -0.39439E-01   -0.39547E-01 10080   0.545E-01 0.741E-03
CGA:   5    -0.378341749354E+03   -0.99327E-02   -0.99870E-02 10080   0.139E-01 0.415E-03
CGA:   6    -0.378344820481E+03   -0.30711E-02   -0.30686E-02 10080   0.494E-02-0.322E-04
CGA:   7    -0.378346062718E+03   -0.12422E-02   -0.12478E-02 10080   0.182E-02 0.129E-03
CGA:   8    -0.378346496597E+03   -0.43388E-03   -0.44587E-03 10080   0.595E-03 0.215E-03
CGA:   9    -0.378346680235E+03   -0.18364E-03   -0.18435E-03 10080   0.200E-03 0.515E-04
CGA:  10    -0.378346733568E+03   -0.53334E-04   -0.54706E-04 10080   0.587E-04 0.355E-04
CGA:  11    -0.378346745707E+03   -0.12139E-04   -0.14115E-04 10080   0.174E-04 0.235E-04
CGA:  12    -0.378346750787E+03   -0.50799E-05   -0.54990E-05 10080   0.643E-05 0.724E-05
  37 F= -.37834675E+03 E0= -.37834675E+03  d E =-.165698E+00  mag=    12.0000
       N       E                     dE             d eps       ncg     rms          ort
SDA:   1    -0.377910963811E+03    0.43578E+00    0.00000E+00 10080   0.124E+01 0.000E+00
CGA:   2    -0.378264193323E+03   -0.35323E+00   -0.35320E+00 10080   0.561E+00 0.252E-02
CGA:   3    -0.378367739759E+03   -0.10355E+00   -0.10358E+00 10080   0.157E+00 0.331E-03
CGA:   4    -0.378395525346E+03   -0.27786E-01   -0.27855E-01 10080   0.391E-01 0.708E-03
CGA:   5    -0.378402714419E+03   -0.71891E-02   -0.72251E-02 10080   0.982E-02 0.424E-03
CGA:   6    -0.378404852256E+03   -0.21378E-02   -0.21347E-02 10080   0.333E-02-0.675E-04
CGA:   7    -0.378405675275E+03   -0.82302E-03   -0.82416E-03 10080   0.121E-02 0.107E-03
CGA:   8    -0.378405952382E+03   -0.27711E-03   -0.28350E-03 10080   0.372E-03 0.196E-03
CGA:   9    -0.378406072867E+03   -0.12048E-03   -0.11963E-03 10080   0.135E-03 0.442E-04
CGA:  10    -0.378406110498E+03   -0.37631E-04   -0.37829E-04 10080   0.436E-04 0.264E-04
CGA:  11    -0.378406118893E+03   -0.83947E-05   -0.98589E-05 10080   0.143E-04 0.211E-04
  38 F= -.37840612E+03 E0= -.37840612E+03  d E =-.593681E-01  mag=    12.0000
       N       E                     dE             d eps       ncg     rms          ort
SDA:   1    -0.378344949011E+03    0.61161E-01    0.00000E+00 10080   0.196E+00 0.000E+00
CGA:   2    -0.378392635115E+03   -0.47686E-01   -0.47697E-01 10080   0.924E-01 0.119E-02
CGA:   3    -0.378410965171E+03   -0.18330E-01   -0.18359E-01 10080   0.276E-01 0.503E-03
CGA:   4    -0.378415707415E+03   -0.47422E-02   -0.47706E-02 10080   0.646E-02 0.362E-03
CGA:   5    -0.378416897799E+03   -0.11904E-02   -0.12011E-02 10080   0.159E-02 0.173E-03
CGA:   6    -0.378417252670E+03   -0.35487E-03   -0.35399E-03 10080   0.504E-03-0.346E-04
CGA:   7    -0.378417362675E+03   -0.11001E-03   -0.11070E-03 10080   0.163E-03 0.432E-04
CGA:   8    -0.378417389334E+03   -0.26659E-04   -0.30816E-04 10080   0.500E-04 0.633E-04
CGA:   9    -0.378417399014E+03   -0.96800E-05   -0.11661E-04 10080   0.215E-04 0.289E-04
  39 F= -.37841740E+03 E0= -.37841740E+03  d E =-.112801E-01  mag=    12.0000
       N       E                     dE             d eps       ncg     rms          ort
SDA:   1    -0.378313816262E+03    0.10357E+00    0.00000E+00 10080   0.306E+00 0.000E+00
CGA:   2    -0.378385763742E+03   -0.71947E-01   -0.71957E-01 10080   0.144E+00 0.152E-02
CGA:   3    -0.378415031399E+03   -0.29268E-01   -0.29293E-01 10080   0.448E-01 0.622E-03
CGA:   4    -0.378422659615E+03   -0.76282E-02   -0.76565E-02 10080   0.106E-01 0.403E-03
CGA:   5    -0.378424557744E+03   -0.18981E-02   -0.19087E-02 10080   0.267E-02 0.188E-03
CGA:   6    -0.378425135428E+03   -0.57768E-03   -0.57661E-03 10080   0.795E-03-0.556E-04
CGA:   7    -0.378425317590E+03   -0.18216E-03   -0.18209E-03 10080   0.268E-03 0.265E-04
CGA:   8    -0.378425367800E+03   -0.50210E-04   -0.53140E-04 10080   0.744E-04 0.745E-04
CGA:   9    -0.378425387117E+03   -0.19318E-04   -0.19892E-04 10080   0.295E-04 0.287E-04
CGA:  10    -0.378425397805E+03   -0.10688E-04   -0.10459E-04 10080   0.135E-04 0.811E-05
CGA:  11    -0.378425399956E+03   -0.21509E-05   -0.27781E-05 10080   0.646E-05 0.925E-05
  40 F= -.37842540E+03 E0= -.37842540E+03  d E =-.800094E-02  mag=    12.0000
       N       E                     dE             d eps       ncg     rms          ort
SDA:   1    -0.378411952453E+03    0.13445E-01    0.00000E+00 10080   0.429E-01 0.000E+00
CGA:   2    -0.378421479085E+03   -0.95266E-02   -0.95271E-02 10080   0.196E-01 0.210E-03
CGA:   3    -0.378425608106E+03   -0.41290E-02   -0.41328E-02 10080   0.653E-02 0.258E-03
CGA:   4    -0.378426727495E+03   -0.11194E-02   -0.11269E-02 10080   0.144E-02 0.139E-03
CGA:   5    -0.378426989777E+03   -0.26228E-03   -0.26398E-03 10080   0.354E-03 0.417E-04
CGA:   6    -0.378427071060E+03   -0.81283E-04   -0.81357E-04 10080   0.114E-03-0.167E-04
CGA:   7    -0.378427096002E+03   -0.24942E-04   -0.24916E-04 10080   0.370E-04 0.248E-05
CGA:   8    -0.378427102467E+03   -0.64644E-05   -0.68827E-05 10080   0.102E-04 0.111E-04
  41 F= -.37842710E+03 E0= -.37842710E+03  d E =-.170251E-02  mag=    12.0000
       N       E                     dE             d eps       ncg     rms          ort
SDA:   1    -0.378390850428E+03    0.36246E-01    0.00000E+00 10080   0.104E+00 0.000E+00
CGA:   2    -0.378414414347E+03   -0.23564E-01   -0.23561E-01 10080   0.481E-01 0.228E-03
CGA:   3    -0.378424502485E+03   -0.10088E-01   -0.10090E-01 10080   0.158E-01 0.287E-03
CGA:   4    -0.378427211563E+03   -0.27091E-02   -0.27164E-02 10080   0.347E-02 0.156E-03
CGA:   5    -0.378427846972E+03   -0.63541E-03   -0.63720E-03 10080   0.858E-03 0.544E-04
CGA:   6    -0.378428035806E+03   -0.18883E-03   -0.18893E-03 10080   0.262E-03-0.212E-04
CGA:   7    -0.378428097454E+03   -0.61647E-04   -0.61719E-04 10080   0.903E-04-0.254E-05
CGA:   8    -0.378428117341E+03   -0.19887E-04   -0.19807E-04 10080   0.255E-04 0.111E-04
CGA:   9    -0.378428126298E+03   -0.89569E-05   -0.90304E-05 10080   0.117E-04-0.737E-06
  42 F= -.37842813E+03 E0= -.37842813E+03  d E =-.102383E-02  mag=    12.0000
       N       E                     dE             d eps       ncg     rms          ort
SDA:   1    -0.378423387605E+03    0.47297E-02    0.00000E+00 10080   0.131E-01 0.000E+00
CGA:   2    -0.378426764851E+03   -0.33772E-02   -0.33815E-02 10080   0.642E-02-0.124E-03
CGA:   3    -0.378427971553E+03   -0.12067E-02   -0.12098E-02 10080   0.178E-02 0.901E-04
CGA:   4    -0.378428262420E+03   -0.29087E-03   -0.29271E-03 10080   0.376E-03 0.301E-04
CGA:   5    -0.378428332152E+03   -0.69732E-04   -0.69648E-04 10080   0.101E-03-0.233E-05
CGA:   6    -0.378428352441E+03   -0.20288E-04   -0.20358E-04 10080   0.272E-04 0.476E-05
CGA:   7    -0.378428358263E+03   -0.58218E-05   -0.58768E-05 10080   0.814E-05 0.512E-05
  43 F= -.37842836E+03 E0= -.37842836E+03  d E =-.231965E-03  mag=    12.0000
       N       E                     dE             d eps       ncg     rms          ort
SDA:   1    -0.378376354499E+03    0.51998E-01    0.00000E+00 10080   0.128E+00 0.000E+00
CGA:   2    -0.378417569266E+03   -0.41215E-01   -0.41268E-01 10080   0.469E-01-0.575E-03
CGA:   3    -0.378426343452E+03   -0.87742E-02   -0.87912E-02 10080   0.123E-01 0.450E-03
CGA:   4    -0.378428343689E+03   -0.20002E-02   -0.19963E-02 10080   0.258E-02-0.677E-04
CGA:   5    -0.378428840147E+03   -0.49646E-03   -0.49421E-03 10080   0.720E-03-0.832E-04
CGA:   6    -0.378428969313E+03   -0.12917E-03   -0.13094E-03 10080   0.180E-03 0.582E-04
CGA:   7    -0.378429010684E+03   -0.41371E-04   -0.41484E-04 10080   0.605E-04 0.332E-04
CGA:   8    -0.378429034434E+03   -0.23750E-04   -0.24804E-04 10080   0.464E-04-0.813E-05
CGA:   9    -0.378429041181E+03   -0.67474E-05   -0.72687E-05 10080   0.199E-04 0.124E-04
  44 F= -.37842904E+03 E0= -.37842904E+03  d E =-.682918E-03  mag=    12.0000
       N       E                     dE             d eps       ncg     rms          ort
SDA:   1    -0.378380099724E+03    0.48935E-01    0.00000E+00 10080   0.122E+00 0.000E+00
CGA:   2    -0.378419272224E+03   -0.39172E-01   -0.39154E-01 10080   0.376E-01 0.113E-03
CGA:   3    -0.378427470369E+03   -0.81981E-02   -0.81997E-02 10080   0.872E-02 0.351E-03
CGA:   4    -0.378428925499E+03   -0.14551E-02   -0.14506E-02 10080   0.194E-02-0.818E-04
CGA:   5    -0.378429311464E+03   -0.38596E-03   -0.38560E-03 10080   0.525E-03-0.201E-04
CGA:   6    -0.378429406137E+03   -0.94674E-04   -0.96762E-04 10080   0.149E-03 0.653E-04
CGA:   7    -0.378429440336E+03   -0.34199E-04   -0.34614E-04 10080   0.558E-04 0.425E-04
CGA:   8    -0.378429457842E+03   -0.17506E-04   -0.17046E-04 10080   0.301E-04 0.213E-04
CGA:   9    -0.378429465736E+03   -0.78938E-05   -0.82526E-05 10080   0.141E-04 0.186E-04
  45 F= -.37842947E+03 E0= -.37842947E+03  d E =-.424555E-03  mag=    12.0000
       N       E                     dE             d eps       ncg     rms          ort
SDA:   1    -0.378420523314E+03    0.89345E-02    0.00000E+00 10080   0.230E-01 0.000E+00
CGA:   2    -0.378427436473E+03   -0.69132E-02   -0.69054E-02 10080   0.733E-02 0.755E-04
CGA:   3    -0.378429075068E+03   -0.16386E-02   -0.16386E-02 10080   0.192E-02-0.493E-05
CGA:   4    -0.378429389219E+03   -0.31415E-03   -0.31348E-03 10080   0.426E-03-0.122E-04
CGA:   5    -0.378429470910E+03   -0.81691E-04   -0.81785E-04 10080   0.121E-03 0.356E-05
CGA:   6    -0.378429495455E+03   -0.24545E-04   -0.24698E-04 10080   0.406E-04 0.102E-04
CGA:   7    -0.378429507856E+03   -0.12401E-04   -0.12249E-04 10080   0.204E-04 0.244E-05
CGA:   8    -0.378429513617E+03   -0.57612E-05   -0.55865E-05 10080   0.939E-05 0.451E-05
  46 F= -.37842951E+03 E0= -.37842951E+03  d E =-.478812E-04  mag=    12.0000
       N       E                     dE             d eps       ncg     rms          ort
SDA:   1    -0.378416829447E+03    0.12678E-01    0.00000E+00 10080   0.329E-01 0.000E+00
CGA:   2    -0.378426430621E+03   -0.96012E-02   -0.96007E-02 10080   0.113E-01-0.249E-04
CGA:   3    -0.378428908910E+03   -0.24783E-02   -0.24786E-02 10080   0.292E-02 0.537E-04
CGA:   4    -0.378429384929E+03   -0.47602E-03   -0.47235E-03 10080   0.623E-03-0.597E-04
CGA:   5    -0.378429506933E+03   -0.12200E-03   -0.12165E-03 10080   0.184E-03-0.170E-04
CGA:   6    -0.378429541618E+03   -0.34685E-04   -0.35046E-04 10080   0.551E-04 0.151E-04
CGA:   7    -0.378429560146E+03   -0.18528E-04   -0.19439E-04 10080   0.381E-04-0.852E-05
CGA:   8    -0.378429570122E+03   -0.99762E-05   -0.10572E-04 10080   0.242E-04-0.569E-05
  47 F= -.37842957E+03 E0= -.37842957E+03  d E =-.565045E-04  mag=    12.0000
       N       E                     dE             d eps       ncg     rms          ort
SDA:   1    -0.378311891859E+03    0.11767E+00    0.00000E+00 10080   0.313E+00 0.000E+00
CGA:   2    -0.378399411246E+03   -0.87519E-01   -0.87471E-01 10080   0.104E+00 0.598E-03
CGA:   3    -0.378422997557E+03   -0.23586E-01   -0.23587E-01 10080   0.275E-01 0.249E-03
CGA:   4    -0.378427399584E+03   -0.44020E-02   -0.43891E-02 10080   0.558E-02-0.198E-03
CGA:   5    -0.378428503758E+03   -0.11042E-02   -0.11023E-02 10080   0.157E-02-0.697E-04
CGA:   6    -0.378428832105E+03   -0.32835E-03   -0.32894E-03 10080   0.516E-03 0.474E-04
CGA:   7    -0.378428983523E+03   -0.15142E-03   -0.15243E-03 10080   0.268E-03-0.167E-04
CGA:   8    -0.378429066181E+03   -0.82658E-04   -0.83365E-04 10080   0.152E-03-0.764E-05
CGA:   9    -0.378429107292E+03   -0.41111E-04   -0.40452E-04 10080   0.517E-04 0.161E-04
CGA:  10    -0.378429127532E+03   -0.20240E-04   -0.23503E-04 10080   0.376E-04-0.184E-04
CGA:  11    -0.378429132034E+03   -0.45021E-05   -0.47326E-05 10080   0.165E-04 0.484E-05
  48 F= -.37842913E+03 E0= -.37842913E+03  d E =0.438088E-03  mag=    12.0000
       N       E                     dE             d eps       ncg     rms          ort
SDA:   1    -0.375973211295E+03    0.24559E+01    0.00000E+00 10080   0.663E+01 0.000E+00
CGA:   2    -0.377809819407E+03   -0.18366E+01   -0.18353E+01 10080   0.205E+01 0.200E-01
CGA:   3    -0.378308048688E+03   -0.49823E+00   -0.49823E+00 10080   0.492E+00 0.613E-03
CGA:   4    -0.378388002901E+03   -0.79954E-01   -0.79784E-01 10080   0.107E+00-0.251E-02
CGA:   5    -0.378408982534E+03   -0.20980E-01   -0.20961E-01 10080   0.294E-01-0.507E-03
CGA:   6    -0.378415376405E+03   -0.63939E-02   -0.63995E-02 10080   0.106E-01 0.385E-03
CGA:   7    -0.378418424941E+03   -0.30485E-02   -0.30681E-02 10080   0.548E-02-0.369E-03
CGA:   8    -0.378420148393E+03   -0.17235E-02   -0.17336E-02 10080   0.310E-02-0.112E-03
CGA:   9    -0.378421054173E+03   -0.90578E-03   -0.90286E-03 10080   0.112E-02 0.513E-04
CGA:  10    -0.378421441665E+03   -0.38749E-03   -0.42136E-03 10080   0.577E-03-0.263E-03
CGA:  11    -0.378421534150E+03   -0.92485E-04   -0.95486E-04 10080   0.189E-03 0.933E-04
CGA:  12    -0.378421580338E+03   -0.46188E-04   -0.47384E-04 10080   0.737E-04 0.381E-04
CGA:  13    -0.378421609676E+03   -0.29338E-04   -0.46782E-04 10080   0.107E-03-0.618E-04
CGA:  14    -0.378421614326E+03   -0.46495E-05   -0.12761E-04 10080   0.328E-04 0.577E-04
  49 F= -.37842161E+03 E0= -.37842161E+03  d E =0.751771E-02  mag=    12.0000
       N       E                     dE             d eps       ncg     rms          ort
SDA:   1    -0.378173800389E+03    0.24781E+00    0.00000E+00 10080   0.664E+00 0.000E+00
CGA:   2    -0.378338562901E+03   -0.16476E+00   -0.16477E+00 10080   0.283E+00 0.182E-02
CGA:   3    -0.378395986640E+03   -0.57424E-01   -0.57355E-01 10080   0.869E-01-0.159E-02
CGA:   4    -0.378411110195E+03   -0.15124E-01   -0.15081E-01 10080   0.198E-01-0.595E-03
CGA:   5    -0.378414643570E+03   -0.35334E-02   -0.35402E-02 10080   0.484E-02 0.103E-03
CGA:   6    -0.378415706892E+03   -0.10633E-02   -0.10616E-02 10080   0.150E-02-0.777E-04
CGA:   7    -0.378416095098E+03   -0.38821E-03   -0.39198E-03 10080   0.643E-03-0.147E-03
CGA:   8    -0.378416251862E+03   -0.15676E-03   -0.15861E-03 10080   0.254E-03-0.567E-04
CGA:   9    -0.378416328264E+03   -0.76402E-04   -0.89955E-04 10080   0.170E-03-0.927E-04
CGA:  10    -0.378416358848E+03   -0.30584E-04   -0.31756E-04 10080   0.670E-04-0.266E-04
CGA:  11    -0.378416373522E+03   -0.14674E-04   -0.14650E-04 10080   0.231E-04 0.320E-05
CGA:  12    -0.378416381626E+03   -0.81046E-05   -0.88322E-05 10080   0.151E-04-0.645E-05
  50 F= -.37841638E+03 E0= -.37841638E+03  d E =0.523270E-02  mag=    12.0000
       N       E                     dE             d eps       ncg     rms          ort
SDA:   1    -0.377520401009E+03    0.89597E+00    0.00000E+00 10080   0.248E+01 0.000E+00
CGA:   2    -0.378202083903E+03   -0.68168E+00   -0.68152E+00 10080   0.736E+00 0.416E-02
CGA:   3    -0.378387214005E+03   -0.18513E+00   -0.18513E+00 10080   0.162E+00 0.692E-03
CGA:   4    -0.378414391926E+03   -0.27178E-01   -0.27111E-01 10080   0.395E-01-0.814E-03
CGA:   5    -0.378421844395E+03   -0.74525E-02   -0.74520E-02 10080   0.104E-01-0.139E-04
CGA:   6    -0.378424158802E+03   -0.23144E-02   -0.23204E-02 10080   0.400E-02 0.227E-03
CGA:   7    -0.378425347286E+03   -0.11885E-02   -0.11976E-02 10080   0.219E-02-0.203E-03
CGA:   8    -0.378426034379E+03   -0.68709E-03   -0.69149E-03 10080   0.124E-02-0.539E-04
CGA:   9    -0.378426380624E+03   -0.34625E-03   -0.34530E-03 10080   0.426E-03 0.292E-04
CGA:  10    -0.378426530243E+03   -0.14962E-03   -0.16275E-03 10080   0.227E-03-0.111E-03
CGA:  11    -0.378426563872E+03   -0.33629E-04   -0.35364E-04 10080   0.775E-04 0.346E-04
CGA:  12    -0.378426582430E+03   -0.18558E-04   -0.19129E-04 10080   0.305E-04 0.129E-04
CGA:  13    -0.378426580124E+03    0.23062E-05   -0.27831E-04 10080   0.122E-03-0.573E-04
CGA:  14    -0.378426589926E+03   -0.98022E-05   -0.17214E-04 10080   0.276E-04 0.523E-04
  51 F= -.37842659E+03 E0= -.37842659E+03  d E =-.102083E-01  mag=    12.0000
       N       E                     dE             d eps       ncg     rms          ort
SDA:   1    -0.378352188644E+03    0.74391E-01    0.00000E+00 10080   0.204E+00 0.000E+00
CGA:   2    -0.378404295727E+03   -0.52107E-01   -0.52122E-01 10080   0.690E-01 0.868E-03
CGA:   3    -0.378419721555E+03   -0.15426E-01   -0.15423E-01 10080   0.222E-01-0.790E-04
CGA:   4    -0.378423312476E+03   -0.35909E-02   -0.35762E-02 10080   0.443E-02-0.148E-03
CGA:   5    -0.378424154862E+03   -0.84239E-03   -0.83678E-03 10080   0.125E-02-0.800E-04
CGA:   6    -0.378424425703E+03   -0.27084E-03   -0.26997E-03 10080   0.432E-03-0.231E-04
CGA:   7    -0.378424541093E+03   -0.11539E-03   -0.11559E-03 10080   0.204E-03-0.123E-04
CGA:   8    -0.378424603432E+03   -0.62340E-04   -0.63076E-04 10080   0.113E-03-0.121E-04
CGA:   9    -0.378424638849E+03   -0.35416E-04   -0.36408E-04 10080   0.526E-04-0.122E-04
CGA:  10    -0.378424655081E+03   -0.16232E-04   -0.19141E-04 10080   0.343E-04-0.202E-04
CGA:  11    -0.378424659908E+03   -0.48274E-05   -0.48872E-05 10080   0.118E-04 0.151E-05
  52 F= -.37842466E+03 E0= -.37842466E+03  d E =0.193002E-02  mag=    12.0000
       N       E                     dE             d eps       ncg     rms          ort
SDA:   1    -0.378271884456E+03    0.15277E+00    0.00000E+00 10080   0.424E+00 0.000E+00
CGA:   2    -0.378382074735E+03   -0.11019E+00   -0.11020E+00 10080   0.126E+00 0.173E-02
CGA:   3    -0.378413230548E+03   -0.31156E-01   -0.31152E-01 10080   0.348E-01-0.246E-03
CGA:   4    -0.378418692452E+03   -0.54619E-02   -0.54429E-02 10080   0.755E-02-0.194E-03
CGA:   5    -0.378420157134E+03   -0.14647E-02   -0.14586E-02 10080   0.206E-02-0.967E-04
CGA:   6    -0.378420612204E+03   -0.45507E-03   -0.45378E-03 10080   0.812E-03-0.410E-04
CGA:   7    -0.378420833810E+03   -0.22161E-03   -0.22244E-03 10080   0.417E-03-0.328E-04
CGA:   8    -0.378420966150E+03   -0.13234E-03   -0.13398E-03 10080   0.247E-03-0.208E-04
CGA:   9    -0.378421041392E+03   -0.75242E-04   -0.76892E-04 10080   0.102E-03-0.238E-04
CGA:  10    -0.378421071437E+03   -0.30045E-04   -0.31895E-04 10080   0.433E-04-0.220E-04
CGA:  11    -0.378421079252E+03   -0.78156E-05   -0.79753E-05 10080   0.122E-04 0.500E-05
  53 F= -.37842108E+03 E0= -.37842108E+03  d E =0.358066E-02  mag=    12.0000
       N       E                     dE             d eps       ncg     rms          ort
SDA:   1    -0.377705274075E+03    0.71580E+00    0.00000E+00 10080   0.202E+01 0.000E+00
CGA:   2    -0.378227521997E+03   -0.52225E+00   -0.52230E+00 10080   0.572E+00 0.743E-02
CGA:   3    -0.378375633792E+03   -0.14811E+00   -0.14811E+00 10080   0.143E+00-0.364E-03
CGA:   4    -0.378399322931E+03   -0.23689E-01   -0.23664E-01 10080   0.332E-01-0.330E-03
CGA:   5    -0.378405740834E+03   -0.64179E-02   -0.64062E-02 10080   0.898E-02-0.187E-03
CGA:   6    -0.378407795619E+03   -0.20548E-02   -0.20528E-02 10080   0.375E-02-0.878E-04
CGA:   7    -0.378408817117E+03   -0.10215E-02   -0.10203E-02 10080   0.181E-02 0.496E-04
CGA:   8    -0.378409437346E+03   -0.62023E-03   -0.62147E-03 10080   0.105E-02-0.158E-04
CGA:   9    -0.378409762589E+03   -0.32524E-03   -0.32849E-03 10080   0.419E-03-0.574E-04
CGA:  10    -0.378409873982E+03   -0.11139E-03   -0.11124E-03 10080   0.127E-03 0.753E-05
CGA:  11    -0.378409918066E+03   -0.44084E-04   -0.45889E-04 10080   0.553E-04-0.193E-04
CGA:  12    -0.378409931134E+03   -0.13068E-04   -0.12997E-04 10080   0.190E-04 0.694E-05
CGA:  13    -0.378409937484E+03   -0.63495E-05   -0.62970E-05 10080   0.680E-05 0.195E-05
  54 F= -.37840994E+03 E0= -.37840994E+03  d E =0.111418E-01  mag=    12.0000
       N       E                     dE             d eps       ncg     rms          ort
SDA:   1    -0.378257311278E+03    0.15262E+00    0.00000E+00 10080   0.441E+00 0.000E+00
CGA:   2    -0.378375480780E+03   -0.11817E+00   -0.11817E+00 10080   0.133E+00-0.469E-03
CGA:   3    -0.378408031834E+03   -0.32551E-01   -0.32556E-01 10080   0.341E-01 0.158E-03
CGA:   4    -0.378413653632E+03   -0.56218E-02   -0.55996E-02 10080   0.771E-02-0.223E-03
CGA:   5    -0.378415109416E+03   -0.14558E-02   -0.14589E-02 10080   0.210E-02 0.398E-04
CGA:   6    -0.378415541001E+03   -0.43158E-03   -0.43759E-03 10080   0.754E-03 0.106E-03
CGA:   7    -0.378415787489E+03   -0.24649E-03   -0.25079E-03 10080   0.456E-03-0.768E-04
CGA:   8    -0.378415916915E+03   -0.12943E-03   -0.13055E-03 10080   0.254E-03-0.205E-04
CGA:   9    -0.378415976144E+03   -0.59229E-04   -0.59842E-04 10080   0.812E-04 0.326E-04
CGA:  10    -0.378416006162E+03   -0.30018E-04   -0.31102E-04 10080   0.433E-04-0.145E-04
CGA:  11    -0.378416014046E+03   -0.78844E-05   -0.80739E-05 10080   0.156E-04 0.452E-05
  55 F= -.37841601E+03 E0= -.37841601E+03  d E =-.607656E-02  mag=    12.0000
       N       E                     dE             d eps       ncg     rms          ort
SDA:   1    -0.378401384630E+03    0.14622E-01    0.00000E+00 10080   0.411E-01 0.000E+00
CGA:   2    -0.378411601391E+03   -0.10217E-01   -0.10212E-01 10080   0.190E-01-0.325E-03
CGA:   3    -0.378415374036E+03   -0.37726E-02   -0.37646E-02 10080   0.560E-02-0.137E-03
CGA:   4    -0.378416369767E+03   -0.99573E-03   -0.98515E-03 10080   0.139E-02-0.129E-03
CGA:   5    -0.378416629136E+03   -0.25937E-03   -0.25482E-03 10080   0.365E-03-0.664E-04
CGA:   6    -0.378416694262E+03   -0.65125E-04   -0.66262E-04 10080   0.927E-04 0.182E-04
CGA:   7    -0.378416718411E+03   -0.24149E-04   -0.24153E-04 10080   0.362E-04 0.316E-05
CGA:   8    -0.378416720138E+03   -0.17277E-05   -0.24790E-04 10080   0.145E-03-0.559E-04
CGA:   9    -0.378416735832E+03   -0.15694E-04   -0.19252E-04 10080   0.154E-04 0.259E-04
CGA:  10    -0.378416739594E+03   -0.37617E-05   -0.38927E-05 10080   0.466E-05 0.268E-05
  56 F= -.37841674E+03 E0= -.37841674E+03  d E =-.725547E-03  mag=    12.0000
       N       E                     dE             d eps       ncg     rms          ort
SDA:   1    -0.378403963372E+03    0.12772E-01    0.00000E+00 10080   0.338E-01 0.000E+00
CGA:   2    -0.378412744670E+03   -0.87813E-02   -0.87815E-02 10080   0.942E-02 0.406E-03
CGA:   3    -0.378415235708E+03   -0.24910E-02   -0.24910E-02 10080   0.211E-02 0.244E-04
CGA:   4    -0.378415589918E+03   -0.35421E-03   -0.35679E-03 10080   0.502E-03 0.269E-04
CGA:   5    -0.378415692043E+03   -0.10212E-03   -0.10094E-03 10080   0.149E-03-0.207E-04
CGA:   6    -0.378415725929E+03   -0.33886E-04   -0.33648E-04 10080   0.694E-04-0.133E-04
CGA:   7    -0.378415736196E+03   -0.10267E-04   -0.11506E-04 10080   0.238E-04 0.176E-04
CGA:   8    -0.378415741172E+03   -0.49763E-05   -0.56320E-05 10080   0.131E-04 0.110E-04
  57 F= -.37841574E+03 E0= -.37841574E+03  d E =0.998422E-03  mag=    12.0000
       N       E                     dE             d eps       ncg     rms          ort
SDA:   1    -0.378398948807E+03    0.16787E-01    0.00000E+00 10080   0.428E-01 0.000E+00
CGA:   2    -0.378410471520E+03   -0.11523E-01   -0.11515E-01 10080   0.162E-01 0.355E-03
CGA:   3    -0.378413776744E+03   -0.33052E-02   -0.33140E-02 10080   0.477E-02 0.177E-03
CGA:   4    -0.378414561368E+03   -0.78462E-03   -0.79203E-03 10080   0.906E-03 0.862E-04
CGA:   5    -0.378414738192E+03   -0.17682E-03   -0.17772E-03 10080   0.246E-03 0.171E-04
CGA:   6    -0.378414793213E+03   -0.55021E-04   -0.55028E-04 10080   0.822E-04 0.260E-06
CGA:   7    -0.378414806122E+03   -0.12909E-04   -0.14647E-04 10080   0.274E-04 0.277E-04
CGA:   8    -0.378414809487E+03   -0.33650E-05   -0.52075E-05 10080   0.143E-04 0.193E-04
  58 F= -.37841481E+03 E0= -.37841481E+03  d E =0.931685E-03  mag=    12.0000
       N       E                     dE             d eps       ncg     rms          ort
SDA:   1    -0.378260040970E+03    0.15477E+00    0.00000E+00 10080   0.380E+00 0.000E+00
CGA:   2    -0.378377848524E+03   -0.11781E+00   -0.11780E+00 10080   0.127E+00-0.178E-03
CGA:   3    -0.378405075790E+03   -0.27227E-01   -0.27236E-01 10080   0.304E-01 0.343E-03
CGA:   4    -0.378410087052E+03   -0.50113E-02   -0.49844E-02 10080   0.637E-02-0.377E-03
CGA:   5    -0.378411355477E+03   -0.12684E-02   -0.12663E-02 10080   0.177E-02-0.665E-04
CGA:   6    -0.378411693516E+03   -0.33804E-03   -0.34269E-03 10080   0.522E-03 0.128E-03
CGA:   7    -0.378411852813E+03   -0.15930E-03   -0.15986E-03 10080   0.257E-03-0.105E-04
CGA:   8    -0.378411936839E+03   -0.84026E-04   -0.86422E-04 10080   0.164E-03-0.218E-04
CGA:   9    -0.378411967410E+03   -0.30571E-04   -0.31652E-04 10080   0.542E-04 0.394E-04
CGA:  10    -0.378411983205E+03   -0.15795E-04   -0.15815E-04 10080   0.227E-04 0.102E-04
CGA:  11    -0.378411985930E+03   -0.27253E-05   -0.18644E-04 10080   0.724E-04-0.351E-04
  59 F= -.37841199E+03 E0= -.37841199E+03  d E =0.282356E-02  mag=    12.0000
       N       E                     dE             d eps       ncg     rms          ort
SDA:   1    -0.378105063000E+03    0.30692E+00    0.00000E+00 10080   0.760E+00 0.000E+00
CGA:   2    -0.378339050920E+03   -0.23399E+00   -0.23391E+00 10080   0.248E+00 0.925E-03
CGA:   3    -0.378394155626E+03   -0.55105E-01   -0.55124E-01 10080   0.554E-01 0.495E-03
CGA:   4    -0.378403213231E+03   -0.90576E-02   -0.90052E-02 10080   0.123E-01-0.587E-03
CGA:   5    -0.378405636861E+03   -0.24236E-02   -0.24155E-02 10080   0.331E-02-0.159E-03
CGA:   6    -0.378406291800E+03   -0.65494E-03   -0.66192E-03 10080   0.100E-02 0.154E-03
CGA:   7    -0.378406586990E+03   -0.29519E-03   -0.29597E-03 10080   0.485E-03-0.219E-04
CGA:   8    -0.378406741693E+03   -0.15470E-03   -0.15622E-03 10080   0.285E-03-0.184E-04
CGA:   9    -0.378406813103E+03   -0.71410E-04   -0.71102E-04 10080   0.946E-04 0.369E-04
CGA:  10    -0.378406851736E+03   -0.38633E-04   -0.45622E-04 10080   0.789E-04-0.398E-04
CGA:  11    -0.378406860469E+03   -0.87327E-05   -0.90034E-05 10080   0.389E-04 0.426E-05
  60 F= -.37840686E+03 E0= -.37840686E+03  d E =0.512546E-02  mag=    12.0000
       N       E                     dE             d eps       ncg     rms          ort
SDA:   1    -0.378294197341E+03    0.11265E+00    0.00000E+00 10080   0.283E+00 0.000E+00
CGA:   2    -0.378374859760E+03   -0.80662E-01   -0.80598E-01 10080   0.117E+00 0.186E-02
CGA:   3    -0.378397564610E+03   -0.22705E-01   -0.22732E-01 10080   0.336E-01 0.410E-03
CGA:   4    -0.378403519545E+03   -0.59549E-02   -0.59865E-02 10080   0.779E-02 0.426E-03
CGA:   5    -0.378404941264E+03   -0.14217E-02   -0.14273E-02 10080   0.203E-02 0.825E-04
CGA:   6    -0.378405434701E+03   -0.49344E-03   -0.49303E-03 10080   0.802E-03-0.163E-03
CGA:   7    -0.378405597355E+03   -0.16265E-03   -0.16410E-03 10080   0.259E-03 0.694E-04
CGA:   8    -0.378405649135E+03   -0.51780E-04   -0.55457E-04 10080   0.845E-04 0.816E-04
CGA:   9    -0.378405682265E+03   -0.33130E-04   -0.32970E-04 10080   0.484E-04 0.282E-05
CGA:  10    -0.378405697630E+03   -0.15365E-04   -0.15839E-04 10080   0.263E-04-0.646E-05
CGA:  11    -0.378405702516E+03   -0.48862E-05   -0.49946E-05 10080   0.995E-05 0.398E-05
  61 F= -.37840570E+03 E0= -.37840570E+03  d E =0.115795E-02  mag=    12.0000
       N       E                     dE             d eps       ncg     rms          ort
SDA:   1    -0.378259293514E+03    0.14640E+00    0.00000E+00 10080   0.375E+00 0.000E+00
CGA:   2    -0.378376924589E+03   -0.11763E+00   -0.11772E+00 10080   0.133E+00-0.175E-02
CGA:   3    -0.378403635736E+03   -0.26711E-01   -0.26694E-01 10080   0.356E-01-0.323E-03
CGA:   4    -0.378409398527E+03   -0.57628E-02   -0.57431E-02 10080   0.771E-02-0.211E-03
CGA:   5    -0.378410810737E+03   -0.14122E-02   -0.14152E-02 10080   0.218E-02 0.408E-04
CGA:   6    -0.378411247285E+03   -0.43655E-03   -0.44095E-03 10080   0.635E-03 0.870E-04
CGA:   7    -0.378411456828E+03   -0.20954E-03   -0.22506E-03 10080   0.439E-03-0.169E-03
CGA:   8    -0.378411552310E+03   -0.95481E-04   -0.10339E-03 10080   0.263E-03-0.117E-03
CGA:   9    -0.378411594446E+03   -0.42136E-04   -0.42768E-04 10080   0.917E-04 0.182E-04
CGA:  10    -0.378411614656E+03   -0.20210E-04   -0.20783E-04 10080   0.359E-04 0.134E-04
CGA:  11    -0.378411626607E+03   -0.11951E-04   -0.12067E-04 10080   0.168E-04-0.286E-05
CGA:  12    -0.378411628952E+03   -0.23446E-05   -0.27727E-05 10080   0.814E-05 0.571E-05
  62 F= -.37841163E+03 E0= -.37841163E+03  d E =-.592644E-02  mag=    12.0000
       N       E                     dE             d eps       ncg     rms          ort
SDA:   1    -0.378404666911E+03    0.69597E-02    0.00000E+00 10080   0.158E-01 0.000E+00
CGA:   2    -0.378409664766E+03   -0.49979E-02   -0.50181E-02 10080   0.546E-02-0.290E-03
CGA:   3    -0.378410787336E+03   -0.11226E-02   -0.11195E-02 10080   0.159E-02-0.751E-04
CGA:   4    -0.378411075133E+03   -0.28780E-03   -0.27906E-03 10080   0.384E-03-0.125E-03
CGA:   5    -0.378411139630E+03   -0.64497E-04   -0.64283E-04 10080   0.975E-04-0.348E-05
CGA:   6    -0.378411153747E+03   -0.14117E-04   -0.15888E-04 10080   0.264E-04 0.229E-04
CGA:   7    -0.378411159398E+03   -0.56512E-05   -0.18748E-04 10080   0.928E-04-0.389E-04
CGA:   8    -0.378411178549E+03   -0.19151E-04   -0.18183E-04 10080   0.176E-04-0.166E-04
CGA:   9    -0.378411180388E+03   -0.18391E-05   -0.22080E-05 10080   0.265E-05 0.373E-05
  63 F= -.37841118E+03 E0= -.37841118E+03  d E =0.448564E-03  mag=    12.0000
       N       E                     dE             d eps       ncg     rms          ort
SDA:   1    -0.378407489436E+03    0.36891E-02    0.00000E+00 10080   0.112E-01 0.000E+00
CGA:   2    -0.378410677405E+03   -0.31880E-02   -0.31837E-02 10080   0.385E-02 0.871E-04
CGA:   3    -0.378411510472E+03   -0.83307E-03   -0.83529E-03 10080   0.105E-02 0.804E-04
CGA:   4    -0.378411672799E+03   -0.16233E-03   -0.16639E-03 10080   0.203E-03 0.467E-04
CGA:   5    -0.378411715500E+03   -0.42701E-04   -0.42632E-04 10080   0.614E-04-0.196E-05
CGA:   6    -0.378411731866E+03   -0.16367E-04   -0.17435E-04 10080   0.395E-04-0.207E-04
CGA:   7    -0.378411734912E+03   -0.30458E-05   -0.37491E-05 10080   0.151E-04 0.744E-05
  64 F= -.37841173E+03 E0= -.37841173E+03  d E =-.554524E-03  mag=    12.0000
       N       E                     dE             d eps       ncg     rms          ort
SDA:   1    -0.378409108123E+03    0.26237E-02    0.00000E+00 10080   0.683E-02 0.000E+00
CGA:   2    -0.378411318881E+03   -0.22108E-02   -0.21938E-02 10080   0.218E-02 0.177E-03
CGA:   3    -0.378411765104E+03   -0.44622E-03   -0.44649E-03 10080   0.607E-03 0.778E-05
CGA:   4    -0.378411851579E+03   -0.86476E-04   -0.89417E-04 10080   0.129E-03 0.352E-04
CGA:   5    -0.378411876422E+03   -0.24842E-04   -0.25099E-04 10080   0.365E-04 0.612E-05
CGA:   6    -0.378411879992E+03   -0.35701E-05   -0.20822E-04 10080   0.127E-03-0.539E-04
CGA:   7    -0.378411889527E+03   -0.95345E-05   -0.13741E-04 10080   0.163E-04 0.319E-04
  65 F= -.37841189E+03 E0= -.37841189E+03  d E =-.154614E-03  mag=    12.0000
