       N       E                     dE             d eps       ncg     rms          ort
DAV:   1     0.309137119475E+04    0.30914E+04   -0.14715E+05  6480   0.182E+03
DAV:   2    -0.422304282619E+01   -0.30956E+04   -0.28801E+04  6480   0.477E+02
DAV:   3    -0.460137287877E+03   -0.45591E+03   -0.42653E+03  6480   0.191E+02
DAV:   4    -0.488536974557E+03   -0.28400E+02   -0.28109E+02  6480   0.446E+01
DAV:   5    -0.490184802287E+03   -0.16478E+01   -0.16423E+01  6480   0.796E+00
SDA:   6    -0.405884395334E+03    0.84300E+02   -0.16423E+01  6480   0.187E+03 0.000E+00
CGA:   7    -0.404068414409E+03    0.18160E+01   -0.86388E+01  6480   0.219E+03-0.102E+03
CGA:   8    -0.391407526139E+03    0.12661E+02   -0.94475E+01  6480   0.143E+04-0.720E+03
CGA:   9    -0.316977316081E+03    0.74430E+02   -0.10388E+03  6480   0.692E+03-0.296E+03
CGA:  10    -0.407235112430E+03   -0.90258E+02   -0.13016E+02  6480   0.159E+03 0.690E+03
CGA:  11    -0.406309856130E+03    0.92526E+00   -0.55527E+01  6480   0.385E+03-0.314E+03
CGA:  12    -0.402087780070E+03    0.42221E+01   -0.17905E+02  6480   0.312E+03-0.203E+03
CGA:  13    -0.399633098448E+03    0.24547E+01   -0.12409E+02  6480   0.105E+04-0.884E+03
CGA:  14    -0.362998016302E+03    0.36635E+02   -0.59578E+02  6480   0.282E+04-0.131E+04
CGA:  15    -0.325910084175E+03    0.37088E+02   -0.15103E+03  6480   0.627E+03-0.453E+03
CGA:  16    -0.378804917224E+03   -0.52895E+02   -0.88902E+01  6480   0.811E+03 0.130E+04
CGA:  17    -0.378380994508E+03    0.42392E+00   -0.28742E+02  6480   0.166E+04-0.163E+04
CGA:  18    -0.367836125103E+03    0.10545E+02   -0.72918E+02  6480   0.418E+03-0.341E+03
CGA:  19    -0.409841370692E+03   -0.42005E+02   -0.66118E+01  6480   0.594E+02 0.202E+03
CGA:  20    -0.409608598103E+03    0.23277E+00   -0.22669E+01  6480   0.647E+02-0.789E+02
CGA:  21    -0.411319515774E+03   -0.17109E+01   -0.99579E+00  6480   0.113E+02 0.333E+02
CGA:  22    -0.411513876925E+03   -0.19436E+00   -0.24727E+00  6480   0.207E+01-0.346E+01
CGA:  23    -0.411600501812E+03   -0.86625E-01   -0.87573E-01  6480   0.161E+01-0.638E-01
CGA:  24    -0.411677453437E+03   -0.76952E-01   -0.76255E-01  6480   0.133E+01-0.788E-01
CGA:  25    -0.411761752972E+03   -0.84300E-01   -0.83982E-01  6480   0.132E+01-0.775E-01
CGA:  26    -0.411834411479E+03   -0.72659E-01   -0.76111E-01  6480   0.945E+00-0.934E-01
CGA:  27    -0.411881687047E+03   -0.47276E-01   -0.48093E-01  6480   0.592E+00-0.722E-01
CGA:  28    -0.411916823567E+03   -0.35137E-01   -0.35664E-01  6480   0.420E+00-0.329E-01
CGA:  29    -0.411939687013E+03   -0.22863E-01   -0.23020E-01  6480   0.252E+00-0.334E-01
CGA:  30    -0.411957241045E+03   -0.17554E-01   -0.17473E-01  6480   0.205E+00-0.179E-01
CGA:  31    -0.411970968333E+03   -0.13727E-01   -0.13498E-01  6480   0.126E+00-0.223E-01
CGA:  32    -0.411977862110E+03   -0.68938E-02   -0.66566E-02  6480   0.516E-01-0.114E-01
CGA:  33    -0.411981558084E+03   -0.36960E-02   -0.35871E-02  6480   0.531E-01-0.945E-02
CGA:  34    -0.411986065770E+03   -0.45077E-02   -0.46873E-02  6480   0.481E-01-0.101E-01
CGA:  35    -0.411988492794E+03   -0.24270E-02   -0.21905E-02  6480   0.173E-01-0.830E-02
CGA:  36    -0.411989844125E+03   -0.13513E-02   -0.13947E-02  6480   0.257E-01-0.480E-02
CGA:  37    -0.411991610565E+03   -0.17664E-02   -0.24055E-02  6480   0.403E-01-0.157E-01
CGA:  38    -0.411992661505E+03   -0.10509E-02   -0.10707E-02  6480   0.456E-02 0.116E-02
CGA:  39    -0.411993322138E+03   -0.66063E-03   -0.12576E-02  6480   0.819E-02-0.330E-02
CGA:  40    -0.411993688091E+03   -0.36595E-03   -0.39135E-03  6480   0.369E-02 0.507E-03
CGA:  41    -0.411993919602E+03   -0.23151E-03   -0.26156E-03  6480   0.606E-03 0.109E-02
CGA:  42    -0.411993961232E+03   -0.41630E-04   -0.46280E-04  6480   0.664E-03 0.137E-03
CGA:  43    -0.411994067931E+03   -0.10670E-03   -0.98497E-04  6480   0.653E-03 0.274E-03
CGA:  44    -0.411994174708E+03   -0.10678E-03   -0.11067E-03  6480   0.226E-02-0.141E-03
CGA:  45    -0.411994292199E+03   -0.11749E-03   -0.10680E-03  6480   0.294E-02-0.322E-03
CGA:  46    -0.411994350524E+03   -0.58324E-04   -0.51212E-04  6480   0.780E-03-0.467E-04
CGA:  47    -0.411994361621E+03   -0.11097E-04   -0.14704E-04  6480   0.384E-03 0.578E-04
CGA:  48    -0.411994365530E+03   -0.39093E-05   -0.11765E-04  6480   0.523E-03 0.140E-03
CGA:  49    -0.411994376091E+03   -0.10561E-04   -0.26244E-04  6480   0.602E-03 0.345E-03
CGA:  50    -0.411994398476E+03   -0.22385E-04   -0.23638E-04  6480   0.217E-03 0.304E-04
CGA:  51    -0.411994418171E+03   -0.19694E-04   -0.18843E-04  6480   0.187E-03 0.181E-03
CGA:  52    -0.411994431662E+03   -0.13491E-04   -0.13495E-04  6480   0.254E-03 0.697E-06
CGA:  53    -0.411994473896E+03   -0.42234E-04   -0.34422E-04  6480   0.166E-03 0.138E-03
CGA:  54    -0.411994487396E+03   -0.13500E-04   -0.12950E-04  6480   0.468E-03-0.186E-03
CGA:  55    -0.411994496730E+03   -0.93337E-05   -0.11876E-04  6480   0.451E-04 0.458E-04
   1 F= -.41199450E+03 E0= -.41199002E+03  d E =-.411994E+03  mag=    14.0000
       N       E                     dE             d eps       ncg     rms          ort
SDA:   1    -0.411980341319E+03    0.14146E-01    0.00000E+00  6480   0.137E+00 0.000E+00
CGA:   2    -0.411985108278E+03   -0.47670E-02   -0.48096E-02  6480   0.306E-01 0.181E-03
CGA:   3    -0.411990913477E+03   -0.58052E-02   -0.59328E-02  6480   0.545E-01-0.111E-02
CGA:   4    -0.411992595145E+03   -0.16817E-02   -0.17367E-02  6480   0.104E-01 0.111E-02
CGA:   5    -0.411993814111E+03   -0.12190E-02   -0.12194E-02  6480   0.112E-01-0.272E-04
CGA:   6    -0.411994298469E+03   -0.48436E-03   -0.47855E-03  6480   0.208E-02-0.173E-03
CGA:   7    -0.411994452524E+03   -0.15406E-03   -0.15499E-03  6480   0.241E-02 0.271E-03
CGA:   8    -0.411994612189E+03   -0.15967E-03   -0.15551E-03  6480   0.500E-03-0.196E-03
CGA:   9    -0.411994633797E+03   -0.21608E-04   -0.24220E-04  6480   0.244E-03 0.103E-03
CGA:  10    -0.411994672999E+03   -0.39202E-04   -0.51902E-04  6480   0.663E-03-0.127E-03
CGA:  11    -0.411994681326E+03   -0.83269E-05   -0.14038E-04  6480   0.636E-04 0.929E-04
   2 F= -.41199468E+03 E0= -.41199022E+03  d E =-.184596E-03  mag=    14.0000
       N       E                     dE             d eps       ncg     rms          ort
SDA:   1    -0.411986819149E+03    0.78538E-02    0.00000E+00  6480   0.337E+00 0.000E+00
CGA:   2    -0.411994212068E+03   -0.73929E-02   -0.74185E-02  6480   0.429E-02 0.838E-02
CGA:   3    -0.411994386109E+03   -0.17404E-03   -0.17669E-03  6480   0.165E-02 0.557E-04
CGA:   4    -0.411994650890E+03   -0.26478E-03   -0.27203E-03  6480   0.234E-02-0.826E-04
CGA:   5    -0.411994701773E+03   -0.50883E-04   -0.62682E-04  6480   0.510E-03 0.228E-03
CGA:   6    -0.411994753682E+03   -0.51909E-04   -0.50538E-04  6480   0.804E-03 0.974E-04
CGA:   7    -0.411994803201E+03   -0.49519E-04   -0.43286E-04  6480   0.159E-03-0.200E-03
CGA:   8    -0.411994806004E+03   -0.28028E-05   -0.44458E-05  6480   0.588E-04 0.426E-04
   3 F= -.41199481E+03 E0= -.41199034E+03  d E =-.309274E-03  mag=    14.0000
       N       E                     dE             d eps       ncg     rms          ort
SDA:   1    -0.411991942254E+03    0.28609E-02    0.00000E+00  6480   0.106E+00 0.000E+00
CGA:   2    -0.411994172450E+03   -0.22302E-02   -0.22942E-02  6480   0.195E-02 0.281E-02
CGA:   3    -0.411994428295E+03   -0.25585E-03   -0.24388E-03  6480   0.379E-02 0.233E-03
CGA:   4    -0.411994695056E+03   -0.26676E-03   -0.26296E-03  6480   0.175E-02-0.315E-03
CGA:   5    -0.411994751990E+03   -0.56934E-04   -0.64027E-04  6480   0.671E-03 0.206E-03
CGA:   6    -0.411994832386E+03   -0.80396E-04   -0.80450E-04  6480   0.497E-03-0.259E-05
CGA:   7    -0.411994860298E+03   -0.27913E-04   -0.24086E-04  6480   0.292E-03-0.154E-03
CGA:   8    -0.411994865238E+03   -0.49400E-05   -0.68629E-05  6480   0.115E-03 0.496E-04
   4 F= -.41199487E+03 E0= -.41199040E+03  d E =-.368509E-03  mag=    14.0000
       N       E                     dE             d eps       ncg     rms          ort
SDA:   1    -0.411992489285E+03    0.23710E-02    0.00000E+00  6480   0.804E-01 0.000E+00
CGA:   2    -0.411994182976E+03   -0.16937E-02   -0.17569E-02  6480   0.211E-02 0.214E-02
CGA:   3    -0.411994418862E+03   -0.23589E-03   -0.22935E-03  6480   0.351E-02 0.159E-03
CGA:   4    -0.411994694611E+03   -0.27575E-03   -0.27727E-03  6480   0.179E-02-0.305E-03
CGA:   5    -0.411994749511E+03   -0.54900E-04   -0.61688E-04  6480   0.816E-03 0.216E-03
CGA:   6    -0.411994840059E+03   -0.90548E-04   -0.90118E-04  6480   0.534E-03 0.129E-04
CGA:   7    -0.411994869783E+03   -0.29724E-04   -0.25790E-04  6480   0.349E-03-0.190E-03
CGA:   8    -0.411994876389E+03   -0.66061E-05   -0.81266E-05  6480   0.148E-03 0.478E-04
   5 F= -.41199488E+03 E0= -.41199041E+03  d E =-.379659E-03  mag=    14.0000
       N       E                     dE             d eps       ncg     rms          ort
SDA:   1    -0.411987592942E+03    0.72768E-02    0.00000E+00  6480   0.588E-01 0.000E+00
CGA:   2    -0.411989419139E+03   -0.18262E-02   -0.18782E-02  6480   0.224E-01 0.171E-02
CGA:   3    -0.411992526436E+03   -0.31073E-02   -0.30869E-02  6480   0.175E-01 0.265E-03
CGA:   4    -0.411993438140E+03   -0.91170E-03   -0.92287E-03  6480   0.813E-02 0.734E-03
CGA:   5    -0.411994540862E+03   -0.11027E-02   -0.10554E-02  6480   0.175E-02 0.793E-03
CGA:   6    -0.411994807570E+03   -0.26671E-03   -0.27410E-03  6480   0.315E-02-0.103E-03
CGA:   7    -0.411994879699E+03   -0.72129E-04   -0.85320E-04  6480   0.397E-03 0.298E-03
CGA:   8    -0.411994895670E+03   -0.15970E-04   -0.18629E-04  6480   0.414E-03 0.976E-04
CGA:   9    -0.411994943355E+03   -0.47685E-04   -0.50430E-04  6480   0.277E-03-0.942E-04
CGA:  10    -0.411994948586E+03   -0.52307E-05   -0.59555E-05  6480   0.922E-04 0.165E-04
   6 F= -.41199495E+03 E0= -.41199048E+03  d E =-.721967E-04  mag=    14.0000
       N       E                     dE             d eps       ncg     rms          ort
SDA:   1    -0.411992627780E+03    0.23156E-02    0.00000E+00  6480   0.726E-01 0.000E+00
CGA:   2    -0.411994449605E+03   -0.18218E-02   -0.18705E-02  6480   0.221E-02 0.911E-03
CGA:   3    -0.411994591353E+03   -0.14175E-03   -0.14117E-03  6480   0.316E-02-0.445E-03
CGA:   4    -0.411994812917E+03   -0.22156E-03   -0.22533E-03  6480   0.116E-02-0.153E-03
CGA:   5    -0.411994859464E+03   -0.46547E-04   -0.47822E-04  6480   0.877E-03 0.550E-04
CGA:   6    -0.411994950900E+03   -0.91437E-04   -0.11807E-03  6480   0.108E-02-0.417E-03
CGA:   7    -0.411994960385E+03   -0.94845E-05   -0.10571E-04  6480   0.415E-03 0.208E-04
   7 F= -.41199496E+03 E0= -.41199049E+03  d E =-.839961E-04  mag=    14.0000
       N       E                     dE             d eps       ncg     rms          ort
SDA:   1    -0.411993261509E+03    0.16894E-02    0.00000E+00  6480   0.300E-01 0.000E+00
CGA:   2    -0.411993966668E+03   -0.70516E-03   -0.74419E-03  6480   0.346E-02 0.106E-02
CGA:   3    -0.411994399175E+03   -0.43251E-03   -0.44896E-03  6480   0.461E-02-0.260E-03
CGA:   4    -0.411994606898E+03   -0.20772E-03   -0.20499E-03  6480   0.169E-02-0.181E-03
CGA:   5    -0.411994831487E+03   -0.22459E-03   -0.23296E-03  6480   0.246E-02-0.106E-03
CGA:   6    -0.411994924849E+03   -0.93362E-04   -0.81574E-04  6480   0.422E-03-0.376E-03
CGA:   7    -0.411994965714E+03   -0.40865E-04   -0.39409E-04  6480   0.270E-03 0.323E-04
CGA:   8    -0.411994984421E+03   -0.18707E-04   -0.18058E-04  6480   0.231E-03-0.115E-03
CGA:   9    -0.411994987322E+03   -0.29008E-05   -0.43905E-05  6480   0.985E-04 0.431E-04
   8 F= -.41199499E+03 E0= -.41199052E+03  d E =-.110933E-03  mag=    14.0000
       N       E                     dE             d eps       ncg     rms          ort
SDA:   1    -0.411994455655E+03    0.52877E-03    0.00000E+00  6480   0.181E-01 0.000E+00
CGA:   2    -0.411994818666E+03   -0.36301E-03   -0.39517E-03  6480   0.572E-03 0.793E-03
CGA:   3    -0.411994860708E+03   -0.42042E-04   -0.41665E-04  6480   0.615E-03 0.446E-04
CGA:   4    -0.411994918491E+03   -0.57784E-04   -0.67269E-04  6480   0.667E-03-0.242E-03
CGA:   5    -0.411994925057E+03   -0.65659E-05   -0.90725E-05  6480   0.282E-03 0.593E-04
CGA:   6    -0.411994931223E+03   -0.61655E-05   -0.83690E-05  6480   0.254E-03 0.628E-04
CGA:   7    -0.411994956860E+03   -0.25637E-04   -0.28982E-04  6480   0.472E-03-0.101E-03
CGA:   8    -0.411994968170E+03   -0.11310E-04   -0.56955E-05  6480   0.176E-03-0.135E-03
CGA:   9    -0.411994974003E+03   -0.58326E-05   -0.28982E-05  6480   0.110E-03-0.808E-04
   9 F= -.41199497E+03 E0= -.41199051E+03  d E =-.976140E-04  mag=    14.0000
