       N       E                     dE             d eps       ncg     rms          ort
DAV:   1     0.225816518465E+04    0.22582E+04   -0.13747E+05 10080   0.155E+03
DAV:   2    -0.244410669263E+03   -0.25026E+04   -0.23579E+04 10080   0.414E+02
DAV:   3    -0.478627257340E+03   -0.23422E+03   -0.23083E+03 10080   0.143E+02
DAV:   4    -0.485628927106E+03   -0.70017E+01   -0.69329E+01 10080   0.228E+01
DAV:   5    -0.485903868198E+03   -0.27494E+00   -0.27462E+00 10080   0.363E+00
SDA:   6    -0.243567849956E+03    0.24234E+03   -0.27462E+00 10080   0.828E+03 0.000E+00
CGA:   7    -0.297659631987E+03   -0.54092E+02   -0.86518E+02 10080   0.416E+03 0.299E+02
CGA:   8    -0.315320076806E+03   -0.17660E+02   -0.20830E+02 10080   0.583E+03-0.262E+01
CGA:   9    -0.315522033416E+03   -0.20196E+00   -0.27522E+02 10080   0.421E+03-0.528E+02
CGA:  10    -0.322565526751E+03   -0.70435E+01   -0.14861E+02 10080   0.853E+03-0.150E+03
CGA:  11    -0.304732580608E+03    0.17833E+02   -0.21070E+02 10080   0.122E+04-0.567E+03
CGA:  12    -0.327206777623E+03   -0.22474E+02   -0.79228E+02 10080   0.614E+03-0.254E+03
CGA:  13    -0.334798938599E+03   -0.75922E+01   -0.25655E+02 10080   0.958E+03 0.267E+03
CGA:  14    -0.353692744085E+03   -0.18894E+02   -0.80266E+02 10080   0.953E+02-0.166E+03
CGA:  15    -0.359083285888E+03   -0.53905E+01   -0.23342E+01 10080   0.989E+02 0.115E+03
CGA:  16    -0.365392493370E+03   -0.63092E+01   -0.30669E+01 10080   0.354E+02 0.137E+02
CGA:  17    -0.365603118825E+03   -0.21063E+00   -0.14312E+01 10080   0.129E+03-0.308E+02
CGA:  18    -0.362099389992E+03    0.35037E+01   -0.55595E+01 10080   0.261E+03-0.119E+03
CGA:  19    -0.354804539349E+03    0.72949E+01   -0.11069E+02 10080   0.417E+03-0.267E+03
CGA:  20    -0.349000911011E+03    0.58036E+01   -0.20337E+02 10080   0.412E+03-0.300E+03
CGA:  21    -0.353422280566E+03   -0.44214E+01   -0.18764E+02 10080   0.272E+03-0.304E+03
CGA:  22    -0.356405900838E+03   -0.29836E+01   -0.11198E+02 10080   0.348E+03-0.403E+03
CGA:  23    -0.355871319937E+03    0.53458E+00   -0.13757E+02 10080   0.341E+03-0.333E+03
CGA:  24    -0.354553197474E+03    0.13181E+01   -0.13822E+02 10080   0.399E+03-0.375E+03
CGA:  25    -0.356017760290E+03   -0.14646E+01   -0.15626E+02 10080   0.314E+03-0.327E+03
CGA:  26    -0.357287983402E+03   -0.12702E+01   -0.11690E+02 10080   0.377E+03-0.402E+03
CGA:  27    -0.357885143084E+03   -0.59716E+00   -0.13498E+02 10080   0.345E+03-0.351E+03
CGA:  28    -0.357708083866E+03    0.17706E+00   -0.12220E+02 10080   0.398E+03-0.396E+03
CGA:  29    -0.358702505471E+03   -0.99442E+00   -0.13609E+02 10080   0.351E+03-0.361E+03
CGA:  30    -0.359280157933E+03   -0.57765E+00   -0.11686E+02 10080   0.395E+03-0.407E+03
CGA:  31    -0.360365655650E+03   -0.10855E+01   -0.12633E+02 10080   0.373E+03-0.387E+03
CGA:  32    -0.360683879781E+03   -0.31822E+00   -0.11736E+02 10080   0.401E+03-0.408E+03
CGA:  33    -0.361957671731E+03   -0.12738E+01   -0.12088E+02 10080   0.383E+03-0.403E+03
CGA:  34    -0.362677024092E+03   -0.71935E+00   -0.11324E+02 10080   0.390E+03-0.405E+03
CGA:  35    -0.364231583274E+03   -0.15546E+01   -0.10991E+02 10080   0.357E+03-0.387E+03
CGA:  36    -0.365728154923E+03   -0.14966E+01   -0.96482E+01 10080   0.325E+03-0.362E+03
CGA:  37    -0.367534268632E+03   -0.18061E+01   -0.82945E+01 10080   0.233E+03-0.276E+03
CGA:  38    -0.369891509990E+03   -0.23572E+01   -0.52252E+01 10080   0.109E+03-0.170E+03
CGA:  39    -0.371092374846E+03   -0.12009E+01   -0.20858E+01 10080   0.217E+02-0.440E+02
CGA:  40    -0.371456730000E+03   -0.36436E+00   -0.36723E+00 10080   0.166E+01-0.121E+00
CGA:  41    -0.371660654655E+03   -0.20392E+00   -0.18875E+00 10080   0.760E+01 0.272E+00
CGA:  42    -0.372541338264E+03   -0.88068E+00   -0.83075E+00 10080   0.101E+01 0.140E+01
CGA:  43    -0.372604924524E+03   -0.63586E-01   -0.63887E-01 10080   0.672E+00-0.243E-01
CGA:  44    -0.372796308749E+03   -0.19138E+00   -0.19152E+00 10080   0.163E+01 0.248E-01
CGA:  45    -0.372899105247E+03   -0.10280E+00   -0.10490E+00 10080   0.194E+00-0.548E-01
CGA:  46    -0.372931459606E+03   -0.32354E-01   -0.38472E-01 10080   0.401E+00-0.462E-01
CGA:  47    -0.372963788966E+03   -0.32329E-01   -0.34420E-01 10080   0.134E+00-0.764E-01
CGA:  48    -0.372976680779E+03   -0.12892E-01   -0.16208E-01 10080   0.243E+00-0.516E-01
CGA:  49    -0.372993368111E+03   -0.16687E-01   -0.23526E-01 10080   0.865E-01-0.992E-01
CGA:  50    -0.372998663054E+03   -0.52949E-02   -0.54832E-02 10080   0.804E-01-0.132E-01
CGA:  51    -0.373007079367E+03   -0.84163E-02   -0.86641E-02 10080   0.351E-01-0.728E-02
CGA:  52    -0.373010084391E+03   -0.30050E-02   -0.30052E-02 10080   0.284E-01 0.152E-02
CGA:  53    -0.373016662636E+03   -0.65782E-02   -0.57197E-02 10080   0.207E-01 0.879E-02
CGA:  54    -0.373018623006E+03   -0.19604E-02   -0.20777E-02 10080   0.117E-01 0.542E-02
CGA:  55    -0.373020320171E+03   -0.16972E-02   -0.16020E-02 10080   0.879E-02 0.923E-02
CGA:  56    -0.373020875037E+03   -0.55487E-03   -0.62891E-03 10080   0.407E-02 0.276E-02
CGA:  57    -0.373021201697E+03   -0.32666E-03   -0.40982E-03 10080   0.369E-02 0.407E-02
CGA:  58    -0.373021409347E+03   -0.20765E-03   -0.26223E-03 10080   0.258E-02 0.218E-02
CGA:  59    -0.373021568915E+03   -0.15957E-03   -0.19963E-03 10080   0.232E-02 0.228E-02
CGA:  60    -0.373021707749E+03   -0.13883E-03   -0.17705E-03 10080   0.216E-02 0.217E-02
CGA:  61    -0.373021833684E+03   -0.12594E-03   -0.16273E-03 10080   0.205E-02 0.206E-02
CGA:  62    -0.373021952974E+03   -0.11929E-03   -0.15342E-03 10080   0.196E-02 0.196E-02
CGA:  63    -0.373022067228E+03   -0.11425E-03   -0.14605E-03 10080   0.189E-02 0.188E-02
CGA:  64    -0.373022181530E+03   -0.11430E-03   -0.14210E-03 10080   0.183E-02 0.182E-02
CGA:  65    -0.373022295857E+03   -0.11433E-03   -0.13877E-03 10080   0.178E-02 0.176E-02
CGA:  66    -0.373022415002E+03   -0.11915E-03   -0.13842E-03 10080   0.173E-02 0.171E-02
CGA:  67    -0.373022538005E+03   -0.12300E-03   -0.13801E-03 10080   0.170E-02 0.167E-02
CGA:  68    -0.373022670211E+03   -0.13221E-03   -0.14067E-03 10080   0.166E-02 0.163E-02
CGA:  69    -0.373022808564E+03   -0.13835E-03   -0.14206E-03 10080   0.163E-02 0.159E-02
CGA:  70    -0.373022960408E+03   -0.15184E-03   -0.14747E-03 10080   0.160E-02 0.155E-02
CGA:  71    -0.373023113917E+03   -0.15351E-03   -0.14725E-03 10080   0.159E-02 0.149E-02
CGA:  72    -0.373023276896E+03   -0.16298E-03   -0.15226E-03 10080   0.165E-02 0.136E-02
CGA:  73    -0.373023400509E+03   -0.12361E-03   -0.13288E-03 10080   0.177E-02 0.114E-02
CGA:  74    -0.373023520956E+03   -0.12045E-03   -0.13209E-03 10080   0.188E-02 0.868E-03
CGA:  75    -0.373023827064E+03   -0.30611E-03   -0.27725E-03 10080   0.134E-02 0.255E-02
CGA:  76    -0.373023916011E+03   -0.88947E-04   -0.99979E-04 10080   0.139E-02 0.817E-03
CGA:  77    -0.373024008443E+03   -0.92433E-04   -0.10156E-03 10080   0.144E-02 0.645E-03
CGA:  78    -0.373024239833E+03   -0.23139E-03   -0.20826E-03 10080   0.107E-02 0.195E-02
CGA:  79    -0.373024303397E+03   -0.63564E-04   -0.74482E-04 10080   0.105E-02 0.614E-03
CGA:  80    -0.373024375597E+03   -0.72200E-04   -0.78319E-04 10080   0.110E-02 0.518E-03
CGA:  81    -0.373024551155E+03   -0.17556E-03   -0.15878E-03 10080   0.825E-03 0.153E-02
CGA:  82    -0.373024601512E+03   -0.50357E-04   -0.58238E-04 10080   0.814E-03 0.502E-03
CGA:  83    -0.373024660493E+03   -0.58980E-04   -0.62598E-04 10080   0.870E-03 0.422E-03
CGA:  84    -0.373024701886E+03   -0.41393E-04   -0.51849E-04 10080   0.727E-03 0.411E-03
CGA:  85    -0.373024810052E+03   -0.10817E-03   -0.99157E-04 10080   0.794E-03 0.102E-02
CGA:  86    -0.373024857802E+03   -0.47749E-04   -0.52702E-04 10080   0.724E-03 0.276E-03
CGA:  87    -0.373024963496E+03   -0.10569E-03   -0.93711E-04 10080   0.681E-03 0.934E-03
CGA:  88    -0.373024994797E+03   -0.31301E-04   -0.39257E-04 10080   0.535E-03 0.302E-03
CGA:  89    -0.373025076007E+03   -0.81209E-04   -0.72746E-04 10080   0.644E-03 0.733E-03
CGA:  90    -0.373025116163E+03   -0.40156E-04   -0.43136E-04 10080   0.579E-03 0.183E-03
CGA:  91    -0.373025208254E+03   -0.92091E-04   -0.76910E-04 10080   0.555E-03 0.715E-03
CGA:  92    -0.373025234540E+03   -0.26286E-04   -0.32050E-04 10080   0.421E-03 0.224E-03
CGA:  93    -0.373025309281E+03   -0.74742E-04   -0.61986E-04 10080   0.535E-03 0.559E-03
CGA:  94    -0.373025345160E+03   -0.35878E-04   -0.37359E-04 10080   0.494E-03 0.109E-03
CGA:  95    -0.373025440250E+03   -0.95091E-04   -0.72551E-04 10080   0.461E-03 0.570E-03
CGA:  96    -0.373025464134E+03   -0.23884E-04   -0.27741E-04 10080   0.344E-03 0.158E-03
CGA:  97    -0.373025548225E+03   -0.84091E-04   -0.62006E-04 10080   0.455E-03 0.433E-03
CGA:  98    -0.373025581225E+03   -0.33000E-04   -0.33594E-04 10080   0.425E-03 0.485E-04
CGA:  99    -0.373025691023E+03   -0.10980E-03   -0.76290E-04 10080   0.410E-03 0.432E-03
CGA: 100    -0.373025717386E+03   -0.26363E-04   -0.28083E-04 10080   0.294E-03 0.826E-04
CGA: 101    -0.373025841689E+03   -0.12430E-03   -0.81064E-04 10080   0.434E-03 0.302E-03
CGA: 102    -0.373025872623E+03   -0.30934E-04   -0.31740E-04 10080   0.278E-03 0.365E-04
CGA: 103    -0.373026017530E+03   -0.14491E-03   -0.10005E-03 10080   0.461E-03 0.183E-03
CGA: 104    -0.373026072956E+03   -0.55426E-04   -0.55185E-04 10080   0.283E-03 0.163E-04
CGA: 105    -0.373026130375E+03   -0.57419E-04   -0.64470E-04 10080   0.859E-03-0.649E-04
CGA: 106    -0.373026326251E+03   -0.19588E-03   -0.32125E-03 10080   0.447E-02-0.377E-03
CGA: 107    -0.373026445273E+03   -0.11902E-03   -0.10400E-03 10080   0.296E-02 0.542E-04
CGA: 108    -0.373026597467E+03   -0.15219E-03   -0.14127E-03 10080   0.159E-02-0.585E-04
CGA: 109    -0.373026701552E+03   -0.10409E-03   -0.94307E-04 10080   0.781E-03-0.119E-03
CGA: 110    -0.373026744915E+03   -0.43363E-04   -0.33431E-04 10080   0.276E-03-0.127E-03
CGA: 111    -0.373026799430E+03   -0.54515E-04    0.73932E-03 10080   0.597E-03-0.151E-03
CGA: 112    -0.373026867476E+03   -0.68046E-04   -0.67423E-04 10080   0.728E-03-0.213E-03
CGA: 113    -0.373026998892E+03   -0.13142E-03    0.12774E-03 10080   0.601E-03 0.233E-03
CGA: 114    -0.373027087392E+03   -0.88501E-04   -0.13545E-03 10080   0.264E-02-0.848E-03
CGA: 115    -0.373027233795E+03   -0.14640E-03   -0.14367E-03 10080   0.148E-03-0.462E-04
CGA: 116    -0.373027037842E+03    0.19595E-03   -0.10687E-03 10080   0.659E-02-0.497E-03
CGA: 117    -0.373027346450E+03   -0.30861E-03   -0.29185E-03 10080   0.409E-03-0.166E-03
CGA: 118    -0.373027418907E+03   -0.72457E-04   -0.71379E-04 10080   0.295E-03-0.482E-04
CGA: 119    -0.373027447607E+03   -0.28700E-04   -0.19597E-04 10080   0.601E-04-0.724E-04
CGA: 120    -0.373027470870E+03   -0.23263E-04    0.13900E-04 10080   0.892E-04 0.260E-06
CGA: 121    -0.373027520953E+03   -0.50084E-04    0.19898E-04 10080   0.199E-03-0.487E-04
CGA: 122    -0.373027527694E+03   -0.67409E-05   -0.86488E-05 10080   0.219E-04 0.127E-04
   1 F= -.37302753E+03 E0= -.37302157E+03  d E =-.373028E+03  mag=     8.0000
       N       E                     dE             d eps       ncg     rms          ort
SDA:   1    -0.373111620468E+03   -0.84100E-01    0.00000E+00 10080   0.290E-01 0.000E+00
CGA:   2    -0.373113874768E+03   -0.22543E-02   -0.22958E-02 10080   0.160E-01 0.303E-03
CGA:   3    -0.373116021552E+03   -0.21468E-02   -0.21500E-02 10080   0.665E-02 0.564E-04
CGA:   4    -0.373116494159E+03   -0.47261E-03   -0.47965E-03 10080   0.221E-02 0.797E-04
CGA:   5    -0.373117030010E+03   -0.53585E-03   -0.55287E-03 10080   0.616E-03-0.231E-03
CGA:   6    -0.373117081828E+03   -0.51818E-04   -0.53534E-04 10080   0.404E-03 0.217E-04
CGA:   7    -0.373117143080E+03   -0.61252E-04   -0.60293E-04 10080   0.146E-03-0.329E-04
CGA:   8    -0.373117157369E+03   -0.14289E-04   -0.13834E-04 10080   0.126E-03-0.684E-05
CGA:   9    -0.373116956331E+03    0.20104E-03   -0.92375E-04 10080   0.400E-02-0.495E-03
CGA:  10    -0.373117133922E+03   -0.17759E-03   -0.18981E-03 10080   0.592E-03 0.105E-03
CGA:  11    -0.373117232913E+03   -0.98991E-04   -0.99539E-04 10080   0.198E-03 0.200E-04
CGA:  12    -0.373117250694E+03   -0.17781E-04   -0.16862E-04 10080   0.950E-04-0.851E-05
CGA:  13    -0.373117132294E+03    0.11840E-03   -0.76801E-04 10080   0.138E-02-0.299E-03
CGA:  14    -0.373117220815E+03   -0.88521E-04   -0.96876E-04 10080   0.483E-03 0.583E-04
CGA:  15    -0.373117275805E+03   -0.54990E-04   -0.63162E-04 10080   0.962E-04 0.968E-04
CGA:  16    -0.373117299604E+03   -0.23799E-04   -0.23878E-04 10080   0.355E-03-0.683E-04
CGA:  17    -0.373117313070E+03   -0.13466E-04   -0.15484E-04 10080   0.144E-04 0.128E-04
CGA:  18    -0.373117321742E+03   -0.86724E-05    0.31525E-05 10080   0.394E-04-0.550E-05
   2 F= -.37311732E+03 E0= -.37311136E+03  d E =-.897940E-01  mag=     8.0000
       N       E                     dE             d eps       ncg     rms          ort
SDA:   1    -0.368588513558E+03    0.45288E+01    0.00000E+00 10080   0.243E+02 0.000E+00
CGA:   2    -0.372741604086E+03   -0.41531E+01   -0.42213E+01 10080   0.173E+02 0.106E+01
CGA:   3    -0.374247221834E+03   -0.15056E+01   -0.10553E+01 10080   0.347E+01 0.679E+01
CGA:   4    -0.374653687551E+03   -0.40647E+00   -0.37850E+00 10080   0.438E+01 0.207E+00
CGA:   5    -0.375173792512E+03   -0.52010E+00   -0.51860E+00 10080   0.501E+01-0.742E-02
CGA:   6    -0.375366906535E+03   -0.19311E+00   -0.21602E+00 10080   0.925E+00-0.458E+00
CGA:   7    -0.375421763727E+03   -0.54857E-01   -0.56701E-01 10080   0.859E+00-0.213E-01
CGA:   8    -0.375512571564E+03   -0.90808E-01   -0.90710E-01 10080   0.584E+00-0.111E-02
CGA:   9    -0.375542106885E+03   -0.29535E-01   -0.28980E-01 10080   0.196E+00 0.866E-02
CGA:  10    -0.375567144589E+03   -0.25038E-01   -0.25051E-01 10080   0.362E+00 0.785E-04
CGA:  11    -0.375596585191E+03   -0.29441E-01   -0.29625E-01 10080   0.129E+00-0.198E-02
CGA:  12    -0.375604154179E+03   -0.75690E-02   -0.76865E-02 10080   0.725E-01-0.267E-02
CGA:  13    -0.375615266364E+03   -0.11112E-01   -0.11126E-01 10080   0.941E-01-0.187E-02
CGA:  14    -0.375620705656E+03   -0.54393E-02   -0.53308E-02 10080   0.221E-01-0.606E-03
CGA:  15    -0.375622885379E+03   -0.21797E-02   -0.21900E-02 10080   0.290E-01 0.222E-03
CGA:  16    -0.375626012682E+03   -0.31273E-02   -0.31554E-02 10080   0.138E-01 0.792E-03
CGA:  17    -0.375626922470E+03   -0.90979E-03   -0.91641E-03 10080   0.756E-02-0.125E-04
CGA:  18    -0.375628291506E+03   -0.13690E-02   -0.14050E-02 10080   0.111E-01-0.749E-03
CGA:  19    -0.375628926648E+03   -0.63514E-03   -0.60832E-03 10080   0.345E-02-0.318E-03
CGA:  20    -0.375629256133E+03   -0.32949E-03   -0.33043E-03 10080   0.458E-02 0.254E-04
CGA:  21    -0.375629757838E+03   -0.50170E-03   -0.50343E-03 10080   0.235E-02 0.671E-04
CGA:  22    -0.375629920546E+03   -0.16271E-03   -0.15560E-03 10080   0.130E-02-0.112E-03
CGA:  23    -0.375630157025E+03   -0.23648E-03   -0.32486E-03 10080   0.304E-02-0.672E-03
CGA:  24    -0.375630334252E+03   -0.17723E-03   -0.18177E-03 10080   0.419E-03 0.697E-04
CGA:  25    -0.375630441535E+03   -0.10728E-03   -0.93994E-04 10080   0.142E-03 0.153E-03
CGA:  26    -0.375630482244E+03   -0.40709E-04   -0.57041E-04 10080   0.666E-03-0.104E-03
CGA:  27    -0.375630519236E+03   -0.36991E-04   -0.36828E-04 10080   0.395E-04 0.999E-07
CGA:  28    -0.375630532553E+03   -0.13317E-04    0.13419E-04 10080   0.274E-04 0.312E-04
CGA:  29    -0.375630542891E+03   -0.10338E-04    0.54524E-05 10080   0.272E-04 0.198E-04
CGA:  30    -0.375630551983E+03   -0.90923E-05    0.97633E-05 10080   0.378E-04 0.986E-05
   3 F= -.37563055E+03 E0= -.37562468E+03  d E =-.251323E+01  mag=     8.0000
       N       E                     dE             d eps       ncg     rms          ort
SDA:   1    -0.363973344351E+03    0.11657E+02    0.00000E+00 10080   0.559E+02 0.000E+00
CGA:   2    -0.370371028395E+03   -0.63977E+01   -0.66577E+01 10080   0.387E+02 0.404E+01
CGA:   3    -0.374781711829E+03   -0.44107E+01   -0.36251E+01 10080   0.709E+01 0.388E+01
CGA:   4    -0.375974679421E+03   -0.11930E+01   -0.11961E+01 10080   0.980E+01-0.124E+00
CGA:   5    -0.376848379554E+03   -0.87370E+00   -0.85273E+00 10080   0.128E+01 0.794E-01
CGA:   6    -0.377033377275E+03   -0.18500E+00   -0.18516E+00 10080   0.182E+01-0.119E-01
CGA:   7    -0.377166422707E+03   -0.13305E+00   -0.13587E+00 10080   0.310E+00-0.168E-01
CGA:   8    -0.377205801858E+03   -0.39379E-01   -0.39391E-01 10080   0.386E+00 0.176E-02
CGA:   9    -0.377252368757E+03   -0.46567E-01   -0.46613E-01 10080   0.122E+00 0.150E-02
CGA:  10    -0.377273038432E+03   -0.20670E-01   -0.20667E-01 10080   0.192E+00-0.105E-02
CGA:  11    -0.377290101704E+03   -0.17063E-01   -0.16983E-01 10080   0.423E-01-0.285E-02
CGA:  12    -0.377297445921E+03   -0.73442E-02   -0.73718E-02 10080   0.566E-01-0.676E-03
CGA:  13    -0.377303347020E+03   -0.59011E-02   -0.58915E-02 10080   0.117E-01-0.899E-03
CGA:  14    -0.377306113263E+03   -0.27662E-02   -0.28805E-02 10080   0.218E-01-0.972E-03
CGA:  15    -0.377307579434E+03   -0.14662E-02   -0.14228E-02 10080   0.435E-02-0.746E-03
CGA:  16    -0.377308586889E+03   -0.10075E-02   -0.10056E-02 10080   0.708E-02 0.155E-04
CGA:  17    -0.377309137207E+03   -0.55032E-03   -0.55298E-03 10080   0.194E-02 0.681E-05
CGA:  18    -0.377309517136E+03   -0.37993E-03   -0.41910E-03 10080   0.431E-02-0.500E-03
CGA:  19    -0.377309804294E+03   -0.28716E-03   -0.26591E-03 10080   0.133E-02-0.382E-03
CGA:  20    -0.377309878835E+03   -0.74541E-04   -0.80006E-04 10080   0.104E-02 0.732E-04
CGA:  21    -0.377309994606E+03   -0.11577E-03   -0.12251E-03 10080   0.856E-03 0.297E-03
CGA:  22    -0.377310058457E+03   -0.63850E-04   -0.72261E-04 10080   0.361E-03 0.120E-03
CGA:  23    -0.377310150065E+03   -0.91609E-04   -0.97030E-04 10080   0.756E-03-0.546E-04
CGA:  24    -0.377310202881E+03   -0.52815E-04   -0.47503E-04 10080   0.299E-03-0.942E-04
CGA:  25    -0.377310229026E+03   -0.26145E-04   -0.25373E-04 10080   0.426E-03-0.242E-04
CGA:  26    -0.377310297326E+03   -0.68300E-04   -0.65466E-04 10080   0.591E-03 0.667E-04
CGA:  27    -0.377310338841E+03   -0.41515E-04   -0.45185E-04 10080   0.161E-03 0.462E-04
CGA:  28    -0.377310278368E+03    0.60473E-04   -0.47443E-04 10080   0.347E-02-0.314E-03
CGA:  29    -0.377310476286E+03   -0.19792E-03   -0.19017E-03 10080   0.285E-03-0.468E-04
CGA:  30    -0.377310529883E+03   -0.53597E-04   -0.54606E-04 10080   0.283E-03 0.316E-04
CGA:  31    -0.377310556711E+03   -0.26828E-04   -0.28226E-04 10080   0.641E-04 0.104E-04
CGA:  32    -0.377310573169E+03   -0.16458E-04   -0.17016E-04 10080   0.109E-03-0.145E-04
CGA:  33    -0.377310583510E+03   -0.10340E-04   -0.78872E-05 10080   0.260E-04-0.197E-04
CGA:  34    -0.377310526804E+03    0.56706E-04   -0.30883E-04 10080   0.116E-02-0.735E-04
CGA:  35    -0.377310592276E+03   -0.65472E-04   -0.66203E-04 10080   0.791E-04 0.794E-05
CGA:  36    -0.377310592402E+03   -0.12528E-06   -0.88587E-05 10080   0.325E-04 0.335E-04
   4 F= -.37731059E+03 E0= -.37730528E+03  d E =-.168004E+01  mag=     8.0000
       N       E                     dE             d eps       ncg     rms          ort
SDA:   1    -0.371811427878E+03    0.54992E+01    0.00000E+00 10080   0.209E+02 0.000E+00
CGA:   2    -0.375525065405E+03   -0.37136E+01   -0.38974E+01 10080   0.155E+02-0.418E+00
CGA:   3    -0.376507596680E+03   -0.98253E+00   -0.66900E+00 10080   0.418E+01 0.699E+01
CGA:   4    -0.376880563314E+03   -0.37297E+00   -0.35102E+00 10080   0.335E+01 0.290E+00
CGA:   5    -0.377321542163E+03   -0.44098E+00   -0.43861E+00 10080   0.503E+01 0.192E-01
CGA:   6    -0.377542300869E+03   -0.22076E+00   -0.23779E+00 10080   0.111E+01-0.322E+00
CGA:   7    -0.377595315585E+03   -0.53015E-01   -0.53898E-01 10080   0.676E+00-0.186E-01
CGA:   8    -0.377658390650E+03   -0.63075E-01   -0.63200E-01 10080   0.712E+00-0.677E-03
CGA:   9    -0.377697197721E+03   -0.38807E-01   -0.39270E-01 10080   0.221E+00-0.326E-02
CGA:  10    -0.377710686146E+03   -0.13488E-01   -0.13944E-01 10080   0.171E+00-0.293E-02
CGA:  11    -0.377730808296E+03   -0.20122E-01   -0.20350E-01 10080   0.230E+00 0.102E-02
CGA:  12    -0.377745317397E+03   -0.14509E-01   -0.14597E-01 10080   0.748E-01-0.908E-03
CGA:  13    -0.377750856337E+03   -0.55389E-02   -0.53987E-02 10080   0.653E-01-0.104E-02
CGA:  14    -0.377759463778E+03   -0.86074E-02   -0.83997E-02 10080   0.662E-01-0.232E-02
CGA:  15    -0.377763032514E+03   -0.35687E-02   -0.34986E-02 10080   0.192E-01-0.101E-02
CGA:  16    -0.377764877248E+03   -0.18447E-02   -0.18815E-02 10080   0.273E-01 0.318E-03
CGA:  17    -0.377767773742E+03   -0.28965E-02   -0.29511E-02 10080   0.138E-01 0.545E-03
CGA:  18    -0.377768641454E+03   -0.86771E-03   -0.86262E-03 10080   0.747E-02-0.134E-03
CGA:  19    -0.377769950794E+03   -0.13093E-02   -0.13028E-02 10080   0.113E-01-0.396E-03
CGA:  20    -0.377770588396E+03   -0.63760E-03   -0.63037E-03 10080   0.337E-02-0.344E-04
CGA:  21    -0.377770897007E+03   -0.30861E-03   -0.32670E-03 10080   0.456E-02 0.197E-03
CGA:  22    -0.377771400839E+03   -0.50383E-03   -0.52964E-03 10080   0.249E-02 0.353E-03
CGA:  23    -0.377771563420E+03   -0.16258E-03   -0.16554E-03 10080   0.108E-02 0.207E-04
CGA:  24    -0.377771772320E+03   -0.20890E-03   -0.21606E-03 10080   0.235E-02-0.271E-03
CGA:  25    -0.377771916424E+03   -0.14410E-03   -0.11477E-03 10080   0.939E-03-0.279E-03
CGA:  26    -0.377771970779E+03   -0.54355E-04   -0.44271E-04 10080   0.536E-03-0.901E-04
CGA:  27    -0.377772025961E+03   -0.55181E-04   -0.54974E-04 10080   0.917E-03-0.620E-05
CGA:  28    -0.377772086909E+03   -0.60948E-04   -0.67529E-04 10080   0.474E-03 0.725E-04
CGA:  29    -0.377772113240E+03   -0.26331E-04   -0.29146E-04 10080   0.257E-03 0.275E-04
CGA:  30    -0.377772155746E+03   -0.42506E-04   -0.43320E-04 10080   0.650E-03-0.945E-04
CGA:  31    -0.377772192415E+03   -0.36668E-04   -0.24580E-04 10080   0.517E-03-0.138E-03
SDA:  32    -0.377772213844E+03   -0.21430E-04   -0.15133E-04 10080   0.231E-03-0.612E-04
CGA:  33    -0.377772234794E+03   -0.20950E-04   -0.24427E-04 10080   0.108E-03 0.993E-04
CGA:  34    -0.377772249578E+03   -0.14784E-04   -0.16714E-04 10080   0.444E-04 0.620E-04
CGA:  35    -0.377772266201E+03   -0.16623E-04    0.84526E-05 10080   0.335E-04 0.265E-04
CGA:  36    -0.377772275985E+03   -0.97846E-05    0.38125E-04 10080   0.485E-04 0.618E-05
CGA:  37    -0.377772292297E+03   -0.16311E-04    0.12235E-03 10080   0.148E-04 0.352E-04
CGA:  38    -0.377772294099E+03   -0.18025E-05   -0.18664E-05 10080   0.187E-04 0.544E-05
CGA:  39    -0.377772302199E+03   -0.80996E-05    0.11078E-04 10080   0.110E-04 0.218E-04
   5 F= -.37777230E+03 E0= -.37776737E+03  d E =-.461710E+00  mag=     8.0000
       N       E                     dE             d eps       ncg     rms          ort
SDA:   1    -0.373565304074E+03    0.42070E+01    0.00000E+00 10080   0.138E+02 0.000E+00
CGA:   2    -0.376546437700E+03   -0.29811E+01   -0.29840E+01 10080   0.750E+01-0.329E-01
CGA:   3    -0.377198213142E+03   -0.65178E+00   -0.64127E+00 10080   0.306E+01 0.702E-01
CGA:   4    -0.377762312689E+03   -0.56410E+00   -0.56591E+00 10080   0.115E+01-0.318E-01
CGA:   5    -0.377856145229E+03   -0.93833E-01   -0.93330E-01 10080   0.395E+00-0.115E-02
CGA:   6    -0.377917362685E+03   -0.61217E-01   -0.61206E-01 10080   0.128E+00 0.943E-03
CGA:   7    -0.377931116830E+03   -0.13754E-01   -0.13724E-01 10080   0.849E-01-0.325E-03
CGA:   8    -0.377944592317E+03   -0.13475E-01   -0.13447E-01 10080   0.287E-01 0.119E-02
CGA:   9    -0.377952481908E+03   -0.78896E-02   -0.80247E-02 10080   0.400E-01-0.969E-03
CGA:  10    -0.377955917049E+03   -0.34351E-02   -0.34318E-02 10080   0.148E-01 0.439E-04
CGA:  11    -0.377959744804E+03   -0.38278E-02   -0.39824E-02 10080   0.159E-01-0.122E-02
CGA:  12    -0.377961014571E+03   -0.12698E-02   -0.12758E-02 10080   0.437E-02 0.830E-04
CGA:  13    -0.377962365771E+03   -0.13512E-02   -0.13931E-02 10080   0.232E-02-0.247E-03
CGA:  14    -0.377962635901E+03   -0.27013E-03   -0.26440E-03 10080   0.193E-02-0.170E-03
CGA:  15    -0.377963014509E+03   -0.37861E-03   -0.38114E-03 10080   0.613E-03-0.435E-04
CGA:  16    -0.377963137147E+03   -0.12264E-03   -0.13095E-03 10080   0.141E-02-0.133E-03
CGA:  17    -0.377963256945E+03   -0.11980E-03   -0.11663E-03 10080   0.456E-03-0.652E-04
CGA:  18    -0.377963297880E+03   -0.40934E-04   -0.39041E-04 10080   0.403E-03-0.294E-04
CGA:  19    -0.377963372022E+03   -0.74142E-04   -0.89713E-04 10080   0.647E-03-0.186E-03
CGA:  20    -0.377963391091E+03   -0.19069E-04   -0.17366E-04 10080   0.339E-03-0.188E-04
CGA:  21    -0.377963408172E+03   -0.17081E-04   -0.18728E-04 10080   0.265E-03 0.162E-04
CGA:  22    -0.377963444082E+03   -0.35910E-04   -0.35397E-04 10080   0.417E-03-0.298E-04
CGA:  23    -0.377963479006E+03   -0.34924E-04   -0.26172E-04 10080   0.211E-03-0.122E-03
CGA:  24    -0.377963496058E+03   -0.17052E-04   -0.27693E-04 10080   0.961E-03-0.250E-03
CGA:  25    -0.377963546199E+03   -0.50140E-04   -0.57462E-04 10080   0.123E-03 0.872E-04
CGA:  26    -0.377963573006E+03   -0.26807E-04   -0.34629E-04 10080   0.259E-03-0.660E-04
CGA:  27    -0.377963589403E+03   -0.16397E-04   -0.16781E-04 10080   0.357E-04 0.496E-05
CGA:  28    -0.377963601390E+03   -0.11987E-04    0.16073E-04 10080   0.282E-04 0.143E-04
CGA:  29    -0.377963610005E+03   -0.86156E-05   -0.12380E-04 10080   0.126E-03-0.221E-04
CGA:  30    -0.377963626480E+03   -0.16474E-04   -0.13956E-04 10080   0.909E-04-0.634E-04
CGA:  31    -0.377963628772E+03   -0.22922E-05   -0.43987E-05 10080   0.123E-04 0.212E-04
   6 F= -.37796363E+03 E0= -.37795908E+03  d E =-.191327E+00  mag=     8.0000
       N       E                     dE             d eps       ncg     rms          ort
SDA:   1    -0.370709863932E+03    0.72538E+01    0.00000E+00 10080   0.200E+02 0.000E+00
CGA:   2    -0.375342196185E+03   -0.46323E+01   -0.46342E+01 10080   0.210E+02 0.852E-03
CGA:   3    -0.376974881434E+03   -0.16327E+01   -0.15383E+01 10080   0.431E+01 0.129E+01
CGA:   4    -0.377735369727E+03   -0.76049E+00   -0.76099E+00 10080   0.322E+01-0.112E-01
CGA:   5    -0.377970499344E+03   -0.23513E+00   -0.23600E+00 10080   0.495E+00-0.372E-02
CGA:   6    -0.378053039604E+03   -0.82540E-01   -0.82568E-01 10080   0.345E+00-0.173E-02
CGA:   7    -0.378076957666E+03   -0.23918E-01   -0.23791E-01 10080   0.898E-01 0.422E-02
CGA:   8    -0.378095510873E+03   -0.18553E-01   -0.18557E-01 10080   0.503E-01-0.616E-04
CGA:   9    -0.378100737485E+03   -0.52266E-02   -0.51804E-02 10080   0.362E-01-0.141E-02
CGA:  10    -0.378106828368E+03   -0.60909E-02   -0.61425E-02 10080   0.279E-01-0.146E-02
CGA:  11    -0.378109626045E+03   -0.27977E-02   -0.27292E-02 10080   0.134E-01-0.166E-02
CGA:  12    -0.378112994848E+03   -0.33688E-02   -0.36894E-02 10080   0.107E-01-0.209E-02
CGA:  13    -0.378113843929E+03   -0.84908E-03   -0.82285E-03 10080   0.543E-02-0.519E-03
CGA:  14    -0.378115038879E+03   -0.11950E-02   -0.14682E-02 10080   0.821E-02-0.196E-02
CGA:  15    -0.378115370433E+03   -0.33155E-03   -0.30261E-03 10080   0.254E-02-0.334E-03
CGA:  16    -0.378115593595E+03   -0.22316E-03   -0.21803E-03 10080   0.335E-02-0.988E-04
CGA:  17    -0.378116141333E+03   -0.54774E-03   -0.58419E-03 10080   0.353E-02-0.986E-03
CGA:  18    -0.378116324942E+03   -0.18361E-03   -0.13577E-03 10080   0.155E-02-0.536E-03
CGA:  19    -0.378116505432E+03   -0.18049E-03   -0.17441E-03 10080   0.342E-02-0.704E-03
CGA:  20    -0.378116716328E+03   -0.21090E-03   -0.16173E-03 10080   0.419E-02-0.935E-03
CGA:  21    -0.378116917377E+03   -0.20105E-03   -0.14718E-03 10080   0.188E-02-0.663E-03
CGA:  22    -0.378117027590E+03   -0.11021E-03   -0.84382E-04 10080   0.123E-02-0.339E-03
CGA:  23    -0.378117141197E+03   -0.11361E-03   -0.10292E-03 10080   0.207E-02-0.401E-03
CGA:  24    -0.378117252438E+03   -0.11124E-03   -0.88582E-04 10080   0.165E-02-0.365E-03
CGA:  25    -0.378117330718E+03   -0.78280E-04   -0.60736E-04 10080   0.810E-03-0.227E-03
CGA:  26    -0.378117411782E+03   -0.81064E-04   -0.71771E-04 10080   0.177E-02-0.523E-03
CGA:  27    -0.378117579570E+03   -0.16779E-03   -0.15608E-03 10080   0.687E-03-0.365E-03
CGA:  28    -0.378117672271E+03   -0.92701E-04   -0.99067E-04 10080   0.610E-03-0.100E-03
CGA:  29    -0.378117744457E+03   -0.72187E-04   -0.84773E-04 10080   0.700E-03-0.303E-03
CGA:  30    -0.378117826122E+03   -0.81665E-04   -0.93986E-04 10080   0.216E-03-0.865E-04
CGA:  31    -0.378117880032E+03   -0.53910E-04    0.13954E-03 10080   0.136E-03 0.772E-04
CGA:  32    -0.378117607877E+03    0.27215E-03   -0.14938E-03 10080   0.342E-02-0.599E-03
CGA:  33    -0.378117873240E+03   -0.26536E-03   -0.24792E-03 10080   0.970E-03-0.110E-03
CGA:  34    -0.378117993680E+03   -0.12044E-03   -0.13290E-03 10080   0.232E-03 0.141E-03
CGA:  35    -0.378118024492E+03   -0.30812E-04   -0.29016E-04 10080   0.706E-04-0.146E-04
CGA:  36    -0.378118053846E+03   -0.29354E-04    0.81935E-03 10080   0.307E-04-0.530E-05
CGA:  37    -0.378118029638E+03    0.24208E-04   -0.17632E-04 10080   0.807E-03-0.104E-03
CGA:  38    -0.378118087362E+03   -0.57724E-04   -0.51681E-04 10080   0.379E-04-0.326E-04
CGA:  39    -0.378118088675E+03   -0.13126E-05   -0.32621E-05 10080   0.188E-04 0.138E-04
   7 F= -.37811809E+03 E0= -.37811415E+03  d E =-.154460E+00  mag=     8.0000
       N       E                     dE             d eps       ncg     rms          ort
SDA:   1    -0.358667131243E+03    0.19451E+02    0.00000E+00 10080   0.485E+02 0.000E+00
CGA:   2    -0.372864366462E+03   -0.14197E+02   -0.14190E+02 10080   0.332E+02 0.362E-01
CGA:   3    -0.375767277811E+03   -0.29029E+01   -0.24414E+01 10080   0.891E+01 0.668E+01
CGA:   4    -0.377404308562E+03   -0.16370E+01   -0.16309E+01 10080   0.521E+01 0.178E-01
CGA:   5    -0.377820953031E+03   -0.41664E+00   -0.36849E+00 10080   0.119E+01 0.646E+00
CGA:   6    -0.378011620437E+03   -0.19067E+00   -0.19079E+00 10080   0.102E+01-0.763E-02
CGA:   7    -0.378089090488E+03   -0.77470E-01   -0.78515E-01 10080   0.294E+00-0.953E-02
CGA:   8    -0.378121221974E+03   -0.32131E-01   -0.31873E-01 10080   0.239E+00 0.202E-02
CGA:   9    -0.378147903431E+03   -0.26681E-01   -0.26788E-01 10080   0.760E-01 0.480E-03
CGA:  10    -0.378156010591E+03   -0.81072E-02   -0.81320E-02 10080   0.722E-01-0.104E-02
CGA:  11    -0.378167195477E+03   -0.11185E-01   -0.11052E-01 10080   0.334E-01-0.380E-02
CGA:  12    -0.378170472970E+03   -0.32775E-02   -0.32114E-02 10080   0.236E-01-0.815E-03
CGA:  13    -0.378174999503E+03   -0.45265E-02   -0.45421E-02 10080   0.121E-01-0.124E-02
CGA:  14    -0.378176086644E+03   -0.10871E-02   -0.99905E-03 10080   0.729E-02-0.961E-03
CGA:  15    -0.378177558354E+03   -0.14717E-02   -0.15394E-02 10080   0.476E-02-0.138E-02
CGA:  16    -0.378177958862E+03   -0.40051E-03   -0.36622E-03 10080   0.253E-02-0.389E-03
CGA:  17    -0.378178573770E+03   -0.61491E-03   -0.69244E-03 10080   0.251E-02-0.651E-03
CGA:  18    -0.378178813301E+03   -0.23953E-03   -0.20717E-03 10080   0.177E-02-0.462E-03
CGA:  19    -0.378178388845E+03    0.42446E-03   -0.89839E-03 10080   0.119E-01-0.302E-02
CGA:  20    -0.378179182247E+03   -0.79340E-03   -0.88064E-03 10080   0.359E-02 0.643E-03
CGA:  21    -0.378179606065E+03   -0.42382E-03   -0.44927E-03 10080   0.112E-02 0.330E-03
CGA:  22    -0.378179738357E+03   -0.13229E-03   -0.13666E-03 10080   0.550E-03 0.546E-04
CGA:  23    -0.378179838391E+03   -0.10003E-03   -0.28446E-03 10080   0.137E-02-0.607E-03
CGA:  24    -0.378179939118E+03   -0.10073E-03   -0.11685E-03 10080   0.463E-03 0.137E-03
CGA:  25    -0.378179992440E+03   -0.53322E-04   -0.65280E-04 10080   0.137E-03 0.172E-03
CGA:  26    -0.378180031637E+03   -0.39198E-04   -0.49571E-04 10080   0.640E-03-0.150E-03
CGA:  27    -0.378180068585E+03   -0.36947E-04   -0.37976E-04 10080   0.440E-04 0.847E-05
CGA:  28    -0.378180106154E+03   -0.37569E-04    0.35059E-05 10080   0.824E-04 0.433E-05
CGA:  29    -0.378180172225E+03   -0.66071E-04    0.94186E-05 10080   0.673E-04 0.104E-04
CGA:  30    -0.378180223185E+03   -0.50960E-04    0.94651E-05 10080   0.396E-04 0.545E-04
CGA:  31    -0.378180232499E+03   -0.93146E-05   -0.89370E-05 10080   0.302E-04 0.108E-04
   8 F= -.37818023E+03 E0= -.37817620E+03  d E =-.621438E-01  mag=     8.0000
       N       E                     dE             d eps       ncg     rms          ort
SDA:   1    -0.375608526237E+03    0.25717E+01    0.00000E+00 10080   0.663E+01 0.000E+00
CGA:   2    -0.377713299867E+03   -0.21048E+01   -0.21039E+01 10080   0.288E+01 0.767E-02
CGA:   3    -0.378034812099E+03   -0.32151E+00   -0.31375E+00 10080   0.168E+01 0.407E-01
CGA:   4    -0.378221664974E+03   -0.18685E+00   -0.18544E+00 10080   0.421E+00 0.103E-01
CGA:   5    -0.378266978959E+03   -0.45314E-01   -0.44725E-01 10080   0.160E+00-0.508E-03
CGA:   6    -0.378289594790E+03   -0.22616E-01   -0.22609E-01 10080   0.452E-01-0.397E-04
CGA:   7    -0.378295516697E+03   -0.59219E-02   -0.58800E-02 10080   0.295E-01-0.957E-03
CGA:   8    -0.378298964705E+03   -0.34480E-02   -0.34723E-02 10080   0.104E-01 0.454E-03
CGA:   9    -0.378300361137E+03   -0.13964E-02   -0.13851E-02 10080   0.801E-02-0.242E-03
CGA:  10    -0.378301604659E+03   -0.12435E-02   -0.12418E-02 10080   0.252E-02-0.107E-03
CGA:  11    -0.378302280105E+03   -0.67545E-03   -0.83388E-03 10080   0.653E-02-0.975E-03
CGA:  12    -0.378302547809E+03   -0.26770E-03   -0.23322E-03 10080   0.200E-02-0.287E-03
CGA:  13    -0.378302679328E+03   -0.13152E-03   -0.11815E-03 10080   0.156E-02-0.125E-03
CGA:  14    -0.378302955027E+03   -0.27570E-03   -0.33453E-03 10080   0.358E-02-0.102E-02
CGA:  15    -0.378303210168E+03   -0.25514E-03   -0.23513E-03 10080   0.566E-03-0.171E-03
CGA:  16    -0.378303307973E+03   -0.97805E-04   -0.10059E-03 10080   0.884E-03-0.151E-03
CGA:  17    -0.378303028710E+03    0.27926E-03   -0.31676E-03 10080   0.642E-02-0.186E-02
CGA:  18    -0.378303467707E+03   -0.43900E-03   -0.46513E-03 10080   0.182E-02 0.258E-03
CGA:  19    -0.378303785188E+03   -0.31748E-03   -0.31502E-03 10080   0.748E-03-0.191E-03
CGA:  20    -0.378303858673E+03   -0.73485E-04   -0.63440E-04 10080   0.188E-03-0.120E-03
CGA:  21    -0.378303935218E+03   -0.76545E-04    0.35575E-04 10080   0.920E-04 0.333E-04
CGA:  22    -0.378303984858E+03   -0.49640E-04    0.30190E-04 10080   0.100E-03-0.496E-05
CGA:  23    -0.378304065002E+03   -0.80143E-04    0.57989E-05 10080   0.873E-04 0.194E-04
CGA:  24    -0.378304148692E+03   -0.83691E-04    0.70012E-05 10080   0.989E-04 0.905E-05
CGA:  25    -0.378304279324E+03   -0.13063E-03    0.39279E-05 10080   0.535E-04 0.561E-04
CGA:  26    -0.378304316341E+03   -0.37016E-04    0.47616E-05 10080   0.461E-04 0.886E-05
CGA:  27    -0.378304358796E+03   -0.42456E-04    0.37275E-05 10080   0.365E-04 0.635E-05
CGA:  28    -0.378304409232E+03   -0.50436E-04    0.14590E-05 10080   0.497E-04 0.561E-05
CGA:  29    -0.378304485542E+03   -0.76310E-04    0.17816E-05 10080   0.252E-04 0.224E-04
CGA:  30    -0.378304543653E+03   -0.58111E-04    0.89997E-06 10080   0.288E-04 0.207E-04
CGA:  31    -0.378304568022E+03   -0.24369E-04    0.17740E-05 10080   0.584E-04-0.116E-04
CGA:  32    -0.378304616057E+03   -0.48035E-04    0.10380E-05 10080   0.736E-04-0.149E-05
CGA:  33    -0.378304663301E+03   -0.47245E-04    0.70697E-05 10080   0.172E-03-0.753E-04
CGA:  34    -0.378304685198E+03   -0.21897E-04   -0.16025E-04 10080   0.884E-04-0.719E-04
CGA:  35    -0.378304695331E+03   -0.10133E-04   -0.12811E-04 10080   0.119E-03-0.343E-04
CGA:  36    -0.378304728524E+03   -0.33193E-04    0.21087E-04 10080   0.111E-03-0.670E-04
CGA:  37    -0.378304746426E+03   -0.17903E-04   -0.14189E-04 10080   0.129E-03-0.793E-04
CGA:  38    -0.378304760737E+03   -0.14311E-04   -0.10150E-04 10080   0.329E-04-0.438E-04
CGA:  39    -0.378304771563E+03   -0.10826E-04    0.37608E-05 10080   0.260E-04-0.582E-05
CGA:  40    -0.378304796872E+03   -0.25308E-04    0.70679E-06 10080   0.192E-04-0.453E-05
CGA:  41    -0.378304817616E+03   -0.20745E-04    0.45511E-06 10080   0.691E-05 0.455E-05
CGA:  42    -0.378304836399E+03   -0.18783E-04    0.12871E-06 10080   0.569E-05 0.478E-05
CGA:  43    -0.378304843011E+03   -0.66117E-05    0.19332E-06 10080   0.139E-04-0.167E-05
   9 F= -.37830484E+03 E0= -.37830125E+03  d E =-.124611E+00  mag=     8.0000
       N       E                     dE             d eps       ncg     rms          ort
SDA:   1    -0.377217118749E+03    0.10877E+01    0.00000E+00 10080   0.306E+01 0.000E+00
CGA:   2    -0.378063581469E+03   -0.84646E+00   -0.84755E+00 10080   0.113E+01-0.101E-01
CGA:   3    -0.378229163030E+03   -0.16558E+00   -0.16588E+00 10080   0.887E+00 0.384E-02
CGA:   4    -0.378311172374E+03   -0.82009E-01   -0.81227E-01 10080   0.143E+00 0.107E-01
CGA:   5    -0.378336392662E+03   -0.25220E-01   -0.25218E-01 10080   0.414E-01 0.344E-03
CGA:   6    -0.378341873909E+03   -0.54812E-02   -0.54752E-02 10080   0.218E-01-0.166E-03
CGA:   7    -0.378344779782E+03   -0.29059E-02   -0.28898E-02 10080   0.769E-02-0.437E-03
CGA:   8    -0.378345897416E+03   -0.11176E-02   -0.11180E-02 10080   0.641E-02 0.292E-04
CGA:   9    -0.378346801613E+03   -0.90420E-03   -0.89022E-03 10080   0.258E-02-0.553E-03
CGA:  10    -0.378347322111E+03   -0.52050E-03   -0.52361E-03 10080   0.205E-02-0.517E-04
CGA:  11    -0.378347627891E+03   -0.30578E-03   -0.29955E-03 10080   0.159E-02-0.382E-03
CGA:  12    -0.378347821785E+03   -0.19389E-03   -0.19101E-03 10080   0.804E-03-0.174E-03
CGA:  13    -0.378347955329E+03   -0.13354E-03   -0.16784E-03 10080   0.145E-02-0.481E-03
CGA:  14    -0.378348055642E+03   -0.10031E-03   -0.96551E-04 10080   0.218E-03-0.379E-04
CGA:  15    -0.378348129430E+03   -0.73788E-04    0.24935E-03 10080   0.163E-03 0.489E-04
CGA:  16    -0.378347312060E+03    0.81737E-03   -0.44363E-03 10080   0.124E-01-0.114E-02
CGA:  17    -0.378348170781E+03   -0.85872E-03   -0.81783E-03 10080   0.112E-02-0.237E-03
CGA:  18    -0.378348335756E+03   -0.16498E-03   -0.16905E-03 10080   0.861E-03 0.315E-04
CGA:  19    -0.378348440386E+03   -0.10463E-03   -0.99248E-04 10080   0.931E-04-0.303E-04
CGA:  20    -0.378348457309E+03   -0.16923E-04   -0.38633E-04 10080   0.773E-03-0.135E-03
CGA:  21    -0.378348508954E+03   -0.51645E-04   -0.48074E-04 10080   0.372E-04-0.124E-04
CGA:  22    -0.378348518077E+03   -0.91234E-05   -0.72219E-05 10080   0.995E-04-0.273E-04
  10 F= -.37834852E+03 E0= -.37834526E+03  d E =-.436751E-01  mag=     8.0000
       N       E                     dE             d eps       ncg     rms          ort
SDA:   1    -0.375892927648E+03    0.24556E+01    0.00000E+00 10080   0.615E+01 0.000E+00
CGA:   2    -0.377835064328E+03   -0.19421E+01   -0.19429E+01 10080   0.245E+01-0.124E-01
CGA:   3    -0.378168283335E+03   -0.33322E+00   -0.32940E+00 10080   0.155E+01 0.269E-01
CGA:   4    -0.378314854278E+03   -0.14657E+00   -0.14696E+00 10080   0.262E+00 0.201E-02
CGA:   5    -0.378360573475E+03   -0.45719E-01   -0.45703E-01 10080   0.679E-01-0.102E-03
CGA:   6    -0.378370172885E+03   -0.95994E-02   -0.95357E-02 10080   0.427E-01-0.488E-03
CGA:   7    -0.378374690130E+03   -0.45172E-02   -0.45173E-02 10080   0.109E-01-0.299E-04
CGA:   8    -0.378376872525E+03   -0.21824E-02   -0.21688E-02 10080   0.735E-02-0.448E-03
CGA:   9    -0.378377683875E+03   -0.81135E-03   -0.80998E-03 10080   0.289E-02 0.370E-06
CGA:  10    -0.378378433943E+03   -0.75007E-03   -0.77323E-03 10080   0.304E-02-0.499E-03
CGA:  11    -0.378378687705E+03   -0.25376E-03   -0.23656E-03 10080   0.111E-02-0.145E-03
CGA:  12    -0.378379000323E+03   -0.31262E-03   -0.36625E-03 10080   0.976E-03-0.413E-03
CGA:  13    -0.378379134310E+03   -0.13399E-03   -0.11074E-03 10080   0.116E-02-0.538E-03
CGA:  14    -0.378379248742E+03   -0.11443E-03   -0.10924E-03 10080   0.444E-03-0.393E-04
CGA:  15    -0.378379340847E+03   -0.92105E-04   -0.13888E-03 10080   0.152E-02-0.431E-03
CGA:  16    -0.378379427850E+03   -0.87003E-04   -0.91597E-04 10080   0.159E-03 0.268E-04
CGA:  17    -0.378379455226E+03   -0.27376E-04   -0.68359E-04 10080   0.692E-03-0.196E-03
CGA:  18    -0.378379526538E+03   -0.71312E-04   -0.61546E-04 10080   0.123E-03-0.709E-04
CGA:  19    -0.378379587753E+03   -0.61215E-04    0.43065E-04 10080   0.251E-03-0.703E-04
CGA:  20    -0.378379601636E+03   -0.13883E-04   -0.14391E-04 10080   0.208E-04 0.326E-05
CGA:  21    -0.378379626362E+03   -0.24726E-04    0.12085E-05 10080   0.200E-04 0.122E-04
CGA:  22    -0.378379660227E+03   -0.33866E-04    0.68370E-06 10080   0.348E-04 0.243E-05
CGA:  23    -0.378379743808E+03   -0.83581E-04    0.98259E-06 10080   0.292E-04 0.270E-04
CGA:  24    -0.378379757704E+03   -0.13896E-04    0.21663E-04 10080   0.771E-04-0.231E-04
CGA:  25    -0.378379772356E+03   -0.14651E-04   -0.98608E-05 10080   0.876E-04-0.591E-04
CGA:  26    -0.378379790225E+03   -0.17870E-04   -0.10988E-04 10080   0.131E-03-0.864E-04
CGA:  27    -0.378379800818E+03   -0.10593E-04   -0.84547E-05 10080   0.143E-04-0.156E-04
CGA:  28    -0.378379826354E+03   -0.25536E-04    0.29034E-06 10080   0.145E-04 0.554E-05
CGA:  29    -0.378379872559E+03   -0.46205E-04    0.39679E-06 10080   0.840E-05 0.149E-04
CGA:  30    -0.378379893330E+03   -0.20771E-04    0.15140E-06 10080   0.155E-04 0.345E-05
CGA:  31    -0.378379950153E+03   -0.56823E-04    0.37103E-06 10080   0.692E-05 0.173E-04
CGA:  32    -0.378379969108E+03   -0.18955E-04    0.11053E-06 10080   0.936E-05 0.351E-05
CGA:  33    -0.378379985015E+03   -0.15908E-04    0.26830E-06 10080   0.215E-04-0.237E-05
CGA:  34    -0.378380042420E+03   -0.57405E-04    0.18996E-06 10080   0.361E-04 0.107E-04
CGA:  35    -0.378380157497E+03   -0.11508E-03    0.11681E-05 10080   0.623E-04-0.169E-05
CGA:  36    -0.378380358146E+03   -0.20065E-03    0.74613E-06 10080   0.112E-03-0.228E-05
CGA:  37    -0.378380727233E+03   -0.36909E-03    0.13347E-05 10080   0.101E-03-0.318E-04
CGA:  38    -0.378381036522E+03   -0.30929E-03    0.70013E-06 10080   0.366E-03-0.177E-03
CGA:  39    -0.378381054143E+03   -0.17621E-04   -0.19834E-04 10080   0.710E-05 0.164E-04
CGA:  40    -0.378381053543E+03    0.60082E-06   -0.25649E-06 10080   0.483E-05 0.562E-05
  11 F= -.37838105E+03 E0= -.37837845E+03  d E =-.325355E-01  mag=     8.0000
       N       E                     dE             d eps       ncg     rms          ort
SDA:   1    -0.358521742202E+03    0.19859E+02    0.00000E+00 10080   0.483E+02 0.000E+00
CGA:   2    -0.374374047523E+03   -0.15852E+02   -0.15799E+02 10080   0.180E+02 0.329E+00
CGA:   3    -0.377055747546E+03   -0.26817E+01   -0.26833E+01 10080   0.822E+01 0.156E+00
CGA:   4    -0.377921953958E+03   -0.86621E+00   -0.81705E+00 10080   0.182E+01 0.413E+00
CGA:   5    -0.378211246348E+03   -0.28929E+00   -0.28821E+00 10080   0.778E+00-0.202E-01
CGA:   6    -0.378308177261E+03   -0.96931E-01   -0.97163E-01 10080   0.237E+00-0.402E-02
CGA:   7    -0.378354258696E+03   -0.46081E-01   -0.45994E-01 10080   0.722E-01 0.378E-02
CGA:   8    -0.378370102023E+03   -0.15843E-01   -0.15884E-01 10080   0.560E-01-0.787E-03
CGA:   9    -0.378377283411E+03   -0.71814E-02   -0.71473E-02 10080   0.272E-01-0.112E-02
CGA:  10    -0.378382194263E+03   -0.49109E-02   -0.49286E-02 10080   0.208E-01-0.132E-02
CGA:  11    -0.378385347920E+03   -0.31537E-02   -0.31315E-02 10080   0.667E-02-0.164E-02
CGA:  12    -0.378387028077E+03   -0.16802E-02   -0.18671E-02 10080   0.519E-02-0.139E-02
CGA:  13    -0.378387626792E+03   -0.59872E-03   -0.53570E-03 10080   0.331E-02-0.136E-02
CGA:  14    -0.378387117700E+03    0.50909E-03   -0.13022E-02 10080   0.190E-01-0.501E-02
CGA:  15    -0.378388527344E+03   -0.14096E-02   -0.14744E-02 10080   0.349E-02 0.524E-03
CGA:  16    -0.378389072830E+03   -0.54549E-03   -0.56212E-03 10080   0.122E-02 0.540E-03
CGA:  17    -0.378389403291E+03   -0.33046E-03   -0.44753E-03 10080   0.284E-02-0.892E-03
CGA:  18    -0.378389677465E+03   -0.27417E-03   -0.26787E-03 10080   0.380E-03-0.542E-04
CGA:  19    -0.378389856534E+03   -0.17907E-03    0.12570E-03 10080   0.191E-03 0.133E-03
CGA:  20    -0.378389995194E+03   -0.13866E-03    0.56025E-04 10080   0.207E-03 0.629E-04
CGA:  21    -0.378390193120E+03   -0.19793E-03    0.28393E-04 10080   0.143E-03 0.146E-03
CGA:  22    -0.378390288184E+03   -0.95064E-04    0.17410E-04 10080   0.122E-03 0.345E-04
CGA:  23    -0.378390417357E+03   -0.12917E-03    0.11101E-04 10080   0.679E-04 0.724E-04
CGA:  24    -0.378390476572E+03   -0.59215E-04    0.48397E-05 10080   0.773E-04 0.349E-04
CGA:  25    -0.378390531166E+03   -0.54594E-04    0.82636E-05 10080   0.156E-03-0.101E-04
CGA:  26    -0.378390711825E+03   -0.18066E-03    0.49986E-05 10080   0.172E-03 0.115E-03
CGA:  27    -0.378390734078E+03   -0.22253E-04   -0.43785E-04 10080   0.107E-02-0.324E-03
CGA:  28    -0.378390813581E+03   -0.79504E-04   -0.74216E-04 10080   0.537E-04-0.373E-04
CGA:  29    -0.378390868732E+03   -0.55150E-04    0.25615E-05 10080   0.574E-04 0.201E-04
CGA:  30    -0.378390981128E+03   -0.11240E-03    0.25665E-05 10080   0.385E-04 0.733E-04
CGA:  31    -0.378391026413E+03   -0.45284E-04    0.16410E-05 10080   0.448E-04 0.219E-04
CGA:  32    -0.378391073118E+03   -0.46706E-04    0.22835E-05 10080   0.692E-04 0.713E-05
CGA:  33    -0.378391191517E+03   -0.11840E-03    0.24903E-05 10080   0.544E-04 0.702E-04
CGA:  34    -0.378391232286E+03   -0.40769E-04    0.49239E-05 10080   0.728E-04-0.873E-05
CGA:  35    -0.378391329974E+03   -0.97688E-04    0.17080E-05 10080   0.801E-04 0.521E-04
CGA:  36    -0.378391368804E+03   -0.38830E-04    0.24027E-04 10080   0.977E-04-0.413E-04
CGA:  37    -0.378391406902E+03   -0.38098E-04    0.17012E-03 10080   0.122E-03-0.634E-04
CGA:  38    -0.378391397827E+03    0.90749E-05   -0.44174E-04 10080   0.106E-02-0.298E-03
CGA:  39    -0.378391506987E+03   -0.10916E-03   -0.99674E-04 10080   0.358E-04-0.883E-04
CGA:  40    -0.378391545603E+03   -0.38615E-04    0.14640E-05 10080   0.403E-04 0.874E-05
CGA:  41    -0.378391623576E+03   -0.77973E-04    0.15253E-05 10080   0.312E-04 0.369E-04
CGA:  42    -0.378391659153E+03   -0.35577E-04    0.14629E-05 10080   0.393E-04 0.229E-05
CGA:  43    -0.378391736002E+03   -0.76848E-04    0.10419E-05 10080   0.370E-04 0.385E-04
CGA:  44    -0.378391765915E+03   -0.29913E-04    0.30718E-05 10080   0.451E-04-0.744E-05
CGA:  45    -0.378391835502E+03   -0.69587E-04    0.83074E-06 10080   0.468E-04 0.346E-04
CGA:  46    -0.378391866782E+03   -0.31280E-04    0.57774E-05 10080   0.595E-04-0.223E-04
CGA:  47    -0.378391933884E+03   -0.67102E-04    0.62915E-06 10080   0.724E-04 0.296E-04
CGA:  48    -0.378392040811E+03   -0.10693E-03    0.63720E-05 10080   0.743E-04-0.421E-05
CGA:  49    -0.378392178403E+03   -0.13759E-03    0.15724E-05 10080   0.540E-04 0.643E-04
CGA:  50    -0.378392202866E+03   -0.24463E-04    0.25810E-04 10080   0.707E-04-0.399E-04
CGA:  51    -0.378392206896E+03   -0.40309E-05   -0.22079E-04 10080   0.416E-03-0.145E-03
CGA:  52    -0.378392256010E+03   -0.49114E-04   -0.42786E-04 10080   0.249E-04-0.658E-04
CGA:  53    -0.378392280351E+03   -0.24341E-04    0.97658E-06 10080   0.162E-04 0.453E-05
CGA:  54    -0.378392316851E+03   -0.36500E-04    0.45436E-06 10080   0.144E-04 0.147E-04
CGA:  55    -0.378392338952E+03   -0.22101E-04    0.45604E-06 10080   0.236E-04 0.117E-05
CGA:  56    -0.378392394003E+03   -0.55051E-04    0.52323E-06 10080   0.209E-04 0.228E-04
CGA:  57    -0.378392410928E+03   -0.16926E-04    0.17592E-05 10080   0.320E-04-0.783E-05
CGA:  58    -0.378392459413E+03   -0.48484E-04    0.35603E-06 10080   0.456E-04 0.153E-04
CGA:  59    -0.378392551536E+03   -0.92123E-04    0.24792E-05 10080   0.471E-04 0.865E-05
CGA:  60    -0.378392657192E+03   -0.10566E-03    0.13532E-05 10080   0.509E-04 0.261E-04
CGA:  61    -0.378392663008E+03   -0.58165E-05   -0.13705E-04 10080   0.270E-03-0.999E-04
CGA:  62    -0.378392687677E+03   -0.24668E-04   -0.22201E-04 10080   0.158E-04-0.201E-04
CGA:  63    -0.378392704712E+03   -0.17036E-04    0.66545E-06 10080   0.263E-04-0.612E-05
CGA:  64    -0.378392745399E+03   -0.40687E-04    0.26926E-06 10080   0.278E-04 0.156E-04
CGA:  65    -0.378392744466E+03    0.93371E-06   -0.88774E-05 10080   0.300E-03-0.744E-04
CGA:  66    -0.378392775053E+03   -0.30587E-04   -0.24268E-04 10080   0.206E-04-0.538E-04
CGA:  67    -0.378392787693E+03   -0.12640E-04    0.16553E-05 10080   0.251E-04-0.733E-05
CGA:  68    -0.378392820323E+03   -0.32630E-04    0.35527E-06 10080   0.863E-05 0.136E-04
CGA:  69    -0.378392833786E+03   -0.13463E-04    0.26291E-06 10080   0.171E-04-0.164E-05
CGA:  70    -0.378392871744E+03   -0.37958E-04    0.21045E-06 10080   0.227E-04 0.127E-04
CGA:  71    -0.378392760226E+03    0.11152E-03   -0.19142E-04 10080   0.232E-02-0.198E-03
CGA:  72    -0.378392930334E+03   -0.17011E-03   -0.16072E-03 10080   0.241E-04-0.631E-04
CGA:  73    -0.378392918156E+03    0.12178E-04   -0.11171E-04 10080   0.472E-03-0.884E-04
CGA:  74    -0.378392965143E+03   -0.46987E-04   -0.40060E-04 10080   0.218E-04-0.466E-04
CGA:  75    -0.378392936049E+03    0.29094E-04   -0.11831E-04 10080   0.875E-03-0.107E-03
CGA:  76    -0.378393005196E+03   -0.69146E-04   -0.61579E-04 10080   0.109E-04-0.436E-04
CGA:  77    -0.378393015611E+03   -0.10415E-04    0.10179E-05 10080   0.295E-04-0.876E-05
CGA:  78    -0.378393012923E+03    0.26877E-05   -0.10680E-04 10080   0.442E-03-0.102E-03
CGA:  79    -0.378393041346E+03   -0.28423E-04   -0.29867E-04 10080   0.819E-05 0.117E-04
CGA:  80    -0.378393052657E+03   -0.11311E-04    0.49761E-06 10080   0.181E-04-0.525E-05
CGA:  81    -0.378393063534E+03   -0.10877E-04    0.66961E-05 10080   0.421E-04-0.205E-04
CGA:  82    -0.378393071685E+03   -0.81510E-05   -0.62060E-05 10080   0.218E-04-0.235E-04
CGA:  83    -0.378393081773E+03   -0.10088E-04    0.93895E-04 10080   0.512E-04-0.265E-04
CGA:  84    -0.378393090547E+03   -0.87739E-05   -0.66559E-05 10080   0.171E-04-0.219E-04
  12 F= -.37839309E+03 E0= -.37839180E+03  d E =-.120370E-01  mag=     8.0000
       N       E                     dE             d eps       ncg     rms          ort
SDA:   1    -0.367729167307E+03    0.10664E+02    0.00000E+00 10080   0.254E+02 0.000E+00
CGA:   2    -0.376363945047E+03   -0.86348E+01   -0.86359E+01 10080   0.843E+01 0.605E-03
CGA:   3    -0.377966639410E+03   -0.16027E+01   -0.16034E+01 10080   0.197E+01 0.123E-01
CGA:   4    -0.378289253328E+03   -0.32261E+00   -0.32122E+00 10080   0.531E+00-0.468E-02
CGA:   5    -0.378376499953E+03   -0.87247E-01   -0.87253E-01 10080   0.171E+00-0.359E-02
CGA:   6    -0.378404870779E+03   -0.28371E-01   -0.28460E-01 10080   0.608E-01 0.358E-02
CGA:   7    -0.378415594210E+03   -0.10723E-01   -0.10775E-01 10080   0.331E-01 0.125E-02
CGA:   8    -0.378421013246E+03   -0.54190E-02   -0.54232E-02 10080   0.169E-01 0.348E-03
CGA:   9    -0.378424641836E+03   -0.36286E-02   -0.36285E-02 10080   0.860E-02 0.146E-03
CGA:  10    -0.378426389227E+03   -0.17474E-02   -0.17505E-02 10080   0.423E-02 0.349E-03
CGA:  11    -0.378427175757E+03   -0.78653E-03   -0.80108E-03 10080   0.151E-02 0.524E-03
CGA:  12    -0.378427573946E+03   -0.39819E-03   -0.39829E-03 10080   0.105E-02 0.863E-07
CGA:  13    -0.378427709759E+03   -0.13581E-03   -0.13859E-03 10080   0.466E-03 0.402E-04
CGA:  14    -0.378427764392E+03   -0.54633E-04   -0.69574E-04 10080   0.192E-03 0.237E-03
CGA:  15    -0.378427790843E+03   -0.26451E-04   -0.30634E-04 10080   0.137E-03 0.956E-04
CGA:  16    -0.378427810108E+03   -0.19265E-04   -0.27496E-04 10080   0.702E-04 0.122E-03
CGA:  17    -0.378427815431E+03   -0.53222E-05   -0.92762E-05 10080   0.599E-04 0.600E-04
  13 F= -.37842782E+03 E0= -.37842650E+03  d E =-.347249E-01  mag=     8.0000
       N       E                     dE             d eps       ncg     rms          ort
SDA:   1    -0.373871312124E+03    0.45565E+01    0.00000E+00 10080   0.111E+02 0.000E+00
CGA:   2    -0.377517992113E+03   -0.36467E+01   -0.36506E+01 10080   0.396E+01-0.282E-01
CGA:   3    -0.378166030646E+03   -0.64804E+00   -0.64674E+00 10080   0.182E+01-0.223E-02
CGA:   4    -0.378355323864E+03   -0.18929E+00   -0.18941E+00 10080   0.419E+00 0.752E-02
CGA:   5    -0.378422112877E+03   -0.66789E-01   -0.66699E-01 10080   0.112E+00-0.762E-03
CGA:   6    -0.378440335107E+03   -0.18222E-01   -0.18213E-01 10080   0.438E-01-0.358E-03
CGA:   7    -0.378446697080E+03   -0.63620E-02   -0.63679E-02 10080   0.164E-01 0.473E-03
CGA:   8    -0.378449929098E+03   -0.32320E-02   -0.32456E-02 10080   0.115E-01-0.140E-02
CGA:   9    -0.378451475823E+03   -0.15467E-02   -0.15040E-02 10080   0.524E-02-0.887E-03
CGA:  10    -0.378452654740E+03   -0.11789E-02   -0.12178E-02 10080   0.343E-02-0.567E-03
CGA:  11    -0.378453091218E+03   -0.43648E-03   -0.43597E-03 10080   0.162E-02 0.224E-05
CGA:  12    -0.378453371649E+03   -0.28043E-03   -0.28440E-03 10080   0.522E-03 0.399E-03
CGA:  13    -0.378453455427E+03   -0.83778E-04   -0.94803E-04 10080   0.329E-03 0.277E-03
CGA:  14    -0.378453504014E+03   -0.48587E-04   -0.51087E-04 10080   0.297E-03 0.894E-04
CGA:  15    -0.378453523248E+03   -0.19233E-04   -0.40125E-04 10080   0.172E-03 0.276E-03
CGA:  16    -0.378453520169E+03    0.30784E-05   -0.11461E-04 10080   0.126E-03 0.130E-03
  14 F= -.37845352E+03 E0= -.37845176E+03  d E =-.257047E-01  mag=     8.0000
       N       E                     dE             d eps       ncg     rms          ort
SDA:   1    -0.378197237459E+03    0.25629E+00    0.00000E+00 10080   0.673E+00 0.000E+00
CGA:   2    -0.378408398720E+03   -0.21116E+00   -0.21098E+00 10080   0.313E+00 0.136E-02
CGA:   3    -0.378448913667E+03   -0.40515E-01   -0.40748E-01 10080   0.141E+00 0.641E-03
CGA:   4    -0.378466862961E+03   -0.17949E-01   -0.17946E-01 10080   0.368E-01 0.970E-03
CGA:   5    -0.378471815466E+03   -0.49525E-02   -0.49534E-02 10080   0.123E-01 0.901E-04
CGA:   6    -0.378473815905E+03   -0.20004E-02   -0.19986E-02 10080   0.366E-02-0.254E-03
CGA:   7    -0.378474470891E+03   -0.65499E-03   -0.65277E-03 10080   0.179E-02 0.170E-03
CGA:   8    -0.378474745311E+03   -0.27442E-03   -0.27566E-03 10080   0.944E-03 0.606E-04
CGA:   9    -0.378474896638E+03   -0.15133E-03   -0.15286E-03 10080   0.396E-03 0.137E-03
CGA:  10    -0.378474947910E+03   -0.51272E-04   -0.57934E-04 10080   0.169E-03 0.168E-03
CGA:  11    -0.378475000464E+03   -0.52554E-04   -0.49854E-04 10080   0.878E-04 0.651E-04
CGA:  12    -0.378475013791E+03   -0.13327E-04   -0.15551E-04 10080   0.566E-04 0.562E-04
CGA:  13    -0.378475015901E+03   -0.21108E-05   -0.47318E-05 10080   0.344E-04 0.320E-04
  15 F= -.37847502E+03 E0= -.37847325E+03  d E =-.214957E-01  mag=     8.0000
       N       E                     dE             d eps       ncg     rms          ort
SDA:   1    -0.378076180489E+03    0.39883E+00    0.00000E+00 10080   0.928E+00 0.000E+00
CGA:   2    -0.378416816516E+03   -0.34064E+00   -0.33991E+00 10080   0.271E+00 0.355E-02
CGA:   3    -0.378459415895E+03   -0.42599E-01   -0.42593E-01 10080   0.146E+00-0.462E-03
CGA:   4    -0.378473992407E+03   -0.14577E-01   -0.14506E-01 10080   0.248E-01-0.282E-03
CGA:   5    -0.378478318332E+03   -0.43259E-02   -0.43262E-02 10080   0.920E-02 0.659E-05
CGA:   6    -0.378479607991E+03   -0.12897E-02   -0.12777E-02 10080   0.348E-02-0.427E-03
CGA:   7    -0.378480067444E+03   -0.45945E-03   -0.46956E-03 10080   0.843E-03 0.444E-03
CGA:   8    -0.378480235842E+03   -0.16840E-03   -0.16597E-03 10080   0.470E-03 0.220E-03
CGA:   9    -0.378480319047E+03   -0.83205E-04   -0.85222E-04 10080   0.255E-03 0.100E-03
CGA:  10    -0.378480360616E+03   -0.41569E-04   -0.44346E-04 10080   0.110E-03 0.144E-03
CGA:  11    -0.378480374424E+03   -0.13808E-04   -0.15217E-04 10080   0.614E-04 0.609E-04
CGA:  12    -0.378480385499E+03   -0.11075E-04   -0.10662E-04 10080   0.544E-04 0.327E-04
CGA:  13    -0.378480385690E+03   -0.19087E-06   -0.35848E-05 10080   0.351E-04 0.355E-04
  16 F= -.37848039E+03 E0= -.37847861E+03  d E =-.536979E-02  mag=     8.0000
       N       E                     dE             d eps       ncg     rms          ort
SDA:   1    -0.347576763419E+03    0.30904E+02    0.00000E+00 10080   0.755E+02 0.000E+00
CGA:   2    -0.369264609095E+03   -0.21688E+02   -0.21912E+02 10080   0.674E+02-0.221E+01
CGA:   3    -0.374023166859E+03   -0.47586E+01   -0.48068E+01 10080   0.170E+02 0.366E+01
CGA:   4    -0.376759043076E+03   -0.27359E+01   -0.27340E+01 10080   0.652E+01-0.258E+00
CGA:   5    -0.377353002105E+03   -0.59396E+00   -0.58297E+00 10080   0.238E+01 0.953E-01
CGA:   6    -0.377707615422E+03   -0.35461E+00   -0.35437E+00 10080   0.533E+00-0.269E-01
CGA:   7    -0.377800026892E+03   -0.92411E-01   -0.92430E-01 10080   0.409E+00 0.184E-02
CGA:   8    -0.377843579653E+03   -0.43553E-01   -0.43599E-01 10080   0.159E+00 0.910E-03
CGA:   9    -0.377861143911E+03   -0.17564E-01   -0.17696E-01 10080   0.138E+00 0.368E-02
CGA:  10    -0.377880809208E+03   -0.19665E-01   -0.19658E-01 10080   0.421E-01 0.389E-03
CGA:  11    -0.377892880861E+03   -0.12072E-01   -0.12066E-01 10080   0.346E-01-0.323E-04
CGA:  12    -0.377897072917E+03   -0.41921E-02   -0.42055E-02 10080   0.195E-01 0.894E-03
CGA:  13    -0.377900879960E+03   -0.38070E-02   -0.37287E-02 10080   0.151E-01 0.239E-02
CGA:  14    -0.377902749548E+03   -0.18696E-02   -0.18694E-02 10080   0.129E-01-0.279E-03
CGA:  15    -0.377905177666E+03   -0.24281E-02   -0.23853E-02 10080   0.786E-02 0.115E-02
CGA:  16    -0.377906691910E+03   -0.15142E-02   -0.14883E-02 10080   0.110E-01 0.120E-02
CGA:  17    -0.377909171086E+03   -0.24792E-02   -0.23990E-02 10080   0.600E-02 0.203E-02
CGA:  18    -0.377910772431E+03   -0.16013E-02   -0.14942E-02 10080   0.733E-02 0.176E-02
CGA:  19    -0.377912030766E+03   -0.12583E-02   -0.12924E-02 10080   0.513E-02 0.134E-02
CGA:  20    -0.377912998546E+03   -0.96778E-03   -0.96755E-03 10080   0.539E-02 0.242E-03
CGA:  21    -0.377913528960E+03   -0.53041E-03   -0.57564E-03 10080   0.177E-02 0.783E-03
CGA:  22    -0.377913843855E+03   -0.31489E-03   -0.31504E-03 10080   0.139E-02 0.644E-03
CGA:  23    -0.377914036311E+03   -0.19246E-03   -0.21851E-03 10080   0.809E-03 0.628E-03
CGA:  24    -0.377914103499E+03   -0.67188E-04   -0.10817E-03 10080   0.471E-03 0.662E-03
CGA:  25    -0.377914157359E+03   -0.53860E-04   -0.57292E-04 10080   0.527E-03 0.118E-03
CGA:  26    -0.377914202891E+03   -0.45532E-04   -0.66723E-04 10080   0.245E-03 0.440E-03
CGA:  27    -0.377914211069E+03   -0.81789E-05   -0.19061E-04 10080   0.191E-03 0.157E-03
CGA:  28    -0.377914223542E+03   -0.12472E-04   -0.18996E-04 10080   0.175E-03 0.148E-03
CGA:  29    -0.377914228497E+03   -0.49552E-05   -0.13811E-04 10080   0.156E-03 0.141E-03
CGA:  30    -0.377914238220E+03   -0.97226E-05   -0.15192E-04 10080   0.146E-03 0.135E-03
CGA:  31    -0.377914241450E+03   -0.32302E-05   -0.11009E-04 10080   0.133E-03 0.128E-03
CGA:  32    -0.377914248761E+03   -0.73110E-05   -0.12308E-04 10080   0.125E-03 0.122E-03
  17 F= -.37791425E+03 E0= -.37790950E+03  d E =0.566137E+00  mag=     8.0000
       N       E                     dE             d eps       ncg     rms          ort
SDA:   1    -0.360095207461E+03    0.17819E+02    0.00000E+00 10080   0.469E+02 0.000E+00
CGA:   2    -0.370123420736E+03   -0.10028E+02   -0.99586E+01 10080   0.630E+02 0.642E+00
CGA:   3    -0.375297522852E+03   -0.51741E+01   -0.41555E+01 10080   0.817E+01 0.137E+02
CGA:   4    -0.376550289973E+03   -0.12528E+01   -0.12520E+01 10080   0.137E+02-0.102E+00
CGA:   5    -0.377501906099E+03   -0.95162E+00   -0.95852E+00 10080   0.383E+01 0.201E-01
CGA:   6    -0.377722980646E+03   -0.22107E+00   -0.21718E+00 10080   0.218E+01 0.443E-01
CGA:   7    -0.377935469451E+03   -0.21249E+00   -0.21155E+00 10080   0.145E+01-0.180E-01
CGA:   8    -0.378011450965E+03   -0.75982E-01   -0.77726E-01 10080   0.429E+00-0.222E-01
CGA:   9    -0.378048311169E+03   -0.36860E-01   -0.37478E-01 10080   0.353E+00 0.427E-02
CGA:  10    -0.378088295641E+03   -0.39984E-01   -0.40003E-01 10080   0.281E+00 0.349E-03
CGA:  11    -0.378107622202E+03   -0.19327E-01   -0.19446E-01 10080   0.938E-01-0.190E-02
CGA:  12    -0.378120961290E+03   -0.13339E-01   -0.13421E-01 10080   0.146E+00-0.329E-02
CGA:  13    -0.378133680488E+03   -0.12719E-01   -0.12528E-01 10080   0.360E-01-0.931E-02
CGA:  14    -0.378137498377E+03   -0.38179E-02   -0.38154E-02 10080   0.430E-01-0.350E-02
CGA:  15    -0.378142643939E+03   -0.51456E-02   -0.51988E-02 10080   0.197E-01-0.287E-02
CGA:  16    -0.378144264645E+03   -0.16207E-02   -0.15780E-02 10080   0.147E-01-0.172E-02
CGA:  17    -0.378146076503E+03   -0.18119E-02   -0.49536E-02 10080   0.293E-01-0.123E-01
CGA:  18    -0.378149126568E+03   -0.30501E-02   -0.30476E-02 10080   0.111E-01 0.166E-03
CGA:  19    -0.378150683940E+03   -0.15574E-02   -0.15470E-02 10080   0.493E-02 0.794E-03
CGA:  20    -0.378151363429E+03   -0.67949E-03   -0.68368E-03 10080   0.728E-02-0.118E-02
CGA:  21    -0.378152362427E+03   -0.99900E-03   -0.12804E-02 10080   0.731E-02-0.274E-02
CGA:  22    -0.378152767158E+03   -0.40473E-03   -0.37905E-03 10080   0.358E-02-0.603E-03
CGA:  23    -0.378153371203E+03   -0.60405E-03   -0.67895E-03 10080   0.100E-01-0.984E-03
CGA:  24    -0.378154234926E+03   -0.86372E-03   -0.81514E-03 10080   0.594E-02-0.248E-02
CGA:  25    -0.378154764727E+03   -0.52980E-03   -0.44103E-03 10080   0.623E-02-0.277E-02
CGA:  26    -0.378136226819E+03    0.18538E-01   -0.10333E-01 10080   0.208E+00-0.303E-01
CGA:  27    -0.378152810962E+03   -0.16584E-01   -0.16824E-01 10080   0.342E-01 0.794E-02
CGA:  28    -0.378156155405E+03   -0.33444E-02   -0.35663E-02 10080   0.154E-01 0.186E-02
CGA:  29    -0.378158029281E+03   -0.18739E-02   -0.19876E-02 10080   0.496E-02 0.112E-02
CGA:  30    -0.378159395758E+03   -0.13665E-02   -0.13669E-02 10080   0.390E-02-0.128E-04
CGA:  31    -0.378159881469E+03   -0.48571E-03   -0.44300E-03 10080   0.111E-02-0.386E-03
CGA:  32    -0.378160017923E+03   -0.13645E-03   -0.15250E-03 10080   0.118E-02 0.258E-03
CGA:  33    -0.378160169522E+03   -0.15160E-03   -0.18634E-03 10080   0.426E-03 0.420E-03
CGA:  34    -0.378160331413E+03   -0.16189E-03   -0.15106E-03 10080   0.256E-03 0.199E-03
CGA:  35    -0.378160368188E+03   -0.36776E-04   -0.48606E-04 10080   0.117E-03 0.146E-03
CGA:  36    -0.378159943877E+03    0.42431E-03   -0.22969E-03 10080   0.907E-02-0.506E-03
CGA:  37    -0.378160427943E+03   -0.48407E-03   -0.58889E-03 10080   0.217E-03 0.542E-03
CGA:  38    -0.378160426611E+03    0.13316E-05   -0.23028E-04 10080   0.104E-03 0.941E-04
CGA:  39    -0.378160430958E+03   -0.43465E-05   -0.17563E-04 10080   0.455E-04 0.577E-04
CGA:  40    -0.378160442342E+03   -0.11384E-04   -0.28714E-04 10080   0.488E-03-0.586E-04
CGA:  41    -0.378160460264E+03   -0.17923E-04   -0.34778E-04 10080   0.310E-04 0.663E-04
CGA:  42    -0.378160455455E+03    0.48093E-05   -0.17587E-05 10080   0.194E-04 0.230E-04
  18 F= -.37816046E+03 E0= -.37815742E+03  d E =-.246207E+00  mag=     8.0000
       N       E                     dE             d eps       ncg     rms          ort
SDA:   1    -0.375587078730E+03    0.25734E+01    0.00000E+00 10080   0.693E+01 0.000E+00
CGA:   2    -0.377790180607E+03   -0.22031E+01   -0.22024E+01 10080   0.390E+01 0.424E-01
CGA:   3    -0.378153024262E+03   -0.36284E+00   -0.32567E+00 10080   0.144E+01 0.405E+00
CGA:   4    -0.378374055624E+03   -0.22103E+00   -0.21876E+00 10080   0.664E+00 0.167E-01
CGA:   5    -0.378450033699E+03   -0.75978E-01   -0.74447E-01 10080   0.168E+00 0.905E-02
CGA:   6    -0.378481565000E+03   -0.31531E-01   -0.31445E-01 10080   0.551E-01-0.978E-03
CGA:   7    -0.378489154287E+03   -0.75893E-02   -0.76203E-02 10080   0.357E-01 0.638E-03
CGA:   8    -0.378494735429E+03   -0.55811E-02   -0.56306E-02 10080   0.129E-01 0.539E-03
CGA:   9    -0.378496616512E+03   -0.18811E-02   -0.18762E-02 10080   0.142E-01-0.672E-04
CGA:  10    -0.378498233507E+03   -0.16170E-02   -0.16846E-02 10080   0.338E-02 0.565E-03
CGA:  11    -0.378499266256E+03   -0.10327E-02   -0.10219E-02 10080   0.145E-02 0.270E-03
CGA:  12    -0.378499548755E+03   -0.28250E-03   -0.29837E-03 10080   0.154E-02 0.251E-03
CGA:  13    -0.378499691884E+03   -0.14313E-03   -0.19543E-03 10080   0.668E-03 0.380E-03
CGA:  14    -0.378499781452E+03   -0.89569E-04   -0.11691E-03 10080   0.574E-03 0.265E-03
CGA:  15    -0.378499860319E+03   -0.78867E-04   -0.11819E-03 10080   0.293E-03 0.431E-03
CGA:  16    -0.378499887176E+03   -0.26856E-04   -0.41127E-04 10080   0.277E-03 0.155E-03
CGA:  17    -0.378499906395E+03   -0.19219E-04   -0.28721E-04 10080   0.276E-03 0.756E-04
CGA:  18    -0.378499925912E+03   -0.19518E-04   -0.45976E-04 10080   0.207E-03 0.289E-03
CGA:  19    -0.378499932367E+03   -0.64548E-05   -0.18622E-04 10080   0.157E-03 0.958E-04
CGA:  20    -0.378499940890E+03   -0.85233E-05   -0.27474E-04 10080   0.183E-03 0.205E-03
CGA:  21    -0.378499944611E+03   -0.37203E-05   -0.15584E-04 10080   0.127E-03 0.976E-04
CGA:  22    -0.378499946346E+03   -0.17349E-05   -0.12676E-04 10080   0.121E-03 0.108E-03
CGA:  23    -0.378499949598E+03   -0.32525E-05   -0.12730E-04 10080   0.118E-03 0.105E-03
  19 F= -.37849995E+03 E0= -.37849648E+03  d E =-.339494E+00  mag=     8.0000
       N       E                     dE             d eps       ncg     rms          ort
SDA:   1    -0.378417491302E+03    0.82455E-01    0.00000E+00 10080   0.240E+00 0.000E+00
CGA:   2    -0.378482010757E+03   -0.64519E-01   -0.64116E-01 10080   0.259E+00 0.507E-02
CGA:   3    -0.378500846377E+03   -0.18836E-01   -0.18847E-01 10080   0.529E-01-0.173E-02
CGA:   4    -0.378510498699E+03   -0.96523E-02   -0.96523E-02 10080   0.243E-01-0.412E-04
CGA:   5    -0.378512815578E+03   -0.23169E-02   -0.22359E-02 10080   0.668E-02-0.853E-03
CGA:   6    -0.378513776065E+03   -0.96049E-03   -0.96874E-03 10080   0.289E-02 0.298E-03
CGA:   7    -0.378514074391E+03   -0.29833E-03   -0.29280E-03 10080   0.146E-02-0.682E-04
CGA:   8    -0.378514246176E+03   -0.17179E-03   -0.18743E-03 10080   0.384E-03 0.370E-03
CGA:   9    -0.378514313751E+03   -0.67575E-04   -0.72817E-04 10080   0.203E-03 0.258E-03
CGA:  10    -0.378514345176E+03   -0.31425E-04   -0.32537E-04 10080   0.161E-03 0.109E-03
CGA:  11    -0.378514353688E+03   -0.85125E-05   -0.15358E-04 10080   0.116E-03 0.914E-04
CGA:  12    -0.378514364786E+03   -0.11098E-04   -0.14645E-04 10080   0.102E-03 0.881E-04
CGA:  13    -0.378514367433E+03   -0.26472E-05   -0.89924E-05 10080   0.873E-04 0.833E-04
  20 F= -.37851437E+03 E0= -.37851074E+03  d E =-.144178E-01  mag=     8.0000
       N       E                     dE             d eps       ncg     rms          ort
SDA:   1    -0.378296550221E+03    0.21781E+00    0.00000E+00 10080   0.577E+00 0.000E+00
CGA:   2    -0.378460509998E+03   -0.16396E+00   -0.16297E+00 10080   0.327E+00 0.794E-02
CGA:   3    -0.378493583429E+03   -0.33073E-01   -0.32824E-01 10080   0.158E+00-0.183E-04
CGA:   4    -0.378513857201E+03   -0.20274E-01   -0.20258E-01 10080   0.572E-01 0.393E-04
CGA:   5    -0.378518890271E+03   -0.50331E-02   -0.49125E-02 10080   0.175E-01-0.191E-02
CGA:   6    -0.378521624499E+03   -0.27342E-02   -0.27336E-02 10080   0.409E-02 0.133E-03
CGA:   7    -0.378522326114E+03   -0.70161E-03   -0.70537E-03 10080   0.410E-02-0.248E-03
CGA:   8    -0.378522607261E+03   -0.28115E-03   -0.31284E-03 10080   0.999E-03 0.433E-03
CGA:   9    -0.378522777083E+03   -0.16982E-03   -0.16967E-03 10080   0.902E-03 0.235E-03
CGA:  10    -0.378522936219E+03   -0.15914E-03   -0.15842E-03 10080   0.743E-03-0.670E-04
CGA:  11    -0.378522983364E+03   -0.47145E-04   -0.57176E-04 10080   0.384E-03 0.146E-03
CGA:  12    -0.378523037087E+03   -0.53724E-04   -0.56799E-04 10080   0.351E-03 0.121E-03
CGA:  13    -0.378523100253E+03   -0.63166E-04   -0.61858E-04 10080   0.438E-03-0.977E-04
CGA:  14    -0.378523121275E+03   -0.21021E-04   -0.24248E-04 10080   0.253E-03 0.444E-04
CGA:  15    -0.378523127116E+03   -0.58413E-05   -0.13485E-04 10080   0.151E-03 0.806E-04
CGA:  16    -0.378523139160E+03   -0.12044E-04   -0.16902E-04 10080   0.186E-03 0.898E-04
CGA:  17    -0.378523162034E+03   -0.22873E-04   -0.19838E-04 10080   0.254E-03-0.102E-03
CGA:  18    -0.378523165014E+03   -0.29802E-05   -0.98786E-05 10080   0.448E-04 0.727E-04
  21 F= -.37852317E+03 E0= -.37851933E+03  d E =-.879758E-02  mag=     8.0000
       N       E                     dE             d eps       ncg     rms          ort
SDA:   1    -0.378295933411E+03    0.22723E+00    0.00000E+00 10080   0.627E+00 0.000E+00
CGA:   2    -0.378437649839E+03   -0.14172E+00   -0.14083E+00 10080   0.685E+00 0.919E-02
CGA:   3    -0.378489120824E+03   -0.51471E-01   -0.51810E-01 10080   0.164E+00-0.533E-02
CGA:   4    -0.378519079693E+03   -0.29959E-01   -0.29977E-01 10080   0.436E-01-0.206E-03
CGA:   5    -0.378523751654E+03   -0.46720E-02   -0.46207E-02 10080   0.204E-01-0.217E-02
CGA:   6    -0.378525841712E+03   -0.20901E-02   -0.20985E-02 10080   0.639E-02 0.469E-03
CGA:   7    -0.378526577547E+03   -0.73584E-03   -0.73083E-03 10080   0.335E-02-0.288E-03
CGA:   8    -0.378527025630E+03   -0.44808E-03   -0.44516E-03 10080   0.945E-03 0.257E-03
CGA:   9    -0.378527228778E+03   -0.20315E-03   -0.20539E-03 10080   0.133E-02-0.303E-04
CGA:  10    -0.378527333868E+03   -0.10509E-03   -0.11666E-03 10080   0.428E-03 0.285E-03
CGA:  11    -0.378527408633E+03   -0.74765E-04   -0.74016E-04 10080   0.527E-03 0.593E-04
CGA:  12    -0.378527526543E+03   -0.11791E-03   -0.12365E-03 10080   0.619E-03-0.813E-04
CGA:  13    -0.378527545674E+03   -0.19130E-04   -0.28037E-04 10080   0.252E-03 0.110E-03
CGA:  14    -0.378527558386E+03   -0.12712E-04   -0.19742E-04 10080   0.264E-03 0.110E-03
CGA:  15    -0.378527604892E+03   -0.46506E-04   -0.46848E-04 10080   0.168E-03 0.931E-04
CGA:  16    -0.378527629527E+03   -0.24635E-04   -0.22823E-04 10080   0.217E-03-0.709E-04
CGA:  17    -0.378527634905E+03   -0.53776E-05   -0.81647E-05 10080   0.264E-03 0.430E-04
CGA:  18    -0.378527639925E+03   -0.50202E-05   -0.13998E-04 10080   0.103E-03 0.113E-03
  22 F= -.37852764E+03 E0= -.37852353E+03  d E =-.447491E-02  mag=     8.0000
       N       E                     dE             d eps       ncg     rms          ort
SDA:   1    -0.377424864928E+03    0.11028E+01    0.00000E+00 10080   0.280E+01 0.000E+00
CGA:   2    -0.378146533982E+03   -0.72167E+00   -0.72164E+00 10080   0.334E+01-0.934E-03
CGA:   3    -0.378373670367E+03   -0.22714E+00   -0.23305E+00 10080   0.711E+00-0.383E-01
CGA:   4    -0.378495526692E+03   -0.12186E+00   -0.12190E+00 10080   0.204E+00-0.187E-04
CGA:   5    -0.378516026155E+03   -0.20499E-01   -0.20401E-01 10080   0.645E-01-0.432E-02
CGA:   6    -0.378525030270E+03   -0.90041E-02   -0.89933E-02 10080   0.298E-01 0.659E-03
CGA:   7    -0.378527671079E+03   -0.26408E-02   -0.25949E-02 10080   0.120E-01-0.130E-02
CGA:   8    -0.378529476239E+03   -0.18052E-02   -0.17740E-02 10080   0.311E-02 0.939E-03
CGA:   9    -0.378530201583E+03   -0.72534E-03   -0.73399E-03 10080   0.449E-02-0.877E-04
CGA:  10    -0.378530554750E+03   -0.35317E-03   -0.37412E-03 10080   0.133E-02 0.515E-03
CGA:  11    -0.378530913755E+03   -0.35901E-03   -0.39325E-03 10080   0.304E-02-0.248E-03
CGA:  12    -0.378531173273E+03   -0.25952E-03   -0.25748E-03 10080   0.140E-02-0.839E-04
CGA:  13    -0.378531247983E+03   -0.74710E-04   -0.89661E-04 10080   0.794E-03 0.233E-03
CGA:  14    -0.378531364398E+03   -0.11641E-03   -0.11678E-03 10080   0.989E-03 0.277E-03
CGA:  15    -0.378531513087E+03   -0.14869E-03   -0.14702E-03 10080   0.342E-03-0.106E-03
CGA:  16    -0.378531595523E+03   -0.82436E-04   -0.80498E-04 10080   0.511E-03 0.863E-05
CGA:  17    -0.378531685721E+03   -0.90198E-04   -0.96345E-04 10080   0.512E-03-0.131E-03
CGA:  18    -0.378531724028E+03   -0.38307E-04   -0.41535E-04 10080   0.312E-03 0.113E-03
CGA:  19    -0.378531764801E+03   -0.40773E-04   -0.43288E-04 10080   0.265E-03 0.114E-03
CGA:  20    -0.378531813153E+03   -0.48352E-04   -0.48355E-04 10080   0.173E-03 0.141E-03
CGA:  21    -0.378531826114E+03   -0.12962E-04   -0.15015E-04 10080   0.106E-03 0.443E-04
CGA:  22    -0.378531749929E+03    0.76186E-04   -0.50585E-04 10080   0.183E-02-0.286E-03
CGA:  23    -0.378531818394E+03   -0.68465E-04   -0.11116E-03 10080   0.425E-03 0.244E-03
CGA:  24    -0.378531856655E+03   -0.38261E-04   -0.52661E-04 10080   0.147E-03 0.119E-03
CGA:  25    -0.378531875811E+03   -0.19156E-04   -0.20620E-04 10080   0.905E-04 0.132E-04
CGA:  26    -0.378531886117E+03   -0.10307E-04   -0.11920E-04 10080   0.684E-04 0.165E-04
CGA:  27    -0.378531920988E+03   -0.34870E-04    0.95237E-03 10080   0.125E-03-0.571E-04
CGA:  28    -0.378531923970E+03   -0.29826E-05   -0.76505E-05 10080   0.259E-04 0.310E-04
  23 F= -.37853192E+03 E0= -.37852729E+03  d E =-.428405E-02  mag=     8.0000
       N       E                     dE             d eps       ncg     rms          ort
SDA:   1    -0.375731375226E+03    0.28005E+01    0.00000E+00 10080   0.662E+01 0.000E+00
CGA:   2    -0.377976743915E+03   -0.22454E+01   -0.22456E+01 10080   0.238E+01-0.177E-02
CGA:   3    -0.378363805816E+03   -0.38706E+00   -0.38681E+00 10080   0.111E+01 0.125E-02
CGA:   4    -0.378469077251E+03   -0.10527E+00   -0.10451E+00 10080   0.211E+00 0.670E-02
CGA:   5    -0.378506719376E+03   -0.37642E-01   -0.37573E-01 10080   0.672E-01-0.281E-02
CGA:   6    -0.378515617513E+03   -0.88981E-02   -0.89047E-02 10080   0.348E-01 0.446E-03
CGA:   7    -0.378519946731E+03   -0.43292E-02   -0.43579E-02 10080   0.955E-02 0.370E-03
CGA:   8    -0.378521872917E+03   -0.19262E-02   -0.19290E-02 10080   0.963E-02-0.321E-03
CGA:   9    -0.378522601714E+03   -0.72880E-03   -0.76673E-03 10080   0.301E-02 0.382E-03
CGA:  10    -0.378523498730E+03   -0.89702E-03   -0.98724E-03 10080   0.441E-02-0.694E-03
CGA:  11    -0.378523806169E+03   -0.30744E-03   -0.29903E-03 10080   0.165E-02-0.550E-04
CGA:  12    -0.378524026313E+03   -0.22014E-03   -0.22932E-03 10080   0.186E-02 0.196E-03
CGA:  13    -0.378524298253E+03   -0.27194E-03   -0.26258E-03 10080   0.561E-03-0.161E-03
CGA:  14    -0.378523108438E+03    0.11898E-02   -0.65583E-03 10080   0.174E-01-0.184E-02
CGA:  15    -0.378524154633E+03   -0.10462E-02   -0.11664E-02 10080   0.340E-02 0.381E-03
CGA:  16    -0.378524614927E+03   -0.46029E-03   -0.50922E-03 10080   0.169E-02 0.283E-03
CGA:  17    -0.378524773560E+03   -0.15863E-03   -0.18320E-03 10080   0.556E-03 0.116E-03
CGA:  18    -0.378524962501E+03   -0.18894E-03   -0.20653E-03 10080   0.697E-03-0.371E-03
CGA:  19    -0.378524987632E+03   -0.25131E-04   -0.57361E-04 10080   0.210E-03 0.147E-03
CGA:  20    -0.378524998954E+03   -0.11322E-04   -0.27430E-04 10080   0.705E-04 0.881E-04
CGA:  21    -0.378525019426E+03   -0.20472E-04   -0.20165E-04 10080   0.143E-03-0.395E-05
CGA:  22    -0.378525048274E+03   -0.28848E-04   -0.21876E-04 10080   0.114E-03-0.619E-04
CGA:  23    -0.378524768358E+03    0.27992E-03   -0.52541E-04 10080   0.547E-02-0.622E-03
CGA:  24    -0.378525117006E+03   -0.34865E-03   -0.36145E-03 10080   0.580E-03 0.706E-04
CGA:  25    -0.378525187636E+03   -0.70630E-04   -0.93620E-04 10080   0.190E-03 0.180E-03
CGA:  26    -0.378525220466E+03   -0.32830E-04   -0.36817E-04 10080   0.169E-03 0.298E-04
CGA:  27    -0.378525273442E+03   -0.52977E-04   -0.57296E-04 10080   0.386E-03-0.232E-03
CGA:  28    -0.378525281276E+03   -0.78339E-05   -0.21122E-04 10080   0.727E-04 0.614E-04
CGA:  29    -0.378525291137E+03   -0.98605E-05   -0.12968E-04 10080   0.735E-04 0.281E-04
CGA:  30    -0.378525315180E+03   -0.24043E-04   -0.18628E-04 10080   0.123E-03-0.710E-04
CGA:  31    -0.378525318631E+03   -0.34512E-05   -0.61145E-05 10080   0.104E-04 0.133E-04
  24 F= -.37852532E+03 E0= -.37852070E+03  d E =0.660534E-02  mag=     8.0000
       N       E                     dE             d eps       ncg     rms          ort
SDA:   1    -0.377712524705E+03    0.81279E+00    0.00000E+00 10080   0.194E+01 0.000E+00
CGA:   2    -0.378401900194E+03   -0.68938E+00   -0.68956E+00 10080   0.592E+00-0.168E-02
CGA:   3    -0.378507493577E+03   -0.10559E+00   -0.10563E+00 10080   0.256E+00 0.698E-03
CGA:   4    -0.378530652860E+03   -0.23159E-01   -0.23133E-01 10080   0.615E-01 0.387E-02
CGA:   5    -0.378540996141E+03   -0.10343E-01   -0.10233E-01 10080   0.243E-01-0.153E-02
CGA:   6    -0.378543276340E+03   -0.22802E-02   -0.23247E-02 10080   0.115E-01 0.415E-03
CGA:   7    -0.378544851671E+03   -0.15753E-02   -0.15801E-02 10080   0.330E-02 0.591E-04
CGA:   8    -0.378545363259E+03   -0.51159E-03   -0.51189E-03 10080   0.245E-02 0.416E-05
CGA:   9    -0.378545691388E+03   -0.32813E-03   -0.33225E-03 10080   0.726E-03 0.596E-04
CGA:  10    -0.378545908129E+03   -0.21674E-03   -0.21787E-03 10080   0.634E-03-0.146E-04
CGA:  11    -0.378545980115E+03   -0.71986E-04   -0.66136E-04 10080   0.403E-03-0.500E-04
CGA:  12    -0.378546034673E+03   -0.54558E-04   -0.58005E-04 10080   0.141E-03 0.592E-04
CGA:  13    -0.378545992195E+03    0.42478E-04   -0.89373E-04 10080   0.248E-02-0.387E-03
CGA:  14    -0.378546113415E+03   -0.12122E-03   -0.14392E-03 10080   0.123E-03 0.160E-03
CGA:  15    -0.378546140759E+03   -0.27344E-04   -0.27369E-04 10080   0.124E-03 0.228E-05
CGA:  16    -0.378546157576E+03   -0.16817E-04   -0.13928E-04 10080   0.374E-04-0.264E-04
CGA:  17    -0.378546173659E+03   -0.16083E-04    0.11424E-04 10080   0.362E-04 0.743E-05
CGA:  18    -0.378545861908E+03    0.31175E-03   -0.16888E-03 10080   0.541E-02-0.316E-03
CGA:  19    -0.378546192315E+03   -0.33041E-03   -0.31313E-03 10080   0.359E-03-0.733E-05
CGA:  20    -0.378546227194E+03   -0.34879E-04   -0.44759E-04 10080   0.213E-03 0.402E-04
CGA:  21    -0.378546265181E+03   -0.37987E-04   -0.33851E-04 10080   0.427E-04-0.186E-04
CGA:  22    -0.378546270606E+03   -0.54256E-05   -0.60790E-05 10080   0.297E-04 0.346E-05
CGA:  23    -0.378546293816E+03   -0.23210E-04    0.89369E-04 10080   0.828E-04-0.207E-04
CGA:  24    -0.378546290922E+03    0.28943E-05   -0.36818E-05 10080   0.111E-04 0.224E-04
  25 F= -.37854629E+03 E0= -.37854161E+03  d E =-.209723E-01  mag=     8.0000
       N       E                     dE             d eps       ncg     rms          ort
SDA:   1    -0.376229060028E+03    0.23172E+01    0.00000E+00 10080   0.532E+01 0.000E+00
CGA:   2    -0.378197770444E+03   -0.19687E+01   -0.19690E+01 10080   0.148E+01-0.420E-02
CGA:   3    -0.378459360449E+03   -0.26159E+00   -0.26183E+00 10080   0.708E+00 0.659E-02
CGA:   4    -0.378516464082E+03   -0.57104E-01   -0.55881E-01 10080   0.162E+00 0.841E-02
CGA:   5    -0.378542043820E+03   -0.25580E-01   -0.25323E-01 10080   0.702E-01-0.836E-03
CGA:   6    -0.378549240360E+03   -0.71965E-02   -0.70169E-02 10080   0.248E-01 0.829E-03
CGA:   7    -0.378553155012E+03   -0.39147E-02   -0.39980E-02 10080   0.682E-02 0.688E-03
CGA:   8    -0.378554177862E+03   -0.10229E-02   -0.10557E-02 10080   0.534E-02 0.290E-03
CGA:   9    -0.378554943007E+03   -0.76514E-03   -0.76386E-03 10080   0.177E-02-0.216E-06
CGA:  10    -0.378555325620E+03   -0.38261E-03   -0.38067E-03 10080   0.232E-02-0.394E-04
CGA:  11    -0.378555503693E+03   -0.17807E-03   -0.21260E-03 10080   0.532E-03 0.214E-03
CGA:  12    -0.378555619061E+03   -0.11537E-03   -0.12117E-03 10080   0.342E-03 0.140E-03
CGA:  13    -0.378555666375E+03   -0.47314E-04   -0.51193E-04 10080   0.226E-03 0.309E-04
CGA:  14    -0.378555699664E+03   -0.33288E-04   -0.35949E-04 10080   0.131E-03 0.279E-04
CGA:  15    -0.378555723485E+03   -0.23822E-04   -0.22745E-04 10080   0.128E-03-0.127E-04
CGA:  16    -0.378555724162E+03   -0.67662E-06   -0.10235E-04 10080   0.658E-04 0.662E-04
  26 F= -.37855572E+03 E0= -.37855090E+03  d E =-.943324E-02  mag=     8.0000
       N       E                     dE             d eps       ncg     rms          ort
SDA:   1    -0.353704494978E+03    0.24851E+02    0.00000E+00 10080   0.591E+02 0.000E+00
[...]
CGA:  27    -0.378574155082E+03   -0.12385E-04    0.14279E-05 10080   0.166E-04 0.951E-05
CGA:  28    -0.378574169297E+03   -0.14214E-04    0.15621E-05 10080   0.232E-04 0.405E-05
CGA:  29    -0.378574199719E+03   -0.30423E-04    0.18975E-05 10080   0.143E-04 0.259E-04
CGA:  30    -0.378574208143E+03   -0.84240E-05    0.33530E-05 10080   0.219E-04 0.794E-06
  87 F= -.37857421E+03 E0= -.37857409E+03  d E =-.719495E+00  mag=     8.0000
       N       E                     dE             d eps       ncg     rms          ort
SDA:   1    -0.377682620145E+03    0.89158E+00    0.00000E+00 10080   0.240E+01 0.000E+00
CGA:   2    -0.378467390077E+03   -0.78477E+00   -0.78379E+00 10080   0.850E+00 0.802E-02
CGA:   3    -0.378625203532E+03   -0.15781E+00   -0.15783E+00 10080   0.283E+00-0.131E-02
CGA:   4    -0.378670042042E+03   -0.44839E-01   -0.44753E-01 10080   0.726E-01 0.855E-03
CGA:   5    -0.378683484034E+03   -0.13442E-01   -0.13414E-01 10080   0.211E-01-0.134E-02
CGA:   6    -0.378687487028E+03   -0.40030E-02   -0.40011E-02 10080   0.947E-02-0.112E-03
CGA:   7    -0.378689317843E+03   -0.18308E-02   -0.18286E-02 10080   0.456E-02-0.193E-03
CGA:   8    -0.378690265661E+03   -0.94782E-03   -0.94845E-03 10080   0.201E-02-0.800E-04
CGA:   9    -0.378690767615E+03   -0.50195E-03   -0.51098E-03 10080   0.112E-02-0.164E-03
CGA:  10    -0.378691027225E+03   -0.25961E-03   -0.32204E-03 10080   0.147E-02-0.593E-03
CGA:  11    -0.378691165793E+03   -0.13857E-03   -0.14604E-03 10080   0.258E-03 0.732E-04
CGA:  12    -0.378691255263E+03   -0.89470E-04   -0.12615E-03 10080   0.363E-03-0.142E-03
CGA:  13    -0.378691335219E+03   -0.79956E-04   -0.12247E-03 10080   0.965E-03-0.364E-03
CGA:  14    -0.378691396558E+03   -0.61339E-04   -0.76747E-04 10080   0.671E-04 0.111E-03
CGA:  15    -0.378691408267E+03   -0.11709E-04   -0.12757E-04 10080   0.531E-04 0.216E-04
CGA:  16    -0.378691447946E+03   -0.39679E-04    0.24890E-04 10080   0.576E-04 0.142E-04
CGA:  17    -0.378691518554E+03   -0.70608E-04    0.64055E-05 10080   0.651E-04 0.507E-04
CGA:  18    -0.378691533672E+03   -0.15118E-04   -0.15365E-04 10080   0.633E-04-0.125E-04
CGA:  19    -0.378691569985E+03   -0.36313E-04    0.87895E-05 10080   0.368E-04-0.446E-05
CGA:  20    -0.378691599998E+03   -0.30012E-04    0.36665E-05 10080   0.318E-04 0.232E-04
CGA:  21    -0.378691603319E+03   -0.33211E-05   -0.41593E-05 10080   0.139E-04 0.974E-05
  88 F= -.37869160E+03 E0= -.37869158E+03  d E =-.117395E+00  mag=     8.0000
       N       E                     dE             d eps       ncg     rms          ort
SDA:   1    -0.378580915698E+03    0.11068E+00    0.00000E+00 10080   0.290E+00 0.000E+00
CGA:   2    -0.378659263322E+03   -0.78348E-01   -0.78177E-01 10080   0.123E+00 0.304E-02
CGA:   3    -0.378681733737E+03   -0.22470E-01   -0.22453E-01 10080   0.422E-01-0.668E-03
CGA:   4    -0.378688505944E+03   -0.67722E-02   -0.67838E-02 10080   0.981E-02 0.367E-03
CGA:   5    -0.378690414979E+03   -0.19090E-02   -0.19013E-02 10080   0.284E-02-0.394E-03
CGA:   6    -0.378690917435E+03   -0.50246E-03   -0.50089E-03 10080   0.113E-02-0.532E-04
CGA:   7    -0.378691133832E+03   -0.21640E-03   -0.21650E-03 10080   0.473E-03 0.852E-05
CGA:   8    -0.378691225454E+03   -0.91622E-04   -0.92802E-04 10080   0.155E-03 0.855E-04
CGA:   9    -0.378691272848E+03   -0.47394E-04   -0.45940E-04 10080   0.647E-04 0.335E-04
CGA:  10    -0.378691313033E+03   -0.40184E-04    0.38366E-04 10080   0.293E-04 0.251E-04
CGA:  11    -0.378691332627E+03   -0.19594E-04    0.29371E-04 10080   0.142E-04 0.146E-04
CGA:  12    -0.378691348262E+03   -0.15635E-04    0.29568E-05 10080   0.837E-05 0.107E-04
CGA:  13    -0.378691356792E+03   -0.85298E-05    0.61681E-06 10080   0.613E-05 0.456E-05
  89 F= -.37869136E+03 E0= -.37869134E+03  d E =0.246527E-03  mag=     8.0000
       N       E                     dE             d eps       ncg     rms          ort
SDA:   1    -0.378625899303E+03    0.65449E-01    0.00000E+00 10080   0.192E+00 0.000E+00
CGA:   2    -0.378685768384E+03   -0.59869E-01   -0.59846E-01 10080   0.696E-01 0.193E-03
CGA:   3    -0.378699388594E+03   -0.13620E-01   -0.13617E-01 10080   0.202E-01-0.159E-03
CGA:   4    -0.378702840604E+03   -0.34520E-02   -0.34513E-02 10080   0.524E-02-0.154E-04
CGA:   5    -0.378703751091E+03   -0.91049E-03   -0.91027E-03 10080   0.154E-02-0.916E-06
CGA:   6    -0.378704042887E+03   -0.29180E-03   -0.29176E-03 10080   0.595E-03 0.946E-06
CGA:   7    -0.378704174343E+03   -0.13146E-03   -0.13168E-03 10080   0.257E-03-0.178E-04
CGA:   8    -0.378704223095E+03   -0.48752E-04   -0.49131E-04 10080   0.930E-04 0.313E-04
CGA:   9    -0.378704243985E+03   -0.20889E-04   -0.54424E-04 10080   0.280E-03-0.107E-03
CGA:  10    -0.378704270278E+03   -0.26293E-04   -0.29662E-04 10080   0.467E-04 0.293E-04
CGA:  11    -0.378704282880E+03   -0.12602E-04   -0.13468E-04 10080   0.224E-04-0.204E-04
CGA:  12    -0.378704288798E+03   -0.59177E-05    0.21640E-04 10080   0.108E-04-0.552E-06
  90 F= -.37870429E+03 E0= -.37870427E+03  d E =-.129320E-01  mag=     8.0000
       N       E                     dE             d eps       ncg     rms          ort
SDA:   1    -0.378689788984E+03    0.14494E-01    0.00000E+00 10080   0.351E-01 0.000E+00
CGA:   2    -0.378701404716E+03   -0.11616E-01   -0.11652E-01 10080   0.119E-01-0.333E-03
CGA:   3    -0.378703697341E+03   -0.22926E-02   -0.22942E-02 10080   0.345E-02 0.468E-04
CGA:   4    -0.378704306431E+03   -0.60909E-03   -0.60704E-03 10080   0.891E-03-0.397E-04
CGA:   5    -0.378704454504E+03   -0.14807E-03   -0.15099E-03 10080   0.211E-03 0.581E-04
CGA:   6    -0.378704506012E+03   -0.51508E-04   -0.51466E-04 10080   0.874E-04 0.496E-05
CGA:   7    -0.378704529351E+03   -0.23340E-04   -0.24093E-04 10080   0.585E-04-0.152E-04
CGA:   8    -0.378704540991E+03   -0.11640E-04   -0.12499E-04 10080   0.521E-04-0.235E-04
CGA:   9    -0.378704547557E+03   -0.65662E-05   -0.62489E-05 10080   0.213E-04-0.134E-04
  91 F= -.37870455E+03 E0= -.37870453E+03  d E =-.258760E-03  mag=     8.0000
       N       E                     dE             d eps       ncg     rms          ort
SDA:   1    -0.378702716090E+03    0.18249E-02    0.00000E+00 10080   0.543E-02 0.000E+00
CGA:   2    -0.378704162570E+03   -0.14465E-02   -0.14366E-02 10080   0.263E-02 0.224E-03
CGA:   3    -0.378704599971E+03   -0.43740E-03   -0.43284E-03 10080   0.889E-03-0.678E-04
CGA:   4    -0.378704755722E+03   -0.15575E-03   -0.15518E-03 10080   0.169E-03-0.129E-04
CGA:   5    -0.378704784228E+03   -0.28506E-04   -0.28810E-04 10080   0.476E-04 0.720E-05
CGA:   6    -0.378704796345E+03   -0.12117E-04   -0.13509E-04 10080   0.534E-04-0.243E-04
CGA:   7    -0.378704798573E+03   -0.22278E-05   -0.40332E-05 10080   0.760E-05 0.128E-04
  92 F= -.37870480E+03 E0= -.37870479E+03  d E =-.251015E-03  mag=     8.0000
       N       E                     dE             d eps       ncg     rms          ort
SDA:   1    -0.378692683897E+03    0.12112E-01    0.00000E+00 10080   0.320E-01 0.000E+00
CGA:   2    -0.378701433572E+03   -0.87497E-02   -0.87310E-02 10080   0.136E-01 0.274E-03
CGA:   3    -0.378703948391E+03   -0.25148E-02   -0.25089E-02 10080   0.445E-02-0.229E-03
CGA:   4    -0.378704596695E+03   -0.64830E-03   -0.65215E-03 10080   0.886E-03 0.737E-04
CGA:   5    -0.378704771851E+03   -0.17516E-03   -0.17452E-03 10080   0.265E-03-0.614E-04
CGA:   6    -0.378704814863E+03   -0.43013E-04   -0.43082E-04 10080   0.833E-04 0.280E-05
CGA:   7    -0.378704831807E+03   -0.16944E-04   -0.16944E-04 10080   0.325E-04 0.632E-06
CGA:   8    -0.378704840142E+03   -0.83350E-05   -0.13725E-04 10080   0.630E-04-0.248E-04
  93 F= -.37870484E+03 E0= -.37870483E+03  d E =-.415699E-04  mag=     8.0000
       N       E                     dE             d eps       ncg     rms          ort
SDA:   1    -0.378700534923E+03    0.42969E-02    0.00000E+00 10080   0.111E-01 0.000E+00
CGA:   2    -0.378703527530E+03   -0.29926E-02   -0.29936E-02 10080   0.536E-02-0.126E-04
CGA:   3    -0.378704392886E+03   -0.86536E-03   -0.86236E-03 10080   0.175E-02-0.552E-04
CGA:   4    -0.378704663846E+03   -0.27096E-03   -0.27157E-03 10080   0.315E-03 0.148E-04
CGA:   5    -0.378704722759E+03   -0.58913E-04   -0.59140E-04 10080   0.766E-04 0.122E-04
CGA:   6    -0.378704742795E+03   -0.20037E-04   -0.25543E-04 10080   0.106E-03-0.471E-04
CGA:   7    -0.378704749315E+03   -0.65195E-05   -0.89083E-05 10080   0.132E-04 0.193E-04
  94 F= -.37870475E+03 E0= -.37870474E+03  d E =0.908277E-04  mag=     8.0000
       N       E                     dE             d eps       ncg     rms          ort
SDA:   1    -0.378690722553E+03    0.14020E-01    0.00000E+00 10080   0.351E-01 0.000E+00
CGA:   2    -0.378701126419E+03   -0.10404E-01   -0.10415E-01 10080   0.159E-01-0.106E-03
CGA:   3    -0.378703643447E+03   -0.25170E-02   -0.25022E-02 10080   0.507E-02-0.294E-03
CGA:   4    -0.378704400184E+03   -0.75674E-03   -0.76648E-03 10080   0.808E-03 0.194E-03
CGA:   5    -0.378704566541E+03   -0.16636E-03   -0.16631E-03 10080   0.236E-03-0.884E-05
CGA:   6    -0.378704614340E+03   -0.47799E-04   -0.47848E-04 10080   0.123E-03-0.394E-04
CGA:   7    -0.378704631898E+03   -0.17558E-04   -0.17480E-04 10080   0.329E-04-0.208E-05
CGA:   8    -0.378704531781E+03    0.10012E-03   -0.54096E-04 10080   0.669E-03-0.127E-03
CGA:   9    -0.378704639201E+03   -0.10742E-03   -0.11217E-03 10080   0.789E-04 0.238E-04
CGA:  10    -0.378704651695E+03   -0.12494E-04   -0.13522E-04 10080   0.273E-04 0.550E-05
CGA:  11    -0.378704657814E+03   -0.61184E-05   -0.57654E-05 10080   0.897E-05-0.227E-05
  95 F= -.37870466E+03 E0= -.37870465E+03  d E =0.915008E-04  mag=     8.0000
       N       E                     dE             d eps       ncg     rms          ort
SDA:   1    -0.378697261161E+03    0.73905E-02    0.00000E+00 10080   0.199E-01 0.000E+00
CGA:   2    -0.378702772456E+03   -0.55113E-02   -0.55041E-02 10080   0.752E-02-0.134E-03
CGA:   3    -0.378704231965E+03   -0.14595E-02   -0.14812E-02 10080   0.201E-02 0.163E-03
CGA:   4    -0.378704571040E+03   -0.33908E-03   -0.34399E-03 10080   0.474E-03 0.339E-04
CGA:   5    -0.378704674780E+03   -0.10374E-03   -0.98697E-04 10080   0.151E-03-0.454E-04
CGA:   6    -0.378704689563E+03   -0.14784E-04   -0.20076E-04 10080   0.392E-04 0.327E-04
CGA:   7    -0.378704695991E+03   -0.64271E-05   -0.81818E-05 10080   0.160E-04 0.135E-04
  96 F= -.37870470E+03 E0= -.37870468E+03  d E =-.381767E-04  mag=     8.0000
       N       E                     dE             d eps       ncg     rms          ort
SDA:   1    -0.378698776576E+03    0.59130E-02    0.00000E+00 10080   0.180E-01 0.000E+00
CGA:   2    -0.378703165429E+03   -0.43889E-02   -0.43720E-02 10080   0.987E-02-0.320E-03
CGA:   3    -0.378704607605E+03   -0.14422E-02   -0.14708E-02 10080   0.249E-02 0.250E-03
CGA:   4    -0.378705098886E+03   -0.49128E-03   -0.49162E-03 10080   0.387E-03 0.422E-05
CGA:   5    -0.378705194220E+03   -0.95334E-04   -0.93862E-04 10080   0.127E-03-0.378E-04
CGA:   6    -0.378705207692E+03   -0.13472E-04   -0.16544E-04 10080   0.381E-04 0.230E-04
CGA:   7    -0.378705212530E+03   -0.48378E-05   -0.66251E-05 10080   0.141E-04 0.143E-04
  97 F= -.37870521E+03 E0= -.37870520E+03  d E =-.516539E-03  mag=     8.0000
       N       E                     dE             d eps       ncg     rms          ort
SDA:   1    -0.378662512292E+03    0.42695E-01    0.00000E+00 10080   0.108E+00 0.000E+00
CGA:   2    -0.378696479817E+03   -0.33968E-01   -0.33980E-01 10080   0.375E-01-0.250E-03
CGA:   3    -0.378703531053E+03   -0.70512E-02   -0.70713E-02 10080   0.121E-01 0.335E-03
CGA:   4    -0.378705222361E+03   -0.16913E-02   -0.16767E-02 10080   0.232E-02-0.109E-03
CGA:   5    -0.378705679878E+03   -0.45752E-03   -0.45918E-03 10080   0.577E-03 0.326E-04
CGA:   6    -0.378705791815E+03   -0.11194E-03   -0.11174E-03 10080   0.241E-03-0.219E-05
CGA:   7    -0.378705833387E+03   -0.41571E-04   -0.43157E-04 10080   0.818E-04 0.232E-04
CGA:   8    -0.378705849581E+03   -0.16194E-04   -0.17724E-04 10080   0.306E-04 0.317E-04
CGA:   9    -0.378705858842E+03   -0.92611E-05   -0.95823E-05 10080   0.172E-04 0.185E-04
  98 F= -.37870586E+03 E0= -.37870585E+03  d E =-.646312E-03  mag=     8.0000
       N       E                     dE             d eps       ncg     rms          ort
SDA:   1    -0.378652252708E+03    0.53597E-01    0.00000E+00 10080   0.125E+00 0.000E+00
CGA:   2    -0.378694798877E+03   -0.42546E-01   -0.42670E-01 10080   0.479E-01-0.122E-02
CGA:   3    -0.378702085641E+03   -0.72868E-02   -0.73265E-02 10080   0.157E-01 0.513E-03
CGA:   4    -0.378704532697E+03   -0.24471E-02   -0.24572E-02 10080   0.259E-02 0.141E-03
CGA:   5    -0.378705117561E+03   -0.58486E-03   -0.58213E-03 10080   0.946E-03-0.184E-03
CGA:   6    -0.378705230654E+03   -0.11309E-03   -0.12411E-03 10080   0.261E-03 0.117E-03
CGA:   7    -0.378705275130E+03   -0.44476E-04   -0.49672E-04 10080   0.845E-04 0.830E-04
CGA:   8    -0.378705308289E+03   -0.33158E-04   -0.34691E-04 10080   0.109E-03-0.184E-04
CGA:   9    -0.378705315215E+03   -0.69259E-05   -0.89092E-05 10080   0.566E-04 0.157E-04
  99 F= -.37870532E+03 E0= -.37870530E+03  d E =0.543627E-03  mag=     8.0000
       N       E                     dE             d eps       ncg     rms          ort
SDA:   1    -0.378689356990E+03    0.15951E-01    0.00000E+00 10080   0.410E-01 0.000E+00
CGA:   2    -0.378701788227E+03   -0.12431E-01   -0.12370E-01 10080   0.182E-01 0.763E-03
CGA:   3    -0.378704612860E+03   -0.28246E-02   -0.28037E-02 10080   0.633E-02-0.273E-03
CGA:   4    -0.378705668112E+03   -0.10553E-02   -0.10547E-02 10080   0.927E-03 0.208E-05
CGA:   5    -0.378705859659E+03   -0.19155E-03   -0.19141E-03 10080   0.336E-03-0.124E-04
CGA:   6    -0.378705918800E+03   -0.59141E-04   -0.57783E-04 10080   0.125E-03-0.310E-04
CGA:   7    -0.378705946428E+03   -0.27627E-04   -0.28294E-04 10080   0.563E-04-0.193E-04
CGA:   8    -0.378705957236E+03   -0.10809E-04   -0.10857E-04 10080   0.252E-04-0.396E-05
CGA:   9    -0.378705963215E+03   -0.59791E-05   -0.63914E-05 10080   0.204E-04-0.730E-05
 100 F= -.37870596E+03 E0= -.37870595E+03  d E =-.648001E-03  mag=     8.0000
       N       E                     dE             d eps       ncg     rms          ort
SDA:   1    -0.378698984033E+03    0.69732E-02    0.00000E+00 10080   0.223E-01 0.000E+00
CGA:   2    -0.378702666969E+03   -0.36829E-02   -0.36788E-02 10080   0.148E-01 0.183E-04
CGA:   3    -0.378705452880E+03   -0.27859E-02   -0.27809E-02 10080   0.214E-02-0.109E-03
CGA:   4    -0.378705907536E+03   -0.45466E-03   -0.45512E-03 10080   0.393E-03 0.449E-04
CGA:   5    -0.378705986717E+03   -0.79181E-04   -0.78674E-04 10080   0.130E-03-0.178E-04
CGA:   6    -0.378706005464E+03   -0.18746E-04   -0.19639E-04 10080   0.302E-04 0.140E-04
CGA:   7    -0.378706014918E+03   -0.94542E-05   -0.12122E-04 10080   0.367E-04-0.186E-04
 101 F= -.37870601E+03 E0= -.37870600E+03  d E =-.517023E-04  mag=     8.0000
       N       E                     dE             d eps       ncg     rms          ort
SDA:   1    -0.378611560596E+03    0.94445E-01    0.00000E+00 10080   0.222E+00 0.000E+00
CGA:   2    -0.378688419485E+03   -0.76859E-01   -0.76996E-01 10080   0.711E-01-0.110E-02
CGA:   3    -0.378701001465E+03   -0.12582E-01   -0.12603E-01 10080   0.215E-01 0.606E-03
CGA:   4    -0.378704106283E+03   -0.31048E-02   -0.30961E-02 10080   0.455E-02-0.102E-03
CGA:   5    -0.378704941129E+03   -0.83485E-03   -0.83428E-03 10080   0.117E-02-0.949E-05
CGA:   6    -0.378705170566E+03   -0.22944E-03   -0.22934E-03 10080   0.375E-03-0.237E-05
CGA:   7    -0.378705236869E+03   -0.66303E-04   -0.67460E-04 10080   0.128E-03 0.318E-04
CGA:   8    -0.378705268696E+03   -0.31827E-04   -0.31656E-04 10080   0.565E-04 0.140E-04
CGA:   9    -0.378705279151E+03   -0.10455E-04   -0.11326E-04 10080   0.217E-04 0.247E-04
CGA:  10    -0.378705283775E+03   -0.46239E-05   -0.53061E-05 10080   0.966E-05 0.154E-04
 102 F= -.37870528E+03 E0= -.37870527E+03  d E =0.731142E-03  mag=     8.0000
       N       E                     dE             d eps       ncg     rms          ort
SDA:   1    -0.378615102007E+03    0.90177E-01    0.00000E+00 10080   0.210E+00 0.000E+00
CGA:   2    -0.378684762825E+03   -0.69661E-01   -0.69785E-01 10080   0.788E-01-0.101E-02
CGA:   3    -0.378697323679E+03   -0.12561E-01   -0.12603E-01 10080   0.258E-01 0.109E-02
CGA:   4    -0.378701312818E+03   -0.39891E-02   -0.39804E-02 10080   0.503E-02-0.149E-03
CGA:   5    -0.378702309295E+03   -0.99648E-03   -0.99503E-03 10080   0.145E-02-0.120E-03
CGA:   6    -0.378702537625E+03   -0.22833E-03   -0.23443E-03 10080   0.451E-03 0.139E-03
CGA:   7    -0.378702633484E+03   -0.95859E-04   -0.96562E-04 10080   0.150E-03 0.573E-04
CGA:   8    -0.378702685732E+03   -0.52248E-04   -0.53282E-04 10080   0.893E-04-0.944E-05
CGA:   9    -0.378702698679E+03   -0.12947E-04   -0.14091E-04 10080   0.358E-04 0.261E-04
CGA:  10    -0.378702701545E+03   -0.28664E-05   -0.53354E-05 10080   0.156E-04 0.261E-04
 103 F= -.37870270E+03 E0= -.37870269E+03  d E =0.258223E-02  mag=     8.0000
       N       E                     dE             d eps       ncg     rms          ort
SDA:   1    -0.378617832236E+03    0.84866E-01    0.00000E+00 10080   0.207E+00 0.000E+00
CGA:   2    -0.378687878522E+03   -0.70046E-01   -0.69925E-01 10080   0.704E-01 0.934E-03
CGA:   3    -0.378700402807E+03   -0.12524E-01   -0.12486E-01 10080   0.226E-01-0.110E-02
CGA:   4    -0.378703652582E+03   -0.32498E-02   -0.32605E-02 10080   0.432E-02 0.251E-03
CGA:   5    -0.378704510964E+03   -0.85838E-03   -0.85770E-03 10080   0.117E-02-0.548E-04
CGA:   6    -0.378704744913E+03   -0.23395E-03   -0.23341E-03 10080   0.525E-03-0.888E-04
CGA:   7    -0.378704834256E+03   -0.89343E-04   -0.88286E-04 10080   0.189E-03-0.402E-04
CGA:   8    -0.378704882625E+03   -0.48369E-04   -0.55198E-04 10080   0.141E-03-0.613E-04
CGA:   9    -0.378704900226E+03   -0.17601E-04   -0.37166E-04 10080   0.254E-03-0.109E-03
CGA:  10    -0.378704927580E+03   -0.27354E-04   -0.26917E-04 10080   0.444E-04-0.293E-05
CGA:  11    -0.378704936169E+03   -0.85884E-05   -0.87238E-05 10080   0.752E-05 0.864E-05
 104 F= -.37870494E+03 E0= -.37870492E+03  d E =-.223462E-02  mag=     8.0000
       N       E                     dE             d eps       ncg     rms          ort
SDA:   1    -0.378693586754E+03    0.11341E-01    0.00000E+00 10080   0.291E-01 0.000E+00
CGA:   2    -0.378701912560E+03   -0.83258E-02   -0.83058E-02 10080   0.124E-01 0.286E-03
CGA:   3    -0.378703966702E+03   -0.20541E-02   -0.20410E-02 10080   0.490E-02-0.240E-03
CGA:   4    -0.378704702348E+03   -0.73565E-03   -0.74395E-03 10080   0.707E-03 0.151E-03
CGA:   5    -0.378704864356E+03   -0.16201E-03   -0.16221E-03 10080   0.237E-03-0.184E-04
CGA:   6    -0.378704907773E+03   -0.43417E-04   -0.42805E-04 10080   0.112E-03-0.225E-04
CGA:   7    -0.378704920730E+03   -0.12957E-04   -0.14664E-04 10080   0.293E-04 0.262E-04
CGA:   8    -0.378704926538E+03   -0.58078E-05   -0.62083E-05 10080   0.180E-04 0.110E-04
 105 F= -.37870493E+03 E0= -.37870491E+03  d E =0.963042E-05  mag=     8.0000
       N       E                     dE             d eps       ncg     rms          ort
SDA:   1    -0.378698458296E+03    0.64624E-02    0.00000E+00 10080   0.159E-01 0.000E+00
CGA:   2    -0.378703586688E+03   -0.51284E-02   -0.51842E-02 10080   0.778E-02-0.457E-03
CGA:   3    -0.378704576132E+03   -0.98944E-03   -0.10129E-02 10080   0.191E-02 0.328E-03
CGA:   4    -0.378704971598E+03   -0.39547E-03   -0.39535E-03 10080   0.326E-03-0.101E-04
CGA:   5    -0.378705052666E+03   -0.81069E-04   -0.84842E-04 10080   0.151E-03-0.708E-04
CGA:   6    -0.378705063104E+03   -0.10438E-04   -0.13636E-04 10080   0.492E-04 0.336E-04
CGA:   7    -0.378705066562E+03   -0.34578E-05   -0.60364E-05 10080   0.195E-04 0.244E-04
 106 F= -.37870507E+03 E0= -.37870505E+03  d E =-.140024E-03  mag=     8.0000
