       N       E                     dE             d eps       ncg     rms          ort
DAV:   1     0.265224437156E+04    0.26522E+04   -0.14798E+05  6336   0.155E+03
DAV:   2    -0.262713472538E+03   -0.29150E+04   -0.28164E+04  6336   0.430E+02
DAV:   3    -0.511522991701E+03   -0.24881E+03   -0.24426E+03  6336   0.140E+02
DAV:   4    -0.522418852011E+03   -0.10896E+02   -0.10772E+02  6336   0.309E+01
DAV:   5    -0.523074793418E+03   -0.65594E+00   -0.65377E+00  6336   0.463E+00
SDA:   6    -0.351511476073E+03    0.17156E+03   -0.65377E+00  6336   0.564E+03 0.000E+00
CGA:   7    -0.399541374874E+03   -0.48030E+02   -0.61989E+02  6336   0.221E+03 0.194E+02
CGA:   8    -0.411008065437E+03   -0.11467E+02   -0.12663E+02  6336   0.540E+02 0.120E+01
CGA:   9    -0.412232958782E+03   -0.12249E+01   -0.27514E+01  6336   0.328E+03-0.217E+03
CGA:  10    -0.405243873457E+03    0.69891E+01   -0.24188E+02  6336   0.879E+03-0.181E+03
CGA:  11    -0.406492899534E+03   -0.12490E+01   -0.59916E+02  6336   0.227E+03-0.645E+02
CGA:  12    -0.408295679263E+03   -0.18028E+01   -0.82057E+01  6336   0.193E+03 0.462E+01
CGA:  13    -0.414252904289E+03   -0.59572E+01   -0.10194E+02  6336   0.254E+03-0.119E+03
CGA:  14    -0.410824645863E+03    0.34283E+01   -0.16152E+02  6336   0.804E+02-0.296E+02
CGA:  15    -0.414940411370E+03   -0.41158E+01   -0.42122E+01  6336   0.247E+03-0.229E+03
CGA:  16    -0.413784594033E+03    0.11558E+01   -0.15929E+02  6336   0.503E+02-0.397E+02
CGA:  17    -0.421541038147E+03   -0.77564E+01   -0.19161E+01  6336   0.160E+03-0.350E+03
CGA:  18    -0.414921075098E+03    0.66200E+01   -0.84789E+01  6336   0.162E+03-0.408E+02
CGA:  19    -0.412859742184E+03    0.20613E+01   -0.69769E+01  6336   0.459E+02-0.230E+02
CGA:  20    -0.413020541650E+03   -0.16080E+00   -0.16505E+01  6336   0.251E+03-0.480E+02
CGA:  21    -0.411696307885E+03    0.13242E+01   -0.14294E+02  6336   0.456E+02-0.382E+02
CGA:  22    -0.417989316493E+03   -0.62930E+01   -0.10975E+01  6336   0.364E+03-0.511E+03
CGA:  23    -0.417620215844E+03    0.36910E+00   -0.20696E+02  6336   0.301E+03 0.800E+02
CGA:  24    -0.410759475554E+03    0.68607E+01   -0.19202E+02  6336   0.963E+02-0.276E+02
CGA:  25    -0.421045935421E+03   -0.10286E+02   -0.49300E+01  6336   0.144E+02-0.279E+02
CGA:  26    -0.421275530275E+03   -0.22959E+00   -0.11344E+00  6336   0.141E+02 0.105E+02
CGA:  27    -0.421593592103E+03   -0.31806E+00   -0.15659E+00  6336   0.137E+02 0.148E+02
CGA:  28    -0.421885391441E+03   -0.29180E+00   -0.13256E+00  6336   0.163E+02 0.174E+02
CGA:  29    -0.422497138262E+03   -0.61175E+00   -0.16489E+00  6336   0.504E+02 0.597E+02
CGA:  30    -0.423275125139E+03   -0.77799E+00   -0.10305E+01  6336   0.979E+02-0.898E+02
CGA:  31    -0.421034432500E+03    0.22407E+01   -0.27393E+01  6336   0.268E+03-0.102E+03
CGA:  32    -0.417894174456E+03    0.31403E+01   -0.10112E+02  6336   0.524E+02-0.327E+02
CGA:  33    -0.424291213665E+03   -0.63970E+01   -0.98158E+00  6336   0.916E+01-0.357E+02
CGA:  34    -0.424407457006E+03   -0.11624E+00   -0.13918E+00  6336   0.214E+01-0.221E+01
CGA:  35    -0.424434997249E+03   -0.27540E-01   -0.32218E-01  6336   0.204E+01-0.236E+00
CGA:  36    -0.424548061223E+03   -0.11306E+00   -0.11340E+00  6336   0.417E+01-0.480E-01
CGA:  37    -0.424756454055E+03   -0.20839E+00   -0.21786E+00  6336   0.167E+01 0.164E-01
CGA:  38    -0.424801060383E+03   -0.44606E-01   -0.46588E-01  6336   0.540E+00-0.760E-01
CGA:  39    -0.424824404611E+03   -0.23344E-01   -0.24051E-01  6336   0.476E+00 0.384E-02
CGA:  40    -0.424857829736E+03   -0.33425E-01   -0.33402E-01  6336   0.667E+00 0.208E-02
CGA:  41    -0.424891558001E+03   -0.33728E-01   -0.34011E-01  6336   0.355E+00-0.160E-01
CGA:  42    -0.424903585003E+03   -0.12027E-01   -0.12163E-01  6336   0.128E+00-0.150E-01
CGA:  43    -0.424909018095E+03   -0.54331E-02   -0.55018E-02  6336   0.849E-01-0.269E-03
CGA:  44    -0.424915606708E+03   -0.65886E-02   -0.67169E-02  6336   0.161E+00-0.104E-01
CGA:  45    -0.424924984340E+03   -0.93776E-02   -0.93820E-02  6336   0.837E-01-0.993E-02
CGA:  46    -0.424927585855E+03   -0.26015E-02   -0.24968E-02  6336   0.214E-01-0.583E-02
CGA:  47    -0.424929229140E+03   -0.16433E-02   -0.18051E-02  6336   0.641E-01-0.619E-02
CGA:  48    -0.424933481677E+03   -0.42525E-02   -0.65380E-02  6336   0.606E-01-0.287E-01
CGA:  49    -0.424934242135E+03   -0.76046E-03   -0.68770E-03  6336   0.167E-01-0.177E-02
CGA:  50    -0.424935010006E+03   -0.76787E-03   -0.78121E-03  6336   0.339E-01 0.844E-03
CGA:  51    -0.424936955523E+03   -0.19455E-02   -0.19461E-02  6336   0.232E-01 0.651E-03
CGA:  52    -0.424938096671E+03   -0.11411E-02   -0.10396E-02  6336   0.293E-01-0.512E-02
CGA:  53    -0.424939235844E+03   -0.11392E-02   -0.99354E-03  6336   0.129E-01-0.761E-02
CGA:  54    -0.424939692111E+03   -0.45627E-03   -0.44486E-03  6336   0.236E-01-0.515E-03
CGA:  55    -0.424941476527E+03   -0.17844E-02   -0.18215E-02  6336   0.296E-01-0.212E-03
CGA:  56    -0.424942671225E+03   -0.11947E-02   -0.12109E-02  6336   0.315E-01 0.354E-03
CGA:  57    -0.424944338962E+03   -0.16677E-02   -0.16955E-02  6336   0.793E-02 0.136E-03
CGA:  58    -0.424945026478E+03   -0.68752E-03   -0.87861E-03  6336   0.335E-01-0.383E-02
CGA:  59    -0.424945491055E+03   -0.46458E-03   -0.37916E-03  6336   0.272E-01-0.104E-02
CGA:  60    -0.424945886686E+03   -0.39563E-03   -0.40904E-03  6336   0.133E-01 0.937E-03
CGA:  61    -0.424946135384E+03   -0.24870E-03   -0.34211E-03  6336   0.171E-01 0.282E-02
CGA:  62    -0.424946435103E+03   -0.29972E-03   -0.45945E-03  6336   0.887E-02 0.510E-02
CGA:  63    -0.424946544951E+03   -0.10985E-03   -0.18337E-03  6336   0.342E-02 0.178E-02
SDA:  64    -0.424946708386E+03   -0.16344E-03   -0.17162E-03  6336   0.916E-02 0.655E-03
CGA:  65    -0.424946970827E+03   -0.26244E-03   -0.24322E-03  6336   0.359E-02-0.731E-03
CGA:  66    -0.424946561162E+03    0.40966E-03   -0.34144E-03  6336   0.462E-01-0.536E-02
CGA:  67    -0.424947743114E+03   -0.11820E-02   -0.12966E-02  6336   0.145E-01 0.221E-02
CGA:  68    -0.424948099412E+03   -0.35630E-03   -0.46674E-03  6336   0.102E-02 0.247E-02
CGA:  69    -0.424948113334E+03   -0.13922E-04   -0.39011E-04  6336   0.910E-03 0.454E-03
CGA:  70    -0.424948170910E+03   -0.57576E-04   -0.76725E-04  6336   0.987E-03 0.694E-03
CGA:  71    -0.424948344093E+03   -0.17318E-03    0.11403E-02  6336   0.173E-02-0.153E-03
CGA:  72    -0.424948471779E+03   -0.12769E-03   -0.13733E-03  6336   0.687E-02-0.105E-02
CGA:  73    -0.424948574940E+03   -0.10316E-03   -0.15434E-03  6336   0.148E-02 0.751E-03
CGA:  74    -0.424948573979E+03    0.96165E-06   -0.41580E-04  6336   0.528E-03 0.772E-03
CGA:  75    -0.424948582285E+03   -0.83062E-05   -0.18600E-04  6336   0.444E-03 0.235E-03
CGA:  76    -0.424948610940E+03   -0.28655E-04   -0.37271E-04  6336   0.387E-03 0.459E-03
CGA:  77    -0.424948682640E+03   -0.71700E-04    0.67710E-04  6336   0.477E-03 0.182E-03
CGA:  78    -0.424948710139E+03   -0.27499E-04   -0.17696E-03  6336   0.150E-01-0.851E-03
CGA:  79    -0.424948967269E+03   -0.25713E-03   -0.27627E-03  6336   0.858E-03 0.241E-03
CGA:  80    -0.424948968004E+03   -0.73514E-06   -0.25024E-04  6336   0.310E-03 0.468E-03
   1 F= -.42494897E+03 E0= -.42493976E+03  d E =-.424949E+03  mag=    10.0000
       N       E                     dE             d eps       ncg     rms          ort
SDA:   1    -0.424950745541E+03   -0.17783E-02    0.00000E+00  6336   0.121E+00 0.000E+00
CGA:   2    -0.424953105285E+03   -0.23597E-02   -0.23304E-02  6336   0.133E-01-0.101E-02
CGA:   3    -0.424954601478E+03   -0.14962E-02   -0.25313E-02  6336   0.393E-01-0.852E-02
CGA:   4    -0.424955970289E+03   -0.13688E-02   -0.15206E-02  6336   0.105E-01 0.571E-02
CGA:   5    -0.424956203291E+03   -0.23300E-03   -0.30520E-03  6336   0.197E-02 0.140E-02
CGA:   6    -0.424956449377E+03   -0.24609E-03   -0.22999E-03  6336   0.286E-02 0.572E-03
CGA:   7    -0.424956925001E+03   -0.47562E-03   -0.94184E-03  6336   0.313E-02-0.260E-02
CGA:   8    -0.424957083562E+03   -0.15856E-03   -0.14758E-03  6336   0.233E-02-0.314E-03
CGA:   9    -0.424957163149E+03   -0.79587E-04   -0.92101E-04  6336   0.174E-02 0.318E-03
CGA:  10    -0.424957233330E+03   -0.70181E-04   -0.91035E-04  6336   0.395E-03 0.599E-03
CGA:  11    -0.424957277268E+03   -0.43939E-04   -0.46767E-04  6336   0.247E-02-0.325E-03
CGA:  12    -0.424957318845E+03   -0.41577E-04   -0.44683E-04  6336   0.173E-03 0.448E-04
CGA:  13    -0.424957345927E+03   -0.27082E-04   -0.33662E-04  6336   0.773E-03-0.567E-04
CGA:  14    -0.424957369683E+03   -0.23756E-04   -0.26819E-04  6336   0.758E-03 0.970E-04
CGA:  15    -0.424957399253E+03   -0.29570E-04   -0.30674E-04  6336   0.245E-03 0.305E-04
CGA:  16    -0.424957466555E+03   -0.67301E-04    0.14903E-04  6336   0.305E-03 0.454E-05
CGA:  17    -0.424957538028E+03   -0.71473E-04    0.26636E-04  6336   0.585E-03-0.277E-04
CGA:  18    -0.424957571000E+03   -0.32973E-04   -0.33738E-04  6336   0.670E-03 0.498E-04
CGA:  19    -0.424957568749E+03    0.22510E-05   -0.17398E-04  6336   0.295E-03 0.362E-03
   2 F= -.42495757E+03 E0= -.42494839E+03  d E =-.860075E-02  mag=    10.0000
       N       E                     dE             d eps       ncg     rms          ort
SDA:   1    -0.424757443082E+03    0.20013E+00    0.00000E+00  6336   0.998E+01 0.000E+00
CGA:   2    -0.424937210841E+03   -0.17977E+00   -0.20338E+00  6336   0.414E+00-0.171E+01
CGA:   3    -0.424947602918E+03   -0.10392E-01   -0.10055E-01  6336   0.951E-01-0.101E-02
CGA:   4    -0.424960729667E+03   -0.13127E-01   -0.13404E-01  6336   0.275E+00-0.401E-02
CGA:   5    -0.424971010958E+03   -0.10281E-01   -0.10268E-01  6336   0.381E-01-0.796E-03
CGA:   6    -0.424972631006E+03   -0.16200E-02   -0.16954E-02  6336   0.203E-01 0.329E-02
CGA:   7    -0.424974458528E+03   -0.18275E-02   -0.18201E-02  6336   0.284E-01 0.468E-03
CGA:   8    -0.424975732671E+03   -0.12741E-02   -0.12281E-02  6336   0.573E-02-0.166E-02
CGA:   9    -0.424976128206E+03   -0.39554E-03   -0.43365E-03  6336   0.119E-01-0.313E-02
CGA:  10    -0.424976310125E+03   -0.18192E-03   -0.21893E-03  6336   0.128E-02 0.642E-03
CGA:  11    -0.424976347065E+03   -0.36940E-04   -0.57024E-04  6336   0.859E-03 0.839E-03
CGA:  12    -0.424976404548E+03   -0.57483E-04   -0.57663E-04  6336   0.216E-02-0.932E-04
CGA:  13    -0.424976536458E+03   -0.13191E-03   -0.13096E-03  6336   0.774E-03 0.329E-03
CGA:  14    -0.424976548379E+03   -0.11921E-04   -0.20303E-04  6336   0.305E-03 0.194E-03
CGA:  15    -0.424976562895E+03   -0.14516E-04   -0.16749E-04  6336   0.289E-03 0.116E-03
CGA:  16    -0.424976258412E+03    0.30448E-03   -0.16767E-03  6336   0.253E-01-0.142E-02
CGA:  17    -0.424976680131E+03   -0.42172E-03   -0.44659E-03  6336   0.719E-03 0.233E-03
CGA:  18    -0.424976701872E+03   -0.21741E-04   -0.32839E-04  6336   0.228E-03 0.176E-03
CGA:  19    -0.424976701854E+03    0.18175E-07   -0.11246E-04  6336   0.158E-03 0.171E-03
CGA:  20    -0.424976711679E+03   -0.98247E-05   -0.10433E-04  6336   0.247E-03 0.163E-04
CGA:  21    -0.424976739451E+03   -0.27772E-04   -0.28331E-04  6336   0.713E-03-0.157E-03
CGA:  22    -0.424976749298E+03   -0.98473E-05   -0.14058E-04  6336   0.880E-04 0.521E-04
   3 F= -.42497675E+03 E0= -.42496759E+03  d E =-.191805E-01  mag=    10.0000
       N       E                     dE             d eps       ncg     rms          ort
SDA:   1    -0.424814708983E+03    0.16203E+00    0.00000E+00  6336   0.676E+00 0.000E+00
CGA:   2    -0.424842301473E+03   -0.27592E-01   -0.27974E-01  6336   0.860E+00-0.603E-02
CGA:   3    -0.424956704586E+03   -0.11440E+00   -0.11459E+00  6336   0.145E+00-0.418E-02
CGA:   4    -0.424972679024E+03   -0.15974E-01   -0.16032E-01  6336   0.190E+00-0.772E-03
CGA:   5    -0.424984530333E+03   -0.11851E-01   -0.11786E-01  6336   0.487E-01-0.603E-02
CGA:   6    -0.424986096013E+03   -0.15657E-02   -0.14513E-02  6336   0.278E-01-0.164E-02
CGA:   7    -0.424989223868E+03   -0.31279E-02   -0.31516E-02  6336   0.111E-01-0.866E-03
CGA:   8    -0.424989813672E+03   -0.58980E-03   -0.63075E-03  6336   0.535E-02 0.136E-02
CGA:   9    -0.424989960598E+03   -0.14693E-03   -0.20325E-03  6336   0.282E-02 0.103E-02
CGA:  10    -0.424990256216E+03   -0.29562E-03   -0.29444E-03  6336   0.219E-02 0.880E-03
CGA:  11    -0.424990456428E+03   -0.20021E-03   -0.55107E-03  6336   0.890E-02-0.329E-02
CGA:  12    -0.424990645342E+03   -0.18891E-03   -0.26945E-03  6336   0.193E-02 0.139E-02
CGA:  13    -0.424990666379E+03   -0.21037E-04   -0.63724E-04  6336   0.835E-03 0.723E-03
CGA:  14    -0.424990716102E+03   -0.49723E-04   -0.62918E-04  6336   0.632E-03 0.433E-03
CGA:  15    -0.424990508645E+03    0.20746E-03   -0.13918E-03  6336   0.266E-01-0.254E-02
CGA:  16    -0.424990907835E+03   -0.39919E-03   -0.46668E-03  6336   0.927E-03 0.574E-03
CGA:  17    -0.424990899437E+03    0.83980E-05   -0.22568E-04  6336   0.312E-03 0.497E-03
   4 F= -.42499090E+03 E0= -.42498175E+03  d E =-.141501E-01  mag=    10.0000
       N       E                     dE             d eps       ncg     rms          ort
SDA:   1    -0.424980901304E+03    0.10007E-01    0.00000E+00  6336   0.890E-01 0.000E+00
CGA:   2    -0.424984558642E+03   -0.36573E-02   -0.34616E-02  6336   0.689E-01-0.647E-02
CGA:   3    -0.424988093146E+03   -0.35345E-02   -0.33924E-02  6336   0.341E-01-0.595E-02
CGA:   4    -0.424991683852E+03   -0.35907E-02   -0.34821E-02  6336   0.150E-01 0.321E-02
CGA:   5    -0.424992270197E+03   -0.58635E-03   -0.60624E-03  6336   0.757E-02 0.495E-03
CGA:   6    -0.424992738654E+03   -0.46846E-03   -0.46000E-03  6336   0.801E-02-0.481E-03
CGA:   7    -0.424993287847E+03   -0.54919E-03   -0.54969E-03  6336   0.129E-02 0.174E-03
CGA:   8    -0.424993384257E+03   -0.96410E-04   -0.90077E-04  6336   0.335E-02-0.807E-03
CGA:   9    -0.424993435508E+03   -0.51251E-04   -0.60755E-04  6336   0.309E-03 0.160E-03
CGA:  10    -0.424993454428E+03   -0.18920E-04   -0.20458E-04  6336   0.256E-03 0.161E-03
CGA:  11    -0.424993462795E+03   -0.83670E-05   -0.96572E-05  6336   0.224E-03 0.370E-04
CGA:  12    -0.424993476132E+03   -0.13337E-04   -0.14876E-04  6336   0.145E-03 0.123E-03
CGA:  13    -0.424993156657E+03    0.31947E-03   -0.17628E-03  6336   0.135E-01-0.101E-02
CGA:  14    -0.424993504080E+03   -0.34742E-03   -0.38896E-03  6336   0.203E-03 0.145E-02
CGA:  15    -0.424993506300E+03   -0.22197E-05   -0.58261E-05  6336   0.312E-04 0.385E-04
   5 F= -.42499351E+03 E0= -.42498436E+03  d E =-.260686E-02  mag=    10.0000
       N       E                     dE             d eps       ncg     rms          ort
SDA:   1    -0.422863478108E+03    0.21300E+01    0.00000E+00  6336   0.795E+01 0.000E+00
CGA:   2    -0.423297314020E+03   -0.43384E+00   -0.50955E+00  6336   0.175E+02-0.780E+00
CGA:   3    -0.424471408949E+03   -0.11741E+01   -0.11734E+01  6336   0.385E+01-0.335E-01
CGA:   4    -0.424607097780E+03   -0.13569E+00   -0.14859E+00  6336   0.369E+01-0.364E+00
CGA:   5    -0.424814288156E+03   -0.20719E+00   -0.20180E+00  6336   0.203E+01 0.274E-01
CGA:   6    -0.424937725493E+03   -0.12344E+00   -0.10356E+00  6336   0.358E+00 0.258E+00
CGA:   7    -0.424960088673E+03   -0.22363E-01   -0.22348E-01  6336   0.494E+00-0.904E-02
CGA:   8    -0.424984165121E+03   -0.24076E-01   -0.23769E-01  6336   0.176E+00-0.134E-01
CGA:   9    -0.424997196961E+03   -0.13032E-01   -0.12996E-01  6336   0.104E+00 0.776E-02
CGA:  10    -0.424999414281E+03   -0.22173E-02   -0.24966E-02  6336   0.264E-01 0.349E-02
CGA:  11    -0.425002685915E+03   -0.32716E-02   -0.32313E-02  6336   0.534E-01 0.177E-02
CGA:  12    -0.425005553905E+03   -0.28680E-02   -0.27420E-02  6336   0.298E-01-0.294E-02
CGA:  13    -0.425006376849E+03   -0.82294E-03   -0.75432E-03  6336   0.506E-02-0.101E-02
CGA:  14    -0.425007073144E+03   -0.69630E-03   -0.63703E-03  6336   0.119E-01 0.146E-02
CGA:  15    -0.425007663434E+03   -0.59029E-03   -0.60562E-03  6336   0.588E-02 0.178E-03
CGA:  16    -0.425008186359E+03   -0.52293E-03   -0.52102E-03  6336   0.639E-02-0.114E-02
CGA:  17    -0.425008414741E+03   -0.22838E-03   -0.19990E-03  6336   0.237E-02-0.574E-03
CGA:  18    -0.425008557578E+03   -0.14284E-03   -0.15507E-03  6336   0.143E-02 0.839E-03
CGA:  19    -0.425008772787E+03   -0.21521E-03   -0.21219E-03  6336   0.333E-02 0.121E-03
CGA:  20    -0.425008918485E+03   -0.14570E-03   -0.15151E-03  6336   0.123E-02 0.119E-03
CGA:  21    -0.425009017100E+03   -0.98615E-04   -0.94663E-04  6336   0.885E-03-0.378E-03
CGA:  22    -0.425009126293E+03   -0.10919E-03    0.44384E-03  6336   0.663E-03 0.306E-04
CGA:  23    -0.425009142152E+03   -0.15859E-04   -0.29423E-04  6336   0.447E-03 0.330E-03
CGA:  24    -0.425009141843E+03    0.30927E-06   -0.20041E-04  6336   0.182E-03 0.391E-03
CGA:  25    -0.425009167404E+03   -0.25562E-04   -0.21936E-04  6336   0.245E-03 0.888E-04
CGA:  26    -0.425009196176E+03   -0.28772E-04   -0.28736E-04  6336   0.569E-03-0.135E-04
CGA:  27    -0.425009223545E+03   -0.27369E-04   -0.25337E-04  6336   0.269E-03-0.601E-04
CGA:  28    -0.425009223373E+03    0.17199E-06   -0.46912E-05  6336   0.146E-03 0.807E-04
   6 F= -.42500922E+03 E0= -.42500003E+03  d E =-.157171E-01  mag=    10.0000
       N       E                     dE             d eps       ncg     rms          ort
SDA:   1    -0.424796731269E+03    0.21249E+00    0.00000E+00  6336   0.896E+00 0.000E+00
CGA:   2    -0.424832371141E+03   -0.35640E-01   -0.35770E-01  6336   0.105E+01-0.378E-02
CGA:   3    -0.424972881864E+03   -0.14051E+00   -0.14123E+00  6336   0.268E+00-0.117E-01
CGA:   4    -0.424991236402E+03   -0.18355E-01   -0.18274E-01  6336   0.220E+00 0.905E-03
CGA:   5    -0.425013011475E+03   -0.21775E-01   -0.21649E-01  6336   0.265E-01 0.472E-02
CGA:   6    -0.425016242123E+03   -0.32306E-02   -0.30900E-02  6336   0.389E-01 0.378E-02
CGA:   7    -0.425017869945E+03   -0.16278E-02   -0.16022E-02  6336   0.176E-01-0.987E-03
CGA:   8    -0.425019163900E+03   -0.12940E-02   -0.12919E-02  6336   0.989E-02-0.358E-02
CGA:   9    -0.425019501522E+03   -0.33762E-03   -0.29740E-03  6336   0.566E-02-0.107E-02
CGA:  10    -0.425019892573E+03   -0.39105E-03   -0.38752E-03  6336   0.171E-02 0.122E-02
CGA:  11    -0.425020038661E+03   -0.14609E-03   -0.14706E-03  6336   0.269E-02 0.292E-03
CGA:  12    -0.425020206214E+03   -0.16755E-03   -0.17265E-03  6336   0.112E-02 0.263E-03
CGA:  13    -0.425020297953E+03   -0.91739E-04   -0.12556E-03  6336   0.402E-02-0.117E-02
CGA:  14    -0.425020346564E+03   -0.48611E-04   -0.80480E-04  6336   0.597E-03 0.575E-03
CGA:  15    -0.425020349923E+03   -0.33596E-05   -0.17319E-04  6336   0.294E-03 0.304E-03
CGA:  16    -0.425020380430E+03   -0.30507E-04   -0.43490E-04  6336   0.242E-02-0.167E-03
CGA:  17    -0.425020411812E+03   -0.31382E-04   -0.40718E-04  6336   0.116E-03 0.154E-03
CGA:  18    -0.425020422340E+03   -0.10528E-04   -0.10202E-04  6336   0.294E-03 0.270E-04
CGA:  19    -0.425020223845E+03    0.19849E-03   -0.12520E-03  6336   0.146E-01-0.118E-02
CGA:  20    -0.425020466283E+03   -0.24244E-03   -0.26953E-03  6336   0.979E-03 0.490E-03
CGA:  21    -0.425020491784E+03   -0.25502E-04   -0.36551E-04  6336   0.259E-03 0.246E-03
CGA:  22    -0.425020492219E+03   -0.43427E-06   -0.94643E-05  6336   0.181E-03 0.180E-03
   7 F= -.42502049E+03 E0= -.42501132E+03  d E =-.112688E-01  mag=    10.0000
       N       E                     dE             d eps       ncg     rms          ort
SDA:   1    -0.424953911915E+03    0.66580E-01    0.00000E+00  6336   0.247E+00 0.000E+00
CGA:   2    -0.424966176261E+03   -0.12264E-01   -0.12470E-01  6336   0.386E+00 0.487E-02
CGA:   3    -0.425001953814E+03   -0.35778E-01   -0.35663E-01  6336   0.127E+00 0.605E-02
CGA:   4    -0.425009218746E+03   -0.72649E-02   -0.72585E-02  6336   0.638E-01-0.609E-02
CGA:   5    -0.425016659291E+03   -0.74405E-02   -0.75510E-02  6336   0.403E-01-0.210E-02
CGA:   6    -0.425017653658E+03   -0.99437E-03   -0.10650E-02  6336   0.141E-01 0.146E-02
CGA:   7    -0.425018451362E+03   -0.79770E-03   -0.82344E-03  6336   0.490E-02 0.158E-02
CGA:   8    -0.425018993005E+03   -0.54164E-03   -0.53129E-03  6336   0.599E-02 0.423E-03
CGA:   9    -0.425019252876E+03   -0.25987E-03   -0.23935E-03  6336   0.278E-02-0.551E-03
CGA:  10    -0.425019434300E+03   -0.18142E-03   -0.17764E-03  6336   0.362E-02-0.204E-02
CGA:  11    -0.425019473236E+03   -0.38935E-04   -0.78340E-04  6336   0.772E-03 0.784E-03
CGA:  12    -0.425019474355E+03   -0.11188E-05   -0.22346E-04  6336   0.397E-03 0.466E-03
CGA:  13    -0.425019508345E+03   -0.33990E-04   -0.33557E-04  6336   0.935E-03 0.242E-04
CGA:  14    -0.425019542778E+03   -0.34434E-04   -0.41417E-04  6336   0.217E-03 0.264E-03
CGA:  15    -0.425019566068E+03   -0.23289E-04   -0.27415E-04  6336   0.585E-03-0.130E-03
CGA:  16    -0.425019597531E+03   -0.31463E-04   -0.22659E-04  6336   0.441E-03-0.300E-03
CGA:  17    -0.425019599415E+03   -0.18838E-05   -0.68041E-05  6336   0.590E-04 0.939E-04
   8 F= -.42501960E+03 E0= -.42501039E+03  d E =0.892804E-03  mag=    10.0000
       N       E                     dE             d eps       ncg     rms          ort
SDA:   1    -0.424996626995E+03    0.22971E-01    0.00000E+00  6336   0.149E+00 0.000E+00
CGA:   2    -0.425000499398E+03   -0.38724E-02   -0.39571E-02  6336   0.791E-01 0.137E-02
CGA:   3    -0.425015683551E+03   -0.15184E-01   -0.15048E-01  6336   0.220E-01 0.107E-02
CGA:   4    -0.425018441061E+03   -0.27575E-02   -0.30281E-02  6336   0.477E-01-0.389E-02
CGA:   5    -0.425019531750E+03   -0.10907E-02   -0.11661E-02  6336   0.165E-01 0.171E-02
CGA:   6    -0.425019908506E+03   -0.37676E-03   -0.47642E-03  6336   0.473E-02 0.292E-02
CGA:   7    -0.425020023586E+03   -0.11508E-03   -0.15727E-03  6336   0.323E-02 0.109E-02
CGA:   8    -0.425020207625E+03   -0.18404E-03   -0.19720E-03  6336   0.230E-02 0.913E-03
CGA:   9    -0.425020358976E+03   -0.15135E-03   -0.14043E-03  6336   0.328E-02-0.690E-03
CGA:  10    -0.425020503675E+03   -0.14470E-03   -0.12539E-03  6336   0.227E-02-0.241E-02
CGA:  11    -0.425020548514E+03   -0.44839E-04   -0.64501E-04  6336   0.613E-03 0.589E-03
CGA:  12    -0.425020560216E+03   -0.11702E-04   -0.23605E-04  6336   0.399E-03 0.397E-03
CGA:  13    -0.425020350795E+03    0.20942E-03   -0.11958E-03  6336   0.111E-01-0.116E-02
CGA:  14    -0.425020607389E+03   -0.25659E-03   -0.31135E-03  6336   0.414E-03 0.128E-02
CGA:  15    -0.425020613635E+03   -0.62458E-05   -0.11685E-04  6336   0.121E-03 0.699E-04
CGA:  16    -0.425020623058E+03   -0.94230E-05   -0.10378E-04  6336   0.150E-03 0.364E-04
CGA:  17    -0.425020663466E+03   -0.40409E-04    0.18844E-03  6336   0.590E-04-0.840E-04
CGA:  18    -0.425020661761E+03    0.17052E-05   -0.10130E-05  6336   0.243E-04 0.334E-04
   9 F= -.42502066E+03 E0= -.42501143E+03  d E =-.106235E-02  mag=    10.0000
       N       E                     dE             d eps       ncg     rms          ort
SDA:   1    -0.423233511666E+03    0.17872E+01    0.00000E+00  6336   0.516E+01 0.000E+00
CGA:   2    -0.423792606102E+03   -0.55909E+00   -0.55052E+00  6336   0.140E+02 0.355E+00
CGA:   3    -0.424529703439E+03   -0.73710E+00   -0.74905E+00  6336   0.358E+01-0.329E+00
CGA:   4    -0.424739221387E+03   -0.20952E+00   -0.20661E+00  6336   0.221E+01-0.305E-01
CGA:   5    -0.424864232896E+03   -0.12501E+00   -0.12512E+00  6336   0.189E+01-0.132E-01
CGA:   6    -0.424940836431E+03   -0.76604E-01   -0.78315E-01  6336   0.495E+00 0.129E-03
CGA:   7    -0.424970583103E+03   -0.29747E-01   -0.29690E-01  6336   0.263E+00 0.779E-02
CGA:   8    -0.424979908625E+03   -0.93255E-02   -0.95442E-02  6336   0.134E+00 0.365E-02
CGA:   9    -0.424994442796E+03   -0.14534E-01   -0.14617E-01  6336   0.917E-01-0.324E-02
CGA:  10    -0.424997323738E+03   -0.28809E-02   -0.27185E-02  6336   0.254E-01-0.124E-02
CGA:  11    -0.424999188261E+03   -0.18645E-02   -0.18415E-02  6336   0.357E-01-0.418E-02
CGA:  12    -0.425001505436E+03   -0.23172E-02   -0.23166E-02  6336   0.214E-01-0.497E-03
CGA:  13    -0.425002073845E+03   -0.56841E-03   -0.61503E-03  6336   0.394E-02 0.793E-03
CGA:  14    -0.425002405179E+03   -0.33133E-03   -0.32634E-03  6336   0.486E-02 0.142E-02
CGA:  15    -0.425003011517E+03   -0.60634E-03   -0.61237E-03  6336   0.750E-02-0.390E-03
CGA:  16    -0.425003238668E+03   -0.22715E-03   -0.22378E-03  6336   0.209E-02-0.753E-04
CGA:  17    -0.425003358070E+03   -0.11940E-03   -0.11846E-03  6336   0.144E-02-0.409E-04
CGA:  18    -0.425003469280E+03   -0.11121E-03   -0.15326E-03  6336   0.971E-02-0.124E-02
CGA:  19    -0.425003628310E+03   -0.15903E-03   -0.17575E-03  6336   0.741E-03 0.305E-03
CGA:  20    -0.425003660738E+03   -0.32428E-04   -0.38658E-04  6336   0.389E-03 0.280E-03
CGA:  21    -0.425003680096E+03   -0.19358E-04   -0.25100E-04  6336   0.435E-03 0.228E-03
CGA:  22    -0.425003701558E+03   -0.21462E-04   -0.19322E-04  6336   0.622E-03-0.838E-04
CGA:  23    -0.425003786048E+03   -0.84490E-04    0.81658E-04  6336   0.495E-03 0.123E-03
CGA:  24    -0.425003828426E+03   -0.42378E-04   -0.53562E-04  6336   0.318E-02-0.537E-03
CGA:  25    -0.425003863858E+03   -0.35432E-04   -0.51571E-04  6336   0.136E-03 0.280E-03
CGA:  26    -0.425003860200E+03    0.36583E-05   -0.20926E-05  6336   0.984E-04 0.107E-03
  10 F= -.42500386E+03 E0= -.42499454E+03  d E =0.168016E-01  mag=    10.0000
       N       E                     dE             d eps       ncg     rms          ort
SDA:   1    -0.423997711028E+03    0.10062E+01    0.00000E+00  6336   0.353E+01 0.000E+00
CGA:   2    -0.424206365756E+03   -0.20865E+00   -0.20873E+00  6336   0.692E+01-0.150E-01
CGA:   3    -0.424785818221E+03   -0.57945E+00   -0.58340E+00  6336   0.131E+01-0.139E+00
CGA:   4    -0.424889624004E+03   -0.10381E+00   -0.10683E+00  6336   0.147E+01-0.108E+00
CGA:   5    -0.424975151700E+03   -0.85528E-01   -0.85526E-01  6336   0.717E+00-0.350E-02
CGA:   6    -0.424997800544E+03   -0.22649E-01   -0.22229E-01  6336   0.227E+00-0.216E-01
CGA:   7    -0.425013406884E+03   -0.15606E-01   -0.15664E-01  6336   0.133E+00-0.942E-02
CGA:   8    -0.425019431530E+03   -0.60246E-02   -0.60836E-02  6336   0.104E+00 0.282E-02
CGA:   9    -0.425024850320E+03   -0.54188E-02   -0.55074E-02  6336   0.279E-01 0.977E-02
CGA:  10    -0.425026172199E+03   -0.13219E-02   -0.13295E-02  6336   0.135E-01 0.204E-03
CGA:  11    -0.425027247216E+03   -0.10750E-02   -0.10641E-02  6336   0.223E-01 0.618E-03
CGA:  12    -0.425028448283E+03   -0.12011E-02   -0.12040E-02  6336   0.314E-02 0.277E-03
CGA:  13    -0.425028594531E+03   -0.14625E-03   -0.15092E-03  6336   0.361E-02 0.324E-03
CGA:  14    -0.425029125540E+03   -0.53101E-03   -0.56508E-03  6336   0.374E-02-0.425E-03
CGA:  15    -0.425029196570E+03   -0.71031E-04   -0.78201E-04  6336   0.610E-03 0.161E-03
CGA:  16    -0.425029326072E+03   -0.12950E-03   -0.13072E-03  6336   0.240E-02-0.879E-05
CGA:  17    -0.425029428675E+03   -0.10260E-03   -0.90170E-04  6336   0.115E-02-0.395E-03
CGA:  18    -0.425029459983E+03   -0.31308E-04   -0.32049E-04  6336   0.258E-03 0.200E-04
CGA:  19    -0.425029457410E+03    0.25729E-05   -0.54256E-05  6336   0.199E-03 0.175E-03
  11 F= -.42502946E+03 E0= -.42502020E+03  d E =-.255972E-01  mag=    10.0000
       N       E                     dE             d eps       ncg     rms          ort
SDA:   1    -0.424954850688E+03    0.74609E-01    0.00000E+00  6336   0.219E+00 0.000E+00
CGA:   2    -0.424986662699E+03   -0.31812E-01   -0.32486E-01  6336   0.935E+00-0.818E-02
CGA:   3    -0.425018954548E+03   -0.32292E-01   -0.32208E-01  6336   0.729E-01 0.449E-03
CGA:   4    -0.425025867171E+03   -0.69126E-02   -0.67221E-02  6336   0.125E+00 0.742E-02
CGA:   5    -0.425030650478E+03   -0.47833E-02   -0.48273E-02  6336   0.405E-01 0.320E-03
CGA:   6    -0.425033500109E+03   -0.28496E-02   -0.28922E-02  6336   0.182E-01-0.688E-02
CGA:   7    -0.425034112256E+03   -0.61215E-03   -0.60053E-03  6336   0.809E-02-0.444E-03
CGA:   8    -0.425034392819E+03   -0.28056E-03   -0.31895E-03  6336   0.425E-02 0.163E-02
CGA:   9    -0.425034768399E+03   -0.37558E-03   -0.36466E-03  6336   0.101E-02 0.129E-02
CGA:  10    -0.425033700289E+03    0.10681E-02   -0.58298E-03  6336   0.669E-01-0.461E-02
CGA:  11    -0.425034797414E+03   -0.10971E-02   -0.12517E-02  6336   0.421E-02-0.392E-03
CGA:  12    -0.425034894880E+03   -0.97467E-04   -0.16753E-03  6336   0.116E-02 0.103E-02
CGA:  13    -0.425034987542E+03   -0.92662E-04   -0.10665E-03  6336   0.811E-03 0.427E-03
CGA:  14    -0.425035079118E+03   -0.91576E-04   -0.83024E-04  6336   0.181E-02-0.279E-03
CGA:  15    -0.425035141205E+03   -0.62087E-04   -0.32237E-04  6336   0.769E-03-0.389E-03
CGA:  16    -0.425035154072E+03   -0.12868E-04   -0.79928E-05  6336   0.238E-03-0.586E-04
CGA:  17    -0.425035154429E+03   -0.35673E-06   -0.36064E-05  6336   0.194E-03 0.414E-04
  12 F= -.42503515E+03 E0= -.42502592E+03  d E =-.569702E-02  mag=    10.0000
       N       E                     dE             d eps       ncg     rms          ort
SDA:   1    -0.423765610573E+03    0.12695E+01    0.00000E+00  6336   0.342E+01 0.000E+00
CGA:   2    -0.424271417166E+03   -0.50581E+00   -0.49052E+00  6336   0.120E+02 0.255E+00
CGA:   3    -0.424809246258E+03   -0.53783E+00   -0.53639E+00  6336   0.150E+01-0.256E+00
CGA:   4    -0.424891155979E+03   -0.81910E-01   -0.81936E-01  6336   0.148E+01-0.185E-01
CGA:   5    -0.424987128137E+03   -0.95972E-01   -0.95858E-01  6336   0.107E+01 0.198E-02
CGA:   6    -0.425026653348E+03   -0.39525E-01   -0.40435E-01  6336   0.153E+00-0.666E-02
CGA:   7    -0.425033130326E+03   -0.64770E-02   -0.66030E-02  6336   0.131E+00 0.115E-02
CGA:   8    -0.425046119920E+03   -0.12990E-01   -0.13062E-01  6336   0.726E-01-0.412E-02
CGA:   9    -0.425048029800E+03   -0.19099E-02   -0.20141E-02  6336   0.174E-01 0.113E-02
CGA:  10    -0.425049426358E+03   -0.13966E-02   -0.13979E-02  6336   0.184E-01 0.216E-02
CGA:  11    -0.425050963245E+03   -0.15369E-02   -0.15359E-02  6336   0.179E-01-0.196E-03
CGA:  12    -0.425051698599E+03   -0.73535E-03   -0.67245E-03  6336   0.554E-02-0.151E-02
CGA:  13    -0.425052017320E+03   -0.31872E-03   -0.31798E-03  6336   0.355E-02-0.611E-04
CGA:  14    -0.425052298786E+03   -0.28147E-03   -0.28385E-03  6336   0.809E-02-0.546E-03
CGA:  15    -0.425052731828E+03   -0.43304E-03   -0.43331E-03  6336   0.122E-02 0.226E-04
CGA:  16    -0.425052771906E+03   -0.40078E-04   -0.57714E-04  6336   0.697E-03 0.613E-03
CGA:  17    -0.425052682215E+03    0.89691E-04   -0.90119E-04  6336   0.213E-01-0.111E-02
CGA:  18    -0.425053037549E+03   -0.35533E-03   -0.43278E-03  6336   0.178E-02 0.330E-03
CGA:  19    -0.425053062819E+03   -0.25270E-04   -0.48581E-04  6336   0.245E-03 0.253E-03
CGA:  20    -0.425053086903E+03   -0.24084E-04   -0.26408E-04  6336   0.650E-03 0.759E-04
CGA:  21    -0.425053135499E+03   -0.48596E-04   -0.50514E-04  6336   0.293E-03 0.297E-04
CGA:  22    -0.425053168672E+03   -0.33173E-04   -0.22677E-04  6336   0.822E-03-0.228E-03
CGA:  23    -0.425053174175E+03   -0.55025E-05   -0.16313E-04  6336   0.161E-03 0.106E-03
  13 F= -.42505317E+03 E0= -.42504392E+03  d E =-.180197E-01  mag=    10.0000
       N       E                     dE             d eps       ncg     rms          ort
SDA:   1    -0.419488253644E+03    0.55649E+01    0.00000E+00  6336   0.158E+02 0.000E+00
CGA:   2    -0.421134964981E+03   -0.16467E+01   -0.16676E+01  6336   0.395E+02 0.226E+01
CGA:   3    -0.423843471169E+03   -0.27085E+01   -0.28420E+01  6336   0.144E+02-0.387E+01
CGA:   4    -0.424374125309E+03   -0.53065E+00   -0.46353E+00  6336   0.355E+01-0.204E+00
CGA:   5    -0.424763813572E+03   -0.38969E+00   -0.38986E+00  6336   0.637E+01-0.240E-01
CGA:   6    -0.424969852783E+03   -0.20604E+00   -0.22334E+00  6336   0.971E+00-0.488E+00
CGA:   7    -0.425000245306E+03   -0.30393E-01   -0.33985E-01  6336   0.484E+00-0.586E-01
CGA:   8    -0.425033741725E+03   -0.33496E-01   -0.33616E-01  6336   0.433E+00 0.904E-02
CGA:   9    -0.425053395984E+03   -0.19654E-01   -0.19450E-01  6336   0.196E+00-0.743E-02
CGA:  10    -0.425063356579E+03   -0.99606E-02   -0.98865E-02  6336   0.949E-01-0.329E-02
CGA:  11    -0.425067639119E+03   -0.42825E-02   -0.42309E-02  6336   0.614E-01-0.272E-02
CGA:  12    -0.425072522861E+03   -0.48837E-02   -0.49003E-02  6336   0.566E-01 0.222E-02
CGA:  13    -0.425074723706E+03   -0.22008E-02   -0.22029E-02  6336   0.172E-01-0.504E-03
CGA:  14    -0.425075814179E+03   -0.10905E-02   -0.11086E-02  6336   0.204E-01 0.726E-03
CGA:  15    -0.425077505872E+03   -0.16917E-02   -0.16817E-02  6336   0.225E-01-0.176E-02
CGA:  16    -0.425078395595E+03   -0.88972E-03   -0.87942E-03  6336   0.659E-02-0.285E-03
CGA:  17    -0.425078893099E+03   -0.49750E-03   -0.49486E-03  6336   0.127E-01-0.431E-03
CGA:  18    -0.425079766059E+03   -0.87296E-03   -0.88139E-03  6336   0.443E-02 0.994E-03
CGA:  19    -0.425080075135E+03   -0.30908E-03   -0.28899E-03  6336   0.713E-02-0.963E-03
CGA:  20    -0.425080489558E+03   -0.41442E-03   -0.40346E-03  6336   0.407E-02-0.128E-02
CGA:  21    -0.425080699038E+03   -0.20948E-03   -0.21393E-03  6336   0.159E-02 0.272E-03
CGA:  22    -0.425080727011E+03   -0.27973E-04   -0.63002E-04  6336   0.728E-03 0.830E-03
CGA:  23    -0.425080780154E+03   -0.53143E-04   -0.54102E-04  6336   0.104E-02 0.296E-03
CGA:  24    -0.425080927804E+03   -0.14765E-03   -0.15462E-03  6336   0.356E-02-0.251E-03
CGA:  25    -0.425081002894E+03   -0.75090E-04   -0.76098E-04  6336   0.153E-02 0.229E-04
CGA:  26    -0.425081015370E+03   -0.12477E-04   -0.20421E-04  6336   0.390E-03 0.126E-03
CGA:  27    -0.425081018287E+03   -0.29166E-05   -0.10088E-04  6336   0.563E-03 0.145E-03
CGA:  28    -0.425081050096E+03   -0.31809E-04   -0.39462E-04  6336   0.848E-03 0.393E-03
CGA:  29    -0.425081085142E+03   -0.35046E-04   -0.24000E-04  6336   0.434E-03-0.272E-03
CGA:  30    -0.425081129332E+03   -0.44189E-04    0.91718E-04  6336   0.112E-03 0.145E-03
CGA:  31    -0.425081133030E+03   -0.36979E-05   -0.64115E-05  6336   0.104E-03 0.111E-03
  14 F= -.42508113E+03 E0= -.42507203E+03  d E =-.279589E-01  mag=    10.0000
       N       E                     dE             d eps       ncg     rms          ort
SDA:   1    -0.421782713516E+03    0.32984E+01    0.00000E+00  6336   0.139E+02 0.000E+00
CGA:   2    -0.422349946423E+03   -0.56723E+00   -0.62627E+00  6336   0.178E+02-0.151E+00
CGA:   3    -0.424277731534E+03   -0.19278E+01   -0.19386E+01  6336   0.588E+01-0.167E+00
CGA:   4    -0.424589049430E+03   -0.31132E+00   -0.32204E+00  6336   0.429E+01 0.244E+00
CGA:   5    -0.424844063827E+03   -0.25501E+00   -0.25397E+00  6336   0.439E+01-0.538E-01
CGA:   6    -0.425010703435E+03   -0.16664E+00   -0.16572E+00  6336   0.544E+00 0.157E-01
CGA:   7    -0.425054691676E+03   -0.43988E-01   -0.44161E-01  6336   0.355E+00-0.221E-02
CGA:   8    -0.425071688394E+03   -0.16997E-01   -0.17240E-01  6336   0.323E+00 0.553E-02
CGA:   9    -0.425088245802E+03   -0.16557E-01   -0.16590E-01  6336   0.139E+00 0.949E-03
CGA:  10    -0.425096425547E+03   -0.81797E-02   -0.81486E-02  6336   0.372E-01-0.107E-01
CGA:  11    -0.425100202163E+03   -0.37766E-02   -0.35742E-02  6336   0.384E-01 0.502E-02
CGA:  12    -0.425102076769E+03   -0.18746E-02   -0.18756E-02  6336   0.280E-01-0.127E-03
CGA:  13    -0.425103606649E+03   -0.15299E-02   -0.15250E-02  6336   0.132E-01-0.588E-03
CGA:  14    -0.425104709702E+03   -0.11031E-02   -0.11113E-02  6336   0.982E-02-0.346E-03
CGA:  15    -0.425105233053E+03   -0.52335E-03   -0.51414E-03  6336   0.115E-01-0.837E-03
CGA:  16    -0.425106009578E+03   -0.77653E-03   -0.80432E-03  6336   0.115E-01-0.227E-02
CGA:  17    -0.425106458109E+03   -0.44853E-03   -0.47216E-03  6336   0.225E-02 0.173E-02
CGA:  18    -0.425106610016E+03   -0.15191E-03   -0.15525E-03  6336   0.282E-02 0.782E-03
CGA:  19    -0.425107098814E+03   -0.48880E-03   -0.46496E-03  6336   0.417E-02 0.402E-03
CGA:  20    -0.425107309990E+03   -0.21118E-03   -0.18406E-03  6336   0.171E-02-0.972E-03
CGA:  21    -0.425107408255E+03   -0.98265E-04   -0.11457E-03  6336   0.336E-02-0.756E-03
CGA:  22    -0.425107508983E+03   -0.10073E-03   -0.90957E-04  6336   0.114E-02-0.545E-03
CGA:  23    -0.425107546345E+03   -0.37362E-04   -0.46782E-04  6336   0.752E-03 0.564E-03
CGA:  24    -0.425107574508E+03   -0.28163E-04   -0.42360E-04  6336   0.524E-03 0.527E-03
CGA:  25    -0.425107576434E+03   -0.19264E-05   -0.95690E-04  6336   0.986E-02-0.790E-03
CGA:  26    -0.425107724855E+03   -0.14842E-03   -0.16551E-03  6336   0.182E-03 0.309E-03
CGA:  27    -0.425107726042E+03   -0.11872E-05   -0.60913E-05  6336   0.163E-03 0.143E-03
  15 F= -.42510773E+03 E0= -.42509859E+03  d E =-.265930E-01  mag=    10.0000
       N       E                     dE             d eps       ncg     rms          ort
SDA:   1    -0.424195069690E+03    0.91266E+00    0.00000E+00  6336   0.551E+01 0.000E+00
CGA:   2    -0.424344096545E+03   -0.14903E+00   -0.16075E+00  6336   0.363E+01-0.368E+00
CGA:   3    -0.424904525453E+03   -0.56043E+00   -0.55869E+00  6336   0.104E+01 0.153E-01
CGA:   4    -0.425000399469E+03   -0.95874E-01   -0.94575E-01  6336   0.144E+01 0.356E-01
CGA:   5    -0.425054433201E+03   -0.54034E-01   -0.54167E-01  6336   0.616E+00-0.362E-02
CGA:   6    -0.425083503937E+03   -0.29071E-01   -0.29181E-01  6336   0.186E+00 0.192E-01
CGA:   7    -0.425096078548E+03   -0.12575E-01   -0.12578E-01  6336   0.829E-01 0.659E-02
CGA:   8    -0.425100815852E+03   -0.47373E-02   -0.47154E-02  6336   0.116E+00-0.202E-02
CGA:   9    -0.425107747589E+03   -0.69317E-02   -0.69130E-02  6336   0.992E-02-0.435E-02
CGA:  10    -0.425109053712E+03   -0.13061E-02   -0.13522E-02  6336   0.355E-01-0.621E-03
CGA:  11    -0.425110226568E+03   -0.11729E-02   -0.11913E-02  6336   0.484E-02 0.443E-03
CGA:  12    -0.425110484555E+03   -0.25799E-03   -0.26112E-03  6336   0.262E-02 0.267E-03
CGA:  13    -0.425110510845E+03   -0.26291E-04   -0.62219E-03  6336   0.366E-01-0.374E-02
CGA:  14    -0.425111117627E+03   -0.60678E-03   -0.67150E-03  6336   0.296E-02 0.946E-03
CGA:  15    -0.425111171975E+03   -0.54347E-04   -0.10342E-03  6336   0.812E-03 0.133E-02
CGA:  16    -0.425111177319E+03   -0.53444E-05   -0.28547E-04  6336   0.396E-03 0.508E-03
CGA:  17    -0.425111210371E+03   -0.33052E-04   -0.31406E-04  6336   0.769E-03 0.144E-03
CGA:  18    -0.425111282626E+03   -0.72255E-04   -0.72194E-04  6336   0.657E-03 0.171E-03
CGA:  19    -0.425111326579E+03   -0.43953E-04   -0.44255E-04  6336   0.501E-03 0.193E-04
CGA:  20    -0.425111359719E+03   -0.33140E-04   -0.63884E-04  6336   0.293E-02-0.545E-03
CGA:  21    -0.425111404124E+03   -0.44405E-04   -0.51522E-04  6336   0.213E-03 0.128E-03
CGA:  22    -0.425111407214E+03   -0.30898E-05   -0.80883E-05  6336   0.156E-03 0.159E-03
  16 F= -.42511141E+03 E0= -.42510219E+03  d E =-.368117E-02  mag=    10.0000
       N       E                     dE             d eps       ncg     rms          ort
SDA:   1    -0.423866236095E+03    0.12452E+01    0.00000E+00  6336   0.316E+01 0.000E+00
CGA:   2    -0.424818987012E+03   -0.95275E+00   -0.95520E+00  6336   0.346E+01-0.117E-01
CGA:   3    -0.424903924963E+03   -0.84938E-01   -0.94587E-01  6336   0.154E+01-0.319E+00
CGA:   4    -0.425056674662E+03   -0.15275E+00   -0.15244E+00  6336   0.105E+01 0.890E-02
CGA:   5    -0.425099133750E+03   -0.42459E-01   -0.44066E-01  6336   0.236E+00-0.308E-01
CGA:   6    -0.425109114773E+03   -0.99810E-02   -0.10037E-01  6336   0.217E+00 0.206E-02
CGA:   7    -0.425125165429E+03   -0.16051E-01   -0.16048E-01  6336   0.571E-01 0.818E-02
CGA:   8    -0.425128367201E+03   -0.32018E-02   -0.31153E-02  6336   0.494E-01-0.385E-02
CGA:   9    -0.425130753810E+03   -0.23866E-02   -0.23076E-02  6336   0.326E-01-0.352E-02
CGA:  10    -0.425132505355E+03   -0.17515E-02   -0.17796E-02  6336   0.914E-02 0.250E-02
CGA:  11    -0.425133181093E+03   -0.67574E-03   -0.67776E-03  6336   0.823E-02 0.138E-02
CGA:  12    -0.425133542641E+03   -0.36155E-03   -0.37931E-03  6336   0.485E-02 0.583E-03
CGA:  13    -0.425134175515E+03   -0.63287E-03   -0.72641E-03  6336   0.698E-02-0.131E-02
CGA:  14    -0.425134316868E+03   -0.14135E-03   -0.12358E-03  6336   0.157E-02-0.362E-03
CGA:  15    -0.425134449152E+03   -0.13228E-03   -0.13909E-03  6336   0.500E-02-0.291E-03
CGA:  16    -0.425134600891E+03   -0.15174E-03   -0.15721E-03  6336   0.431E-02 0.162E-03
CGA:  17    -0.425134713004E+03   -0.11211E-03   -0.13941E-03  6336   0.229E-02 0.734E-03
CGA:  18    -0.425134759864E+03   -0.46860E-04   -0.58829E-04  6336   0.597E-03 0.268E-03
CGA:  19    -0.425134850531E+03   -0.90666E-04    0.53285E-03  6336   0.141E-02-0.353E-06
CGA:  20    -0.425134732500E+03    0.11803E-03   -0.20226E-03  6336   0.122E-01-0.410E-02
CGA:  21    -0.425134951804E+03   -0.21930E-03   -0.31029E-03  6336   0.338E-02 0.223E-02
CGA:  22    -0.425134986850E+03   -0.35046E-04   -0.96854E-04  6336   0.676E-03 0.149E-02
CGA:  23    -0.425134987038E+03   -0.18775E-06   -0.18833E-04  6336   0.278E-03 0.412E-03
CGA:  24    -0.425134996046E+03   -0.90076E-05   -0.11705E-04  6336   0.204E-03 0.133E-03
CGA:  25    -0.425135005932E+03   -0.98865E-05   -0.13080E-04  6336   0.135E-03 0.176E-03
CGA:  26    -0.425135020718E+03   -0.14786E-04   -0.15573E-04  6336   0.368E-03-0.144E-04
CGA:  27    -0.425134503909E+03    0.51681E-03   -0.27916E-03  6336   0.246E-01-0.192E-02
CGA:  28    -0.425134913807E+03   -0.40990E-03   -0.45037E-03  6336   0.176E-02 0.451E-03
CGA:  29    -0.425134960131E+03   -0.46324E-04   -0.85948E-04  6336   0.557E-03 0.658E-03
CGA:  30    -0.425134973228E+03   -0.13097E-04   -0.33023E-04  6336   0.543E-03 0.308E-03
CGA:  31    -0.425135005308E+03   -0.32081E-04   -0.26470E-04  6336   0.897E-03-0.103E-03
CGA:  32    -0.425134963784E+03    0.41525E-04   -0.18626E-03  6336   0.403E-02-0.147E-02
CGA:  33    -0.425135054597E+03   -0.90813E-04   -0.14922E-03  6336   0.122E-02 0.916E-03
CGA:  34    -0.425135057701E+03   -0.31048E-05   -0.36427E-04  6336   0.218E-03 0.417E-03
  17 F= -.42513506E+03 E0= -.42512596E+03  d E =-.236505E-01  mag=    10.0000
       N       E                     dE             d eps       ncg     rms          ort
SDA:   1    -0.423795263791E+03    0.13398E+01    0.00000E+00  6336   0.408E+01 0.000E+00
CGA:   2    -0.424233146593E+03   -0.43788E+00   -0.43702E+00  6336   0.122E+02 0.507E-01
CGA:   3    -0.424767683584E+03   -0.53454E+00   -0.52957E+00  6336   0.259E+01-0.152E+00
CGA:   4    -0.424924137204E+03   -0.15645E+00   -0.13616E+00  6336   0.130E+01 0.185E+00
CGA:   5    -0.425068059933E+03   -0.14392E+00   -0.14421E+00  6336   0.167E+01-0.227E-01
CGA:   6    -0.425112112002E+03   -0.44052E-01   -0.42260E-01  6336   0.214E+00 0.387E-01
CGA:   7    -0.425131983146E+03   -0.19871E-01   -0.19873E-01  6336   0.964E-01 0.312E-02
CGA:   8    -0.425142193188E+03   -0.10210E-01   -0.10202E-01  6336   0.146E+00 0.276E-03
CGA:   9    -0.425146512304E+03   -0.43191E-02   -0.41632E-02  6336   0.236E-01-0.424E-02
CGA:  10    -0.425148080514E+03   -0.15682E-02   -0.15160E-02  6336   0.251E-01-0.281E-02
CGA:  11    -0.425150510171E+03   -0.24297E-02   -0.23972E-02  6336   0.108E-01 0.149E-02
CGA:  12    -0.425150755592E+03   -0.24542E-03   -0.30035E-03  6336   0.373E-02 0.805E-03
CGA:  13    -0.425151228498E+03   -0.47291E-03   -0.44072E-03  6336   0.450E-02 0.129E-02
CGA:  14    -0.425151817398E+03   -0.58890E-03   -0.61216E-03  6336   0.654E-02-0.158E-02
CGA:  15    -0.425152024670E+03   -0.20727E-03   -0.19971E-03  6336   0.354E-02-0.202E-03
CGA:  16    -0.425152092456E+03   -0.67787E-04   -0.94312E-04  6336   0.143E-02 0.512E-03
CGA:  17    -0.425152184985E+03   -0.92529E-04   -0.10373E-03  6336   0.291E-02 0.598E-03
CGA:  18    -0.425152532821E+03   -0.34784E-03   -0.34672E-03  6336   0.133E-02 0.405E-03
CGA:  19    -0.425152607726E+03   -0.74906E-04   -0.60154E-04  6336   0.948E-03-0.353E-03
CGA:  20    -0.425152608880E+03   -0.11537E-05   -0.13601E-03  6336   0.820E-02-0.116E-02
CGA:  21    -0.425152725915E+03   -0.11704E-03   -0.16115E-03  6336   0.944E-03 0.611E-03
CGA:  22    -0.425152726984E+03   -0.10682E-05   -0.25754E-04  6336   0.390E-03 0.443E-03
CGA:  23    -0.425152730428E+03   -0.34442E-05   -0.17385E-04  6336   0.391E-03 0.286E-03
CGA:  24    -0.425152750665E+03   -0.20238E-04   -0.52436E-04  6336   0.407E-02-0.562E-03
CGA:  25    -0.425152813968E+03   -0.63302E-04   -0.76798E-04  6336   0.306E-03 0.185E-03
CGA:  26    -0.425152812953E+03    0.10149E-05   -0.70310E-05  6336   0.120E-03 0.149E-03
  18 F= -.42515281E+03 E0= -.42514366E+03  d E =-.177553E-01  mag=    10.0000
       N       E                     dE             d eps       ncg     rms          ort
SDA:   1    -0.421279308385E+03    0.38735E+01    0.00000E+00  6336   0.107E+02 0.000E+00
CGA:   2    -0.423067514567E+03   -0.17882E+01   -0.16917E+01  6336   0.236E+02 0.129E+01
CGA:   3    -0.424252384683E+03   -0.11849E+01   -0.10608E+01  6336   0.732E+01-0.134E+01
CGA:   4    -0.424596705460E+03   -0.34432E+00   -0.33032E+00  6336   0.428E+01-0.103E+00
CGA:   5    -0.424945406455E+03   -0.34870E+00   -0.34701E+00  6336   0.385E+01 0.111E+00
CGA:   6    -0.425064075117E+03   -0.11867E+00   -0.12488E+00  6336   0.789E+00-0.141E+00
CGA:   7    -0.425107117123E+03   -0.43042E-01   -0.42913E-01  6336   0.568E+00-0.743E-02
CGA:   8    -0.425135717389E+03   -0.28600E-01   -0.28746E-01  6336   0.381E+00 0.548E-02
CGA:   9    -0.425153345289E+03   -0.17628E-01   -0.17853E-01  6336   0.121E+00 0.403E-02
CGA:  10    -0.425159428827E+03   -0.60835E-02   -0.60447E-02  6336   0.102E+00-0.165E-02
CGA:  11    -0.425165866048E+03   -0.64372E-02   -0.64187E-02  6336   0.726E-01-0.514E-02
CGA:  12    -0.425169048622E+03   -0.31826E-02   -0.32496E-02  6336   0.290E-01 0.282E-02
CGA:  13    -0.425170333397E+03   -0.12848E-02   -0.13203E-02  6336   0.198E-01 0.125E-02
CGA:  14    -0.425172378550E+03   -0.20452E-02   -0.20284E-02  6336   0.261E-01 0.470E-03
CGA:  15    -0.425173566943E+03   -0.11884E-02   -0.11568E-02  6336   0.135E-01-0.147E-02
CGA:  16    -0.425174371361E+03   -0.80442E-03   -0.80306E-03  6336   0.105E-01-0.665E-03
CGA:  17    -0.425175027785E+03   -0.65642E-03   -0.65712E-03  6336   0.149E-01-0.138E-02
CGA:  18    -0.425175932012E+03   -0.90423E-03   -0.90403E-03  6336   0.696E-02 0.324E-04
CGA:  19    -0.425176181362E+03   -0.24935E-03   -0.27793E-03  6336   0.345E-02 0.106E-02
CGA:  20    -0.425176388228E+03   -0.20687E-03   -0.21976E-03  6336   0.248E-02 0.142E-02
CGA:  21    -0.425176882484E+03   -0.49426E-03   -0.58949E-03  6336   0.110E-01-0.916E-03
CGA:  22    -0.425177005941E+03   -0.12346E-03   -0.12469E-03  6336   0.507E-02 0.523E-04
CGA:  23    -0.425177053415E+03   -0.47474E-04   -0.64975E-04  6336   0.171E-02 0.300E-03
CGA:  24    -0.425177070413E+03   -0.16999E-04   -0.33314E-04  6336   0.153E-02 0.369E-03
CGA:  25    -0.425177101137E+03   -0.30723E-04   -0.43864E-04  6336   0.161E-02 0.359E-03
CGA:  26    -0.425177175230E+03   -0.74093E-04   -0.73783E-04  6336   0.368E-02-0.252E-04
CGA:  27    -0.425177312052E+03   -0.13682E-03   -0.12264E-03  6336   0.564E-02-0.587E-03
CGA:  28    -0.425177380263E+03   -0.68211E-04   -0.55014E-04  6336   0.200E-02-0.257E-03
CGA:  29    -0.425177397378E+03   -0.17115E-04   -0.17565E-04  6336   0.695E-03 0.141E-04
CGA:  30    -0.425177400608E+03   -0.32300E-05   -0.82918E-05  6336   0.655E-03 0.124E-03
CGA:  31    -0.425177403123E+03   -0.25150E-05   -0.13011E-04  6336   0.101E-02 0.313E-03
SDA:  32    -0.425177412572E+03   -0.94497E-05   -0.28720E-04  6336   0.980E-03 0.655E-03
CGA:  33    -0.425177448287E+03   -0.35715E-04   -0.34488E-04  6336   0.675E-03-0.103E-03
CGA:  34    -0.425177488769E+03   -0.40481E-04   -0.48978E-04  6336   0.122E-02-0.249E-03
CGA:  35    -0.425177563656E+03   -0.74887E-04    0.45868E-02  6336   0.591E-03 0.138E-03
CGA:  36    -0.425177577774E+03   -0.14119E-04   -0.17890E-04  6336   0.255E-03 0.176E-03
CGA:  37    -0.425177573212E+03    0.45626E-05   -0.38169E-05  6336   0.148E-03 0.234E-03
  19 F= -.42517757E+03 E0= -.42516849E+03  d E =-.247603E-01  mag=    10.0000
       N       E                     dE             d eps       ncg     rms          ort
SDA:   1    -0.417019263719E+03    0.81583E+01    0.00000E+00  6336   0.345E+02 0.000E+00
CGA:   2    -0.418437126663E+03   -0.14179E+01   -0.14356E+01  6336   0.362E+02 0.323E+01
CGA:   3    -0.423091507199E+03   -0.46544E+01   -0.47153E+01  6336   0.209E+02 0.146E+00
CGA:   4    -0.423892074251E+03   -0.80057E+00   -0.79581E+00  6336   0.760E+01-0.548E+00
CGA:   5    -0.424602483571E+03   -0.71041E+00   -0.72164E+00  6336   0.130E+02-0.150E+00
CGA:   6    -0.425013608665E+03   -0.41113E+00   -0.41407E+00  6336   0.104E+01-0.769E-01
CGA:   7    -0.425070660324E+03   -0.57052E-01   -0.56747E-01  6336   0.130E+01 0.361E-01
CGA:   8    -0.425162667560E+03   -0.92007E-01   -0.91500E-01  6336   0.494E+00 0.233E-01
CGA:   9    -0.425181755711E+03   -0.19088E-01   -0.18814E-01  6336   0.228E+00-0.148E-01
CGA:  10    -0.425196060987E+03   -0.14305E-01   -0.14475E-01  6336   0.193E+00-0.120E-01
CGA:  11    -0.425204821059E+03   -0.87601E-02   -0.87676E-02  6336   0.106E+00 0.137E-02
CGA:  12    -0.425211583821E+03   -0.67628E-02   -0.66557E-02  6336   0.791E-01 0.849E-02
CGA:  13    -0.425215056536E+03   -0.34727E-02   -0.34973E-02  6336   0.287E-01 0.255E-02
CGA:  14    -0.425217467814E+03   -0.24113E-02   -0.24757E-02  6336   0.636E-01-0.203E-02
CGA:  15    -0.425221369271E+03   -0.39015E-02   -0.39523E-02  6336   0.145E-01-0.363E-02
CGA:  16    -0.425222041228E+03   -0.67196E-03   -0.67258E-03  6336   0.181E-01 0.111E-03
CGA:  17    -0.425224611031E+03   -0.25698E-02   -0.26549E-02  6336   0.271E-01-0.959E-03
CGA:  18    -0.425225490047E+03   -0.87902E-03   -0.84291E-03  6336   0.622E-02-0.143E-02
CGA:  19    -0.425225912068E+03   -0.42202E-03   -0.44053E-03  6336   0.118E-01-0.100E-02
CGA:  20    -0.425226702665E+03   -0.79060E-03   -0.77419E-03  6336   0.669E-02 0.750E-03
CGA:  21    -0.425226978927E+03   -0.27626E-03   -0.28722E-03  6336   0.221E-02 0.635E-03
CGA:  22    -0.425226827856E+03    0.15107E-03   -0.58792E-03  6336   0.419E-01-0.397E-02
CGA:  23    -0.425227592617E+03   -0.76476E-03   -0.78157E-03  6336   0.375E-02 0.387E-03
CGA:  24    -0.425227712747E+03   -0.12013E-03   -0.14985E-03  6336   0.884E-03 0.128E-02
CGA:  25    -0.425227719346E+03   -0.65988E-05   -0.30914E-04  6336   0.572E-03 0.669E-03
CGA:  26    -0.425227748387E+03   -0.29041E-04   -0.31055E-04  6336   0.686E-03 0.308E-03
CGA:  27    -0.425227779388E+03   -0.31001E-04   -0.30307E-04  6336   0.108E-02-0.457E-04
CGA:  28    -0.425227889383E+03   -0.10999E-03   -0.26308E-04  6336   0.420E-02-0.831E-03
CGA:  29    -0.425227978614E+03   -0.89231E-04   -0.13406E-03  6336   0.641E-03 0.724E-03
CGA:  30    -0.425228046169E+03   -0.67555E-04   -0.70040E-04  6336   0.996E-03 0.210E-03
CGA:  31    -0.425228168111E+03   -0.12194E-03   -0.11458E-03  6336   0.815E-03-0.414E-03
CGA:  32    -0.425228175342E+03   -0.72317E-05   -0.78158E-05  6336   0.274E-03 0.407E-05
  20 F= -.42522818E+03 E0= -.42521910E+03  d E =-.506021E-01  mag=    10.0000
       N       E                     dE             d eps       ncg     rms          ort
SDA:   1    -0.409864629801E+03    0.15364E+02    0.00000E+00  6336   0.482E+02 0.000E+00
CGA:   2    -0.415170197796E+03   -0.53056E+01   -0.50512E+01  6336   0.578E+02 0.149E+02
CGA:   3    -0.419868688386E+03   -0.46985E+01   -0.48608E+01  6336   0.485E+02-0.114E+02
CGA:   4    -0.423038426888E+03   -0.31697E+01   -0.23287E+01  6336   0.809E+01 0.681E+00
CGA:   5    -0.424574540369E+03   -0.15361E+01   -0.15371E+01  6336   0.591E+01-0.479E-02
CGA:   6    -0.424670755969E+03   -0.96216E-01   -0.14944E+00  6336   0.342E+01-0.200E+01
CGA:   7    -0.424824975153E+03   -0.15422E+00   -0.15568E+00  6336   0.199E+01 0.200E-01
CGA:   8    -0.424886742018E+03   -0.61767E-01   -0.74994E-01  6336   0.112E+01-0.270E+00
CGA:   9    -0.424943868615E+03   -0.57127E-01   -0.58261E-01  6336   0.833E+00-0.298E-02
CGA:  10    -0.424967334745E+03   -0.23466E-01   -0.25044E-01  6336   0.372E+00-0.400E-01
CGA:  11    -0.424991741612E+03   -0.24407E-01   -0.24649E-01  6336   0.320E+00 0.213E-02
CGA:  12    -0.425006231238E+03   -0.14490E-01   -0.15101E-01  6336   0.182E+00 0.140E-02
CGA:  13    -0.425014496711E+03   -0.82655E-02   -0.85509E-02  6336   0.161E+00-0.409E-02
CGA:  14    -0.425023714221E+03   -0.92175E-02   -0.92006E-02  6336   0.874E-01-0.605E-02
CGA:  15    -0.425027852223E+03   -0.41380E-02   -0.43280E-02  6336   0.570E-01 0.281E-02
CGA:  16    -0.425030884290E+03   -0.30321E-02   -0.31201E-02  6336   0.529E-01 0.216E-02
CGA:  17    -0.425034305355E+03   -0.34211E-02   -0.34307E-02  6336   0.371E-01-0.241E-03
CGA:  18    -0.425036545457E+03   -0.22401E-02   -0.22429E-02  6336   0.273E-01-0.354E-03
CGA:  19    -0.425037905499E+03   -0.13600E-02   -0.13387E-02  6336   0.202E-01-0.167E-02
CGA:  20    -0.425039408785E+03   -0.15033E-02   -0.15138E-02  6336   0.222E-01-0.195E-02
CGA:  21    -0.425040375495E+03   -0.96671E-03   -0.10060E-02  6336   0.817E-02 0.127E-02
CGA:  22    -0.425040752970E+03   -0.37747E-03   -0.40853E-03  6336   0.663E-02 0.110E-02
CGA:  23    -0.425041865594E+03   -0.11126E-02   -0.11508E-02  6336   0.138E-01-0.486E-03
CGA:  24    -0.425042292794E+03   -0.42720E-03   -0.41964E-03  6336   0.271E-02-0.308E-03
CGA:  25    -0.425042550932E+03   -0.25814E-03   -0.26595E-03  6336   0.534E-02-0.302E-03
CGA:  26    -0.425043041482E+03   -0.49055E-03   -0.55928E-03  6336   0.595E-02-0.161E-02
CGA:  27    -0.425043111090E+03   -0.69608E-04   -0.11081E-03  6336   0.243E-02 0.841E-03
CGA:  28    -0.425043121332E+03   -0.10243E-04   -0.67832E-04  6336   0.139E-02 0.119E-02
CGA:  29    -0.425043129090E+03   -0.77573E-05   -0.51765E-04  6336   0.100E-02 0.941E-03
CGA:  30    -0.425043293111E+03   -0.16402E-03    0.20114E-03  6336   0.846E-03 0.493E-03
CGA:  31    -0.425043481041E+03   -0.18793E-03   -0.17662E-03  6336   0.982E-03 0.161E-03
CGA:  32    -0.425043545188E+03   -0.64147E-04   -0.65741E-04  6336   0.262E-03 0.918E-04
CGA:  33    -0.425043543878E+03    0.13105E-05   -0.84538E-05  6336   0.181E-03 0.227E-03
CGA:  34    -0.425043553221E+03   -0.93428E-05   -0.10759E-04  6336   0.150E-03 0.128E-03
CGA:  35    -0.425043578163E+03   -0.24943E-04    0.27871E-04  6336   0.160E-03 0.792E-04
CGA:  36    -0.425043577528E+03    0.63549E-06   -0.39923E-05  6336   0.997E-04 0.103E-03
CGA:  37    -0.425043598774E+03   -0.21246E-04   -0.14816E-04  6336   0.849E-04 0.792E-04
CGA:  38    -0.425043560132E+03    0.38642E-04   -0.23159E-04  6336   0.628E-02-0.213E-03
CGA:  39    -0.425043659174E+03   -0.99042E-04   -0.11554E-03  6336   0.165E-03 0.206E-04
CGA:  40    -0.425043655889E+03    0.32854E-05   -0.34095E-05  6336   0.476E-04 0.644E-04
  21 F= -.42504366E+03 E0= -.42503480E+03  d E =0.184519E+00  mag=    10.0000
       N       E                     dE             d eps       ncg     rms          ort
SDA:   1    -0.416895050036E+03    0.81486E+01    0.00000E+00  6336   0.269E+02 0.000E+00
CGA:   2    -0.419679366537E+03   -0.27843E+01   -0.28706E+01  6336   0.464E+02 0.446E+01
CGA:   3    -0.422526514120E+03   -0.28471E+01   -0.31159E+01  6336   0.340E+02-0.140E+02
CGA:   4    -0.423849237123E+03   -0.13227E+01   -0.11377E+01  6336   0.655E+01 0.217E+00
CGA:   5    -0.424795079596E+03   -0.94584E+00   -0.97540E+00  6336   0.881E+01-0.582E+00
CGA:   6    -0.425014748946E+03   -0.21967E+00   -0.26120E+00  6336   0.184E+01-0.135E+01
CGA:   7    -0.425069935909E+03   -0.55187E-01   -0.56053E-01  6336   0.127E+01-0.411E-01
CGA:   8    -0.425182556104E+03   -0.11262E+00   -0.11294E+00  6336   0.507E+00 0.187E-01
CGA:   9    -0.425205416208E+03   -0.22860E-01   -0.22004E-01  6336   0.359E+00-0.651E-02
CGA:  10    -0.425223417474E+03   -0.18001E-01   -0.18025E-01  6336   0.205E+00-0.131E-01
CGA:  11    -0.425234958340E+03   -0.11541E-01   -0.11754E-01  6336   0.140E+00 0.182E-02
CGA:  12    -0.425243045665E+03   -0.80873E-02   -0.82619E-02  6336   0.116E+00 0.390E-02
CGA:  13    -0.425247441133E+03   -0.43955E-02   -0.44435E-02  6336   0.337E-01 0.106E-02
CGA:  14    -0.425251385892E+03   -0.39448E-02   -0.39484E-02  6336   0.726E-01-0.298E-03
CGA:  15    -0.425254143007E+03   -0.27571E-02   -0.26931E-02  6336   0.163E-01-0.272E-02
CGA:  16    -0.425255289136E+03   -0.11461E-02   -0.11225E-02  6336   0.243E-01-0.148E-02
CGA:  17    -0.425256910117E+03   -0.16210E-02   -0.16181E-02  6336   0.216E-01-0.333E-03
CGA:  18    -0.425257650802E+03   -0.74069E-03   -0.79941E-03  6336   0.517E-02 0.106E-02
CGA:  19    -0.425258393244E+03   -0.74244E-03   -0.87690E-03  6336   0.314E-01-0.178E-02
CGA:  20    -0.425259118100E+03   -0.72486E-03   -0.63122E-03  6336   0.132E-01-0.176E-02
CGA:  21    -0.425259295174E+03   -0.17707E-03   -0.17981E-03  6336   0.354E-02-0.500E-04
CGA:  22    -0.425259376771E+03   -0.81597E-04   -0.11366E-03  6336   0.546E-02 0.640E-03
CGA:  23    -0.425259537053E+03   -0.16028E-03   -0.21878E-03  6336   0.345E-02 0.141E-02
CGA:  24    -0.425259651766E+03   -0.11471E-03   -0.13110E-03  6336   0.409E-02 0.323E-03
CGA:  25    -0.425259974555E+03   -0.32279E-03   -0.32058E-03  6336   0.757E-02-0.633E-03
CGA:  26    -0.425260135836E+03   -0.16128E-03   -0.11508E-03  6336   0.235E-02-0.869E-03
CGA:  27    -0.425260245115E+03   -0.10928E-03   -0.60671E-04  6336   0.234E-02-0.115E-02
CGA:  28    -0.425260340831E+03   -0.95717E-04   -0.47675E-04  6336   0.352E-02-0.162E-02
CGA:  29    -0.425260391668E+03   -0.50836E-04   -0.94381E-04  6336   0.822E-03 0.108E-02
CGA:  30    -0.425260398012E+03   -0.63447E-05   -0.29749E-04  6336   0.624E-03 0.607E-03
CGA:  31    -0.425260412413E+03   -0.14401E-04   -0.18672E-03  6336   0.711E-02-0.727E-03
CGA:  32    -0.425260565082E+03   -0.15267E-03   -0.19305E-03  6336   0.256E-03 0.106E-02
CGA:  33    -0.425260573114E+03   -0.80317E-05   -0.10084E-04  6336   0.121E-03 0.534E-04
  22 F= -.42526057E+03 E0= -.42525166E+03  d E =-.216917E+00  mag=    10.0000
       N       E                     dE             d eps       ncg     rms          ort
SDA:   1    -0.424527476860E+03    0.73309E+00    0.00000E+00  6336   0.191E+01 0.000E+00
CGA:   2    -0.424833429499E+03   -0.30595E+00   -0.30383E+00  6336   0.552E+01 0.317E-01
CGA:   3    -0.425087090752E+03   -0.25366E+00   -0.24113E+00  6336   0.174E+01 0.424E-01
CGA:   4    -0.425149159987E+03   -0.62069E-01   -0.65405E-01  6336   0.606E+00-0.585E-01
CGA:   5    -0.425206592117E+03   -0.57432E-01   -0.56915E-01  6336   0.546E+00 0.207E-01
CGA:   6    -0.425224998387E+03   -0.18406E-01   -0.18789E-01  6336   0.230E+00-0.807E-02
CGA:   7    -0.425239798893E+03   -0.14801E-01   -0.14802E-01  6336   0.616E-01-0.902E-02
CGA:   8    -0.425242401009E+03   -0.26021E-02   -0.26053E-02  6336   0.615E-01-0.534E-04
CGA:   9    -0.425246826368E+03   -0.44254E-02   -0.44152E-02  6336   0.117E-01 0.611E-02
CGA:  10    -0.425247730967E+03   -0.90460E-03   -0.90456E-03  6336   0.255E-01-0.134E-02
CGA:  11    -0.425249090088E+03   -0.13591E-02   -0.13284E-02  6336   0.753E-02-0.282E-02
CGA:  12    -0.425249452858E+03   -0.36277E-03   -0.37924E-03  6336   0.530E-02 0.130E-02
CGA:  13    -0.425249585236E+03   -0.13238E-03   -0.18093E-03  6336   0.214E-02 0.127E-02
CGA:  14    -0.425249713140E+03   -0.12790E-03   -0.14382E-03  6336   0.173E-02 0.125E-02
CGA:  15    -0.425249951497E+03   -0.23836E-03    0.15679E-02  6336   0.196E-02 0.107E-03
CGA:  16    -0.425250102531E+03   -0.15103E-03   -0.20381E-03  6336   0.925E-02-0.167E-02
CGA:  17    -0.425250229397E+03   -0.12687E-03   -0.16926E-03  6336   0.115E-02 0.750E-03
CGA:  18    -0.425250227311E+03    0.20862E-05   -0.29145E-04  6336   0.617E-03 0.752E-03
CGA:  19    -0.425250232490E+03   -0.51787E-05   -0.16582E-04  6336   0.403E-03 0.313E-03
CGA:  20    -0.425250241033E+03   -0.85432E-05   -0.14782E-04  6336   0.378E-03 0.250E-03
CGA:  21    -0.425250261321E+03   -0.20288E-04   -0.20876E-04  6336   0.685E-03 0.113E-03
CGA:  22    -0.425250372701E+03   -0.11138E-03   -0.90739E-04  6336   0.309E-03 0.489E-03
CGA:  23    -0.425250415670E+03   -0.42969E-04    0.81427E-04  6336   0.734E-03-0.573E-04
CGA:  24    -0.425250514182E+03   -0.98512E-04    0.57167E-04  6336   0.720E-03 0.839E-04
CGA:  25    -0.425250542959E+03   -0.28777E-04   -0.32918E-04  6336   0.104E-02 0.191E-03
CGA:  26    -0.425250565529E+03   -0.22569E-04   -0.42849E-04  6336   0.345E-03 0.716E-03
CGA:  27    -0.425250569873E+03   -0.43441E-05   -0.62205E-05  6336   0.696E-04 0.434E-04
  23 F= -.42525057E+03 E0= -.42524173E+03  d E =0.100032E-01  mag=    10.0000
       N       E                     dE             d eps       ncg     rms          ort
SDA:   1    -0.425056403554E+03    0.19416E+00    0.00000E+00  6336   0.547E+00 0.000E+00
CGA:   2    -0.425156610761E+03   -0.10021E+00   -0.10084E+00  6336   0.225E+01-0.570E-02
CGA:   3    -0.425221192072E+03   -0.64581E-01   -0.64737E-01  6336   0.170E+00-0.794E-02
CGA:   4    -0.425246189968E+03   -0.24998E-01   -0.25274E-01  6336   0.233E+00-0.318E-02
CGA:   5    -0.425257158094E+03   -0.10968E-01   -0.11033E-01  6336   0.597E-01-0.505E-02
CGA:   6    -0.425259056774E+03   -0.18987E-02   -0.20005E-02  6336   0.352E-01 0.336E-02
CGA:   7    -0.425260605554E+03   -0.15488E-02   -0.16468E-02  6336   0.929E-02 0.608E-02
CGA:   8    -0.425262231266E+03   -0.16257E-02   -0.20134E-02  6336   0.285E-01-0.315E-02
CGA:   9    -0.425262548087E+03   -0.31682E-03   -0.27830E-03  6336   0.710E-02-0.751E-03
CGA:  10    -0.425262652109E+03   -0.10402E-03   -0.99049E-04  6336   0.345E-02-0.105E-03
CGA:  11    -0.425262791774E+03   -0.13967E-03   -0.14368E-03  6336   0.888E-02 0.190E-03
CGA:  12    -0.425263073387E+03   -0.28161E-03   -0.30431E-03  6336   0.626E-02 0.788E-03
CGA:  13    -0.425263169635E+03   -0.96248E-04   -0.11741E-03  6336   0.241E-02 0.447E-03
CGA:  14    -0.425263223352E+03   -0.53717E-04   -0.62295E-04  6336   0.160E-02 0.271E-03
CGA:  15    -0.425263275198E+03   -0.51846E-04   -0.45354E-04  6336   0.109E-02-0.210E-03
CGA:  16    -0.425263395313E+03   -0.12012E-03    0.16341E-03  6336   0.240E-02-0.309E-03
CGA:  17    -0.425263485900E+03   -0.90587E-04   -0.98487E-04  6336   0.424E-02-0.335E-02
CGA:  18    -0.425263537784E+03   -0.51884E-04   -0.10666E-03  6336   0.119E-02 0.186E-02
CGA:  19    -0.425263534191E+03    0.35924E-05   -0.30578E-04  6336   0.498E-03 0.974E-03
CGA:  20    -0.425263537600E+03   -0.34088E-05   -0.12494E-04  6336   0.268E-03 0.343E-03
  24 F= -.42526354E+03 E0= -.42525467E+03  d E =-.129677E-01  mag=    10.0000
       N       E                     dE             d eps       ncg     rms          ort
SDA:   1    -0.424339289784E+03    0.92424E+00    0.00000E+00  6336   0.247E+01 0.000E+00
CGA:   2    -0.424908521192E+03   -0.56923E+00   -0.56137E+00  6336   0.672E+01 0.618E-01
CGA:   3    -0.425090695187E+03   -0.18217E+00   -0.17343E+00  6336   0.839E+00 0.791E-01
CGA:   4    -0.425180351235E+03   -0.89656E-01   -0.87322E-01  6336   0.973E+00 0.462E-01
CGA:   5    -0.425246219341E+03   -0.65868E-01   -0.65968E-01  6336   0.437E+00-0.670E-03
CGA:   6    -0.425257864455E+03   -0.11645E-01   -0.11811E-01  6336   0.127E+00-0.495E-02
CGA:   7    -0.425267445806E+03   -0.95814E-02   -0.98528E-02  6336   0.697E-01-0.142E-01
CGA:   8    -0.425272628272E+03   -0.51825E-02   -0.50224E-02  6336   0.294E-01 0.752E-02
CGA:   9    -0.425274587769E+03   -0.19595E-02   -0.19578E-02  6336   0.147E-01 0.314E-02
CGA:  10    -0.425275134844E+03   -0.54708E-03   -0.57407E-03  6336   0.105E-01 0.105E-02
CGA:  11    -0.425276591383E+03   -0.14565E-02   -0.14504E-02  6336   0.589E-02 0.823E-04
CGA:  12    -0.425276999759E+03   -0.40838E-03   -0.46468E-03  6336   0.906E-02-0.347E-02
CGA:  13    -0.425277168697E+03   -0.16894E-03   -0.21466E-03  6336   0.208E-02 0.117E-02
CGA:  14    -0.425277215818E+03   -0.47122E-04   -0.74968E-04  6336   0.133E-02 0.971E-03
CGA:  15    -0.425277374700E+03   -0.15888E-03   -0.14632E-03  6336   0.282E-02 0.784E-03
CGA:  16    -0.425277486135E+03   -0.11143E-03   -0.87387E-04  6336   0.179E-02-0.835E-03
CGA:  17    -0.425277648540E+03   -0.16241E-03    0.38940E-03  6336   0.124E-02 0.433E-03
CGA:  18    -0.425277726006E+03   -0.77466E-04   -0.81105E-04  6336   0.124E-02 0.592E-03
CGA:  19    -0.425277795019E+03   -0.69012E-04   -0.78047E-04  6336   0.120E-02 0.567E-03
CGA:  20    -0.425278083783E+03   -0.28876E-03   -0.27002E-03  6336   0.155E-02 0.197E-03
CGA:  21    -0.425278183592E+03   -0.99809E-04   -0.10031E-03  6336   0.172E-02 0.707E-04
CGA:  22    -0.425278272662E+03   -0.89070E-04   -0.81320E-04  6336   0.101E-02-0.470E-03
CGA:  23    -0.425278369012E+03   -0.96350E-04    0.31293E-03  6336   0.365E-03-0.872E-05
CGA:  24    -0.425278370159E+03   -0.11471E-05   -0.10100E-04  6336   0.242E-03 0.269E-03
  25 F= -.42527837E+03 E0= -.42526951E+03  d E =-.148326E-01  mag=    10.0000
       N       E                     dE             d eps       ncg     rms          ort
SDA:   1    -0.422987243208E+03    0.22911E+01    0.00000E+00  6336   0.575E+01 0.000E+00
CGA:   2    -0.424471481856E+03   -0.14842E+01   -0.14546E+01  6336   0.103E+02 0.214E+00
CGA:   3    -0.424789823451E+03   -0.31834E+00   -0.28804E+00  6336   0.271E+01 0.194E+00
CGA:   4    -0.425062724790E+03   -0.27290E+00   -0.26291E+00  6336   0.184E+01 0.250E+00
CGA:   5    -0.425198255176E+03   -0.13553E+00   -0.13597E+00  6336   0.547E+00-0.277E+00
CGA:   6    -0.425232439897E+03   -0.34185E-01   -0.34247E-01  6336   0.390E+00-0.154E-01
CGA:   7    -0.425244707231E+03   -0.12267E-01   -0.12119E-01  6336   0.172E+00-0.103E-02
CGA:   8    -0.425258504022E+03   -0.13797E-01   -0.13672E-01  6336   0.754E-01 0.979E-02
CGA:   9    -0.425263116030E+03   -0.46120E-02   -0.46032E-02  6336   0.490E-01-0.157E-02
CGA:  10    -0.425265149258E+03   -0.20332E-02   -0.20098E-02  6336   0.354E-01-0.105E-02
CGA:  11    -0.425267588305E+03   -0.24390E-02   -0.24323E-02  6336   0.116E-01 0.130E-02
CGA:  12    -0.425268643356E+03   -0.10551E-02   -0.11637E-02  6336   0.263E-01-0.341E-02
CGA:  13    -0.425269369359E+03   -0.72600E-03   -0.70102E-03  6336   0.137E-01-0.897E-03
CGA:  14    -0.425269759231E+03   -0.38987E-03   -0.44286E-03  6336   0.541E-02 0.195E-02
CGA:  15    -0.425269892947E+03   -0.13372E-03   -0.15988E-03  6336   0.306E-02 0.670E-03
CGA:  16    -0.425270522604E+03   -0.62966E-03   -0.77662E-03  6336   0.205E-01-0.900E-03
CGA:  17    -0.425270771035E+03   -0.24843E-03   -0.21772E-03  6336   0.638E-02-0.562E-03
CGA:  18    -0.425270859923E+03   -0.88888E-04   -0.72377E-04  6336   0.176E-02-0.318E-03
CGA:  19    -0.425270946950E+03   -0.87027E-04   -0.67998E-04  6336   0.578E-02-0.814E-03
CGA:  20    -0.425271098155E+03   -0.15121E-03   -0.85578E-04  6336   0.146E-01-0.187E-02
CGA:  21    -0.425271335832E+03   -0.23768E-03   -0.14047E-03  6336   0.987E-02-0.216E-02
CGA:  22    -0.425271436820E+03   -0.10099E-03   -0.80772E-04  6336   0.446E-02-0.457E-03
CGA:  23    -0.425271460127E+03   -0.23307E-04   -0.46612E-04  6336   0.380E-02 0.501E-03
CGA:  24    -0.425271460937E+03   -0.80979E-06   -0.52764E-04  6336   0.387E-02 0.132E-02
CGA:  25    -0.425271454075E+03    0.68614E-05   -0.58172E-04  6336   0.211E-02 0.170E-02
CGA:  26    -0.425271449504E+03    0.45711E-05   -0.29026E-04  6336   0.802E-03 0.833E-03
CGA:  27    -0.425271453679E+03   -0.41755E-05   -0.14109E-04  6336   0.685E-03 0.279E-03
CGA:  28    -0.425271474963E+03   -0.21284E-04   -0.22907E-04  6336   0.145E-02 0.745E-04
CGA:  29    -0.425271510515E+03   -0.35552E-04   -0.32478E-04  6336   0.227E-02-0.129E-03
CGA:  30    -0.425271541189E+03   -0.30675E-04   -0.26002E-04  6336   0.237E-02-0.156E-03
CGA:  31    -0.425271570940E+03   -0.29751E-04   -0.27036E-04  6336   0.244E-02-0.979E-04
SDA:  32    -0.425271598395E+03   -0.27455E-04   -0.26806E-04  6336   0.193E-02-0.149E-04
CGA:  33    -0.425271646432E+03   -0.48037E-04   -0.47723E-04  6336   0.532E-03-0.301E-04
CGA:  34    -0.425271688720E+03   -0.42288E-04    0.22691E-03  6336   0.178E-03 0.145E-03
CGA:  35    -0.425271721123E+03   -0.32403E-04    0.51219E-05  6336   0.138E-03 0.137E-03
CGA:  36    -0.425271724642E+03   -0.35188E-05   -0.40895E-05  6336   0.997E-04 0.626E-04
  26 F= -.42527172E+03 E0= -.42526305E+03  d E =0.664552E-02  mag=    10.0000
       N       E                     dE             d eps       ncg     rms          ort
SDA:   1    -0.424328823282E+03    0.94290E+00    0.00000E+00  6336   0.277E+01 0.000E+00
CGA:   2    -0.424536211990E+03   -0.20739E+00   -0.20807E+00  6336   0.734E+01-0.915E-02
CGA:   3    -0.425077591988E+03   -0.54138E+00   -0.54642E+00  6336   0.954E+00-0.142E+00
CGA:   4    -0.425165717070E+03   -0.88125E-01   -0.93352E-01  6336   0.137E+01-0.104E+00
CGA:   5    -0.425230259326E+03   -0.64542E-01   -0.64473E-01  6336   0.385E+00-0.102E-02
CGA:   6    -0.425241638676E+03   -0.11379E-01   -0.11167E-01  6336   0.126E+00-0.127E-01
CGA:   7    -0.425254305941E+03   -0.12667E-01   -0.14098E-01  6336   0.194E+00-0.201E-01
CGA:   8    -0.425259348779E+03   -0.50428E-02   -0.51145E-02  6336   0.515E-01 0.453E-02
CGA:   9    -0.425261407648E+03   -0.20589E-02   -0.21206E-02  6336   0.216E-01 0.106E-01
CGA:  10    -0.425262571897E+03   -0.11642E-02   -0.11715E-02  6336   0.146E-01 0.524E-02
CGA:  11    -0.425263379489E+03   -0.80759E-03   -0.80881E-03  6336   0.137E-01 0.650E-03
CGA:  12    -0.425264677696E+03   -0.12982E-02   -0.16908E-02  6336   0.141E-01-0.546E-02
CGA:  13    -0.425264874541E+03   -0.19685E-03   -0.19608E-03  6336   0.572E-02 0.964E-04
CGA:  14    -0.425265003017E+03   -0.12848E-03   -0.14043E-03  6336   0.363E-02 0.592E-03
CGA:  15    -0.425265244128E+03   -0.24111E-03   -0.23941E-03  6336   0.812E-02 0.152E-03
CGA:  16    -0.425265709928E+03   -0.46580E-03   -0.48547E-03  6336   0.758E-02-0.210E-02
CGA:  17    -0.425265855843E+03   -0.14592E-03   -0.11978E-03  6336   0.295E-02-0.102E-02
CGA:  18    -0.425265909426E+03   -0.53583E-04   -0.54604E-04  6336   0.192E-02 0.354E-04
CGA:  19    -0.425265934541E+03   -0.25115E-04   -0.42660E-04  6336   0.188E-02 0.746E-03
CGA:  20    -0.425265962248E+03   -0.27707E-04   -0.57719E-04  6336   0.158E-02 0.135E-02
CGA:  21    -0.425266070909E+03   -0.10866E-03   -0.10438E-03  6336   0.111E-02 0.197E-03
CGA:  22    -0.425266199458E+03   -0.12855E-03    0.18512E-03  6336   0.575E-03 0.821E-03
CGA:  23    -0.425266243831E+03   -0.44373E-04   -0.58488E-04  6336   0.162E-02-0.248E-03
CGA:  24    -0.425266265386E+03   -0.21555E-04   -0.26215E-04  6336   0.148E-02 0.244E-03
CGA:  25    -0.425266292793E+03   -0.27407E-04   -0.40066E-04  6336   0.779E-03 0.552E-03
CGA:  26    -0.425266309522E+03   -0.16729E-04   -0.23274E-04  6336   0.212E-03 0.283E-03
CGA:  27    -0.425266340783E+03   -0.31261E-04    0.28303E-04  6336   0.422E-03-0.474E-04
CGA:  28    -0.425266409182E+03   -0.68399E-04    0.53207E-05  6336   0.711E-03-0.188E-03
CGA:  29    -0.425266453844E+03   -0.44662E-04    0.30893E-04  6336   0.193E-02-0.123E-02
CGA:  30    -0.425266464397E+03   -0.10553E-04   -0.33626E-04  6336   0.653E-03 0.857E-03
CGA:  31    -0.425266457201E+03    0.71959E-05   -0.11851E-04  6336   0.401E-03 0.632E-03
  27 F= -.42526646E+03 E0= -.42525767E+03  d E =0.526744E-02  mag=    10.0000
       N       E                     dE             d eps       ncg     rms          ort
SDA:   1    -0.424263893421E+03    0.10026E+01    0.00000E+00  6336   0.271E+01 0.000E+00
CGA:   2    -0.424784653788E+03   -0.52076E+00   -0.85649E-03  6336   0.108E+02-0.629E+00
CGA:   3    -0.424963682367E+03   -0.17903E+00   -0.17155E+00  6336   0.245E+01 0.109E+00
CGA:   4    -0.425038532278E+03   -0.74850E-01   -0.74377E-01  6336   0.295E+01-0.142E-01
CGA:   5    -0.425152013184E+03   -0.11348E+00   -0.96388E-01  6336   0.193E+01 0.447E+00
CGA:   6    -0.425194398271E+03   -0.42385E-01   -0.44009E-01  6336   0.998E+00-0.233E-01
CGA:   7    -0.425229058709E+03   -0.34660E-01   -0.33620E-01  6336   0.868E+00 0.277E-01
CGA:   8    -0.425246785506E+03   -0.17727E-01   -0.18424E-01  6336   0.342E+00-0.316E-01
CGA:   9    -0.425256390415E+03   -0.96049E-02   -0.94737E-02  6336   0.264E+00-0.200E-01
CGA:  10    -0.425263016140E+03   -0.66257E-02   -0.64532E-02  6336   0.103E+00-0.166E-01
CGA:  11    -0.425267019451E+03   -0.40033E-02   -0.40430E-02  6336   0.179E+00 0.223E-02
CGA:  12    -0.425273937428E+03   -0.69180E-02   -0.70869E-02  6336   0.627E-01 0.134E-01
CGA:  13    -0.425275172358E+03   -0.12349E-02   -0.12747E-02  6336   0.187E-01 0.565E-03
CGA:  14    -0.425276613807E+03   -0.14414E-02   -0.17357E-02  6336   0.525E-01-0.771E-02
CGA:  15    -0.425277393383E+03   -0.77958E-03   -0.67225E-03  6336   0.389E-01-0.308E-02
CGA:  16    -0.425278148524E+03   -0.75514E-03   -0.79440E-03  6336   0.253E-01 0.142E-02
CGA:  17    -0.425278502086E+03   -0.35356E-03   -0.43885E-03  6336   0.854E-02 0.348E-02
CGA:  18    -0.425278596378E+03   -0.94292E-04   -0.14805E-03  6336   0.452E-02 0.143E-02
CGA:  19    -0.425278718805E+03   -0.12243E-03   -0.15295E-03  6336   0.755E-02 0.153E-02
CGA:  20    -0.425279005453E+03   -0.28665E-03   -0.31965E-03  6336   0.516E-02 0.207E-02
CGA:  21    -0.425279167221E+03   -0.16177E-03   -0.16419E-03  6336   0.446E-02 0.781E-04
CGA:  22    -0.425279440489E+03   -0.27327E-03   -0.32782E-03  6336   0.967E-02-0.205E-02
CGA:  23    -0.425279506258E+03   -0.65769E-04   -0.48875E-04  6336   0.437E-02-0.479E-03
CGA:  24    -0.425279542496E+03   -0.36238E-04   -0.34169E-04  6336   0.127E-02-0.831E-04
CGA:  25    -0.425279551891E+03   -0.93954E-05   -0.13437E-04  6336   0.107E-02 0.115E-03
CGA:  26    -0.425279564712E+03   -0.12821E-04   -0.21644E-04  6336   0.216E-02 0.373E-03
CGA:  27    -0.425279628263E+03   -0.63551E-04   -0.80084E-04  6336   0.356E-02 0.126E-02
CGA:  28    -0.425279708541E+03   -0.80278E-04   -0.74225E-04  6336   0.545E-03-0.338E-03
CGA:  29    -0.425279755769E+03   -0.47228E-04    0.43080E-04  6336   0.282E-03 0.378E-03
CGA:  30    -0.425279777934E+03   -0.22165E-04    0.98861E-03  6336   0.241E-03 0.248E-03
CGA:  31    -0.425279846639E+03   -0.68705E-04   -0.51312E-05  6336   0.183E-02-0.186E-05
CGA:  32    -0.425279912529E+03   -0.65890E-04   -0.66368E-04  6336   0.736E-04 0.870E-05
CGA:  33    -0.425279911603E+03    0.92565E-06   -0.19804E-05  6336   0.686E-04 0.680E-04
  28 F= -.42527991E+03 E0= -.42527119E+03  d E =-.134544E-01  mag=    10.0000
       N       E                     dE             d eps       ncg     rms          ort
SDA:   1    -0.425108379502E+03    0.17153E+00    0.00000E+00  6336   0.536E+00 0.000E+00
CGA:   2    -0.425145623596E+03   -0.37244E-01   -0.37221E-01  6336   0.129E+01 0.190E-02
CGA:   3    -0.425237868196E+03   -0.92245E-01   -0.92250E-01  6336   0.172E+00-0.303E-02
CGA:   4    -0.425266210588E+03   -0.28342E-01   -0.28711E-01  6336   0.153E+00-0.334E-02
CGA:   5    -0.425271591944E+03   -0.53814E-02   -0.54537E-02  6336   0.420E-01 0.634E-02
CGA:   6    -0.425272927315E+03   -0.13354E-02   -0.14169E-02  6336   0.234E-01 0.217E-02
CGA:   7    -0.425276187140E+03   -0.32598E-02   -0.33603E-02  6336   0.381E-02-0.146E-02
CGA:   8    -0.425276500757E+03   -0.31362E-03   -0.30682E-03  6336   0.680E-02 0.468E-03
CGA:   9    -0.425276778965E+03   -0.27821E-03   -0.30240E-03  6336   0.209E-02 0.713E-03
CGA:  10    -0.425276947552E+03   -0.16859E-03   -0.16948E-03  6336   0.204E-02-0.320E-03
CGA:  11    -0.425277064497E+03   -0.11695E-03   -0.10873E-03  6336   0.269E-02-0.108E-02
CGA:  12    -0.425277115267E+03   -0.50769E-04   -0.55827E-04  6336   0.557E-03 0.944E-04
CGA:  13    -0.425277128850E+03   -0.13583E-04   -0.22723E-04  6336   0.273E-03 0.325E-03
CGA:  14    -0.425277136528E+03   -0.76784E-05   -0.10916E-04  6336   0.262E-03 0.123E-03
CGA:  15    -0.425277170970E+03   -0.34442E-04   -0.31575E-04  6336   0.156E-03 0.158E-03
CGA:  16    -0.425277200282E+03   -0.29312E-04    0.12151E-04  6336   0.382E-03-0.677E-04
CGA:  17    -0.425277251369E+03   -0.51087E-04    0.90340E-05  6336   0.811E-03-0.745E-04
CGA:  18    -0.425277284312E+03   -0.32943E-04   -0.32255E-04  6336   0.108E-02-0.433E-04
CGA:  19    -0.425277289041E+03   -0.47286E-05   -0.18718E-04  6336   0.250E-03 0.302E-03
  29 F= -.42527729E+03 E0= -.42526858E+03  d E =0.262256E-02  mag=    10.0000
       N       E                     dE             d eps       ncg     rms          ort
SDA:   1    -0.423032075302E+03    0.22452E+01    0.00000E+00  6336   0.343E+02 0.000E+00
CGA:   2    -0.424767893472E+03   -0.17358E+01   -0.84973E+00  6336   0.378E+01 0.799E+01
CGA:   3    -0.424847170064E+03   -0.79277E-01   -0.77044E-01  6336   0.227E+01-0.507E-01
CGA:   4    -0.424924609638E+03   -0.77440E-01   -0.86207E-01  6336   0.357E+01-0.769E-02
CGA:   5    -0.425017299085E+03   -0.92689E-01   -0.88982E-01  6336   0.235E+01 0.257E-01
CGA:   6    -0.425158495469E+03   -0.14120E+00   -0.14490E+00  6336   0.311E+01-0.323E+00
CGA:   7    -0.425190652207E+03   -0.32157E-01   -0.28932E-01  6336   0.141E+01 0.331E+00
CGA:   8    -0.425209426122E+03   -0.18774E-01   -0.19257E-01  6336   0.676E+00-0.279E-01
CGA:   9    -0.425221408163E+03   -0.11982E-01   -0.12467E-01  6336   0.756E+00-0.255E-01
CGA:  10    -0.425235319334E+03   -0.13911E-01   -0.14467E-01  6336   0.492E+00-0.161E-01
CGA:  11    -0.425242452800E+03   -0.71335E-02   -0.72854E-02  6336   0.329E+00-0.768E-03
CGA:  12    -0.425250768576E+03   -0.83158E-02   -0.84097E-02  6336   0.442E+00 0.695E-02
CGA:  13    -0.425258178270E+03   -0.74097E-02   -0.71216E-02  6336   0.236E+00 0.274E-01
CGA:  14    -0.425261562674E+03   -0.33844E-02   -0.33922E-02  6336   0.106E+00-0.530E-02
CGA:  15    -0.425263706158E+03   -0.21435E-02   -0.19774E-02  6336   0.936E-01-0.934E-02
CGA:  16    -0.425265518733E+03   -0.18126E-02   -0.17047E-02  6336   0.517E-01-0.127E-01
CGA:  17    -0.425266208435E+03   -0.68970E-03   -0.65451E-03  6336   0.306E-01-0.166E-02
CGA:  18    -0.425266818633E+03   -0.61020E-03   -0.67461E-03  6336   0.403E-01 0.389E-02
CGA:  19    -0.425267637891E+03   -0.81926E-03   -0.94565E-03  6336   0.256E-01 0.828E-02
CGA:  20    -0.425268077273E+03   -0.43938E-03   -0.50772E-03  6336   0.134E-01 0.303E-02
CGA:  21    -0.425268585689E+03   -0.50842E-03   -0.50634E-03  6336   0.227E-01-0.135E-02
CGA:  22    -0.425269131115E+03   -0.54543E-03   -0.51611E-03  6336   0.172E-01-0.342E-02
CGA:  23    -0.425269383216E+03   -0.25210E-03   -0.23867E-03  6336   0.112E-01-0.836E-03
CGA:  24    -0.425269580349E+03   -0.19713E-03   -0.21104E-03  6336   0.920E-02 0.999E-03
CGA:  25    -0.425269706171E+03   -0.12582E-03   -0.14822E-03  6336   0.321E-02 0.122E-02
CGA:  26    -0.425269758227E+03   -0.52056E-04   -0.55511E-04  6336   0.193E-02 0.166E-03
CGA:  27    -0.425269826948E+03   -0.68721E-04   -0.15731E-03  6336   0.161E-01-0.194E-02
CGA:  28    -0.425270097887E+03   -0.27094E-03   -0.27599E-03  6336   0.595E-03 0.166E-03
CGA:  29    -0.425270129602E+03   -0.31716E-04   -0.26265E-04  6336   0.517E-03 0.509E-03
CGA:  30    -0.425270209854E+03   -0.80251E-04   -0.18690E-07  6336   0.604E-02-0.198E-03
CGA:  31    -0.425270334358E+03   -0.12450E-03   -0.11726E-03  6336   0.567E-02-0.240E-03
CGA:  32    -0.425270407834E+03   -0.73476E-04   -0.71983E-04  6336   0.878E-03-0.853E-04
CGA:  33    -0.425270422292E+03   -0.14458E-04   -0.15982E-04  6336   0.658E-03 0.335E-04
CGA:  34    -0.425270450262E+03   -0.27970E-04   -0.28579E-04  6336   0.118E-02 0.451E-04
CGA:  35    -0.425270500563E+03   -0.50302E-04   -0.45991E-04  6336   0.154E-02-0.242E-03
CGA:  36    -0.425270566654E+03   -0.66090E-04   -0.68950E-04  6336   0.280E-02-0.109E-02
CGA:  37    -0.425270607398E+03   -0.40744E-04   -0.53051E-04  6336   0.474E-03 0.334E-03
CGA:  38    -0.425270606069E+03    0.13286E-05   -0.10497E-04  6336   0.291E-03 0.366E-03
  30 F= -.42527061E+03 E0= -.42526201E+03  d E =0.668297E-02  mag=    10.0000
[...]
CGA:   2    -0.424532980101E+03   -0.95684E+00   -0.10365E+01  6336   0.142E+02-0.547E+00
CGA:   3    -0.424918161295E+03   -0.38518E+00   -0.44169E+00  6336   0.164E+01-0.987E+00
CGA:   4    -0.425024732480E+03   -0.10657E+00   -0.10685E+00  6336   0.241E+01 0.154E-02
CGA:   5    -0.425152165209E+03   -0.12743E+00   -0.12693E+00  6336   0.108E+01-0.165E-01
CGA:   6    -0.425187778001E+03   -0.35613E-01   -0.33493E-01  6336   0.133E+00 0.695E-01
CGA:   7    -0.425198456801E+03   -0.10679E-01   -0.10663E-01  6336   0.198E+00 0.733E-02
CGA:   8    -0.425211233408E+03   -0.12777E-01   -0.12771E-01  6336   0.886E-01 0.407E-04
CGA:   9    -0.425215263111E+03   -0.40297E-02   -0.38120E-02  6336   0.440E-01-0.793E-02
CGA:  10    -0.425217619271E+03   -0.23562E-02   -0.23105E-02  6336   0.269E-01-0.425E-02
CGA:  11    -0.425218774642E+03   -0.11554E-02   -0.11777E-02  6336   0.196E-01 0.964E-03
CGA:  12    -0.425220219179E+03   -0.14445E-02   -0.14390E-02  6336   0.698E-02 0.346E-02
CGA:  13    -0.425220645686E+03   -0.42651E-03   -0.41308E-03  6336   0.627E-02-0.769E-03
CGA:  14    -0.425221070025E+03   -0.42434E-03   -0.43067E-03  6336   0.959E-02-0.724E-03
CGA:  15    -0.425221457768E+03   -0.38774E-03   -0.39118E-03  6336   0.136E-02 0.158E-03
CGA:  16    -0.425221690126E+03   -0.23236E-03   -0.26656E-03  6336   0.665E-02-0.272E-03
CGA:  17    -0.425221965565E+03   -0.27544E-03   -0.24590E-03  6336   0.418E-02-0.108E-02
CGA:  18    -0.425222114546E+03   -0.14898E-03   -0.12033E-03  6336   0.123E-02-0.801E-03
CGA:  19    -0.425222135712E+03   -0.21166E-04   -0.33405E-04  6336   0.112E-02 0.335E-03
CGA:  20    -0.425222157846E+03   -0.22134E-04   -0.48326E-04  6336   0.711E-03 0.759E-03
CGA:  21    -0.425222054824E+03    0.10302E-03   -0.21084E-03  6336   0.176E-01-0.136E-02
CGA:  22    -0.425222395995E+03   -0.34117E-03   -0.34001E-03  6336   0.141E-02 0.123E-05
CGA:  23    -0.425222425964E+03   -0.29969E-04   -0.46470E-04  6336   0.229E-03 0.399E-03
CGA:  24    -0.425222420082E+03    0.58811E-05   -0.50623E-05  6336   0.136E-03 0.196E-03
  90 F= -.42522242E+03 E0= -.42521411E+03  d E =0.152324E-01  mag=    10.0000
       N       E                     dE             d eps       ncg     rms          ort
SDA:   1    -0.424349397939E+03    0.87303E+00    0.00000E+00  6336   0.218E+01 0.000E+00
CGA:   2    -0.425048510835E+03   -0.69911E+00   -0.70594E+00  6336   0.807E+00-0.269E-01
CGA:   3    -0.425164547740E+03   -0.11604E+00   -0.11440E+00  6336   0.111E+01 0.253E-01
CGA:   4    -0.425197733106E+03   -0.33185E-01   -0.32412E-01  6336   0.294E+00 0.755E-02
CGA:   5    -0.425215524126E+03   -0.17791E-01   -0.17925E-01  6336   0.127E+00-0.108E-01
CGA:   6    -0.425223732497E+03   -0.82084E-02   -0.82135E-02  6336   0.728E-01 0.252E-02
CGA:   7    -0.425227341799E+03   -0.36093E-02   -0.37326E-02  6336   0.622E-01 0.378E-02
CGA:   8    -0.425229930615E+03   -0.25888E-02   -0.26255E-02  6336   0.104E-01 0.177E-02
CGA:   9    -0.425231798825E+03   -0.18682E-02   -0.20588E-02  6336   0.225E-01-0.163E-02
CGA:  10    -0.425232283377E+03   -0.48455E-03   -0.44732E-03  6336   0.416E-02-0.641E-03
CGA:  11    -0.425232508368E+03   -0.22499E-03   -0.23129E-03  6336   0.382E-02 0.301E-03
CGA:  12    -0.425232605679E+03   -0.97311E-04   -0.13282E-03  6336   0.250E-02 0.768E-03
CGA:  13    -0.425232738807E+03   -0.13313E-03   -0.15447E-03  6336   0.175E-02 0.893E-03
CGA:  14    -0.425232920789E+03   -0.18198E-03   -0.18620E-03  6336   0.650E-02-0.113E-02
CGA:  15    -0.425233046347E+03   -0.12556E-03   -0.12137E-03  6336   0.415E-03-0.842E-04
CGA:  16    -0.425233105387E+03   -0.59040E-04    0.42210E-02  6336   0.445E-03 0.724E-04
CGA:  17    -0.425233165799E+03   -0.60412E-04   -0.52178E-04  6336   0.157E-03 0.295E-03
CGA:  18    -0.425233169038E+03   -0.32386E-05   -0.38501E-04  6336   0.280E-02-0.206E-03
CGA:  19    -0.425233232099E+03   -0.63061E-04   -0.59969E-04  6336   0.353E-03-0.533E-04
CGA:  20    -0.425233247436E+03   -0.15337E-04   -0.14675E-04  6336   0.151E-03-0.182E-04
CGA:  21    -0.425233245129E+03    0.23064E-05   -0.37880E-05  6336   0.117E-03 0.121E-03
  91 F= -.42523325E+03 E0= -.42522489E+03  d E =-.108250E-01  mag=    10.0000
       N       E                     dE             d eps       ncg     rms          ort
SDA:   1    -0.424003087152E+03    0.12302E+01    0.00000E+00  6336   0.369E+01 0.000E+00
CGA:   2    -0.424259744534E+03   -0.25666E+00   -0.25701E+00  6336   0.912E+01 0.375E-01
CGA:   3    -0.425042634744E+03   -0.78289E+00   -0.78420E+00  6336   0.773E+00-0.659E-01
CGA:   4    -0.425161790318E+03   -0.11916E+00   -0.11863E+00  6336   0.189E+01 0.596E-02
CGA:   5    -0.425211461643E+03   -0.49671E-01   -0.50673E-01  6336   0.117E+00-0.351E-01
CGA:   6    -0.425222158631E+03   -0.10697E-01   -0.10672E-01  6336   0.159E+00 0.140E-02
CGA:   7    -0.425229189666E+03   -0.70310E-02   -0.72018E-02  6336   0.848E-01 0.299E-02
CGA:   8    -0.425232819114E+03   -0.36294E-02   -0.36665E-02  6336   0.255E-01 0.826E-03
CGA:   9    -0.425235122739E+03   -0.23036E-02   -0.24644E-02  6336   0.328E-01-0.708E-02
CGA:  10    -0.425236011279E+03   -0.88854E-03   -0.87678E-03  6336   0.200E-01-0.401E-03
CGA:  11    -0.425236828041E+03   -0.81676E-03   -0.92065E-03  6336   0.520E-02 0.448E-02
CGA:  12    -0.425237010030E+03   -0.18199E-03   -0.21775E-03  6336   0.403E-02 0.973E-03
CGA:  13    -0.425237286425E+03   -0.27639E-03   -0.28340E-03  6336   0.344E-02 0.773E-03
CGA:  14    -0.425237739701E+03   -0.45328E-03   -0.46945E-03  6336   0.649E-02-0.353E-03
CGA:  15    -0.425237892049E+03   -0.15235E-03   -0.12996E-03  6336   0.118E-02-0.512E-03
CGA:  16    -0.425237813161E+03    0.78888E-04   -0.20950E-03  6336   0.260E-01-0.231E-02
CGA:  17    -0.425238222515E+03   -0.40935E-03   -0.46669E-03  6336   0.137E-02 0.697E-03
CGA:  18    -0.425238226281E+03   -0.37660E-05   -0.36851E-04  6336   0.581E-03 0.739E-03
CGA:  19    -0.425238241899E+03   -0.15617E-04   -0.24695E-04  6336   0.478E-03 0.338E-03
CGA:  20    -0.425238262059E+03   -0.20160E-04   -0.22432E-04  6336   0.656E-03 0.106E-03
CGA:  21    -0.425238344704E+03   -0.82645E-04   -0.74529E-04  6336   0.159E-03 0.310E-03
CGA:  22    -0.425238377142E+03   -0.32438E-04    0.51307E-03  6336   0.172E-03 0.125E-03
CGA:  23    -0.425238385944E+03   -0.88017E-05   -0.78406E-05  6336   0.311E-03-0.442E-04
  92 F= -.42523839E+03 E0= -.42523033E+03  d E =-.514081E-02  mag=    10.0000
       N       E                     dE             d eps       ncg     rms          ort
SDA:   1    -0.424543660393E+03    0.69472E+00    0.00000E+00  6336   0.125E+02 0.000E+00
CGA:   2    -0.424676305826E+03   -0.13265E+00   -0.43493E+00  6336   0.111E+02-0.102E+02
CGA:   3    -0.424800347814E+03   -0.12404E+00   -0.34174E+00  6336   0.730E+01-0.757E+01
CGA:   4    -0.424893062124E+03   -0.92714E-01   -0.21902E+00  6336   0.427E+01-0.418E+01
CGA:   5    -0.424976145786E+03   -0.83084E-01   -0.10177E+00  6336   0.115E+01-0.888E+00
CGA:   6    -0.425121060331E+03   -0.14491E+00   -0.14504E+00  6336   0.234E+01-0.342E-02
CGA:   7    -0.425197637769E+03   -0.76577E-01   -0.79230E-01  6336   0.345E+00-0.871E-01
CGA:   8    -0.425209832521E+03   -0.12195E-01   -0.12574E-01  6336   0.154E+00-0.604E-02
CGA:   9    -0.425222381978E+03   -0.12549E-01   -0.12547E-01  6336   0.203E+00-0.889E-03
CGA:  10    -0.425231965865E+03   -0.95839E-02   -0.95595E-02  6336   0.505E-01-0.977E-03
CGA:  11    -0.425233700671E+03   -0.17348E-02   -0.17236E-02  6336   0.153E-01-0.504E-03
CGA:  12    -0.425234789950E+03   -0.10893E-02   -0.10911E-02  6336   0.199E-01-0.901E-05
CGA:  13    -0.425236110730E+03   -0.13208E-02   -0.13051E-02  6336   0.114E-01-0.657E-03
CGA:  14    -0.425236514223E+03   -0.40349E-03   -0.39718E-03  6336   0.254E-02-0.156E-03
CGA:  15    -0.425236655867E+03   -0.14164E-03   -0.14025E-03  6336   0.274E-02-0.578E-04
CGA:  16    -0.425236897552E+03   -0.24169E-03   -0.24121E-03  6336   0.251E-02 0.169E-03
CGA:  17    -0.425237016638E+03   -0.11909E-03   -0.11343E-03  6336   0.119E-02-0.141E-03
CGA:  18    -0.425237095873E+03   -0.79235E-04   -0.77356E-04  6336   0.138E-02-0.118E-03
CGA:  19    -0.425237187326E+03   -0.91453E-04   -0.89334E-04  6336   0.123E-02-0.181E-03
CGA:  20    -0.425237231331E+03   -0.44006E-04   -0.44351E-04  6336   0.305E-03 0.427E-05
CGA:  21    -0.425237256596E+03   -0.25264E-04   -0.25428E-04  6336   0.921E-03-0.114E-03
CGA:  22    -0.425237311501E+03   -0.54905E-04   -0.62711E-04  6336   0.284E-03-0.289E-03
CGA:  23    -0.425237314635E+03   -0.31339E-05   -0.38597E-05  6336   0.124E-03 0.110E-04
  93 F= -.42523731E+03 E0= -.42522909E+03  d E =0.107131E-02  mag=    10.0000
       N       E                     dE             d eps       ncg     rms          ort
SDA:   1    -0.425203793695E+03    0.33518E-01    0.00000E+00  6336   0.402E+00 0.000E+00
CGA:   2    -0.425212465806E+03   -0.86721E-02   -0.92185E-02  6336   0.996E-01-0.104E-01
CGA:   3    -0.425219544903E+03   -0.70791E-02   -0.70826E-02  6336   0.119E+00 0.255E-02
CGA:   4    -0.425232256269E+03   -0.12711E-01   -0.12871E-01  6336   0.265E-01-0.588E-02
CGA:   5    -0.425233697847E+03   -0.14416E-02   -0.14989E-02  6336   0.257E-01 0.325E-02
CGA:   6    -0.425234941911E+03   -0.12441E-02   -0.12904E-02  6336   0.156E-01 0.136E-02
CGA:   7    -0.425236071210E+03   -0.11293E-02   -0.11129E-02  6336   0.604E-02-0.242E-02
CGA:   8    -0.425236291529E+03   -0.22032E-03   -0.21078E-03  6336   0.273E-02-0.321E-03
CGA:   9    -0.425236382142E+03   -0.90612E-04   -0.98036E-04  6336   0.113E-02 0.212E-03
CGA:  10    -0.425236568939E+03   -0.18680E-03   -0.19436E-03  6336   0.545E-03-0.858E-04
CGA:  11    -0.425236568193E+03    0.74557E-06   -0.10469E-04  6336   0.196E-03 0.204E-03
  94 F= -.42523657E+03 E0= -.42522834E+03  d E =0.746442E-03  mag=    10.0000
       N       E                     dE             d eps       ncg     rms          ort
SDA:   1    -0.425221351308E+03    0.15218E-01    0.00000E+00  6336   0.196E+00 0.000E+00
CGA:   2    -0.425225112098E+03   -0.37608E-02   -0.38493E-02  6336   0.304E-01-0.160E-02
CGA:   3    -0.425233980257E+03   -0.88682E-02   -0.89878E-02  6336   0.139E-01-0.517E-03
CGA:   4    -0.425234729414E+03   -0.74916E-03   -0.74572E-03  6336   0.107E-01-0.191E-03
CGA:   5    -0.425235197566E+03   -0.46815E-03   -0.49221E-03  6336   0.798E-02 0.784E-03
CGA:   6    -0.425235581176E+03   -0.38361E-03   -0.41229E-03  6336   0.187E-02 0.107E-02
CGA:   7    -0.425235898868E+03   -0.31769E-03    0.34186E-01  6336   0.398E-03 0.172E-03
CGA:   8    -0.425235938593E+03   -0.39724E-04   -0.37529E-04  6336   0.409E-03 0.190E-03
CGA:   9    -0.425235950369E+03   -0.11776E-04   -0.19586E-04  6336   0.137E-03 0.180E-03
CGA:  10    -0.425235976922E+03   -0.26554E-04   -0.26926E-04  6336   0.355E-03-0.624E-05
CGA:  11    -0.425235990870E+03   -0.13948E-04   -0.11774E-04  6336   0.705E-04-0.531E-04
CGA:  12    -0.425236009706E+03   -0.18836E-04    0.19986E-05  6336   0.448E-04 0.463E-05
CGA:  13    -0.425236023840E+03   -0.14134E-04    0.17872E-05  6336   0.585E-04 0.158E-04
CGA:  14    -0.425236025670E+03   -0.18296E-05   -0.29868E-05  6336   0.254E-04 0.315E-04
  95 F= -.42523603E+03 E0= -.42522780E+03  d E =0.542523E-03  mag=    10.0000
       N       E                     dE             d eps       ncg     rms          ort
SDA:   1    -0.425167155649E+03    0.68868E-01    0.00000E+00  6336   0.191E+00 0.000E+00
CGA:   2    -0.425182778846E+03   -0.15623E-01   -0.15651E-01  6336   0.566E+00-0.296E-02
CGA:   3    -0.425222577191E+03   -0.39798E-01   -0.39808E-01  6336   0.676E-01-0.607E-02
CGA:   4    -0.425226804160E+03   -0.42270E-02   -0.42656E-02  6336   0.414E-01 0.799E-02
CGA:   5    -0.425230362410E+03   -0.35582E-02   -0.35533E-02  6336   0.463E-01 0.678E-03
CGA:   6    -0.425232090110E+03   -0.17277E-02   -0.16379E-02  6336   0.164E-01-0.242E-02
CGA:   7    -0.425233070641E+03   -0.98053E-03   -0.96585E-03  6336   0.320E-02-0.251E-02
CGA:   8    -0.425233379412E+03   -0.30877E-03   -0.34238E-03  6336   0.970E-02-0.584E-03
CGA:   9    -0.425233600892E+03   -0.22148E-03   -0.23788E-03  6336   0.129E-02 0.377E-03
CGA:  10    -0.425233614787E+03   -0.13895E-04   -0.32109E-04  6336   0.588E-03 0.410E-03
CGA:  11    -0.425233626313E+03   -0.11526E-04   -0.22122E-04  6336   0.384E-03 0.281E-03
CGA:  12    -0.425233678313E+03   -0.51999E-04   -0.55677E-04  6336   0.174E-02-0.112E-03
CGA:  13    -0.425233707733E+03   -0.29421E-04   -0.20432E-04  6336   0.136E-02-0.181E-03
CGA:  14    -0.425233726403E+03   -0.18669E-04   -0.12546E-04  6336   0.389E-03-0.116E-03
CGA:  15    -0.425233732516E+03   -0.61134E-05   -0.42645E-05  6336   0.224E-03-0.387E-04
  96 F= -.42523373E+03 E0= -.42522550E+03  d E =0.229315E-02  mag=    10.0000
       N       E                     dE             d eps       ncg     rms          ort
SDA:   1    -0.425209156438E+03    0.24570E-01    0.00000E+00  6336   0.846E+00 0.000E+00
CGA:   2    -0.425224213230E+03   -0.15057E-01   -0.14955E-01  6336   0.318E-01 0.114E-02
CGA:   3    -0.425228370626E+03   -0.41574E-02   -0.55984E-02  6336   0.981E-01-0.114E-01
CGA:   4    -0.425231412087E+03   -0.30415E-02   -0.30583E-02  6336   0.449E-01 0.177E-02
CGA:   5    -0.425232458010E+03   -0.10459E-02   -0.11830E-02  6336   0.142E-01 0.645E-02
CGA:   6    -0.425232972020E+03   -0.51401E-03   -0.60185E-03  6336   0.117E-01 0.434E-02
CGA:   7    -0.425233639666E+03   -0.66765E-03   -0.69449E-03  6336   0.647E-02 0.233E-02
CGA:   8    -0.425234103556E+03   -0.46389E-03   -0.47617E-03  6336   0.621E-02-0.277E-02
CGA:   9    -0.425234252235E+03   -0.14868E-03   -0.12004E-03  6336   0.331E-02-0.124E-02
CGA:  10    -0.425234298678E+03   -0.46443E-04   -0.52310E-04  6336   0.137E-02 0.195E-03
CGA:  11    -0.425234315166E+03   -0.16488E-04   -0.30224E-04  6336   0.107E-02 0.424E-03
CGA:  12    -0.425234351870E+03   -0.36704E-04   -0.47102E-04  6336   0.143E-02 0.556E-03
CGA:  13    -0.425234421141E+03   -0.69271E-04   -0.12813E-03  6336   0.421E-02-0.154E-02
CGA:  14    -0.425234483253E+03   -0.62112E-04   -0.88289E-04  6336   0.565E-03 0.821E-03
CGA:  15    -0.425234485748E+03   -0.24957E-05   -0.12173E-04  6336   0.171E-03 0.289E-03
  97 F= -.42523449E+03 E0= -.42522623E+03  d E =-.753232E-03  mag=    10.0000
       N       E                     dE             d eps       ncg     rms          ort
SDA:   1    -0.424845118027E+03    0.38937E+00    0.00000E+00  6336   0.172E+01 0.000E+00
CGA:   2    -0.424903659411E+03   -0.58541E-01   -0.59007E-01  6336   0.163E+01-0.767E-02
CGA:   3    -0.425173776704E+03   -0.27012E+00   -0.26885E+00  6336   0.485E+00 0.999E-02
CGA:   4    -0.425198988646E+03   -0.25212E-01   -0.25360E-01  6336   0.247E+00 0.890E-02
CGA:   5    -0.425224953587E+03   -0.25965E-01   -0.25650E-01  6336   0.371E+00 0.635E-02
CGA:   6    -0.425234325786E+03   -0.93722E-02   -0.97065E-02  6336   0.239E-01 0.295E-02
CGA:   7    -0.425236854302E+03   -0.25285E-02   -0.25305E-02  6336   0.256E-01-0.897E-05
CGA:   8    -0.425238730530E+03   -0.18762E-02   -0.18292E-02  6336   0.524E-02 0.370E-02
CGA:   9    -0.425236144397E+03    0.25861E-02   -0.15786E-02  6336   0.727E-01-0.145E-01
CGA:  10    -0.425239397358E+03   -0.32530E-02   -0.34046E-02  6336   0.117E-01 0.108E-01
CGA:  11    -0.425239687676E+03   -0.29032E-03   -0.35274E-03  6336   0.283E-02 0.120E-02
CGA:  12    -0.425239814772E+03   -0.12710E-03   -0.14904E-03  6336   0.169E-02 0.426E-03
CGA:  13    -0.425240081893E+03   -0.26712E-03   -0.25520E-03  6336   0.613E-03 0.357E-03
CGA:  14    -0.425237712981E+03    0.23689E-02   -0.13594E-02  6336   0.504E-01-0.509E-02
CGA:  15    -0.425239481634E+03   -0.17687E-02   -0.17371E-02  6336   0.192E-01 0.837E-02
CGA:  16    -0.425239958560E+03   -0.47693E-03   -0.62047E-03  6336   0.124E-02 0.296E-02
CGA:  17    -0.425240000463E+03   -0.41903E-04   -0.95388E-04  6336   0.103E-02 0.544E-03
CGA:  18    -0.425240172187E+03   -0.17172E-03   -0.16994E-03  6336   0.263E-02-0.398E-04
CGA:  19    -0.425240258121E+03   -0.85933E-04   -0.65079E-04  6336   0.310E-03-0.159E-03
CGA:  20    -0.425240281768E+03   -0.23648E-04   -0.97677E-05  6336   0.306E-03-0.118E-03
CGA:  21    -0.425240320373E+03   -0.38605E-04   -0.22683E-04  6336   0.119E-02-0.588E-03
CGA:  22    -0.425240331472E+03   -0.11099E-04   -0.45400E-04  6336   0.205E-03 0.343E-03
CGA:  23    -0.425240321775E+03    0.96976E-05   -0.55788E-05  6336   0.685E-04 0.131E-03
  98 F= -.42524032E+03 E0= -.42523208E+03  d E =-.583603E-02  mag=    10.0000
       N       E                     dE             d eps       ncg     rms          ort
SDA:   1    -0.425202146578E+03    0.38185E-01    0.00000E+00  6336   0.138E+00 0.000E+00
CGA:   2    -0.425216939460E+03   -0.14793E-01   -0.14625E-01  6336   0.325E+00-0.733E-02
CGA:   3    -0.425228612758E+03   -0.11673E-01   -0.11596E-01  6336   0.112E+00-0.348E-02
CGA:   4    -0.425233826679E+03   -0.52139E-02   -0.51990E-02  6336   0.451E-01 0.112E-01
CGA:   5    -0.425237866976E+03   -0.40403E-02   -0.41146E-02  6336   0.544E-01 0.314E-02
CGA:   6    -0.425239754548E+03   -0.18876E-02   -0.18951E-02  6336   0.222E-01 0.299E-03
CGA:   7    -0.425241465927E+03   -0.17114E-02   -0.16440E-02  6336   0.410E-02-0.219E-02
CGA:   8    -0.425241748034E+03   -0.28211E-03   -0.31501E-03  6336   0.269E-02 0.128E-02
CGA:   9    -0.425241977487E+03   -0.22945E-03   -0.24064E-03  6336   0.153E-02 0.267E-03
CGA:  10    -0.425242042942E+03   -0.65455E-04   -0.69280E-04  6336   0.123E-02 0.486E-04
CGA:  11    -0.425242110764E+03   -0.67823E-04   -0.70943E-04  6336   0.373E-03 0.657E-04
CGA:  12    -0.425242193521E+03   -0.82756E-04    0.61722E-03  6336   0.440E-03 0.210E-04
CGA:  13    -0.425242204280E+03   -0.10759E-04   -0.21393E-04  6336   0.249E-03 0.189E-03
CGA:  14    -0.425242198950E+03    0.53296E-05   -0.84276E-05  6336   0.804E-04 0.182E-03
  99 F= -.42524220E+03 E0= -.42523394E+03  d E =-.187718E-02  mag=    10.0000
       N       E                     dE             d eps       ncg     rms          ort
SDA:   1    -0.425152500538E+03    0.89704E-01    0.00000E+00  6336   0.442E+00 0.000E+00
CGA:   2    -0.425165959954E+03   -0.13459E-01   -0.14007E-01  6336   0.348E+00-0.102E-01
CGA:   3    -0.425221090267E+03   -0.55130E-01   -0.54670E-01  6336   0.997E-01 0.644E-02
CGA:   4    -0.425229807361E+03   -0.87171E-02   -0.87045E-02  6336   0.991E-01-0.593E-02
CGA:   5    -0.425237601810E+03   -0.77944E-02   -0.77825E-02  6336   0.122E-01 0.321E-03
CGA:   6    -0.425238402752E+03   -0.80094E-03   -0.84029E-03  6336   0.125E-01 0.169E-02
CGA:   7    -0.425238911671E+03   -0.50892E-03   -0.54153E-03  6336   0.580E-02 0.568E-03
CGA:   8    -0.425239579391E+03   -0.66772E-03   -0.76524E-03  6336   0.810E-02-0.270E-02
CGA:   9    -0.425239661909E+03   -0.82518E-04   -0.72672E-04  6336   0.239E-02-0.158E-03
CGA:  10    -0.425239682689E+03   -0.20780E-04   -0.40992E-04  6336   0.161E-02 0.269E-03
CGA:  11    -0.425239704316E+03   -0.21627E-04   -0.56485E-04  6336   0.215E-02 0.663E-03
CGA:  12    -0.425239758563E+03   -0.54247E-04   -0.86751E-04  6336   0.111E-02 0.616E-03
CGA:  13    -0.425239855473E+03   -0.96910E-04   -0.87068E-04  6336   0.161E-02-0.545E-03
CGA:  14    -0.425239881635E+03   -0.26162E-04   -0.12449E-04  6336   0.911E-03-0.218E-03
CGA:  15    -0.425239897458E+03   -0.15823E-04   -0.11526E-04  6336   0.531E-03-0.750E-04
CGA:  16    -0.425239907568E+03   -0.10110E-04   -0.97870E-05  6336   0.470E-03-0.308E-05
CGA:  17    -0.425239917412E+03   -0.98444E-05   -0.86374E-05  6336   0.301E-03-0.229E-04
CGA:  18    -0.425239933410E+03   -0.15997E-04   -0.11147E-04  6336   0.869E-03-0.175E-03
CGA:  19    -0.425239954913E+03   -0.21503E-04   -0.20742E-04  6336   0.197E-03-0.211E-04
CGA:  20    -0.425239964135E+03   -0.92222E-05   -0.95341E-05  6336   0.106E-03 0.225E-04
 100 F= -.42523996E+03 E0= -.42523172E+03  d E =0.223481E-02  mag=    10.0000
