       N       E                     dE             d eps       ncg     rms          ort
DAV:   1     0.245801773381E+04    0.24580E+04   -0.13848E+05 10080   0.163E+03
DAV:   2    -0.201344390529E+03   -0.26594E+04   -0.24573E+04 10080   0.436E+02
DAV:   3    -0.487905124805E+03   -0.28656E+03   -0.28190E+03 10080   0.161E+02
DAV:   4    -0.496451079512E+03   -0.85460E+01   -0.84578E+01 10080   0.275E+01
DAV:   5    -0.496786030839E+03   -0.33495E+00   -0.33425E+00 10080   0.428E+00
SDA:   6    -0.237439714828E+03    0.25935E+03   -0.33425E+00 10080   0.785E+03 0.000E+00
CGA:   7    -0.345868613085E+03   -0.10843E+03   -0.11002E+03 10080   0.893E+02 0.790E+01
CGA:   8    -0.363760640637E+03   -0.17892E+02   -0.17897E+02 10080   0.330E+02-0.177E+01
CGA:   9    -0.370508947541E+03   -0.67483E+01   -0.67507E+01 10080   0.157E+02 0.190E-01
CGA:  10    -0.373586243703E+03   -0.30773E+01   -0.30778E+01 10080   0.477E+01 0.153E+00
CGA:  11    -0.374565991445E+03   -0.97975E+00   -0.97968E+00 10080   0.137E+01 0.344E-02
CGA:  12    -0.374865888191E+03   -0.29990E+00   -0.30034E+00 10080   0.454E+00-0.205E-01
CGA:  13    -0.374979440923E+03   -0.11355E+00   -0.11497E+00 10080   0.178E+00-0.247E-01
CGA:  14    -0.375023930794E+03   -0.44490E-01   -0.45119E-01 10080   0.683E-01-0.971E-02
CGA:  15    -0.375040522523E+03   -0.16592E-01   -0.16578E-01 10080   0.244E-01 0.177E-03
CGA:  16    -0.375047155791E+03   -0.66333E-02   -0.66694E-02 10080   0.857E-02-0.572E-03
CGA:  17    -0.375049486332E+03   -0.23305E-02   -0.23052E-02 10080   0.301E-02 0.408E-03
CGA:  18    -0.375050334033E+03   -0.84770E-03   -0.83159E-03 10080   0.101E-02 0.340E-03
CGA:  19    -0.375050467583E+03   -0.13355E-03   -0.80241E-03 10080   0.231E-02-0.134E-02
CGA:  20    -0.375051046180E+03   -0.57860E-03   -0.57676E-03 10080   0.313E-03 0.228E-03
CGA:  21    -0.375051252532E+03   -0.20635E-03    0.17339E-03 10080   0.664E-04 0.883E-04
CGA:  22    -0.375050998557E+03    0.25398E-03   -0.13879E-03 10080   0.119E-02-0.298E-03
CGA:  23    -0.375051438652E+03   -0.44009E-03   -0.40842E-03 10080   0.423E-03-0.325E-03
CGA:  24    -0.375051411886E+03    0.26766E-04   -0.30705E-04 10080   0.177E-03 0.171E-03
CGA:  25    -0.375051385249E+03    0.26637E-04   -0.17479E-04 10080   0.581E-04 0.126E-03
CGA:  26    -0.375051382825E+03    0.24242E-05   -0.70142E-05 10080   0.195E-04 0.335E-04
   1 F= -.37505138E+03 E0= -.37505138E+03  d E =-.375051E+03  mag=    12.0000
       N       E                     dE             d eps       ncg     rms          ort
SDA:   1    -0.375065077448E+03   -0.13692E-01    0.00000E+00 10080   0.321E-02 0.000E+00
CGA:   2    -0.375065933715E+03   -0.85627E-03   -0.85010E-03 10080   0.939E-03-0.577E-04
CGA:   3    -0.375066132456E+03   -0.19874E-03   -0.19861E-03 10080   0.371E-03-0.114E-05
CGA:   4    -0.375066229918E+03   -0.97462E-04   -0.77757E-04 10080   0.186E-03-0.130E-03
CGA:   5    -0.375066258385E+03   -0.28467E-04   -0.22717E-04 10080   0.515E-04-0.348E-04
CGA:   6    -0.375066257037E+03    0.13478E-05   -0.41097E-05 10080   0.233E-04 0.220E-04
   2 F= -.37506626E+03 E0= -.37506626E+03  d E =-.148742E-01  mag=    12.0000
       N       E                     dE             d eps       ncg     rms          ort
SDA:   1    -0.372533829635E+03    0.25324E+01    0.00000E+00 10080   0.894E+01 0.000E+00
CGA:   2    -0.374902084616E+03   -0.23683E+01   -0.23683E+01 10080   0.236E+01-0.781E-02
CGA:   3    -0.375477693206E+03   -0.57561E+00   -0.57521E+00 10080   0.732E+00-0.770E-02
CGA:   4    -0.375607705521E+03   -0.13001E+00   -0.12895E+00 10080   0.189E+00-0.635E-02
CGA:   5    -0.375642477960E+03   -0.34772E-01   -0.34821E-01 10080   0.509E-01 0.327E-03
CGA:   6    -0.375653642304E+03   -0.11164E-01   -0.11281E-01 10080   0.211E-01 0.142E-02
CGA:   7    -0.375660390537E+03   -0.67482E-02   -0.67704E-02 10080   0.117E-01-0.147E-02
CGA:   8    -0.375663696424E+03   -0.33059E-02   -0.33104E-02 10080   0.590E-02-0.774E-03
CGA:   9    -0.375665068004E+03   -0.13716E-02   -0.13867E-02 10080   0.185E-02 0.324E-03
CGA:  10    -0.375665673808E+03   -0.60580E-03   -0.60669E-03 10080   0.775E-03-0.632E-04
CGA:  11    -0.375665855321E+03   -0.18151E-03   -0.18726E-03 10080   0.263E-03 0.123E-03
CGA:  12    -0.375665928294E+03   -0.72974E-04   -0.76398E-04 10080   0.110E-03 0.780E-04
CGA:  13    -0.375665985100E+03   -0.56806E-04   -0.60250E-04 10080   0.825E-04-0.268E-04
CGA:  14    -0.375665987484E+03   -0.23837E-05   -0.79761E-05 10080   0.493E-04 0.327E-04
   3 F= -.37566599E+03 E0= -.37566599E+03  d E =-.599730E+00  mag=    12.0000
       N       E                     dE             d eps       ncg     rms          ort
SDA:   1    -0.372151857016E+03    0.35141E+01    0.00000E+00 10080   0.115E+02 0.000E+00
CGA:   2    -0.375100485229E+03   -0.29486E+01   -0.29491E+01 10080   0.283E+01-0.715E-03
CGA:   3    -0.375826020861E+03   -0.72554E+00   -0.72521E+00 10080   0.830E+00-0.131E-01
CGA:   4    -0.375974545113E+03   -0.14852E+00   -0.14772E+00 10080   0.235E+00-0.761E-02
CGA:   5    -0.376016587252E+03   -0.42042E-01   -0.42123E-01 10080   0.623E-01 0.828E-03
CGA:   6    -0.376031170180E+03   -0.14583E-01   -0.14662E-01 10080   0.285E-01 0.231E-02
CGA:   7    -0.376040284471E+03   -0.91143E-02   -0.91813E-02 10080   0.165E-01-0.154E-02
CGA:   8    -0.376045081810E+03   -0.47973E-02   -0.48226E-02 10080   0.806E-02-0.647E-03
CGA:   9    -0.376047059398E+03   -0.19776E-02   -0.19840E-02 10080   0.256E-02 0.434E-03
CGA:  10    -0.376047928283E+03   -0.86889E-03   -0.88407E-03 10080   0.112E-02-0.265E-03
CGA:  11    -0.376048132956E+03   -0.20467E-03   -0.21873E-03 10080   0.370E-03 0.252E-03
CGA:  12    -0.376048224520E+03   -0.91565E-04   -0.98248E-04 10080   0.154E-03 0.124E-03
CGA:  13    -0.376048302205E+03   -0.77685E-04   -0.10550E-03 10080   0.203E-03-0.114E-03
CGA:  14    -0.376048314237E+03   -0.12032E-04   -0.26461E-04 10080   0.526E-04 0.966E-04
CGA:  15    -0.376048318677E+03   -0.44397E-05   -0.94076E-05 10080   0.156E-04 0.328E-04
   4 F= -.37604832E+03 E0= -.37604832E+03  d E =-.382331E+00  mag=    12.0000
       N       E                     dE             d eps       ncg     rms          ort
SDA:   1    -0.373275223069E+03    0.27731E+01    0.00000E+00 10080   0.841E+01 0.000E+00
CGA:   2    -0.375516095121E+03   -0.22409E+01   -0.22408E+01 10080   0.217E+01 0.288E-02
CGA:   3    -0.376074362020E+03   -0.55827E+00   -0.55826E+00 10080   0.573E+00-0.168E-03
CGA:   4    -0.376176828616E+03   -0.10247E+00   -0.10214E+00 10080   0.159E+00-0.382E-02
CGA:   5    -0.376205384284E+03   -0.28556E-01   -0.28603E-01 10080   0.433E-01 0.550E-03
CGA:   6    -0.376215625358E+03   -0.10241E-01   -0.10280E-01 10080   0.200E-01 0.197E-02
CGA:   7    -0.376221815017E+03   -0.61897E-02   -0.61922E-02 10080   0.111E-01-0.599E-04
CGA:   8    -0.376225235703E+03   -0.34207E-02   -0.34038E-02 10080   0.534E-02 0.339E-03
CGA:   9    -0.376226669247E+03   -0.14335E-02   -0.14333E-02 10080   0.173E-02 0.508E-03
CGA:  10    -0.376227311253E+03   -0.64201E-03   -0.67148E-03 10080   0.877E-03-0.313E-03
CGA:  11    -0.376227454996E+03   -0.14374E-03   -0.15236E-03 10080   0.293E-03 0.164E-03
CGA:  12    -0.376227522283E+03   -0.67287E-04   -0.71864E-04 10080   0.117E-03 0.822E-04
CGA:  13    -0.376227561803E+03   -0.39521E-04   -0.89658E-04 10080   0.260E-03-0.148E-03
CGA:  14    -0.376227585295E+03   -0.23492E-04   -0.37364E-04 10080   0.543E-04 0.105E-03
CGA:  15    -0.376227597386E+03   -0.12091E-04   -0.13517E-04 10080   0.107E-04 0.155E-04
CGA:  16    -0.376227615257E+03   -0.17871E-04    0.12478E-05 10080   0.390E-05-0.133E-05
CGA:  17    -0.376227614853E+03    0.40453E-06   -0.18446E-06 10080   0.296E-05 0.279E-05
   5 F= -.37622761E+03 E0= -.37622761E+03  d E =-.179296E+00  mag=    12.0000
       N       E                     dE             d eps       ncg     rms          ort
SDA:   1    -0.371815111113E+03    0.44125E+01    0.00000E+00 10080   0.117E+02 0.000E+00
CGA:   2    -0.375295761079E+03   -0.34806E+01   -0.34808E+01 10080   0.368E+01-0.976E-02
CGA:   3    -0.376107614525E+03   -0.81185E+00   -0.81207E+00 10080   0.995E+00 0.812E-02
CGA:   4    -0.376272787390E+03   -0.16517E+00   -0.16506E+00 10080   0.229E+00-0.213E-02
CGA:   5    -0.376315841852E+03   -0.43054E-01   -0.43034E-01 10080   0.646E-01-0.475E-03
CGA:   6    -0.376329725460E+03   -0.13884E-01   -0.13923E-01 10080   0.240E-01 0.184E-02
CGA:   7    -0.376336683514E+03   -0.69581E-02   -0.69446E-02 10080   0.120E-01 0.305E-03
CGA:   8    -0.376340425058E+03   -0.37415E-02   -0.37344E-02 10080   0.650E-02 0.104E-03
CGA:   9    -0.376342189036E+03   -0.17640E-02   -0.17461E-02 10080   0.219E-02 0.750E-03
CGA:  10    -0.376342969636E+03   -0.78060E-03   -0.78743E-03 10080   0.930E-03-0.866E-04
CGA:  11    -0.376343241915E+03   -0.27228E-03   -0.27264E-03 10080   0.353E-03-0.642E-05
CGA:  12    -0.376343330304E+03   -0.88389E-04   -0.88257E-04 10080   0.123E-03 0.855E-04
CGA:  13    -0.376343385450E+03   -0.55147E-04   -0.56988E-04 10080   0.742E-04-0.150E-04
CGA:  14    -0.376343402330E+03   -0.16879E-04   -0.16856E-04 10080   0.296E-04 0.106E-04
CGA:  15    -0.376343410601E+03   -0.82714E-05   -0.83103E-05 10080   0.993E-05 0.340E-05
   6 F= -.37634341E+03 E0= -.37634341E+03  d E =-.115796E+00  mag=    12.0000
       N       E                     dE             d eps       ncg     rms          ort
SDA:   1    -0.363184690885E+03    0.13159E+02    0.00000E+00 10080   0.319E+02 0.000E+00
CGA:   2    -0.373714753676E+03   -0.10530E+02   -0.10530E+02 10080   0.108E+02-0.730E-02
CGA:   3    -0.375786921739E+03   -0.20722E+01   -0.20735E+01 10080   0.260E+01 0.285E-01
CGA:   4    -0.376242042584E+03   -0.45512E+00   -0.45509E+00 10080   0.586E+00-0.164E-02
CGA:   5    -0.376351462644E+03   -0.10942E+00   -0.10932E+00 10080   0.181E+00-0.181E-02
CGA:   6    -0.376389332536E+03   -0.37870E-01   -0.37986E-01 10080   0.569E-01 0.298E-02
CGA:   7    -0.376405005681E+03   -0.15673E-01   -0.15670E-01 10080   0.262E-01 0.119E-03
CGA:   8    -0.376412528286E+03   -0.75226E-02   -0.75454E-02 10080   0.132E-01-0.575E-03
CGA:   9    -0.376416004183E+03   -0.34759E-02   -0.34573E-02 10080   0.428E-02 0.109E-02
CGA:  10    -0.376417428642E+03   -0.14245E-02   -0.14262E-02 10080   0.172E-02-0.321E-04
CGA:  11    -0.376417984943E+03   -0.55630E-03   -0.56970E-03 10080   0.809E-03-0.169E-03
CGA:  12    -0.376418164577E+03   -0.17963E-03   -0.18140E-03 10080   0.306E-03 0.191E-03
CGA:  13    -0.376418281559E+03   -0.11698E-03   -0.11534E-03 10080   0.161E-03 0.346E-04
CGA:  14    -0.376418352711E+03   -0.71152E-04   -0.79054E-04 10080   0.115E-03-0.440E-04
CGA:  15    -0.376418355640E+03   -0.29285E-05   -0.98979E-05 10080   0.674E-04 0.462E-04
CGA:  16    -0.376418358816E+03   -0.31761E-05   -0.10031E-04 10080   0.255E-04 0.442E-04
CGA:  17    -0.376418375911E+03   -0.17096E-04    0.10011E-04 10080   0.603E-05 0.101E-04
CGA:  18    -0.376418376206E+03   -0.29436E-06   -0.10422E-05 10080   0.318E-05 0.576E-05
   7 F= -.37641838E+03 E0= -.37641838E+03  d E =-.749656E-01  mag=    12.0000
       N       E                     dE             d eps       ncg     rms          ort
SDA:   1    -0.373636356283E+03    0.27820E+01    0.00000E+00 10080   0.659E+01 0.000E+00
CGA:   2    -0.376013665127E+03   -0.23773E+01   -0.23790E+01 10080   0.178E+01-0.126E-01
CGA:   3    -0.376362541041E+03   -0.34888E+00   -0.34949E+00 10080   0.459E+00 0.107E-01
CGA:   4    -0.376440733017E+03   -0.78192E-01   -0.78152E-01 10080   0.106E+00-0.432E-03
CGA:   5    -0.376460301252E+03   -0.19568E-01   -0.19518E-01 10080   0.304E-01-0.923E-03
CGA:   6    -0.376466322034E+03   -0.60208E-02   -0.60617E-02 10080   0.845E-02 0.116E-02
CGA:   7    -0.376468442340E+03   -0.21203E-02   -0.21166E-02 10080   0.321E-02 0.570E-03
CGA:   8    -0.376469416467E+03   -0.97413E-03   -0.97229E-03 10080   0.155E-02 0.392E-04
CGA:   9    -0.376469739132E+03   -0.32267E-03   -0.33324E-03 10080   0.461E-03 0.430E-03
CGA:  10    -0.376469845380E+03   -0.10625E-03   -0.11427E-03 10080   0.166E-03 0.191E-03
CGA:  11    -0.376469915386E+03   -0.70006E-04   -0.69771E-04 10080   0.786E-04 0.376E-05
CGA:  12    -0.376469922456E+03   -0.70701E-05   -0.11375E-04 10080   0.423E-04 0.450E-04
   8 F= -.37646992E+03 E0= -.37646992E+03  d E =-.515463E-01  mag=    12.0000
       N       E                     dE             d eps       ncg     rms          ort
SDA:   1    -0.375996330320E+03    0.47359E+00    0.00000E+00 10080   0.133E+01 0.000E+00
CGA:   2    -0.376375325993E+03   -0.37900E+00   -0.37891E+00 10080   0.415E+00 0.683E-03
CGA:   3    -0.376467996156E+03   -0.92670E-01   -0.92664E-01 10080   0.132E+00-0.120E-02
CGA:   4    -0.376489477232E+03   -0.21481E-01   -0.21530E-01 10080   0.296E-01 0.683E-03
CGA:   5    -0.376494887220E+03   -0.54100E-02   -0.54169E-02 10080   0.813E-02 0.150E-03
CGA:   6    -0.376496803026E+03   -0.19158E-02   -0.19218E-02 10080   0.347E-02-0.508E-03
CGA:   7    -0.376497701441E+03   -0.89842E-03   -0.90852E-03 10080   0.165E-02-0.182E-03
CGA:   8    -0.376498155910E+03   -0.45447E-03   -0.46017E-03 10080   0.824E-03-0.857E-04
CGA:   9    -0.376498414145E+03   -0.25823E-03   -0.31857E-03 10080   0.656E-03-0.340E-03
CGA:  10    -0.376498494737E+03   -0.80592E-04   -0.80923E-04 10080   0.245E-03 0.114E-04
CGA:  11    -0.376498538186E+03   -0.43448E-04   -0.45473E-04 10080   0.982E-04 0.365E-04
CGA:  12    -0.376498570420E+03   -0.32234E-04   -0.33673E-04 10080   0.560E-04-0.226E-04
CGA:  13    -0.376498578791E+03   -0.83716E-05   -0.87254E-05 10080   0.327E-04 0.991E-05
   9 F= -.37649858E+03 E0= -.37649858E+03  d E =-.286563E-01  mag=    12.0000
       N       E                     dE             d eps       ncg     rms          ort
SDA:   1    -0.375565562234E+03    0.93301E+00    0.00000E+00 10080   0.220E+01 0.000E+00
CGA:   2    -0.376369775603E+03   -0.80421E+00   -0.80527E+00 10080   0.591E+00-0.762E-02
CGA:   3    -0.376484779127E+03   -0.11500E+00   -0.11520E+00 10080   0.145E+00 0.438E-02
CGA:   4    -0.376509323647E+03   -0.24545E-01   -0.24516E-01 10080   0.333E-01-0.442E-03
CGA:   5    -0.376515498962E+03   -0.61753E-02   -0.61646E-02 10080   0.947E-02-0.235E-03
CGA:   6    -0.376517280335E+03   -0.17814E-02   -0.17991E-02 10080   0.245E-02 0.458E-03
CGA:   7    -0.376517919770E+03   -0.63944E-03   -0.63860E-03 10080   0.957E-03 0.400E-04
CGA:   8    -0.376518193856E+03   -0.27409E-03   -0.27535E-03 10080   0.462E-03-0.231E-04
CGA:   9    -0.376518267077E+03   -0.73222E-04   -0.81595E-04 10080   0.148E-03 0.166E-03
CGA:  10    -0.376518290982E+03   -0.23905E-04   -0.30433E-04 10080   0.574E-04 0.836E-04
CGA:  11    -0.376518292320E+03   -0.13373E-05   -0.51402E-04 10080   0.282E-03-0.748E-04
CGA:  12    -0.376518309103E+03   -0.16784E-04   -0.31647E-04 10080   0.431E-04 0.101E-03
CGA:  13    -0.376518309287E+03   -0.18305E-06   -0.49704E-05 10080   0.147E-04 0.288E-04
  10 F= -.37651831E+03 E0= -.37651831E+03  d E =-.197305E-01  mag=    12.0000
       N       E                     dE             d eps       ncg     rms          ort
SDA:   1    -0.367469489668E+03    0.90488E+01    0.00000E+00 10080   0.210E+02 0.000E+00
CGA:   2    -0.375062466555E+03   -0.75930E+01   -0.75984E+01 10080   0.610E+01-0.369E-01
CGA:   3    -0.376196887103E+03   -0.11344E+01   -0.11370E+01 10080   0.145E+01 0.237E-01
CGA:   4    -0.376448369885E+03   -0.25148E+00   -0.25121E+00 10080   0.341E+00-0.329E-02
CGA:   5    -0.376511926197E+03   -0.63556E-01   -0.63430E-01 10080   0.100E+00-0.213E-02
CGA:   6    -0.376531851655E+03   -0.19925E-01   -0.20019E-01 10080   0.277E-01 0.225E-02
CGA:   7    -0.376539135968E+03   -0.72843E-02   -0.72846E-02 10080   0.116E-01-0.187E-04
CGA:   8    -0.376542438533E+03   -0.33026E-02   -0.33344E-02 10080   0.568E-02-0.658E-03
CGA:   9    -0.376543726044E+03   -0.12875E-02   -0.12891E-02 10080   0.161E-02 0.740E-03
CGA:  10    -0.376544218963E+03   -0.49292E-03   -0.48928E-03 10080   0.556E-03 0.135E-03
CGA:  11    -0.376544419825E+03   -0.20086E-03   -0.25373E-03 10080   0.505E-03-0.299E-03
CGA:  12    -0.376544460510E+03   -0.40685E-04   -0.64743E-04 10080   0.106E-03 0.193E-03
CGA:  13    -0.376544472128E+03   -0.11618E-04   -0.19057E-04 10080   0.493E-04 0.636E-04
CGA:  14    -0.376544504262E+03   -0.32134E-04    0.16735E-04 10080   0.260E-04 0.273E-04
CGA:  15    -0.376544502717E+03    0.15448E-05   -0.21618E-05 10080   0.227E-04 0.235E-04
  11 F= -.37654450E+03 E0= -.37654450E+03  d E =-.261934E-01  mag=    12.0000
       N       E                     dE             d eps       ncg     rms          ort
SDA:   1    -0.363605176387E+03    0.12939E+02    0.00000E+00 10080   0.301E+02 0.000E+00
CGA:   2    -0.374287618754E+03   -0.10682E+02   -0.10693E+02 10080   0.937E+01-0.617E-01
CGA:   3    -0.375990310396E+03   -0.17027E+01   -0.17066E+01 10080   0.221E+01 0.333E-01
CGA:   4    -0.376373598238E+03   -0.38329E+00   -0.38301E+00 10080   0.533E+00-0.383E-02
CGA:   5    -0.376472244197E+03   -0.98646E-01   -0.98505E-01 10080   0.156E+00-0.304E-02
CGA:   6    -0.376503858576E+03   -0.31614E-01   -0.31668E-01 10080   0.443E-01 0.241E-02
CGA:   7    -0.376515596254E+03   -0.11738E-01   -0.11752E-01 10080   0.191E-01-0.410E-03
CGA:   8    -0.376520989169E+03   -0.53929E-02   -0.54695E-02 10080   0.937E-02-0.122E-02
CGA:   9    -0.376523263228E+03   -0.22741E-02   -0.22566E-02 10080   0.275E-02 0.652E-03
CGA:  10    -0.376524143512E+03   -0.88028E-03   -0.88811E-03 10080   0.991E-03-0.111E-03
CGA:  11    -0.376524451083E+03   -0.30757E-03   -0.34777E-03 10080   0.563E-03-0.308E-03
CGA:  12    -0.376524517383E+03   -0.66300E-04   -0.73024E-04 10080   0.237E-03 0.125E-03
CGA:  13    -0.376524561445E+03   -0.44062E-04   -0.49694E-04 10080   0.101E-03 0.831E-04
CGA:  14    -0.376524608538E+03   -0.47093E-04   -0.50965E-04 10080   0.955E-04-0.282E-04
CGA:  15    -0.376524613358E+03   -0.48194E-05   -0.84256E-05 10080   0.725E-04 0.299E-04
  12 F= -.37652461E+03 E0= -.37652461E+03  d E =0.198894E-01  mag=    12.0000
       N       E                     dE             d eps       ncg     rms          ort
SDA:   1    -0.372254224945E+03    0.42704E+01    0.00000E+00 10080   0.102E+02 0.000E+00
CGA:   2    -0.375688223409E+03   -0.34340E+01   -0.34336E+01 10080   0.359E+01 0.224E-02
CGA:   3    -0.376345908562E+03   -0.65769E+00   -0.65687E+00 10080   0.881E+00-0.761E-02
CGA:   4    -0.376495720108E+03   -0.14981E+00   -0.14964E+00 10080   0.209E+00-0.331E-02
CGA:   5    -0.376532910664E+03   -0.37191E-01   -0.37155E-01 10080   0.555E-01-0.861E-03
CGA:   6    -0.376544613576E+03   -0.11703E-01   -0.11697E-01 10080   0.163E-01-0.362E-03
CGA:   7    -0.376548779698E+03   -0.41661E-02   -0.42034E-02 10080   0.681E-02-0.113E-02
CGA:   8    -0.376550593009E+03   -0.18133E-02   -0.18908E-02 10080   0.351E-02-0.110E-02
CGA:   9    -0.376551484128E+03   -0.89112E-03   -0.97164E-03 10080   0.152E-02-0.810E-03
CGA:  10    -0.376551841357E+03   -0.35723E-03   -0.43632E-03 10080   0.801E-03-0.579E-03
CGA:  11    -0.376551975966E+03   -0.13461E-03   -0.13759E-03 10080   0.266E-03-0.877E-04
CGA:  12    -0.376552052365E+03   -0.76399E-04   -0.76905E-04 10080   0.125E-03-0.644E-05
CGA:  13    -0.376552085919E+03   -0.33554E-04   -0.33046E-04 10080   0.544E-04 0.241E-04
CGA:  14    -0.376552092183E+03   -0.62641E-05   -0.98816E-05 10080   0.261E-04 0.370E-04
  13 F= -.37655209E+03 E0= -.37655209E+03  d E =-.274788E-01  mag=    12.0000
       N       E                     dE             d eps       ncg     rms          ort
SDA:   1    -0.375989174176E+03    0.56291E+00    0.00000E+00 10080   0.139E+01 0.000E+00
CGA:   2    -0.376450368012E+03   -0.46119E+00   -0.46137E+00 10080   0.474E+00-0.219E-02
CGA:   3    -0.376538982048E+03   -0.88614E-01   -0.88715E-01 10080   0.128E+00 0.129E-02
CGA:   4    -0.376562118790E+03   -0.23137E-01   -0.23096E-01 10080   0.291E-01-0.664E-03
CGA:   5    -0.376567272147E+03   -0.51534E-02   -0.51300E-02 10080   0.831E-02-0.385E-03
CGA:   6    -0.376568968161E+03   -0.16960E-02   -0.16989E-02 10080   0.239E-02 0.103E-03
CGA:   7    -0.376569594962E+03   -0.62680E-03   -0.62608E-03 10080   0.984E-03 0.287E-04
CGA:   8    -0.376569884701E+03   -0.28974E-03   -0.29862E-03 10080   0.540E-03-0.136E-03
CGA:   9    -0.376570015630E+03   -0.13093E-03   -0.13263E-03 10080   0.179E-03-0.364E-04
CGA:  10    -0.376570069305E+03   -0.53675E-04   -0.59468E-04 10080   0.882E-04-0.503E-04
CGA:  11    -0.376570083672E+03   -0.14366E-04   -0.32652E-04 10080   0.115E-03-0.682E-04
CGA:  12    -0.376570099521E+03   -0.15850E-04   -0.18553E-04 10080   0.175E-04 0.274E-04
CGA:  13    -0.376570105869E+03   -0.63484E-05   -0.62797E-05 10080   0.851E-05 0.193E-05
  14 F= -.37657011E+03 E0= -.37657011E+03  d E =-.180137E-01  mag=    12.0000
       N       E                     dE             d eps       ncg     rms          ort
SDA:   1    -0.376252532626E+03    0.31757E+00    0.00000E+00 10080   0.742E+00 0.000E+00
CGA:   2    -0.376518089964E+03   -0.26556E+00   -0.26552E+00 10080   0.232E+00 0.239E-03
CGA:   3    -0.376560420616E+03   -0.42331E-01   -0.42385E-01 10080   0.551E-01 0.625E-03
CGA:   4    -0.376569626898E+03   -0.92063E-02   -0.92313E-02 10080   0.130E-01 0.232E-03
CGA:   5    -0.376571989462E+03   -0.23626E-02   -0.23693E-02 10080   0.347E-02 0.846E-04
CGA:   6    -0.376572679493E+03   -0.69003E-03   -0.69546E-03 10080   0.913E-03 0.973E-04
CGA:   7    -0.376572886166E+03   -0.20667E-03   -0.20964E-03 10080   0.302E-03 0.104E-03
CGA:   8    -0.376572961410E+03   -0.75244E-04   -0.76887E-04 10080   0.115E-03 0.759E-04
CGA:   9    -0.376572988107E+03   -0.26697E-04   -0.29357E-04 10080   0.460E-04 0.585E-04
CGA:  10    -0.376572995916E+03   -0.78094E-05   -0.89769E-05 10080   0.200E-04 0.225E-04
  15 F= -.37657300E+03 E0= -.37657300E+03  d E =-.289005E-02  mag=    12.0000
       N       E                     dE             d eps       ncg     rms          ort
SDA:   1    -0.375840625541E+03    0.73236E+00    0.00000E+00 10080   0.169E+01 0.000E+00
CGA:   2    -0.376475087763E+03   -0.63446E+00   -0.63452E+00 10080   0.401E+00-0.400E-03
CGA:   3    -0.376558058121E+03   -0.82970E-01   -0.82990E-01 10080   0.886E-01 0.397E-03
CGA:   4    -0.376573078274E+03   -0.15020E-01   -0.14987E-01 10080   0.234E-01-0.450E-03
CGA:   5    -0.376577399627E+03   -0.43214E-02   -0.43206E-02 10080   0.597E-02-0.166E-04
CGA:   6    -0.376578560471E+03   -0.11608E-02   -0.11683E-02 10080   0.164E-02 0.175E-03
CGA:   7    -0.376579000464E+03   -0.43999E-03   -0.44076E-03 10080   0.681E-03-0.303E-04
CGA:   8    -0.376579186442E+03   -0.18598E-03   -0.18536E-03 10080   0.301E-03 0.157E-04
CGA:   9    -0.376579263068E+03   -0.76626E-04   -0.76228E-04 10080   0.919E-04 0.512E-04
CGA:  10    -0.376579300209E+03   -0.37141E-04   -0.39642E-04 10080   0.525E-04-0.194E-04
CGA:  11    -0.376579308686E+03   -0.84768E-05   -0.87081E-05 10080   0.183E-04 0.643E-05
  16 F= -.37657931E+03 E0= -.37657931E+03  d E =-.631277E-02  mag=    12.0000
       N       E                     dE             d eps       ncg     rms          ort
SDA:   1    -0.363080505623E+03    0.13499E+02    0.00000E+00 10080   0.316E+02 0.000E+00
CGA:   2    -0.374330124094E+03   -0.11250E+02   -0.11260E+02 10080   0.859E+01-0.540E-01
CGA:   3    -0.376038258688E+03   -0.17081E+01   -0.17101E+01 10080   0.202E+01 0.287E-01
CGA:   4    -0.376400978425E+03   -0.36272E+00   -0.36155E+00 10080   0.486E+00-0.150E-01
CGA:   5    -0.376493310456E+03   -0.92332E-01   -0.92197E-01 10080   0.151E+00-0.279E-02
CGA:   6    -0.376523144396E+03   -0.29834E-01   -0.29966E-01 10080   0.452E-01 0.322E-02
CGA:   7    -0.376536431196E+03   -0.13287E-01   -0.13420E-01 10080   0.218E-01-0.249E-02
CGA:   8    -0.376542386505E+03   -0.59553E-02   -0.60676E-02 10080   0.109E-01-0.204E-02
CGA:   9    -0.376544850389E+03   -0.24639E-02   -0.24615E-02 10080   0.302E-02 0.390E-03
CGA:  10    -0.376545849410E+03   -0.99902E-03   -0.10643E-02 10080   0.146E-02-0.668E-03
CGA:  11    -0.376546178417E+03   -0.32901E-03   -0.34594E-03 10080   0.572E-03-0.297E-03
CGA:  12    -0.376546301525E+03   -0.12311E-03   -0.12212E-03 10080   0.230E-03 0.558E-04
CGA:  13    -0.376546388038E+03   -0.86513E-04   -0.90243E-04 10080   0.147E-03-0.353E-04
CGA:  14    -0.376546411912E+03   -0.23873E-04   -0.26044E-04 10080   0.725E-04 0.459E-04
CGA:  15    -0.376546419343E+03   -0.74318E-05   -0.12878E-04 10080   0.284E-04 0.457E-04
  17 F= -.37654642E+03 E0= -.37654642E+03  d E =0.328893E-01  mag=    12.0000
       N       E                     dE             d eps       ncg     rms          ort
SDA:   1    -0.374057558860E+03    0.24889E+01    0.00000E+00 10080   0.588E+01 0.000E+00
CGA:   2    -0.376166915597E+03   -0.21094E+01   -0.21098E+01 10080   0.168E+01-0.385E-02
CGA:   3    -0.376492043162E+03   -0.32513E+00   -0.32535E+00 10080   0.417E+00 0.473E-02
CGA:   4    -0.376565893296E+03   -0.73850E-01   -0.73762E-01 10080   0.927E-01-0.127E-02
CGA:   5    -0.376583242744E+03   -0.17349E-01   -0.17305E-01 10080   0.286E-01-0.788E-03
CGA:   6    -0.376588907409E+03   -0.56647E-02   -0.56734E-02 10080   0.800E-02 0.210E-03
CGA:   7    -0.376591102013E+03   -0.21946E-02   -0.22010E-02 10080   0.345E-02-0.191E-03
CGA:   8    -0.376592087058E+03   -0.98504E-03   -0.10080E-02 10080   0.184E-02-0.398E-03
CGA:   9    -0.376592534011E+03   -0.44695E-03   -0.45100E-03 10080   0.572E-03-0.121E-03
CGA:  10    -0.376592703396E+03   -0.16939E-03   -0.18666E-03 10080   0.269E-03-0.167E-03
CGA:  11    -0.376592758450E+03   -0.55053E-04   -0.58186E-04 10080   0.999E-04-0.580E-04
CGA:  12    -0.376592782300E+03   -0.23850E-04   -0.23756E-04 10080   0.396E-04 0.188E-05
CGA:  13    -0.376592797060E+03   -0.14761E-04   -0.15416E-04 10080   0.242E-04-0.525E-05
CGA:  14    -0.376592800509E+03   -0.34490E-05   -0.40672E-05 10080   0.108E-04 0.892E-05
  18 F= -.37659280E+03 E0= -.37659280E+03  d E =-.463812E-01  mag=    12.0000
       N       E                     dE             d eps       ncg     rms          ort
SDA:   1    -0.376509852898E+03    0.82944E-01    0.00000E+00 10080   0.202E+00 0.000E+00
CGA:   2    -0.376576840621E+03   -0.66988E-01   -0.67005E-01 10080   0.732E-01-0.233E-03
CGA:   3    -0.376590125612E+03   -0.13285E-01   -0.13293E-01 10080   0.178E-01 0.693E-04
CGA:   4    -0.376593377150E+03   -0.32515E-02   -0.32539E-02 10080   0.428E-02 0.325E-04
CGA:   5    -0.376594133928E+03   -0.75678E-03   -0.75369E-03 10080   0.122E-02-0.417E-04
CGA:   6    -0.376594413910E+03   -0.27998E-03   -0.27841E-03 10080   0.411E-03-0.967E-04
CGA:   7    -0.376594515343E+03   -0.10143E-03   -0.10258E-03 10080   0.181E-03-0.451E-04
CGA:   8    -0.376594564008E+03   -0.48666E-04   -0.55682E-04 10080   0.138E-03-0.706E-04
CGA:   9    -0.376594587139E+03   -0.23131E-04   -0.31163E-04 10080   0.885E-04-0.674E-04
CGA:  10    -0.376594597838E+03   -0.10699E-04   -0.10572E-04 10080   0.325E-04-0.521E-05
CGA:  11    -0.376594605799E+03   -0.79610E-05   -0.79677E-05 10080   0.180E-04-0.177E-05
  19 F= -.37659461E+03 E0= -.37659461E+03  d E =-.180529E-02  mag=    12.0000
       N       E                     dE             d eps       ncg     rms          ort
SDA:   1    -0.376560384787E+03    0.34213E-01    0.00000E+00 10080   0.830E-01 0.000E+00
CGA:   2    -0.376590328785E+03   -0.29944E-01   -0.29910E-01 10080   0.211E-01 0.321E-03
CGA:   3    -0.376594908988E+03   -0.45802E-02   -0.45714E-02 10080   0.479E-02-0.194E-03
CGA:   4    -0.376595757208E+03   -0.84822E-03   -0.83700E-03 10080   0.119E-02-0.136E-03
CGA:   5    -0.376595964459E+03   -0.20725E-03   -0.20974E-03 10080   0.316E-03 0.334E-04
CGA:   6    -0.376596018137E+03   -0.53678E-04   -0.56736E-04 10080   0.837E-04 0.399E-04
CGA:   7    -0.376596046051E+03   -0.27914E-04   -0.28224E-04 10080   0.452E-04-0.595E-05
CGA:   8    -0.376596054357E+03   -0.83066E-05   -0.86791E-05 10080   0.183E-04 0.864E-05
  20 F= -.37659605E+03 E0= -.37659605E+03  d E =-.144856E-02  mag=    12.0000
       N       E                     dE             d eps       ncg     rms          ort
SDA:   1    -0.376503277348E+03    0.92769E-01    0.00000E+00 10080   0.222E+00 0.000E+00
CGA:   2    -0.376583210001E+03   -0.79933E-01   -0.79823E-01 10080   0.530E-01 0.933E-03
CGA:   3    -0.376595480931E+03   -0.12271E-01   -0.12261E-01 10080   0.109E-01-0.528E-03
CGA:   4    -0.376597336120E+03   -0.18552E-02   -0.18414E-02 10080   0.312E-02-0.177E-03
CGA:   5    -0.376597892712E+03   -0.55659E-03   -0.55830E-03 10080   0.686E-03 0.264E-04
CGA:   6    -0.376598040589E+03   -0.14788E-03   -0.14880E-03 10080   0.226E-03 0.336E-04
CGA:   7    -0.376598109546E+03   -0.68957E-04   -0.71709E-04 10080   0.141E-03-0.443E-04
CGA:   8    -0.376598143046E+03   -0.33499E-04   -0.34318E-04 10080   0.673E-04-0.141E-04
CGA:   9    -0.376598160619E+03   -0.17573E-04   -0.17979E-04 10080   0.277E-04-0.813E-05
CGA:  10    -0.376598172800E+03   -0.12181E-04    0.15056E-02 10080   0.851E-05 0.200E-05
CGA:  11    -0.376598175634E+03   -0.28345E-05   -0.28957E-05 10080   0.417E-05-0.908E-06
  21 F= -.37659818E+03 E0= -.37659818E+03  d E =-.212128E-02  mag=    12.0000
       N       E                     dE             d eps       ncg     rms          ort
SDA:   1    -0.370537322387E+03    0.60609E+01    0.00000E+00 10080   0.143E+02 0.000E+00
CGA:   2    -0.375595608414E+03   -0.50583E+01   -0.50605E+01 10080   0.378E+01-0.176E-01
CGA:   3    -0.376408089531E+03   -0.81248E+00   -0.81299E+00 10080   0.773E+00 0.985E-02
CGA:   4    -0.376546133401E+03   -0.13804E+00   -0.13736E+00 10080   0.200E+00-0.805E-02
CGA:   5    -0.376583483406E+03   -0.37350E-01   -0.37345E-01 10080   0.558E-01-0.136E-03
CGA:   6    -0.376594468436E+03   -0.10985E-01   -0.11073E-01 10080   0.175E-01 0.174E-02
CGA:   7    -0.376599679817E+03   -0.52114E-02   -0.52836E-02 10080   0.884E-02-0.156E-02
CGA:   8    -0.376602100761E+03   -0.24209E-02   -0.24531E-02 10080   0.450E-02-0.572E-03
CGA:   9    -0.376603161502E+03   -0.10607E-02   -0.10607E-02 10080   0.139E-02 0.215E-03
CGA:  10    -0.376603665418E+03   -0.50392E-03   -0.66022E-03 10080   0.136E-02-0.771E-03
CGA:  11    -0.376603850423E+03   -0.18501E-03   -0.21424E-03 10080   0.179E-03 0.282E-03
CGA:  12    -0.376603924376E+03   -0.73953E-04   -0.76073E-04 10080   0.130E-03-0.224E-04
CGA:  13    -0.376603960512E+03   -0.36136E-04   -0.75062E-04 10080   0.246E-03-0.974E-04
CGA:  14    -0.376603982602E+03   -0.22090E-04   -0.36440E-04 10080   0.602E-04 0.108E-03
CGA:  15    -0.376603995973E+03   -0.13370E-04   -0.15567E-04 10080   0.165E-04 0.231E-04
CGA:  16    -0.376604016478E+03   -0.20505E-04    0.46285E-05 10080   0.713E-05 0.111E-05
CGA:  17    -0.376604016103E+03    0.37493E-06   -0.67772E-06 10080   0.562E-05 0.582E-05
  22 F= -.37660402E+03 E0= -.37660402E+03  d E =-.584047E-02  mag=    12.0000
       N       E                     dE             d eps       ncg     rms          ort
SDA:   1    -0.373196470103E+03    0.34075E+01    0.00000E+00 10080   0.797E+01 0.000E+00
CGA:   2    -0.376026364387E+03   -0.28299E+01   -0.28311E+01 10080   0.228E+01-0.106E-01
CGA:   3    -0.376484427243E+03   -0.45806E+00   -0.45849E+00 10080   0.490E+00 0.647E-02
CGA:   4    -0.376568852895E+03   -0.84426E-01   -0.84149E-01 10080   0.122E+00-0.344E-02
CGA:   5    -0.376591994411E+03   -0.23142E-01   -0.23117E-01 10080   0.345E-01-0.450E-03
CGA:   6    -0.376598598006E+03   -0.66036E-02   -0.66645E-02 10080   0.994E-02 0.117E-02
CGA:   7    -0.376601450482E+03   -0.28525E-02   -0.28644E-02 10080   0.459E-02-0.332E-03
CGA:   8    -0.376602768275E+03   -0.13178E-02   -0.13322E-02 10080   0.246E-02-0.259E-03
CGA:   9    -0.376603343632E+03   -0.57536E-03   -0.57523E-03 10080   0.755E-03 0.264E-03
CGA:  10    -0.376603620910E+03   -0.27728E-03   -0.29040E-03 10080   0.418E-03-0.132E-03
CGA:  11    -0.376603724643E+03   -0.10373E-03   -0.10774E-03 10080   0.194E-03-0.677E-04
CGA:  12    -0.376603762906E+03   -0.38263E-04   -0.38887E-04 10080   0.844E-04 0.391E-04
CGA:  13    -0.376603791634E+03   -0.28728E-04   -0.28517E-04 10080   0.425E-04 0.789E-05
CGA:  14    -0.376603808690E+03   -0.17056E-04   -0.17543E-04 10080   0.244E-04-0.409E-05
CGA:  15    -0.376603809141E+03   -0.45031E-06   -0.24880E-05 10080   0.142E-04 0.137E-04
  23 F= -.37660381E+03 E0= -.37660381E+03  d E =0.206963E-03  mag=    12.0000
       N       E                     dE             d eps       ncg     rms          ort
SDA:   1    -0.372750710938E+03    0.38531E+01    0.00000E+00 10080   0.898E+01 0.000E+00
CGA:   2    -0.375984409620E+03   -0.32337E+01   -0.32352E+01 10080   0.237E+01-0.133E-01
CGA:   3    -0.376481093880E+03   -0.49668E+00   -0.49718E+00 10080   0.501E+00 0.943E-02
CGA:   4    -0.376569588448E+03   -0.88495E-01   -0.88144E-01 10080   0.129E+00-0.404E-02
CGA:   5    -0.376594474314E+03   -0.24886E-01   -0.24832E-01 10080   0.367E-01-0.101E-02
CGA:   6    -0.376601758539E+03   -0.72842E-02   -0.73043E-02 10080   0.118E-01 0.430E-03
CGA:   7    -0.376605246180E+03   -0.34876E-02   -0.35697E-02 10080   0.616E-02-0.147E-02
CGA:   8    -0.376606911969E+03   -0.16658E-02   -0.17459E-02 10080   0.351E-02-0.103E-02
CGA:   9    -0.376607632628E+03   -0.72066E-03   -0.72047E-03 10080   0.102E-02-0.435E-04
CGA:  10    -0.376607960297E+03   -0.32767E-03   -0.35974E-03 10080   0.563E-03-0.300E-03
CGA:  11    -0.376608062103E+03   -0.10181E-03   -0.10184E-03 10080   0.213E-03-0.420E-04
CGA:  12    -0.376608108381E+03   -0.46278E-04   -0.46935E-04 10080   0.983E-04 0.363E-04
CGA:  13    -0.376608143411E+03   -0.35030E-04   -0.35078E-04 10080   0.540E-04-0.104E-05
CGA:  14    -0.376608153050E+03   -0.96393E-05   -0.10765E-04 10080   0.261E-04 0.202E-04
  24 F= -.37660815E+03 E0= -.37660815E+03  d E =-.434391E-02  mag=    12.0000
       N       E                     dE             d eps       ncg     rms          ort
SDA:   1    -0.374118860251E+03    0.24893E+01    0.00000E+00 10080   0.574E+01 0.000E+00
CGA:   2    -0.376193313134E+03   -0.20745E+01   -0.20757E+01 10080   0.152E+01-0.107E-01
CGA:   3    -0.376505072940E+03   -0.31176E+00   -0.31206E+00 10080   0.356E+00 0.550E-02
CGA:   4    -0.376566002689E+03   -0.60930E-01   -0.60766E-01 10080   0.899E-01-0.210E-02
CGA:   5    -0.376583097758E+03   -0.17095E-01   -0.17046E-01 10080   0.252E-01-0.891E-03
CGA:   6    -0.376588133034E+03   -0.50353E-02   -0.50482E-02 10080   0.767E-02 0.309E-03
CGA:   7    -0.376590331889E+03   -0.21989E-02   -0.22345E-02 10080   0.373E-02-0.773E-03
CGA:   8    -0.376591361222E+03   -0.10293E-02   -0.10785E-02 10080   0.211E-02-0.634E-03
CGA:   9    -0.376591820717E+03   -0.45950E-03   -0.46140E-03 10080   0.660E-03-0.122E-03
CGA:  10    -0.376592024461E+03   -0.20374E-03   -0.26746E-03 10080   0.539E-03-0.351E-03
CGA:  11    -0.376592104546E+03   -0.80085E-04   -0.89379E-04 10080   0.717E-04 0.101E-03
CGA:  12    -0.376592135388E+03   -0.30843E-04   -0.32103E-04 10080   0.512E-04-0.102E-04
CGA:  13    -0.376592147896E+03   -0.12507E-04   -0.12302E-04 10080   0.279E-04 0.968E-05
CGA:  14    -0.376592152415E+03   -0.45199E-05   -0.57203E-05 10080   0.108E-04 0.137E-04
  25 F= -.37659215E+03 E0= -.37659215E+03  d E =0.160006E-01  mag=    12.0000
       N       E                     dE             d eps       ncg     rms          ort
SDA:   1    -0.373696493879E+03    0.28957E+01    0.00000E+00 10080   0.681E+01 0.000E+00
CGA:   2    -0.376139478510E+03   -0.24430E+01   -0.24440E+01 10080   0.183E+01-0.845E-02
CGA:   3    -0.376515227050E+03   -0.37575E+00   -0.37611E+00 10080   0.400E+00 0.480E-02
CGA:   4    -0.376584537279E+03   -0.69310E-01   -0.69021E-01 10080   0.100E+00-0.305E-02
CGA:   5    -0.376603445068E+03   -0.18908E-01   -0.18886E-01 10080   0.278E-01-0.359E-03
CGA:   6    -0.376608808069E+03   -0.53630E-02   -0.54114E-02 10080   0.808E-02 0.902E-03
CGA:   7    -0.376611128317E+03   -0.23202E-02   -0.23332E-02 10080   0.374E-02-0.385E-03
CGA:   8    -0.376612204125E+03   -0.10758E-02   -0.10947E-02 10080   0.203E-02-0.315E-03
CGA:   9    -0.376612643147E+03   -0.43902E-03   -0.44187E-03 10080   0.596E-03 0.219E-03
CGA:  10    -0.376612851957E+03   -0.20881E-03   -0.21410E-03 10080   0.294E-03-0.715E-04
CGA:  11    -0.376612934975E+03   -0.83018E-04   -0.10480E-03 10080   0.238E-03-0.144E-03
CGA:  12    -0.376612951168E+03   -0.16194E-04   -0.20042E-04 10080   0.138E-03 0.399E-04
CGA:  13    -0.376612968975E+03   -0.17807E-04   -0.23328E-04 10080   0.546E-04 0.491E-04
CGA:  14    -0.376612987956E+03   -0.18981E-04   -0.18975E-04 10080   0.359E-04 0.109E-05
CGA:  15    -0.376612998709E+03   -0.10753E-04   -0.11584E-04 10080   0.250E-04-0.128E-04
CGA:  16    -0.376612997818E+03    0.89110E-06   -0.10482E-05 10080   0.194E-04 0.102E-04
  26 F= -.37661300E+03 E0= -.37661300E+03  d E =-.208454E-01  mag=    12.0000
       N       E                     dE             d eps       ncg     rms          ort
SDA:   1    -0.376056179058E+03    0.55682E+00    0.00000E+00 10080   0.129E+01 0.000E+00
CGA:   2    -0.376499891281E+03   -0.44371E+00   -0.44357E+00 10080   0.411E+00 0.983E-03
CGA:   3    -0.376579603672E+03   -0.79712E-01   -0.79743E-01 10080   0.103E+00 0.550E-03
CGA:   4    -0.376597780787E+03   -0.18177E-01   -0.18138E-01 10080   0.229E-01-0.614E-03
CGA:   5    -0.376601994409E+03   -0.42136E-02   -0.42085E-02 10080   0.694E-02-0.103E-03
CGA:   6    -0.376603361372E+03   -0.13670E-02   -0.13749E-02 10080   0.194E-02 0.230E-03
CGA:   7    -0.376603887815E+03   -0.52644E-03   -0.52357E-03 10080   0.795E-03 0.967E-04
CGA:   8    -0.376604115909E+03   -0.22809E-03   -0.22733E-03 10080   0.380E-03 0.196E-04
CGA:   9    -0.376604219875E+03   -0.10397E-03   -0.10269E-03 10080   0.122E-03 0.446E-04
CGA:  10    -0.376604261079E+03   -0.41204E-04   -0.40996E-04 10080   0.498E-04 0.323E-05
CGA:  11    -0.376604277193E+03   -0.16114E-04   -0.16349E-04 10080   0.214E-04-0.296E-05
CGA:  12    -0.376604281658E+03   -0.44648E-05   -0.45834E-05 10080   0.891E-05 0.717E-05
  27 F= -.37660428E+03 E0= -.37660428E+03  d E =0.871616E-02  mag=    12.0000
       N       E                     dE             d eps       ncg     rms          ort
SDA:   1    -0.376365677431E+03    0.23860E+00    0.00000E+00 10080   0.584E+00 0.000E+00
CGA:   2    -0.376567670749E+03   -0.20199E+00   -0.20223E+00 10080   0.192E+00-0.238E-02
CGA:   3    -0.376603150476E+03   -0.35480E-01   -0.35520E-01 10080   0.479E-01 0.560E-03
CGA:   4    -0.376611981043E+03   -0.88306E-02   -0.88316E-02 10080   0.103E-01 0.111E-04
CGA:   5    -0.376613857327E+03   -0.18763E-02   -0.18722E-02 10080   0.321E-02-0.697E-04
CGA:   6    -0.376614545711E+03   -0.68838E-03   -0.68644E-03 10080   0.945E-03-0.868E-04
CGA:   7    -0.376614817920E+03   -0.27221E-03   -0.28299E-03 10080   0.517E-03-0.152E-03
CGA:   8    -0.376614941203E+03   -0.12328E-03   -0.13101E-03 10080   0.283E-03-0.125E-03
CGA:   9    -0.376614999775E+03   -0.58572E-04   -0.59820E-04 10080   0.912E-04-0.354E-04
CGA:  10    -0.376615023002E+03   -0.23227E-04   -0.23964E-04 10080   0.352E-04-0.134E-04
CGA:  11    -0.376615032737E+03   -0.97349E-05   -0.11087E-04 10080   0.191E-04-0.112E-04
  28 F= -.37661503E+03 E0= -.37661503E+03  d E =-.107511E-01  mag=    12.0000
       N       E                     dE             d eps       ncg     rms          ort
SDA:   1    -0.376589198481E+03    0.25825E-01    0.00000E+00 10080   0.630E-01 0.000E+00
CGA:   2    -0.376610969849E+03   -0.21771E-01   -0.21723E-01 10080   0.183E-01 0.510E-03
CGA:   3    -0.376614952016E+03   -0.39822E-02   -0.39737E-02 10080   0.376E-02-0.215E-03
CGA:   4    -0.376615565911E+03   -0.61390E-03   -0.60976E-03 10080   0.989E-03-0.470E-04
CGA:   5    -0.376615742320E+03   -0.17641E-03   -0.17809E-03 10080   0.237E-03 0.248E-04
CGA:   6    -0.376615788877E+03   -0.46556E-04   -0.47426E-04 10080   0.696E-04 0.171E-04
CGA:   7    -0.376615806590E+03   -0.17713E-04   -0.17760E-04 10080   0.266E-04 0.812E-05
CGA:   8    -0.376615813902E+03   -0.73125E-05   -0.72996E-05 10080   0.121E-04 0.700E-05
  29 F= -.37661581E+03 E0= -.37661581E+03  d E =-.781165E-03  mag=    12.0000
       N       E                     dE             d eps       ncg     rms          ort
SDA:   1    -0.356209767745E+03    0.20406E+02    0.00000E+00 10080   0.492E+02 0.000E+00
CGA:   2    -0.372514513257E+03   -0.16305E+02   -0.16306E+02 10080   0.161E+02-0.254E-02
CGA:   3    -0.375668518364E+03   -0.31540E+01   -0.31593E+01 10080   0.353E+01 0.537E-01
CGA:   4    -0.376296668302E+03   -0.62815E+00   -0.62648E+00 10080   0.806E+00-0.186E-01
CGA:   5    -0.376451572744E+03   -0.15490E+00   -0.15471E+00 10080   0.261E+00-0.390E-02
CGA:   6    -0.376503282514E+03   -0.51710E-01   -0.51870E-01 10080   0.782E-01 0.391E-02
CGA:   7    -0.376526379777E+03   -0.23097E-01   -0.23271E-01 10080   0.386E-01-0.312E-02
CGA:   8    -0.376537197970E+03   -0.10818E-01   -0.10983E-01 10080   0.207E-01-0.294E-02
CGA:   9    -0.376542459746E+03   -0.52618E-02   -0.52558E-02 10080   0.653E-02 0.190E-03
CGA:  10    -0.376544595948E+03   -0.21362E-02   -0.22424E-02 10080   0.311E-02-0.111E-02
CGA:  11    -0.376545366562E+03   -0.77061E-03   -0.78665E-03 10080   0.121E-02-0.290E-03
CGA:  12    -0.376545715641E+03   -0.34908E-03   -0.34253E-03 10080   0.542E-03 0.106E-03
CGA:  13    -0.376545935281E+03   -0.21964E-03   -0.22451E-03 10080   0.308E-03-0.395E-04
CGA:  14    -0.376545974139E+03   -0.38858E-04   -0.50652E-04 10080   0.134E-03 0.140E-03
CGA:  15    -0.376545988810E+03   -0.14671E-04   -0.26091E-04 10080   0.465E-04 0.922E-04
CGA:  16    -0.376546010572E+03   -0.21762E-04   -0.21681E-04 10080   0.174E-04 0.312E-06
CGA:  17    -0.376546007616E+03    0.29563E-05   -0.64206E-06 10080   0.144E-04 0.160E-04
  30 F= -.37654601E+03 E0= -.37654601E+03  d E =0.698063E-01  mag=    12.0000
       N       E                     dE             d eps       ncg     rms          ort
SDA:   1    -0.374409498365E+03    0.21365E+01    0.00000E+00 10080   0.536E+01 0.000E+00
CGA:   2    -0.376082501854E+03   -0.16730E+01   -0.16730E+01 10080   0.204E+01-0.262E-02
CGA:   3    -0.376468494578E+03   -0.38599E+00   -0.38627E+00 10080   0.518E+00 0.286E-02
CGA:   4    -0.376561555222E+03   -0.93061E-01   -0.92964E-01 10080   0.119E+00-0.164E-02
CGA:   5    -0.376582361924E+03   -0.20807E-01   -0.20774E-01 10080   0.335E-01-0.520E-03
CGA:   6    -0.376589404062E+03   -0.70421E-02   -0.70492E-02 10080   0.992E-02 0.292E-03
CGA:   7    -0.376592068109E+03   -0.26640E-02   -0.26675E-02 10080   0.444E-02-0.105E-03
CGA:   8    -0.376593281592E+03   -0.12135E-02   -0.12240E-02 10080   0.207E-02-0.239E-03
CGA:   9    -0.376593861541E+03   -0.57995E-03   -0.58376E-03 10080   0.751E-03-0.626E-04
CGA:  10    -0.376594093689E+03   -0.23215E-03   -0.24105E-03 10080   0.328E-03-0.986E-04
CGA:  11    -0.376594181823E+03   -0.88134E-04   -0.90230E-04 10080   0.126E-03-0.293E-04
CGA:  12    -0.376594222649E+03   -0.40825E-04   -0.41470E-04 10080   0.615E-04-0.587E-05
CGA:  13    -0.376594245774E+03   -0.23125E-04   -0.25607E-04 10080   0.397E-04-0.136E-04
CGA:  14    -0.376594249214E+03   -0.34403E-05   -0.49698E-05 10080   0.175E-04 0.149E-04
  31 F= -.37659425E+03 E0= -.37659425E+03  d E =-.482416E-01  mag=    12.0000
       N       E                     dE             d eps       ncg     rms          ort
SDA:   1    -0.372889294943E+03    0.37050E+01    0.00000E+00 10080   0.878E+01 0.000E+00
CGA:   2    -0.375925985691E+03   -0.30367E+01   -0.30371E+01 10080   0.274E+01-0.751E-02
CGA:   3    -0.376468359721E+03   -0.54237E+00   -0.54294E+00 10080   0.620E+00 0.770E-02
CGA:   4    -0.376574473911E+03   -0.10611E+00   -0.10595E+00 10080   0.143E+00-0.219E-02
CGA:   5    -0.376602064892E+03   -0.27591E-01   -0.27529E-01 10080   0.431E-01-0.111E-02
CGA:   6    -0.376610465655E+03   -0.84008E-02   -0.84169E-02 10080   0.129E-01 0.317E-03
CGA:   7    -0.376614172997E+03   -0.37073E-02   -0.37389E-02 10080   0.595E-02-0.733E-03
CGA:   8    -0.376615893946E+03   -0.17209E-02   -0.17768E-02 10080   0.355E-02-0.789E-03
CGA:   9    -0.376616728512E+03   -0.83457E-03   -0.83753E-03 10080   0.117E-02-0.133E-03
CGA:  10    -0.376617102085E+03   -0.37357E-03   -0.41266E-03 10080   0.663E-03-0.335E-03
CGA:  11    -0.376617235730E+03   -0.13364E-03   -0.13618E-03 10080   0.265E-03-0.800E-04
CGA:  12    -0.376617300622E+03   -0.64892E-04   -0.64382E-04 10080   0.115E-03 0.286E-04
CGA:  13    -0.376617341106E+03   -0.40484E-04   -0.40451E-04 10080   0.589E-04 0.469E-06
CGA:  14    -0.376617350337E+03   -0.92306E-05   -0.11110E-04 10080   0.251E-04 0.254E-04
  32 F= -.37661735E+03 E0= -.37661735E+03  d E =-.231011E-01  mag=    12.0000
       N       E                     dE             d eps       ncg     rms          ort
SDA:   1    -0.376322598788E+03    0.29474E+00    0.00000E+00 10080   0.729E+00 0.000E+00
CGA:   2    -0.376550717652E+03   -0.22812E+00   -0.22823E+00 10080   0.286E+00-0.183E-02
CGA:   3    -0.376604267478E+03   -0.53550E-01   -0.53571E-01 10080   0.708E-01 0.117E-03
CGA:   4    -0.376617405743E+03   -0.13138E-01   -0.13110E-01 10080   0.164E-01-0.422E-03
CGA:   5    -0.376620308414E+03   -0.29027E-02   -0.28975E-02 10080   0.480E-02-0.731E-04
CGA:   6    -0.376621293236E+03   -0.98482E-03   -0.98842E-03 10080   0.140E-02 0.939E-04
CGA:   7    -0.376621687172E+03   -0.39394E-03   -0.39549E-03 10080   0.662E-03-0.443E-04
CGA:   8    -0.376621880077E+03   -0.19290E-03   -0.20510E-03 10080   0.410E-03-0.161E-03
CGA:   9    -0.376621948464E+03   -0.68387E-04   -0.69110E-04 10080   0.122E-03 0.284E-04
CGA:  10    -0.376621966216E+03   -0.17752E-04   -0.21361E-04 10080   0.458E-04 0.434E-04
CGA:  11    -0.376621978048E+03   -0.11833E-04   -0.12436E-04 10080   0.179E-04 0.141E-04
CGA:  12    -0.376621973392E+03    0.46567E-05   -0.18909E-04 10080   0.941E-04-0.417E-04
CGA:  13    -0.376621981269E+03   -0.78774E-05   -0.13044E-04 10080   0.217E-04 0.396E-04
  33 F= -.37662198E+03 E0= -.37662198E+03  d E =-.463093E-02  mag=    12.0000
       N       E                     dE             d eps       ncg     rms          ort
SDA:   1    -0.376166512462E+03    0.45546E+00    0.00000E+00 10080   0.110E+01 0.000E+00
CGA:   2    -0.376534485465E+03   -0.36797E+00   -0.36787E+00 10080   0.349E+00 0.108E-02
CGA:   3    -0.376606369697E+03   -0.71884E-01   -0.71887E-01 10080   0.788E-01-0.823E-04
CGA:   4    -0.376619149327E+03   -0.12780E-01   -0.12746E-01 10080   0.188E-01-0.370E-03
CGA:   5    -0.376622693929E+03   -0.35446E-02   -0.35443E-02 10080   0.500E-02-0.784E-05
CGA:   6    -0.376623683026E+03   -0.98910E-03   -0.99669E-03 10080   0.151E-02 0.148E-03
CGA:   7    -0.376624088822E+03   -0.40580E-03   -0.40541E-03 10080   0.631E-03 0.315E-04
CGA:   8    -0.376624273409E+03   -0.18459E-03   -0.18305E-03 10080   0.314E-03 0.430E-04
CGA:   9    -0.376624372831E+03   -0.99422E-04   -0.98234E-04 10080   0.126E-03 0.279E-04
CGA:  10    -0.376624423660E+03   -0.50829E-04   -0.57547E-04 10080   0.929E-04-0.405E-04
CGA:  11    -0.376624433403E+03   -0.97434E-05   -0.11211E-04 10080   0.395E-04 0.177E-04
  34 F= -.37662443E+03 E0= -.37662443E+03  d E =-.245213E-02  mag=    12.0000
       N       E                     dE             d eps       ncg     rms          ort
SDA:   1    -0.376138358023E+03    0.48607E+00    0.00000E+00 10080   0.120E+01 0.000E+00
CGA:   2    -0.376508825455E+03   -0.37047E+00   -0.37031E+00 10080   0.446E+00 0.239E-02
CGA:   3    -0.376596341701E+03   -0.87516E-01   -0.87495E-01 10080   0.117E+00-0.474E-03
CGA:   4    -0.376614750794E+03   -0.18409E-01   -0.18378E-01 10080   0.254E-01-0.389E-03
CGA:   5    -0.376619577471E+03   -0.48267E-02   -0.48170E-02 10080   0.678E-02-0.180E-03
CGA:   6    -0.376620984460E+03   -0.14070E-02   -0.14041E-02 10080   0.216E-02-0.833E-04
CGA:   7    -0.376621534423E+03   -0.54996E-03   -0.55006E-03 10080   0.899E-03-0.647E-05
CGA:   8    -0.376621803132E+03   -0.26871E-03   -0.27040E-03 10080   0.476E-03-0.287E-04
CGA:   9    -0.376621966287E+03   -0.16315E-03   -0.17939E-03 10080   0.306E-03-0.113E-03
CGA:  10    -0.376622034517E+03   -0.68231E-04   -0.69905E-04 10080   0.113E-03-0.357E-04
CGA:  11    -0.376622066201E+03   -0.31683E-04   -0.32726E-04 10080   0.465E-04-0.143E-04
CGA:  12    -0.376622078517E+03   -0.12316E-04   -0.12169E-04 10080   0.193E-04 0.362E-05
CGA:  13    -0.376622082545E+03   -0.40288E-05   -0.44255E-05 10080   0.785E-05 0.828E-05
  35 F= -.37662208E+03 E0= -.37662208E+03  d E =0.235086E-02  mag=    12.0000
       N       E                     dE             d eps       ncg     rms          ort
SDA:   1    -0.362030027098E+03    0.14592E+02    0.00000E+00 10080   0.313E+02 0.000E+00
CGA:   2    -0.372052117028E+03   -0.10022E+02   -0.10012E+02 10080   0.134E+02 0.890E-01
CGA:   3    -0.374407943371E+03   -0.23558E+01   -0.23631E+01 10080   0.322E+01 0.161E-01
CGA:   4    -0.375051484994E+03   -0.64354E+00   -0.64328E+00 10080   0.847E+00-0.326E-02
CGA:   5    -0.375195222654E+03   -0.14374E+00   -0.14369E+00 10080   0.228E+00 0.616E-04
CGA:   6    -0.375246073853E+03   -0.50851E-01   -0.50909E-01 10080   0.763E-01 0.243E-02
CGA:   7    -0.375266571535E+03   -0.20498E-01   -0.20497E-01 10080   0.333E-01 0.140E-04
CGA:   8    -0.375275287335E+03   -0.87158E-02   -0.87344E-02 10080   0.128E-01-0.117E-02
CGA:   9    -0.375278616080E+03   -0.33287E-02   -0.33228E-02 10080   0.369E-02 0.284E-03
CGA:  10    -0.375279621441E+03   -0.10054E-02   -0.10014E-02 10080   0.107E-02 0.230E-03
CGA:  11    -0.375279991928E+03   -0.37049E-03   -0.39298E-03 10080   0.490E-03-0.231E-03
CGA:  12    -0.375280061626E+03   -0.69698E-04   -0.75734E-04 10080   0.166E-03 0.106E-03
CGA:  13    -0.375280099749E+03   -0.38122E-04   -0.40405E-04 10080   0.743E-04 0.444E-04
CGA:  14    -0.375279695926E+03    0.40382E-03   -0.21772E-03 10080   0.182E-02-0.406E-03
CGA:  15    -0.375280019554E+03   -0.32363E-03   -0.38802E-03 10080   0.292E-03 0.269E-03
CGA:  16    -0.375280157796E+03   -0.13824E-03   -0.13065E-03 10080   0.166E-03-0.148E-03
CGA:  17    -0.375280155266E+03    0.25296E-05   -0.19293E-04 10080   0.363E-04 0.678E-04
  36 F= -.37528016E+03 E0= -.37528016E+03  d E =0.134193E+01  mag=    12.0000
       N       E                     dE             d eps       ncg     rms          ort
SDA:   1    -0.371278289816E+03    0.40019E+01    0.00000E+00 10080   0.123E+02 0.000E+00
CGA:   2    -0.375265390549E+03   -0.39871E+01   -0.39890E+01 10080   0.465E+01-0.333E-02
CGA:   3    -0.376128925466E+03   -0.86353E+00   -0.86470E+00 10080   0.121E+01 0.117E-01
CGA:   4    -0.376369820377E+03   -0.24089E+00   -0.24072E+00 10080   0.280E+00-0.135E-02
CGA:   5    -0.376419312741E+03   -0.49492E-01   -0.49415E-01 10080   0.890E-01-0.293E-03
CGA:   6    -0.376438656748E+03   -0.19344E-01   -0.19406E-01 10080   0.293E-01 0.397E-03
CGA:   7    -0.376446870070E+03   -0.82133E-02   -0.82109E-02 10080   0.133E-01-0.357E-04
CGA:   8    -0.376450267202E+03   -0.33971E-02   -0.33844E-02 10080   0.515E-02-0.124E-03
CGA:   9    -0.376451709474E+03   -0.14423E-02   -0.14447E-02 10080   0.168E-02 0.347E-04
CGA:  10    -0.376452206281E+03   -0.49681E-03   -0.49359E-03 10080   0.605E-03-0.555E-04
CGA:  11    -0.376452401196E+03   -0.19491E-03   -0.19421E-03 10080   0.248E-03-0.433E-04
CGA:  12    -0.376452490240E+03   -0.89044E-04   -0.89899E-04 10080   0.138E-03-0.202E-04
CGA:  13    -0.376452544131E+03   -0.53892E-04   -0.56141E-04 10080   0.858E-04-0.238E-04
CGA:  14    -0.376452563150E+03   -0.19019E-04   -0.19782E-04 10080   0.299E-04 0.101E-04
CGA:  15    -0.376452574299E+03   -0.11148E-04   -0.11109E-04 10080   0.116E-04-0.220E-05
CGA:  16    -0.376452578324E+03   -0.40250E-05   -0.40648E-05 10080   0.429E-05-0.134E-05
  37 F= -.37645258E+03 E0= -.37645258E+03  d E =-.117242E+01  mag=    12.0000
       N       E                     dE             d eps       ncg     rms          ort
SDA:   1    -0.374962418736E+03    0.14902E+01    0.00000E+00 10080   0.384E+01 0.000E+00
CGA:   2    -0.376201563664E+03   -0.12391E+01   -0.12392E+01 10080   0.156E+01 0.108E-03
CGA:   3    -0.376483108003E+03   -0.28154E+00   -0.28201E+00 10080   0.399E+00 0.422E-02
CGA:   4    -0.376562565211E+03   -0.79457E-01   -0.79576E-01 10080   0.102E+00 0.965E-03
CGA:   5    -0.376579834156E+03   -0.17269E-01   -0.17211E-01 10080   0.284E-01-0.389E-03
CGA:   6    -0.376586341436E+03   -0.65073E-02   -0.64891E-02 10080   0.983E-02-0.208E-03
CGA:   7    -0.376588793505E+03   -0.24521E-02   -0.24743E-02 10080   0.402E-02 0.366E-03
CGA:   8    -0.376589855095E+03   -0.10616E-02   -0.10668E-02 10080   0.151E-02 0.943E-04
CGA:   9    -0.376590297422E+03   -0.44233E-03   -0.44201E-03 10080   0.510E-03-0.144E-04
CGA:  10    -0.376590409246E+03   -0.11182E-03   -0.11781E-03 10080   0.134E-03 0.810E-04
CGA:  11    -0.376590464676E+03   -0.55431E-04   -0.57780E-04 10080   0.819E-04-0.345E-04
CGA:  12    -0.376590478883E+03   -0.14207E-04   -0.14614E-04 10080   0.352E-04 0.608E-05
CGA:  13    -0.376590484111E+03   -0.52278E-05   -0.68397E-05 10080   0.167E-04 0.131E-04
  38 F= -.37659048E+03 E0= -.37659048E+03  d E =-.137906E+00  mag=    12.0000
       N       E                     dE             d eps       ncg     rms          ort
SDA:   1    -0.376530972631E+03    0.59506E-01    0.00000E+00 10080   0.194E+00 0.000E+00
CGA:   2    -0.376587788500E+03   -0.56816E-01   -0.56819E-01 10080   0.766E-01 0.209E-02
CGA:   3    -0.376602379534E+03   -0.14591E-01   -0.14652E-01 10080   0.241E-01 0.562E-03
CGA:   4    -0.376606552529E+03   -0.41730E-02   -0.42355E-02 10080   0.583E-02 0.544E-03
CGA:   5    -0.376607597968E+03   -0.10454E-02   -0.10550E-02 10080   0.148E-02 0.888E-04
CGA:   6    -0.376607966400E+03   -0.36843E-03   -0.36341E-03 10080   0.627E-03-0.141E-03
CGA:   7    -0.376608063038E+03   -0.96637E-04   -0.10698E-03 10080   0.186E-03 0.119E-03
CGA:   8    -0.376608076243E+03   -0.13206E-04   -0.28825E-04 10080   0.785E-04 0.111E-03
CGA:   9    -0.376608088268E+03   -0.12025E-04   -0.14858E-04 10080   0.339E-04 0.378E-04
CGA:  10    -0.376608092364E+03   -0.40959E-05   -0.75455E-05 10080   0.194E-04 0.313E-04
  39 F= -.37660809E+03 E0= -.37660809E+03  d E =-.176083E-01  mag=    12.0000
       N       E                     dE             d eps       ncg     rms          ort
SDA:   1    -0.376469042467E+03    0.13905E+00    0.00000E+00 10080   0.380E+00 0.000E+00
CGA:   2    -0.376579774264E+03   -0.11073E+00   -0.11062E+00 10080   0.154E+00 0.270E-02
CGA:   3    -0.376609205823E+03   -0.29432E-01   -0.29478E-01 10080   0.460E-01 0.684E-03
CGA:   4    -0.376617362756E+03   -0.81569E-02   -0.82123E-02 10080   0.114E-01 0.740E-03
CGA:   5    -0.376619370529E+03   -0.20078E-02   -0.20185E-02 10080   0.296E-02 0.144E-03
CGA:   6    -0.376620069988E+03   -0.69946E-03   -0.69774E-03 10080   0.113E-02-0.150E-03
CGA:   7    -0.376620293509E+03   -0.22352E-03   -0.22842E-03 10080   0.370E-03 0.164E-03
CGA:   8    -0.376620348436E+03   -0.54927E-04   -0.68880E-04 10080   0.136E-03 0.176E-03
CGA:   9    -0.376620374743E+03   -0.26308E-04   -0.32705E-04 10080   0.634E-04 0.857E-04
CGA:  10    -0.376620228295E+03    0.14645E-03   -0.81373E-04 10080   0.141E-02-0.191E-03
CGA:  11    -0.376620386006E+03   -0.15771E-03   -0.20051E-03 10080   0.764E-04 0.150E-03
CGA:  12    -0.376620398162E+03   -0.12156E-04   -0.16164E-04 10080   0.149E-04 0.180E-04
CGA:  13    -0.376620405368E+03   -0.72058E-05   -0.70737E-05 10080   0.112E-04-0.788E-05
  40 F= -.37662041E+03 E0= -.37662041E+03  d E =-.123130E-01  mag=    12.0000
       N       E                     dE             d eps       ncg     rms          ort
SDA:   1    -0.376607876843E+03    0.12521E-01    0.00000E+00 10080   0.392E-01 0.000E+00
CGA:   2    -0.376617755597E+03   -0.98788E-02   -0.98773E-02 10080   0.144E-01-0.292E-04
CGA:   3    -0.376620777074E+03   -0.30215E-02   -0.30374E-02 10080   0.482E-02 0.918E-04
CGA:   4    -0.376621537129E+03   -0.76005E-03   -0.78346E-03 10080   0.106E-02 0.110E-03
CGA:   5    -0.376621729292E+03   -0.19216E-03   -0.19762E-03 10080   0.289E-03 0.302E-04
CGA:   6    -0.376621800322E+03   -0.71029E-04   -0.68238E-04 10080   0.119E-03-0.229E-04
CGA:   7    -0.376621823142E+03   -0.22820E-04   -0.24446E-04 10080   0.424E-04 0.134E-04
CGA:   8    -0.376621828847E+03   -0.57046E-05   -0.85546E-05 10080   0.167E-04 0.180E-04
  41 F= -.37662183E+03 E0= -.37662183E+03  d E =-.142348E-02  mag=    12.0000
       N       E                     dE             d eps       ncg     rms          ort
SDA:   1    -0.376570579565E+03    0.51244E-01    0.00000E+00 10080   0.151E+00 0.000E+00
CGA:   2    -0.376608114587E+03   -0.37535E-01   -0.37504E-01 10080   0.531E-01-0.479E-03
CGA:   3    -0.376619621261E+03   -0.11507E-01   -0.11511E-01 10080   0.182E-01 0.318E-04
CGA:   4    -0.376622515619E+03   -0.28944E-02   -0.29202E-02 10080   0.380E-02 0.157E-03
CGA:   5    -0.376623230363E+03   -0.71474E-03   -0.72254E-03 10080   0.102E-02 0.631E-04
CGA:   6    -0.376623468816E+03   -0.23845E-03   -0.23556E-03 10080   0.404E-03-0.386E-04
CGA:   7    -0.376623573705E+03   -0.10489E-03   -0.10497E-03 10080   0.185E-03 0.283E-05
CGA:   8    -0.376623625383E+03   -0.51678E-04   -0.51916E-04 10080   0.863E-04 0.126E-04
CGA:   9    -0.376623660440E+03   -0.35057E-04   -0.37116E-04 10080   0.622E-04-0.195E-04
CGA:  10    -0.376623668311E+03   -0.78705E-05   -0.93233E-05 10080   0.237E-04 0.133E-04
  42 F= -.37662367E+03 E0= -.37662367E+03  d E =-.183946E-02  mag=    12.0000
       N       E                     dE             d eps       ncg     rms          ort
SDA:   1    -0.376606131294E+03    0.17529E-01    0.00000E+00 10080   0.518E-01 0.000E+00
CGA:   2    -0.376619424057E+03   -0.13293E-01   -0.13276E-01 10080   0.171E-01-0.510E-03
CGA:   3    -0.376623261140E+03   -0.38371E-02   -0.38377E-02 10080   0.541E-02 0.434E-05
CGA:   4    -0.376624087093E+03   -0.82595E-03   -0.83311E-03 10080   0.117E-02 0.524E-04
CGA:   5    -0.376624304496E+03   -0.21740E-03   -0.21937E-03 10080   0.303E-03 0.208E-04
CGA:   6    -0.376624377457E+03   -0.72961E-04   -0.72487E-04 10080   0.128E-03-0.122E-04
CGA:   7    -0.376624414731E+03   -0.37274E-04   -0.37539E-04 10080   0.724E-04-0.776E-05
CGA:   8    -0.376624438893E+03   -0.24162E-04   -0.26567E-04 10080   0.626E-04-0.206E-04
CGA:   9    -0.376624451815E+03   -0.12923E-04   -0.13006E-04 10080   0.251E-04-0.786E-05
CGA:  10    -0.376624454479E+03   -0.26634E-05   -0.35831E-05 10080   0.943E-05 0.783E-05
  43 F= -.37662445E+03 E0= -.37662445E+03  d E =-.786168E-03  mag=    12.0000
       N       E                     dE             d eps       ncg     rms          ort
SDA:   1    -0.376454458162E+03    0.16999E+00    0.00000E+00 10080   0.481E+00 0.000E+00
CGA:   2    -0.376579704452E+03   -0.12525E+00   -0.12524E+00 10080   0.154E+00-0.154E-02
CGA:   3    -0.376615082973E+03   -0.35379E-01   -0.35376E-01 10080   0.463E-01-0.116E-03
CGA:   4    -0.376622227224E+03   -0.71443E-02   -0.71696E-02 10080   0.103E-01 0.209E-03
CGA:   5    -0.376624162193E+03   -0.19350E-02   -0.19398E-02 10080   0.267E-02 0.640E-04
CGA:   6    -0.376624761289E+03   -0.59910E-03   -0.59711E-03 10080   0.106E-02-0.598E-04
CGA:   7    -0.376625057687E+03   -0.29640E-03   -0.29716E-03 10080   0.548E-03-0.235E-04
CGA:   8    -0.376625233701E+03   -0.17601E-03   -0.17968E-03 10080   0.349E-03-0.463E-04
CGA:   9    -0.376625338952E+03   -0.10525E-03   -0.10882E-03 10080   0.163E-03-0.444E-04
CGA:  10    -0.376625369955E+03   -0.31003E-04   -0.32037E-04 10080   0.471E-04 0.263E-04
CGA:  11    -0.376625381741E+03   -0.11786E-04   -0.12246E-04 10080   0.170E-04 0.121E-04
CGA:  12    -0.376625388087E+03   -0.63457E-05   -0.62851E-05 10080   0.803E-05 0.175E-05
  44 F= -.37662539E+03 E0= -.37662539E+03  d E =-.933608E-03  mag=    12.0000
       N       E                     dE             d eps       ncg     rms          ort
SDA:   1    -0.376529730782E+03    0.95651E-01    0.00000E+00 10080   0.246E+00 0.000E+00
CGA:   2    -0.376602334710E+03   -0.72604E-01   -0.72622E-01 10080   0.860E-01-0.574E-03
CGA:   3    -0.376620312102E+03   -0.17977E-01   -0.17979E-01 10080   0.234E-01 0.172E-04
CGA:   4    -0.376623980916E+03   -0.36688E-02   -0.36881E-02 10080   0.510E-02 0.186E-03
CGA:   5    -0.376624943737E+03   -0.96282E-03   -0.96486E-03 10080   0.137E-02 0.306E-04
CGA:   6    -0.376625243451E+03   -0.29971E-03   -0.29822E-03 10080   0.493E-03-0.458E-04
CGA:   7    -0.376625362838E+03   -0.11939E-03   -0.11931E-03 10080   0.198E-03 0.209E-04
CGA:   8    -0.376625420900E+03   -0.58062E-04   -0.57535E-04 10080   0.965E-04 0.168E-04
CGA:   9    -0.376625460438E+03   -0.39537E-04   -0.44440E-04 10080   0.788E-04-0.278E-04
CGA:  10    -0.376625469520E+03   -0.90824E-05   -0.10171E-04 10080   0.322E-04 0.143E-04
  45 F= -.37662547E+03 E0= -.37662547E+03  d E =-.814330E-04  mag=    12.0000
       N       E                     dE             d eps       ncg     rms          ort
SDA:   1    -0.376610064738E+03    0.15396E-01    0.00000E+00 10080   0.408E-01 0.000E+00
CGA:   2    -0.376621962461E+03   -0.11898E-01   -0.11877E-01 10080   0.137E-01 0.472E-03
CGA:   3    -0.376625011715E+03   -0.30493E-02   -0.30421E-02 10080   0.406E-02-0.238E-03
CGA:   4    -0.376625684215E+03   -0.67250E-03   -0.66921E-03 10080   0.899E-03-0.410E-04
CGA:   5    -0.376625838241E+03   -0.15403E-03   -0.15595E-03 10080   0.235E-03 0.277E-04
CGA:   6    -0.376625887479E+03   -0.49237E-04   -0.49506E-04 10080   0.751E-04 0.736E-05
CGA:   7    -0.376625911105E+03   -0.23626E-04   -0.24398E-04 10080   0.431E-04-0.102E-04
CGA:   8    -0.376625918262E+03   -0.71570E-05   -0.74429E-05 10080   0.152E-04 0.659E-05
  46 F= -.37662592E+03 E0= -.37662592E+03  d E =-.448742E-03  mag=    12.0000
       N       E                     dE             d eps       ncg     rms          ort
SDA:   1    -0.376612150497E+03    0.13761E-01    0.00000E+00 10080   0.364E-01 0.000E+00
CGA:   2    -0.376622538824E+03   -0.10388E-01   -0.10368E-01 10080   0.120E-01 0.432E-03
CGA:   3    -0.376625272376E+03   -0.27336E-02   -0.27285E-02 10080   0.358E-02-0.288E-03
CGA:   4    -0.376625825924E+03   -0.55355E-03   -0.54769E-03 10080   0.776E-03-0.703E-04
CGA:   5    -0.376625968485E+03   -0.14256E-03   -0.14318E-03 10080   0.197E-03 0.124E-04
CGA:   6    -0.376626013196E+03   -0.44711E-04   -0.44658E-04 10080   0.752E-04-0.466E-05
CGA:   7    -0.376626036499E+03   -0.23303E-04   -0.27840E-04 10080   0.725E-04-0.313E-04
CGA:   8    -0.376626045985E+03   -0.94861E-05   -0.94211E-05 10080   0.347E-04-0.346E-05
  47 F= -.37662605E+03 E0= -.37662605E+03  d E =-.127723E-03  mag=    12.0000
       N       E                     dE             d eps       ncg     rms          ort
SDA:   1    -0.376566901156E+03    0.59135E-01    0.00000E+00 10080   0.142E+00 0.000E+00
CGA:   2    -0.376613051389E+03   -0.46150E-01   -0.46145E-01 10080   0.522E-01 0.265E-04
CGA:   3    -0.376622771594E+03   -0.97202E-02   -0.97109E-02 10080   0.133E-01-0.182E-03
CGA:   4    -0.376624942056E+03   -0.21705E-02   -0.21606E-02 10080   0.287E-02-0.131E-03
CGA:   5    -0.376625482365E+03   -0.54031E-03   -0.53934E-03 10080   0.758E-03-0.214E-04
CGA:   6    -0.376625631107E+03   -0.14874E-03   -0.14967E-03 10080   0.206E-03 0.263E-04
CGA:   7    -0.376625687872E+03   -0.56765E-04   -0.57389E-04 10080   0.927E-04-0.168E-04
CGA:   8    -0.376625713728E+03   -0.25856E-04   -0.27616E-04 10080   0.553E-04-0.195E-04
CGA:   9    -0.376625722829E+03   -0.91014E-05   -0.92939E-05 10080   0.173E-04 0.753E-05
  48 F= -.37662572E+03 E0= -.37662572E+03  d E =0.323156E-03  mag=    12.0000
       N       E                     dE             d eps       ncg     rms          ort
SDA:   1    -0.375639481352E+03    0.98623E+00    0.00000E+00 10080   0.230E+01 0.000E+00
CGA:   2    -0.376436264233E+03   -0.79678E+00   -0.79732E+00 10080   0.762E+00-0.486E-02
CGA:   3    -0.376575407803E+03   -0.13914E+00   -0.13935E+00 10080   0.187E+00 0.252E-02
CGA:   4    -0.376606482295E+03   -0.31074E-01   -0.31049E-01 10080   0.421E-01-0.306E-03
CGA:   5    -0.376614324585E+03   -0.78423E-02   -0.78211E-02 10080   0.118E-01-0.434E-03
CGA:   6    -0.376616623551E+03   -0.22990E-02   -0.23078E-02 10080   0.313E-02 0.250E-03
CGA:   7    -0.376617432940E+03   -0.80939E-03   -0.80898E-03 10080   0.124E-02 0.183E-04
CGA:   8    -0.376617794828E+03   -0.36189E-03   -0.36829E-03 10080   0.656E-03-0.100E-03
CGA:   9    -0.376617941896E+03   -0.14707E-03   -0.14636E-03 10080   0.201E-03 0.876E-04
CGA:  10    -0.376618009969E+03   -0.68073E-04   -0.68220E-04 10080   0.874E-04-0.232E-05
CGA:  11    -0.376618034688E+03   -0.24719E-04   -0.43134E-04 10080   0.129E-03-0.707E-04
CGA:  12    -0.376618045783E+03   -0.11095E-04   -0.16608E-04 10080   0.238E-04 0.451E-04
CGA:  13    -0.376618048527E+03   -0.27441E-05   -0.42654E-05 10080   0.103E-04 0.135E-04
  49 F= -.37661805E+03 E0= -.37661805E+03  d E =0.767430E-02  mag=    12.0000
       N       E                     dE             d eps       ncg     rms          ort
SDA:   1    -0.375959805298E+03    0.65824E+00    0.00000E+00 10080   0.157E+01 0.000E+00
CGA:   2    -0.376425863566E+03   -0.46606E+00   -0.46621E+00 10080   0.701E+00-0.334E-02
CGA:   3    -0.376554167290E+03   -0.12830E+00   -0.12835E+00 10080   0.178E+00 0.120E-03
CGA:   4    -0.376586966042E+03   -0.32799E-01   -0.32792E-01 10080   0.469E-01-0.130E-03
CGA:   5    -0.376594925383E+03   -0.79593E-02   -0.79603E-02 10080   0.115E-01 0.178E-04
CGA:   6    -0.376597449575E+03   -0.25242E-02   -0.25250E-02 10080   0.368E-02 0.547E-04
CGA:   7    -0.376598409907E+03   -0.96033E-03   -0.96295E-03 10080   0.161E-02-0.951E-04
CGA:   8    -0.376598835379E+03   -0.42547E-03   -0.43163E-03 10080   0.672E-03-0.151E-03
CGA:   9    -0.376598999343E+03   -0.16396E-03   -0.16384E-03 10080   0.197E-03 0.376E-05
CGA:  10    -0.376599045285E+03   -0.45941E-04   -0.46132E-04 10080   0.547E-04 0.354E-04
CGA:  11    -0.376599066301E+03   -0.21016E-04   -0.21994E-04 10080   0.277E-04-0.946E-05
CGA:  12    -0.376599071799E+03   -0.54983E-05   -0.55038E-05 10080   0.107E-04 0.252E-05
  50 F= -.37659907E+03 E0= -.37659907E+03  d E =0.189767E-01  mag=    12.0000
       N       E                     dE             d eps       ncg     rms          ort
SDA:   1    -0.376142837470E+03    0.45623E+00    0.00000E+00 10080   0.115E+01 0.000E+00
CGA:   2    -0.376528785309E+03   -0.38595E+00   -0.38585E+00 10080   0.390E+00 0.909E-03
CGA:   3    -0.376601467964E+03   -0.72683E-01   -0.72714E-01 10080   0.988E-01 0.505E-03
CGA:   4    -0.376619650774E+03   -0.18183E-01   -0.18174E-01 10080   0.229E-01-0.150E-03
CGA:   5    -0.376623698031E+03   -0.40473E-02   -0.40412E-02 10080   0.657E-02-0.989E-04
CGA:   6    -0.376625088479E+03   -0.13904E-02   -0.13919E-02 10080   0.193E-02 0.575E-04
CGA:   7    -0.376625592455E+03   -0.50398E-03   -0.50298E-03 10080   0.799E-03 0.470E-04
CGA:   8    -0.376625806512E+03   -0.21406E-03   -0.21381E-03 10080   0.324E-03 0.107E-04
CGA:   9    -0.376625909709E+03   -0.10320E-03   -0.10608E-03 10080   0.134E-03-0.345E-04
CGA:  10    -0.376625947659E+03   -0.37951E-04   -0.48203E-04 10080   0.920E-04-0.640E-04
CGA:  11    -0.376625957406E+03   -0.97463E-05   -0.97677E-05 10080   0.331E-04 0.438E-06
  51 F= -.37662596E+03 E0= -.37662596E+03  d E =-.268856E-01  mag=    12.0000
       N       E                     dE             d eps       ncg     rms          ort
SDA:   1    -0.376582213518E+03    0.43734E-01    0.00000E+00 10080   0.107E+00 0.000E+00
CGA:   2    -0.376614467719E+03   -0.32254E-01   -0.32208E-01 10080   0.427E-01 0.829E-03
CGA:   3    -0.376622668665E+03   -0.82009E-02   -0.81885E-02 10080   0.116E-01-0.226E-03
CGA:   4    -0.376624649500E+03   -0.19808E-02   -0.19723E-02 10080   0.264E-02-0.117E-03
CGA:   5    -0.376625121275E+03   -0.47177E-03   -0.47005E-03 10080   0.704E-03-0.286E-04
CGA:   6    -0.376625266679E+03   -0.14540E-03   -0.14533E-03 10080   0.215E-03-0.258E-05
CGA:   7    -0.376625315404E+03   -0.48725E-04   -0.48843E-04 10080   0.746E-04 0.126E-04
CGA:   8    -0.376625335245E+03   -0.19841E-04   -0.19746E-04 10080   0.280E-04 0.706E-05
CGA:   9    -0.376625344309E+03   -0.90642E-05   -0.17749E-04 10080   0.543E-04-0.253E-04
  52 F= -.37662534E+03 E0= -.37662534E+03  d E =0.613097E-03  mag=    12.0000
       N       E                     dE             d eps       ncg     rms          ort
SDA:   1    -0.376565217286E+03    0.60118E-01    0.00000E+00 10080   0.143E+00 0.000E+00
CGA:   2    -0.376613232748E+03   -0.48015E-01   -0.47989E-01 10080   0.459E-01 0.289E-03
CGA:   3    -0.376622696514E+03   -0.94638E-02   -0.94397E-02 10080   0.112E-01-0.505E-03
CGA:   4    -0.376624506634E+03   -0.18101E-02   -0.18001E-02 10080   0.258E-02-0.112E-03
CGA:   5    -0.376624975674E+03   -0.46904E-03   -0.46902E-03 10080   0.739E-03-0.627E-06
CGA:   6    -0.376625126583E+03   -0.15091E-03   -0.15086E-03 10080   0.219E-03-0.129E-05
CGA:   7    -0.376625193199E+03   -0.66616E-04   -0.69884E-04 10080   0.130E-03-0.422E-04
CGA:   8    -0.376625223354E+03   -0.30154E-04   -0.46310E-04 10080   0.177E-03-0.825E-04
CGA:   9    -0.376625246542E+03   -0.23188E-04   -0.25472E-04 10080   0.232E-04 0.203E-04
CGA:  10    -0.376625252259E+03   -0.57166E-05   -0.58799E-05 10080   0.714E-05 0.708E-05
  53 F= -.37662525E+03 E0= -.37662525E+03  d E =0.920503E-04  mag=    12.0000
       N       E                     dE             d eps       ncg     rms          ort
SDA:   1    -0.375921001378E+03    0.70425E+00    0.00000E+00 10080   0.166E+01 0.000E+00
CGA:   2    -0.376470693081E+03   -0.54969E+00   -0.54975E+00 10080   0.571E+00-0.108E-02
CGA:   3    -0.376582171056E+03   -0.11148E+00   -0.11153E+00 10080   0.138E+00 0.447E-03
CGA:   4    -0.376604797991E+03   -0.22627E-01   -0.22593E-01 10080   0.311E-01-0.363E-03
CGA:   5    -0.376610673647E+03   -0.58757E-02   -0.58673E-02 10080   0.899E-02-0.130E-03
CGA:   6    -0.376612470401E+03   -0.17968E-02   -0.18005E-02 10080   0.267E-02 0.716E-04
CGA:   7    -0.376613201243E+03   -0.73084E-03   -0.73321E-03 10080   0.119E-02-0.106E-03
CGA:   8    -0.376613543083E+03   -0.34184E-03   -0.34907E-03 10080   0.660E-03-0.132E-03
CGA:   9    -0.376613719072E+03   -0.17599E-03   -0.17862E-03 10080   0.259E-03-0.517E-04
CGA:  10    -0.376613800239E+03   -0.81167E-04   -0.92758E-04 10080   0.156E-03-0.873E-04
CGA:  11    -0.376613828754E+03   -0.28515E-04   -0.28627E-04 10080   0.582E-04-0.846E-05
CGA:  12    -0.376613847551E+03   -0.18797E-04   -0.19827E-04 10080   0.362E-04-0.107E-04
CGA:  13    -0.376613858120E+03   -0.10569E-04   -0.11733E-04 10080   0.238E-04-0.908E-05
CGA:  14    -0.376613859863E+03   -0.17436E-05   -0.27075E-05 10080   0.112E-04 0.784E-05
  54 F= -.37661386E+03 E0= -.37661386E+03  d E =0.113924E-01  mag=    12.0000
       N       E                     dE             d eps       ncg     rms          ort
SDA:   1    -0.376445596827E+03    0.16826E+00    0.00000E+00 10080   0.417E+00 0.000E+00
CGA:   2    -0.376584482217E+03   -0.13889E+00   -0.13896E+00 10080   0.160E+00-0.116E-02
CGA:   3    -0.376613267183E+03   -0.28785E-01   -0.28823E-01 10080   0.407E-01 0.405E-03
CGA:   4    -0.376621012698E+03   -0.77455E-02   -0.77463E-02 10080   0.958E-02 0.140E-04
CGA:   5    -0.376622691233E+03   -0.16785E-02   -0.16702E-02 10080   0.280E-02-0.102E-03
CGA:   6    -0.376623314223E+03   -0.62299E-03   -0.62117E-03 10080   0.923E-03-0.631E-04
CGA:   7    -0.376623554182E+03   -0.23996E-03   -0.24027E-03 10080   0.399E-03-0.214E-04
CGA:   8    -0.376623665955E+03   -0.11177E-03   -0.11444E-03 10080   0.198E-03-0.650E-04
CGA:   9    -0.376623706463E+03   -0.40509E-04   -0.40564E-04 10080   0.531E-04 0.544E-05
CGA:  10    -0.376623715302E+03   -0.88392E-05   -0.10045E-04 10080   0.162E-04 0.173E-04
  55 F= -.37662372E+03 E0= -.37662372E+03  d E =-.985544E-02  mag=    12.0000
       N       E                     dE             d eps       ncg     rms          ort
SDA:   1    -0.376595857608E+03    0.27849E-01    0.00000E+00 10080   0.759E-01 0.000E+00
CGA:   2    -0.376615702475E+03   -0.19845E-01   -0.19839E-01 10080   0.342E-01 0.529E-03
CGA:   3    -0.376622375649E+03   -0.66732E-02   -0.66674E-02 10080   0.102E-01-0.113E-03
CGA:   4    -0.376624129216E+03   -0.17536E-02   -0.17507E-02 10080   0.255E-02-0.387E-04
CGA:   5    -0.376624582825E+03   -0.45361E-03   -0.45396E-03 10080   0.632E-03 0.468E-05
CGA:   6    -0.376624714427E+03   -0.13160E-03   -0.13180E-03 10080   0.186E-03 0.561E-05
CGA:   7    -0.376624755078E+03   -0.40651E-04   -0.41144E-04 10080   0.636E-04 0.233E-04
CGA:   8    -0.376624768283E+03   -0.13205E-04   -0.14097E-04 10080   0.207E-04 0.212E-04
CGA:   9    -0.376624774823E+03   -0.65405E-05   -0.65439E-05 10080   0.954E-05 0.727E-05
  56 F= -.37662477E+03 E0= -.37662477E+03  d E =-.105952E-02  mag=    12.0000
       N       E                     dE             d eps       ncg     rms          ort
SDA:   1    -0.376617420551E+03    0.73477E-02    0.00000E+00 10080   0.174E-01 0.000E+00
CGA:   2    -0.376623292955E+03   -0.58724E-02   -0.58878E-02 10080   0.608E-02-0.170E-03
CGA:   3    -0.376624396462E+03   -0.11035E-02   -0.11058E-02 10080   0.155E-02 0.323E-04
CGA:   4    -0.376624645768E+03   -0.24931E-03   -0.24791E-03 10080   0.361E-03-0.161E-04
CGA:   5    -0.376624714419E+03   -0.68651E-04   -0.68159E-04 10080   0.955E-04-0.946E-05
CGA:   6    -0.376624733818E+03   -0.19399E-04   -0.19320E-04 10080   0.290E-04-0.239E-05
CGA:   7    -0.376624741946E+03   -0.81275E-05   -0.10932E-04 10080   0.381E-04-0.190E-04
  57 F= -.37662474E+03 E0= -.37662474E+03  d E =0.328778E-04  mag=    12.0000
       N       E                     dE             d eps       ncg     rms          ort
SDA:   1    -0.376584549650E+03    0.40184E-01    0.00000E+00 10080   0.921E-01 0.000E+00
CGA:   2    -0.376617879268E+03   -0.33330E-01   -0.33314E-01 10080   0.261E-01 0.121E-03
CGA:   3    -0.376623068443E+03   -0.51892E-02   -0.51786E-02 10080   0.642E-02-0.218E-03
CGA:   4    -0.376624063553E+03   -0.99511E-03   -0.99271E-03 10080   0.148E-02-0.282E-04
CGA:   5    -0.376624336039E+03   -0.27249E-03   -0.27227E-03 10080   0.410E-03-0.408E-05
CGA:   6    -0.376624426803E+03   -0.90764E-04   -0.90104E-04 10080   0.135E-03-0.366E-04
CGA:   7    -0.376624462298E+03   -0.35495E-04   -0.42958E-04 10080   0.125E-03-0.668E-04
CGA:   8    -0.376624475786E+03   -0.13488E-04   -0.25001E-04 10080   0.126E-03-0.755E-04
CGA:   9    -0.376624497839E+03   -0.22053E-04   -0.22738E-04 10080   0.273E-04 0.982E-05
CGA:  10    -0.376624503889E+03   -0.60499E-05   -0.62692E-05 10080   0.547E-05 0.646E-05
  58 F= -.37662450E+03 E0= -.37662450E+03  d E =0.238057E-03  mag=    12.0000
       N       E                     dE             d eps       ncg     rms          ort
SDA:   1    -0.376224685590E+03    0.39981E+00    0.00000E+00 10080   0.916E+00 0.000E+00
CGA:   2    -0.376556861884E+03   -0.33218E+00   -0.33219E+00 10080   0.272E+00-0.241E-03
CGA:   3    -0.376608352816E+03   -0.51491E-01   -0.51479E-01 10080   0.658E-01-0.261E-03
CGA:   4    -0.376618863251E+03   -0.10510E-01   -0.10484E-01 10080   0.149E-01-0.294E-03
CGA:   5    -0.376621669405E+03   -0.28062E-02   -0.27992E-02 10080   0.412E-02-0.125E-03
CGA:   6    -0.376622509017E+03   -0.83961E-03   -0.83868E-03 10080   0.113E-02-0.251E-04
CGA:   7    -0.376622816003E+03   -0.30699E-03   -0.31367E-03 10080   0.567E-03-0.180E-03
CGA:   8    -0.376622961677E+03   -0.14567E-03   -0.16536E-03 10080   0.410E-03-0.190E-03
CGA:   9    -0.376623038330E+03   -0.76653E-04   -0.80513E-04 10080   0.161E-03-0.814E-04
CGA:  10    -0.376623078282E+03   -0.39952E-04   -0.52827E-04 10080   0.120E-03-0.809E-04
CGA:  11    -0.376623100787E+03   -0.22505E-04   -0.23301E-04 10080   0.191E-04 0.123E-04
CGA:  12    -0.376623109127E+03   -0.83405E-05   -0.81376E-05 10080   0.998E-05 0.155E-05
  59 F= -.37662311E+03 E0= -.37662311E+03  d E =0.139476E-02  mag=    12.0000
       N       E                     dE             d eps       ncg     rms          ort
SDA:   1    -0.375976880815E+03    0.64622E+00    0.00000E+00 10080   0.148E+01 0.000E+00
CGA:   2    -0.376510441125E+03   -0.53356E+00   -0.53363E+00 10080   0.474E+00-0.798E-03
CGA:   3    -0.376597098673E+03   -0.86658E-01   -0.86719E-01 10080   0.110E+00 0.468E-03
CGA:   4    -0.376615119720E+03   -0.18021E-01   -0.17994E-01 10080   0.252E-01-0.290E-03
CGA:   5    -0.376619844753E+03   -0.47250E-02   -0.47089E-02 10080   0.705E-02-0.252E-03
CGA:   6    -0.376621279315E+03   -0.14346E-02   -0.14332E-02 10080   0.191E-02-0.320E-04
CGA:   7    -0.376621767182E+03   -0.48787E-03   -0.48926E-03 10080   0.797E-03-0.128E-03
CGA:   8    -0.376622000750E+03   -0.23357E-03   -0.25352E-03 10080   0.545E-03-0.212E-03
CGA:   9    -0.376622112260E+03   -0.11151E-03   -0.11388E-03 10080   0.201E-03-0.714E-04
CGA:  10    -0.376622167221E+03   -0.54960E-04   -0.59951E-04 10080   0.946E-04-0.555E-04
CGA:  11    -0.376622172259E+03   -0.50385E-05   -0.42921E-04 10080   0.207E-03-0.103E-03
CGA:  12    -0.376622201303E+03   -0.29044E-04   -0.34020E-04 10080   0.273E-04 0.444E-04
CGA:  13    -0.376622209352E+03   -0.80493E-05   -0.82163E-05 10080   0.103E-04 0.732E-05
  60 F= -.37662221E+03 E0= -.37662221E+03  d E =0.899775E-03  mag=    12.0000
       N       E                     dE             d eps       ncg     rms          ort
SDA:   1    -0.376553022063E+03    0.69179E-01    0.00000E+00 10080   0.174E+00 0.000E+00
CGA:   2    -0.376603118917E+03   -0.50097E-01   -0.50098E-01 10080   0.733E-01-0.111E-03
CGA:   3    -0.376617014027E+03   -0.13895E-01   -0.13922E-01 10080   0.202E-01 0.316E-03
CGA:   4    -0.376620392311E+03   -0.33783E-02   -0.34053E-02 10080   0.471E-02 0.273E-03
CGA:   5    -0.376621244277E+03   -0.85197E-03   -0.85828E-03 10080   0.122E-02 0.779E-04
CGA:   6    -0.376621508581E+03   -0.26430E-03   -0.26453E-03 10080   0.386E-03 0.498E-05
CGA:   7    -0.376621590919E+03   -0.82339E-04   -0.84243E-04 10080   0.130E-03 0.521E-04
CGA:   8    -0.376621615695E+03   -0.24776E-04   -0.27886E-04 10080   0.461E-04 0.500E-04
CGA:   9    -0.376621626209E+03   -0.10514E-04   -0.12083E-04 10080   0.219E-04 0.264E-04
CGA:  10    -0.376621633679E+03   -0.74700E-05   -0.72339E-05 10080   0.152E-04 0.280E-05
  61 F= -.37662163E+03 E0= -.37662163E+03  d E =0.575673E-03  mag=    12.0000
       N       E                     dE             d eps       ncg     rms          ort
SDA:   1    -0.376421052021E+03    0.20057E+00    0.00000E+00 10080   0.472E+00 0.000E+00
CGA:   2    -0.376583608718E+03   -0.16256E+00   -0.16269E+00 10080   0.177E+00-0.142E-02
CGA:   3    -0.376614434398E+03   -0.30826E-01   -0.30847E-01 10080   0.406E-01 0.169E-03
CGA:   4    -0.376621262832E+03   -0.68284E-02   -0.68143E-02 10080   0.940E-02-0.182E-03
CGA:   5    -0.376622973679E+03   -0.17108E-02   -0.17067E-02 10080   0.249E-02-0.703E-04
CGA:   6    -0.376623474989E+03   -0.50131E-03   -0.50388E-03 10080   0.662E-03 0.721E-04
CGA:   7    -0.376623644076E+03   -0.16909E-03   -0.16933E-03 10080   0.260E-03-0.222E-04
CGA:   8    -0.376623718985E+03   -0.74908E-04   -0.78055E-04 10080   0.144E-03-0.432E-04
CGA:   9    -0.376623746036E+03   -0.27051E-04   -0.27269E-04 10080   0.422E-04 0.148E-04
CGA:  10    -0.376623757040E+03   -0.11004E-04   -0.11027E-04 10080   0.145E-04 0.592E-05
CGA:  11    -0.376623762352E+03   -0.53121E-05   -0.69401E-05 10080   0.144E-04-0.916E-05
  62 F= -.37662376E+03 E0= -.37662376E+03  d E =-.212867E-02  mag=    12.0000
       N       E                     dE             d eps       ncg     rms          ort
SDA:   1    -0.376613578599E+03    0.10178E-01    0.00000E+00 10080   0.235E-01 0.000E+00
CGA:   2    -0.376621782545E+03   -0.82039E-02   -0.82105E-02 10080   0.798E-02-0.655E-04
CGA:   3    -0.376623216337E+03   -0.14338E-02   -0.14361E-02 10080   0.197E-02 0.313E-04
CGA:   4    -0.376623546720E+03   -0.33038E-03   -0.33180E-03 10080   0.446E-03 0.181E-04
CGA:   5    -0.376623627294E+03   -0.80574E-04   -0.80743E-04 10080   0.125E-03 0.266E-05
CGA:   6    -0.376623653289E+03   -0.25995E-04   -0.25991E-04 10080   0.363E-04-0.124E-06
CGA:   7    -0.376623662814E+03   -0.95255E-05   -0.96033E-05 10080   0.155E-04-0.277E-05
  63 F= -.37662366E+03 E0= -.37662366E+03  d E =0.995379E-04  mag=    12.0000
       N       E                     dE             d eps       ncg     rms          ort
SDA:   1    -0.376620683355E+03    0.29699E-02    0.00000E+00 10080   0.788E-02 0.000E+00
CGA:   2    -0.376623111736E+03   -0.24284E-02   -0.24393E-02 10080   0.312E-02-0.163E-03
CGA:   3    -0.376623659649E+03   -0.54791E-03   -0.55237E-03 10080   0.827E-03 0.685E-04
CGA:   4    -0.376623788082E+03   -0.12843E-03   -0.13181E-03 10080   0.187E-03 0.392E-04
CGA:   5    -0.376623823741E+03   -0.35659E-04   -0.36039E-04 10080   0.496E-04 0.713E-05
CGA:   6    -0.376623833599E+03   -0.98573E-05   -0.10054E-04 10080   0.147E-04 0.497E-05
  64 F= -.37662383E+03 E0= -.37662383E+03  d E =-.170785E-03  mag=    12.0000
       N       E                     dE             d eps       ncg     rms          ort
SDA:   1    -0.376619342036E+03    0.44817E-02    0.00000E+00 10080   0.105E-01 0.000E+00
CGA:   2    -0.376623023907E+03   -0.36819E-02   -0.36942E-02 10080   0.358E-02-0.105E-03
CGA:   3    -0.376623651695E+03   -0.62779E-03   -0.63126E-03 10080   0.823E-03 0.577E-04
CGA:   4    -0.376623791711E+03   -0.14002E-03   -0.14163E-03 10080   0.183E-03 0.249E-04
CGA:   5    -0.376623826477E+03   -0.34766E-04   -0.34927E-04 10080   0.515E-04 0.347E-05
CGA:   6    -0.376623837642E+03   -0.11165E-04   -0.11158E-04 10080   0.163E-04-0.418E-06
CGA:   7    -0.376623841622E+03   -0.39801E-05   -0.39805E-05 10080   0.633E-05-0.242E-07
  65 F= -.37662384E+03 E0= -.37662384E+03  d E =-.802333E-05  mag=    12.0000
