       N       E                     dE             d eps       ncg     rms          rms(c)
DAV:   1     0.271043398057E+04    0.27104E+04   -0.13229E+05 25952   0.148E+03
DAV:   2     0.230141276742E+02   -0.26874E+04   -0.25098E+04 27210   0.410E+02
DAV:   3    -0.265493500179E+03   -0.28851E+03   -0.28486E+03 28418   0.149E+02
DAV:   4    -0.274512484267E+03   -0.90190E+01   -0.89093E+01 32952   0.258E+01
DAV:   5    -0.275102089833E+03   -0.58961E+00   -0.58846E+00 40360   0.490E+00    0.114E+02
DAV:   6    -0.239940078396E+03    0.35162E+02   -0.16673E+02 28646   0.352E+01    0.645E+01
DAV:   7    -0.242366838359E+03   -0.24268E+01   -0.20203E+01 27342   0.126E+01    0.238E+01
DAV:   8    -0.242900895367E+03   -0.53406E+00   -0.13747E+00 28648   0.386E+00    0.891E+00
DAV:   9    -0.243005378221E+03   -0.10448E+00   -0.17784E-01 33992   0.158E+00    0.272E+00
DAV:  10    -0.243013639081E+03   -0.82609E-02   -0.44198E-02 28640   0.666E-01    0.130E+00
DAV:  11    -0.243020371714E+03   -0.67326E-02   -0.14216E-02 28400   0.425E-01    0.445E-01
DAV:  12    -0.243021214235E+03   -0.84252E-03   -0.16026E-03 29280   0.146E-01    0.145E-01
DAV:  13    -0.243021430876E+03   -0.21664E-03   -0.42324E-04 29488   0.601E-02    0.684E-02
DAV:  14    -0.243021538003E+03   -0.10713E-03   -0.79951E-05 27544   0.302E-02    0.320E-02
DAV:  15    -0.243021568024E+03   -0.30021E-04   -0.42108E-05 24768   0.234E-02    0.203E-02
DAV:  16    -0.243021571035E+03   -0.30111E-05   -0.99236E-06 18912   0.111E-02
   1 F= -.24302157E+03 E0= -.24302157E+03  d E =-.243022E+03  mag=    19.9982
       N       E                     dE             d eps       ncg     rms          rms(c)
DAV:   1    -0.243023536107E+03   -0.19681E-02   -0.14806E-03 28160   0.152E-01    0.357E-02
DAV:   2    -0.243023544645E+03   -0.85384E-05   -0.10616E-04 28728   0.316E-02    0.189E-02
DAV:   3    -0.243023543949E+03    0.69639E-06   -0.45786E-06 16656   0.802E-03    0.111E-02
DAV:   4    -0.243023543773E+03    0.17594E-06   -0.15099E-06 16056   0.463E-03
   2 F= -.24302354E+03 E0= -.24302354E+03  d E =-.197274E-02  mag=    20.0001
       N       E                     dE             d eps       ncg     rms          rms(c)
DAV:   1    -0.243065361458E+03   -0.41818E-01   -0.17921E+00 25952   0.531E+00    0.122E+00
DAV:   2    -0.243076052080E+03   -0.10691E-01   -0.12966E-01 29016   0.110E+00    0.640E-01
DAV:   3    -0.243075422733E+03    0.62935E-03   -0.60508E-03 30222   0.266E-01    0.369E-01
DAV:   4    -0.243075150303E+03    0.27243E-03   -0.11164E-03 31016   0.124E-01    0.204E-01
DAV:   5    -0.243075106692E+03    0.43611E-04   -0.21521E-04 30448   0.602E-02    0.547E-02
DAV:   6    -0.243075106887E+03   -0.19490E-06   -0.11594E-04 32544   0.374E-02    0.280E-02
DAV:   7    -0.243075105754E+03    0.11330E-05   -0.12417E-05 18440   0.136E-02
   3 F= -.24307511E+03 E0= -.24307511E+03  d E =-.515620E-01  mag=    20.0000
       N       E                     dE             d eps       ncg     rms          rms(c)
DAV:   1    -0.243091484952E+03   -0.16378E-01   -0.51087E+00 26088   0.978E+00    0.134E+00
DAV:   2    -0.243126851128E+03   -0.35366E-01   -0.38687E-01 27584   0.184E+00    0.750E-01
DAV:   3    -0.243127153314E+03   -0.30219E-03   -0.15567E-02 33062   0.391E-01    0.418E-01
DAV:   4    -0.243126661152E+03    0.49216E-03   -0.28211E-03 32096   0.181E-01    0.206E-01
DAV:   5    -0.243126619251E+03    0.41901E-04   -0.38838E-04 31680   0.803E-02    0.743E-02
DAV:   6    -0.243126617105E+03    0.21463E-05   -0.19710E-04 30336   0.471E-02    0.325E-02
DAV:   7    -0.243126615422E+03    0.16827E-05   -0.18093E-05 20968   0.150E-02
   4 F= -.24312662E+03 E0= -.24312662E+03  d E =-.515097E-01  mag=    20.0000
       N       E                     dE             d eps       ncg     rms          rms(c)
DAV:   1    -0.243128293097E+03   -0.16760E-02   -0.50417E+00 25904   0.972E+00    0.117E+00
DAV:   2    -0.243164479740E+03   -0.36187E-01   -0.37693E-01 26072   0.179E+00    0.487E-01
DAV:   3    -0.243164978945E+03   -0.49921E-03   -0.12355E-02 34984   0.333E-01    0.262E-01
DAV:   4    -0.243164550621E+03    0.42832E-03   -0.14096E-03 32040   0.136E-01    0.155E-01
DAV:   5    -0.243164470538E+03    0.80083E-04   -0.31634E-04 30960   0.717E-02    0.513E-02
DAV:   6    -0.243164471415E+03   -0.87739E-06   -0.98593E-05 30056   0.343E-02
   5 F= -.24316447E+03 E0= -.24316447E+03  d E =-.378560E-01  mag=    20.0000
       N       E                     dE             d eps       ncg     rms          rms(c)
DAV:   1    -0.243119524516E+03    0.44946E-01   -0.10528E+01 25720   0.141E+01    0.157E+00
DAV:   2    -0.243197586432E+03   -0.78062E-01   -0.81711E-01 25392   0.263E+00    0.745E-01
DAV:   3    -0.243198931253E+03   -0.13448E-02   -0.24702E-02 34768   0.471E-01    0.408E-01
DAV:   4    -0.243198123060E+03    0.80819E-03   -0.28948E-03 32068   0.197E-01    0.239E-01
DAV:   5    -0.243197949844E+03    0.17322E-03   -0.61300E-04 32480   0.103E-01    0.799E-02
DAV:   6    -0.243197951233E+03   -0.13893E-05   -0.22036E-04 30326   0.523E-02    0.364E-02
DAV:   7    -0.243197950952E+03    0.28078E-06   -0.26951E-05 23528   0.180E-02
   6 F= -.24319795E+03 E0= -.24319795E+03  d E =-.334795E-01  mag=    20.0000
       N       E                     dE             d eps       ncg     rms          rms(c)
DAV:   1    -0.243031856105E+03    0.16610E+00   -0.27340E+01 25632   0.221E+01    0.258E+00
DAV:   2    -0.243219234965E+03   -0.18738E+00   -0.19706E+00 25670   0.409E+00    0.113E+00
DAV:   3    -0.243221325355E+03   -0.20904E-02   -0.59325E-02 33416   0.752E-01    0.614E-01
DAV:   4    -0.243219213203E+03    0.21122E-02   -0.70242E-03 32368   0.310E-01    0.369E-01
DAV:   5    -0.243218640786E+03    0.57242E-03   -0.16015E-03 30856   0.167E-01    0.125E-01
DAV:   6    -0.243218633921E+03    0.68651E-05   -0.59629E-04 31184   0.894E-02    0.554E-02
DAV:   7    -0.243218635184E+03   -0.12623E-05   -0.87232E-05 29240   0.323E-02
   7 F= -.24321864E+03 E0= -.24321864E+03  d E =-.206842E-01  mag=    20.0000
       N       E                     dE             d eps       ncg     rms          rms(c)
DAV:   1    -0.243219166931E+03   -0.53301E-03   -0.12354E+00 25686   0.475E+00    0.986E-01
DAV:   2    -0.243227876241E+03   -0.87093E-02   -0.95534E-02 28520   0.916E-01    0.435E-01
DAV:   3    -0.243227666664E+03    0.20958E-03   -0.42986E-03 29800   0.216E-01    0.242E-01
DAV:   4    -0.243227505217E+03    0.16145E-03   -0.55886E-04 30928   0.892E-02    0.133E-01
DAV:   5    -0.243227457078E+03    0.48139E-04   -0.13402E-04 29376   0.492E-02    0.394E-02
DAV:   6    -0.243227458122E+03   -0.10437E-05   -0.69588E-05 29208   0.295E-02
   8 F= -.24322746E+03 E0= -.24322746E+03  d E =-.882294E-02  mag=    20.0000
       N       E                     dE             d eps       ncg     rms          rms(c)
DAV:   1    -0.243230575165E+03   -0.31181E-02   -0.38254E-01 25714   0.248E+00    0.530E-01
DAV:   2    -0.243232978373E+03   -0.24032E-02   -0.24660E-02 28728   0.458E-01    0.183E-01
DAV:   3    -0.243232912670E+03    0.65702E-04   -0.86213E-04 30556   0.101E-01    0.881E-02
DAV:   4    -0.243232885276E+03    0.27394E-04   -0.13766E-04 31264   0.440E-02    0.478E-02
DAV:   5    -0.243232878841E+03    0.64350E-05   -0.26454E-05 25398   0.201E-02
   9 F= -.24323288E+03 E0= -.24323288E+03  d E =-.542072E-02  mag=    20.0000
       N       E                     dE             d eps       ncg     rms          rms(c)
DAV:   1    -0.243225455904E+03    0.74294E-02   -0.25352E+00 25632   0.644E+00    0.692E-01
DAV:   2    -0.243239781351E+03   -0.14325E-01   -0.14428E-01 26472   0.114E+00    0.296E-01
DAV:   3    -0.243240011866E+03   -0.23052E-03   -0.42272E-03 30960   0.205E-01    0.151E-01
DAV:   4    -0.243239870342E+03    0.14152E-03   -0.55063E-04 31512   0.880E-02    0.873E-02
DAV:   5    -0.243239843086E+03    0.27256E-04   -0.11544E-04 30168   0.452E-02    0.327E-02
DAV:   6    -0.243239843697E+03   -0.61062E-06   -0.40369E-05 27736   0.217E-02
  10 F= -.24323984E+03 E0= -.24323984E+03  d E =-.696486E-02  mag=    20.0000
       N       E                     dE             d eps       ncg     rms          rms(c)
DAV:   1    -0.243172298054E+03    0.67545E-01   -0.15643E+01 25632   0.157E+01    0.141E+00
DAV:   2    -0.243253590427E+03   -0.81292E-01   -0.82174E-01 25862   0.276E+00    0.662E-01
DAV:   3    -0.243254762117E+03   -0.11717E-02   -0.22565E-02 31704   0.473E-01    0.349E-01
DAV:   4    -0.243253867191E+03    0.89493E-03   -0.28668E-03 31094   0.199E-01    0.213E-01
DAV:   5    -0.243253647269E+03    0.21992E-03   -0.71135E-04 30112   0.114E-01    0.742E-02
DAV:   6    -0.243253654694E+03   -0.74250E-05   -0.24756E-04 30566   0.533E-02    0.322E-02
DAV:   7    -0.243253655726E+03   -0.10317E-05   -0.20196E-05 21504   0.159E-02
  11 F= -.24325366E+03 E0= -.24325366E+03  d E =-.138120E-01  mag=    20.0000
       N       E                     dE             d eps       ncg     rms          rms(c)
DAV:   1    -0.242771895749E+03    0.48176E+00   -0.35600E+01 25800   0.221E+01    0.685E+00
DAV:   2    -0.242985125239E+03   -0.21323E+00   -0.23835E+00 29072   0.441E+00    0.249E+00
DAV:   3    -0.242967482743E+03    0.17642E-01   -0.81821E-02 29632   0.101E+00    0.117E+00
DAV:   4    -0.242962694360E+03    0.47884E-02   -0.14762E-02 30200   0.460E-01    0.718E-01
DAV:   5    -0.242961991978E+03    0.70238E-03   -0.39100E-03 30176   0.221E-01    0.266E-01
DAV:   6    -0.242962033247E+03   -0.41269E-04   -0.93907E-04 32584   0.107E-01    0.111E-01
DAV:   7    -0.242962012934E+03    0.20313E-04   -0.21393E-04 29648   0.515E-02    0.425E-02
DAV:   8    -0.242962009330E+03    0.36042E-05   -0.44893E-05 27680   0.239E-02
  12 F= -.24296201E+03 E0= -.24296201E+03  d E =0.291646E+00  mag=    20.0000
       N       E                     dE             d eps       ncg     rms          rms(c)
DAV:   1    -0.243193099289E+03   -0.23109E+00   -0.70619E+00 26208   0.719E+00    0.349E+00
DAV:   2    -0.243222525560E+03   -0.29426E-01   -0.39063E-01 29560   0.161E+00    0.141E+00
DAV:   3    -0.243216563364E+03    0.59622E-02   -0.12692E-02 29392   0.376E-01    0.733E-01
DAV:   4    -0.243214895081E+03    0.16683E-02   -0.30534E-03 30528   0.198E-01    0.447E-01
DAV:   5    -0.243214725944E+03    0.16914E-03   -0.11166E-03 29520   0.112E-01    0.112E-01
DAV:   6    -0.243214734989E+03   -0.90442E-05   -0.25064E-04 31384   0.506E-02    0.559E-02
DAV:   7    -0.243214728010E+03    0.69787E-05   -0.51116E-05 28368   0.256E-02
  13 F= -.24321473E+03 E0= -.24321473E+03  d E =-.252719E+00  mag=    20.0000
       N       E                     dE             d eps       ncg     rms          rms(c)
DAV:   1    -0.243259796354E+03   -0.45061E-01   -0.29890E+00 27032   0.470E+00    0.226E+00
DAV:   2    -0.243272410270E+03   -0.12614E-01   -0.16470E-01 29256   0.104E+00    0.851E-01
DAV:   3    -0.243269652414E+03    0.27579E-02   -0.57190E-03 29484   0.259E-01    0.347E-01
DAV:   4    -0.243269127111E+03    0.52530E-03   -0.12791E-03 29936   0.120E-01    0.212E-01
DAV:   5    -0.243269064799E+03    0.62313E-04   -0.39410E-04 31264   0.647E-02    0.808E-02
DAV:   6    -0.243269064517E+03    0.28186E-06   -0.65155E-05 29864   0.251E-02
  14 F= -.24326906E+03 E0= -.24326906E+03  d E =-.543365E-01  mag=    20.0000
       N       E                     dE             d eps       ncg     rms          rms(c)
DAV:   1    -0.243270823919E+03   -0.17591E-02   -0.16482E-01 27402   0.126E+00    0.499E-01
DAV:   2    -0.243271577189E+03   -0.75327E-03   -0.89190E-03 28848   0.257E-01    0.173E-01
DAV:   3    -0.243271461682E+03    0.11551E-03   -0.32960E-04 30310   0.670E-02    0.726E-02
DAV:   4    -0.243271447305E+03    0.14378E-04   -0.69282E-05 28936   0.271E-02    0.407E-02
DAV:   5    -0.243271443142E+03    0.41632E-05   -0.12316E-05 20032   0.131E-02
  15 F= -.24327144E+03 E0= -.24327144E+03  d E =-.237862E-02  mag=    20.0000
       N       E                     dE             d eps       ncg     rms          rms(c)
DAV:   1    -0.243273454760E+03   -0.20075E-02   -0.69221E-02 26072   0.107E+00    0.227E-01
DAV:   2    -0.243273848493E+03   -0.39373E-03   -0.43855E-03 28288   0.203E-01    0.109E-01
DAV:   3    -0.243273835566E+03    0.12927E-04   -0.18673E-04 29960   0.487E-02    0.621E-02
DAV:   4    -0.243273828335E+03    0.72309E-05   -0.31636E-05 26584   0.223E-02
  16 F= -.24327383E+03 E0= -.24327383E+03  d E =-.238519E-02  mag=    20.0000
       N       E                     dE             d eps       ncg     rms          rms(c)
DAV:   1    -0.243275417856E+03   -0.15823E-02   -0.51478E-02 26020   0.101E+00    0.183E-01
DAV:   2    -0.243275782807E+03   -0.36495E-03   -0.39786E-03 28104   0.189E-01    0.867E-02
DAV:   3    -0.243275780679E+03    0.21282E-05   -0.15880E-04 30052   0.431E-02    0.461E-02
DAV:   4    -0.243275775752E+03    0.49274E-05   -0.24383E-05 24344   0.187E-02
  17 F= -.24327578E+03 E0= -.24327578E+03  d E =-.194742E-02  mag=    20.0000
       N       E                     dE             d eps       ncg     rms          rms(c)
DAV:   1    -0.243277641987E+03   -0.18613E-02   -0.13629E-01 25990   0.173E+00    0.200E-01
DAV:   2    -0.243278724147E+03   -0.10822E-02   -0.11054E-02 27368   0.312E-01    0.101E-01
DAV:   3    -0.243278753899E+03   -0.29752E-04   -0.38893E-04 30950   0.619E-02    0.540E-02
DAV:   4    -0.243278743120E+03    0.10779E-04   -0.46182E-05 29120   0.244E-02    0.302E-02
DAV:   5    -0.243278740794E+03    0.23263E-05   -0.69737E-06 18048   0.119E-02
  18 F= -.24327874E+03 E0= -.24327874E+03  d E =-.296504E-02  mag=    20.0000
       N       E                     dE             d eps       ncg     rms          rms(c)
DAV:   1    -0.243278636339E+03    0.10678E-03   -0.76283E-01 26280   0.417E+00    0.411E-01
DAV:   2    -0.243284900434E+03   -0.62641E-02   -0.61684E-02 26286   0.733E-01    0.186E-01
DAV:   3    -0.243285097007E+03   -0.19657E-03   -0.19702E-03 31160   0.134E-01    0.913E-02
DAV:   4    -0.243285053245E+03    0.43762E-04   -0.17805E-04 31546   0.452E-02    0.576E-02
DAV:   5    -0.243285035527E+03    0.17718E-04   -0.36135E-05 26472   0.287E-02    0.185E-02
DAV:   6    -0.243285035663E+03   -0.13649E-06   -0.13985E-05 18662   0.139E-02
  19 F= -.24328504E+03 E0= -.24328504E+03  d E =-.629487E-02  mag=    20.0000
       N       E                     dE             d eps       ncg     rms          rms(c)
DAV:   1    -0.243235137276E+03    0.49898E-01   -0.75939E+00 26296   0.130E+01    0.125E+00
DAV:   2    -0.243297069267E+03   -0.61932E-01   -0.60009E-01 25848   0.228E+00    0.584E-01
DAV:   3    -0.243299099284E+03   -0.20300E-02   -0.18929E-02 30808   0.413E-01    0.275E-01
DAV:   4    -0.243298724157E+03    0.37513E-03   -0.16625E-03 31576   0.137E-01    0.175E-01
DAV:   5    -0.243298549134E+03    0.17502E-03   -0.30996E-04 31496   0.869E-02    0.611E-02
DAV:   6    -0.243298553762E+03   -0.46282E-05   -0.14430E-04 29752   0.412E-02    0.225E-02
DAV:   7    -0.243298554624E+03   -0.86162E-06   -0.12555E-05 19424   0.129E-02
  20 F= -.24329855E+03 E0= -.24329855E+03  d E =-.135190E-01  mag=    20.0000
       N       E                     dE             d eps       ncg     rms          rms(c)
DAV:   1    -0.242678007741E+03    0.62055E+00   -0.74642E+01 25680   0.401E+01    0.401E+00
DAV:   2    -0.243305611751E+03   -0.62760E+00   -0.60677E+00 26122   0.716E+00    0.195E+00
DAV:   3    -0.243325341412E+03   -0.19730E-01   -0.17549E-01 31624   0.128E+00    0.880E-01
DAV:   4    -0.243321438348E+03    0.39031E-02   -0.13671E-02 31760   0.406E-01    0.578E-01
DAV:   5    -0.243319458484E+03    0.19799E-02   -0.29640E-03 30944   0.282E-01    0.224E-01
DAV:   6    -0.243319478595E+03   -0.20111E-04   -0.16146E-03 30264   0.131E-01    0.679E-02
DAV:   7    -0.243319485017E+03   -0.64213E-05   -0.13849E-04 29624   0.420E-02    0.353E-02
DAV:   8    -0.243319481162E+03    0.38551E-05   -0.27670E-05 25160   0.225E-02
  21 F= -.24331948E+03 E0= -.24331948E+03  d E =-.209265E-01  mag=    20.0000
       N       E                     dE             d eps       ncg     rms          rms(c)
DAV:   1    -0.242997334015E+03    0.32215E+00   -0.37813E+01 25768   0.262E+01    0.389E+00
DAV:   2    -0.243257505671E+03   -0.26017E+00   -0.25759E+00 28608   0.473E+00    0.147E+00
DAV:   3    -0.243260752790E+03   -0.32471E-02   -0.83946E-02 29976   0.930E-01    0.717E-01
DAV:   4    -0.243258084454E+03    0.26683E-02   -0.96341E-03 31784   0.358E-01    0.421E-01
DAV:   5    -0.243257158661E+03    0.92579E-03   -0.19362E-03 29400   0.200E-01    0.163E-01
DAV:   6    -0.243257162550E+03   -0.38894E-05   -0.10447E-03 31280   0.115E-01    0.765E-02
DAV:   7    -0.243257160957E+03    0.15930E-05   -0.11713E-04 29608   0.394E-02    0.382E-02
DAV:   8    -0.243257156093E+03    0.48645E-05   -0.33216E-05 25440   0.210E-02
  22 F= -.24325716E+03 E0= -.24325716E+03  d E =0.623251E-01  mag=    20.0000
       N       E                     dE             d eps       ncg     rms          rms(c)
DAV:   1    -0.242995315220E+03    0.26185E+00   -0.41398E+01 25832   0.289E+01    0.393E+00
DAV:   2    -0.243315047274E+03   -0.31973E+00   -0.31413E+00 27418   0.524E+00    0.157E+00
DAV:   3    -0.243321770756E+03   -0.67235E-02   -0.10034E-01 31704   0.992E-01    0.827E-01
DAV:   4    -0.243318916531E+03    0.28542E-02   -0.10272E-02 31654   0.358E-01    0.536E-01
DAV:   5    -0.243317685700E+03    0.12308E-02   -0.20464E-03 29720   0.221E-01    0.218E-01
DAV:   6    -0.243317700791E+03   -0.15091E-04   -0.12640E-03 30246   0.126E-01    0.788E-02
DAV:   7    -0.243317700123E+03    0.66782E-06   -0.14757E-04 29896   0.445E-02    0.399E-02
DAV:   8    -0.243317693775E+03    0.63484E-05   -0.38612E-05 26238   0.236E-02
  23 F= -.24331769E+03 E0= -.24331769E+03  d E =-.605377E-01  mag=    20.0000
       N       E                     dE             d eps       ncg     rms          rms(c)
DAV:   1    -0.243304455676E+03    0.13244E-01   -0.18291E+00 25784   0.584E+00    0.695E-01
DAV:   2    -0.243317248860E+03   -0.12793E-01   -0.12436E-01 27800   0.104E+00    0.285E-01
DAV:   3    -0.243317597619E+03   -0.34876E-03   -0.41431E-03 30616   0.199E-01    0.136E-01
DAV:   4    -0.243317501051E+03    0.96568E-04   -0.41998E-04 31440   0.734E-02    0.820E-02
DAV:   5    -0.243317473277E+03    0.27774E-04   -0.66131E-05 28960   0.385E-02    0.337E-02
DAV:   6    -0.243317474347E+03   -0.10699E-05   -0.32516E-05 25392   0.205E-02
  24 F= -.24331747E+03 E0= -.24331747E+03  d E =0.219427E-03  mag=    20.0000
       N       E                     dE             d eps       ncg     rms          rms(c)
DAV:   1    -0.243247689364E+03    0.69784E-01   -0.10003E+01 25744   0.136E+01    0.133E+00
DAV:   2    -0.243315743696E+03   -0.68054E-01   -0.65454E-01 26672   0.238E+00    0.606E-01
DAV:   3    -0.243317882123E+03   -0.21384E-02   -0.21110E-02 31008   0.437E-01    0.292E-01
DAV:   4    -0.243317425820E+03    0.45630E-03   -0.17216E-03 32432   0.145E-01    0.192E-01
DAV:   5    -0.243317206247E+03    0.21957E-03   -0.39220E-04 30320   0.103E-01    0.725E-02
DAV:   6    -0.243317214693E+03   -0.84469E-05   -0.20785E-04 29936   0.484E-02    0.269E-02
DAV:   7    -0.243317216090E+03   -0.13968E-05   -0.14403E-05 19144   0.145E-02
  25 F= -.24331722E+03 E0= -.24331722E+03  d E =0.258257E-03  mag=    20.0000
       N       E                     dE             d eps       ncg     rms          rms(c)
DAV:   1    -0.243166978786E+03    0.15024E+00   -0.23007E+01 25640   0.197E+01    0.221E+00
DAV:   2    -0.243304946153E+03   -0.13797E+00   -0.13509E+00 27178   0.345E+00    0.933E-01
DAV:   3    -0.243307821701E+03   -0.28755E-02   -0.42614E-02 30192   0.646E-01    0.454E-01
DAV:   4    -0.243306578887E+03    0.12428E-02   -0.45218E-03 31808   0.250E-01    0.275E-01
DAV:   5    -0.243306228111E+03    0.35078E-03   -0.92296E-04 30752   0.138E-01    0.102E-01
DAV:   6    -0.243306237957E+03   -0.98456E-05   -0.37633E-04 29800   0.667E-02    0.444E-02
DAV:   7    -0.243306238229E+03   -0.27233E-06   -0.26934E-05 22800   0.208E-02
  26 F= -.24330624E+03 E0= -.24330624E+03  d E =0.109779E-01  mag=    20.0000
       N       E                     dE             d eps       ncg     rms          rms(c)
DAV:   1    -0.243254076171E+03    0.52162E-01   -0.10217E+01 25816   0.133E+01    0.172E+00
DAV:   2    -0.243317995903E+03   -0.63920E-01   -0.62702E-01 27758   0.234E+00    0.677E-01
DAV:   3    -0.243319010968E+03   -0.10151E-02   -0.20763E-02 29984   0.459E-01    0.349E-01
DAV:   4    -0.243318393297E+03    0.61767E-03   -0.22657E-03 31880   0.177E-01    0.213E-01
DAV:   5    -0.243318197188E+03    0.19611E-03   -0.46338E-04 30320   0.988E-02    0.755E-02
DAV:   6    -0.243318201279E+03   -0.40914E-05   -0.20951E-04 29600   0.507E-02    0.354E-02
DAV:   7    -0.243318200037E+03    0.12429E-05   -0.15777E-05 20024   0.165E-02
  27 F= -.24331820E+03 E0= -.24331820E+03  d E =-.119618E-01  mag=    20.0000
       N       E                     dE             d eps       ncg     rms          rms(c)
DAV:   1    -0.243314841256E+03    0.33600E-02   -0.62612E-01 26082   0.342E+00    0.443E-01
DAV:   2    -0.243319207677E+03   -0.43664E-02   -0.42911E-02 28406   0.613E-01    0.206E-01
DAV:   3    -0.243319312034E+03   -0.10436E-03   -0.15037E-03 30120   0.123E-01    0.115E-01
DAV:   4    -0.243319271392E+03    0.40642E-04   -0.17637E-04 31736   0.484E-02    0.700E-02
DAV:   5    -0.243319260780E+03    0.10612E-04   -0.30812E-05 25488   0.271E-02    0.230E-02
DAV:   6    -0.243319261777E+03   -0.99729E-06   -0.15923E-05 17480   0.154E-02
  28 F= -.24331926E+03 E0= -.24331926E+03  d E =-.106174E-02  mag=    20.0000
       N       E                     dE             d eps       ncg     rms          rms(c)
DAV:   1    -0.243318181341E+03    0.10794E-02   -0.25310E-01 25644   0.201E+00    0.246E-01
DAV:   2    -0.243319575476E+03   -0.13941E-02   -0.13934E-02 27886   0.357E-01    0.107E-01
DAV:   3    -0.243319593030E+03   -0.17554E-04   -0.45450E-04 29816   0.690E-02    0.579E-02
DAV:   4    -0.243319577675E+03    0.15355E-04   -0.52167E-05 29768   0.275E-02    0.349E-02
DAV:   5    -0.243319572470E+03    0.52052E-05   -0.10769E-05 17880   0.161E-02
  29 F= -.24331957E+03 E0= -.24331957E+03  d E =-.310692E-03  mag=    20.0000
       N       E                     dE             d eps       ncg     rms          rms(c)
DAV:   1    -0.243319032666E+03    0.54501E-03   -0.28427E-01 26208   0.207E+00    0.186E-01
DAV:   2    -0.243320359699E+03   -0.13270E-02   -0.13208E-02 26356   0.345E-01    0.878E-02
DAV:   3    -0.243320377844E+03   -0.18145E-04   -0.36946E-04 30456   0.613E-02    0.455E-02
DAV:   4    -0.243320363939E+03    0.13905E-04   -0.51268E-05 28566   0.264E-02    0.277E-02
DAV:   5    -0.243320360788E+03    0.31515E-05   -0.10771E-05 16456   0.139E-02
  30 F= -.24332036E+03 E0= -.24332036E+03  d E =-.788318E-03  mag=    20.0000
       N       E                     dE             d eps       ncg     rms          rms(c)
DAV:   1    -0.243087057493E+03    0.23331E+00   -0.49969E+01 26208   0.272E+01    0.256E+00
DAV:   2    -0.243318517107E+03   -0.23146E+00   -0.23001E+00 26302   0.453E+00    0.116E+00
DAV:   3    -0.243321365358E+03   -0.28483E-02   -0.65278E-02 29856   0.821E-01    0.609E-01
DAV:   4    -0.243319054899E+03    0.23105E-02   -0.82348E-03 31072   0.325E-01    0.392E-01
DAV:   5    -0.243318248223E+03    0.80668E-03   -0.18631E-03 30096   0.191E-01    0.143E-01
DAV:   6    -0.243318257939E+03   -0.97159E-05   -0.82557E-04 29712   0.101E-01    0.594E-02
DAV:   7    -0.243318270523E+03   -0.12584E-04   -0.83569E-05 28424   0.315E-02    0.289E-02
DAV:   8    -0.243318267630E+03    0.28928E-05   -0.98141E-06 18104   0.150E-02
  31 F= -.24331827E+03 E0= -.24331827E+03  d E =0.209316E-02  mag=    20.0000
       N       E                     dE             d eps       ncg     rms          rms(c)
DAV:   1    -0.243304666317E+03    0.13604E-01   -0.52839E+00 25632   0.851E+00    0.119E+00
DAV:   2    -0.243328080495E+03   -0.23414E-01   -0.23977E-01 27432   0.149E+00    0.420E-01
DAV:   3    -0.243327900268E+03    0.18023E-03   -0.70947E-03 31864   0.282E-01    0.215E-01
DAV:   4    -0.243327643288E+03    0.25698E-03   -0.10842E-03 31296   0.121E-01    0.125E-01
DAV:   5    -0.243327587359E+03    0.55929E-04   -0.17975E-04 30168   0.557E-02    0.468E-02
DAV:   6    -0.243327589143E+03   -0.17837E-05   -0.71845E-05 29376   0.297E-02
  32 F= -.24332759E+03 E0= -.24332759E+03  d E =-.932151E-02  mag=    20.0000
       N       E                     dE             d eps       ncg     rms          rms(c)
DAV:   1    -0.243306287581E+03    0.21300E-01   -0.43997E+00 25640   0.790E+00    0.115E+00
DAV:   2    -0.243327082654E+03   -0.20795E-01   -0.21152E-01 28592   0.137E+00    0.404E-01
DAV:   3    -0.243327040570E+03    0.42084E-04   -0.69470E-03 29744   0.280E-01    0.230E-01
DAV:   4    -0.243326802680E+03    0.23789E-03   -0.82005E-04 31416   0.110E-01    0.125E-01
DAV:   5    -0.243326702393E+03    0.10029E-03   -0.18818E-04 29728   0.662E-02    0.418E-02
DAV:   6    -0.243326701652E+03    0.74032E-06   -0.10443E-04 29136   0.356E-02    0.235E-02
DAV:   7    -0.243326701151E+03    0.50176E-06   -0.10149E-05 17464   0.122E-02
  33 F= -.24332670E+03 E0= -.24332670E+03  d E =0.887992E-03  mag=    20.0000
       N       E                     dE             d eps       ncg     rms          rms(c)
DAV:   1    -0.243325224947E+03    0.14767E-02   -0.85179E-01 25672   0.312E+00    0.492E-01
DAV:   2    -0.243328088263E+03   -0.28633E-02   -0.30943E-02 28280   0.532E-01    0.176E-01
DAV:   3    -0.243327977992E+03    0.11027E-03   -0.94702E-04 29736   0.108E-01    0.107E-01
DAV:   4    -0.243327936031E+03    0.41961E-04   -0.14248E-04 31656   0.447E-02    0.512E-02
DAV:   5    -0.243327919053E+03    0.16978E-04   -0.28153E-05 24240   0.261E-02    0.158E-02
DAV:   6    -0.243327919277E+03   -0.22439E-06   -0.17660E-05 18760   0.148E-02
  34 F= -.24332792E+03 E0= -.24332792E+03  d E =-.121813E-02  mag=    20.0000
       N       E                     dE             d eps       ncg     rms          rms(c)
DAV:   1    -0.243325446887E+03    0.24722E-02   -0.72780E-01 25560   0.308E+00    0.310E-01
DAV:   2    -0.243328376072E+03   -0.29292E-02   -0.29766E-02 26466   0.519E-01    0.133E-01
DAV:   3    -0.243328387025E+03   -0.10953E-04   -0.79289E-04 30568   0.922E-02    0.712E-02
DAV:   4    -0.243328352635E+03    0.34390E-04   -0.12179E-04 30560   0.416E-02    0.427E-02
DAV:   5    -0.243328346735E+03    0.59000E-05   -0.23805E-05 22704   0.202E-02
  35 F= -.24332835E+03 E0= -.24332835E+03  d E =-.427458E-03  mag=    20.0000
       N       E                     dE             d eps       ncg     rms          rms(c)
DAV:   1    -0.243324547916E+03    0.38047E-02   -0.69718E-01 25888   0.309E+00    0.335E-01
DAV:   2    -0.243327424011E+03   -0.28761E-02   -0.30054E-02 26400   0.532E-01    0.137E-01
DAV:   3    -0.243327410527E+03    0.13484E-04   -0.81349E-04 30320   0.955E-02    0.783E-02
DAV:   4    -0.243327372782E+03    0.37745E-04   -0.10738E-04 31288   0.408E-02    0.458E-02
DAV:   5    -0.243327361885E+03    0.10897E-04   -0.29897E-05 25896   0.236E-02    0.133E-02
DAV:   6    -0.243327361953E+03   -0.67466E-07   -0.10890E-05 16896   0.127E-02
  36 F= -.24332736E+03 E0= -.24332736E+03  d E =0.984783E-03  mag=    20.0000
       N       E                     dE             d eps       ncg     rms          rms(c)
DAV:   1    -0.243287281603E+03    0.40080E-01   -0.82993E+00 25912   0.106E+01    0.108E+00
DAV:   2    -0.243321877977E+03   -0.34596E-01   -0.36315E-01 25792   0.183E+00    0.461E-01
DAV:   3    -0.243321831026E+03    0.46951E-04   -0.91031E-03 30560   0.316E-01    0.252E-01
DAV:   4    -0.243321450860E+03    0.38017E-03   -0.14391E-03 31200   0.140E-01    0.150E-01
DAV:   5    -0.243321368365E+03    0.82495E-04   -0.26568E-04 29512   0.656E-02    0.517E-02
DAV:   6    -0.243321368409E+03   -0.43430E-07   -0.11741E-04 31264   0.382E-02    0.241E-02
DAV:   7    -0.243321369411E+03   -0.10024E-05   -0.10555E-05 18000   0.123E-02
  37 F= -.24332137E+03 E0= -.24332137E+03  d E =0.599254E-02  mag=    20.0000
       N       E                     dE             d eps       ncg     rms          rms(c)
DAV:   1    -0.243193726390E+03    0.12764E+00   -0.31935E+01 25352   0.193E+01    0.175E+00
DAV:   2    -0.243308226790E+03   -0.11450E+00   -0.12342E+00 25820   0.329E+00    0.866E-01
DAV:   3    -0.243307088683E+03    0.11381E-02   -0.28603E-02 30624   0.558E-01    0.543E-01
DAV:   4    -0.243305414141E+03    0.16745E-02   -0.50116E-03 31440   0.266E-01    0.338E-01
DAV:   5    -0.243305131836E+03    0.28231E-03   -0.14149E-03 29864   0.144E-01    0.100E-01
DAV:   6    -0.243305120034E+03    0.11802E-04   -0.54737E-04 31296   0.869E-02    0.503E-02
DAV:   7    -0.243305124263E+03   -0.42289E-05   -0.92063E-05 28440   0.303E-02
  38 F= -.24330512E+03 E0= -.24330512E+03  d E =0.162451E-01  mag=    20.0000
       N       E                     dE             d eps       ncg     rms          rms(c)
DAV:   1    -0.243287438389E+03    0.17682E-01   -0.42617E+00 25632   0.819E+00    0.107E+00
DAV:   2    -0.243310594165E+03   -0.23156E-01   -0.23219E-01 27398   0.145E+00    0.421E-01
DAV:   3    -0.243310778523E+03   -0.18436E-03   -0.73855E-03 30296   0.281E-01    0.221E-01
DAV:   4    -0.243310526423E+03    0.25210E-03   -0.88911E-04 31744   0.117E-01    0.130E-01
DAV:   5    -0.243310459997E+03    0.66426E-04   -0.18597E-04 29752   0.596E-02    0.446E-02
DAV:   6    -0.243310460723E+03   -0.72604E-06   -0.77409E-05 29632   0.314E-02
  39 F= -.24331046E+03 E0= -.24331046E+03  d E =-.533646E-02  mag=    20.0000
       N       E                     dE             d eps       ncg     rms          rms(c)
DAV:   1    -0.243296900661E+03    0.13559E-01   -0.42411E+00 25632   0.717E+00    0.723E-01
DAV:   2    -0.243312271350E+03   -0.15371E-01   -0.15848E-01 27458   0.121E+00    0.359E-01
DAV:   3    -0.243312198425E+03    0.72925E-04   -0.41320E-03 30944   0.213E-01    0.200E-01
DAV:   4    -0.243311993783E+03    0.20464E-03   -0.82812E-04 31304   0.107E-01    0.109E-01
DAV:   5    -0.243311979473E+03    0.14310E-04   -0.16076E-04 29592   0.470E-02    0.405E-02
DAV:   6    -0.243311979261E+03    0.21172E-06   -0.54341E-05 27272   0.253E-02
  40 F= -.24331198E+03 E0= -.24331198E+03  d E =-.151854E-02  mag=    20.0000
       N       E                     dE             d eps       ncg     rms          rms(c)
DAV:   1    -0.243307985122E+03    0.39944E-02   -0.94030E-01 25864   0.340E+00    0.485E-01
DAV:   2    -0.243311544733E+03   -0.35596E-02   -0.37445E-02 28312   0.583E-01    0.182E-01
DAV:   3    -0.243311464213E+03    0.80519E-04   -0.11570E-03 29656   0.116E-01    0.102E-01
DAV:   4    -0.243311407272E+03    0.56941E-04   -0.16951E-04 31760   0.514E-02    0.580E-02
DAV:   5    -0.243311390231E+03    0.17041E-04   -0.40510E-05 26688   0.290E-02    0.173E-02
DAV:   6    -0.243311390363E+03   -0.13212E-06   -0.18868E-05 19136   0.160E-02
  41 F= -.24331139E+03 E0= -.24331139E+03  d E =0.588898E-03  mag=    20.0000
       N       E                     dE             d eps       ncg     rms          rms(c)
DAV:   1    -0.243308570886E+03    0.28193E-02   -0.54311E-01 25632   0.267E+00    0.313E-01
DAV:   2    -0.243310738708E+03   -0.21678E-02   -0.23035E-02 27228   0.470E-01    0.149E-01
DAV:   3    -0.243310721683E+03    0.17025E-04   -0.68322E-04 29904   0.886E-02    0.896E-02
DAV:   4    -0.243310692325E+03    0.29358E-04   -0.98245E-05 31024   0.388E-02    0.531E-02
DAV:   5    -0.243310686067E+03    0.62575E-05   -0.21200E-05 21136   0.218E-02
  42 F= -.24331069E+03 E0= -.24331069E+03  d E =0.704296E-03  mag=    20.0000
       N       E                     dE             d eps       ncg     rms          rms(c)
DAV:   1    -0.243309040584E+03    0.16517E-02   -0.38476E-01 25640   0.222E+00    0.185E-01
DAV:   2    -0.243310582670E+03   -0.15421E-02   -0.15589E-02 26838   0.379E-01    0.920E-02
DAV:   3    -0.243310593373E+03   -0.10703E-04   -0.40990E-04 29912   0.652E-02    0.502E-02
DAV:   4    -0.243310575021E+03    0.18352E-04   -0.67716E-05 29584   0.304E-02    0.307E-02
DAV:   5    -0.243310571542E+03    0.34788E-05   -0.12275E-05 17280   0.153E-02
  43 F= -.24331057E+03 E0= -.24331057E+03  d E =0.114525E-03  mag=    20.0000
       N       E                     dE             d eps       ncg     rms          rms(c)
DAV:   1    -0.242996468940E+03    0.31411E+00   -0.90032E+01 25536   0.313E+01    0.261E+00
DAV:   2    -0.243305124817E+03   -0.30866E+00   -0.31886E+00 27058   0.516E+00    0.132E+00
DAV:   3    -0.243303438261E+03    0.16866E-02   -0.75236E-02 30624   0.873E-01    0.827E-01
DAV:   4    -0.243298988131E+03    0.44501E-02   -0.14148E-02 30704   0.415E-01    0.541E-01
DAV:   5    -0.243297860680E+03    0.11275E-02   -0.35816E-03 29496   0.236E-01    0.196E-01
DAV:   6    -0.243297882165E+03   -0.21485E-04   -0.14650E-03 30112   0.131E-01    0.856E-02
DAV:   7    -0.243297902032E+03   -0.19867E-04   -0.14660E-04 28744   0.390E-02    0.370E-02
DAV:   8    -0.243297896001E+03    0.60312E-05   -0.21530E-05 20936   0.206E-02
  44 F= -.24329790E+03 E0= -.24329790E+03  d E =0.126755E-01  mag=    20.0000
       N       E                     dE             d eps       ncg     rms          rms(c)
DAV:   1    -0.243206712127E+03    0.91190E-01   -0.30073E+01 25088   0.172E+01    0.223E+00
DAV:   2    -0.243295911729E+03   -0.89200E-01   -0.95693E-01 27904   0.287E+00    0.830E-01
DAV:   3    -0.243293360548E+03    0.25512E-02   -0.24677E-02 29952   0.538E-01    0.461E-01
DAV:   4    -0.243292201466E+03    0.11591E-02   -0.46087E-03 30520   0.246E-01    0.283E-01
DAV:   5    -0.243291893036E+03    0.30843E-03   -0.71738E-04 29312   0.113E-01    0.101E-01
DAV:   6    -0.243291889026E+03    0.40108E-05   -0.45087E-04 30168   0.776E-02    0.497E-02
DAV:   7    -0.243291893390E+03   -0.43641E-05   -0.55009E-05 28304   0.260E-02
  45 F= -.24329189E+03 E0= -.24329189E+03  d E =0.600261E-02  mag=    20.0000
       N       E                     dE             d eps       ncg     rms          rms(c)
DAV:   1    -0.243135589330E+03    0.15630E+00   -0.54643E+01 25400   0.241E+01    0.252E+00
DAV:   2    -0.243313114005E+03   -0.17752E+00   -0.18601E+00 26642   0.398E+00    0.109E+00
DAV:   3    -0.243310879932E+03    0.22341E-02   -0.46773E-02 30784   0.702E-01    0.564E-01
DAV:   4    -0.243308606554E+03    0.22734E-02   -0.10001E-02 30904   0.361E-01    0.317E-01
DAV:   5    -0.243308363697E+03    0.24286E-03   -0.15604E-03 29712   0.149E-01    0.133E-01
DAV:   6    -0.243308364704E+03   -0.10075E-05   -0.67457E-04 29704   0.874E-02    0.641E-02
DAV:   7    -0.243308373237E+03   -0.85328E-05   -0.66334E-05 27736   0.283E-02
  46 F= -.24330837E+03 E0= -.24330837E+03  d E =-.164798E-01  mag=    20.0000
       N       E                     dE             d eps       ncg     rms          rms(c)
DAV:   1    -0.243279533351E+03    0.28831E-01   -0.12407E+01 25104   0.112E+01    0.123E+00
DAV:   2    -0.243316338365E+03   -0.36805E-01   -0.39466E-01 26964   0.187E+00    0.524E-01
DAV:   3    -0.243315529940E+03    0.80842E-03   -0.10211E-02 30272   0.339E-01    0.323E-01
DAV:   4    -0.243314990075E+03    0.53987E-03   -0.15918E-03 31424   0.147E-01    0.192E-01
DAV:   5    -0.243314820479E+03    0.16960E-03   -0.42674E-04 30280   0.885E-02    0.553E-02
DAV:   6    -0.243314827567E+03   -0.70872E-05   -0.21350E-04 29568   0.517E-02    0.322E-02
DAV:   7    -0.243314828013E+03   -0.44691E-06   -0.24442E-05 21936   0.171E-02
  47 F= -.24331483E+03 E0= -.24331483E+03  d E =-.645478E-02  mag=    20.0000
       N       E                     dE             d eps       ncg     rms          rms(c)
DAV:   1    -0.243225536880E+03    0.89291E-01   -0.28854E+01 25064   0.171E+01    0.133E+00
DAV:   2    -0.243312376286E+03   -0.86839E-01   -0.91403E-01 26210   0.276E+00    0.705E-01
DAV:   3    -0.243311635142E+03    0.74114E-03   -0.21584E-02 30800   0.468E-01    0.444E-01
DAV:   4    -0.243310215115E+03    0.14200E-02   -0.46958E-03 30936   0.245E-01    0.271E-01
DAV:   5    -0.243310000247E+03    0.21487E-03   -0.10917E-03 29616   0.121E-01    0.101E-01
DAV:   6    -0.243309999805E+03    0.44111E-06   -0.44949E-04 29856   0.720E-02    0.466E-02
DAV:   7    -0.243310005249E+03   -0.54431E-05   -0.44130E-05 24720   0.217E-02
  48 F= -.24331001E+03 E0= -.24331001E+03  d E =0.482276E-02  mag=    20.0000
       N       E                     dE             d eps       ncg     rms          rms(c)
DAV:   1    -0.243303184196E+03    0.68156E-02   -0.13180E+00 25656   0.412E+00    0.704E-01
DAV:   2    -0.243308990970E+03   -0.58068E-02   -0.59835E-02 28784   0.717E-01    0.247E-01
DAV:   3    -0.243308893337E+03    0.97633E-04   -0.19184E-03 29888   0.149E-01    0.123E-01
DAV:   4    -0.243308828887E+03    0.64450E-04   -0.28284E-04 31344   0.642E-02    0.680E-02
DAV:   5    -0.243308814937E+03    0.13950E-04   -0.51652E-05 28880   0.288E-02    0.248E-02
DAV:   6    -0.243308814162E+03    0.77479E-06   -0.14395E-05 17768   0.145E-02
  49 F= -.24330881E+03 E0= -.24330881E+03  d E =0.119109E-02  mag=    20.0000
       N       E                     dE             d eps       ncg     rms          rms(c)
DAV:   1    -0.243303700270E+03    0.51147E-02   -0.31802E+00 25056   0.542E+00    0.607E-01
DAV:   2    -0.243312287180E+03   -0.85869E-02   -0.91054E-02 27786   0.863E-01    0.237E-01
DAV:   3    -0.243312048094E+03    0.23909E-03   -0.21580E-03 30600   0.153E-01    0.130E-01
DAV:   4    -0.243311906580E+03    0.14151E-03   -0.47158E-04 30816   0.805E-02    0.765E-02
DAV:   5    -0.243311894409E+03    0.12171E-04   -0.10022E-04 28824   0.350E-02    0.263E-02
DAV:   6    -0.243311893302E+03    0.11070E-05   -0.33185E-05 24688   0.198E-02
  50 F= -.24331189E+03 E0= -.24331189E+03  d E =-.307914E-02  mag=    20.0000
       N       E                     dE             d eps       ncg     rms          rms(c)
DAV:   1    -0.243312002914E+03   -0.10851E-03   -0.31955E-02 26072   0.751E-01    0.668E-02
DAV:   2    -0.243312196573E+03   -0.19366E-03   -0.19164E-03 26464   0.133E-01    0.320E-02
DAV:   3    -0.243312200896E+03   -0.43230E-05   -0.53667E-05 24248   0.228E-02    0.165E-02
DAV:   4    -0.243312199286E+03    0.16098E-05   -0.53232E-06 15336   0.924E-03
  51 F= -.24331220E+03 E0= -.24331220E+03  d E =-.305984E-03  mag=    20.0000
