       N       E                     dE             d eps       ncg     rms          rms(c)
DAV:   1     0.266315191627E+04    0.26632E+04   -0.15069E+05 28224   0.153E+03
DAV:   2    -0.163664788644E+03   -0.28268E+04   -0.26824E+04 28464   0.433E+02
DAV:   3    -0.433320640613E+03   -0.26966E+03   -0.26398E+03 31552   0.150E+02
DAV:   4    -0.442889640889E+03   -0.95690E+01   -0.91927E+01 36584   0.280E+01
DAV:   5    -0.443518175662E+03   -0.62853E+00   -0.62068E+00 42184   0.502E+00    0.135E+02
DAV:   6    -0.364228497914E+03    0.79290E+02   -0.36235E+02 35716   0.882E+01    0.142E+02
DAV:   7    -0.337367093283E+03    0.26861E+02   -0.14443E+02 32272   0.100E+02    0.429E+01
DAV:   8    -0.352254105776E+03   -0.14887E+02   -0.31610E+01 35204   0.263E+01    0.226E+01
DAV:   9    -0.352187762717E+03    0.66343E-01   -0.34208E+00 37652   0.112E+01    0.126E+01
DAV:  10    -0.352614688634E+03   -0.42693E+00   -0.19736E+00 36104   0.114E+01    0.542E+00
DAV:  11    -0.352663101655E+03   -0.48413E-01   -0.53591E-01 38244   0.380E+00    0.234E+00
DAV:  12    -0.352679620107E+03   -0.16518E-01   -0.65840E-02 37096   0.171E+00    0.128E+00
DAV:  13    -0.352699030605E+03   -0.19410E-01   -0.22223E-02 37488   0.153E+00    0.573E-01
DAV:  14    -0.352706409676E+03   -0.73791E-02   -0.19357E-02 37616   0.913E-01    0.429E-01
DAV:  15    -0.352703661027E+03    0.27486E-02   -0.84445E-03 29952   0.650E-01    0.160E-01
DAV:  16    -0.352702426471E+03    0.12346E-02   -0.59669E-04 37376   0.145E-01    0.779E-02
DAV:  17    -0.352702340195E+03    0.86276E-04   -0.15439E-04 32024   0.534E-02    0.389E-02
DAV:  18    -0.352701891461E+03    0.44873E-03   -0.34222E-05 27504   0.767E-02    0.219E-02
DAV:  19    -0.352702125878E+03   -0.23442E-03   -0.30963E-05 22864   0.218E-02    0.117E-02
DAV:  20    -0.352702136746E+03   -0.10868E-04   -0.23934E-06 15328   0.873E-03    0.930E-03
DAV:  21    -0.352702108850E+03    0.27895E-04   -0.10938E-06 15152   0.113E-02    0.840E-03
DAV:  22    -0.352702171245E+03   -0.62395E-04   -0.16246E-06 14968   0.153E-02    0.593E-03
DAV:  23    -0.352702210816E+03   -0.39571E-04   -0.19621E-06 15168   0.946E-03    0.631E-03
DAV:  24    -0.352702185421E+03    0.25396E-04   -0.26366E-06 14804   0.791E-03    0.366E-03
DAV:  25    -0.352702157021E+03    0.28400E-04   -0.34346E-07 14372   0.753E-03    0.254E-03
DAV:  26    -0.352702151789E+03    0.52320E-05   -0.10348E-06 14732   0.520E-03
   1 F= -.35270215E+03 E0= -.35270215E+03  d E =-.352702E+03  mag=     7.9999
       N       E                     dE             d eps       ncg     rms          rms(c)
DAV:   1    -0.352671651950E+03    0.30505E-01   -0.55241E-01 32624   0.972E+00    0.673E-01
DAV:   2    -0.352703229735E+03   -0.31578E-01   -0.30579E-01 26952   0.153E+00    0.336E-01
DAV:   3    -0.352703318280E+03   -0.88544E-04   -0.80618E-03 29520   0.306E-01    0.177E-01
DAV:   4    -0.352703244122E+03    0.74158E-04   -0.39892E-04 32920   0.807E-02    0.117E-01
DAV:   5    -0.352703132571E+03    0.11155E-03   -0.89362E-05 30384   0.598E-02    0.427E-02
DAV:   6    -0.352703087168E+03    0.45403E-04   -0.20772E-05 22024   0.216E-02    0.151E-02
DAV:   7    -0.352703053819E+03    0.33348E-04   -0.50995E-06 14216   0.985E-03    0.979E-03
DAV:   8    -0.352703069488E+03   -0.15669E-04   -0.15595E-06 13972   0.731E-03    0.766E-03
DAV:   9    -0.352703063037E+03    0.64511E-05   -0.50846E-07 13904   0.437E-03
   2 F= -.35270306E+03 E0= -.35270306E+03  d E =-.911248E-03  mag=     8.0000
       N       E                     dE             d eps       ncg     rms          rms(c)
DAV:   1    -0.352703049483E+03    0.20004E-04   -0.17026E-04 25032   0.172E-01    0.115E-02
DAV:   2    -0.352703069270E+03   -0.19787E-04   -0.96573E-05 19804   0.279E-02    0.621E-03
DAV:   3    -0.352703066642E+03    0.26281E-05   -0.25985E-06 14316   0.589E-03    0.352E-03
DAV:   4    -0.352703064413E+03    0.22295E-05   -0.23519E-07 13680   0.216E-03    0.254E-03
DAV:   5    -0.352703064211E+03    0.20123E-06   -0.93441E-08 13604   0.191E-03    0.159E-03
DAV:   6    -0.352703063797E+03    0.41402E-06   -0.53013E-08 13568   0.122E-03
   3 F= -.35270306E+03 E0= -.35270306E+03  d E =-.912009E-03  mag=     8.0000
       N       E                     dE             d eps       ncg     rms          rms(c)
DAV:   1    -0.352693573907E+03    0.94903E-02   -0.19074E-01 31488   0.542E+00    0.377E-01
DAV:   2    -0.352703015201E+03   -0.94413E-02   -0.91861E-02 28104   0.856E-01    0.191E-01
DAV:   3    -0.352703305192E+03   -0.28999E-03   -0.22760E-03 30672   0.158E-01    0.107E-01
DAV:   4    -0.352703303404E+03    0.17871E-05   -0.88891E-05 28844   0.373E-02    0.722E-02
DAV:   5    -0.352703321753E+03   -0.18349E-04   -0.39297E-05 27488   0.410E-02    0.209E-02
DAV:   6    -0.352703333425E+03   -0.11672E-04   -0.13680E-05 16724   0.174E-02    0.919E-03
DAV:   7    -0.352703327133E+03    0.62923E-05   -0.20897E-06 14292   0.965E-03
   4 F= -.35270333E+03 E0= -.35270333E+03  d E =-.263335E-03  mag=     8.0000
       N       E                     dE             d eps       ncg     rms          rms(c)
DAV:   1    -0.352702947733E+03    0.38569E-03   -0.77001E-03 31448   0.109E+00    0.753E-02
DAV:   2    -0.352703368665E+03   -0.42093E-03   -0.37280E-03 27696   0.173E-01    0.393E-02
DAV:   3    -0.352703349861E+03    0.18804E-04   -0.91059E-05 23480   0.324E-02    0.219E-02
DAV:   4    -0.352703351894E+03   -0.20325E-05   -0.40352E-06 13964   0.903E-03    0.152E-02
DAV:   5    -0.352703346691E+03    0.52027E-05   -0.24453E-06 13368   0.926E-03    0.627E-03
DAV:   6    -0.352703344040E+03    0.26516E-05   -0.82498E-07 13344   0.488E-03
   5 F= -.35270334E+03 E0= -.35270334E+03  d E =-.280242E-03  mag=     8.0000
       N       E                     dE             d eps       ncg     rms          rms(c)
DAV:   1    -0.352703299612E+03    0.47079E-04   -0.85284E-04 32068   0.364E-01    0.255E-02
DAV:   2    -0.352703353214E+03   -0.53602E-04   -0.41571E-04 25816   0.577E-02    0.130E-02
DAV:   3    -0.352703344674E+03    0.85406E-05   -0.10201E-05 14156   0.111E-02    0.762E-03
DAV:   4    -0.352703345901E+03   -0.12279E-05   -0.53961E-07 13260   0.349E-03    0.506E-03
DAV:   5    -0.352703344190E+03    0.17114E-05   -0.27192E-07 13260   0.291E-03    0.251E-03
DAV:   6    -0.352703342608E+03    0.15818E-05   -0.12201E-07 13260   0.176E-03
   6 F= -.35270334E+03 E0= -.35270334E+03  d E =-.278811E-03  mag=     8.0000
       N       E                     dE             d eps       ncg     rms          rms(c)
DAV:   1    -0.352702408173E+03    0.93602E-03   -0.26682E-02 29012   0.182E+00    0.150E-01
DAV:   2    -0.352703337528E+03   -0.92936E-03   -0.11064E-02 29264   0.331E-01    0.768E-02
DAV:   3    -0.352703423392E+03   -0.85864E-04   -0.29707E-04 29456   0.663E-02    0.443E-02
DAV:   4    -0.352703404461E+03    0.18931E-04   -0.18743E-05 19520   0.237E-02    0.262E-02
DAV:   5    -0.352703447602E+03   -0.43141E-04   -0.80288E-06 15024   0.146E-02    0.120E-02
DAV:   6    -0.352703454068E+03   -0.64657E-05   -0.26384E-06 13724   0.863E-03
   7 F= -.35270345E+03 E0= -.35270345E+03  d E =-.111460E-03  mag=     8.0000
       N       E                     dE             d eps       ncg     rms          rms(c)
DAV:   1    -0.352702861658E+03    0.58594E-03   -0.15641E-02 29004   0.139E+00    0.115E-01
DAV:   2    -0.352703397535E+03   -0.53588E-03   -0.65280E-03 29812   0.254E-01    0.591E-02
DAV:   3    -0.352703451855E+03   -0.54320E-04   -0.17386E-04 28496   0.509E-02    0.339E-02
DAV:   4    -0.352703440297E+03    0.11558E-04   -0.11369E-05 17380   0.184E-02    0.200E-02
DAV:   5    -0.352703473587E+03   -0.33289E-04   -0.50743E-06 14204   0.115E-02    0.927E-03
DAV:   6    -0.352703477468E+03   -0.38809E-05   -0.16493E-06 13600   0.688E-03
   8 F= -.35270348E+03 E0= -.35270348E+03  d E =-.134859E-03  mag=     8.0000
       N       E                     dE             d eps       ncg     rms          rms(c)
DAV:   1    -0.352703147151E+03    0.32644E-03   -0.14040E-02 28588   0.116E+00    0.836E-02
DAV:   2    -0.352703564925E+03   -0.41777E-03   -0.44462E-03 28492   0.210E-01    0.472E-02
DAV:   3    -0.352703541757E+03    0.23168E-04   -0.10492E-04 25140   0.389E-02    0.241E-02
DAV:   4    -0.352703538439E+03    0.33172E-05   -0.77835E-06 14560   0.132E-02    0.157E-02
DAV:   5    -0.352703548778E+03   -0.10339E-04   -0.37848E-06 13480   0.988E-03    0.648E-03
DAV:   6    -0.352703541777E+03    0.70014E-05   -0.13830E-06 13332   0.564E-03
   9 F= -.35270354E+03 E0= -.35270354E+03  d E =-.643091E-04  mag=     8.0000
       N       E                     dE             d eps       ncg     rms          rms(c)
DAV:   1    -0.352699900985E+03    0.36478E-02   -0.12646E-01 28536   0.347E+00    0.252E-01
DAV:   2    -0.352703723672E+03   -0.38227E-02   -0.40004E-02 28520   0.629E-01    0.142E-01
DAV:   3    -0.352703664566E+03    0.59106E-04   -0.96049E-04 32876   0.117E-01    0.714E-02
DAV:   4    -0.352703639816E+03    0.24750E-04   -0.65847E-05 30520   0.381E-02    0.456E-02
DAV:   5    -0.352703656219E+03   -0.16404E-04   -0.18260E-05 20008   0.273E-02    0.183E-02
DAV:   6    -0.352703640010E+03    0.16209E-04   -0.10340E-05 14720   0.154E-02    0.108E-02
DAV:   7    -0.352703645214E+03   -0.52038E-05   -0.30906E-06 13856   0.929E-03
  10 F= -.35270365E+03 E0= -.35270365E+03  d E =-.167747E-03  mag=     8.0000
       N       E                     dE             d eps       ncg     rms          rms(c)
DAV:   1    -0.352688375639E+03    0.15264E-01   -0.50624E-01 28496   0.694E+00    0.503E-01
DAV:   2    -0.352703706826E+03   -0.15331E-01   -0.15993E-01 28524   0.126E+00    0.285E-01
DAV:   3    -0.352703609302E+03    0.97524E-04   -0.38266E-03 33220   0.234E-01    0.143E-01
DAV:   4    -0.352703530532E+03    0.78769E-04   -0.26616E-04 36344   0.762E-02    0.916E-02
DAV:   5    -0.352703555761E+03   -0.25228E-04   -0.79594E-05 32824   0.533E-02    0.364E-02
DAV:   6    -0.352703528439E+03    0.27321E-04   -0.24696E-05 20592   0.233E-02    0.166E-02
DAV:   7    -0.352703541738E+03   -0.13299E-04   -0.52061E-06 14576   0.117E-02    0.105E-02
DAV:   8    -0.352703542560E+03   -0.82267E-06   -0.13424E-06 14124   0.665E-03
  11 F= -.35270354E+03 E0= -.35270354E+03  d E =-.650929E-04  mag=     8.0000
       N       E                     dE             d eps       ncg     rms          rms(c)
DAV:   1    -0.352697396382E+03    0.61454E-02   -0.20132E-01 28640   0.438E+00    0.316E-01
DAV:   2    -0.352703584451E+03   -0.61881E-02   -0.63530E-02 28036   0.795E-01    0.173E-01
DAV:   3    -0.352703685783E+03   -0.10133E-03   -0.15660E-03 32272   0.148E-01    0.893E-02
DAV:   4    -0.352703662297E+03    0.23486E-04   -0.11039E-04 33200   0.472E-02    0.575E-02
DAV:   5    -0.352703633586E+03    0.28711E-04   -0.26737E-05 22560   0.326E-02    0.233E-02
DAV:   6    -0.352703647354E+03   -0.13768E-04   -0.14310E-05 16196   0.179E-02    0.117E-02
DAV:   7    -0.352703642476E+03    0.48785E-05   -0.36854E-06 13876   0.102E-02
  12 F= -.35270364E+03 E0= -.35270364E+03  d E =-.165008E-03  mag=     8.0000
       N       E                     dE             d eps       ncg     rms          rms(c)
DAV:   1    -0.352703559719E+03    0.87636E-04   -0.36609E-03 28848   0.623E-01    0.414E-02
DAV:   2    -0.352703678972E+03   -0.11925E-03   -0.12931E-03 27168   0.110E-01    0.236E-02
DAV:   3    -0.352703676553E+03    0.24187E-05   -0.29704E-05 16688   0.199E-02    0.118E-02
DAV:   4    -0.352703681163E+03   -0.46101E-05   -0.26272E-06 13420   0.635E-03    0.794E-03
DAV:   5    -0.352703682533E+03   -0.13702E-05   -0.84426E-07 13140   0.589E-03    0.335E-03
DAV:   6    -0.352703681760E+03    0.77293E-06   -0.45021E-07 13116   0.343E-03
  13 F= -.35270368E+03 E0= -.35270368E+03  d E =-.392847E-04  mag=     8.0000
       N       E                     dE             d eps       ncg     rms          rms(c)
DAV:   1    -0.352702693730E+03    0.98880E-03   -0.32942E-02 28864   0.187E+00    0.122E-01
DAV:   2    -0.352703789659E+03   -0.10959E-02   -0.11605E-02 27240   0.329E-01    0.689E-02
DAV:   3    -0.352703795233E+03   -0.55744E-05   -0.27777E-04 28912   0.588E-02    0.342E-02
DAV:   4    -0.352703789177E+03    0.60566E-05   -0.14137E-05 16932   0.181E-02    0.233E-02
DAV:   5    -0.352703810370E+03   -0.21194E-04   -0.67446E-06 15732   0.148E-02    0.957E-03
DAV:   6    -0.352703798425E+03    0.11945E-04   -0.28869E-06 13336   0.832E-03    0.527E-03
DAV:   7    -0.352703798493E+03   -0.68012E-07   -0.98300E-07 13288   0.509E-03
  14 F= -.35270380E+03 E0= -.35270380E+03  d E =-.156017E-03  mag=     8.0000
       N       E                     dE             d eps       ncg     rms          rms(c)
DAV:   1    -0.352699552685E+03    0.42457E-02   -0.13205E-01 28792   0.373E+00    0.245E-01
DAV:   2    -0.352704024665E+03   -0.44720E-02   -0.46404E-02 27024   0.659E-01    0.138E-01
DAV:   3    -0.352704047969E+03   -0.23304E-04   -0.11075E-03 31656   0.118E-01    0.682E-02
DAV:   4    -0.352704030887E+03    0.17082E-04   -0.61280E-05 28568   0.354E-02    0.464E-02
DAV:   5    -0.352704050325E+03   -0.19438E-04   -0.20125E-05 20364   0.283E-02    0.178E-02
DAV:   6    -0.352704044839E+03    0.54859E-05   -0.92457E-06 14744   0.139E-02
  15 F= -.35270404E+03 E0= -.35270404E+03  d E =-.402364E-03  mag=     8.0000
       N       E                     dE             d eps       ncg     rms          rms(c)
DAV:   1    -0.352685917812E+03    0.18133E-01   -0.52881E-01 28588   0.746E+00    0.490E-01
DAV:   2    -0.352704202578E+03   -0.18285E-01   -0.18632E-01 27004   0.132E+00    0.278E-01
DAV:   3    -0.352704284637E+03   -0.82059E-04   -0.44218E-03 31912   0.236E-01    0.138E-01
DAV:   4    -0.352704230816E+03    0.53821E-04   -0.25503E-04 35020   0.713E-02    0.941E-02
DAV:   5    -0.352704266240E+03   -0.35425E-04   -0.71812E-05 31260   0.542E-02    0.361E-02
DAV:   6    -0.352704240589E+03    0.25652E-04   -0.27028E-05 21508   0.234E-02    0.160E-02
DAV:   7    -0.352704260864E+03   -0.20276E-04   -0.50053E-06 14724   0.108E-02    0.109E-02
DAV:   8    -0.352704260695E+03    0.16955E-06   -0.10792E-06 13908   0.663E-03
  16 F= -.35270426E+03 E0= -.35270426E+03  d E =-.618219E-03  mag=     8.0000
       N       E                     dE             d eps       ncg     rms          rms(c)
DAV:   1    -0.352700425886E+03    0.38350E-02   -0.10239E-01 28936   0.340E+00    0.228E-01
DAV:   2    -0.352704291719E+03   -0.38658E-02   -0.39928E-02 26588   0.587E-01    0.123E-01
DAV:   3    -0.352704412785E+03   -0.12107E-03   -0.96926E-04 29820   0.103E-01    0.628E-02
DAV:   4    -0.352704407292E+03    0.54930E-05   -0.45164E-05 25288   0.279E-02    0.436E-02
DAV:   5    -0.352704445526E+03   -0.38235E-04   -0.14867E-05 17180   0.260E-02    0.154E-02
DAV:   6    -0.352704436878E+03    0.86483E-05   -0.70426E-06 14488   0.106E-02
  17 F= -.35270444E+03 E0= -.35270444E+03  d E =-.176184E-03  mag=     8.0000
       N       E                     dE             d eps       ncg     rms          rms(c)
DAV:   1    -0.352703914604E+03    0.53092E-03   -0.13937E-02 28996   0.125E+00    0.834E-02
DAV:   2    -0.352704393667E+03   -0.47906E-03   -0.54382E-03 26856   0.217E-01    0.450E-02
DAV:   3    -0.352704429395E+03   -0.35728E-04   -0.13151E-04 24880   0.381E-02    0.232E-02
DAV:   4    -0.352704428327E+03    0.10682E-05   -0.62329E-06 15036   0.110E-02    0.162E-02
DAV:   5    -0.352704445282E+03   -0.16955E-04   -0.25360E-06 13552   0.100E-02    0.626E-03
DAV:   6    -0.352704441764E+03    0.35186E-05   -0.11443E-06 13368   0.485E-03
  18 F= -.35270444E+03 E0= -.35270444E+03  d E =-.181069E-03  mag=     8.0000
       N       E                     dE             d eps       ncg     rms          rms(c)
DAV:   1    -0.352704454666E+03   -0.93832E-05   -0.68240E-03 27976   0.768E-01    0.670E-02
DAV:   2    -0.352704618600E+03   -0.16393E-03   -0.19866E-03 31736   0.147E-01    0.429E-02
DAV:   3    -0.352704656966E+03   -0.38365E-04   -0.50228E-05 22192   0.314E-02    0.240E-02
DAV:   4    -0.352704657328E+03   -0.36257E-06   -0.68128E-06 14908   0.106E-02    0.153E-02
DAV:   5    -0.352704656504E+03    0.82453E-06   -0.26830E-06 13608   0.755E-03    0.654E-03
DAV:   6    -0.352704662229E+03   -0.57252E-05   -0.86850E-07 13324   0.524E-03
  19 F= -.35270466E+03 E0= -.35270466E+03  d E =-.220465E-03  mag=     8.0000
       N       E                     dE             d eps       ncg     rms          rms(c)
DAV:   1    -0.352703345006E+03    0.13115E-02   -0.61342E-02 27972   0.230E+00    0.202E-01
DAV:   2    -0.352704968439E+03   -0.16234E-02   -0.17834E-02 31872   0.439E-01    0.129E-01
DAV:   3    -0.352705079066E+03   -0.11063E-03   -0.48055E-04 34768   0.936E-02    0.702E-02
DAV:   4    -0.352705102522E+03   -0.23456E-04   -0.38504E-05 26136   0.322E-02    0.415E-02
DAV:   5    -0.352705076841E+03    0.25681E-04   -0.19641E-05 20520   0.245E-02    0.169E-02
DAV:   6    -0.352705094985E+03   -0.18144E-04   -0.65838E-06 14892   0.145E-02    0.106E-02
DAV:   7    -0.352705093606E+03    0.13792E-05   -0.20994E-06 14172   0.760E-03
  20 F= -.35270509E+03 E0= -.35270509E+03  d E =-.651842E-03  mag=     8.0000
       N       E                     dE             d eps       ncg     rms          rms(c)
DAV:   1    -0.352698027638E+03    0.70673E-02   -0.24578E-01 27944   0.461E+00    0.402E-01
DAV:   2    -0.352704637301E+03   -0.66097E-02   -0.71066E-02 31672   0.877E-01    0.257E-01
DAV:   3    -0.352704846029E+03   -0.20873E-03   -0.18813E-03 35000   0.185E-01    0.140E-01
DAV:   4    -0.352704871165E+03   -0.25136E-04   -0.17215E-04 37536   0.641E-02    0.842E-02
DAV:   5    -0.352704815847E+03    0.55318E-04   -0.52407E-05 30824   0.389E-02    0.301E-02
DAV:   6    -0.352704865683E+03   -0.49836E-04   -0.11130E-05 17344   0.163E-02    0.123E-02
DAV:   7    -0.352704837533E+03    0.28149E-04   -0.44966E-06 14800   0.107E-02    0.785E-03
DAV:   8    -0.352704843882E+03   -0.63485E-05   -0.11077E-06 14300   0.559E-03
  21 F= -.35270484E+03 E0= -.35270484E+03  d E =-.402118E-03  mag=     8.0000
       N       E                     dE             d eps       ncg     rms          rms(c)
DAV:   1    -0.352701783410E+03    0.30541E-02   -0.12910E-01 27928   0.334E+00    0.293E-01
DAV:   2    -0.352705414282E+03   -0.36309E-02   -0.37400E-02 31648   0.638E-01    0.188E-01
DAV:   3    -0.352705240003E+03    0.17428E-03   -0.96526E-04 35096   0.134E-01    0.101E-01
DAV:   4    -0.352705164329E+03    0.75675E-04   -0.88086E-05 32056   0.468E-02    0.594E-02
DAV:   5    -0.352705196869E+03   -0.32541E-04   -0.24506E-05 22480   0.286E-02    0.211E-02
DAV:   6    -0.352705160428E+03    0.36442E-04   -0.95683E-06 15588   0.158E-02    0.116E-02
DAV:   7    -0.352705175261E+03   -0.14834E-04   -0.31998E-06 14216   0.101E-02    0.631E-03
DAV:   8    -0.352705180576E+03   -0.53151E-05   -0.91594E-07 13932   0.489E-03
  22 F= -.35270518E+03 E0= -.35270518E+03  d E =-.738813E-03  mag=     8.0000
       N       E                     dE             d eps       ncg     rms          rms(c)
DAV:   1    -0.352704925354E+03    0.24991E-03   -0.23428E-02 26272   0.134E+00    0.174E-01
DAV:   2    -0.352705647808E+03   -0.72245E-03   -0.71032E-03 30556   0.322E-01    0.881E-02
DAV:   3    -0.352705502346E+03    0.14546E-03   -0.23631E-04 33056   0.685E-02    0.506E-02
DAV:   4    -0.352705477551E+03    0.24795E-04   -0.23748E-05 22876   0.221E-02    0.267E-02
DAV:   5    -0.352705430689E+03    0.46862E-04   -0.92456E-06 16328   0.132E-02    0.862E-03
DAV:   6    -0.352705427370E+03    0.33186E-05   -0.24575E-06 13880   0.754E-03
  23 F= -.35270543E+03 E0= -.35270543E+03  d E =-.246794E-03  mag=     8.0000
       N       E                     dE             d eps       ncg     rms          rms(c)
DAV:   1    -0.352704931590E+03    0.49910E-03   -0.29371E-02 26264   0.151E+00    0.195E-01
DAV:   2    -0.352705804504E+03   -0.87291E-03   -0.89495E-03 30576   0.361E-01    0.992E-02
DAV:   3    -0.352705643236E+03    0.16127E-03   -0.29713E-04 33816   0.767E-02    0.565E-02
DAV:   4    -0.352705613857E+03    0.29379E-04   -0.30274E-05 25640   0.245E-02    0.295E-02
DAV:   5    -0.352705567780E+03    0.46077E-04   -0.10102E-05 17468   0.145E-02    0.956E-03
DAV:   6    -0.352705557947E+03    0.98336E-05   -0.30296E-06 14148   0.792E-03
  24 F= -.35270556E+03 E0= -.35270556E+03  d E =-.377370E-03  mag=     8.0000
       N       E                     dE             d eps       ncg     rms          rms(c)
DAV:   1    -0.352705234524E+03    0.33326E-03   -0.13362E-02 27120   0.110E+00    0.978E-02
DAV:   2    -0.352705717773E+03   -0.48325E-03   -0.43175E-03 28688   0.217E-01    0.550E-02
DAV:   3    -0.352705685784E+03    0.31989E-04   -0.10645E-04 27128   0.473E-02    0.300E-02
DAV:   4    -0.352705670074E+03    0.15710E-04   -0.12775E-05 15916   0.178E-02    0.173E-02
DAV:   5    -0.352705647688E+03    0.22386E-04   -0.52589E-06 13916   0.112E-02    0.786E-03
DAV:   6    -0.352705652479E+03   -0.47907E-05   -0.17038E-06 13444   0.695E-03
  25 F= -.35270565E+03 E0= -.35270565E+03  d E =-.945321E-04  mag=     8.0000
       N       E                     dE             d eps       ncg     rms          rms(c)
DAV:   1    -0.352705423712E+03    0.22398E-03   -0.79262E-03 27016   0.851E-01    0.762E-02
DAV:   2    -0.352705737440E+03   -0.31373E-03   -0.25893E-03 29536   0.168E-01    0.434E-02
DAV:   3    -0.352705706277E+03    0.31163E-04   -0.62174E-05 23600   0.372E-02    0.241E-02
DAV:   4    -0.352705691957E+03    0.14320E-04   -0.85522E-06 14740   0.141E-02    0.140E-02
DAV:   5    -0.352705676435E+03    0.15521E-04   -0.32568E-06 13760   0.887E-03    0.630E-03
DAV:   6    -0.352705680625E+03   -0.41899E-05   -0.10302E-06 13356   0.543E-03
  26 F= -.35270568E+03 E0= -.35270568E+03  d E =-.122679E-03  mag=     8.0000
       N       E                     dE             d eps       ncg     rms          rms(c)
DAV:   1    -0.352705416946E+03    0.25949E-03   -0.10518E-02 28372   0.974E-01    0.648E-02
DAV:   2    -0.352705761548E+03   -0.34460E-03   -0.31586E-03 28136   0.171E-01    0.334E-02
DAV:   3    -0.352705754708E+03    0.68399E-05   -0.73609E-05 22648   0.290E-02    0.174E-02
DAV:   4    -0.352705749931E+03    0.47772E-05   -0.38191E-06 14356   0.813E-03    0.126E-02
DAV:   5    -0.352705753100E+03   -0.31684E-05   -0.20789E-06 13300   0.946E-03    0.586E-03
DAV:   6    -0.352705749527E+03    0.35722E-05   -0.10284E-06 13172   0.534E-03
  27 F= -.35270575E+03 E0= -.35270575E+03  d E =-.689022E-04  mag=     8.0000
       N       E                     dE             d eps       ncg     rms          rms(c)
DAV:   1    -0.352702995641E+03    0.27575E-02   -0.91263E-02 28344   0.287E+00    0.191E-01
DAV:   2    -0.352705836331E+03   -0.28407E-02   -0.27337E-02 28156   0.503E-01    0.956E-02
DAV:   3    -0.352705838674E+03   -0.23430E-05   -0.64744E-04 30664   0.845E-02    0.501E-02
DAV:   4    -0.352705833084E+03    0.55901E-05   -0.26144E-05 21596   0.201E-02    0.358E-02
DAV:   5    -0.352705798840E+03    0.34243E-04   -0.15340E-05 17248   0.247E-02    0.146E-02
DAV:   6    -0.352705812524E+03   -0.13683E-04   -0.65392E-06 14448   0.115E-02    0.752E-03
DAV:   7    -0.352705814134E+03   -0.16105E-05   -0.15822E-06 13720   0.703E-03
  28 F= -.35270581E+03 E0= -.35270581E+03  d E =-.133509E-03  mag=     8.0000
       N       E                     dE             d eps       ncg     rms          rms(c)
DAV:   1    -0.352705628822E+03    0.18370E-03   -0.87994E-03 27656   0.835E-01    0.622E-02
DAV:   2    -0.352705834955E+03   -0.20613E-03   -0.22697E-03 29040   0.153E-01    0.322E-02
DAV:   3    -0.352705849660E+03   -0.14705E-04   -0.52745E-05 21824   0.269E-02    0.172E-02
DAV:   4    -0.352705854840E+03   -0.51799E-05   -0.37175E-06 14408   0.904E-03    0.117E-02
DAV:   5    -0.352705853415E+03    0.14250E-05   -0.19470E-06 13672   0.850E-03    0.575E-03
DAV:   6    -0.352705855074E+03   -0.16593E-05   -0.82676E-07 13396   0.504E-03
  29 F= -.35270586E+03 E0= -.35270586E+03  d E =-.409399E-04  mag=     8.0000
       N       E                     dE             d eps       ncg     rms          rms(c)
DAV:   1    -0.352705527204E+03    0.32621E-03   -0.13221E-02 27664   0.102E+00    0.761E-02
DAV:   2    -0.352705840117E+03   -0.31291E-03   -0.34135E-03 29248   0.187E-01    0.393E-02
DAV:   3    -0.352705858215E+03   -0.18098E-04   -0.80186E-05 24536   0.330E-02    0.210E-02
DAV:   4    -0.352705859980E+03   -0.17646E-05   -0.51004E-06 14856   0.108E-02    0.141E-02
DAV:   5    -0.352705864479E+03   -0.44992E-05   -0.29795E-06 13904   0.102E-02    0.623E-03
DAV:   6    -0.352705863107E+03    0.13716E-05   -0.11391E-06 13496   0.597E-03
  30 F= -.35270586E+03 E0= -.35270586E+03  d E =-.489729E-04  mag=     8.0000
       N       E                     dE             d eps       ncg     rms          rms(c)
DAV:   1    -0.352705662855E+03    0.20162E-03   -0.13632E-02 26796   0.850E-01    0.706E-02
DAV:   2    -0.352705925559E+03   -0.26270E-03   -0.25170E-03 29872   0.158E-01    0.334E-02
DAV:   3    -0.352705896001E+03    0.29558E-04   -0.59274E-05 23916   0.285E-02    0.194E-02
DAV:   4    -0.352705892573E+03    0.34280E-05   -0.35623E-06 14596   0.112E-02    0.127E-02
DAV:   5    -0.352705887659E+03    0.49137E-05   -0.32571E-06 13352   0.857E-03    0.570E-03
DAV:   6    -0.352705886387E+03    0.12724E-05   -0.86663E-07 13264   0.489E-03
  31 F= -.35270589E+03 E0= -.35270589E+03  d E =-.232796E-04  mag=     8.0000
       N       E                     dE             d eps       ncg     rms          rms(c)
DAV:   1    -0.352705874454E+03    0.13206E-04   -0.80325E-04 26856   0.207E-01    0.175E-02
DAV:   2    -0.352705893047E+03   -0.18594E-04   -0.14900E-04 26776   0.388E-02    0.823E-03
DAV:   3    -0.352705887117E+03    0.59300E-05   -0.36284E-06 14308   0.729E-03    0.510E-03
DAV:   4    -0.352705885983E+03    0.11341E-05   -0.29138E-07 13056   0.314E-03    0.329E-03
DAV:   5    -0.352705885559E+03    0.42345E-06   -0.21215E-07 13056   0.201E-03    0.156E-03
DAV:   6    -0.352705884499E+03    0.10609E-05   -0.53682E-08 13056   0.117E-03
  32 F= -.35270588E+03 E0= -.35270588E+03  d E =-.213914E-04  mag=     8.0000
       N       E                     dE             d eps       ncg     rms          rms(c)
DAV:   1    -0.352705861125E+03    0.24434E-04   -0.78521E-03 26232   0.469E-01    0.408E-02
DAV:   2    -0.352705926832E+03   -0.65707E-04   -0.71681E-04 30080   0.916E-02    0.188E-02
DAV:   3    -0.352705912944E+03    0.13888E-04   -0.14079E-05 18392   0.159E-02    0.116E-02
DAV:   4    -0.352705906588E+03    0.63561E-05   -0.21336E-06 13864   0.708E-03    0.831E-03
DAV:   5    -0.352705904652E+03    0.19359E-05   -0.11711E-06 13548   0.625E-03    0.424E-03
DAV:   6    -0.352705905214E+03   -0.56228E-06   -0.51316E-07 13284   0.373E-03
  33 F= -.35270591E+03 E0= -.35270591E+03  d E =-.207157E-04  mag=     8.0000
       N       E                     dE             d eps       ncg     rms          rms(c)
DAV:   1    -0.352705490149E+03    0.41450E-03   -0.61243E-02 26208   0.131E+00    0.115E-01
DAV:   2    -0.352705972827E+03   -0.48268E-03   -0.55945E-03 30016   0.256E-01    0.524E-02
DAV:   3    -0.352705931931E+03    0.40896E-04   -0.11886E-04 30136   0.439E-02    0.309E-02
DAV:   4    -0.352705920654E+03    0.11277E-04   -0.96071E-06 18208   0.150E-02    0.194E-02
DAV:   5    -0.352705901892E+03    0.18762E-04   -0.79413E-06 16312   0.139E-02    0.527E-03
DAV:   6    -0.352705909396E+03   -0.75040E-05   -0.23928E-06 14188   0.737E-03
  34 F= -.35270591E+03 E0= -.35270591E+03  d E =-.248976E-04  mag=     8.0000
       N       E                     dE             d eps       ncg     rms          rms(c)
DAV:   1    -0.352705897779E+03    0.41133E-05   -0.26639E-03 26248   0.302E-01    0.234E-02
DAV:   2    -0.352705907731E+03   -0.99526E-05   -0.31183E-04 29640   0.593E-02    0.124E-02
DAV:   3    -0.352705918567E+03   -0.10835E-04   -0.59103E-06 14976   0.103E-02    0.660E-03
DAV:   4    -0.352705919194E+03   -0.62761E-06   -0.88780E-07 13500   0.394E-03    0.518E-03
DAV:   5    -0.352705921941E+03   -0.27464E-05   -0.36031E-07 13472   0.398E-03    0.259E-03
DAV:   6    -0.352705921834E+03    0.10680E-06   -0.19428E-07 13284   0.223E-03
  35 F= -.35270592E+03 E0= -.35270592E+03  d E =-.124379E-04  mag=     8.0000
       N       E                     dE             d eps       ncg     rms          rms(c)
DAV:   1    -0.352705709043E+03    0.21290E-03   -0.23991E-02 26224   0.906E-01    0.676E-02
DAV:   2    -0.352705907459E+03   -0.19842E-03   -0.27898E-03 29012   0.176E-01    0.350E-02
DAV:   3    -0.352705937441E+03   -0.29983E-04   -0.55691E-05 24420   0.291E-02    0.194E-02
DAV:   4    -0.352705941310E+03   -0.38685E-05   -0.55380E-06 15060   0.103E-02    0.135E-02
DAV:   5    -0.352705938240E+03    0.30699E-05   -0.28259E-06 13784   0.100E-02    0.639E-03
DAV:   6    -0.352705943358E+03   -0.51177E-05   -0.13384E-06 13288   0.577E-03
  36 F= -.35270594E+03 E0= -.35270594E+03  d E =-.339614E-04  mag=     8.0000
       N       E                     dE             d eps       ncg     rms          rms(c)
DAV:   1    -0.352704949266E+03    0.98897E-03   -0.95954E-02 26208   0.181E+00    0.135E-01
DAV:   2    -0.352705837617E+03   -0.88835E-03   -0.11142E-02 28948   0.351E-01    0.699E-02
DAV:   3    -0.352705898692E+03   -0.61074E-04   -0.23044E-04 30360   0.581E-02    0.388E-02
DAV:   4    -0.352705886351E+03    0.12340E-04   -0.14400E-05 18920   0.180E-02    0.253E-02
DAV:   5    -0.352705925142E+03   -0.38790E-04   -0.11956E-05 17264   0.185E-02    0.838E-03
DAV:   6    -0.352705907869E+03    0.17273E-04   -0.44369E-06 14084   0.106E-02    0.595E-03
DAV:   7    -0.352705907245E+03    0.62364E-06   -0.11086E-06 13660   0.570E-03
  37 F= -.35270591E+03 E0= -.35270591E+03  d E =0.215096E-05  mag=     8.0000
       N       E                     dE             d eps       ncg     rms          rms(c)
DAV:   1    -0.352705604359E+03    0.30351E-03   -0.30927E-02 26208   0.103E+00    0.765E-02
DAV:   2    -0.352705981528E+03   -0.37717E-03   -0.35922E-03 28432   0.199E-01    0.401E-02
DAV:   3    -0.352705946158E+03    0.35370E-04   -0.71795E-05 25128   0.334E-02    0.222E-02
DAV:   4    -0.352705940902E+03    0.52553E-05   -0.68535E-06 14676   0.116E-02    0.150E-02
DAV:   5    -0.352705933155E+03    0.77471E-05   -0.38503E-06 13244   0.111E-02    0.585E-03
DAV:   6    -0.352705931680E+03    0.14752E-05   -0.16271E-06 13080   0.643E-03
  38 F= -.35270593E+03 E0= -.35270593E+03  d E =-.222838E-04  mag=     8.0000
       N       E                     dE             d eps       ncg     rms          rms(c)
DAV:   1    -0.352705918188E+03    0.14967E-04   -0.13613E-03 26248   0.216E-01    0.161E-02
DAV:   2    -0.352705945772E+03   -0.27584E-04   -0.15770E-04 27248   0.418E-02    0.792E-03
DAV:   3    -0.352705938626E+03    0.71466E-05   -0.31316E-06 13912   0.688E-03    0.454E-03
DAV:   4    -0.352705937606E+03    0.10198E-05   -0.42542E-07 13080   0.277E-03    0.304E-03
DAV:   5    -0.352705937890E+03   -0.28364E-06   -0.19249E-07 13080   0.253E-03    0.172E-03
DAV:   6    -0.352705937663E+03    0.22609E-06   -0.83617E-08 13068   0.152E-03
  39 F= -.35270594E+03 E0= -.35270594E+03  d E =-.282674E-04  mag=     8.0000
       N       E                     dE             d eps       ncg     rms          rms(c)
DAV:   1    -0.352705944998E+03   -0.71083E-05   -0.53953E-04 26016   0.120E-01    0.293E-02
DAV:   2    -0.352705932445E+03    0.12553E-04   -0.50314E-05 26104   0.270E-02    0.910E-03
DAV:   3    -0.352705954739E+03   -0.22293E-04   -0.21649E-06 13588   0.726E-03    0.528E-03
DAV:   4    -0.352705953814E+03    0.92506E-06   -0.73133E-07 13056   0.412E-03    0.378E-03
DAV:   5    -0.352705952933E+03    0.88042E-06   -0.23907E-07 13056   0.269E-03    0.188E-03
DAV:   6    -0.352705954836E+03   -0.19032E-05   -0.90085E-08 13056   0.153E-03
  40 F= -.35270595E+03 E0= -.35270595E+03  d E =-.171728E-04  mag=     8.0000
