       N       E                     dE             d eps       ncg     rms          ort
DAV:   1     0.265619600817E+04    0.26562E+04   -0.14538E+05  6048   0.161E+03
DAV:   2    -0.152645737920E+03   -0.28088E+04   -0.26312E+04  6048   0.429E+02
DAV:   3    -0.456636108720E+03   -0.30399E+03   -0.29984E+03  6048   0.158E+02
DAV:   4    -0.467084333549E+03   -0.10448E+02   -0.10242E+02  6048   0.275E+01
DAV:   5    -0.467682339189E+03   -0.59801E+00   -0.59615E+00  6048   0.514E+00
SDA:   6    -0.304725679734E+03    0.16296E+03   -0.59615E+00  6048   0.372E+03 0.000E+00
CGA:   7    -0.354574843729E+03   -0.49849E+02   -0.52129E+02  6048   0.520E+02 0.440E+01
CGA:   8    -0.363322663950E+03   -0.87478E+01   -0.87368E+01  6048   0.127E+02 0.581E-01
CGA:   9    -0.366161964036E+03   -0.28393E+01   -0.28385E+01  6048   0.516E+01 0.218E-01
CGA:  10    -0.367229473216E+03   -0.10675E+01   -0.10674E+01  6048   0.203E+01-0.107E-01
CGA:  11    -0.367705465905E+03   -0.47599E+00   -0.47747E+00  6048   0.709E+00-0.425E-01
CGA:  12    -0.367870996662E+03   -0.16553E+00   -0.16634E+00  6048   0.259E+00-0.207E-01
CGA:  13    -0.367931952662E+03   -0.60956E-01   -0.60682E-01  6048   0.710E-01 0.659E-02
CGA:  14    -0.367950540627E+03   -0.18588E-01   -0.18328E-01  6048   0.233E-01 0.532E-02
CGA:  15    -0.367958890373E+03   -0.83497E-02   -0.88121E-02  6048   0.116E-01-0.318E-02
CGA:  16    -0.367961858970E+03   -0.29686E-02   -0.29809E-02  6048   0.440E-02-0.155E-03
CGA:  17    -0.367963228000E+03   -0.13690E-02   -0.13953E-02  6048   0.174E-02-0.256E-03
CGA:  18    -0.367963807729E+03   -0.57973E-03   -0.81991E-03  6048   0.151E-02-0.867E-03
CGA:  19    -0.367963906091E+03   -0.98362E-04   -0.11901E-03  6048   0.892E-03 0.260E-03
CGA:  20    -0.367964020565E+03   -0.11447E-03   -0.14486E-03  6048   0.311E-03 0.324E-03
CGA:  21    -0.367964112270E+03   -0.91706E-04   -0.91983E-04  6048   0.153E-03 0.253E-04
CGA:  22    -0.367964187940E+03   -0.75670E-04    0.18677E-02  6048   0.887E-04 0.177E-04
CGA:  23    -0.367964194402E+03   -0.64619E-05   -0.11930E-04  6048   0.522E-04 0.513E-04
   1 F= -.36796419E+03 E0= -.36796419E+03  d E =-.367964E+03  mag=    20.0000
       N       E                     dE             d eps       ncg     rms          ort
SDA:   1    -0.367988036249E+03   -0.23848E-01    0.00000E+00  6048   0.766E-02 0.000E+00
CGA:   2    -0.367989728167E+03   -0.16919E-02   -0.16901E-02  6048   0.196E-02 0.257E-03
CGA:   3    -0.367990198275E+03   -0.47011E-03   -0.46881E-03  6048   0.764E-03 0.734E-04
CGA:   4    -0.367990343753E+03   -0.14548E-03   -0.14386E-03  6048   0.210E-03-0.489E-04
CGA:   5    -0.367990388636E+03   -0.44883E-04   -0.45673E-04  6048   0.903E-04-0.421E-04
CGA:   6    -0.367990396253E+03   -0.76173E-05   -0.94422E-05  6048   0.276E-04 0.219E-04
   2 F= -.36799040E+03 E0= -.36799040E+03  d E =-.262019E-01  mag=    20.0000
       N       E                     dE             d eps       ncg     rms          ort
SDA:   1    -0.363164897763E+03    0.48255E+01    0.00000E+00  6048   0.180E+02 0.000E+00
CGA:   2    -0.367320738912E+03   -0.41558E+01   -0.41547E+01  6048   0.481E+01 0.182E-01
CGA:   3    -0.368458599271E+03   -0.11379E+01   -0.11385E+01  6048   0.185E+01-0.246E-01
CGA:   4    -0.368763533675E+03   -0.30493E+00   -0.30469E+00  6048   0.423E+00-0.681E-02
CGA:   5    -0.368851904770E+03   -0.88371E-01   -0.88369E-01  6048   0.126E+00 0.402E-03
CGA:   6    -0.368880655875E+03   -0.28751E-01   -0.28722E-01  6048   0.555E-01 0.126E-02
CGA:   7    -0.368896460815E+03   -0.15805E-01   -0.15802E-01  6048   0.261E-01 0.248E-04
CGA:   8    -0.368904311251E+03   -0.78504E-02   -0.78966E-02  6048   0.120E-01-0.501E-03
CGA:   9    -0.368907590377E+03   -0.32791E-02   -0.32678E-02  6048   0.409E-02 0.183E-03
CGA:  10    -0.368908896122E+03   -0.13057E-02   -0.13000E-02  6048   0.157E-02 0.590E-04
CGA:  11    -0.368909450416E+03   -0.55429E-03   -0.55505E-03  6048   0.734E-03-0.671E-05
CGA:  12    -0.368909696606E+03   -0.24619E-03   -0.23726E-03  6048   0.276E-03 0.941E-04
CGA:  13    -0.368909822130E+03   -0.12552E-03   -0.14612E-03  6048   0.183E-03-0.876E-04
CGA:  14    -0.368909852459E+03   -0.30329E-04   -0.30399E-04  6048   0.719E-04 0.210E-04
CGA:  15    -0.368909863766E+03   -0.11307E-04   -0.13293E-04  6048   0.237E-04 0.247E-04
CGA:  16    -0.368909869160E+03   -0.53940E-05   -0.59079E-05  6048   0.934E-05 0.909E-05
   3 F= -.36890987E+03 E0= -.36890987E+03  d E =-.919473E+00  mag=    20.0000
       N       E                     dE             d eps       ncg     rms          ort
SDA:   1    -0.361884931519E+03    0.70249E+01    0.00000E+00  6048   0.248E+02 0.000E+00
CGA:   2    -0.367279072973E+03   -0.53941E+01   -0.53973E+01  6048   0.642E+01 0.237E-01
CGA:   3    -0.368764962924E+03   -0.14859E+01   -0.14857E+01  6048   0.254E+01-0.179E-01
CGA:   4    -0.369185920493E+03   -0.42096E+00   -0.42093E+00  6048   0.561E+00-0.311E-02
CGA:   5    -0.369302381569E+03   -0.11646E+00   -0.11648E+00  6048   0.171E+00 0.811E-03
CGA:   6    -0.369340645178E+03   -0.38264E-01   -0.38290E-01  6048   0.737E-01 0.177E-02
CGA:   7    -0.369362196979E+03   -0.21552E-01   -0.21537E-01  6048   0.375E-01 0.291E-03
CGA:   8    -0.369373810491E+03   -0.11614E-01   -0.11666E-01  6048   0.182E-01-0.752E-03
CGA:   9    -0.369378835106E+03   -0.50246E-02   -0.50197E-02  6048   0.616E-02 0.133E-03
CGA:  10    -0.369380686688E+03   -0.18516E-02   -0.18393E-02  6048   0.210E-02 0.244E-03
CGA:  11    -0.369381396717E+03   -0.71003E-03   -0.70460E-03  6048   0.865E-03 0.745E-04
CGA:  12    -0.369381705976E+03   -0.30926E-03   -0.30194E-03  6048   0.340E-03 0.864E-04
CGA:  13    -0.369381859485E+03   -0.15351E-03   -0.18305E-03  6048   0.239E-03-0.127E-03
CGA:  14    -0.369381903272E+03   -0.43787E-04   -0.44052E-04  6048   0.906E-04-0.105E-04
CGA:  15    -0.369381918944E+03   -0.15672E-04   -0.17072E-04  6048   0.328E-04 0.194E-04
CGA:  16    -0.369381926509E+03   -0.75654E-05   -0.82029E-05  6048   0.138E-04 0.106E-04
   4 F= -.36938193E+03 E0= -.36938193E+03  d E =-.472057E+00  mag=    20.0000
       N       E                     dE             d eps       ncg     rms          ort
SDA:   1    -0.365566388470E+03    0.38155E+01    0.00000E+00  6048   0.123E+02 0.000E+00
CGA:   2    -0.368353521356E+03   -0.27871E+01   -0.27874E+01  6048   0.378E+01-0.713E-02
CGA:   3    -0.369187730584E+03   -0.83421E+00   -0.83419E+00  6048   0.143E+01-0.133E-02
CGA:   4    -0.369420139782E+03   -0.23241E+00   -0.23266E+00  6048   0.289E+00 0.165E-02
CGA:   5    -0.369479394677E+03   -0.59255E-01   -0.59275E-01  6048   0.878E-01 0.337E-03
CGA:   6    -0.369498575076E+03   -0.19180E-01   -0.19197E-01  6048   0.362E-01 0.520E-03
CGA:   7    -0.369509068696E+03   -0.10494E-01   -0.10490E-01  6048   0.188E-01 0.103E-03
CGA:   8    -0.369514965669E+03   -0.58970E-02   -0.59195E-02  6048   0.980E-02-0.366E-03
CGA:   9    -0.369517737007E+03   -0.27713E-02   -0.27688E-02  6048   0.339E-02 0.734E-04
CGA:  10    -0.369518733354E+03   -0.99635E-03   -0.99162E-03  6048   0.111E-02 0.138E-03
CGA:  11    -0.369519108857E+03   -0.37550E-03   -0.37715E-03  6048   0.461E-03-0.234E-04
CGA:  12    -0.369519261049E+03   -0.15219E-03   -0.15001E-03  6048   0.178E-03 0.307E-04
CGA:  13    -0.369519338316E+03   -0.77267E-04   -0.90508E-04  6048   0.120E-03-0.629E-04
CGA:  14    -0.369519365026E+03   -0.26711E-04   -0.35409E-04  6048   0.622E-04-0.478E-04
CGA:  15    -0.369519372938E+03   -0.79118E-05   -0.83246E-05  6048   0.271E-04 0.673E-05
   5 F= -.36951937E+03 E0= -.36951937E+03  d E =-.137446E+00  mag=    20.0000
       N       E                     dE             d eps       ncg     rms          ort
SDA:   1    -0.362947707532E+03    0.65717E+01    0.00000E+00  6048   0.180E+02 0.000E+00
CGA:   2    -0.367629573193E+03   -0.46819E+01   -0.46819E+01  6048   0.761E+01-0.132E-01
CGA:   3    -0.369059456159E+03   -0.14299E+01   -0.14306E+01  6048   0.231E+01 0.355E-02
CGA:   4    -0.369442760900E+03   -0.38330E+00   -0.38384E+00  6048   0.438E+00 0.377E-02
CGA:   5    -0.369528828511E+03   -0.86068E-01   -0.86075E-01  6048   0.132E+00-0.127E-03
CGA:   6    -0.369556769063E+03   -0.27941E-01   -0.27931E-01  6048   0.462E-01-0.214E-03
CGA:   7    -0.369569055214E+03   -0.12286E-01   -0.12286E-01  6048   0.213E-01 0.297E-05
CGA:   8    -0.369575448249E+03   -0.63930E-02   -0.63978E-02  6048   0.109E-01-0.129E-03
CGA:   9    -0.369578801374E+03   -0.33531E-02   -0.33576E-02  6048   0.436E-02-0.948E-04
CGA:  10    -0.369580147140E+03   -0.13458E-02   -0.13484E-02  6048   0.160E-02-0.553E-04
CGA:  11    -0.369580667781E+03   -0.52064E-03   -0.52584E-03  6048   0.672E-03-0.804E-04
CGA:  12    -0.369580889049E+03   -0.22127E-03   -0.21999E-03  6048   0.275E-03 0.172E-04
CGA:  13    -0.369580996724E+03   -0.10768E-03   -0.10961E-03  6048   0.119E-03-0.169E-04
CGA:  14    -0.369581038969E+03   -0.42245E-04   -0.43654E-04  6048   0.417E-04-0.128E-04
CGA:  15    -0.369581051779E+03   -0.12809E-04   -0.12945E-04  6048   0.119E-04-0.219E-05
CGA:  16    -0.369580995832E+03    0.55947E-04   -0.30176E-04  6048   0.237E-03-0.490E-04
CGA:  17    -0.369581041524E+03   -0.45691E-04   -0.56600E-04  6048   0.203E-04 0.379E-04
CGA:  18    -0.369581069222E+03   -0.27698E-04    0.40476E-04  6048   0.118E-04-0.964E-05
CGA:  19    -0.369581067085E+03    0.21369E-05   -0.28683E-06  6048   0.973E-05 0.521E-05
   6 F= -.36958107E+03 E0= -.36958107E+03  d E =-.616941E-01  mag=    20.0000
       N       E                     dE             d eps       ncg     rms          ort
SDA:   1    -0.366962302408E+03    0.26188E+01    0.00000E+00  6048   0.673E+01 0.000E+00
CGA:   2    -0.368928410483E+03   -0.19661E+01   -0.19674E+01  6048   0.329E+01 0.239E-03
CGA:   3    -0.369475067587E+03   -0.54666E+00   -0.54740E+00  6048   0.805E+00 0.321E-02
CGA:   4    -0.369614060991E+03   -0.13899E+00   -0.13902E+00  6048   0.164E+00 0.390E-04
CGA:   5    -0.369645181622E+03   -0.31121E-01   -0.31091E-01  6048   0.468E-01-0.193E-03
CGA:   6    -0.369654887752E+03   -0.97061E-02   -0.97157E-02  6048   0.145E-01 0.242E-04
CGA:   7    -0.369658459346E+03   -0.35716E-02   -0.35802E-02  6048   0.564E-02 0.476E-04
CGA:   8    -0.369660066847E+03   -0.16075E-02   -0.16061E-02  6048   0.256E-02-0.137E-04
CGA:   9    -0.369660848966E+03   -0.78212E-03   -0.78058E-03  6048   0.976E-03-0.181E-04
CGA:  10    -0.369661149177E+03   -0.30021E-03   -0.29850E-03  6048   0.346E-03-0.215E-04
CGA:  11    -0.369661263247E+03   -0.11407E-03   -0.11253E-03  6048   0.143E-03-0.294E-04
CGA:  12    -0.369661310131E+03   -0.46883E-04   -0.46878E-04  6048   0.652E-04-0.266E-06
CGA:  13    -0.369661337356E+03   -0.27226E-04   -0.27393E-04  6048   0.360E-04-0.424E-05
CGA:  14    -0.369661352467E+03   -0.15110E-04   -0.15867E-04  6048   0.193E-04-0.855E-05
CGA:  15    -0.369661358584E+03   -0.61175E-05   -0.63717E-05  6048   0.806E-05-0.552E-05
CGA:  16    -0.369661287156E+03    0.71429E-04   -0.38623E-04  6048   0.274E-03-0.403E-04
CGA:  17    -0.369661343701E+03   -0.56545E-04   -0.68500E-04  6048   0.234E-04 0.258E-04
CGA:  18    -0.369661169838E+03    0.17386E-03   -0.62312E-04  6048   0.826E-03-0.135E-03
CGA:  19    -0.369661269191E+03   -0.99352E-04   -0.19131E-03  6048   0.114E-03 0.169E-03
CGA:  20    -0.369661372394E+03   -0.10320E-03   -0.97815E-04  6048   0.196E-03-0.159E-03
CGA:  21    -0.369661346577E+03    0.25817E-04   -0.31054E-04  6048   0.533E-04 0.966E-04
CGA:  22    -0.369661339778E+03    0.67982E-05   -0.11668E-04  6048   0.128E-04 0.324E-04
   7 F= -.36966134E+03 E0= -.36966134E+03  d E =-.802727E-01  mag=    20.0000
       N       E                     dE             d eps       ncg     rms          ort
SDA:   1    -0.367275080409E+03    0.23863E+01    0.00000E+00  6048   0.611E+01 0.000E+00
CGA:   2    -0.369032406570E+03   -0.17573E+01   -0.17601E+01  6048   0.305E+01 0.444E-02
CGA:   3    -0.369538732133E+03   -0.50633E+00   -0.50682E+00  6048   0.712E+00 0.113E-01
CGA:   4    -0.369662238637E+03   -0.12351E+00   -0.12334E+00  6048   0.146E+00-0.344E-03
CGA:   5    -0.369689919446E+03   -0.27681E-01   -0.27649E-01  6048   0.410E-01-0.115E-03
CGA:   6    -0.369698229353E+03   -0.83099E-02   -0.83611E-02  6048   0.120E-01 0.117E-03
CGA:   7    -0.369701165039E+03   -0.29357E-02   -0.29532E-02  6048   0.461E-02 0.462E-04
CGA:   8    -0.369702467897E+03   -0.13029E-02   -0.13047E-02  6048   0.208E-02 0.511E-05
CGA:   9    -0.369703101788E+03   -0.63389E-03   -0.63769E-03  6048   0.810E-03 0.151E-04
CGA:  10    -0.369703351289E+03   -0.24950E-03   -0.24918E-03  6048   0.286E-03-0.167E-05
CGA:  11    -0.369703441826E+03   -0.90537E-04   -0.89732E-04  6048   0.110E-03-0.392E-05
CGA:  12    -0.369703479656E+03   -0.37831E-04   -0.38346E-04  6048   0.520E-04 0.318E-05
CGA:  13    -0.369703500811E+03   -0.21154E-04   -0.21333E-04  6048   0.272E-04 0.163E-05
CGA:  14    -0.369703511763E+03   -0.10953E-04   -0.10975E-04  6048   0.112E-04 0.191E-06
CGA:  15    -0.369703516665E+03   -0.49020E-05   -0.47480E-05  6048   0.467E-05-0.209E-05
   8 F= -.36970352E+03 E0= -.36970352E+03  d E =-.421769E-01  mag=    20.0000
       N       E                     dE             d eps       ncg     rms          ort
SDA:   1    -0.364745371741E+03    0.49581E+01    0.00000E+00  6048   0.126E+02 0.000E+00
CGA:   2    -0.368350909958E+03   -0.36055E+01   -0.36086E+01  6048   0.647E+01 0.471E-02
CGA:   3    -0.369420789253E+03   -0.10699E+01   -0.10713E+01  6048   0.146E+01 0.152E-01
CGA:   4    -0.369671378481E+03   -0.25059E+00   -0.25045E+00  6048   0.296E+00-0.818E-03
CGA:   5    -0.369727054647E+03   -0.55676E-01   -0.55638E-01  6048   0.822E-01-0.274E-03
CGA:   6    -0.369743729539E+03   -0.16675E-01   -0.16728E-01  6048   0.234E-01 0.199E-03
CGA:   7    -0.369749401772E+03   -0.56722E-02   -0.56882E-02  6048   0.891E-02 0.767E-04
CGA:   8    -0.369751938747E+03   -0.25370E-02   -0.25404E-02  6048   0.407E-02 0.229E-04
CGA:   9    -0.369753208639E+03   -0.12699E-02   -0.12723E-02  6048   0.166E-02 0.237E-04
CGA:  10    -0.369753729537E+03   -0.52090E-03   -0.51867E-03  6048   0.597E-03-0.253E-04
CGA:  11    -0.369753914472E+03   -0.18493E-03   -0.18442E-03  6048   0.225E-03-0.633E-05
CGA:  12    -0.369753995056E+03   -0.80584E-04   -0.80591E-04  6048   0.110E-03 0.141E-06
CGA:  13    -0.369754040109E+03   -0.45053E-04   -0.45043E-04  6048   0.580E-04 0.480E-06
CGA:  14    -0.369754060245E+03   -0.20136E-04   -0.20390E-04  6048   0.204E-04 0.594E-05
CGA:  15    -0.369754069847E+03   -0.96022E-05   -0.98537E-05  6048   0.100E-04-0.515E-05
   9 F= -.36975407E+03 E0= -.36975407E+03  d E =-.505532E-01  mag=    20.0000
       N       E                     dE             d eps       ncg     rms          ort
SDA:   1    -0.359773583156E+03    0.99805E+01    0.00000E+00  6048   0.246E+02 0.000E+00
CGA:   2    -0.367151271340E+03   -0.73777E+01   -0.73813E+01  6048   0.120E+02 0.800E-02
CGA:   3    -0.369122720324E+03   -0.19714E+01   -0.19748E+01  6048   0.274E+01 0.328E-01
CGA:   4    -0.369591084017E+03   -0.46836E+00   -0.46862E+00  6048   0.559E+00-0.198E-03
CGA:   5    -0.369698988672E+03   -0.10790E+00   -0.10777E+00  6048   0.162E+00-0.106E-02
CGA:   6    -0.369732155858E+03   -0.33167E-01   -0.33180E-01  6048   0.473E-01-0.169E-05
CGA:   7    -0.369743755498E+03   -0.11600E-01   -0.11638E-01  6048   0.183E-01 0.349E-03
CGA:   8    -0.369748982200E+03   -0.52267E-02   -0.52365E-02  6048   0.819E-02 0.162E-03
CGA:   9    -0.369751539040E+03   -0.25568E-02   -0.25550E-02  6048   0.320E-02-0.638E-04
CGA:  10    -0.369752534356E+03   -0.99532E-03   -0.99197E-03  6048   0.111E-02-0.134E-03
CGA:  11    -0.369752874953E+03   -0.34060E-03   -0.33960E-03  6048   0.418E-03-0.584E-04
CGA:  12    -0.369753020261E+03   -0.14531E-03   -0.14574E-03  6048   0.203E-03-0.133E-04
CGA:  13    -0.369753099918E+03   -0.79657E-04   -0.79557E-04  6048   0.104E-03 0.132E-05
CGA:  14    -0.369753138556E+03   -0.38638E-04   -0.38443E-04  6048   0.380E-04 0.724E-05
CGA:  15    -0.369753156224E+03   -0.17668E-04   -0.19108E-04  6048   0.209E-04-0.113E-04
CGA:  16    -0.369753162311E+03   -0.60870E-05   -0.70226E-05  6048   0.105E-04-0.720E-05
  10 F= -.36975316E+03 E0= -.36975316E+03  d E =0.907537E-03  mag=    20.0000
       N       E                     dE             d eps       ncg     rms          ort
SDA:   1    -0.368700056509E+03    0.10531E+01    0.00000E+00  6048   0.291E+01 0.000E+00
CGA:   2    -0.369492659113E+03   -0.79260E+00   -0.79277E+00  6048   0.134E+01-0.412E-03
CGA:   3    -0.369724433044E+03   -0.23177E+00   -0.23223E+00  6048   0.381E+00 0.202E-02
CGA:   4    -0.369791929794E+03   -0.67497E-01   -0.67584E-01  6048   0.818E-01 0.472E-03
CGA:   5    -0.369807792772E+03   -0.15863E-01   -0.15820E-01  6048   0.246E-01-0.347E-03
CGA:   6    -0.369813017467E+03   -0.52247E-02   -0.52157E-02  6048   0.820E-02-0.903E-04
CGA:   7    -0.369815052335E+03   -0.20349E-02   -0.20448E-02  6048   0.318E-02 0.148E-03
CGA:   8    -0.369815922077E+03   -0.86974E-03   -0.87413E-03  6048   0.131E-02 0.102E-03
CGA:   9    -0.369816327423E+03   -0.40535E-03   -0.40533E-03  6048   0.469E-03-0.223E-05
CGA:  10    -0.369816477892E+03   -0.15047E-03   -0.15092E-03  6048   0.182E-03-0.374E-04
CGA:  11    -0.369816528674E+03   -0.50782E-04   -0.50722E-04  6048   0.642E-04-0.752E-05
CGA:  12    -0.369816548528E+03   -0.19854E-04   -0.19798E-04  6048   0.264E-04 0.503E-05
CGA:  13    -0.369816560361E+03   -0.11833E-04   -0.11991E-04  6048   0.169E-04-0.146E-05
CGA:  14    -0.369816565765E+03   -0.54044E-05   -0.53658E-05  6048   0.683E-05 0.186E-05
  11 F= -.36981657E+03 E0= -.36981657E+03  d E =-.634035E-01  mag=    20.0000
       N       E                     dE             d eps       ncg     rms          ort
SDA:   1    -0.369634515227E+03    0.18205E+00    0.00000E+00  6048   0.507E+00 0.000E+00
CGA:   2    -0.369775100841E+03   -0.14059E+00   -0.14055E+00  6048   0.234E+00-0.110E-02
CGA:   3    -0.369814524780E+03   -0.39424E-01   -0.39531E-01  6048   0.635E-01 0.549E-03
CGA:   4    -0.369825920198E+03   -0.11395E-01   -0.11438E-01  6048   0.133E-01 0.302E-03
CGA:   5    -0.369828383948E+03   -0.24638E-02   -0.24762E-02  6048   0.369E-02 0.101E-03
CGA:   6    -0.369829151892E+03   -0.76794E-03   -0.77393E-03  6048   0.116E-02 0.666E-04
CGA:   7    -0.369829443620E+03   -0.29173E-03   -0.29293E-03  6048   0.452E-03 0.266E-04
CGA:   8    -0.369829575229E+03   -0.13161E-03   -0.13162E-03  6048   0.202E-03 0.120E-05
CGA:   9    -0.369829636810E+03   -0.61580E-04   -0.61588E-04  6048   0.748E-04-0.613E-06
CGA:  10    -0.369829656487E+03   -0.19677E-04   -0.19863E-04  6048   0.225E-04 0.759E-05
CGA:  11    -0.369829660683E+03   -0.41957E-05   -0.49862E-05  6048   0.773E-05 0.892E-05
  12 F= -.36982966E+03 E0= -.36982966E+03  d E =-.130949E-01  mag=    20.0000
       N       E                     dE             d eps       ncg     rms          ort
SDA:   1    -0.369246285256E+03    0.58337E+00    0.00000E+00  6048   0.155E+01 0.000E+00
CGA:   2    -0.369674974636E+03   -0.42869E+00   -0.42869E+00  6048   0.748E+00-0.124E-02
CGA:   3    -0.369800801459E+03   -0.12583E+00   -0.12610E+00  6048   0.193E+00 0.197E-02
CGA:   4    -0.369834272279E+03   -0.33471E-01   -0.33541E-01  6048   0.379E-01 0.620E-03
CGA:   5    -0.369841256812E+03   -0.69845E-02   -0.69832E-02  6048   0.103E-01-0.272E-04
CGA:   6    -0.369843390554E+03   -0.21337E-02   -0.21396E-02  6048   0.308E-02 0.974E-04
CGA:   7    -0.369844116361E+03   -0.72581E-03   -0.72880E-03  6048   0.110E-02 0.104E-03
CGA:   8    -0.369844438263E+03   -0.32190E-03   -0.32103E-03  6048   0.507E-03 0.417E-04
CGA:   9    -0.369844600111E+03   -0.16185E-03   -0.16098E-03  6048   0.202E-03 0.199E-04
CGA:  10    -0.369844662866E+03   -0.62755E-04   -0.62374E-04  6048   0.719E-04 0.116E-04
CGA:  11    -0.369844684370E+03   -0.21504E-04   -0.21364E-04  6048   0.253E-04 0.964E-05
CGA:  12    -0.369844695683E+03   -0.11313E-04   -0.11490E-04  6048   0.167E-04-0.133E-05
CGA:  13    -0.369844643880E+03    0.51803E-04   -0.28405E-04  6048   0.249E-03-0.551E-04
CGA:  14    -0.369844696881E+03   -0.53001E-04   -0.56849E-04  6048   0.273E-04 0.141E-04
CGA:  15    -0.369844709046E+03   -0.12165E-04   -0.12195E-04  6048   0.100E-04 0.474E-06
CGA:  16    -0.369844711361E+03   -0.23157E-05   -0.30344E-05  6048   0.371E-05 0.386E-05
  13 F= -.36984471E+03 E0= -.36984471E+03  d E =-.150507E-01  mag=    20.0000
       N       E                     dE             d eps       ncg     rms          ort
SDA:   1    -0.364128414014E+03    0.57163E+01    0.00000E+00  6048   0.149E+02 0.000E+00
CGA:   2    -0.368212306013E+03   -0.40839E+01   -0.40876E+01  6048   0.734E+01-0.283E-03
CGA:   3    -0.369464018336E+03   -0.12517E+01   -0.12537E+01  6048   0.184E+01 0.196E-01
CGA:   4    -0.369778724357E+03   -0.31471E+00   -0.31496E+00  6048   0.353E+00 0.150E-02
CGA:   5    -0.369843898335E+03   -0.65174E-01   -0.65133E-01  6048   0.974E-01-0.199E-03
CGA:   6    -0.369864215045E+03   -0.20317E-01   -0.20338E-01  6048   0.288E-01 0.688E-04
CGA:   7    -0.369871036452E+03   -0.68214E-02   -0.68544E-02  6048   0.104E-01 0.185E-03
CGA:   8    -0.369874009810E+03   -0.29734E-02   -0.29899E-02  6048   0.482E-02 0.147E-03
CGA:   9    -0.369875534122E+03   -0.15243E-02   -0.15252E-02  6048   0.192E-02 0.915E-05
CGA:  10    -0.369876154255E+03   -0.62013E-03   -0.61647E-03  6048   0.731E-03-0.570E-04
CGA:  11    -0.369876367884E+03   -0.21363E-03   -0.21453E-03  6048   0.259E-03 0.110E-04
CGA:  12    -0.369876469151E+03   -0.10127E-03   -0.10138E-03  6048   0.143E-03-0.146E-04
CGA:  13    -0.369876531767E+03   -0.62616E-04   -0.65751E-04  6048   0.995E-04-0.290E-04
CGA:  14    -0.369876557390E+03   -0.25623E-04   -0.25929E-04  6048   0.348E-04 0.528E-05
CGA:  15    -0.369876569563E+03   -0.12173E-04   -0.12059E-04  6048   0.124E-04-0.218E-05
CGA:  16    -0.369876574246E+03   -0.46832E-05   -0.72014E-05  6048   0.146E-04-0.104E-04
  14 F= -.36987657E+03 E0= -.36987657E+03  d E =-.318629E-01  mag=    20.0000
       N       E                     dE             d eps       ncg     rms          ort
SDA:   1    -0.354731412018E+03    0.15145E+02    0.00000E+00  6048   0.339E+02 0.000E+00
CGA:   2    -0.365272970190E+03   -0.10542E+02   -0.10566E+02  6048   0.117E+02 0.933E-01
CGA:   3    -0.367751552904E+03   -0.24786E+01   -0.24855E+01  6048   0.361E+01 0.151E-01
CGA:   4    -0.368359615777E+03   -0.60806E+00   -0.60892E+00  6048   0.921E+00 0.546E-02
CGA:   5    -0.368558508774E+03   -0.19889E+00   -0.19904E+00  6048   0.276E+00 0.222E-03
CGA:   6    -0.368621426556E+03   -0.62918E-01   -0.62908E-01  6048   0.122E+00-0.303E-03
CGA:   7    -0.368652826888E+03   -0.31400E-01   -0.31393E-01  6048   0.441E-01-0.123E-03
CGA:   8    -0.368665091737E+03   -0.12265E-01   -0.12275E-01  6048   0.180E-01 0.145E-03
CGA:   9    -0.368670018868E+03   -0.49271E-02   -0.49350E-02  6048   0.557E-02 0.114E-03
CGA:  10    -0.368671705242E+03   -0.16864E-02   -0.16823E-02  6048   0.180E-02-0.120E-03
CGA:  11    -0.368672259881E+03   -0.55464E-03   -0.55370E-03  6048   0.659E-03-0.496E-04
CGA:  12    -0.368672503252E+03   -0.24337E-03   -0.24721E-03  6048   0.358E-03-0.717E-04
CGA:  13    -0.368672615302E+03   -0.11205E-03   -0.11170E-03  6048   0.150E-03 0.218E-04
CGA:  14    -0.368672658479E+03   -0.43177E-04   -0.45170E-04  6048   0.558E-04 0.382E-04
CGA:  15    -0.368672686462E+03   -0.27983E-04   -0.28234E-04  6048   0.328E-04-0.357E-05
CGA:  16    -0.368672691038E+03   -0.45758E-05   -0.62800E-05  6048   0.148E-04 0.130E-04
  15 F= -.36867269E+03 E0= -.36867269E+03  d E =0.120388E+01  mag=    20.0000
       N       E                     dE             d eps       ncg     rms          ort
SDA:   1    -0.366318099603E+03    0.23546E+01    0.00000E+00  6048   0.800E+01 0.000E+00
CGA:   2    -0.368928427669E+03   -0.26103E+01   -0.26105E+01  6048   0.237E+01-0.363E-01
CGA:   3    -0.369518520297E+03   -0.59009E+00   -0.59083E+00  6048   0.457E+00 0.203E-02
CGA:   4    -0.369620483783E+03   -0.10196E+00   -0.10199E+00  6048   0.169E+00 0.321E-03
CGA:   5    -0.369650882654E+03   -0.30399E-01   -0.30469E-01  6048   0.487E-01 0.528E-03
CGA:   6    -0.369664402652E+03   -0.13520E-01   -0.13523E-01  6048   0.218E-01 0.845E-04
CGA:   7    -0.369669629654E+03   -0.52270E-02   -0.52136E-02  6048   0.878E-02-0.212E-03
CGA:   8    -0.369672024476E+03   -0.23948E-02   -0.23977E-02  6048   0.298E-02 0.104E-03
CGA:   9    -0.369672834789E+03   -0.81031E-03   -0.81220E-03  6048   0.939E-03 0.567E-04
CGA:  10    -0.369673127440E+03   -0.29265E-03   -0.29327E-03  6048   0.324E-03-0.101E-03
CGA:  11    -0.369673190929E+03   -0.63489E-04   -0.67660E-04  6048   0.939E-04 0.621E-04
CGA:  12    -0.369673214341E+03   -0.23412E-04   -0.25382E-04  6048   0.384E-04 0.279E-04
CGA:  13    -0.369672962189E+03    0.25215E-03   -0.13603E-03  6048   0.112E-02-0.218E-03
CGA:  14    -0.369673160692E+03   -0.19850E-03   -0.24374E-03  6048   0.160E-03 0.141E-03
CGA:  15    -0.369673252809E+03   -0.92117E-04   -0.89920E-04  6048   0.155E-03-0.103E-03
CGA:  16    -0.369673250677E+03    0.21320E-05   -0.20588E-04  6048   0.307E-04 0.587E-04
  16 F= -.36967325E+03 E0= -.36967325E+03  d E =-.100056E+01  mag=    20.0000
       N       E                     dE             d eps       ncg     rms          ort
SDA:   1    -0.368924698875E+03    0.74855E+00    0.00000E+00  6048   0.225E+01 0.000E+00
CGA:   2    -0.369661925159E+03   -0.73723E+00   -0.73692E+00  6048   0.663E+00-0.123E-02
CGA:   3    -0.369826974142E+03   -0.16505E+00   -0.16527E+00  6048   0.140E+00 0.365E-03
CGA:   4    -0.369856405512E+03   -0.29431E-01   -0.29438E-01  6048   0.508E-01-0.312E-04
CGA:   5    -0.369865647415E+03   -0.92419E-02   -0.92663E-02  6048   0.140E-01 0.836E-04
CGA:   6    -0.369869522315E+03   -0.38749E-02   -0.38817E-02  6048   0.652E-02 0.397E-04
CGA:   7    -0.369871062661E+03   -0.15403E-02   -0.15314E-02  6048   0.253E-02-0.492E-04
CGA:   8    -0.369871772534E+03   -0.70987E-03   -0.71255E-03  6048   0.881E-03 0.194E-04
CGA:   9    -0.369872007055E+03   -0.23452E-03   -0.23718E-03  6048   0.282E-03 0.181E-04
CGA:  10    -0.369872097303E+03   -0.90248E-04   -0.87715E-04  6048   0.924E-04-0.256E-04
CGA:  11    -0.369872116038E+03   -0.18735E-04   -0.20952E-04  6048   0.265E-04 0.148E-04
CGA:  12    -0.369872123056E+03   -0.70183E-05   -0.78677E-05  6048   0.111E-04 0.624E-05
CGA:  13    -0.369871995322E+03    0.12773E-03   -0.68799E-04  6048   0.522E-03-0.777E-04
CGA:  14    -0.369872085629E+03   -0.90307E-04   -0.11582E-03  6048   0.776E-04 0.529E-04
CGA:  15    -0.369872136003E+03   -0.50374E-04   -0.42386E-04  6048   0.761E-04-0.440E-04
CGA:  16    -0.369872132865E+03    0.31384E-05   -0.10319E-04  6048   0.135E-04 0.252E-04
  17 F= -.36987213E+03 E0= -.36987213E+03  d E =-.198882E+00  mag=    20.0000
       N       E                     dE             d eps       ncg     rms          ort
SDA:   1    -0.369554110103E+03    0.31803E+00    0.00000E+00  6048   0.827E+00 0.000E+00
CGA:   2    -0.369823805577E+03   -0.26970E+00   -0.26978E+00  6048   0.249E+00-0.834E-03
CGA:   3    -0.369883417592E+03   -0.59612E-01   -0.59807E-01  6048   0.611E-01 0.551E-03
CGA:   4    -0.369894800914E+03   -0.11383E-01   -0.11370E-01  6048   0.202E-01-0.700E-04
CGA:   5    -0.369898788997E+03   -0.39881E-02   -0.39673E-02  6048   0.539E-02-0.642E-04
CGA:   6    -0.369900176484E+03   -0.13875E-02   -0.13890E-02  6048   0.264E-02 0.340E-05
CGA:   7    -0.369900798250E+03   -0.62177E-03   -0.62176E-03  6048   0.934E-03-0.765E-06
CGA:   8    -0.369901067937E+03   -0.26969E-03   -0.27163E-03  6048   0.359E-03 0.835E-05
CGA:   9    -0.369901162176E+03   -0.94239E-04   -0.95573E-04  6048   0.112E-03 0.537E-05
CGA:  10    -0.369901199566E+03   -0.37391E-04   -0.35632E-04  6048   0.371E-04-0.988E-05
CGA:  11    -0.369901209569E+03   -0.10002E-04   -0.10042E-04  6048   0.122E-04 0.199E-06
CGA:  12    -0.369901213428E+03   -0.38590E-05   -0.39385E-05  6048   0.522E-05 0.515E-06
  18 F= -.36990121E+03 E0= -.36990121E+03  d E =-.290806E-01  mag=    20.0000
       N       E                     dE             d eps       ncg     rms          ort
SDA:   1    -0.369890666949E+03    0.10543E-01    0.00000E+00  6048   0.446E-01 0.000E+00
CGA:   2    -0.369904095082E+03   -0.13428E-01   -0.13394E-01  6048   0.166E-01-0.201E-03
CGA:   3    -0.369907375289E+03   -0.32802E-02   -0.33604E-02  6048   0.496E-02 0.284E-03
CGA:   4    -0.369908197527E+03   -0.82224E-03   -0.83646E-03  6048   0.118E-02 0.452E-04
CGA:   5    -0.369908480854E+03   -0.28333E-03   -0.26721E-03  6048   0.423E-03-0.721E-04
CGA:   6    -0.369908578750E+03   -0.97896E-04   -0.90667E-04  6048   0.173E-03-0.347E-04
CGA:   7    -0.369908616780E+03   -0.38029E-04   -0.39195E-04  6048   0.559E-04 0.643E-05
CGA:   8    -0.369908626837E+03   -0.10058E-04   -0.12600E-04  6048   0.190E-04 0.126E-04
CGA:   9    -0.369908632798E+03   -0.59610E-05   -0.63216E-05  6048   0.748E-05 0.263E-05
  19 F= -.36990863E+03 E0= -.36990863E+03  d E =-.741937E-02  mag=    20.0000
       N       E                     dE             d eps       ncg     rms          ort
SDA:   1    -0.369873303652E+03    0.35323E-01    0.00000E+00  6048   0.108E+00 0.000E+00
CGA:   2    -0.369904374005E+03   -0.31070E-01   -0.31003E-01  6048   0.410E-01-0.543E-03
CGA:   3    -0.369912685835E+03   -0.83118E-02   -0.84333E-02  6048   0.125E-01 0.550E-03
CGA:   4    -0.369914651226E+03   -0.19654E-02   -0.19940E-02  6048   0.306E-02 0.107E-03
CGA:   5    -0.369915303728E+03   -0.65250E-03   -0.63130E-03  6048   0.103E-02-0.111E-03
CGA:   6    -0.369915537814E+03   -0.23409E-03   -0.22219E-03  6048   0.400E-03-0.731E-04
CGA:   7    -0.369915635425E+03   -0.97611E-04   -0.98208E-04  6048   0.141E-03 0.509E-05
CGA:   8    -0.369915666133E+03   -0.30708E-04   -0.33739E-04  6048   0.496E-04 0.219E-04
CGA:   9    -0.369915682363E+03   -0.16229E-04   -0.16546E-04  6048   0.192E-04 0.401E-05
CGA:  10    -0.369915690383E+03   -0.80202E-05   -0.12586E-04  6048   0.391E-04-0.187E-04
  20 F= -.36991569E+03 E0= -.36991569E+03  d E =-.705758E-02  mag=    20.0000
       N       E                     dE             d eps       ncg     rms          ort
SDA:   1    -0.369914526931E+03    0.11554E-02    0.00000E+00  6048   0.848E-02 0.000E+00
CGA:   2    -0.369916714652E+03   -0.21877E-02   -0.21563E-02  6048   0.379E-02-0.284E-03
CGA:   3    -0.369917349346E+03   -0.63469E-03   -0.66076E-03  6048   0.106E-02 0.143E-03
CGA:   4    -0.369917508262E+03   -0.15892E-03   -0.17533E-03  6048   0.181E-03 0.851E-04
CGA:   5    -0.369917555833E+03   -0.47571E-04   -0.45462E-04  6048   0.688E-04-0.194E-04
CGA:   6    -0.369917573349E+03   -0.17516E-04   -0.16213E-04  6048   0.377E-04-0.180E-04
CGA:   7    -0.369917578906E+03   -0.55569E-05   -0.58418E-05  6048   0.139E-04 0.230E-05
  21 F= -.36991758E+03 E0= -.36991758E+03  d E =-.188852E-02  mag=    20.0000
       N       E                     dE             d eps       ncg     rms          ort
SDA:   1    -0.369257841725E+03    0.65973E+00    0.00000E+00  6048   0.188E+01 0.000E+00
CGA:   2    -0.369719884675E+03   -0.46204E+00   -0.46184E+00  6048   0.888E+00-0.414E-02
CGA:   3    -0.369882116028E+03   -0.16223E+00   -0.16254E+00  6048   0.250E+00 0.194E-02
CGA:   4    -0.369923910184E+03   -0.41794E-01   -0.42002E-01  6048   0.466E-01 0.140E-02
CGA:   5    -0.369932777551E+03   -0.88674E-02   -0.88508E-02  6048   0.133E-01-0.163E-03
CGA:   6    -0.369935570334E+03   -0.27928E-02   -0.27728E-02  6048   0.417E-02-0.237E-03
CGA:   7    -0.369936599752E+03   -0.10294E-02   -0.10305E-02  6048   0.172E-02 0.246E-04
CGA:   8    -0.369937080731E+03   -0.48098E-03   -0.48187E-03  6048   0.790E-03 0.876E-04
CGA:   9    -0.369937360182E+03   -0.27945E-03   -0.27934E-03  6048   0.374E-03 0.208E-05
CGA:  10    -0.369937493328E+03   -0.13315E-03   -0.13754E-03  6048   0.192E-03-0.579E-04
CGA:  11    -0.369937545598E+03   -0.52271E-04   -0.52847E-04  6048   0.770E-04-0.185E-04
CGA:  12    -0.369937568960E+03   -0.23361E-04   -0.23452E-04  6048   0.317E-04-0.226E-05
CGA:  13    -0.369937580275E+03   -0.11315E-04   -0.11385E-04  6048   0.136E-04-0.995E-06
CGA:  14    -0.369937583031E+03   -0.27555E-05   -0.30608E-05  6048   0.459E-05 0.443E-05
  22 F= -.36993758E+03 E0= -.36993758E+03  d E =-.200041E-01  mag=    20.0000
       N       E                     dE             d eps       ncg     rms          ort
SDA:   1    -0.369909405640E+03    0.28175E-01    0.00000E+00  6048   0.782E-01 0.000E+00
CGA:   2    -0.369927303544E+03   -0.17898E-01   -0.17926E-01  6048   0.374E-01 0.396E-03
CGA:   3    -0.369934294074E+03   -0.69905E-02   -0.69325E-02  6048   0.114E-01-0.577E-03
CGA:   4    -0.369936413297E+03   -0.21192E-02   -0.20921E-02  6048   0.263E-02-0.279E-03
CGA:   5    -0.369936818202E+03   -0.40491E-03   -0.42358E-03  6048   0.618E-03 0.162E-03
CGA:   6    -0.369936919489E+03   -0.10129E-03   -0.11515E-03  6048   0.179E-03 0.141E-03
CGA:   7    -0.369936969577E+03   -0.50087E-04   -0.51197E-04  6048   0.822E-04 0.313E-04
CGA:   8    -0.369937000075E+03   -0.30499E-04   -0.48981E-04  6048   0.165E-03-0.771E-04
CGA:   9    -0.369937020740E+03   -0.20664E-04   -0.24086E-04  6048   0.228E-04 0.257E-04
CGA:  10    -0.369937023980E+03   -0.32396E-05   -0.43894E-05  6048   0.764E-05 0.108E-04
  23 F= -.36993702E+03 E0= -.36993702E+03  d E =0.559051E-03  mag=    20.0000
       N       E                     dE             d eps       ncg     rms          ort
SDA:   1    -0.369924421508E+03    0.12599E-01    0.00000E+00  6048   0.372E-01 0.000E+00
CGA:   2    -0.369935324297E+03   -0.10903E-01   -0.10919E-01  6048   0.189E-01-0.576E-03
CGA:   3    -0.369938418660E+03   -0.30944E-02   -0.31023E-02  6048   0.442E-02 0.673E-04
CGA:   4    -0.369939114263E+03   -0.69560E-03   -0.71200E-03  6048   0.817E-03 0.163E-03
CGA:   5    -0.369939258747E+03   -0.14448E-03   -0.15088E-03  6048   0.218E-03 0.830E-04
CGA:   6    -0.369939305806E+03   -0.47059E-04   -0.48084E-04  6048   0.636E-04 0.202E-04
CGA:   7    -0.369939328048E+03   -0.22242E-04   -0.25001E-04  6048   0.540E-04-0.248E-04
CGA:   8    -0.369939335928E+03   -0.78801E-05   -0.77636E-05  6048   0.272E-04-0.641E-05
  24 F= -.36993934E+03 E0= -.36993934E+03  d E =-.231195E-02  mag=    20.0000
       N       E                     dE             d eps       ncg     rms          ort
SDA:   1    -0.369667005065E+03    0.27232E+00    0.00000E+00  6048   0.714E+00 0.000E+00
CGA:   2    -0.369866363267E+03   -0.19936E+00   -0.19942E+00  6048   0.381E+00-0.233E-02
CGA:   3    -0.369929930477E+03   -0.63567E-01   -0.63655E-01  6048   0.858E-01 0.805E-03
CGA:   4    -0.369944036844E+03   -0.14106E-01   -0.14172E-01  6048   0.161E-01 0.780E-03
CGA:   5    -0.369947098838E+03   -0.30620E-02   -0.30739E-02  6048   0.449E-02 0.219E-03
CGA:   6    -0.369948031457E+03   -0.93262E-03   -0.93310E-03  6048   0.127E-02 0.124E-04
CGA:   7    -0.369948349825E+03   -0.31837E-03   -0.31901E-03  6048   0.504E-03-0.486E-04
CGA:   8    -0.369948487948E+03   -0.13812E-03   -0.13870E-03  6048   0.235E-03-0.122E-04
CGA:   9    -0.369948554484E+03   -0.66537E-04   -0.65675E-04  6048   0.850E-04 0.190E-04
CGA:  10    -0.369948582659E+03   -0.28174E-04   -0.27915E-04  6048   0.317E-04 0.424E-05
CGA:  11    -0.369948593371E+03   -0.10712E-04   -0.10692E-04  6048   0.131E-04 0.263E-06
CGA:  12    -0.369948598529E+03   -0.51582E-05   -0.76906E-05  6048   0.177E-04-0.767E-05
  25 F= -.36994860E+03 E0= -.36994860E+03  d E =-.926260E-02  mag=    20.0000
       N       E                     dE             d eps       ncg     rms          ort
SDA:   1    -0.366518329772E+03    0.34303E+01    0.00000E+00  6048   0.829E+01 0.000E+00
CGA:   2    -0.369190606894E+03   -0.26723E+01   -0.26722E+01  6048   0.348E+01-0.305E-02
CGA:   3    -0.369780950970E+03   -0.59034E+00   -0.59085E+00  6048   0.811E+00 0.249E-02
CGA:   4    -0.369913065400E+03   -0.13211E+00   -0.13227E+00  6048   0.160E+00 0.106E-02
CGA:   5    -0.369945521508E+03   -0.32456E-01   -0.32449E-01  6048   0.451E-01-0.168E-03
CGA:   6    -0.369954552544E+03   -0.90310E-02   -0.90217E-02  6048   0.129E-01-0.181E-03
CGA:   7    -0.369957789980E+03   -0.32374E-02   -0.32372E-02  6048   0.499E-02-0.651E-04
CGA:   8    -0.369959238479E+03   -0.14485E-02   -0.14488E-02  6048   0.242E-02-0.103E-04
CGA:   9    -0.369959995656E+03   -0.75718E-03   -0.75828E-03  6048   0.960E-03-0.197E-04
CGA:  10    -0.369960300135E+03   -0.30448E-03   -0.30823E-03  6048   0.348E-03-0.595E-04
CGA:  11    -0.369960406445E+03   -0.10631E-03   -0.10819E-03  6048   0.137E-03-0.279E-04
CGA:  12    -0.369960454624E+03   -0.48178E-04   -0.49402E-04  6048   0.708E-04-0.989E-05
CGA:  13    -0.369960481812E+03   -0.27188E-04   -0.27184E-04  6048   0.346E-04-0.640E-08
CGA:  14    -0.369960489574E+03   -0.77620E-05   -0.82956E-05  6048   0.118E-04 0.133E-04
  26 F= -.36996049E+03 E0= -.36996049E+03  d E =-.118910E-01  mag=    20.0000
       N       E                     dE             d eps       ncg     rms          ort
SDA:   1    -0.359341052853E+03    0.10619E+02    0.00000E+00  6048   0.254E+02 0.000E+00
CGA:   2    -0.367711873003E+03   -0.83708E+01   -0.83699E+01  6048   0.101E+02 0.379E-02
CGA:   3    -0.369448765775E+03   -0.17369E+01   -0.17386E+01  6048   0.239E+01 0.695E-02
CGA:   4    -0.369836605970E+03   -0.38784E+00   -0.38819E+00  6048   0.482E+00 0.224E-02
CGA:   5    -0.369934760157E+03   -0.98154E-01   -0.98161E-01  6048   0.135E+00 0.506E-05
CGA:   6    -0.369961873467E+03   -0.27113E-01   -0.27100E-01  6048   0.401E-01-0.285E-03
CGA:   7    -0.369971992274E+03   -0.10119E-01   -0.10117E-01  6048   0.156E-01-0.244E-03
CGA:   8    -0.369976548672E+03   -0.45564E-02   -0.45578E-02  6048   0.750E-02-0.445E-04
CGA:   9    -0.369978859630E+03   -0.23110E-02   -0.23116E-02  6048   0.286E-02-0.147E-04
CGA:  10    -0.369979750803E+03   -0.89117E-03   -0.89667E-03  6048   0.975E-03-0.110E-03
CGA:  11    -0.369980054240E+03   -0.30344E-03   -0.30776E-03  6048   0.384E-03-0.701E-04
CGA:  12    -0.369980187811E+03   -0.13357E-03   -0.13518E-03  6048   0.191E-03-0.147E-04
CGA:  13    -0.369980264097E+03   -0.76286E-04   -0.75450E-04  6048   0.965E-04 0.608E-05
CGA:  14    -0.369980293908E+03   -0.29811E-04   -0.29441E-04  6048   0.320E-04 0.270E-04
CGA:  15    -0.369980305801E+03   -0.11893E-04   -0.11835E-04  6048   0.107E-04 0.870E-05
CGA:  16    -0.369980312042E+03   -0.62411E-05   -0.71135E-05  6048   0.878E-05-0.367E-05
  27 F= -.36998031E+03 E0= -.36998031E+03  d E =-.198225E-01  mag=    20.0000
       N       E                     dE             d eps       ncg     rms          ort
SDA:   1    -0.368714512471E+03    0.12658E+01    0.00000E+00  6048   0.350E+01 0.000E+00
CGA:   2    -0.369602468441E+03   -0.88796E+00   -0.88774E+00  6048   0.151E+01-0.785E-02
CGA:   3    -0.369884329498E+03   -0.28186E+00   -0.28198E+00  6048   0.471E+00 0.632E-03
CGA:   4    -0.369963309186E+03   -0.78980E-01   -0.79219E-01  6048   0.938E-01 0.197E-02
CGA:   5    -0.369981829203E+03   -0.18520E-01   -0.18586E-01  6048   0.276E-01 0.799E-03
CGA:   6    -0.369987627259E+03   -0.57981E-02   -0.58108E-02  6048   0.933E-02 0.193E-03
CGA:   7    -0.369990193167E+03   -0.25659E-02   -0.25662E-02  6048   0.413E-02-0.660E-04
CGA:   8    -0.369991368523E+03   -0.11754E-02   -0.11765E-02  6048   0.188E-02-0.636E-04
CGA:   9    -0.369991918630E+03   -0.55011E-03   -0.54917E-03  6048   0.680E-03 0.353E-04
CGA:  10    -0.369992118738E+03   -0.20011E-03   -0.19933E-03  6048   0.241E-03 0.463E-04
CGA:  11    -0.369992201552E+03   -0.82814E-04   -0.82076E-04  6048   0.106E-03 0.156E-04
CGA:  12    -0.369992249820E+03   -0.48267E-04   -0.50907E-04  6048   0.770E-04-0.151E-04
CGA:  13    -0.369992271197E+03   -0.21377E-04   -0.45180E-04  6048   0.107E-03-0.595E-04
CGA:  14    -0.369992294378E+03   -0.23181E-04   -0.24135E-04  6048   0.136E-04 0.123E-04
CGA:  15    -0.369992300963E+03   -0.65848E-05   -0.69698E-05  6048   0.571E-05-0.240E-05
  28 F= -.36999230E+03 E0= -.36999230E+03  d E =-.119889E-01  mag=    20.0000
       N       E                     dE             d eps       ncg     rms          ort
SDA:   1    -0.367008317961E+03    0.29840E+01    0.00000E+00  6048   0.744E+01 0.000E+00
CGA:   2    -0.369210071994E+03   -0.22018E+01   -0.22018E+01  6048   0.344E+01 0.122E-01
CGA:   3    -0.369804565455E+03   -0.59449E+00   -0.59462E+00  6048   0.852E+00-0.181E-02
CGA:   4    -0.369943711701E+03   -0.13915E+00   -0.13884E+00  6048   0.163E+00-0.262E-02
CGA:   5    -0.369976035046E+03   -0.32323E-01   -0.32256E-01  6048   0.471E-01-0.809E-03
CGA:   6    -0.369985405958E+03   -0.93709E-02   -0.93795E-02  6048   0.137E-01 0.844E-04
CGA:   7    -0.369988805321E+03   -0.33994E-02   -0.34071E-02  6048   0.520E-02 0.259E-03
CGA:   8    -0.369990345346E+03   -0.15400E-02   -0.15393E-02  6048   0.249E-02 0.558E-04
CGA:   9    -0.369991183526E+03   -0.83818E-03   -0.84571E-03  6048   0.111E-02-0.131E-03
CGA:  10    -0.369991512660E+03   -0.32913E-03   -0.33141E-03  6048   0.403E-03-0.679E-04
CGA:  11    -0.369991624745E+03   -0.11209E-03   -0.11197E-03  6048   0.140E-03 0.842E-05
CGA:  12    -0.369991674780E+03   -0.50035E-04   -0.49389E-04  6048   0.666E-04 0.102E-04
CGA:  13    -0.369991699244E+03   -0.24464E-04   -0.23752E-04  6048   0.307E-04 0.153E-04
CGA:  14    -0.369991712481E+03   -0.13236E-04   -0.12887E-04  6048   0.127E-04 0.660E-05
CGA:  15    -0.369991719124E+03   -0.66435E-05   -0.69569E-05  6048   0.671E-05-0.199E-05
  29 F= -.36999172E+03 E0= -.36999172E+03  d E =0.581839E-03  mag=    20.0000
       N       E                     dE             d eps       ncg     rms          ort
SDA:   1    -0.369965500123E+03    0.26212E-01    0.00000E+00  6048   0.969E-01 0.000E+00
CGA:   2    -0.369986266475E+03   -0.20766E-01   -0.20678E-01  6048   0.419E-01-0.116E-02
CGA:   3    -0.369994073765E+03   -0.78073E-02   -0.78583E-02  6048   0.135E-01 0.485E-03
CGA:   4    -0.369996331161E+03   -0.22574E-02   -0.23110E-02  6048   0.254E-02 0.461E-03
CGA:   5    -0.369996822935E+03   -0.49177E-03   -0.49558E-03  6048   0.736E-03 0.414E-04
CGA:   6    -0.369996982671E+03   -0.15974E-03   -0.15957E-03  6048   0.239E-03-0.297E-05
CGA:   7    -0.369997039869E+03   -0.57199E-04   -0.57728E-04  6048   0.977E-04 0.179E-04
CGA:   8    -0.369997067714E+03   -0.27845E-04   -0.27905E-04  6048   0.433E-04 0.140E-04
CGA:   9    -0.369997083279E+03   -0.15565E-04   -0.15330E-04  6048   0.207E-04 0.587E-05
CGA:  10    -0.369997091329E+03   -0.80499E-05   -0.80546E-05  6048   0.108E-04-0.717E-07
  30 F= -.36999709E+03 E0= -.36999709E+03  d E =-.537220E-02  mag=    20.0000
       N       E                     dE             d eps       ncg     rms          ort
SDA:   1    -0.369706275652E+03    0.29081E+00    0.00000E+00  6048   0.822E+00 0.000E+00
CGA:   2    -0.369911317094E+03   -0.20504E+00   -0.20495E+00  6048   0.413E+00-0.297E-02
CGA:   3    -0.369985405367E+03   -0.74088E-01   -0.74227E-01  6048   0.110E+00 0.108E-02
CGA:   4    -0.370003251701E+03   -0.17846E-01   -0.17971E-01  6048   0.193E-01 0.101E-02
CGA:   5    -0.370006967547E+03   -0.37158E-02   -0.37246E-02  6048   0.543E-02 0.974E-04
CGA:   6    -0.370008106457E+03   -0.11389E-02   -0.11359E-02  6048   0.160E-02-0.497E-04
CGA:   7    -0.370008501059E+03   -0.39460E-03   -0.39447E-03  6048   0.635E-03-0.752E-05
CGA:   8    -0.370008678243E+03   -0.17718E-03   -0.17689E-03  6048   0.293E-03 0.236E-04
CGA:   9    -0.370008775074E+03   -0.96830E-04   -0.96005E-04  6048   0.129E-03 0.172E-04
CGA:  10    -0.370008821709E+03   -0.46635E-04   -0.47089E-04  6048   0.599E-04-0.618E-05
CGA:  11    -0.370008842383E+03   -0.20675E-04   -0.21967E-04  6048   0.325E-04-0.116E-04
CGA:  12    -0.370008852141E+03   -0.97572E-05   -0.10448E-04  6048   0.166E-04-0.579E-05
  31 F= -.37000885E+03 E0= -.37000885E+03  d E =-.117608E-01  mag=    20.0000
       N       E                     dE             d eps       ncg     rms          ort
SDA:   1    -0.358560959309E+03    0.11448E+02    0.00000E+00  6048   0.309E+02 0.000E+00
CGA:   2    -0.366483206300E+03   -0.79222E+01   -0.79254E+01  6048   0.150E+02 0.226E-01
CGA:   3    -0.369179219704E+03   -0.26960E+01   -0.26980E+01  6048   0.399E+01 0.162E-01
CGA:   4    -0.369834969494E+03   -0.65575E+00   -0.65631E+00  6048   0.731E+00 0.340E-02
CGA:   5    -0.369974341921E+03   -0.13937E+00   -0.13936E+00  6048   0.209E+00-0.449E-03
CGA:   6    -0.370017040653E+03   -0.42699E-01   -0.42696E-01  6048   0.607E-01-0.142E-03
CGA:   7    -0.370032224400E+03   -0.15184E-01   -0.15188E-01  6048   0.241E-01 0.189E-03
CGA:   8    -0.370039224653E+03   -0.70003E-02   -0.69956E-02  6048   0.115E-01 0.226E-03
CGA:   9    -0.370043022459E+03   -0.37978E-02   -0.37996E-02  6048   0.513E-02-0.353E-04
CGA:  10    -0.370044667758E+03   -0.16453E-02   -0.16536E-02  6048   0.207E-02-0.167E-03
CGA:  11    -0.370045318805E+03   -0.65105E-03   -0.65313E-03  6048   0.842E-03-0.413E-04
CGA:  12    -0.370045637598E+03   -0.31879E-03   -0.32418E-03  6048   0.448E-03-0.471E-04
CGA:  13    -0.370045795553E+03   -0.15795E-03   -0.15576E-03  6048   0.188E-03 0.258E-04
CGA:  14    -0.370045855636E+03   -0.60083E-04   -0.59620E-04  6048   0.574E-04 0.366E-04
CGA:  15    -0.370045878589E+03   -0.22953E-04   -0.22745E-04  6048   0.188E-04 0.478E-05
CGA:  16    -0.370045886512E+03   -0.79232E-05   -0.13144E-04  6048   0.236E-04-0.147E-04
  32 F= -.37004589E+03 E0= -.37004589E+03  d E =-.370344E-01  mag=    20.0000
       N       E                     dE             d eps       ncg     rms          ort
SDA:   1    -0.368354811543E+03    0.16911E+01    0.00000E+00  6048   0.433E+01 0.000E+00
CGA:   2    -0.369545740410E+03   -0.11909E+01   -0.11912E+01  6048   0.221E+01 0.607E-02
CGA:   3    -0.369927546774E+03   -0.38181E+00   -0.38181E+00  6048   0.546E+00-0.182E-02
CGA:   4    -0.370019183411E+03   -0.91637E-01   -0.91420E-01  6048   0.106E+00-0.177E-02
CGA:   5    -0.370039503430E+03   -0.20320E-01   -0.20351E-01  6048   0.307E-01 0.283E-03
CGA:   6    -0.370045728664E+03   -0.62252E-02   -0.62679E-02  6048   0.895E-02 0.503E-03
CGA:   7    -0.370048024829E+03   -0.22962E-02   -0.22987E-02  6048   0.346E-02 0.798E-04
CGA:   8    -0.370049050359E+03   -0.10255E-02   -0.10268E-02  6048   0.165E-02-0.102E-03
CGA:   9    -0.370049546069E+03   -0.49571E-03   -0.49676E-03  6048   0.639E-03-0.365E-04
CGA:  10    -0.370049717255E+03   -0.17119E-03   -0.17160E-03  6048   0.202E-03 0.475E-04
CGA:  11    -0.370049772687E+03   -0.55432E-04   -0.56386E-04  6048   0.703E-04 0.413E-04
CGA:  12    -0.370049802926E+03   -0.30239E-04   -0.29807E-04  6048   0.418E-04 0.612E-05
CGA:  13    -0.370049823320E+03   -0.20394E-04   -0.22013E-04  6048   0.340E-04-0.816E-05
CGA:  14    -0.370049833852E+03   -0.10531E-04   -0.11952E-04  6048   0.188E-04-0.100E-04
CGA:  15    -0.370049809606E+03    0.24246E-04   -0.15655E-04  6048   0.113E-03-0.454E-04
CGA:  16    -0.370049829573E+03   -0.19967E-04   -0.23883E-04  6048   0.161E-04 0.288E-04
CGA:  17    -0.370049835693E+03   -0.61204E-05   -0.62272E-05  6048   0.752E-05 0.343E-05
  33 F= -.37004984E+03 E0= -.37004984E+03  d E =-.394918E-02  mag=    20.0000
       N       E                     dE             d eps       ncg     rms          ort
SDA:   1    -0.369154041803E+03    0.89579E+00    0.00000E+00  6048   0.237E+01 0.000E+00
CGA:   2    -0.369756717329E+03   -0.60268E+00   -0.60319E+00  6048   0.118E+01 0.464E-02
CGA:   3    -0.369969140743E+03   -0.21242E+00   -0.21228E+00  6048   0.317E+00-0.178E-02
CGA:   4    -0.370021863058E+03   -0.52722E-01   -0.52507E-01  6048   0.586E-01-0.147E-02
CGA:   5    -0.370032831967E+03   -0.10969E-01   -0.10980E-01  6048   0.165E-01 0.720E-04
CGA:   6    -0.370036166356E+03   -0.33344E-02   -0.33571E-02  6048   0.472E-02 0.211E-03
CGA:   7    -0.370037363198E+03   -0.11968E-02   -0.11982E-02  6048   0.188E-02 0.231E-04
CGA:   8    -0.370037920959E+03   -0.55776E-03   -0.55761E-03  6048   0.921E-03-0.360E-04
CGA:   9    -0.370038217103E+03   -0.29614E-03   -0.29712E-03  6048   0.413E-03-0.338E-04
CGA:  10    -0.370038333944E+03   -0.11684E-03   -0.11694E-03  6048   0.145E-03 0.146E-04
CGA:  11    -0.370038373214E+03   -0.39270E-04   -0.40180E-04  6048   0.515E-04 0.267E-04
CGA:  12    -0.370038394292E+03   -0.21078E-04   -0.20834E-04  6048   0.287E-04 0.572E-05
CGA:  13    -0.370038407906E+03   -0.13614E-04   -0.13890E-04  6048   0.189E-04-0.208E-05
CGA:  14    -0.370038414435E+03   -0.65293E-05   -0.66489E-05  6048   0.782E-05-0.168E-05
CGA:  15    -0.370038390500E+03    0.23935E-04   -0.10898E-04  6048   0.103E-03-0.286E-04
CGA:  16    -0.370038410113E+03   -0.19613E-04   -0.22773E-04  6048   0.113E-04 0.208E-04
CGA:  17    -0.370038415907E+03   -0.57937E-05   -0.59897E-05  6048   0.596E-05-0.261E-05
  34 F= -.37003842E+03 E0= -.37003842E+03  d E =0.114198E-01  mag=    20.0000
       N       E                     dE             d eps       ncg     rms          ort
SDA:   1    -0.369973920990E+03    0.64489E-01    0.00000E+00  6048   0.165E+00 0.000E+00
CGA:   2    -0.370021929574E+03   -0.48009E-01   -0.48001E-01  6048   0.874E-01-0.195E-03
CGA:   3    -0.370036166353E+03   -0.14237E-01   -0.14222E-01  6048   0.192E-01-0.136E-03
CGA:   4    -0.370039497676E+03   -0.33313E-02   -0.33364E-02  6048   0.410E-02 0.244E-04
CGA:   5    -0.370040290364E+03   -0.79269E-03   -0.78842E-03  6048   0.120E-02-0.310E-04
CGA:   6    -0.370040552308E+03   -0.26194E-03   -0.25601E-03  6048   0.388E-03-0.523E-04
CGA:   7    -0.370040645268E+03   -0.92960E-04   -0.91994E-04  6048   0.147E-03-0.128E-04
CGA:   8    -0.370040678629E+03   -0.33361E-04   -0.34456E-04  6048   0.508E-04 0.141E-04
CGA:   9    -0.370040694518E+03   -0.15889E-04   -0.16013E-04  6048   0.184E-04 0.434E-05
CGA:  10    -0.370040702206E+03   -0.76878E-05   -0.96625E-05  6048   0.215E-04-0.117E-04
  35 F= -.37004070E+03 E0= -.37004070E+03  d E =-.228630E-02  mag=    20.0000
       N       E                     dE             d eps       ncg     rms          ort
SDA:   1    -0.370021043642E+03    0.19651E-01    0.00000E+00  6048   0.507E-01 0.000E+00
CGA:   2    -0.370037105068E+03   -0.16061E-01   -0.16062E-01  6048   0.196E-01-0.104E-03
CGA:   3    -0.370040655672E+03   -0.35506E-02   -0.35685E-02  6048   0.505E-02 0.124E-03
CGA:   4    -0.370041466655E+03   -0.81098E-03   -0.81263E-03  6048   0.104E-02 0.932E-05
CGA:   5    -0.370041690380E+03   -0.22372E-03   -0.22066E-03  6048   0.317E-03-0.343E-04
CGA:   6    -0.370041749208E+03   -0.58828E-04   -0.59354E-04  6048   0.957E-04 0.496E-05
CGA:   7    -0.370041770441E+03   -0.21233E-04   -0.21976E-04  6048   0.324E-04 0.113E-04
CGA:   8    -0.370041781664E+03   -0.11223E-04   -0.11240E-04  6048   0.189E-04-0.765E-06
CGA:   9    -0.370041786897E+03   -0.52333E-05   -0.52372E-05  6048   0.728E-05 0.687E-06
  36 F= -.37004179E+03 E0= -.37004179E+03  d E =-.108469E-02  mag=    20.0000
       N       E                     dE             d eps       ncg     rms          ort
SDA:   1    -0.370012307756E+03    0.29474E-01    0.00000E+00  6048   0.796E-01 0.000E+00
CGA:   2    -0.370035371512E+03   -0.23064E-01   -0.23063E-01  6048   0.392E-01-0.517E-03
CGA:   3    -0.370041924077E+03   -0.65526E-02   -0.65601E-02  6048   0.918E-02 0.378E-04
CGA:   4    -0.370043404522E+03   -0.14804E-02   -0.14940E-02  6048   0.172E-02 0.109E-03
CGA:   5    -0.370043737136E+03   -0.33261E-03   -0.33297E-03  6048   0.500E-03 0.368E-05
CGA:   6    -0.370043839474E+03   -0.10234E-03   -0.10182E-03  6048   0.142E-03-0.744E-05
CGA:   7    -0.370043874262E+03   -0.34787E-04   -0.34734E-04  6048   0.555E-04-0.239E-05
CGA:   8    -0.370043890763E+03   -0.16501E-04   -0.16615E-04  6048   0.284E-04-0.328E-05
CGA:   9    -0.370043898774E+03   -0.80110E-05   -0.79824E-05  6048   0.107E-04 0.104E-05
  37 F= -.37004390E+03 E0= -.37004390E+03  d E =-.211188E-02  mag=    20.0000
       N       E                     dE             d eps       ncg     rms          ort
SDA:   1    -0.368658486980E+03    0.13854E+01    0.00000E+00  6048   0.353E+01 0.000E+00
CGA:   2    -0.369620550177E+03   -0.96206E+00   -0.96207E+00  6048   0.194E+01 0.235E-02
CGA:   3    -0.369945547719E+03   -0.32500E+00   -0.32497E+00  6048   0.428E+00-0.165E-02
CGA:   4    -0.370017494597E+03   -0.71947E-01   -0.71851E-01  6048   0.844E-01-0.106E-02
CGA:   5    -0.370033110420E+03   -0.15616E-01   -0.15609E-01  6048   0.234E-01-0.114E-03
CGA:   6    -0.370037895976E+03   -0.47856E-02   -0.47904E-02  6048   0.648E-02 0.801E-04
CGA:   7    -0.370039426344E+03   -0.15304E-02   -0.15307E-02  6048   0.231E-02 0.137E-04
CGA:   8    -0.370040088304E+03   -0.66196E-03   -0.66209E-03  6048   0.104E-02-0.487E-05
CGA:   9    -0.370040414672E+03   -0.32637E-03   -0.32780E-03  6048   0.431E-03-0.250E-04
CGA:  10    -0.370040549540E+03   -0.13487E-03   -0.13684E-03  6048   0.163E-03-0.309E-04
CGA:  11    -0.370040592684E+03   -0.43144E-04   -0.43027E-04  6048   0.516E-04 0.562E-05
CGA:  12    -0.370040608885E+03   -0.16201E-04   -0.15924E-04  6048   0.210E-04 0.826E-05
CGA:  13    -0.370040618339E+03   -0.94544E-05   -0.92223E-05  6048   0.125E-04 0.205E-05
  38 F= -.37004062E+03 E0= -.37004062E+03  d E =0.328043E-02  mag=    20.0000
       N       E                     dE             d eps       ncg     rms          ort
SDA:   1    -0.368310292492E+03    0.17303E+01    0.00000E+00  6048   0.434E+01 0.000E+00
CGA:   2    -0.369547958329E+03   -0.12377E+01   -0.12376E+01  6048   0.221E+01 0.368E-02
CGA:   3    -0.369919330181E+03   -0.37137E+00   -0.37129E+00  6048   0.510E+00-0.237E-02
CGA:   4    -0.370004267680E+03   -0.84937E-01   -0.84809E-01  6048   0.984E-01-0.135E-02
CGA:   5    -0.370022947700E+03   -0.18680E-01   -0.18682E-01  6048   0.281E-01 0.101E-05
CGA:   6    -0.370028635338E+03   -0.56876E-02   -0.56980E-02  6048   0.774E-02 0.163E-03
CGA:   7    -0.370030522450E+03   -0.18871E-02   -0.18872E-02  6048   0.292E-02 0.229E-05
CGA:   8    -0.370031370920E+03   -0.84847E-03   -0.84872E-03  6048   0.136E-02-0.836E-05
CGA:   9    -0.370031801390E+03   -0.43047E-03   -0.43180E-03  6048   0.566E-03-0.238E-04
CGA:  10    -0.370031980521E+03   -0.17913E-03   -0.18125E-03  6048   0.214E-03-0.341E-04
CGA:  11    -0.370032034838E+03   -0.54317E-04   -0.54258E-04  6048   0.678E-04 0.214E-04
CGA:  12    -0.370032058121E+03   -0.23283E-04   -0.22822E-04  6048   0.311E-04 0.117E-04
CGA:  13    -0.370032073798E+03   -0.15677E-04   -0.15909E-04  6048   0.231E-04-0.141E-05
CGA:  14    -0.370032080768E+03   -0.69695E-05   -0.68412E-05  6048   0.964E-05 0.383E-05
  39 F= -.37003208E+03 E0= -.37003208E+03  d E =0.853757E-02  mag=    20.0000
       N       E                     dE             d eps       ncg     rms          ort
SDA:   1    -0.368800452626E+03    0.12316E+01    0.00000E+00  6048   0.329E+01 0.000E+00
CGA:   2    -0.369644227016E+03   -0.84377E+00   -0.84379E+00  6048   0.180E+01-0.199E-02
CGA:   3    -0.369954292707E+03   -0.31007E+00   -0.31036E+00  6048   0.431E+00 0.185E-02
CGA:   4    -0.370025762138E+03   -0.71469E-01   -0.71616E-01  6048   0.816E-01 0.124E-02
CGA:   5    -0.370040836122E+03   -0.15074E-01   -0.15101E-01  6048   0.226E-01 0.299E-03
CGA:   6    -0.370045525841E+03   -0.46897E-02   -0.46903E-02  6048   0.640E-02 0.116E-05
CGA:   7    -0.370047071428E+03   -0.15456E-02   -0.15448E-02  6048   0.236E-02-0.453E-04
CGA:   8    -0.370047727682E+03   -0.65625E-03   -0.65542E-03  6048   0.104E-02 0.416E-04
CGA:   9    -0.370048056249E+03   -0.32857E-03   -0.32680E-03  6048   0.428E-03 0.366E-04
CGA:  10    -0.370048201711E+03   -0.14546E-03   -0.14652E-03  6048   0.180E-03-0.159E-04
CGA:  11    -0.370048256749E+03   -0.55039E-04   -0.55134E-04  6048   0.695E-04-0.190E-05
CGA:  12    -0.370048285030E+03   -0.28281E-04   -0.34051E-04  6048   0.615E-04-0.255E-04
CGA:  13    -0.370048298183E+03   -0.13152E-04   -0.13365E-04  6048   0.308E-04-0.341E-05
CGA:  14    -0.370048304231E+03   -0.60486E-05   -0.64661E-05  6048   0.112E-04 0.675E-05
  40 F= -.37004830E+03 E0= -.37004830E+03  d E =-.162235E-01  mag=    20.0000
       N       E                     dE             d eps       ncg     rms          ort
SDA:   1    -0.369251277177E+03    0.79702E+00    0.00000E+00  6048   0.208E+01 0.000E+00
CGA:   2    -0.369824297253E+03   -0.57302E+00   -0.57302E+00  6048   0.106E+01-0.295E-02
CGA:   3    -0.370004701521E+03   -0.18040E+00   -0.18066E+00  6048   0.255E+00 0.181E-02
CGA:   4    -0.370046569340E+03   -0.41868E-01   -0.41991E-01  6048   0.474E-01 0.107E-02
CGA:   5    -0.370055624866E+03   -0.90555E-02   -0.90568E-02  6048   0.134E-01 0.121E-05
CGA:   6    -0.370058361561E+03   -0.27367E-02   -0.27307E-02  6048   0.376E-02-0.109E-03
CGA:   7    -0.370059270480E+03   -0.90892E-03   -0.90871E-03  6048   0.141E-02-0.144E-04
CGA:   8    -0.370059665559E+03   -0.39508E-03   -0.39422E-03  6048   0.637E-03 0.401E-04
CGA:   9    -0.370059873652E+03   -0.20809E-03   -0.20661E-03  6048   0.272E-03 0.265E-04
CGA:  10    -0.370059968990E+03   -0.95337E-04   -0.96557E-04  6048   0.120E-03-0.158E-04
CGA:  11    -0.370060008760E+03   -0.39770E-04   -0.41873E-04  6048   0.604E-04-0.203E-04
CGA:  12    -0.370060027948E+03   -0.19188E-04   -0.20744E-04  6048   0.336E-04-0.110E-04
CGA:  13    -0.370060036310E+03   -0.83625E-05   -0.82639E-05  6048   0.122E-04 0.456E-05
  41 F= -.37006004E+03 E0= -.37006004E+03  d E =-.117321E-01  mag=    20.0000
       N       E                     dE             d eps       ncg     rms          ort
SDA:   1    -0.369171923358E+03    0.88810E+00    0.00000E+00  6048   0.222E+01 0.000E+00
CGA:   2    -0.369805565923E+03   -0.63364E+00   -0.63360E+00  6048   0.114E+01 0.295E-02
CGA:   3    -0.369996821199E+03   -0.19126E+00   -0.19119E+00  6048   0.264E+00-0.143E-02
CGA:   4    -0.370040560513E+03   -0.43739E-01   -0.43648E-01  6048   0.502E-01-0.947E-03
CGA:   5    -0.370050071194E+03   -0.95107E-02   -0.95058E-02  6048   0.142E-01-0.807E-04
CGA:   6    -0.370052934890E+03   -0.28637E-02   -0.28682E-02  6048   0.389E-02 0.692E-04
CGA:   7    -0.370053875050E+03   -0.94016E-03   -0.94066E-03  6048   0.143E-02 0.258E-04
CGA:   8    -0.370054293972E+03   -0.41892E-03   -0.41864E-03  6048   0.671E-03 0.853E-05
CGA:   9    -0.370054514124E+03   -0.22015E-03   -0.22200E-03  6048   0.299E-03-0.268E-04
CGA:  10    -0.370054606868E+03   -0.92745E-04   -0.94279E-04  6048   0.115E-03-0.237E-04
CGA:  11    -0.370054634875E+03   -0.28007E-04   -0.28031E-04  6048   0.357E-04 0.119E-04
CGA:  12    -0.370054646774E+03   -0.11898E-04   -0.11700E-04  6048   0.162E-04 0.649E-05
CGA:  13    -0.370054654479E+03   -0.77056E-05   -0.76248E-05  6048   0.108E-04 0.605E-06
  42 F= -.37005465E+03 E0= -.37005465E+03  d E =0.538183E-02  mag=    20.0000
       N       E                     dE             d eps       ncg     rms          ort
SDA:   1    -0.368312268861E+03    0.17424E+01    0.00000E+00  6048   0.425E+01 0.000E+00
CGA:   2    -0.369612716608E+03   -0.13004E+01   -0.13003E+01  6048   0.195E+01 0.328E-02
CGA:   3    -0.369942620166E+03   -0.32990E+00   -0.32985E+00  6048   0.462E+00-0.197E-02
CGA:   4    -0.370017918650E+03   -0.75298E-01   -0.75213E-01  6048   0.882E-01-0.913E-03
CGA:   5    -0.370035259369E+03   -0.17341E-01   -0.17352E-01  6048   0.252E-01 0.128E-03
CGA:   6    -0.370040277280E+03   -0.50179E-02   -0.50292E-02  6048   0.695E-02 0.162E-03
CGA:   7    -0.370042018976E+03   -0.17417E-02   -0.17418E-02  6048   0.268E-02 0.847E-05
CGA:   8    -0.370042815867E+03   -0.79689E-03   -0.79725E-03  6048   0.131E-02-0.106E-04
CGA:   9    -0.370043232225E+03   -0.41636E-03   -0.41804E-03  6048   0.549E-03-0.292E-04
CGA:  10    -0.370043400578E+03   -0.16835E-03   -0.16934E-03  6048   0.194E-03-0.199E-04
CGA:  11    -0.370043451852E+03   -0.51273E-04   -0.51176E-04  6048   0.627E-04 0.207E-04
CGA:  12    -0.370043476467E+03   -0.24616E-04   -0.24242E-04  6048   0.329E-04 0.461E-05
CGA:  13    -0.370043492899E+03   -0.16432E-04   -0.18214E-04  6048   0.291E-04-0.736E-05
CGA:  14    -0.370043499731E+03   -0.68321E-05   -0.68063E-05  6048   0.120E-04 0.157E-05
  43 F= -.37004350E+03 E0= -.37004350E+03  d E =0.111547E-01  mag=    20.0000
       N       E                     dE             d eps       ncg     rms          ort
SDA:   1    -0.369460465966E+03    0.58303E+00    0.00000E+00  6048   0.153E+01 0.000E+00
CGA:   2    -0.369877489551E+03   -0.41702E+00   -0.41701E+00  6048   0.807E+00-0.209E-02
CGA:   3    -0.370014511044E+03   -0.13702E+00   -0.13720E+00  6048   0.191E+00 0.106E-02
CGA:   4    -0.370045965047E+03   -0.31454E-01   -0.31552E-01  6048   0.358E-01 0.790E-03
CGA:   5    -0.370052741634E+03   -0.67766E-02   -0.67894E-02  6048   0.101E-01 0.139E-03
CGA:   6    -0.370054824846E+03   -0.20832E-02   -0.20812E-02  6048   0.284E-02-0.347E-04
CGA:   7    -0.370055523106E+03   -0.69826E-03   -0.69754E-03  6048   0.108E-02-0.373E-04
CGA:   8    -0.370055825068E+03   -0.30196E-03   -0.30174E-03  6048   0.488E-03 0.126E-04
CGA:   9    -0.370055977646E+03   -0.15258E-03   -0.15168E-03  6048   0.197E-03 0.218E-04
CGA:  10    -0.370056044819E+03   -0.67173E-04   -0.67419E-04  6048   0.809E-04-0.429E-05
CGA:  11    -0.370056072076E+03   -0.27257E-04   -0.27910E-04  6048   0.371E-04-0.807E-05
CGA:  12    -0.370056085750E+03   -0.13674E-04   -0.16938E-04  6048   0.324E-04-0.141E-04
CGA:  13    -0.370056091919E+03   -0.61692E-05   -0.61582E-05  6048   0.144E-04 0.541E-06
  44 F= -.37005609E+03 E0= -.37005609E+03  d E =-.125922E-01  mag=    20.0000
       N       E                     dE             d eps       ncg     rms          ort
SDA:   1    -0.369868609024E+03    0.18748E+00    0.00000E+00  6048   0.494E+00 0.000E+00
CGA:   2    -0.370005539653E+03   -0.13693E+00   -0.13692E+00  6048   0.260E+00-0.174E-02
CGA:   3    -0.370049107152E+03   -0.43567E-01   -0.43686E-01  6048   0.607E-01 0.884E-03
CGA:   4    -0.370059042475E+03   -0.99353E-02   -0.10010E-01  6048   0.113E-01 0.642E-03
CGA:   5    -0.370061235455E+03   -0.21930E-02   -0.21941E-02  6048   0.324E-02 0.103E-04
CGA:   6    -0.370061925881E+03   -0.69043E-03   -0.68502E-03  6048   0.959E-03-0.962E-04
CGA:   7    -0.370062153666E+03   -0.22778E-03   -0.22749E-03  6048   0.361E-03-0.147E-04
CGA:   8    -0.370062244750E+03   -0.91084E-04   -0.91304E-04  6048   0.141E-03 0.316E-04
CGA:   9    -0.370062291269E+03   -0.46519E-04   -0.46004E-04  6048   0.576E-04 0.144E-04
CGA:  10    -0.370062315012E+03   -0.23743E-04   -0.26109E-04  6048   0.409E-04-0.163E-04
CGA:  11    -0.370062324622E+03   -0.96095E-05   -0.10732E-04  6048   0.225E-04-0.121E-04
  45 F= -.37006232E+03 E0= -.37006232E+03  d E =-.623270E-02  mag=    20.0000
       N       E                     dE             d eps       ncg     rms          ort
SDA:   1    -0.369927051844E+03    0.13526E+00    0.00000E+00  6048   0.321E+00 0.000E+00
CGA:   2    -0.370035972685E+03   -0.10892E+00   -0.10892E+00  6048   0.114E+00-0.102E-03
CGA:   3    -0.370056556180E+03   -0.20583E-01   -0.20579E-01  6048   0.269E-01-0.105E-03
CGA:   4    -0.370060817246E+03   -0.42611E-02   -0.42624E-02  6048   0.577E-02 0.225E-05
CGA:   5    -0.370062002110E+03   -0.11849E-02   -0.11852E-02  6048   0.152E-02 0.357E-05
CGA:   6    -0.370062309716E+03   -0.30761E-03   -0.30732E-03  6048   0.456E-03-0.484E-05
CGA:   7    -0.370062424892E+03   -0.11518E-03   -0.11517E-03  6048   0.175E-03-0.366E-06
CGA:   8    -0.370062474130E+03   -0.49239E-04   -0.49056E-04  6048   0.756E-04 0.113E-04
CGA:   9    -0.370062500509E+03   -0.26379E-04   -0.26659E-04  6048   0.341E-04-0.428E-05
CGA:  10    -0.370062511668E+03   -0.11160E-04   -0.12144E-04  6048   0.162E-04-0.904E-05
CGA:  11    -0.370062513093E+03   -0.14249E-05   -0.19310E-05  6048   0.611E-05 0.451E-05
  46 F= -.37006251E+03 E0= -.37006251E+03  d E =-.188472E-03  mag=    20.0000
       N       E                     dE             d eps       ncg     rms          ort
SDA:   1    -0.369299007722E+03    0.76350E+00    0.00000E+00  6048   0.179E+01 0.000E+00
CGA:   2    -0.369926741057E+03   -0.62773E+00   -0.62783E+00  6048   0.558E+00-0.126E-02
CGA:   3    -0.370033300064E+03   -0.10656E+00   -0.10658E+00  6048   0.126E+00 0.769E-05
CGA:   4    -0.370053608213E+03   -0.20308E-01   -0.20329E-01  6048   0.297E-01 0.162E-03
CGA:   5    -0.370059653462E+03   -0.60452E-02   -0.60511E-02  6048   0.721E-02 0.104E-03
CGA:   6    -0.370061149832E+03   -0.14964E-02   -0.14966E-02  6048   0.236E-02 0.149E-05
CGA:   7    -0.370061746227E+03   -0.59639E-03   -0.59638E-03  6048   0.933E-03-0.477E-04
CGA:   8    -0.370062019082E+03   -0.27286E-03   -0.27246E-03  6048   0.431E-03 0.861E-05
CGA:   9    -0.370062145743E+03   -0.12666E-03   -0.12629E-03  6048   0.151E-03 0.104E-04
CGA:  10    -0.370062197283E+03   -0.51540E-04   -0.53393E-04  6048   0.573E-04-0.212E-04
CGA:  11    -0.370062208345E+03   -0.11062E-04   -0.11355E-04  6048   0.165E-04 0.960E-05
CGA:  12    -0.370062214411E+03   -0.60664E-05   -0.60902E-05  6048   0.904E-05-0.429E-06
CGA:  13    -0.370062219380E+03   -0.49690E-05    0.15290E-04  6048   0.496E-05 0.275E-05
  47 F= -.37006222E+03 E0= -.37006222E+03  d E =0.293713E-03  mag=    20.0000
       N       E                     dE             d eps       ncg     rms          ort
SDA:   1    -0.366152078057E+03    0.39101E+01    0.00000E+00  6048   0.917E+01 0.000E+00
CGA:   2    -0.369365586620E+03   -0.32135E+01   -0.32141E+01  6048   0.305E+01-0.798E-02
CGA:   3    -0.369908753515E+03   -0.54317E+00   -0.54358E+00  6048   0.713E+00 0.217E-02
CGA:   4    -0.370024643769E+03   -0.11589E+00   -0.11600E+00  6048   0.157E+00 0.810E-03
CGA:   5    -0.370056712677E+03   -0.32069E-01   -0.32073E-01  6048   0.410E-01 0.459E-04
CGA:   6    -0.370064878245E+03   -0.81656E-02   -0.81676E-02  6048   0.123E-01 0.184E-04
CGA:   7    -0.370068031905E+03   -0.31537E-02   -0.31536E-02  6048   0.485E-02-0.137E-03
CGA:   8    -0.370069446349E+03   -0.14144E-02   -0.14156E-02  6048   0.229E-02-0.317E-04
CGA:   9    -0.370070103157E+03   -0.65681E-03   -0.65453E-03  6048   0.770E-03 0.748E-04
CGA:  10    -0.370070353792E+03   -0.25064E-03   -0.25427E-03  6048   0.254E-03-0.602E-04
CGA:  11    -0.370070424470E+03   -0.70677E-04   -0.71320E-04  6048   0.818E-04-0.152E-04
CGA:  12    -0.370070451841E+03   -0.27371E-04   -0.28086E-04  6048   0.382E-04-0.711E-05
CGA:  13    -0.370070449370E+03    0.24710E-05   -0.35427E-04  6048   0.153E-03-0.508E-04
CGA:  14    -0.370070473382E+03   -0.24012E-04   -0.28418E-04  6048   0.170E-04 0.365E-04
CGA:  15    -0.370070480367E+03   -0.69856E-05   -0.71045E-05  6048   0.622E-05-0.320E-05
  48 F= -.37007048E+03 E0= -.37007048E+03  d E =-.826099E-02  mag=    20.0000
       N       E                     dE             d eps       ncg     rms          ort
SDA:   1    -0.358473385600E+03    0.11597E+02    0.00000E+00  6048   0.264E+02 0.000E+00
CGA:   2    -0.366234922406E+03   -0.77615E+01   -0.77623E+01  6048   0.102E+02 0.513E-01
CGA:   3    -0.368177335719E+03   -0.19424E+01   -0.19451E+01  6048   0.352E+01 0.124E-01
CGA:   4    -0.368802505986E+03   -0.62517E+00   -0.62578E+00  6048   0.779E+00 0.360E-02
CGA:   5    -0.368965211834E+03   -0.16271E+00   -0.16252E+00  6048   0.259E+00-0.269E-02
CGA:   6    -0.369021414217E+03   -0.56202E-01   -0.56141E-01  6048   0.985E-01-0.106E-02
CGA:   7    -0.369047299724E+03   -0.25886E-01   -0.25892E-01  6048   0.377E-01 0.331E-03
CGA:   8    -0.369057267369E+03   -0.99676E-02   -0.99769E-02  6048   0.144E-01 0.531E-03
CGA:   9    -0.369061402650E+03   -0.41353E-02   -0.41349E-02  6048   0.443E-02 0.959E-04
CGA:  10    -0.369062768847E+03   -0.13662E-02   -0.13718E-02  6048   0.156E-02-0.207E-03
CGA:  11    -0.369063230992E+03   -0.46214E-03   -0.46683E-03  6048   0.550E-03-0.146E-03
CGA:  12    -0.369063404398E+03   -0.17341E-03   -0.17569E-03  6048   0.229E-03-0.333E-04
CGA:  13    -0.369063486937E+03   -0.82538E-04   -0.83508E-04  6048   0.111E-03-0.964E-05
CGA:  14    -0.369063500773E+03   -0.13837E-04   -0.19641E-04  6048   0.494E-04 0.543E-04
CGA:  15    -0.369063511013E+03   -0.10239E-04   -0.13235E-04  6048   0.204E-04 0.280E-04
CGA:  16    -0.369063530095E+03   -0.19082E-04    0.43215E-05  6048   0.101E-04 0.910E-05
CGA:  17    -0.369063530478E+03   -0.38288E-06   -0.20127E-05  6048   0.700E-05 0.113E-04
  49 F= -.36906353E+03 E0= -.36906353E+03  d E =0.100695E+01  mag=    20.0000
       N       E                     dE             d eps       ncg     rms          ort
SDA:   1    -0.368079005166E+03    0.98452E+00    0.00000E+00  6048   0.424E+01 0.000E+00
CGA:   2    -0.369327837554E+03   -0.12488E+01   -0.12493E+01  6048   0.136E+01-0.136E-01
CGA:   3    -0.369660323738E+03   -0.33249E+00   -0.33251E+00  6048   0.333E+00 0.698E-03
CGA:   4    -0.369721899305E+03   -0.61576E-01   -0.61671E-01  6048   0.108E+00 0.109E-02
CGA:   5    -0.369743126700E+03   -0.21227E-01   -0.21304E-01  6048   0.287E-01 0.117E-02
CGA:   6    -0.369750411532E+03   -0.72848E-02   -0.72884E-02  6048   0.136E-01 0.492E-03
CGA:   7    -0.369753827879E+03   -0.34163E-02   -0.34137E-02  6048   0.513E-02-0.233E-03
CGA:   8    -0.369755333202E+03   -0.15053E-02   -0.15147E-02  6048   0.208E-02-0.221E-03
CGA:   9    -0.369755820067E+03   -0.48687E-03   -0.48858E-03  6048   0.592E-03 0.115E-03
CGA:  10    -0.369755995743E+03   -0.17568E-03   -0.17472E-03  6048   0.191E-03 0.460E-04
CGA:  11    -0.369756056659E+03   -0.60916E-04   -0.60233E-04  6048   0.768E-04 0.211E-04
CGA:  12    -0.369756077899E+03   -0.21240E-04   -0.21504E-04  6048   0.332E-04 0.268E-04
CGA:  13    -0.369756094722E+03   -0.16823E-04   -0.30284E-04  6048   0.838E-04-0.325E-04
CGA:  14    -0.369756120847E+03   -0.26125E-04   -0.27697E-04  6048   0.271E-04-0.324E-04
CGA:  15    -0.369756119920E+03    0.92750E-06   -0.14869E-05  6048   0.159E-04 0.124E-04
  50 F= -.36975612E+03 E0= -.36975612E+03  d E =-.692589E+00  mag=    20.0000
       N       E                     dE             d eps       ncg     rms          ort
SDA:   1    -0.369285582363E+03    0.47054E+00    0.00000E+00  6048   0.177E+01 0.000E+00
CGA:   2    -0.369839817138E+03   -0.55423E+00   -0.55446E+00  6048   0.540E+00-0.451E-02
CGA:   3    -0.369974721144E+03   -0.13490E+00   -0.13491E+00  6048   0.125E+00 0.121E-03
CGA:   4    -0.369999108873E+03   -0.24388E-01   -0.24440E-01  6048   0.431E-01 0.722E-03
CGA:   5    -0.370007260119E+03   -0.81512E-02   -0.81922E-02  6048   0.114E-01 0.552E-03
CGA:   6    -0.370010388698E+03   -0.31286E-02   -0.31267E-02  6048   0.536E-02 0.173E-03
CGA:   7    -0.370011718521E+03   -0.13298E-02   -0.13276E-02  6048   0.213E-02-0.143E-03
CGA:   8    -0.370012323652E+03   -0.60513E-03   -0.60758E-03  6048   0.797E-03-0.716E-04
CGA:   9    -0.370012511531E+03   -0.18788E-03   -0.18863E-03  6048   0.232E-03 0.482E-04
CGA:  10    -0.370012582798E+03   -0.71268E-04   -0.71040E-04  6048   0.740E-04 0.773E-05
CGA:  11    -0.370012600760E+03   -0.17962E-04   -0.18376E-04  6048   0.254E-04 0.198E-04
CGA:  12    -0.370012607364E+03   -0.66039E-05   -0.70790E-05  6048   0.116E-04 0.117E-04
CGA:  13    -0.370012590016E+03    0.17348E-04   -0.21698E-04  6048   0.131E-03-0.383E-04
CGA:  14    -0.370012619938E+03   -0.29922E-04   -0.30646E-04  6048   0.142E-04 0.961E-05
CGA:  15    -0.370012622453E+03   -0.25154E-05   -0.31741E-05  6048   0.435E-05 0.673E-05
  51 F= -.37001262E+03 E0= -.37001262E+03  d E =-.256503E+00  mag=    20.0000
       N       E                     dE             d eps       ncg     rms          ort
SDA:   1    -0.369455785092E+03    0.55683E+00    0.00000E+00  6048   0.156E+01 0.000E+00
CGA:   2    -0.369954193833E+03   -0.49841E+00   -0.49845E+00  6048   0.462E+00-0.211E-02
CGA:   3    -0.370067503298E+03   -0.11331E+00   -0.11328E+00  6048   0.130E+00-0.715E-03
CGA:   4    -0.370089743509E+03   -0.22240E-01   -0.22326E-01  6048   0.393E-01 0.646E-03
CGA:   5    -0.370097645613E+03   -0.79021E-02   -0.79568E-02  6048   0.108E-01 0.614E-03
CGA:   6    -0.370100343360E+03   -0.26977E-02   -0.27029E-02  6048   0.522E-02 0.130E-03
CGA:   7    -0.370101655701E+03   -0.13123E-02   -0.13084E-02  6048   0.189E-02-0.109E-03
CGA:   8    -0.370102214366E+03   -0.55867E-03   -0.56039E-03  6048   0.781E-03-0.844E-04
CGA:   9    -0.370102397915E+03   -0.18355E-03   -0.18436E-03  6048   0.216E-03 0.222E-04
CGA:  10    -0.370102459488E+03   -0.61574E-04   -0.61628E-04  6048   0.636E-04 0.129E-04
CGA:  11    -0.370102473585E+03   -0.14097E-04   -0.15132E-04  6048   0.204E-04 0.182E-04
CGA:  12    -0.370102478549E+03   -0.49631E-05   -0.56049E-05  6048   0.906E-05 0.981E-05
  52 F= -.37010248E+03 E0= -.37010248E+03  d E =-.898561E-01  mag=    20.0000
       N       E                     dE             d eps       ncg     rms          ort
SDA:   1    -0.370065150026E+03    0.37324E-01    0.00000E+00  6048   0.110E+00 0.000E+00
CGA:   2    -0.370098426928E+03   -0.33277E-01   -0.33281E-01  6048   0.361E-01-0.470E-03
CGA:   3    -0.370105659912E+03   -0.72330E-02   -0.72038E-02  6048   0.143E-01-0.331E-03
CGA:   4    -0.370108045674E+03   -0.23858E-02   -0.23965E-02  6048   0.286E-02 0.829E-04
CGA:   5    -0.370108542771E+03   -0.49710E-03   -0.51995E-03  6048   0.878E-03 0.220E-03
CGA:   6    -0.370108722162E+03   -0.17939E-03   -0.18833E-03  6048   0.292E-03 0.112E-03
CGA:   7    -0.370108827160E+03   -0.10500E-03   -0.10654E-03  6048   0.172E-03-0.320E-04
CGA:   8    -0.370108872710E+03   -0.45550E-04   -0.46395E-04  6048   0.900E-04-0.335E-04
CGA:   9    -0.370108890528E+03   -0.17818E-04   -0.17672E-04  6048   0.282E-04-0.422E-05
CGA:  10    -0.370108895623E+03   -0.50950E-05   -0.54616E-05  6048   0.995E-05 0.497E-05
  53 F= -.37010890E+03 E0= -.37010890E+03  d E =-.641707E-02  mag=    20.0000
       N       E                     dE             d eps       ncg     rms          ort
SDA:   1    -0.370051368233E+03    0.57522E-01    0.00000E+00  6048   0.158E+00 0.000E+00
CGA:   2    -0.370096203688E+03   -0.44835E-01   -0.44842E-01  6048   0.631E-01-0.393E-03
CGA:   3    -0.370107367295E+03   -0.11164E-01   -0.11136E-01  6048   0.214E-01-0.351E-03
CGA:   4    -0.370111383576E+03   -0.40163E-02   -0.40197E-02  6048   0.469E-02 0.403E-04
CGA:   5    -0.370112193358E+03   -0.80978E-03   -0.82952E-03  6048   0.131E-02 0.237E-03
CGA:   6    -0.370112472813E+03   -0.27945E-03   -0.28593E-03  6048   0.443E-03 0.139E-03
CGA:   7    -0.370112613898E+03   -0.14109E-03   -0.14177E-03  6048   0.223E-03-0.187E-04
CGA:   8    -0.370112680758E+03   -0.66860E-04   -0.71012E-04  6048   0.130E-03-0.532E-04
CGA:   9    -0.370112706265E+03   -0.25507E-04   -0.25493E-04  6048   0.396E-04-0.994E-05
CGA:  10    -0.370112712177E+03   -0.59125E-05   -0.66697E-05  6048   0.139E-04 0.994E-05
  54 F= -.37011271E+03 E0= -.37011271E+03  d E =-.381655E-02  mag=    20.0000
       N       E                     dE             d eps       ncg     rms          ort
SDA:   1    -0.370111304088E+03    0.14022E-02    0.00000E+00  6048   0.378E-02 0.000E+00
CGA:   2    -0.370112005733E+03   -0.70164E-03   -0.70927E-03  6048   0.168E-02 0.121E-03
CGA:   3    -0.370112342060E+03   -0.33633E-03   -0.33949E-03  6048   0.532E-03 0.626E-04
CGA:   4    -0.370112447836E+03   -0.10578E-03   -0.10517E-03  6048   0.136E-03-0.117E-04
CGA:   5    -0.370112474549E+03   -0.26713E-04   -0.26017E-04  6048   0.454E-04-0.152E-04
CGA:   6    -0.370112485252E+03   -0.10703E-04   -0.11521E-04  6048   0.298E-04-0.173E-04
CGA:   7    -0.370112488474E+03   -0.32227E-05   -0.32810E-05  6048   0.979E-05 0.926E-06
  55 F= -.37011249E+03 E0= -.37011249E+03  d E =0.223703E-03  mag=    20.0000
       N       E                     dE             d eps       ncg     rms          ort
SDA:   1    -0.370082047339E+03    0.30438E-01    0.00000E+00  6048   0.954E-01 0.000E+00
CGA:   2    -0.370098709240E+03   -0.16662E-01   -0.16706E-01  6048   0.414E-01 0.672E-03
CGA:   3    -0.370107300356E+03   -0.85911E-02   -0.85969E-02  6048   0.143E-01 0.234E-03
CGA:   4    -0.370109932110E+03   -0.26318E-02   -0.26265E-02  6048   0.336E-02-0.119E-03
CGA:   5    -0.370110523067E+03   -0.59096E-03   -0.58968E-03  6048   0.868E-03-0.275E-04
CGA:   6    -0.370110705909E+03   -0.18284E-03   -0.18276E-03  6048   0.275E-03-0.837E-05
CGA:   7    -0.370110770585E+03   -0.64677E-04   -0.64617E-04  6048   0.972E-04 0.388E-05
CGA:   8    -0.370110794671E+03   -0.24085E-04   -0.23851E-04  6048   0.342E-04 0.124E-04
CGA:   9    -0.370110806940E+03   -0.12269E-04   -0.12130E-04  6048   0.162E-04 0.152E-05
CGA:  10    -0.370110812977E+03   -0.60371E-05   -0.75130E-05  6048   0.153E-04-0.687E-05
  56 F= -.37011081E+03 E0= -.37011081E+03  d E =0.167550E-02  mag=    20.0000
       N       E                     dE             d eps       ncg     rms          ort
SDA:   1    -0.370102642396E+03    0.81645E-02    0.00000E+00  6048   0.224E-01 0.000E+00
CGA:   2    -0.370106477333E+03   -0.38349E-02   -0.38653E-02  6048   0.890E-02 0.460E-03
CGA:   3    -0.370108341682E+03   -0.18643E-02   -0.18679E-02  6048   0.327E-02 0.126E-03
CGA:   4    -0.370108978405E+03   -0.63672E-03   -0.63131E-03  6048   0.798E-03-0.134E-03
CGA:   5    -0.370109113242E+03   -0.13484E-03   -0.13312E-03  6048   0.206E-03-0.313E-04
CGA:   6    -0.370109152339E+03   -0.39097E-04   -0.39355E-04  6048   0.592E-04 0.924E-05
CGA:   7    -0.370109165282E+03   -0.12943E-04   -0.13082E-04  6048   0.200E-04 0.103E-04
CGA:   8    -0.370109170757E+03   -0.54748E-05   -0.54339E-05  6048   0.868E-05 0.548E-05
  57 F= -.37010917E+03 E0= -.37010917E+03  d E =0.164222E-02  mag=    20.0000
       N       E                     dE             d eps       ncg     rms          ort
SDA:   1    -0.369658537953E+03    0.45063E+00    0.00000E+00  6048   0.152E+01 0.000E+00
CGA:   2    -0.369910082802E+03   -0.25154E+00   -0.25207E+00  6048   0.593E+00 0.600E-02
CGA:   3    -0.370037029296E+03   -0.12695E+00   -0.12696E+00  6048   0.229E+00 0.867E-03
CGA:   4    -0.370078968300E+03   -0.41939E-01   -0.41866E-01  6048   0.492E-01-0.177E-02
CGA:   5    -0.370087512215E+03   -0.85439E-02   -0.85270E-02  6048   0.124E-01-0.365E-03
CGA:   6    -0.370090068535E+03   -0.25563E-02   -0.25577E-02  6048   0.374E-02 0.990E-04
CGA:   7    -0.370090944812E+03   -0.87628E-03   -0.87496E-03  6048   0.130E-02 0.106E-03
CGA:   8    -0.370091304277E+03   -0.35947E-03   -0.35679E-03  6048   0.550E-03 0.578E-04
CGA:   9    -0.370091490922E+03   -0.18665E-03   -0.18648E-03  6048   0.280E-03 0.125E-05
CGA:  10    -0.370091580088E+03   -0.89165E-04   -0.88913E-04  6048   0.129E-03 0.273E-05
CGA:  11    -0.370091615155E+03   -0.35067E-04   -0.34253E-04  6048   0.443E-04 0.262E-04
CGA:  12    -0.370091629080E+03   -0.13924E-04   -0.13646E-04  6048   0.171E-04 0.127E-04
CGA:  13    -0.370091637242E+03   -0.81623E-05   -0.81431E-05  6048   0.103E-04 0.136E-06
  58 F= -.37009164E+03 E0= -.37009164E+03  d E =0.175335E-01  mag=    20.0000
       N       E                     dE             d eps       ncg     rms          ort
SDA:   1    -0.370054648708E+03    0.36980E-01    0.00000E+00  6048   0.991E-01 0.000E+00
CGA:   2    -0.370076873270E+03   -0.22225E-01   -0.22236E-01  6048   0.490E-01 0.585E-03
CGA:   3    -0.370086015599E+03   -0.91423E-02   -0.91511E-02  6048   0.145E-01 0.130E-03
CGA:   4    -0.370088691397E+03   -0.26758E-02   -0.26633E-02  6048   0.331E-02-0.228E-03
CGA:   5    -0.370089337308E+03   -0.64591E-03   -0.64002E-03  6048   0.105E-02-0.151E-03
CGA:   6    -0.370089542708E+03   -0.20540E-03   -0.20553E-03  6048   0.317E-03 0.412E-05
CGA:   7    -0.370089613443E+03   -0.70734E-04   -0.71065E-04  6048   0.107E-03 0.365E-04
CGA:   8    -0.370089645759E+03   -0.32316E-04   -0.32103E-04  6048   0.451E-04 0.577E-05
CGA:   9    -0.370089659734E+03   -0.13975E-04   -0.13854E-04  6048   0.176E-04 0.208E-05
[...]
CGA:   6    -0.370012856361E+03   -0.43576E-02   -0.43720E-02  6048   0.696E-02 0.161E-03
CGA:   7    -0.370014624176E+03   -0.17678E-02   -0.17716E-02  6048   0.275E-02 0.149E-03
CGA:   8    -0.370015485697E+03   -0.86152E-03   -0.86031E-03  6048   0.150E-02 0.400E-04
CGA:   9    -0.370015979330E+03   -0.49363E-03   -0.49448E-03  6048   0.654E-03-0.186E-04
CGA:  10    -0.370016175087E+03   -0.19576E-03   -0.19527E-03  6048   0.226E-03 0.224E-04
CGA:  11    -0.370016247766E+03   -0.72679E-04   -0.72546E-04  6048   0.901E-04 0.459E-05
CGA:  12    -0.370016285125E+03   -0.37359E-04   -0.38720E-04  6048   0.555E-04-0.988E-05
CGA:  13    -0.370016299415E+03   -0.14290E-04   -0.14300E-04  6048   0.211E-04 0.113E-04
CGA:  14    -0.370016307248E+03   -0.78328E-05   -0.77992E-05  6048   0.805E-05 0.202E-05
CGA:  15    -0.370016293324E+03    0.13923E-04   -0.11486E-04  6048   0.761E-04-0.251E-04
CGA:  16    -0.370016305516E+03   -0.12191E-04   -0.15175E-04  6048   0.105E-04 0.210E-04
CGA:  17    -0.370016310218E+03   -0.47025E-05   -0.47233E-05  6048   0.387E-05-0.126E-05
  68 F= -.37001631E+03 E0= -.37001631E+03  d E =0.339993E-01  mag=    20.0000
       N       E                     dE             d eps       ncg     rms          ort
SDA:   1    -0.369947647582E+03    0.68658E-01    0.00000E+00  6048   0.181E+00 0.000E+00
CGA:   2    -0.369999340924E+03   -0.51693E-01   -0.51700E-01  6048   0.897E-01 0.678E-04
CGA:   3    -0.370014677181E+03   -0.15336E-01   -0.15302E-01  6048   0.239E-01-0.276E-03
CGA:   4    -0.370018903642E+03   -0.42265E-02   -0.42200E-02  6048   0.521E-02-0.502E-04
CGA:   5    -0.370019899499E+03   -0.99586E-03   -0.10067E-02  6048   0.158E-02 0.846E-04
CGA:   6    -0.370020231431E+03   -0.33193E-03   -0.33638E-03  6048   0.526E-03 0.430E-04
CGA:   7    -0.370020374946E+03   -0.14351E-03   -0.14341E-03  6048   0.220E-03-0.270E-05
CGA:   8    -0.370020439007E+03   -0.64061E-04   -0.63826E-04  6048   0.101E-03-0.180E-04
CGA:   9    -0.370020466470E+03   -0.27463E-04   -0.27397E-04  6048   0.329E-04-0.700E-05
CGA:  10    -0.370020472692E+03   -0.62214E-05   -0.67520E-05  6048   0.901E-05 0.635E-05
  69 F= -.37002047E+03 E0= -.37002047E+03  d E =-.416247E-02  mag=    20.0000
       N       E                     dE             d eps       ncg     rms          ort
SDA:   1    -0.369867413863E+03    0.15305E+00    0.00000E+00  6048   0.387E+00 0.000E+00
CGA:   2    -0.369970643386E+03   -0.10323E+00   -0.10330E+00  6048   0.149E+00 0.256E-02
CGA:   3    -0.370001387654E+03   -0.30744E-01   -0.30697E-01  6048   0.424E-01-0.605E-03
CGA:   4    -0.370007930098E+03   -0.65424E-02   -0.64721E-02  6048   0.798E-02-0.538E-03
CGA:   5    -0.370009565535E+03   -0.16354E-02   -0.16212E-02  6048   0.220E-02-0.190E-03
CGA:   6    -0.370009974972E+03   -0.40944E-03   -0.41279E-03  6048   0.652E-03 0.387E-04
CGA:   7    -0.370010134386E+03   -0.15941E-03   -0.16065E-03  6048   0.246E-03 0.402E-04
CGA:   8    -0.370010219469E+03   -0.85082E-04   -0.85517E-04  6048   0.155E-03-0.778E-05
CGA:   9    -0.370010262868E+03   -0.43400E-04   -0.43250E-04  6048   0.613E-04 0.113E-04
CGA:  10    -0.370010284457E+03   -0.21589E-04   -0.21850E-04  6048   0.282E-04-0.456E-05
CGA:  11    -0.370010279589E+03    0.48680E-05   -0.21623E-04  6048   0.125E-03-0.482E-04
CGA:  12    -0.370010294087E+03   -0.14498E-04   -0.19315E-04  6048   0.156E-04 0.318E-04
CGA:  13    -0.370010296161E+03   -0.20744E-05   -0.31338E-05  6048   0.562E-05 0.770E-05
  70 F= -.37001030E+03 E0= -.37001030E+03  d E =0.101765E-01  mag=    20.0000
       N       E                     dE             d eps       ncg     rms          ort
SDA:   1    -0.369668891576E+03    0.34140E+00    0.00000E+00  6048   0.837E+00 0.000E+00
CGA:   2    -0.369921694496E+03   -0.25280E+00   -0.25275E+00  6048   0.303E+00 0.349E-02
CGA:   3    -0.369984016279E+03   -0.62322E-01   -0.62243E-01  6048   0.707E-01-0.108E-02
CGA:   4    -0.369995001110E+03   -0.10985E-01   -0.10912E-01  6048   0.155E-01-0.590E-03
CGA:   5    -0.369998142862E+03   -0.31418E-02   -0.31291E-02  6048   0.386E-02-0.170E-03
CGA:   6    -0.369998892764E+03   -0.74990E-03   -0.75529E-03  6048   0.121E-02 0.689E-04
CGA:   7    -0.369999185681E+03   -0.29292E-03   -0.29461E-03  6048   0.437E-03 0.527E-04
CGA:   8    -0.369999335247E+03   -0.14957E-03   -0.15030E-03  6048   0.264E-03-0.122E-04
CGA:   9    -0.369999409407E+03   -0.74160E-04   -0.73961E-04  6048   0.100E-03 0.122E-04
CGA:  10    -0.369999442157E+03   -0.32750E-04   -0.32802E-04  6048   0.377E-04-0.130E-05
CGA:  11    -0.369999452066E+03   -0.99087E-05   -0.22856E-04  6048   0.776E-04-0.382E-04
CGA:  12    -0.369999460799E+03   -0.87330E-05   -0.11802E-04  6048   0.109E-04 0.220E-04
  71 F= -.36999946E+03 E0= -.36999946E+03  d E =0.108354E-01  mag=    20.0000
       N       E                     dE             d eps       ncg     rms          ort
SDA:   1    -0.360317614402E+03    0.96818E+01    0.00000E+00  6048   0.230E+02 0.000E+00
CGA:   2    -0.367079609822E+03   -0.67620E+01   -0.67627E+01  6048   0.831E+01-0.395E-01
CGA:   3    -0.368806748406E+03   -0.17271E+01   -0.17277E+01  6048   0.252E+01 0.176E-02
CGA:   4    -0.369214178445E+03   -0.40743E+00   -0.40788E+00  6048   0.580E+00 0.341E-02
CGA:   5    -0.369337308908E+03   -0.12313E+00   -0.12327E+00  6048   0.174E+00 0.263E-02
CGA:   6    -0.369374904611E+03   -0.37596E-01   -0.37676E-01  6048   0.685E-01 0.150E-02
CGA:   7    -0.369393148731E+03   -0.18244E-01   -0.18244E-01  6048   0.267E-01-0.333E-03
CGA:   8    -0.369400884230E+03   -0.77355E-02   -0.77573E-02  6048   0.118E-01-0.778E-03
CGA:   9    -0.369403897099E+03   -0.30129E-02   -0.30134E-02  6048   0.341E-02 0.356E-03
CGA:  10    -0.369404902016E+03   -0.10049E-02   -0.10014E-02  6048   0.110E-02 0.179E-03
CGA:  11    -0.369405258128E+03   -0.35611E-03   -0.35587E-03  6048   0.451E-03 0.560E-05
CGA:  12    -0.369405394528E+03   -0.13640E-03   -0.13407E-03  6048   0.190E-03 0.849E-04
CGA:  13    -0.369405458122E+03   -0.63593E-04   -0.17747E-03  6048   0.580E-03-0.221E-03
CGA:  14    -0.369405564410E+03   -0.10629E-03   -0.11584E-03  6048   0.515E-04 0.999E-04
CGA:  15    -0.369405585570E+03   -0.21161E-04   -0.37119E-04  6048   0.814E-04-0.492E-04
CGA:  16    -0.369405586851E+03   -0.12812E-05   -0.98534E-05  6048   0.263E-04 0.461E-04
  72 F= -.36940559E+03 E0= -.36940559E+03  d E =0.593874E+00  mag=    20.0000
       N       E                     dE             d eps       ncg     rms          ort
SDA:   1    -0.367253962597E+03    0.21516E+01    0.00000E+00  6048   0.645E+01 0.000E+00
CGA:   2    -0.369325585809E+03   -0.20716E+01   -0.20716E+01  6048   0.215E+01-0.705E-03
CGA:   3    -0.369797984318E+03   -0.47240E+00   -0.47284E+00  6048   0.650E+00 0.436E-02
CGA:   4    -0.369906640242E+03   -0.10866E+00   -0.10872E+00  6048   0.171E+00-0.963E-04
CGA:   5    -0.369944370342E+03   -0.37730E-01   -0.37670E-01  6048   0.516E-01-0.968E-03
CGA:   6    -0.369956101321E+03   -0.11731E-01   -0.11720E-01  6048   0.232E-01-0.234E-03
CGA:   7    -0.369961943578E+03   -0.58423E-02   -0.58436E-02  6048   0.817E-02 0.504E-04
CGA:   8    -0.369964225044E+03   -0.22815E-02   -0.22813E-02  6048   0.326E-02 0.108E-03
CGA:   9    -0.369965100224E+03   -0.87518E-03   -0.87590E-03  6048   0.972E-03 0.613E-04
CGA:  10    -0.369965404779E+03   -0.30455E-03   -0.30618E-03  6048   0.318E-03-0.500E-04
CGA:  11    -0.369965505700E+03   -0.10092E-03   -0.10509E-03  6048   0.141E-03-0.597E-04
CGA:  12    -0.369965542853E+03   -0.37153E-04   -0.37514E-04  6048   0.548E-04-0.800E-05
CGA:  13    -0.369965558423E+03   -0.15570E-04   -0.15454E-04  6048   0.210E-04 0.776E-05
CGA:  14    -0.369965563921E+03   -0.54973E-05   -0.58296E-05  6048   0.880E-05 0.797E-05
  73 F= -.36996556E+03 E0= -.36996556E+03  d E =-.559977E+00  mag=    20.0000
       N       E                     dE             d eps       ncg     rms          ort
SDA:   1    -0.369645637254E+03    0.31992E+00    0.00000E+00  6048   0.928E+00 0.000E+00
CGA:   2    -0.369937925588E+03   -0.29229E+00   -0.29222E+00  6048   0.307E+00 0.138E-02
CGA:   3    -0.370005064971E+03   -0.67139E-01   -0.67265E-01  6048   0.991E-01 0.181E-02
CGA:   4    -0.370021642659E+03   -0.16578E-01   -0.16561E-01  6048   0.242E-01-0.214E-03
CGA:   5    -0.370027128077E+03   -0.54854E-02   -0.54466E-02  6048   0.787E-02-0.810E-03
CGA:   6    -0.370028893429E+03   -0.17654E-02   -0.17536E-02  6048   0.350E-02-0.291E-03
CGA:   7    -0.370029692008E+03   -0.79858E-03   -0.80203E-03  6048   0.115E-02 0.110E-03
CGA:   8    -0.370029980695E+03   -0.28869E-03   -0.29176E-03  6048   0.406E-03 0.147E-03
CGA:   9    -0.370030115057E+03   -0.13436E-03   -0.13465E-03  6048   0.159E-03-0.106E-04
CGA:  10    -0.370030167839E+03   -0.52781E-04   -0.57815E-04  6048   0.837E-04-0.477E-04
CGA:  11    -0.370030184780E+03   -0.16941E-04   -0.26297E-04  6048   0.780E-04-0.532E-04
CGA:  12    -0.370030200473E+03   -0.15694E-04   -0.15976E-04  6048   0.138E-04 0.363E-05
CGA:  13    -0.370030200831E+03   -0.35784E-06   -0.18395E-05  6048   0.748E-05 0.985E-05
  74 F= -.37003020E+03 E0= -.37003020E+03  d E =-.646369E-01  mag=    20.0000
       N       E                     dE             d eps       ncg     rms          ort
SDA:   1    -0.369853186201E+03    0.17701E+00    0.00000E+00  6048   0.471E+00 0.000E+00
CGA:   2    -0.369994187039E+03   -0.14100E+00   -0.14093E+00  6048   0.155E+00 0.183E-02
CGA:   3    -0.370027100534E+03   -0.32913E-01   -0.32993E-01  6048   0.567E-01 0.143E-02
CGA:   4    -0.370036720738E+03   -0.96202E-02   -0.96058E-02  6048   0.120E-01-0.186E-03
CGA:   5    -0.370039443078E+03   -0.27223E-02   -0.26918E-02  6048   0.447E-02-0.917E-03
CGA:   6    -0.370040411966E+03   -0.96889E-03   -0.95764E-03  6048   0.198E-02-0.469E-03
CGA:   7    -0.370040802472E+03   -0.39051E-03   -0.39413E-03  6048   0.589E-03 0.110E-03
CGA:   8    -0.370040910094E+03   -0.10762E-03   -0.11903E-03  6048   0.198E-03 0.184E-03
CGA:   9    -0.370040966276E+03   -0.56182E-04   -0.57776E-04  6048   0.769E-04 0.569E-04
CGA:  10    -0.370040980109E+03   -0.13833E-04   -0.65940E-04  6048   0.261E-03-0.125E-03
CGA:  11    -0.370041017653E+03   -0.37544E-04   -0.42205E-04  6048   0.300E-04 0.431E-04
CGA:  12    -0.370040841160E+03    0.17649E-03   -0.95109E-04  6048   0.808E-03-0.167E-03
CGA:  13    -0.370041018904E+03   -0.17774E-03   -0.19573E-03  6048   0.677E-04 0.748E-04
CGA:  14    -0.370041038212E+03   -0.19308E-04   -0.20973E-04  6048   0.952E-05 0.891E-05
CGA:  15    -0.370041037000E+03    0.12119E-05   -0.12462E-05  6048   0.440E-05 0.712E-05
  75 F= -.37004104E+03 E0= -.37004104E+03  d E =-.108362E-01  mag=    20.0000
       N       E                     dE             d eps       ncg     rms          ort
SDA:   1    -0.369985064741E+03    0.55973E-01    0.00000E+00  6048   0.149E+00 0.000E+00
CGA:   2    -0.370027127613E+03   -0.42063E-01   -0.42198E-01  6048   0.520E-01 0.853E-03
CGA:   3    -0.370037491805E+03   -0.10364E-01   -0.10444E-01  6048   0.187E-01 0.324E-03
CGA:   4    -0.370040789718E+03   -0.32979E-02   -0.32733E-02  6048   0.389E-02-0.115E-03
CGA:   5    -0.370041681951E+03   -0.89223E-03   -0.83314E-03  6048   0.138E-02-0.325E-03
CGA:   6    -0.370042013952E+03   -0.33200E-03   -0.30109E-03  6048   0.640E-03-0.205E-03
CGA:   7    -0.370042127065E+03   -0.11311E-03   -0.11846E-03  6048   0.189E-03 0.325E-04
CGA:   8    -0.370042145616E+03   -0.18550E-04   -0.33403E-04  6048   0.655E-04 0.723E-04
CGA:   9    -0.370042154919E+03   -0.93027E-05   -0.15527E-04  6048   0.267E-04 0.326E-04
CGA:  10    -0.370042169910E+03   -0.14992E-04   -0.15444E-04  6048   0.264E-04-0.137E-04
CGA:  11    -0.370042177968E+03   -0.80583E-05   -0.75929E-05  6048   0.822E-05-0.692E-05
  76 F= -.37004218E+03 E0= -.37004218E+03  d E =-.114097E-02  mag=    20.0000
       N       E                     dE             d eps       ncg     rms          ort
SDA:   1    -0.370022108581E+03    0.20061E-01    0.00000E+00  6048   0.489E-01 0.000E+00
CGA:   2    -0.370035175113E+03   -0.13067E-01   -0.13129E-01  6048   0.194E-01 0.734E-03
CGA:   3    -0.370039132187E+03   -0.39571E-02   -0.39569E-02  6048   0.604E-02-0.124E-04
CGA:   4    -0.370040179951E+03   -0.10478E-02   -0.10217E-02  6048   0.133E-02-0.155E-03
CGA:   5    -0.370040475795E+03   -0.29584E-03   -0.28275E-03  6048   0.460E-03-0.117E-03
CGA:   6    -0.370040568836E+03   -0.93041E-04   -0.88080E-04  6048   0.178E-03-0.430E-04
CGA:   7    -0.370040601202E+03   -0.32366E-04   -0.34647E-04  6048   0.556E-04 0.215E-04
CGA:   8    -0.370040608701E+03   -0.74993E-05   -0.10830E-04  6048   0.212E-04 0.236E-04
  77 F= -.37004061E+03 E0= -.37004061E+03  d E =0.156927E-02  mag=    20.0000
       N       E                     dE             d eps       ncg     rms          ort
SDA:   1    -0.370026992517E+03    0.13609E-01    0.00000E+00  6048   0.310E-01 0.000E+00
CGA:   2    -0.370034295444E+03   -0.73029E-02   -0.73448E-02  6048   0.123E-01 0.623E-03
CGA:   3    -0.370036845121E+03   -0.25497E-02   -0.25477E-02  6048   0.411E-02-0.268E-04
CGA:   4    -0.370037545902E+03   -0.70078E-03   -0.68165E-03  6048   0.785E-03-0.150E-03
CGA:   5    -0.370037714508E+03   -0.16861E-03   -0.16445E-03  6048   0.254E-03-0.585E-04
CGA:   6    -0.370037764204E+03   -0.49696E-04   -0.49069E-04  6048   0.860E-04-0.831E-05
CGA:   7    -0.370037782039E+03   -0.17835E-04   -0.18678E-04  6048   0.302E-04 0.149E-04
CGA:   8    -0.370037788842E+03   -0.68031E-05   -0.75623E-05  6048   0.133E-04 0.116E-04
  78 F= -.37003779E+03 E0= -.37003779E+03  d E =0.281986E-02  mag=    20.0000
       N       E                     dE             d eps       ncg     rms          ort
SDA:   1    -0.369965281130E+03    0.72501E-01    0.00000E+00  6048   0.194E+00 0.000E+00
CGA:   2    -0.370008763090E+03   -0.43482E-01   -0.43579E-01  6048   0.720E-01 0.179E-02
CGA:   3    -0.370024009420E+03   -0.15246E-01   -0.15240E-01  6048   0.249E-01-0.129E-03
CGA:   4    -0.370028072420E+03   -0.40630E-02   -0.40196E-02  6048   0.444E-02-0.405E-03
CGA:   5    -0.370028960850E+03   -0.88843E-03   -0.88238E-03  6048   0.130E-02-0.966E-04
CGA:   6    -0.370029213344E+03   -0.25249E-03   -0.25334E-03  6048   0.417E-03 0.129E-04
CGA:   7    -0.370029319551E+03   -0.10621E-03   -0.10641E-03  6048   0.178E-03 0.319E-04
CGA:   8    -0.370029375454E+03   -0.55903E-04   -0.55298E-04  6048   0.943E-04 0.203E-04
CGA:   9    -0.370029412084E+03   -0.36630E-04   -0.36564E-04  6048   0.508E-04 0.703E-06
CGA:  10    -0.370029428758E+03   -0.16674E-04   -0.16797E-04  6048   0.220E-04-0.196E-05
CGA:  11    -0.370029434596E+03   -0.58378E-05   -0.58252E-05  6048   0.734E-05 0.156E-05
  79 F= -.37002943E+03 E0= -.37002943E+03  d E =0.835425E-02  mag=    20.0000
       N       E                     dE             d eps       ncg     rms          ort
SDA:   1    -0.369948102265E+03    0.81326E-01    0.00000E+00  6048   0.211E+00 0.000E+00
CGA:   2    -0.369998347643E+03   -0.50245E-01   -0.50315E-01  6048   0.790E-01 0.189E-02
CGA:   3    -0.370015281620E+03   -0.16934E-01   -0.16921E-01  6048   0.253E-01-0.255E-03
CGA:   4    -0.370019245552E+03   -0.39639E-02   -0.39219E-02  6048   0.456E-02-0.375E-03
CGA:   5    -0.370020159129E+03   -0.91358E-03   -0.90840E-03  6048   0.130E-02-0.843E-04
CGA:   6    -0.370020407114E+03   -0.24798E-03   -0.24829E-03  6048   0.411E-03 0.427E-05
CGA:   7    -0.370020508730E+03   -0.10162E-03   -0.10192E-03  6048   0.167E-03 0.288E-04
CGA:   8    -0.370020559795E+03   -0.51065E-04   -0.50470E-04  6048   0.866E-04 0.227E-04
CGA:   9    -0.370020595824E+03   -0.36028E-04   -0.36501E-04  6048   0.540E-04-0.423E-05
CGA:  10    -0.370020612104E+03   -0.16281E-04   -0.16467E-04  6048   0.231E-04-0.329E-05
CGA:  11    -0.370020617783E+03   -0.56781E-05   -0.56862E-05  6048   0.763E-05 0.164E-05
  80 F= -.37002062E+03 E0= -.37002062E+03  d E =0.881681E-02  mag=    20.0000
       N       E                     dE             d eps       ncg     rms          ort
SDA:   1    -0.369742872739E+03    0.27774E+00    0.00000E+00  6048   0.740E+00 0.000E+00
CGA:   2    -0.369927862710E+03   -0.18499E+00   -0.18509E+00  6048   0.280E+00 0.340E-02
CGA:   3    -0.369987009729E+03   -0.59147E-01   -0.59113E-01  6048   0.845E-01-0.659E-03
CGA:   4    -0.370000016649E+03   -0.13007E-01   -0.12938E-01  6048   0.157E-01-0.601E-03
CGA:   5    -0.370003185190E+03   -0.31685E-02   -0.31639E-02  6048   0.438E-02-0.749E-04
CGA:   6    -0.370004042759E+03   -0.85757E-03   -0.86010E-03  6048   0.142E-02 0.370E-04
CGA:   7    -0.370004406689E+03   -0.36393E-03   -0.36415E-03  6048   0.589E-03 0.463E-04
CGA:   8    -0.370004592096E+03   -0.18541E-03   -0.18431E-03  6048   0.321E-03 0.248E-04
CGA:   9    -0.370004702863E+03   -0.11077E-03   -0.11082E-03  6048   0.150E-03-0.816E-06
CGA:  10    -0.370004747984E+03   -0.45121E-04   -0.44828E-04  6048   0.541E-04 0.848E-05
CGA:  11    -0.370004766704E+03   -0.18720E-04   -0.18841E-04  6048   0.242E-04-0.192E-05
CGA:  12    -0.370004775969E+03   -0.92647E-05   -0.13157E-04  6048   0.279E-04-0.133E-04
  81 F= -.37000478E+03 E0= -.37000478E+03  d E =0.158418E-01  mag=    20.0000
       N       E                     dE             d eps       ncg     rms          ort
SDA:   1    -0.369988430779E+03    0.16336E-01    0.00000E+00  6048   0.629E-01 0.000E+00
CGA:   2    -0.370003054588E+03   -0.14624E-01   -0.14584E-01  6048   0.247E-01-0.871E-03
CGA:   3    -0.370007981804E+03   -0.49272E-02   -0.49211E-02  6048   0.857E-02-0.939E-04
CGA:   4    -0.370009345193E+03   -0.13634E-02   -0.13833E-02  6048   0.161E-02 0.178E-03
CGA:   5    -0.370009652536E+03   -0.30734E-03   -0.31446E-03  6048   0.451E-03 0.938E-04
CGA:   6    -0.370009747859E+03   -0.95323E-04   -0.97005E-04  6048   0.150E-03 0.278E-04
CGA:   7    -0.370009796089E+03   -0.48229E-04   -0.48899E-04  6048   0.835E-04-0.145E-04
CGA:   8    -0.370009820945E+03   -0.24856E-04   -0.28622E-04  6048   0.692E-04-0.324E-04
CGA:   9    -0.370009828787E+03   -0.78418E-05   -0.81694E-05  6048   0.277E-04 0.431E-05
  82 F= -.37000983E+03 E0= -.37000983E+03  d E =-.505282E-02  mag=    20.0000
       N       E                     dE             d eps       ncg     rms          ort
SDA:   1    -0.370006692070E+03    0.31289E-02    0.00000E+00  6048   0.184E-01 0.000E+00
CGA:   2    -0.370010881177E+03   -0.41891E-02   -0.41717E-02  6048   0.707E-02-0.560E-03
CGA:   3    -0.370012260772E+03   -0.13796E-02   -0.13829E-02  6048   0.238E-02 0.567E-04
CGA:   4    -0.370012618685E+03   -0.35791E-03   -0.37006E-03  6048   0.407E-03 0.121E-03
CGA:   5    -0.370012702307E+03   -0.83622E-04   -0.84105E-04  6048   0.131E-03 0.921E-05
CGA:   6    -0.370012734012E+03   -0.31705E-04   -0.31499E-04  6048   0.603E-04-0.192E-04
CGA:   7    -0.370012748978E+03   -0.14966E-04   -0.15573E-04  6048   0.346E-04-0.107E-04
CGA:   8    -0.370012756832E+03   -0.78543E-05   -0.79005E-05  6048   0.156E-04-0.160E-05
  83 F= -.37001276E+03 E0= -.37001276E+03  d E =-.292805E-02  mag=    20.0000
       N       E                     dE             d eps       ncg     rms          ort
SDA:   1    -0.370004019561E+03    0.87294E-02    0.00000E+00  6048   0.312E-01 0.000E+00
CGA:   2    -0.370011317033E+03   -0.72975E-02   -0.72905E-02  6048   0.157E-01-0.397E-03
CGA:   3    -0.370014125093E+03   -0.28081E-02   -0.28123E-02  6048   0.435E-02 0.528E-04
CGA:   4    -0.370014837885E+03   -0.71279E-03   -0.72391E-03  6048   0.769E-03 0.134E-03
CGA:   5    -0.370014994845E+03   -0.15696E-03   -0.15590E-03  6048   0.237E-03-0.228E-04
CGA:   6    -0.370015051572E+03   -0.56727E-04   -0.57063E-04  6048   0.106E-03-0.500E-04
CGA:   7    -0.370015070649E+03   -0.19077E-04   -0.19001E-04  6048   0.386E-04-0.520E-05
CGA:   8    -0.370015077543E+03   -0.68941E-05   -0.72644E-05  6048   0.130E-04 0.865E-05
  84 F= -.37001508E+03 E0= -.37001508E+03  d E =-.232071E-02  mag=    20.0000
