       N       E                     dE             d eps       ncg     rms          ort
DAV:   1     0.878912968411E+04    0.87891E+04   -0.53590E+05   624   0.154E+03
DAV:   2    -0.949206700630E+03   -0.97383E+04   -0.92930E+04   624   0.410E+02
DAV:   3    -0.190332884319E+04   -0.95412E+03   -0.93335E+03   624   0.147E+02
DAV:   4    -0.194458377191E+04   -0.41255E+02   -0.40619E+02   624   0.339E+01
DAV:   5    -0.194683691555E+04   -0.22531E+01   -0.22441E+01   624   0.578E+00
SDA:   6    -0.106596330096E+04    0.88087E+03   -0.22441E+01   624   0.319E+04 0.000E+00
CGA:   7    -0.125660899321E+04   -0.19065E+03   -0.33605E+03   624   0.385E+04-0.945E+01
CGA:   8    -0.129394203020E+04   -0.37333E+02   -0.24982E+03   624   0.298E+04-0.522E+03
CGA:   9    -0.130305613054E+04   -0.91141E+01   -0.14868E+03   624   0.211E+04-0.146E+04
CGA:  10    -0.134535675105E+04   -0.42301E+02   -0.84255E+02   624   0.118E+04 0.411E+02
CGA:  11    -0.140499316428E+04   -0.59636E+02   -0.98276E+02   624   0.141E+04-0.662E+02
CGA:  12    -0.144237851290E+04   -0.37385E+02   -0.75194E+02   624   0.103E+04-0.455E+03
CGA:  13    -0.144828010417E+04   -0.59016E+01   -0.31821E+02   624   0.111E+04-0.401E+03
CGA:  14    -0.144157761981E+04    0.67025E+01   -0.26636E+02   624   0.140E+04-0.976E+03
CGA:  15    -0.142605321253E+04    0.15524E+02   -0.81653E+02   624   0.202E+04-0.112E+04
CGA:  16    -0.141843525781E+04    0.76180E+01   -0.11935E+03   624   0.171E+04-0.124E+04
CGA:  17    -0.142583908273E+04   -0.74038E+01   -0.93744E+02   624   0.203E+04-0.133E+04
CGA:  18    -0.141862160871E+04    0.72175E+01   -0.11226E+03   624   0.185E+04-0.146E+04
CGA:  19    -0.142239372799E+04   -0.37721E+01   -0.96797E+02   624   0.188E+04-0.187E+04
CGA:  20    -0.142432328606E+04   -0.19296E+01   -0.92692E+02   624   0.207E+04-0.216E+04
CGA:  21    -0.141528134853E+04    0.90419E+01   -0.10389E+03   624   0.209E+04-0.190E+04
CGA:  22    -0.141708952686E+04   -0.18082E+01   -0.10313E+03   624   0.189E+04-0.180E+04
CGA:  23    -0.143099020791E+04   -0.13901E+02   -0.88188E+02   624   0.186E+04-0.207E+04
CGA:  24    -0.144085758526E+04   -0.98674E+01   -0.81426E+02   624   0.211E+04-0.232E+04
CGA:  25    -0.143847946116E+04    0.23781E+01   -0.91622E+02   624   0.215E+04-0.207E+04
CGA:  26    -0.144080120583E+04   -0.23217E+01   -0.90058E+02   624   0.244E+04-0.231E+04
CGA:  27    -0.144382121367E+04   -0.30200E+01   -0.10286E+03   624   0.187E+04-0.188E+04
CGA:  28    -0.146737785471E+04   -0.23557E+02   -0.69402E+02   624   0.201E+04-0.243E+04
CGA:  29    -0.147325711521E+04   -0.58793E+01   -0.73707E+02   624   0.160E+04-0.171E+04
CGA:  30    -0.148659483925E+04   -0.13338E+02   -0.53685E+02   624   0.142E+04-0.166E+04
CGA:  31    -0.149453957071E+04   -0.79447E+01   -0.44333E+02   624   0.903E+03-0.106E+04
CGA:  32    -0.150749135218E+04   -0.12952E+02   -0.23849E+02   624   0.557E+03-0.833E+03
CGA:  33    -0.151033356030E+04   -0.28422E+01   -0.14286E+02   624   0.392E+03-0.447E+03
CGA:  34    -0.151277041807E+04   -0.24369E+01   -0.94903E+01   624   0.295E+03-0.347E+03
CGA:  35    -0.151387565533E+04   -0.11052E+01   -0.71046E+01   624   0.266E+03-0.289E+03
CGA:  36    -0.151487466368E+04   -0.99901E+00   -0.62366E+01   624   0.201E+03-0.219E+03
CGA:  37    -0.151626366429E+04   -0.13890E+01   -0.43389E+01   624   0.142E+03-0.180E+03
CGA:  38    -0.151681538888E+04   -0.55172E+00   -0.31840E+01   624   0.997E+02-0.108E+03
CGA:  39    -0.151781825784E+04   -0.10029E+01   -0.18726E+01   624   0.366E+02-0.587E+02
CGA:  40    -0.151822220545E+04   -0.40395E+00   -0.62706E+00   624   0.926E+01-0.124E+02
CGA:  41    -0.151855365657E+04   -0.33145E+00   -0.33367E+00   624   0.889E+01-0.111E+00
CGA:  42    -0.151903747312E+04   -0.48382E+00   -0.50090E+00   624   0.109E+02 0.598E+00
CGA:  43    -0.151986586325E+04   -0.82839E+00   -0.81412E+00   624   0.939E+01 0.110E+01
CGA:  44    -0.152039610788E+04   -0.53024E+00   -0.55588E+00   624   0.559E+01 0.565E+00
CGA:  45    -0.152063161004E+04   -0.23550E+00   -0.25709E+00   624   0.371E+01-0.233E+00
CGA:  46    -0.152082062589E+04   -0.18902E+00   -0.18353E+00   624   0.329E+01-0.277E+00
CGA:  47    -0.152099969149E+04   -0.17907E+00   -0.17977E+00   624   0.249E+01-0.536E-01
CGA:  48    -0.152114024111E+04   -0.14055E+00   -0.13949E+00   624   0.172E+01-0.175E+00
CGA:  49    -0.152123045374E+04   -0.90213E-01   -0.90163E-01   624   0.145E+01-0.111E+00
CGA:  50    -0.152131610422E+04   -0.85650E-01   -0.85881E-01   624   0.113E+01-0.152E+00
CGA:  51    -0.152139261160E+04   -0.76507E-01   -0.76792E-01   624   0.107E+01-0.784E-01
CGA:  52    -0.152144912468E+04   -0.56513E-01   -0.55992E-01   624   0.583E+00-0.107E+00
CGA:  53    -0.152149717698E+04   -0.48052E-01   -0.50175E-01   624   0.828E+00-0.830E-01
CGA:  54    -0.152155816312E+04   -0.60986E-01   -0.65042E-01   624   0.764E+00-0.163E+00
CGA:  55    -0.152161545740E+04   -0.57294E-01   -0.60327E-01   624   0.470E+00-0.113E+00
CGA:  56    -0.152165081124E+04   -0.35354E-01   -0.38128E-01   624   0.501E+00-0.108E+00
CGA:  57    -0.152171487596E+04   -0.64065E-01   -0.11552E+00   624   0.147E+01-0.189E+00
CGA:  58    -0.152176891229E+04   -0.54036E-01   -0.53234E-01   624   0.271E+00-0.147E+00
CGA:  59    -0.152181169772E+04   -0.42785E-01   -0.43426E-01   624   0.631E+00-0.535E-02
CGA:  60    -0.152189561314E+04   -0.83915E-01   -0.81054E-01   624   0.427E+00 0.496E-01
CGA:  61    -0.152202838511E+04   -0.13277E+00   -0.11732E+00   624   0.468E+00 0.893E-01
CGA:  62    -0.152209018522E+04   -0.61800E-01   -0.60747E-01   624   0.294E+00 0.478E-01
CGA:  63    -0.152218290427E+04   -0.92719E-01   -0.83371E-01   624   0.250E+00 0.514E-01
CGA:  64    -0.152225247004E+04   -0.69566E-01   -0.64252E-01   624   0.210E+00 0.434E-01
CGA:  65    -0.152230789008E+04   -0.55420E-01   -0.51318E-01   624   0.194E+00 0.399E-01
CGA:  66    -0.152235657018E+04   -0.48680E-01   -0.44412E-01   624   0.100E+00 0.510E-01
CGA:  67    -0.152239239789E+04   -0.35828E-01   -0.31410E-01   624   0.101E+00 0.332E-01
CGA:  68    -0.152242681576E+04   -0.34418E-01   -0.32927E-01   624   0.708E-01 0.119E-01
CGA:  69    -0.152244780084E+04   -0.20985E-01   -0.20447E-01   624   0.468E-01 0.284E-02
SDA:  70    -0.152246242449E+04   -0.14624E-01   -0.14846E-01   624   0.421E-01-0.218E-02
CGA:  71    -0.152247158703E+04   -0.91625E-02   -0.95769E-02   624   0.337E-01-0.475E-02
CGA:  72    -0.152248050613E+04   -0.89191E-02   -0.82673E-02   624   0.212E-01 0.546E-02
CGA:  73    -0.152248757193E+04   -0.70658E-02   -0.79205E-02   624   0.202E-01-0.499E-02
CGA:  74    -0.152249178347E+04   -0.42115E-02   -0.59817E-02   624   0.209E-01-0.786E-02
CGA:  75    -0.152249381912E+04   -0.20356E-02   -0.20540E-02   624   0.923E-02 0.135E-02
CGA:  76    -0.152249529132E+04   -0.14722E-02   -0.14997E-02   624   0.594E-02 0.129E-02
CGA:  77    -0.152249777318E+04   -0.24819E-02   -0.23722E-02   624   0.114E-01 0.609E-03
CGA:  78    -0.152250048318E+04   -0.27100E-02   -0.26718E-02   624   0.752E-02 0.136E-02
CGA:  79    -0.152250223684E+04   -0.17537E-02   -0.17791E-02   624   0.567E-02-0.689E-03
CGA:  80    -0.152250126275E+04    0.97409E-03   -0.29728E-02   624   0.274E-01-0.982E-02
CGA:  81    -0.152250442474E+04   -0.31620E-02   -0.34075E-02   624   0.551E-02 0.384E-02
CGA:  82    -0.152250556303E+04   -0.11383E-02   -0.11581E-02   624   0.193E-02 0.125E-02
CGA:  83    -0.152250582717E+04   -0.26414E-03   -0.33399E-03   624   0.110E-02 0.121E-02
CGA:  84    -0.152250620883E+04   -0.38167E-03   -0.34225E-03   624   0.850E-03 0.350E-03
CGA:  85    -0.152250423044E+04    0.19784E-02   -0.11740E-02   624   0.262E-01-0.302E-02
CGA:  86    -0.152250611382E+04   -0.18834E-02   -0.19432E-02   624   0.260E-02 0.704E-02
CGA:  87    -0.152250620159E+04   -0.87769E-04   -0.26698E-03   624   0.108E-02 0.843E-03
CGA:  88    -0.152250632465E+04   -0.12306E-03   -0.21352E-03   624   0.112E-02 0.475E-03
CGA:  89    -0.152250661292E+04   -0.28827E-03   -0.27303E-03   624   0.723E-03-0.854E-04
CGA:  90    -0.152250681176E+04   -0.19884E-03   -0.19262E-03   624   0.876E-03-0.167E-03
CGA:  91    -0.152250685861E+04   -0.46853E-04   -0.57099E-04   624   0.352E-03 0.610E-04
CGA:  92    -0.152250690656E+04   -0.47951E-04   -0.39842E-04   624   0.247E-03-0.310E-04
CGA:  93    -0.152250713126E+04   -0.22469E-03    0.50595E-04   624   0.658E-03-0.200E-03
CGA:  94    -0.152250721877E+04   -0.87510E-04   -0.97939E-04   624   0.193E-03 0.745E-04
CGA:  95    -0.152250720529E+04    0.13473E-04   -0.18392E-04   624   0.117E-03 0.155E-03
CGA:  96    -0.152250720365E+04    0.16406E-05   -0.12429E-04   624   0.759E-04 0.806E-04
CGA:  97    -0.152250723153E+04   -0.27879E-04   -0.24839E-04   624   0.520E-04 0.561E-04
CGA:  98    -0.152250723667E+04   -0.51370E-05   -0.93148E-05   624   0.453E-04 0.433E-04
   1 F= -.15225072E+04 E0= -.15225070E+04  d E =-.152251E+04  mag=    16.0000
       N       E                     dE             d eps       ncg     rms          ort
SDA:   1    -0.152254085935E+04   -0.33628E-01    0.00000E+00   624   0.787E-02 0.000E+00
CGA:   2    -0.152254249615E+04   -0.16368E-02   -0.16017E-02   624   0.377E-02-0.526E-03
CGA:   3    -0.152254279216E+04   -0.29601E-03   -0.40276E-03   624   0.850E-03 0.771E-03
CGA:   4    -0.152254299419E+04   -0.20203E-03   -0.20399E-03   624   0.573E-03 0.351E-04
CGA:   5    -0.152254211074E+04    0.88345E-03   -0.43427E-03   624   0.133E-01-0.275E-02
CGA:   6    -0.152254293732E+04   -0.82658E-03   -0.10663E-02   624   0.136E-02 0.252E-02
CGA:   7    -0.152254304160E+04   -0.10428E-03   -0.18884E-03   624   0.746E-03 0.561E-03
CGA:   8    -0.152254322055E+04   -0.17895E-03   -0.17952E-03   624   0.228E-03 0.823E-05
CGA:   9    -0.152254328652E+04   -0.65972E-04   -0.12143E-03   624   0.422E-03-0.206E-03
CGA:  10    -0.152254328130E+04    0.52187E-05   -0.31243E-04   624   0.133E-03 0.191E-03
CGA:  11    -0.152254328454E+04   -0.32364E-05   -0.17905E-04   624   0.939E-04 0.877E-04
CGA:  12    -0.152254338811E+04   -0.10357E-03    0.10087E-04   624   0.132E-03-0.118E-04
CGA:  13    -0.152254340344E+04   -0.15335E-04   -0.18848E-04   624   0.423E-04 0.396E-04
CGA:  14    -0.152254339681E+04    0.66361E-05   -0.20527E-05   624   0.266E-04 0.414E-04
   2 F= -.15225434E+04 E0= -.15225432E+04  d E =-.361601E-01  mag=    16.0000
       N       E                     dE             d eps       ncg     rms          ort
SDA:   1    -0.151773278318E+04    0.48106E+01    0.00000E+00   624   0.195E+02 0.000E+00
CGA:   2    -0.152241211149E+04   -0.46793E+01   -0.46790E+01   624   0.471E+01 0.107E-01
CGA:   3    -0.152363099331E+04   -0.12189E+01   -0.12198E+01   624   0.140E+01-0.316E-01
CGA:   4    -0.152390070014E+04   -0.26971E+00   -0.26958E+00   624   0.334E+00-0.214E-02
CGA:   5    -0.152397404254E+04   -0.73342E-01   -0.73291E-01   624   0.103E+00-0.620E-02
CGA:   6    -0.152400182678E+04   -0.27784E-01   -0.27764E-01   624   0.442E-01 0.620E-03
CGA:   7    -0.152401597305E+04   -0.14146E-01   -0.14271E-01   624   0.218E-01-0.134E-02
CGA:   8    -0.152402174280E+04   -0.57697E-02   -0.57267E-02   624   0.788E-02 0.123E-02
CGA:   9    -0.152402421745E+04   -0.24747E-02   -0.25252E-02   624   0.406E-02-0.746E-03
CGA:  10    -0.152402507883E+04   -0.86137E-03   -0.86248E-03   624   0.148E-02 0.218E-03
CGA:  11    -0.152402564441E+04   -0.56558E-03   -0.64621E-03   624   0.119E-02-0.463E-03
CGA:  12    -0.152402588403E+04   -0.23962E-03   -0.24050E-03   624   0.630E-03-0.184E-04
CGA:  13    -0.152402603195E+04   -0.14791E-03   -0.14858E-03   624   0.228E-03 0.591E-04
CGA:  14    -0.152402612648E+04   -0.94535E-04   -0.11455E-03   624   0.233E-03-0.964E-04
CGA:  15    -0.152402613557E+04   -0.90886E-05   -0.17153E-04   624   0.177E-03 0.605E-04
CGA:  16    -0.152402616217E+04   -0.26598E-04   -0.35070E-04   624   0.115E-03 0.870E-04
CGA:  17    -0.152402621979E+04   -0.57615E-04   -0.73647E-04   624   0.213E-03-0.891E-04
CGA:  18    -0.152402626447E+04   -0.44683E-04   -0.46994E-04   624   0.529E-04 0.622E-04
CGA:  19    -0.152402630363E+04   -0.39160E-04    0.75294E-04   624   0.349E-04 0.175E-04
CGA:  20    -0.152402634130E+04   -0.37673E-04   -0.35827E-04   624   0.864E-04 0.291E-05
CGA:  21    -0.152402623015E+04    0.11115E-03   -0.72404E-04   624   0.866E-03-0.191E-03
CGA:  22    -0.152402644033E+04   -0.21018E-03   -0.21750E-03   624   0.592E-03 0.331E-04
CGA:  23    -0.152402661017E+04   -0.16984E-03   -0.17140E-03   624   0.141E-03 0.105E-04
CGA:  24    -0.152402666217E+04   -0.52003E-04   -0.52087E-04   624   0.783E-04 0.837E-06
CGA:  25    -0.152402668157E+04   -0.19392E-04   -0.21183E-04   624   0.364E-04 0.844E-05
CGA:  26    -0.152402671987E+04   -0.38304E-04    0.23426E-02   624   0.329E-04 0.639E-05
CGA:  27    -0.152402673155E+04   -0.11683E-04   -0.12736E-04   624   0.241E-04 0.702E-05
CGA:  28    -0.152402677757E+04   -0.46022E-04    0.98523E-05   624   0.229E-04 0.701E-05
CGA:  29    -0.152402678266E+04   -0.50842E-05   -0.80785E-05   624   0.137E-04 0.151E-04
CGA:  30    -0.152402679862E+04   -0.15960E-04    0.11419E-04   624   0.150E-04 0.210E-05
CGA:  31    -0.152402680373E+04   -0.51105E-05   -0.59216E-05   624   0.101E-04 0.703E-05
   3 F= -.15240268E+04 E0= -.15240268E+04  d E =-.148341E+01  mag=    16.0000
       N       E                     dE             d eps       ncg     rms          ort
SDA:   1    -0.151514569560E+04    0.88811E+01    0.00000E+00   624   0.328E+02 0.000E+00
CGA:   2    -0.152253139818E+04   -0.73857E+01   -0.74660E+01   624   0.712E+01 0.155E+00
CGA:   3    -0.152441071199E+04   -0.18793E+01   -0.18748E+01   624   0.215E+01-0.994E-02
CGA:   4    -0.152484085044E+04   -0.43014E+00   -0.42907E+00   624   0.520E+00-0.385E-02
CGA:   5    -0.152495270742E+04   -0.11186E+00   -0.11182E+00   624   0.155E+00-0.255E-03
CGA:   6    -0.152499641170E+04   -0.43704E-01   -0.43837E-01   624   0.699E-01 0.906E-03
CGA:   7    -0.152501970126E+04   -0.23290E-01   -0.23256E-01   624   0.342E-01-0.500E-03
CGA:   8    -0.152503049435E+04   -0.10793E-01   -0.10756E-01   624   0.131E-01-0.396E-03
CGA:   9    -0.152503433454E+04   -0.38402E-02   -0.38101E-02   624   0.557E-02-0.281E-03
CGA:  10    -0.152503565871E+04   -0.13242E-02   -0.13321E-02   624   0.243E-02 0.823E-04
CGA:  11    -0.152503640514E+04   -0.74643E-03   -0.73553E-03   624   0.116E-02-0.123E-03
CGA:  12    -0.152503671861E+04   -0.31348E-03   -0.32567E-03   624   0.474E-03 0.148E-03
CGA:  13    -0.152503694516E+04   -0.22655E-03   -0.23521E-03   624   0.435E-03-0.132E-03
CGA:  14    -0.152503699331E+04   -0.48146E-04   -0.60980E-04   624   0.231E-03 0.704E-04
CGA:  15    -0.152503705147E+04   -0.58163E-04   -0.65539E-04   624   0.170E-03 0.583E-04
CGA:  16    -0.152503712899E+04   -0.77523E-04   -0.77586E-04   624   0.287E-03-0.460E-04
CGA:  17    -0.152503715937E+04   -0.30371E-04   -0.42033E-04   624   0.338E-03 0.680E-04
CGA:  18    -0.152503720509E+04   -0.45723E-04   -0.73170E-04   624   0.263E-03 0.147E-03
CGA:  19    -0.152503732101E+04   -0.11592E-03   -0.11867E-03   624   0.276E-03 0.769E-04
CGA:  20    -0.152503746052E+04   -0.13951E-03   -0.15766E-03   624   0.789E-03-0.208E-03
CGA:  21    -0.152503752444E+04   -0.63925E-04   -0.10354E-03   624   0.183E-03 0.190E-03
CGA:  22    -0.152503756237E+04   -0.37930E-04   -0.47542E-04   624   0.761E-04 0.745E-04
CGA:  23    -0.152503759644E+04   -0.34069E-04   -0.33119E-04   624   0.116E-03-0.431E-04
CGA:  24    -0.152503759657E+04   -0.12835E-06   -0.11247E-04   624   0.342E-04 0.484E-04
   4 F= -.15250376E+04 E0= -.15250376E+04  d E =-.101079E+01  mag=    16.0000
       N       E                     dE             d eps       ncg     rms          ort
SDA:   1    -0.152015198420E+04    0.48856E+01    0.00000E+00   624   0.169E+02 0.000E+00
CGA:   2    -0.152396303522E+04   -0.38111E+01   -0.38179E+01   624   0.400E+01 0.240E-01
CGA:   3    -0.152503906981E+04   -0.10760E+01   -0.10755E+01   624   0.114E+01-0.137E-01
CGA:   4    -0.152526038077E+04   -0.22131E+00   -0.22104E+00   624   0.276E+00-0.130E-02
CGA:   5    -0.152531761734E+04   -0.57237E-01   -0.57175E-01   624   0.767E-01-0.815E-03
CGA:   6    -0.152533919900E+04   -0.21582E-01   -0.21588E-01   624   0.347E-01 0.729E-03
CGA:   7    -0.152535086068E+04   -0.11662E-01   -0.11673E-01   624   0.186E-01-0.241E-03
CGA:   8    -0.152535660607E+04   -0.57454E-02   -0.57454E-02   624   0.801E-02 0.176E-04
CGA:   9    -0.152535887760E+04   -0.22715E-02   -0.22667E-02   624   0.369E-02-0.382E-03
CGA:  10    -0.152535968075E+04   -0.80315E-03   -0.80872E-03   624   0.124E-02 0.104E-03
CGA:  11    -0.152536009670E+04   -0.41595E-03   -0.41864E-03   624   0.579E-03-0.706E-04
CGA:  12    -0.152536027628E+04   -0.17957E-03   -0.17681E-03   624   0.272E-03 0.885E-04
CGA:  13    -0.152536042503E+04   -0.14875E-03   -0.17627E-03   624   0.425E-03-0.103E-03
CGA:  14    -0.152536047416E+04   -0.49134E-04   -0.53570E-04   624   0.330E-03 0.422E-04
CGA:  15    -0.152536056198E+04   -0.87817E-04   -0.91432E-04   624   0.296E-03 0.702E-04
CGA:  16    -0.152536067404E+04   -0.11206E-03   -0.11235E-03   624   0.353E-03-0.224E-04
CGA:  17    -0.152536078205E+04   -0.10801E-03   -0.10578E-03   624   0.422E-03 0.893E-04
CGA:  18    -0.152536090749E+04   -0.12544E-03   -0.13371E-03   624   0.368E-03 0.165E-03
CGA:  19    -0.152536109992E+04   -0.19243E-03   -0.18793E-03   624   0.356E-03 0.616E-04
CGA:  20    -0.152536126844E+04   -0.16852E-03   -0.16377E-03   624   0.406E-03 0.347E-04
CGA:  21    -0.152536136561E+04   -0.97162E-04   -0.10858E-03   624   0.316E-03 0.156E-03
CGA:  22    -0.152536145764E+04   -0.92030E-04   -0.10392E-03   624   0.212E-03 0.155E-03
CGA:  23    -0.152536154783E+04   -0.90190E-04   -0.91369E-04   624   0.166E-03 0.835E-04
CGA:  24    -0.152536159591E+04   -0.48084E-04   -0.54643E-04   624   0.132E-03 0.909E-04
CGA:  25    -0.152536163093E+04   -0.35020E-04   -0.36031E-04   624   0.616E-04 0.403E-04
CGA:  26    -0.152536165273E+04   -0.21802E-04   -0.22268E-04   624   0.346E-04 0.245E-04
CGA:  27    -0.152536165942E+04   -0.66879E-05   -0.10074E-04   624   0.312E-04 0.386E-04
   5 F= -.15253617E+04 E0= -.15253617E+04  d E =-.324063E+00  mag=    16.0000
       N       E                     dE             d eps       ncg     rms          ort
SDA:   1    -0.152159317316E+04    0.37685E+01    0.00000E+00   624   0.120E+02 0.000E+00
CGA:   2    -0.152437446755E+04   -0.27813E+01   -0.27821E+01   624   0.338E+01-0.147E-02
CGA:   3    -0.152522201514E+04   -0.84755E+00   -0.84758E+00   624   0.968E+00-0.111E-02
CGA:   4    -0.152539838864E+04   -0.17637E+00   -0.17654E+00   624   0.208E+00 0.385E-02
CGA:   5    -0.152544237745E+04   -0.43989E-01   -0.43990E-01   624   0.554E-01 0.595E-04
CGA:   6    -0.152545803855E+04   -0.15661E-01   -0.15665E-01   624   0.254E-01-0.282E-03
CGA:   7    -0.152546652248E+04   -0.84839E-02   -0.85229E-02   624   0.140E-01-0.576E-03
CGA:   8    -0.152547095585E+04   -0.44334E-02   -0.44415E-02   624   0.631E-02-0.161E-03
CGA:   9    -0.152547264688E+04   -0.16910E-02   -0.16919E-02   624   0.239E-02 0.154E-03
CGA:  10    -0.152547327588E+04   -0.62900E-03   -0.62870E-03   624   0.931E-03-0.553E-05
CGA:  11    -0.152547357543E+04   -0.29955E-03   -0.30780E-03   624   0.579E-03-0.146E-03
CGA:  12    -0.152547370266E+04   -0.12723E-03   -0.12804E-03   624   0.279E-03 0.511E-04
CGA:  13    -0.152547383002E+04   -0.12736E-03   -0.13023E-03   624   0.213E-03-0.193E-04
CGA:  14    -0.152547391284E+04   -0.82816E-04   -0.78082E-04   624   0.156E-03 0.431E-04
CGA:  15    -0.152547401898E+04   -0.10614E-03   -0.12736E-03   624   0.381E-03-0.554E-04
CGA:  16    -0.152547406880E+04   -0.49816E-04   -0.53052E-04   624   0.373E-03 0.339E-04
CGA:  17    -0.152547415576E+04   -0.86963E-04   -0.93493E-04   624   0.316E-03 0.844E-04
CGA:  18    -0.152547425078E+04   -0.95026E-04   -0.95896E-04   624   0.168E-03 0.142E-04
CGA:  19    -0.152547431656E+04   -0.65780E-04   -0.69560E-04   624   0.188E-03-0.417E-04
CGA:  20    -0.152547432910E+04   -0.12531E-04   -0.18614E-04   624   0.102E-03 0.344E-04
CGA:  21    -0.152547433561E+04   -0.65141E-05   -0.14090E-04   624   0.607E-04 0.421E-04
CGA:  22    -0.152547434444E+04   -0.88308E-05   -0.12924E-04   624   0.391E-04 0.297E-04
CGA:  23    -0.152547435392E+04   -0.94838E-05   -0.10077E-04   624   0.200E-04 0.536E-05
   6 F= -.15254744E+04 E0= -.15254744E+04  d E =-.112695E+00  mag=    16.0000
       N       E                     dE             d eps       ncg     rms          ort
SDA:   1    -0.151826706429E+04    0.72073E+01    0.00000E+00   624   0.192E+02 0.000E+00
CGA:   2    -0.152359370846E+04   -0.53266E+01   -0.53268E+01   624   0.679E+01-0.169E-01
CGA:   3    -0.152512074923E+04   -0.15270E+01   -0.15275E+01   624   0.152E+01 0.243E-02
CGA:   4    -0.152539419334E+04   -0.27344E+00   -0.27380E+00   624   0.309E+00 0.505E-02
CGA:   5    -0.152545939952E+04   -0.65206E-01   -0.65248E-01   624   0.803E-01 0.985E-03
CGA:   6    -0.152548080704E+04   -0.21408E-01   -0.21412E-01   624   0.304E-01-0.696E-03
CGA:   7    -0.152549023141E+04   -0.94244E-02   -0.94460E-02   624   0.147E-01-0.392E-03
CGA:   8    -0.152549529850E+04   -0.50671E-02   -0.51267E-02   624   0.720E-02-0.663E-03
CGA:   9    -0.152549736452E+04   -0.20660E-02   -0.20578E-02   624   0.237E-02 0.261E-03
CGA:  10    -0.152549818319E+04   -0.81868E-03   -0.84356E-03   624   0.124E-02-0.327E-03
CGA:  11    -0.152549841709E+04   -0.23390E-03   -0.24145E-03   624   0.490E-03 0.165E-03
CGA:  12    -0.152549859954E+04   -0.18245E-03   -0.18157E-03   624   0.265E-03 0.151E-04
CGA:  13    -0.152549871892E+04   -0.11938E-03   -0.15110E-03   624   0.460E-03-0.114E-03
CGA:  14    -0.152549873601E+04   -0.17094E-04   -0.30755E-04   624   0.304E-03 0.808E-04
CGA:  15    -0.152549875692E+04   -0.20902E-04   -0.39866E-04   624   0.171E-03 0.114E-03
CGA:  16    -0.152549879336E+04   -0.36439E-04   -0.41968E-04   624   0.145E-03 0.601E-04
CGA:  17    -0.152549884561E+04   -0.52256E-04   -0.52464E-04   624   0.174E-03-0.702E-04
CGA:  18    -0.152549885426E+04   -0.86496E-05   -0.10882E-04   624   0.215E-03 0.148E-04
CGA:  19    -0.152549887021E+04   -0.15945E-04   -0.29057E-04   624   0.141E-03 0.970E-04
CGA:  20    -0.152549888113E+04   -0.10924E-04   -0.23795E-04   624   0.924E-04 0.946E-04
CGA:  21    -0.152549866850E+04    0.21263E-03   -0.11845E-03   624   0.156E-02-0.266E-03
CGA:  22    -0.152549884122E+04   -0.17272E-03   -0.22446E-03   624   0.229E-03 0.184E-03
CGA:  23    -0.152549891962E+04   -0.78402E-04   -0.79667E-04   624   0.534E-04 0.106E-04
CGA:  24    -0.152549894181E+04   -0.22189E-04   -0.19397E-04   624   0.651E-04-0.353E-04
CGA:  25    -0.152549893986E+04    0.19461E-05   -0.60612E-05   624   0.128E-04 0.247E-04
   7 F= -.15254989E+04 E0= -.15254989E+04  d E =-.245859E-01  mag=    16.0000
       N       E                     dE             d eps       ncg     rms          ort
SDA:   1    -0.152334301458E+04    0.21559E+01    0.00000E+00   624   0.552E+01 0.000E+00
CGA:   2    -0.152506746963E+04   -0.17245E+01   -0.17244E+01   624   0.194E+01 0.605E-03
CGA:   3    -0.152545967511E+04   -0.39221E+00   -0.39192E+00   624   0.418E+00-0.267E-02
CGA:   4    -0.152553703705E+04   -0.77362E-01   -0.77280E-01   624   0.821E-01 0.113E-03
CGA:   5    -0.152555407512E+04   -0.17038E-01   -0.17059E-01   624   0.198E-01 0.172E-03
CGA:   6    -0.152555885760E+04   -0.47825E-02   -0.47924E-02   624   0.579E-02 0.881E-04
CGA:   7    -0.152556050811E+04   -0.16505E-02   -0.16454E-02   624   0.221E-02-0.707E-04
CGA:   8    -0.152556129142E+04   -0.78331E-03   -0.78572E-03   624   0.110E-02-0.225E-03
CGA:   9    -0.152556156097E+04   -0.26955E-03   -0.27217E-03   624   0.361E-03 0.369E-04
CGA:  10    -0.152556167631E+04   -0.11534E-03   -0.11362E-03   624   0.179E-03-0.411E-04
CGA:  11    -0.152556171177E+04   -0.35469E-04   -0.37748E-04   624   0.777E-04 0.219E-04
CGA:  12    -0.152556174202E+04   -0.30248E-04   -0.30171E-04   624   0.542E-04 0.987E-05
CGA:  13    -0.152556177512E+04   -0.33099E-04   -0.34396E-04   624   0.103E-03-0.662E-05
CGA:  14    -0.152556178487E+04   -0.97466E-05   -0.16489E-04   624   0.719E-04 0.393E-04
CGA:  15    -0.152556179521E+04   -0.10340E-04   -0.17444E-04   624   0.504E-04 0.419E-04
CGA:  16    -0.152556179378E+04    0.14289E-05   -0.40234E-04   624   0.478E-03-0.892E-04
CGA:  17    -0.152556182352E+04   -0.29742E-04   -0.50228E-04   624   0.294E-04 0.851E-04
CGA:  18    -0.152556182208E+04    0.14457E-05   -0.31517E-05   624   0.148E-04 0.182E-04
   8 F= -.15255618E+04 E0= -.15255618E+04  d E =-.628822E-01  mag=    16.0000
       N       E                     dE             d eps       ncg     rms          ort
SDA:   1    -0.152347767445E+04    0.20841E+01    0.00000E+00   624   0.544E+01 0.000E+00
CGA:   2    -0.152512722049E+04   -0.16495E+01   -0.16494E+01   624   0.179E+01-0.932E-02
CGA:   3    -0.152551431937E+04   -0.38710E+00   -0.38744E+00   624   0.382E+00 0.392E-02
CGA:   4    -0.152558559514E+04   -0.71276E-01   -0.71583E-01   624   0.760E-01 0.226E-02
CGA:   5    -0.152560168899E+04   -0.16094E-01   -0.16110E-01   624   0.193E-01 0.199E-03
CGA:   6    -0.152560659535E+04   -0.49064E-02   -0.48884E-02   624   0.653E-02-0.301E-03
CGA:   7    -0.152560855876E+04   -0.19634E-02   -0.19627E-02   624   0.294E-02-0.311E-03
CGA:   8    -0.152560947101E+04   -0.91225E-03   -0.91233E-03   624   0.122E-02-0.320E-05
CGA:   9    -0.152560984282E+04   -0.37181E-03   -0.37196E-03   624   0.410E-03 0.634E-04
CGA:  10    -0.152560998299E+04   -0.14017E-03   -0.14039E-03   624   0.190E-03-0.124E-04
CGA:  11    -0.152561004847E+04   -0.65479E-04   -0.66728E-04   624   0.138E-03-0.233E-04
CGA:  12    -0.152561009473E+04   -0.46264E-04   -0.48187E-04   624   0.114E-03-0.224E-04
CGA:  13    -0.152561012068E+04   -0.25946E-04   -0.26852E-04   624   0.520E-04 0.249E-04
CGA:  14    -0.152561014466E+04   -0.23984E-04   -0.23541E-04   624   0.376E-04 0.729E-05
CGA:  15    -0.152561016073E+04   -0.16065E-04   -0.16086E-04   624   0.435E-04-0.730E-06
CGA:  16    -0.152561017493E+04   -0.14206E-04   -0.14125E-04   624   0.314E-04 0.649E-05
CGA:  17    -0.152561019503E+04   -0.20096E-04   -0.21080E-04   624   0.667E-04-0.513E-05
CGA:  18    -0.152561020729E+04   -0.12264E-04   -0.12650E-04   624   0.460E-04 0.119E-05
CGA:  19    -0.152561021785E+04   -0.10555E-04   -0.11306E-04   624   0.420E-04 0.693E-05
CGA:  20    -0.152561023142E+04   -0.13572E-04   -0.13308E-04   624   0.213E-04-0.725E-05
CGA:  21    -0.152561008172E+04    0.14970E-03   -0.80600E-04   624   0.820E-03-0.111E-03
CGA:  22    -0.152561018610E+04   -0.10439E-03   -0.13272E-03   624   0.111E-03 0.704E-04
CGA:  23    -0.152561024190E+04   -0.55801E-04   -0.53009E-04   624   0.524E-04-0.218E-04
CGA:  24    -0.152561024776E+04   -0.58536E-05   -0.87680E-05   624   0.214E-04 0.837E-05
   9 F= -.15256102E+04 E0= -.15256102E+04  d E =-.484257E-01  mag=    16.0000
       N       E                     dE             d eps       ncg     rms          ort
SDA:   1    -0.152257816172E+04    0.30321E+01    0.00000E+00   624   0.750E+01 0.000E+00
CGA:   2    -0.152499934421E+04   -0.24212E+01   -0.24206E+01   624   0.247E+01-0.612E-02
CGA:   3    -0.152551483068E+04   -0.51549E+00   -0.51596E+00   624   0.493E+00 0.280E-02
CGA:   4    -0.152560632433E+04   -0.91494E-01   -0.92016E-01   624   0.101E+00 0.189E-02
CGA:   5    -0.152562768140E+04   -0.21357E-01   -0.21380E-01   624   0.246E-01 0.127E-03
CGA:   6    -0.152563376688E+04   -0.60855E-02   -0.60422E-02   624   0.751E-02-0.190E-03
CGA:   7    -0.152563593889E+04   -0.21720E-02   -0.21569E-02   624   0.310E-02-0.864E-04
CGA:   8    -0.152563690887E+04   -0.96998E-03   -0.97510E-03   624   0.132E-02 0.400E-04
CGA:   9    -0.152563729947E+04   -0.39060E-03   -0.40069E-03   624   0.483E-03 0.709E-04
CGA:  10    -0.152563745775E+04   -0.15828E-03   -0.15648E-03   624   0.227E-03-0.130E-04
CGA:  11    -0.152563752478E+04   -0.67033E-04   -0.68323E-04   624   0.121E-03 0.107E-04
CGA:  12    -0.152563758923E+04   -0.64447E-04   -0.67255E-04   624   0.166E-03-0.276E-04
CGA:  13    -0.152563762263E+04   -0.33399E-04   -0.37221E-04   624   0.116E-03 0.264E-04
CGA:  14    -0.152563766869E+04   -0.46060E-04   -0.47130E-04   624   0.764E-04 0.131E-04
CGA:  15    -0.152563770795E+04   -0.39261E-04   -0.41153E-04   624   0.148E-03-0.304E-04
CGA:  16    -0.152563771930E+04   -0.11354E-04   -0.14451E-04   624   0.111E-03 0.104E-04
CGA:  17    -0.152563772994E+04   -0.10636E-04   -0.16740E-04   624   0.751E-04 0.220E-04
CGA:  18    -0.152563775342E+04   -0.23480E-04   -0.24073E-04   624   0.784E-04 0.331E-05
CGA:  19    -0.152563777905E+04   -0.25635E-04   -0.20355E-04   624   0.811E-04-0.383E-04
CGA:  20    -0.152563779107E+04   -0.12014E-04   -0.98916E-05   624   0.101E-03-0.162E-04
CGA:  21    -0.152563779901E+04   -0.79419E-05   -0.10274E-04   624   0.520E-04 0.842E-05
  10 F= -.15256378E+04 E0= -.15256378E+04  d E =-.275513E-01  mag=    16.0000
       N       E                     dE             d eps       ncg     rms          ort
SDA:   1    -0.151397198717E+04    0.11666E+02    0.00000E+00   624   0.284E+02 0.000E+00
CGA:   2    -0.152317866677E+04   -0.92067E+01   -0.92061E+01   624   0.964E+01-0.122E-01
CGA:   3    -0.152513760402E+04   -0.19589E+01   -0.19572E+01   624   0.194E+01 0.605E-02
CGA:   4    -0.152549734937E+04   -0.35975E+00   -0.35981E+00   624   0.398E+00 0.434E-02
CGA:   5    -0.152558246351E+04   -0.85114E-01   -0.85140E-01   624   0.972E-01 0.410E-03
CGA:   6    -0.152560607961E+04   -0.23616E-01   -0.23603E-01   624   0.290E-01-0.149E-03
CGA:   7    -0.152561451643E+04   -0.84368E-02   -0.84224E-02   624   0.117E-01-0.421E-03
CGA:   8    -0.152561830835E+04   -0.37919E-02   -0.37926E-02   624   0.495E-02-0.141E-03
CGA:   9    -0.152561992443E+04   -0.16161E-02   -0.16183E-02   624   0.205E-02-0.284E-03
CGA:  10    -0.152562046854E+04   -0.54411E-03   -0.53917E-03   624   0.887E-03-0.105E-03
CGA:  11    -0.152562072918E+04   -0.26064E-03   -0.25973E-03   624   0.491E-03-0.690E-04
CGA:  12    -0.152562092896E+04   -0.19978E-03   -0.25894E-03   624   0.878E-03-0.237E-03
CGA:  13    -0.152562104887E+04   -0.11991E-03   -0.11538E-03   624   0.626E-03-0.586E-04
CGA:  14    -0.152562123420E+04   -0.18533E-03   -0.18423E-03   624   0.558E-03-0.839E-04
CGA:  15    -0.152562137186E+04   -0.13765E-03   -0.12654E-03   624   0.420E-03-0.168E-03
CGA:  16    -0.152562146228E+04   -0.90427E-04   -0.90059E-04   624   0.281E-03-0.237E-04
CGA:  17    -0.152562150950E+04   -0.47214E-04   -0.51983E-04   624   0.179E-03 0.362E-04
CGA:  18    -0.152562157976E+04   -0.70262E-04   -0.70695E-04   624   0.149E-03-0.151E-04
CGA:  19    -0.152562162417E+04   -0.44409E-04   -0.44638E-04   624   0.166E-03-0.291E-04
CGA:  20    -0.152562165171E+04   -0.27545E-04   -0.28947E-04   624   0.997E-04 0.126E-04
CGA:  21    -0.152562167738E+04   -0.25665E-04   -0.25288E-04   624   0.712E-04-0.528E-05
CGA:  22    -0.152562168131E+04   -0.39381E-05   -0.40999E-04   624   0.244E-03-0.126E-03
CGA:  23    -0.152562170790E+04   -0.26585E-04   -0.36174E-04   624   0.553E-04 0.555E-04
CGA:  24    -0.152562172850E+04   -0.20601E-04   -0.20593E-04   624   0.191E-04-0.582E-06
CGA:  25    -0.152562174610E+04   -0.17601E-04    0.63205E-05   624   0.195E-04-0.469E-05
CGA:  26    -0.152562175185E+04   -0.57526E-05   -0.64469E-05   624   0.258E-04-0.569E-05
  11 F= -.15256218E+04 E0= -.15256218E+04  d E =0.160472E-01  mag=    16.0000
       N       E                     dE             d eps       ncg     rms          ort
SDA:   1    -0.152243684371E+04    0.31849E+01    0.00000E+00   624   0.827E+01 0.000E+00
CGA:   2    -0.152484434866E+04   -0.24075E+01   -0.24072E+01   624   0.302E+01-0.111E-01
CGA:   3    -0.152549181651E+04   -0.64747E+00   -0.64775E+00   624   0.653E+00 0.358E-02
CGA:   4    -0.152561167758E+04   -0.11986E+00   -0.12017E+00   624   0.131E+00 0.268E-02
CGA:   5    -0.152563959797E+04   -0.27920E-01   -0.27958E-01   624   0.341E-01 0.416E-03
CGA:   6    -0.152564814523E+04   -0.85473E-02   -0.85345E-02   624   0.120E-01-0.244E-03
CGA:   7    -0.152565158341E+04   -0.34382E-02   -0.34369E-02   624   0.498E-02-0.135E-03
CGA:   8    -0.152565318510E+04   -0.16017E-02   -0.16011E-02   624   0.218E-02 0.220E-04
CGA:   9    -0.152565384014E+04   -0.65505E-03   -0.65500E-03   624   0.792E-03 0.937E-04
CGA:  10    -0.152565410234E+04   -0.26220E-03   -0.26256E-03   624   0.354E-03-0.188E-04
CGA:  11    -0.152565420623E+04   -0.10388E-03   -0.10387E-03   624   0.167E-03 0.335E-04
CGA:  12    -0.152565428604E+04   -0.79815E-04   -0.83233E-04   624   0.161E-03-0.224E-04
CGA:  13    -0.152565431922E+04   -0.33180E-04   -0.35506E-04   624   0.877E-04 0.435E-04
CGA:  14    -0.152565435711E+04   -0.37883E-04   -0.37523E-04   624   0.588E-04 0.109E-04
CGA:  15    -0.152565438638E+04   -0.29273E-04   -0.32447E-04   624   0.111E-03-0.178E-04
CGA:  16    -0.152565439359E+04   -0.72157E-05   -0.11709E-04   624   0.860E-04 0.266E-04
CGA:  17    -0.152565440237E+04   -0.87787E-05   -0.14865E-04   624   0.571E-04 0.357E-04
CGA:  18    -0.152565442371E+04   -0.21339E-04   -0.21743E-04   624   0.582E-04 0.125E-04
CGA:  19    -0.152565444550E+04   -0.21790E-04   -0.22534E-04   624   0.944E-04-0.383E-04
CGA:  20    -0.152565445352E+04   -0.80226E-05   -0.13328E-04   624   0.259E-04 0.340E-04
  12 F= -.15256545E+04 E0= -.15256545E+04  d E =-.327017E-01  mag=    16.0000
       N       E                     dE             d eps       ncg     rms          ort
SDA:   1    -0.152379272991E+04    0.18617E+01    0.00000E+00   624   0.456E+01 0.000E+00
CGA:   2    -0.152529675182E+04   -0.15040E+01   -0.15038E+01   624   0.153E+01 0.440E-02
CGA:   3    -0.152561231799E+04   -0.31557E+00   -0.31530E+00   624   0.321E+00-0.282E-02
CGA:   4    -0.152567241175E+04   -0.60094E-01   -0.60101E-01   624   0.655E-01 0.316E-03
CGA:   5    -0.152568640366E+04   -0.13992E-01   -0.13987E-01   624   0.167E-01-0.591E-04
CGA:   6    -0.152569053073E+04   -0.41271E-02   -0.41213E-02   624   0.532E-02-0.188E-03
CGA:   7    -0.152569197075E+04   -0.14400E-02   -0.14401E-02   624   0.201E-02 0.536E-04
CGA:   8    -0.152569262206E+04   -0.65131E-03   -0.65303E-03   624   0.862E-03-0.354E-04
CGA:   9    -0.152569285677E+04   -0.23471E-03   -0.23474E-03   624   0.279E-03 0.648E-04
CGA:  10    -0.152569295613E+04   -0.99363E-04   -0.10233E-03   624   0.149E-03-0.465E-04
CGA:  11    -0.152569298038E+04   -0.24241E-04   -0.26387E-04   624   0.592E-04 0.316E-04
CGA:  12    -0.152569299022E+04   -0.98428E-05   -0.12954E-04   624   0.304E-04 0.323E-04
CGA:  13    -0.152569300103E+04   -0.10812E-04   -0.10284E-04   624   0.262E-04 0.805E-05
CGA:  14    -0.152569300269E+04   -0.16608E-05   -0.47973E-05   624   0.148E-04 0.239E-04
  13 F= -.15256930E+04 E0= -.15256930E+04  d E =-.385492E-01  mag=    16.0000
       N       E                     dE             d eps       ncg     rms          ort
SDA:   1    -0.152536391091E+04    0.32909E+00    0.00000E+00   624   0.800E+00 0.000E+00
CGA:   2    -0.152562848027E+04   -0.26457E+00   -0.26476E+00   624   0.276E+00-0.276E-02
CGA:   3    -0.152568399397E+04   -0.55514E-01   -0.55573E-01   624   0.546E-01 0.100E-02
CGA:   4    -0.152569431650E+04   -0.10323E-01   -0.10298E-01   624   0.113E-01-0.310E-03
CGA:   5    -0.152569669976E+04   -0.23833E-02   -0.23814E-02   624   0.283E-02-0.381E-04
CGA:   6    -0.152569739299E+04   -0.69324E-03   -0.69285E-03   624   0.882E-03-0.355E-04
CGA:   7    -0.152569764510E+04   -0.25211E-03   -0.25360E-03   624   0.363E-03-0.418E-04
CGA:   8    -0.152569774378E+04   -0.98678E-04   -0.97688E-04   624   0.127E-03 0.394E-04
CGA:   9    -0.152569776810E+04   -0.24314E-04   -0.10153E-03   624   0.413E-03-0.166E-03
CGA:  10    -0.152569781382E+04   -0.45727E-04   -0.58993E-04   624   0.560E-04 0.962E-04
CGA:  11    -0.152569782994E+04   -0.16121E-04   -0.16180E-04   624   0.179E-04 0.142E-05
CGA:  12    -0.152569784049E+04   -0.10546E-04    0.48950E-04   624   0.114E-04 0.451E-05
CGA:  13    -0.152569784516E+04   -0.46665E-05   -0.45211E-05   624   0.893E-05 0.322E-05
CGA:  14    -0.152569785219E+04   -0.70332E-05    0.13632E-04   624   0.655E-05 0.578E-05
  14 F= -.15256979E+04 E0= -.15256979E+04  d E =-.484950E-02  mag=    16.0000
       N       E                     dE             d eps       ncg     rms          ort
SDA:   1    -0.152266554005E+04    0.30323E+01    0.00000E+00   624   0.728E+01 0.000E+00
CGA:   2    -0.152512814685E+04   -0.24626E+01   -0.24630E+01   624   0.224E+01-0.733E-02
CGA:   3    -0.152559938097E+04   -0.47123E+00   -0.47124E+00   624   0.414E+00 0.983E-03
CGA:   4    -0.152567639834E+04   -0.77017E-01   -0.77086E-01   624   0.898E-01 0.114E-02
CGA:   5    -0.152569543404E+04   -0.19036E-01   -0.19026E-01   624   0.213E-01-0.122E-03
CGA:   6    -0.152570059615E+04   -0.51621E-02   -0.51613E-02   624   0.629E-02-0.193E-04
CGA:   7    -0.152570240919E+04   -0.18130E-02   -0.18131E-02   624   0.257E-02-0.185E-05
CGA:   8    -0.152570324263E+04   -0.83344E-03   -0.82904E-03   624   0.107E-02 0.949E-04
CGA:   9    -0.152570364075E+04   -0.39812E-03   -0.40938E-03   624   0.518E-03-0.123E-03
CGA:  10    -0.152570373626E+04   -0.95507E-04   -0.10089E-03   624   0.163E-03 0.860E-04
CGA:  11    -0.152570378840E+04   -0.52138E-04   -0.52241E-04   624   0.742E-04 0.225E-04
CGA:  12    -0.152570382881E+04   -0.40417E-04   -0.52008E-04   624   0.147E-03-0.352E-04
CGA:  13    -0.152570383768E+04   -0.88682E-05   -0.11257E-04   624   0.124E-03 0.151E-04
CGA:  14    -0.152570385693E+04   -0.19252E-04   -0.22792E-04   624   0.815E-04 0.282E-04
CGA:  15    -0.152570388596E+04   -0.29027E-04   -0.29200E-04   624   0.645E-04-0.210E-04
CGA:  16    -0.152570390037E+04   -0.14407E-04   -0.19712E-04   624   0.122E-03-0.430E-04
CGA:  17    -0.152570391244E+04   -0.12075E-04   -0.17898E-04   624   0.348E-04 0.411E-04
CGA:  18    -0.152570392635E+04   -0.13905E-04   -0.13837E-04   624   0.208E-04 0.458E-05
CGA:  19    -0.152570394276E+04   -0.16412E-04    0.14373E-04   624   0.230E-04-0.202E-05
CGA:  20    -0.152570394490E+04   -0.21400E-05   -0.22305E-04   624   0.743E-04-0.263E-04
CGA:  21    -0.152570395664E+04   -0.11744E-04   -0.14702E-04   624   0.237E-04 0.237E-04
CGA:  22    -0.152570396695E+04   -0.10304E-04   -0.21829E-04   624   0.502E-04-0.301E-04
CGA:  23    -0.152570397035E+04   -0.34002E-05   -0.75864E-05   624   0.143E-04 0.227E-04
  15 F= -.15257040E+04 E0= -.15257040E+04  d E =-.611816E-02  mag=    16.0000
       N       E                     dE             d eps       ncg     rms          ort
SDA:   1    -0.149899604470E+04    0.26708E+02    0.00000E+00   624   0.644E+02 0.000E+00
CGA:   2    -0.151765464146E+04   -0.18659E+02   -0.18655E+02   624   0.271E+02 0.174E-01
CGA:   3    -0.152302100162E+04   -0.53664E+01   -0.53774E+01   624   0.577E+01 0.106E-01
CGA:   4    -0.152412147923E+04   -0.11005E+01   -0.10625E+01   624   0.110E+01 0.196E+00
CGA:   5    -0.152436752003E+04   -0.24604E+00   -0.24658E+00   624   0.291E+00 0.641E-02
CGA:   6    -0.152444097670E+04   -0.73457E-01   -0.73401E-01   624   0.103E+00-0.119E-02
CGA:   7    -0.152446776820E+04   -0.26792E-01   -0.26824E-01   624   0.389E-01 0.112E-02
CGA:   8    -0.152447947794E+04   -0.11710E-01   -0.11710E-01   624   0.204E-01-0.102E-02
CGA:   9    -0.152448382836E+04   -0.43504E-02   -0.44946E-02   624   0.745E-02 0.218E-02
CGA:  10    -0.152448630930E+04   -0.24809E-02   -0.24782E-02   624   0.331E-02 0.425E-03
CGA:  11    -0.152448756599E+04   -0.12567E-02   -0.12313E-02   624   0.245E-02 0.421E-03
CGA:  12    -0.152448835572E+04   -0.78973E-03   -0.79740E-03   624   0.182E-02 0.956E-03
CGA:  13    -0.152448960944E+04   -0.12537E-02   -0.11285E-02   624   0.189E-02 0.791E-03
CGA:  14    -0.152449079774E+04   -0.11883E-02   -0.10710E-02   624   0.180E-02 0.121E-02
CGA:  15    -0.152449121804E+04   -0.42030E-03   -0.43428E-03   624   0.111E-02 0.213E-03
CGA:  16    -0.152449153166E+04   -0.31362E-03   -0.32874E-03   624   0.591E-03 0.370E-03
CGA:  17    -0.152449204547E+04   -0.51382E-03   -0.43138E-03   624   0.102E-02 0.320E-03
CGA:  18    -0.152449218506E+04   -0.13959E-03   -0.17090E-03   624   0.419E-03 0.220E-03
CGA:  19    -0.152449253860E+04   -0.35354E-03   -0.29957E-03   624   0.658E-03 0.184E-03
CGA:  20    -0.152449300667E+04   -0.46807E-03   -0.44712E-03   624   0.159E-02 0.127E-03
CGA:  21    -0.152449374765E+04   -0.74097E-03   -0.70506E-03   624   0.174E-02 0.766E-03
CGA:  22    -0.152449416846E+04   -0.42081E-03   -0.51009E-03   624   0.890E-03 0.569E-03
CGA:  23    -0.152449450315E+04   -0.33470E-03   -0.34558E-03   624   0.458E-03 0.279E-03
CGA:  24    -0.152449460420E+04   -0.10104E-03   -0.11830E-03   624   0.210E-03 0.125E-03
CGA:  25    -0.152449462599E+04   -0.21792E-04   -0.44355E-04   624   0.119E-03 0.145E-03
CGA:  26    -0.152449463746E+04   -0.11470E-04   -0.19882E-04   624   0.628E-04 0.591E-04
CGA:  27    -0.152449463950E+04   -0.20451E-05   -0.13576E-04   624   0.558E-04 0.726E-04
  16 F= -.15244946E+04 E0= -.15244946E+04  d E =0.120933E+01  mag=    16.0000
       N       E                     dE             d eps       ncg     rms          ort
SDA:   1    -0.151821284376E+04    0.62818E+01    0.00000E+00   624   0.181E+02 0.000E+00
CGA:   2    -0.152367193874E+04   -0.54591E+01   -0.54584E+01   624   0.719E+01 0.249E-01
CGA:   3    -0.152514977949E+04   -0.14778E+01   -0.14773E+01   624   0.167E+01-0.546E-02
CGA:   4    -0.152548139953E+04   -0.33162E+00   -0.33126E+00   624   0.333E+00-0.372E-02
CGA:   5    -0.152555252625E+04   -0.71127E-01   -0.71057E-01   624   0.974E-01-0.968E-03
CGA:   6    -0.152557680377E+04   -0.24278E-01   -0.24273E-01   624   0.353E-01-0.174E-03
CGA:   7    -0.152558683121E+04   -0.10027E-01   -0.10028E-01   624   0.129E-01-0.399E-04
CGA:   8    -0.152559120598E+04   -0.43748E-02   -0.44494E-02   624   0.634E-02-0.107E-02
CGA:   9    -0.152559309533E+04   -0.18893E-02   -0.19418E-02   624   0.309E-02-0.943E-03
CGA:  10    -0.152559399886E+04   -0.90353E-03   -0.95471E-03   624   0.202E-02-0.632E-03
CGA:  11    -0.152559461840E+04   -0.61954E-03   -0.68531E-03   624   0.198E-02-0.465E-03
CGA:  12    -0.152559529546E+04   -0.67706E-03   -0.89083E-03   624   0.281E-02-0.739E-03
CGA:  13    -0.152559600371E+04   -0.70826E-03   -0.87248E-03   624   0.267E-02-0.889E-03
CGA:  14    -0.152559665096E+04   -0.64724E-03   -0.68229E-03   624   0.156E-02-0.634E-03
CGA:  15    -0.152559702786E+04   -0.37690E-03   -0.37665E-03   624   0.743E-03-0.718E-04
CGA:  16    -0.152559721881E+04   -0.19095E-03   -0.19803E-03   624   0.357E-03 0.174E-03
CGA:  17    -0.152559731978E+04   -0.10098E-03   -0.11260E-03   624   0.203E-03 0.187E-03
CGA:  18    -0.152559737459E+04   -0.54805E-04   -0.57658E-04   624   0.130E-03 0.951E-04
CGA:  19    -0.152559741759E+04   -0.43001E-04   -0.49333E-04   624   0.858E-04 0.117E-03
CGA:  20    -0.152559743606E+04   -0.18468E-04   -0.21899E-04   624   0.623E-04 0.625E-04
CGA:  21    -0.152559745589E+04   -0.19839E-04   -0.19519E-04   624   0.557E-04 0.524E-04
CGA:  22    -0.152559746909E+04   -0.13191E-04   -0.14882E-04   624   0.534E-04 0.419E-04
CGA:  23    -0.152559748061E+04   -0.11524E-04   -0.13337E-04   624   0.531E-04 0.326E-04
CGA:  24    -0.152559749123E+04   -0.10621E-04   -0.12362E-04   624   0.520E-04 0.249E-04
CGA:  25    -0.152559751470E+04   -0.23464E-04   -0.23181E-04   624   0.373E-04 0.665E-04
CGA:  26    -0.152559752404E+04   -0.93443E-05   -0.99391E-05   624   0.413E-04 0.179E-04
CGA:  27    -0.152559755511E+04   -0.31075E-04   -0.25083E-04   624   0.257E-04 0.527E-04
CGA:  28    -0.152559756535E+04   -0.10234E-04   -0.92836E-05   624   0.312E-04 0.163E-04
CGA:  29    -0.152559757625E+04   -0.10904E-04   -0.10773E-04   624   0.509E-04 0.342E-05
CGA:  30    -0.152559763315E+04   -0.56896E-04   -0.39359E-04   624   0.419E-04 0.439E-04
CGA:  31    -0.152559764108E+04   -0.79301E-05   -0.89575E-05   624   0.186E-04 0.896E-05
  17 F= -.15255976E+04 E0= -.15255976E+04  d E =-.110300E+01  mag=    16.0000
       N       E                     dE             d eps       ncg     rms          ort
SDA:   1    -0.152530364561E+04    0.29399E+00    0.00000E+00   624   0.959E+00 0.000E+00
CGA:   2    -0.152557726229E+04   -0.27362E+00   -0.27370E+00   624   0.403E+00 0.426E-03
CGA:   3    -0.152566010255E+04   -0.82840E-01   -0.82873E-01   624   0.909E-01 0.297E-03
CGA:   4    -0.152567769838E+04   -0.17596E-01   -0.17581E-01   624   0.196E-01-0.137E-05
CGA:   5    -0.152568173050E+04   -0.40321E-02   -0.40417E-02   624   0.510E-02 0.342E-04
CGA:   6    -0.152568301297E+04   -0.12825E-02   -0.12968E-02   624   0.185E-02 0.543E-04
CGA:   7    -0.152568353297E+04   -0.52000E-03   -0.53189E-03   624   0.716E-03 0.533E-04
CGA:   8    -0.152568378453E+04   -0.25156E-03   -0.25350E-03   624   0.371E-03 0.122E-04
CGA:   9    -0.152568394551E+04   -0.16099E-03   -0.15814E-03   624   0.293E-03-0.426E-04
CGA:  10    -0.152568403712E+04   -0.91610E-04   -0.92670E-04   624   0.220E-03 0.745E-05
CGA:  11    -0.152568416884E+04   -0.13172E-03   -0.15364E-03   624   0.586E-03-0.111E-03
CGA:  12    -0.152568426100E+04   -0.92155E-04   -0.10585E-03   624   0.156E-03 0.473E-04
CGA:  13    -0.152568433963E+04   -0.78625E-04   -0.77801E-04   624   0.229E-03-0.718E-04
CGA:  14    -0.152568438664E+04   -0.47011E-04   -0.42481E-04   624   0.197E-03-0.352E-04
CGA:  15    -0.152568444509E+04   -0.58455E-04   -0.54824E-04   624   0.169E-03-0.273E-04
CGA:  16    -0.152568451173E+04   -0.66643E-04   -0.63976E-04   624   0.329E-03-0.134E-03
CGA:  17    -0.152568455804E+04   -0.46309E-04   -0.56713E-04   624   0.954E-04 0.384E-04
CGA:  18    -0.152568460330E+04   -0.45257E-04   -0.44619E-04   624   0.624E-04-0.260E-04
CGA:  19    -0.152568463434E+04   -0.31039E-04   -0.37173E-04   624   0.573E-04-0.165E-04
CGA:  20    -0.152568464630E+04   -0.11958E-04   -0.11541E-04   624   0.369E-04-0.221E-05
CGA:  21    -0.152568465095E+04   -0.46506E-05   -0.36279E-04   624   0.194E-03-0.558E-04
CGA:  22    -0.152568468674E+04   -0.35795E-04   -0.40239E-04   624   0.666E-04 0.174E-04
CGA:  23    -0.152568471021E+04   -0.23468E-04   -0.21333E-04   624   0.146E-04-0.121E-04
CGA:  24    -0.152568471636E+04   -0.61533E-05   -0.68114E-05   624   0.311E-04-0.582E-05
CGA:  25    -0.152568472429E+04   -0.79296E-05   -0.11290E-04   624   0.470E-04-0.243E-04
CGA:  26    -0.152568473857E+04   -0.14275E-04   -0.12060E-04   624   0.276E-04-0.993E-05
CGA:  27    -0.152568474395E+04   -0.53824E-05   -0.52269E-05   624   0.697E-05-0.607E-06
  18 F= -.15256847E+04 E0= -.15256847E+04  d E =-.871029E-01  mag=    16.0000
       N       E                     dE             d eps       ncg     rms          ort
SDA:   1    -0.152473089813E+04    0.95384E+00    0.00000E+00   624   0.266E+01 0.000E+00
CGA:   2    -0.152542949214E+04   -0.69859E+00   -0.69871E+00   624   0.115E+01 0.555E-03
CGA:   3    -0.152567229619E+04   -0.24280E+00   -0.24273E+00   624   0.255E+00 0.802E-03
CGA:   4    -0.152571969575E+04   -0.47400E-01   -0.47410E-01   624   0.532E-01 0.278E-04
CGA:   5    -0.152573064394E+04   -0.10948E-01   -0.10980E-01   624   0.129E-01 0.168E-03
CGA:   6    -0.152573380059E+04   -0.31567E-02   -0.31688E-02   624   0.428E-02 0.813E-04
CGA:   7    -0.152573501219E+04   -0.12116E-02   -0.12150E-02   624   0.156E-02 0.303E-04
CGA:   8    -0.152573549606E+04   -0.48387E-03   -0.48770E-03   624   0.673E-03 0.509E-04
CGA:   9    -0.152573573357E+04   -0.23751E-03   -0.23602E-03   624   0.387E-03-0.325E-04
CGA:  10    -0.152573582717E+04   -0.93601E-04   -0.96968E-04   624   0.190E-03 0.298E-04
CGA:  11    -0.152573591994E+04   -0.92771E-04   -0.98171E-04   624   0.240E-03-0.522E-04
CGA:  12    -0.152573598607E+04   -0.66133E-04   -0.66136E-04   624   0.212E-03 0.186E-05
CGA:  13    -0.152573608506E+04   -0.98993E-04   -0.10156E-03   624   0.205E-03-0.278E-04
CGA:  14    -0.152573616816E+04   -0.83093E-04   -0.99906E-04   624   0.261E-03-0.971E-04
CGA:  15    -0.152573619296E+04   -0.24801E-04   -0.24266E-04   624   0.151E-03-0.188E-05
CGA:  16    -0.152573622719E+04   -0.34230E-04   -0.32906E-04   624   0.818E-04-0.833E-05
CGA:  17    -0.152573625606E+04   -0.28877E-04   -0.29977E-04   624   0.151E-03-0.905E-04
CGA:  18    -0.152573627005E+04   -0.13988E-04   -0.21603E-04   624   0.355E-04 0.335E-04
CGA:  19    -0.152573628674E+04   -0.16686E-04   -0.16872E-04   624   0.268E-04-0.766E-05
CGA:  20    -0.152573630678E+04   -0.20038E-04    0.12763E-04   624   0.388E-04-0.907E-06
CGA:  21    -0.152573632318E+04   -0.16405E-04   -0.17598E-04   624   0.341E-04-0.117E-04
CGA:  22    -0.152573607636E+04    0.24682E-03   -0.13326E-03   624   0.775E-03-0.150E-03
CGA:  23    -0.152573626661E+04   -0.19025E-03   -0.18458E-03   624   0.222E-03-0.103E-04
CGA:  24    -0.152573630209E+04   -0.35483E-04   -0.47341E-04   624   0.647E-04 0.282E-04
CGA:  25    -0.152573632296E+04   -0.20869E-04   -0.25112E-04   624   0.378E-04 0.148E-04
CGA:  26    -0.152573634233E+04   -0.19369E-04   -0.20727E-04   624   0.499E-04 0.802E-05
CGA:  27    -0.152573634440E+04   -0.20747E-05   -0.12168E-04   624   0.134E-04 0.247E-04
  19 F= -.15257363E+04 E0= -.15257363E+04  d E =-.516005E-01  mag=    16.0000
       N       E                     dE             d eps       ncg     rms          ort
SDA:   1    -0.152565099596E+04    0.85346E-01    0.00000E+00   624   0.250E+00 0.000E+00
CGA:   2    -0.152571659396E+04   -0.65598E-01   -0.65591E-01   624   0.106E+00-0.252E-04
CGA:   3    -0.152573870315E+04   -0.22109E-01   -0.22154E-01   624   0.225E-01 0.178E-03
CGA:   4    -0.152574290766E+04   -0.42045E-02   -0.41635E-02   624   0.452E-02-0.112E-03
CGA:   5    -0.152574383564E+04   -0.92798E-03   -0.92456E-03   624   0.106E-02-0.102E-04
CGA:   6    -0.152574409930E+04   -0.26367E-03   -0.25922E-03   624   0.338E-03-0.171E-04
CGA:   7    -0.152574421402E+04   -0.11472E-03   -0.10598E-03   624   0.160E-03-0.512E-04
CGA:   8    -0.152574425706E+04   -0.43045E-04   -0.41525E-04   624   0.658E-04-0.864E-05
CGA:   9    -0.152574428691E+04   -0.29849E-04   -0.33186E-04   624   0.116E-03-0.539E-04
CGA:  10    -0.152574429804E+04   -0.11130E-04   -0.16077E-04   624   0.163E-04 0.152E-04
CGA:  11    -0.152574430657E+04   -0.85276E-05   -0.88785E-05   624   0.270E-04-0.156E-04
  20 F= -.15257443E+04 E0= -.15257443E+04  d E =-.796217E-02  mag=    16.0000
       N       E                     dE             d eps       ncg     rms          ort
SDA:   1    -0.152533545478E+04    0.40884E+00    0.00000E+00   624   0.106E+01 0.000E+00
CGA:   2    -0.152563483432E+04   -0.29938E+00   -0.29958E+00   624   0.427E+00 0.127E-02
CGA:   3    -0.152572278650E+04   -0.87952E-01   -0.87916E-01   624   0.873E-01-0.587E-04
CGA:   4    -0.152573913957E+04   -0.16353E-01   -0.16265E-01   624   0.179E-01-0.349E-03
CGA:   5    -0.152574276905E+04   -0.36295E-02   -0.36219E-02   624   0.422E-02-0.347E-04
CGA:   6    -0.152574378545E+04   -0.10164E-02   -0.10165E-02   624   0.127E-02 0.134E-05
CGA:   7    -0.152574416190E+04   -0.37645E-03   -0.37118E-03   624   0.512E-03-0.504E-04
CGA:   8    -0.152574432316E+04   -0.16126E-03   -0.16080E-03   624   0.222E-03-0.723E-05
CGA:   9    -0.152574441245E+04   -0.89292E-04   -0.91068E-04   624   0.146E-03-0.625E-04
CGA:  10    -0.152574443952E+04   -0.27069E-04   -0.26872E-04   624   0.583E-04-0.132E-05
CGA:  11    -0.152574446337E+04   -0.23850E-04   -0.26238E-04   624   0.733E-04-0.331E-04
CGA:  12    -0.152574447491E+04   -0.11539E-04   -0.13868E-04   624   0.158E-04 0.120E-04
CGA:  13    -0.152574448241E+04   -0.74945E-05   -0.76132E-05   624   0.223E-04-0.301E-05
  21 F= -.15257445E+04 E0= -.15257445E+04  d E =-.175838E-03  mag=    16.0000
       N       E                     dE             d eps       ncg     rms          ort
SDA:   1    -0.152563382494E+04    0.11065E+00    0.00000E+00   624   0.263E+00 0.000E+00
CGA:   2    -0.152571588639E+04   -0.82061E-01   -0.82167E-01   624   0.961E-01 0.182E-02
CGA:   3    -0.152573578468E+04   -0.19898E-01   -0.19772E-01   624   0.187E-01-0.733E-03
CGA:   4    -0.152573940305E+04   -0.36184E-02   -0.35265E-02   624   0.395E-02-0.537E-03
CGA:   5    -0.152574020035E+04   -0.79730E-03   -0.79163E-03   624   0.946E-03-0.384E-04
CGA:   6    -0.152574040205E+04   -0.20170E-03   -0.20848E-03   624   0.249E-03 0.559E-04
CGA:   7    -0.152574047547E+04   -0.73419E-04   -0.74111E-04   624   0.102E-03 0.122E-04
CGA:   8    -0.152574051691E+04   -0.41436E-04   -0.42264E-04   624   0.727E-04-0.140E-04
CGA:   9    -0.152574053199E+04   -0.15077E-04   -0.41329E-04   624   0.194E-03-0.817E-04
CGA:  10    -0.152574055587E+04   -0.23884E-04   -0.28617E-04   624   0.309E-04 0.236E-04
CGA:  11    -0.152574056384E+04   -0.79697E-05   -0.86615E-05   624   0.132E-04 0.737E-05
  22 F= -.15257406E+04 E0= -.15257406E+04  d E =0.391857E-02  mag=    16.0000
       N       E                     dE             d eps       ncg     rms          ort
SDA:   1    -0.152412759743E+04    0.16130E+01    0.00000E+00   624   0.388E+01 0.000E+00
CGA:   2    -0.152536174213E+04   -0.12341E+01   -0.12343E+01   624   0.143E+01 0.637E-02
CGA:   3    -0.152564961018E+04   -0.28787E+00   -0.28731E+00   624   0.265E+00-0.304E-02
CGA:   4    -0.152569900120E+04   -0.49391E-01   -0.49296E-01   624   0.551E-01-0.549E-03
CGA:   5    -0.152571041674E+04   -0.11416E-01   -0.11411E-01   624   0.132E-01-0.372E-04
CGA:   6    -0.152571346905E+04   -0.30523E-02   -0.30701E-02   624   0.366E-02 0.201E-03
CGA:   7    -0.152571447001E+04   -0.10010E-02   -0.10076E-02   624   0.133E-02 0.146E-03
CGA:   8    -0.152571493820E+04   -0.46819E-03   -0.46794E-03   624   0.637E-03 0.108E-04
CGA:   9    -0.152571512639E+04   -0.18819E-03   -0.18926E-03   624   0.228E-03 0.519E-04
CGA:  10    -0.152571520896E+04   -0.82573E-04   -0.83087E-04   624   0.120E-03-0.234E-04
CGA:  11    -0.152571522308E+04   -0.14117E-04   -0.19631E-04   624   0.490E-04 0.413E-04
CGA:  12    -0.152571523236E+04   -0.92803E-05   -0.12513E-04   624   0.291E-04 0.270E-04
CGA:  13    -0.152571524279E+04   -0.10425E-04   -0.20402E-04   624   0.161E-03-0.250E-04
CGA:  14    -0.152571524923E+04   -0.64474E-05   -0.15836E-04   624   0.189E-04 0.426E-04
  23 F= -.15257152E+04 E0= -.15257152E+04  d E =0.253146E-01  mag=    16.0000
       N       E                     dE             d eps       ncg     rms          ort
SDA:   1    -0.152515449499E+04    0.56075E+00    0.00000E+00   624   0.130E+01 0.000E+00
CGA:   2    -0.152560161927E+04   -0.44712E+00   -0.44710E+00   624   0.448E+00 0.915E-03
CGA:   3    -0.152568839521E+04   -0.86776E-01   -0.86588E-01   624   0.886E-01-0.136E-02
CGA:   4    -0.152570537049E+04   -0.16975E-01   -0.16917E-01   624   0.178E-01-0.537E-03
CGA:   5    -0.152570922289E+04   -0.38524E-02   -0.38536E-02   624   0.471E-02 0.204E-04
CGA:   6    -0.152571033445E+04   -0.11116E-02   -0.11133E-02   624   0.147E-02 0.348E-04
CGA:   7    -0.152571076857E+04   -0.43412E-03   -0.43477E-03   624   0.631E-03-0.760E-04
CGA:   8    -0.152571097443E+04   -0.20586E-03   -0.20991E-03   624   0.321E-03-0.623E-04
CGA:   9    -0.152571106532E+04   -0.90891E-04   -0.91931E-04   624   0.145E-03-0.358E-04
CGA:  10    -0.152571111102E+04   -0.45704E-04   -0.54256E-04   624   0.154E-03-0.650E-04
CGA:  11    -0.152571112801E+04   -0.16984E-04   -0.17560E-04   624   0.817E-04 0.689E-05
CGA:  12    -0.152571114767E+04   -0.19660E-04   -0.20297E-04   624   0.672E-04 0.117E-04
CGA:  13    -0.152571117320E+04   -0.25536E-04   -0.26194E-04   624   0.699E-04-0.128E-04
CGA:  14    -0.152571118440E+04   -0.11201E-04   -0.12608E-04   624   0.555E-04 0.200E-04
CGA:  15    -0.152571119158E+04   -0.71789E-05   -0.11103E-04   624   0.263E-04 0.293E-04
  24 F= -.15257112E+04 E0= -.15257112E+04  d E =0.405765E-02  mag=    16.0000
       N       E                     dE             d eps       ncg     rms          ort
SDA:   1    -0.152559676275E+04    0.11442E+00    0.00000E+00   624   0.296E+00 0.000E+00
CGA:   2    -0.152568872985E+04   -0.91967E-01   -0.91964E-01   624   0.111E+00 0.177E-03
CGA:   3    -0.152571129763E+04   -0.22568E-01   -0.22493E-01   624   0.228E-01-0.901E-03
CGA:   4    -0.152571553466E+04   -0.42370E-02   -0.42246E-02   624   0.453E-02-0.124E-03
CGA:   5    -0.152571646348E+04   -0.92881E-03   -0.92977E-03   624   0.110E-02 0.154E-04
CGA:   6    -0.152571671654E+04   -0.25306E-03   -0.25509E-03   624   0.306E-03 0.504E-04
CGA:   7    -0.152571679679E+04   -0.80249E-04   -0.80879E-04   624   0.106E-03 0.389E-04
CGA:   8    -0.152571683652E+04   -0.39731E-04   -0.39164E-04   624   0.544E-04 0.940E-05
CGA:   9    -0.152571685451E+04   -0.17994E-04   -0.17808E-04   624   0.250E-04 0.640E-05
CGA:  10    -0.152571686142E+04   -0.69047E-05   -0.70437E-05   624   0.109E-04 0.685E-05
  25 F= -.15257169E+04 E0= -.15257169E+04  d E =-.566983E-02  mag=    16.0000
       N       E                     dE             d eps       ncg     rms          ort
SDA:   1    -0.152516068749E+04    0.55617E+00    0.00000E+00   624   0.131E+01 0.000E+00
CGA:   2    -0.152560553207E+04   -0.44484E+00   -0.44473E+00   624   0.465E+00 0.178E-02
CGA:   3    -0.152569509027E+04   -0.89558E-01   -0.89353E-01   624   0.841E-01-0.246E-02
CGA:   4    -0.152571064662E+04   -0.15556E-01   -0.15563E-01   624   0.179E-01 0.117E-03
CGA:   5    -0.152571439171E+04   -0.37451E-02   -0.37507E-02   624   0.419E-02 0.103E-03
CGA:   6    -0.152571536406E+04   -0.97235E-03   -0.97384E-03   624   0.114E-02 0.482E-04
CGA:   7    -0.152571567422E+04   -0.31016E-03   -0.30975E-03   624   0.410E-03 0.484E-04
CGA:   8    -0.152571582142E+04   -0.14719E-03   -0.14795E-03   624   0.208E-03-0.887E-05
CGA:   9    -0.152571586949E+04   -0.48075E-04   -0.49154E-04   624   0.701E-04 0.452E-04
CGA:  10    -0.152571589815E+04   -0.28653E-04   -0.29135E-04   624   0.415E-04-0.638E-05
CGA:  11    -0.152571590658E+04   -0.84375E-05   -0.88712E-05   624   0.221E-04 0.129E-04
  26 F= -.15257159E+04 E0= -.15257159E+04  d E =0.954835E-03  mag=    16.0000
       N       E                     dE             d eps       ncg     rms          ort
SDA:   1    -0.149812031883E+04    0.27596E+02    0.00000E+00   624   0.677E+02 0.000E+00
CGA:   2    -0.151829614856E+04   -0.20176E+02   -0.20174E+02   624   0.249E+02 0.134E-01
CGA:   3    -0.152352574750E+04   -0.52296E+01   -0.52309E+01   624   0.551E+01 0.595E-02
CGA:   4    -0.152456715382E+04   -0.10414E+01   -0.10426E+01   624   0.114E+01 0.166E-01
CGA:   5    -0.152480631434E+04   -0.23916E+00   -0.23943E+00   624   0.299E+00 0.498E-02
CGA:   6    -0.152488354687E+04   -0.77233E-01   -0.77227E-01   624   0.107E+00-0.353E-02
CGA:   7    -0.152491453796E+04   -0.30991E-01   -0.31103E-01   624   0.432E-01-0.300E-02
CGA:   8    -0.152492807035E+04   -0.13532E-01   -0.13508E-01   624   0.172E-01 0.387E-03
CGA:   9    -0.152493361301E+04   -0.55427E-02   -0.55249E-02   624   0.626E-02 0.324E-03
CGA:  10    -0.152493574671E+04   -0.21337E-02   -0.21491E-02   624   0.322E-02-0.221E-03
CGA:  11    -0.152493684709E+04   -0.11004E-02   -0.11345E-02   624   0.274E-02-0.363E-03
CGA:  12    -0.152493771261E+04   -0.86552E-03   -0.87044E-03   624   0.206E-02-0.747E-04
CGA:  13    -0.152493866225E+04   -0.94964E-03   -0.92721E-03   624   0.155E-02 0.867E-04
CGA:  14    -0.152493947669E+04   -0.81444E-03   -0.79642E-03   624   0.132E-02 0.518E-04
CGA:  15    -0.152494005771E+04   -0.58102E-03   -0.57979E-03   624   0.134E-02-0.176E-04
CGA:  16    -0.152494062034E+04   -0.56263E-03   -0.57262E-03   624   0.118E-02-0.111E-03
CGA:  17    -0.152494116310E+04   -0.54276E-03   -0.55341E-03   624   0.983E-03-0.974E-04
CGA:  18    -0.152494152100E+04   -0.35790E-03   -0.36112E-03   624   0.682E-03-0.717E-04
CGA:  19    -0.152494175549E+04   -0.23448E-03   -0.23913E-03   624   0.425E-03-0.106E-03
CGA:  20    -0.152494184404E+04   -0.88555E-04   -0.93646E-04   624   0.186E-03 0.710E-04
CGA:  21    -0.152494191626E+04   -0.72218E-04   -0.71849E-04   624   0.118E-03 0.473E-04
CGA:  22    -0.152494195943E+04   -0.43166E-04   -0.44276E-04   624   0.975E-04 0.427E-04
CGA:  23    -0.152494200847E+04   -0.49044E-04   -0.47262E-04   624   0.791E-04 0.524E-04
CGA:  24    -0.152494206172E+04   -0.53250E-04    0.35787E-03   624   0.517E-04 0.199E-04
CGA:  25    -0.152494209556E+04   -0.33835E-04   -0.32752E-04   624   0.603E-04 0.545E-05
CGA:  26    -0.152494215610E+04   -0.60542E-04    0.30834E-04   624   0.450E-04 0.363E-04
CGA:  27    -0.152494216617E+04   -0.10069E-04   -0.11595E-04   624   0.219E-04 0.200E-04
CGA:  28    -0.152494219019E+04   -0.24018E-04    0.35553E-04   624   0.141E-04 0.122E-04
CGA:  29    -0.152494219387E+04   -0.36839E-05   -0.40872E-05   624   0.118E-04 0.993E-05
  27 F= -.15249422E+04 E0= -.15249422E+04  d E =0.773713E+00  mag=    16.0000
       N       E                     dE             d eps       ncg     rms          ort
SDA:   1    -0.151419651753E+04    0.10746E+02    0.00000E+00   624   0.287E+02 0.000E+00
CGA:   2    -0.152273636527E+04   -0.85398E+01   -0.85409E+01   624   0.106E+02 0.260E-01
CGA:   3    -0.152494404945E+04   -0.22077E+01   -0.22048E+01   624   0.265E+01-0.164E-01
CGA:   4    -0.152547572784E+04   -0.53168E+00   -0.53097E+00   624   0.550E+00-0.783E-02
CGA:   5    -0.152558812611E+04   -0.11240E+00   -0.11243E+00   624   0.143E+00 0.451E-03
CGA:   6    -0.152562434386E+04   -0.36218E-01   -0.36317E-01   624   0.498E-01 0.183E-02
CGA:   7    -0.152563821178E+04   -0.13868E-01   -0.13897E-01   624   0.183E-01 0.955E-03
CGA:   8    -0.152564425680E+04   -0.60450E-02   -0.60630E-02   624   0.819E-02-0.863E-03
CGA:   9    -0.152564671587E+04   -0.24591E-02   -0.24674E-02   624   0.360E-02-0.783E-03
CGA:  10    -0.152564764595E+04   -0.93008E-03   -0.92652E-03   624   0.149E-02-0.159E-03
CGA:  11    -0.152564819492E+04   -0.54897E-03   -0.56554E-03   624   0.121E-02-0.182E-03
CGA:  12    -0.152564867104E+04   -0.47612E-03   -0.48141E-03   624   0.122E-02-0.485E-04
CGA:  13    -0.152564871688E+04   -0.45837E-04   -0.13196E-02   624   0.841E-02-0.163E-02
CGA:  14    -0.152564994607E+04   -0.12292E-02   -0.13227E-02   624   0.148E-02 0.548E-03
CGA:  15    -0.152565039322E+04   -0.44715E-03   -0.44651E-03   624   0.404E-03-0.816E-05
CGA:  16    -0.152565054029E+04   -0.14708E-03   -0.14558E-03   624   0.179E-03 0.828E-04
CGA:  17    -0.152565058597E+04   -0.45675E-04   -0.53872E-04   624   0.856E-04 0.854E-04
CGA:  18    -0.152565064179E+04   -0.55822E-04   -0.53200E-04   624   0.850E-04 0.315E-04
CGA:  19    -0.152565067012E+04   -0.28331E-04   -0.32631E-04   624   0.702E-04 0.664E-04
CGA:  20    -0.152565069920E+04   -0.29081E-04   -0.28088E-04   624   0.463E-04 0.166E-04
CGA:  21    -0.152565074066E+04   -0.41452E-04    0.18953E-03   624   0.430E-04 0.235E-04
CGA:  22    -0.152565075952E+04   -0.18868E-04   -0.19730E-04   624   0.858E-04-0.749E-05
CGA:  23    -0.152565048771E+04    0.27182E-03   -0.14959E-03   624   0.205E-02-0.239E-03
CGA:  24    -0.152565089319E+04   -0.40548E-03   -0.43030E-03   624   0.566E-03 0.661E-04
CGA:  25    -0.152565100652E+04   -0.11333E-03   -0.12309E-03   624   0.254E-04 0.261E-04
CGA:  26    -0.152565104119E+04   -0.34662E-04    0.85845E-04   624   0.488E-04-0.147E-04
CGA:  27    -0.152565103681E+04    0.43785E-05   -0.49663E-05   624   0.112E-04 0.191E-04
  28 F= -.15256510E+04 E0= -.15256510E+04  d E =-.708843E+00  mag=    16.0000
       N       E                     dE             d eps       ncg     rms          ort
SDA:   1    -0.152557867331E+04    0.72368E-01    0.00000E+00   624   0.255E+00 0.000E+00
CGA:   2    -0.152565174497E+04   -0.73072E-01   -0.72835E-01   624   0.108E+00-0.745E-03
CGA:   3    -0.152567347638E+04   -0.21731E-01   -0.21892E-01   624   0.237E-01 0.484E-03
CGA:   4    -0.152567795887E+04   -0.44825E-02   -0.45551E-02   624   0.478E-02 0.252E-03
CGA:   5    -0.152567899046E+04   -0.10316E-02   -0.10334E-02   624   0.131E-02 0.702E-05
CGA:   6    -0.152567933725E+04   -0.34680E-03   -0.33655E-03   624   0.504E-03-0.443E-04
CGA:   7    -0.152567948547E+04   -0.14822E-03   -0.14241E-03   624   0.202E-03-0.314E-04
CGA:   8    -0.152567954116E+04   -0.55686E-04   -0.56540E-04   624   0.816E-04 0.504E-05
CGA:   9    -0.152567956096E+04   -0.19806E-04   -0.22302E-04   624   0.312E-04 0.132E-04
CGA:  10    -0.152567957579E+04   -0.14832E-04   -0.14744E-04   624   0.256E-04-0.222E-05
CGA:  11    -0.152567958346E+04   -0.76714E-05   -0.82449E-05   624   0.189E-04 0.567E-05
CGA:  12    -0.152567959636E+04   -0.12891E-04   -0.12730E-04   624   0.271E-04 0.119E-05
CGA:  13    -0.152567960542E+04   -0.90593E-05   -0.10195E-04   624   0.241E-04 0.117E-04
CGA:  14    -0.152567961668E+04   -0.11266E-04   -0.12236E-04   624   0.162E-04 0.106E-04
CGA:  15    -0.152567963070E+04   -0.14018E-04   -0.14341E-04   624   0.274E-04-0.253E-05
CGA:  16    -0.152567963382E+04   -0.31219E-05   -0.52076E-05   624   0.252E-04 0.878E-05
  29 F= -.15256796E+04 E0= -.15256796E+04  d E =-.285970E-01  mag=    16.0000
       N       E                     dE             d eps       ncg     rms          ort
SDA:   1    -0.152533014632E+04    0.34948E+00    0.00000E+00   624   0.985E+00 0.000E+00
CGA:   2    -0.152559251406E+04   -0.26237E+00   -0.26221E+00   624   0.399E+00-0.622E-03
CGA:   3    -0.152567713554E+04   -0.84621E-01   -0.84708E-01   624   0.911E-01 0.400E-03
CGA:   4    -0.152569408173E+04   -0.16946E-01   -0.16974E-01   624   0.182E-01 0.171E-03
CGA:   5    -0.152569789780E+04   -0.38161E-02   -0.38101E-02   624   0.458E-02-0.304E-04
CGA:   6    -0.152569901762E+04   -0.11198E-02   -0.11202E-02   624   0.156E-02 0.411E-05
CGA:   7    -0.152569945166E+04   -0.43404E-03   -0.43663E-03   624   0.581E-03 0.264E-04
CGA:   8    -0.152569964768E+04   -0.19602E-03   -0.19575E-03   624   0.278E-03-0.620E-05
CGA:   9    -0.152569972661E+04   -0.78930E-04   -0.80422E-04   624   0.113E-03 0.190E-04
CGA:  10    -0.152569977096E+04   -0.44351E-04   -0.44301E-04   624   0.775E-04-0.141E-04
CGA:  11    -0.152569978343E+04   -0.12471E-04   -0.15649E-04   624   0.389E-04 0.231E-04
CGA:  12    -0.152569979621E+04   -0.12773E-04   -0.14158E-04   624   0.288E-04 0.169E-04
CGA:  13    -0.152569981333E+04   -0.17128E-04   -0.16819E-04   624   0.426E-04 0.618E-05
CGA:  14    -0.152569982354E+04   -0.10205E-04   -0.12925E-04   624   0.343E-04 0.243E-04
CGA:  15    -0.152569983628E+04   -0.12746E-04   -0.12727E-04   624   0.173E-04 0.119E-05
CGA:  16    -0.152569979627E+04    0.40015E-04   -0.27025E-04   624   0.574E-03-0.580E-04
CGA:  17    -0.152569985443E+04   -0.58159E-04   -0.70471E-04   624   0.383E-04 0.474E-04
CGA:  18    -0.152569986635E+04   -0.11918E-04   -0.12588E-04   624   0.182E-04 0.706E-05
CGA:  19    -0.152569987252E+04   -0.61706E-05   -0.56793E-05   624   0.135E-04-0.370E-05
  30 F= -.15256999E+04 E0= -.15256999E+04  d E =-.202387E-01  mag=    16.0000
       N       E                     dE             d eps       ncg     rms          ort
SDA:   1    -0.152558318357E+04    0.11668E+00    0.00000E+00   624   0.339E+00 0.000E+00
CGA:   2    -0.152567149062E+04   -0.88307E-01   -0.88229E-01   624   0.135E+00-0.663E-03
CGA:   3    -0.152570040795E+04   -0.28917E-01   -0.28975E-01   624   0.302E-01 0.363E-03
CGA:   4    -0.152570587013E+04   -0.54622E-02   -0.54662E-02   624   0.571E-02 0.255E-04
CGA:   5    -0.152570704643E+04   -0.11763E-02   -0.11770E-02   624   0.141E-02 0.449E-05
CGA:   6    -0.152570739035E+04   -0.34392E-03   -0.34356E-03   624   0.455E-03-0.309E-05
CGA:   7    -0.152570752725E+04   -0.13689E-03   -0.13634E-03   624   0.196E-03-0.127E-04
CGA:   8    -0.152570758582E+04   -0.58575E-04   -0.59157E-04   624   0.824E-04 0.187E-04
CGA:   9    -0.152570762151E+04   -0.35688E-04   -0.36212E-04   624   0.519E-04-0.859E-05
CGA:  10    -0.152570762993E+04   -0.84175E-05   -0.10285E-04   624   0.219E-04 0.153E-04
  31 F= -.15257076E+04 E0= -.15257076E+04  d E =-.775741E-02  mag=    16.0000
       N       E                     dE             d eps       ncg     rms          ort
SDA:   1    -0.152546343043E+04    0.24419E+00    0.00000E+00   624   0.658E+00 0.000E+00
CGA:   2    -0.152564395507E+04   -0.18052E+00   -0.18056E+00   624   0.252E+00 0.611E-03
CGA:   3    -0.152569772183E+04   -0.53767E-01   -0.53756E-01   624   0.552E-01-0.568E-04
CGA:   4    -0.152570777297E+04   -0.10051E-01   -0.10007E-01   624   0.107E-01-0.310E-03
CGA:   5    -0.152570998237E+04   -0.22094E-02   -0.21979E-02   624   0.266E-02-0.103E-03
CGA:   6    -0.152571060236E+04   -0.61999E-03   -0.62302E-03   624   0.799E-03 0.409E-04
CGA:   7    -0.152571082879E+04   -0.22642E-03   -0.22754E-03   624   0.315E-03 0.405E-04
CGA:   8    -0.152571094744E+04   -0.11865E-03   -0.11843E-03   624   0.167E-03 0.435E-05
CGA:   9    -0.152571101440E+04   -0.66961E-04   -0.71122E-04   624   0.112E-03-0.374E-04
CGA:  10    -0.152571103649E+04   -0.22091E-04   -0.22299E-04   624   0.443E-04 0.368E-05
CGA:  11    -0.152571104547E+04   -0.89759E-05   -0.10217E-04   624   0.210E-04 0.139E-04
  32 F= -.15257110E+04 E0= -.15257110E+04  d E =-.341554E-02  mag=    16.0000
       N       E                     dE             d eps       ncg     rms          ort
SDA:   1    -0.152559002395E+04    0.12101E+00    0.00000E+00   624   0.302E+00 0.000E+00
CGA:   2    -0.152568015362E+04   -0.90130E-01   -0.90136E-01   624   0.109E+00 0.130E-02
CGA:   3    -0.152570349070E+04   -0.23337E-01   -0.23293E-01   624   0.225E-01-0.425E-03
CGA:   4    -0.152570768927E+04   -0.41986E-02   -0.41452E-02   624   0.452E-02-0.466E-03
CGA:   5    -0.152570861714E+04   -0.92787E-03   -0.92376E-03   624   0.111E-02-0.478E-04
CGA:   6    -0.152570886446E+04   -0.24732E-03   -0.25035E-03   624   0.318E-03 0.506E-04
CGA:   7    -0.152570896001E+04   -0.95544E-04   -0.95530E-04   624   0.142E-03 0.149E-04
CGA:   8    -0.152570901593E+04   -0.55926E-04   -0.56861E-04   624   0.941E-04-0.951E-05
CGA:   9    -0.152570903293E+04   -0.16994E-04   -0.62301E-04   624   0.285E-03-0.108E-03
CGA:  10    -0.152570906945E+04   -0.36525E-04   -0.42353E-04   624   0.426E-04 0.366E-04
CGA:  11    -0.152570908203E+04   -0.12580E-04   -0.12854E-04   624   0.196E-04 0.754E-05
CGA:  12    -0.152570909194E+04   -0.99096E-05   -0.97375E-05   624   0.176E-04 0.136E-05
  33 F= -.15257091E+04 E0= -.15257091E+04  d E =0.195352E-02  mag=    16.0000
       N       E                     dE             d eps       ncg     rms          ort
SDA:   1    -0.152514282020E+04    0.56626E+00    0.00000E+00   624   0.138E+01 0.000E+00
CGA:   2    -0.152557818065E+04   -0.43536E+00   -0.43534E+00   624   0.464E+00 0.358E-02
CGA:   3    -0.152567731385E+04   -0.99133E-01   -0.98955E-01   624   0.880E-01-0.168E-02
CGA:   4    -0.152569373677E+04   -0.16423E-01   -0.16345E-01   624   0.183E-01-0.631E-03
CGA:   5    -0.152569755545E+04   -0.38187E-02   -0.38139E-02   624   0.447E-02-0.497E-04
CGA:   6    -0.152569860070E+04   -0.10452E-02   -0.10504E-02   624   0.133E-02 0.864E-04
CGA:   7    -0.152569899743E+04   -0.39673E-03   -0.39672E-03   624   0.587E-03 0.256E-04
CGA:   8    -0.152569921814E+04   -0.22071E-03   -0.22299E-03   624   0.340E-03-0.280E-04
CGA:   9    -0.152569934308E+04   -0.12495E-03   -0.13981E-03   624   0.271E-03-0.110E-03
CGA:  10    -0.152569939353E+04   -0.50444E-04   -0.49331E-04   624   0.128E-03-0.319E-04
CGA:  11    -0.152569942991E+04   -0.36379E-04   -0.36552E-04   624   0.799E-04-0.774E-05
CGA:  12    -0.152569945718E+04   -0.27275E-04   -0.62756E-04   624   0.259E-03-0.676E-04
CGA:  13    -0.152569950596E+04   -0.48782E-04   -0.51895E-04   624   0.575E-04 0.248E-04
CGA:  14    -0.152569946569E+04    0.40277E-04   -0.62780E-04   624   0.634E-03-0.152E-03
CGA:  15    -0.152569953480E+04   -0.69109E-04   -0.89311E-04   624   0.882E-04 0.971E-04
CGA:  16    -0.152569955908E+04   -0.24282E-04   -0.25495E-04   624   0.207E-04 0.127E-04
CGA:  17    -0.152569926735E+04    0.29173E-03   -0.15796E-03   624   0.237E-02-0.187E-03
CGA:  18    -0.152569954088E+04   -0.27353E-03   -0.31895E-03   624   0.162E-03 0.117E-03
CGA:  19    -0.152569961227E+04   -0.71389E-04   -0.68155E-04   624   0.421E-04-0.163E-04
CGA:  20    -0.152569962620E+04   -0.13924E-04   -0.92168E-05   624   0.227E-04-0.135E-04
CGA:  21    -0.152569962896E+04   -0.27634E-05   -0.43716E-05   624   0.958E-05 0.559E-05
  34 F= -.15256996E+04 E0= -.15256996E+04  d E =0.946298E-02  mag=    16.0000
       N       E                     dE             d eps       ncg     rms          ort
SDA:   1    -0.152543766936E+04    0.26196E+00    0.00000E+00   624   0.613E+00 0.000E+00
CGA:   2    -0.152563541104E+04   -0.19774E+00   -0.19823E+00   624   0.214E+00 0.233E-02
CGA:   3    -0.152568075452E+04   -0.45343E-01   -0.44933E-01   624   0.390E-01-0.125E-02
CGA:   4    -0.152568798111E+04   -0.72266E-02   -0.71779E-02   624   0.821E-02-0.113E-03
CGA:   5    -0.152568974200E+04   -0.17609E-02   -0.17571E-02   624   0.200E-02-0.118E-04
CGA:   6    -0.152569019778E+04   -0.45577E-03   -0.46922E-03   624   0.599E-03 0.540E-04
CGA:   7    -0.152569037181E+04   -0.17404E-03   -0.17689E-03   624   0.259E-03 0.158E-04
CGA:   8    -0.152569048710E+04   -0.11529E-03   -0.11348E-03   624   0.213E-03-0.519E-04
CGA:   9    -0.152569052454E+04   -0.37442E-04   -0.41743E-04   624   0.866E-04 0.202E-04
CGA:  10    -0.152569056374E+04   -0.39201E-04   -0.37724E-04   624   0.847E-04-0.287E-04
CGA:  11    -0.152569058925E+04   -0.25505E-04   -0.25719E-04   624   0.109E-03-0.287E-04
CGA:  12    -0.152569061773E+04   -0.28485E-04   -0.27382E-04   624   0.111E-03-0.171E-04
CGA:  13    -0.152569065625E+04   -0.38518E-04   -0.68554E-04   624   0.312E-03-0.108E-03
CGA:  14    -0.152569070735E+04   -0.51106E-04   -0.63028E-04   624   0.606E-04 0.471E-04
CGA:  15    -0.152569073807E+04   -0.30721E-04   -0.30430E-04   624   0.750E-04-0.322E-04
CGA:  16    -0.152569074027E+04   -0.21973E-05   -0.99526E-05   624   0.188E-04 0.251E-04
  35 F= -.15256907E+04 E0= -.15256907E+04  d E =0.888869E-02  mag=    16.0000
       N       E                     dE             d eps       ncg     rms          ort
SDA:   1    -0.152552132800E+04    0.16941E+00    0.00000E+00   624   0.411E+00 0.000E+00
CGA:   2    -0.152564614427E+04   -0.12482E+00   -0.12509E+00   624   0.150E+00 0.231E-02
CGA:   3    -0.152567878621E+04   -0.32642E-01   -0.32381E-01   624   0.279E-01-0.130E-02
CGA:   4    -0.152568388862E+04   -0.51024E-02   -0.50420E-02   624   0.576E-02-0.266E-03
CGA:   5    -0.152568509799E+04   -0.12094E-02   -0.12074E-02   624   0.138E-02-0.103E-04
CGA:   6    -0.152568542293E+04   -0.32494E-03   -0.32666E-03   624   0.423E-03 0.117E-04
CGA:   7    -0.152568555253E+04   -0.12960E-03   -0.12837E-03   624   0.196E-03-0.161E-04
CGA:   8    -0.152568563100E+04   -0.78475E-04   -0.81072E-04   624   0.160E-03-0.455E-04
CGA:   9    -0.152568567064E+04   -0.39638E-04   -0.38620E-04   624   0.808E-04-0.163E-04
CGA:  10    -0.152568568216E+04   -0.11521E-04   -0.54678E-04   624   0.354E-03-0.114E-03
CGA:  11    -0.152568573184E+04   -0.49674E-04   -0.56889E-04   624   0.608E-04 0.326E-04
CGA:  12    -0.152568575850E+04   -0.26660E-04   -0.28106E-04   624   0.730E-04-0.333E-04
CGA:  13    -0.152568576607E+04   -0.75701E-05   -0.11529E-04   624   0.168E-04 0.178E-04
CGA:  14    -0.152568576801E+04   -0.19448E-05   -0.18413E-04   624   0.118E-03-0.325E-04
CGA:  15    -0.152568579148E+04   -0.23469E-04   -0.26209E-04   624   0.135E-04 0.158E-04
CGA:  16    -0.152568580911E+04   -0.17633E-04    0.60904E-05   624   0.229E-04-0.605E-05
CGA:  17    -0.152568581293E+04   -0.38120E-05   -0.87362E-05   624   0.795E-04-0.164E-04
CGA:  18    -0.152568584207E+04   -0.29147E-04   -0.28974E-04   624   0.740E-05-0.451E-05
CGA:  19    -0.152568584229E+04   -0.21311E-06   -0.12502E-05   624   0.481E-05 0.466E-05
  36 F= -.15256858E+04 E0= -.15256858E+04  d E =0.489799E-02  mag=    16.0000
       N       E                     dE             d eps       ncg     rms          ort
SDA:   1    -0.152512788993E+04    0.55795E+00    0.00000E+00   624   0.135E+01 0.000E+00
CGA:   2    -0.152554755931E+04   -0.41967E+00   -0.42001E+00   624   0.494E+00 0.414E-02
CGA:   3    -0.152565285738E+04   -0.10530E+00   -0.10488E+00   624   0.861E-01-0.245E-02
CGA:   4    -0.152566851742E+04   -0.15660E-01   -0.15590E-01   624   0.183E-01-0.355E-03
CGA:   5    -0.152567234993E+04   -0.38325E-02   -0.38474E-02   624   0.432E-02 0.954E-04
CGA:   6    -0.152567338281E+04   -0.10329E-02   -0.10366E-02   624   0.131E-02 0.304E-04
CGA:   7    -0.152567378379E+04   -0.40099E-03   -0.39939E-03   624   0.601E-03-0.317E-04
CGA:   8    -0.152567400073E+04   -0.21693E-03   -0.21728E-03   624   0.329E-03-0.184E-04
CGA:   9    -0.152567411260E+04   -0.11187E-03   -0.11186E-03   624   0.151E-03-0.356E-05
CGA:  10    -0.152567417737E+04   -0.64771E-04   -0.76062E-04   624   0.207E-03-0.715E-04
CGA:  11    -0.152567420744E+04   -0.30077E-04   -0.27733E-04   624   0.152E-03-0.222E-04
CGA:  12    -0.152567425892E+04   -0.51476E-04   -0.52864E-04   624   0.173E-03-0.401E-04
CGA:  13    -0.152567430440E+04   -0.45477E-04   -0.45560E-04   624   0.239E-03-0.705E-04
CGA:  14    -0.152567434752E+04   -0.43128E-04   -0.40444E-04   624   0.171E-03-0.387E-04
CGA:  15    -0.152567438241E+04   -0.34885E-04   -0.32686E-04   624   0.140E-03-0.179E-04
CGA:  16    -0.152567442950E+04   -0.47095E-04   -0.51594E-04   624   0.145E-03-0.718E-04
CGA:  17    -0.152567446612E+04   -0.36620E-04   -0.39049E-04   624   0.348E-04 0.299E-04
CGA:  18    -0.152567447537E+04   -0.92496E-05   -0.36843E-04   624   0.241E-03-0.517E-04
CGA:  19    -0.152567448936E+04   -0.13989E-04   -0.28566E-04   624   0.348E-04 0.586E-04
CGA:  20    -0.152567449291E+04   -0.35430E-05   -0.67627E-05   624   0.164E-04 0.158E-04
  37 F= -.15256745E+04 E0= -.15256745E+04  d E =0.113494E-01  mag=    16.0000
       N       E                     dE             d eps       ncg     rms          ort
SDA:   1    -0.151421291856E+04    0.11462E+02    0.00000E+00   624   0.280E+02 0.000E+00
CGA:   2    -0.152303820661E+04   -0.88253E+01   -0.88262E+01   624   0.102E+02 0.189E-01
CGA:   3    -0.152515900615E+04   -0.21208E+01   -0.21203E+01   624   0.177E+01-0.132E-01
CGA:   4    -0.152548271089E+04   -0.32370E+00   -0.32320E+00   624   0.376E+00-0.551E-03
CGA:   5    -0.152556385589E+04   -0.81145E-01   -0.81205E-01   624   0.907E-01 0.491E-03
CGA:   6    -0.152558580341E+04   -0.21948E-01   -0.21930E-01   624   0.282E-01-0.220E-03
CGA:   7    -0.152559424954E+04   -0.84461E-02   -0.84312E-02   624   0.127E-01-0.690E-03
CGA:   8    -0.152559870683E+04   -0.44573E-02   -0.44819E-02   624   0.693E-02-0.598E-03
CGA:   9    -0.152560092607E+04   -0.22192E-02   -0.22261E-02   624   0.340E-02-0.478E-03
CGA:  10    -0.152560192253E+04   -0.99647E-03   -0.99333E-03   624   0.194E-02-0.336E-03
CGA:  11    -0.152560253989E+04   -0.61735E-03   -0.62343E-03   624   0.144E-02-0.173E-03
CGA:  12    -0.152560321825E+04   -0.67836E-03   -0.78842E-03   624   0.219E-02-0.401E-03
CGA:  13    -0.152560380521E+04   -0.58696E-03   -0.58882E-03   624   0.175E-02-0.577E-04
CGA:  14    -0.152560452501E+04   -0.71980E-03   -0.75159E-03   624   0.137E-02-0.330E-03
CGA:  15    -0.152560493923E+04   -0.41422E-03   -0.41146E-03   624   0.103E-02 0.959E-04
CGA:  16    -0.152560539931E+04   -0.46008E-03   -0.46019E-03   624   0.872E-03-0.167E-04
CGA:  17    -0.152560578481E+04   -0.38550E-03   -0.38134E-03   624   0.698E-03 0.253E-04
CGA:  18    -0.152560599149E+04   -0.20668E-03   -0.21382E-03   624   0.330E-03 0.116E-03
CGA:  19    -0.152560613556E+04   -0.14407E-03   -0.14398E-03   624   0.181E-03-0.964E-06
CGA:  20    -0.152560616591E+04   -0.30352E-04   -0.39928E-04   624   0.100E-03 0.715E-04
[...]
CGA:  11    -0.152489554792E+04   -0.42254E-02   -0.43028E-02   624   0.118E-01-0.529E-03
CGA:  12    -0.152490115997E+04   -0.56121E-02   -0.57528E-02   624   0.134E-01-0.654E-03
CGA:  13    -0.152490674928E+04   -0.55893E-02   -0.56578E-02   624   0.115E-01-0.119E-02
CGA:  14    -0.152490996425E+04   -0.32150E-02   -0.31945E-02   624   0.631E-02-0.997E-03
CGA:  15    -0.152491186467E+04   -0.19004E-02   -0.18986E-02   624   0.323E-02-0.459E-03
CGA:  16    -0.152491282918E+04   -0.96450E-03   -0.96933E-03   624   0.178E-02 0.435E-03
CGA:  17    -0.152491350646E+04   -0.67729E-03   -0.67679E-03   624   0.108E-02 0.366E-03
CGA:  18    -0.152491376952E+04   -0.26306E-03   -0.31410E-03   624   0.523E-03 0.548E-03
CGA:  19    -0.152491393531E+04   -0.16579E-03   -0.16751E-03   624   0.260E-03 0.198E-03
CGA:  20    -0.152491398267E+04   -0.47367E-04   -0.73847E-04   624   0.160E-03 0.217E-03
CGA:  21    -0.152491402177E+04   -0.39100E-04   -0.44138E-04   624   0.115E-03 0.110E-03
CGA:  22    -0.152491403035E+04   -0.85759E-05   -0.21167E-04   624   0.966E-04 0.926E-04
CGA:  23    -0.152491404859E+04   -0.18236E-04   -0.23624E-04   624   0.818E-04 0.784E-04
CGA:  24    -0.152491405257E+04   -0.39863E-05   -0.13629E-04   624   0.691E-04 0.674E-04
CGA:  25    -0.152491406245E+04   -0.98759E-05   -0.14943E-04   624   0.584E-04 0.585E-04
  44 F= -.15249141E+04 E0= -.15249141E+04  d E =0.710196E+00  mag=    16.0000
       N       E                     dE             d eps       ncg     rms          ort
SDA:   1    -0.151707543787E+04    0.78386E+01    0.00000E+00   624   0.205E+02 0.000E+00
CGA:   2    -0.152356234658E+04   -0.64869E+01   -0.64868E+01   624   0.756E+01 0.213E-02
CGA:   3    -0.152510793197E+04   -0.15456E+01   -0.15450E+01   624   0.181E+01-0.108E-01
CGA:   4    -0.152546653178E+04   -0.35860E+00   -0.35834E+00   624   0.384E+00-0.321E-02
CGA:   5    -0.152554770211E+04   -0.81170E-01   -0.81116E-01   624   0.108E+00-0.636E-03
CGA:   6    -0.152557598848E+04   -0.28286E-01   -0.28284E-01   624   0.395E-01-0.148E-03
CGA:   7    -0.152558736429E+04   -0.11376E-01   -0.11378E-01   624   0.156E-01-0.241E-03
CGA:   8    -0.152559273003E+04   -0.53657E-02   -0.54716E-02   624   0.823E-02-0.145E-02
CGA:   9    -0.152559528039E+04   -0.25504E-02   -0.26195E-02   624   0.484E-02-0.104E-02
CGA:  10    -0.152559679133E+04   -0.15109E-02   -0.15932E-02   624   0.422E-02-0.941E-03
CGA:  11    -0.152559820771E+04   -0.14164E-02   -0.15640E-02   624   0.488E-02-0.933E-03
CGA:  12    -0.152560001002E+04   -0.18023E-02   -0.25846E-02   624   0.865E-02-0.220E-02
CGA:  13    -0.152560168387E+04   -0.16739E-02   -0.18504E-02   624   0.658E-02-0.244E-02
CGA:  14    -0.152560319015E+04   -0.15063E-02   -0.15023E-02   624   0.270E-02-0.976E-03
CGA:  15    -0.152560379393E+04   -0.60378E-03   -0.62086E-03   624   0.126E-02 0.330E-03
CGA:  16    -0.152560400376E+04   -0.20984E-03   -0.27748E-03   624   0.636E-03 0.548E-03
CGA:  17    -0.152560406589E+04   -0.62129E-04   -0.14370E-03   624   0.400E-03 0.522E-03
CGA:  18    -0.152560410255E+04   -0.36660E-04   -0.71900E-04   624   0.262E-03 0.281E-03
CGA:  19    -0.152560411173E+04   -0.91773E-05   -0.40992E-04   624   0.211E-03 0.224E-03
CGA:  20    -0.152560411334E+04   -0.16161E-05   -0.30168E-04   624   0.181E-03 0.192E-03
CGA:  21    -0.152560411191E+04    0.14293E-05   -0.24073E-04   624   0.160E-03 0.168E-03
CGA:  22    -0.152560410878E+04    0.31336E-05   -0.19768E-04   624   0.143E-03 0.149E-03
CGA:  23    -0.152560410473E+04    0.40528E-05   -0.16541E-04   624   0.129E-03 0.134E-03
CGA:  24    -0.152560410015E+04    0.45757E-05   -0.13999E-04   624   0.117E-03 0.122E-03
CGA:  25    -0.152560409532E+04    0.48320E-05   -0.11968E-04   624   0.107E-03 0.111E-03
CGA:  26    -0.152560409042E+04    0.48986E-05   -0.10329E-04   624   0.981E-04 0.102E-03
  45 F= -.15256041E+04 E0= -.15256041E+04  d E =-.690028E+00  mag=    16.0000
       N       E                     dE             d eps       ncg     rms          ort
SDA:   1    -0.152551525243E+04    0.88843E-01    0.00000E+00   624   0.264E+00 0.000E+00
CGA:   2    -0.152559797107E+04   -0.82719E-01   -0.82838E-01   624   0.105E+00-0.135E-02
CGA:   3    -0.152561822677E+04   -0.20256E-01   -0.20298E-01   624   0.230E-01 0.106E-02
CGA:   4    -0.152562261765E+04   -0.43909E-02   -0.44491E-02   624   0.429E-02 0.140E-02
CGA:   5    -0.152562359926E+04   -0.98161E-03   -0.98456E-03   624   0.129E-02 0.197E-03
CGA:   6    -0.152562396240E+04   -0.36314E-03   -0.36326E-03   624   0.532E-03-0.313E-05
CGA:   7    -0.152562410380E+04   -0.14140E-03   -0.13966E-03   624   0.196E-03 0.574E-04
CGA:   8    -0.152562414818E+04   -0.44387E-04   -0.46228E-04   624   0.818E-04 0.878E-04
CGA:   9    -0.152562415539E+04   -0.72101E-05   -0.15260E-04   624   0.468E-04 0.770E-04
  46 F= -.15256242E+04 E0= -.15256242E+04  d E =-.200650E-01  mag=    16.0000
       N       E                     dE             d eps       ncg     rms          ort
SDA:   1    -0.152554166954E+04    0.82479E-01    0.00000E+00   624   0.256E+00 0.000E+00
CGA:   2    -0.152560925989E+04   -0.67590E-01   -0.67629E-01   624   0.108E+00-0.909E-03
CGA:   3    -0.152563190837E+04   -0.22648E-01   -0.22653E-01   624   0.237E-01 0.301E-03
CGA:   4    -0.152563620136E+04   -0.42930E-02   -0.43314E-02   624   0.460E-02 0.914E-03
CGA:   5    -0.152563716858E+04   -0.96722E-03   -0.97142E-03   624   0.112E-02 0.220E-03
CGA:   6    -0.152563749133E+04   -0.32275E-03   -0.32651E-03   624   0.457E-03-0.669E-04
CGA:   7    -0.152563761134E+04   -0.12000E-03   -0.12049E-03   624   0.177E-03-0.853E-05
CGA:   8    -0.152563766124E+04   -0.49901E-04   -0.48661E-04   624   0.699E-04 0.236E-04
CGA:   9    -0.152563766705E+04   -0.58145E-05   -0.10622E-04   624   0.362E-04 0.504E-04
  47 F= -.15256377E+04 E0= -.15256377E+04  d E =-.135117E-01  mag=    16.0000
       N       E                     dE             d eps       ncg     rms          ort
SDA:   1    -0.152551002766E+04    0.12763E+00    0.00000E+00   624   0.380E+00 0.000E+00
CGA:   2    -0.152560373371E+04   -0.93706E-01   -0.93725E-01   624   0.158E+00-0.746E-03
CGA:   3    -0.152563816668E+04   -0.34433E-01   -0.34433E-01   624   0.353E-01-0.329E-04
CGA:   4    -0.152564445790E+04   -0.62912E-02   -0.63223E-02   624   0.669E-02 0.725E-03
CGA:   5    -0.152564583887E+04   -0.13810E-02   -0.13847E-02   624   0.161E-02 0.214E-03
CGA:   6    -0.152564627821E+04   -0.43934E-03   -0.44252E-03   624   0.595E-03-0.682E-04
CGA:   7    -0.152564644721E+04   -0.16900E-03   -0.17216E-03   624   0.267E-03-0.392E-04
CGA:   8    -0.152564652753E+04   -0.80327E-04   -0.79030E-04   624   0.125E-03 0.144E-04
CGA:   9    -0.152564654833E+04   -0.20798E-04   -0.24121E-04   624   0.584E-04 0.706E-04
CGA:  10    -0.152564656675E+04   -0.18422E-04   -0.16890E-04   624   0.301E-04 0.251E-04
CGA:  11    -0.152564657594E+04   -0.91826E-05   -0.95054E-05   624   0.241E-04 0.327E-04
  48 F= -.15256466E+04 E0= -.15256466E+04  d E =-.890888E-02  mag=    16.0000
       N       E                     dE             d eps       ncg     rms          ort
SDA:   1    -0.152542719755E+04    0.21937E+00    0.00000E+00   624   0.640E+00 0.000E+00
CGA:   2    -0.152558127820E+04   -0.15408E+00   -0.15408E+00   624   0.260E+00-0.288E-03
CGA:   3    -0.152563887986E+04   -0.57602E-01   -0.57598E-01   624   0.578E-01-0.354E-03
CGA:   4    -0.152564907563E+04   -0.10196E-01   -0.10223E-01   624   0.105E-01 0.481E-03
CGA:   5    -0.152565120192E+04   -0.21263E-02   -0.21322E-02   624   0.247E-02 0.203E-03
CGA:   6    -0.152565182835E+04   -0.62642E-03   -0.62721E-03   624   0.776E-03-0.400E-04
CGA:   7    -0.152565205313E+04   -0.22478E-03   -0.22791E-03   624   0.341E-03-0.464E-04
CGA:   8    -0.152565215836E+04   -0.10523E-03   -0.10398E-03   624   0.157E-03 0.138E-04
CGA:   9    -0.152565219205E+04   -0.33696E-04   -0.35320E-04   624   0.635E-04 0.708E-04
CGA:  10    -0.152565221162E+04   -0.19573E-04   -0.20260E-04   624   0.352E-04 0.392E-04
CGA:  11    -0.152565223125E+04   -0.19624E-04   -0.20471E-04   624   0.589E-04-0.255E-05
CGA:  12    -0.152565223952E+04   -0.82714E-05   -0.10583E-04   624   0.381E-04 0.383E-04
  49 F= -.15256522E+04 E0= -.15256522E+04  d E =-.566358E-02  mag=    16.0000
       N       E                     dE             d eps       ncg     rms          ort
SDA:   1    -0.152505332164E+04    0.59891E+00    0.00000E+00   624   0.162E+01 0.000E+00
CGA:   2    -0.152548506708E+04   -0.43175E+00   -0.43171E+00   624   0.632E+00 0.186E-02
CGA:   3    -0.152562091410E+04   -0.13585E+00   -0.13579E+00   624   0.136E+00-0.184E-02
CGA:   4    -0.152564541038E+04   -0.24496E-01   -0.24479E-01   624   0.255E-01-0.249E-03
CGA:   5    -0.152565058696E+04   -0.51766E-02   -0.51809E-02   624   0.605E-02 0.112E-03
CGA:   6    -0.152565206608E+04   -0.14791E-02   -0.14793E-02   624   0.181E-02-0.513E-04
CGA:   7    -0.152565260020E+04   -0.53412E-03   -0.53942E-03   624   0.807E-03-0.896E-04
CGA:   8    -0.152565287292E+04   -0.27272E-03   -0.27827E-03   624   0.413E-03-0.468E-04
CGA:   9    -0.152565299455E+04   -0.12163E-03   -0.11974E-03   624   0.150E-03 0.323E-04
CGA:  10    -0.152565305704E+04   -0.62494E-04   -0.67958E-04   624   0.112E-03-0.325E-04
CGA:  11    -0.152565308033E+04   -0.23286E-04   -0.23223E-04   624   0.604E-04 0.130E-04
CGA:  12    -0.152565310527E+04   -0.24946E-04   -0.25412E-04   624   0.478E-04-0.431E-05
CGA:  13    -0.152565311663E+04   -0.11355E-04   -0.11506E-04   624   0.327E-04 0.193E-04
CGA:  14    -0.152565312281E+04   -0.61833E-05   -0.82782E-05   624   0.163E-04 0.241E-04
  50 F= -.15256531E+04 E0= -.15256531E+04  d E =-.883292E-03  mag=    16.0000
       N       E                     dE             d eps       ncg     rms          ort
SDA:   1    -0.152488490579E+04    0.76821E+00    0.00000E+00   624   0.200E+01 0.000E+00
CGA:   2    -0.152544495509E+04   -0.56005E+00   -0.55996E+00   624   0.736E+00 0.482E-02
CGA:   3    -0.152560490095E+04   -0.15995E+00   -0.15981E+00   624   0.156E+00-0.296E-02
CGA:   4    -0.152563324488E+04   -0.28344E-01   -0.28302E-01   624   0.301E-01-0.492E-03
CGA:   5    -0.152563948484E+04   -0.62400E-02   -0.62405E-02   624   0.730E-02 0.131E-04
CGA:   6    -0.152564125697E+04   -0.17721E-02   -0.17721E-02   624   0.223E-02-0.260E-05
CGA:   7    -0.152564192222E+04   -0.66525E-03   -0.66754E-03   624   0.100E-02-0.504E-04
CGA:   8    -0.152564227335E+04   -0.35113E-03   -0.35619E-03   624   0.529E-03-0.469E-04
CGA:   9    -0.152564242858E+04   -0.15523E-03   -0.15352E-03   624   0.205E-03 0.408E-04
CGA:  10    -0.152564251488E+04   -0.86307E-04   -0.10154E-03   624   0.220E-03-0.773E-04
CGA:  11    -0.152564254049E+04   -0.25610E-04   -0.27451E-04   624   0.130E-03 0.255E-04
CGA:  12    -0.152564257146E+04   -0.30965E-04   -0.32211E-04   624   0.833E-04 0.254E-04
CGA:  13    -0.152564260358E+04   -0.32117E-04   -0.33216E-04   624   0.950E-04-0.165E-04
CGA:  14    -0.152564261434E+04   -0.10767E-04   -0.13638E-04   624   0.786E-04 0.312E-04
CGA:  15    -0.152564262455E+04   -0.10203E-04   -0.15294E-04   624   0.414E-04 0.426E-04
CGA:  16    -0.152564249708E+04    0.12746E-03   -0.69668E-04   624   0.952E-03-0.137E-03
CGA:  17    -0.152564260781E+04   -0.11072E-03   -0.14001E-03   624   0.158E-03 0.960E-04
CGA:  18    -0.152564266161E+04   -0.53798E-04   -0.51651E-04   624   0.208E-04-0.131E-04
CGA:  19    -0.152564267051E+04   -0.89059E-05   -0.90957E-05   624   0.248E-04-0.744E-05
  51 F= -.15256427E+04 E0= -.15256427E+04  d E =0.104523E-01  mag=    16.0000
       N       E                     dE             d eps       ncg     rms          ort
SDA:   1    -0.152559550052E+04    0.47161E-01    0.00000E+00   624   0.123E+00 0.000E+00
CGA:   2    -0.152562957748E+04   -0.34077E-01   -0.34250E-01   624   0.500E-01 0.111E-02
CGA:   3    -0.152564035021E+04   -0.10773E-01   -0.10690E-01   624   0.111E-01-0.369E-03
CGA:   4    -0.152564259462E+04   -0.22444E-02   -0.21270E-02   624   0.240E-02-0.517E-03
CGA:   5    -0.152564306825E+04   -0.47363E-03   -0.47040E-03   624   0.597E-03-0.153E-04
CGA:   6    -0.152564319913E+04   -0.13088E-03   -0.13770E-03   624   0.182E-03 0.415E-04
CGA:   7    -0.152564325963E+04   -0.60502E-04   -0.60326E-04   624   0.895E-04-0.208E-05
CGA:   8    -0.152564329717E+04   -0.37537E-04   -0.39539E-04   624   0.972E-04-0.320E-04
CGA:   9    -0.152564317009E+04    0.12708E-03   -0.71619E-04   624   0.115E-02-0.259E-03
CGA:  10    -0.152564329541E+04   -0.12532E-03   -0.15648E-03   624   0.178E-03 0.115E-03
CGA:  11    -0.152564334751E+04   -0.52096E-04   -0.56473E-04   624   0.804E-04 0.354E-04
CGA:  12    -0.152564337842E+04   -0.30918E-04   -0.31487E-04   624   0.587E-04 0.732E-05
CGA:  13    -0.152564338536E+04   -0.69368E-05   -0.11177E-04   624   0.185E-04 0.189E-04
  52 F= -.15256434E+04 E0= -.15256434E+04  d E =-.714848E-03  mag=    16.0000
       N       E                     dE             d eps       ncg     rms          ort
SDA:   1    -0.152562908645E+04    0.14292E-01    0.00000E+00   624   0.390E-01 0.000E+00
CGA:   2    -0.152563851040E+04   -0.94240E-02   -0.95248E-02   624   0.154E-01 0.734E-03
CGA:   3    -0.152564205833E+04   -0.35479E-02   -0.35253E-02   624   0.360E-02-0.150E-03
CGA:   4    -0.152564275734E+04   -0.69900E-03   -0.66801E-03   624   0.718E-03-0.171E-03
CGA:   5    -0.152564291830E+04   -0.16097E-03   -0.14990E-03   624   0.204E-03-0.792E-04
CGA:   6    -0.152564295316E+04   -0.34856E-04   -0.37202E-04   624   0.486E-04 0.160E-04
CGA:   7    -0.152564295986E+04   -0.67039E-05   -0.97220E-05   624   0.174E-04 0.190E-04
  53 F= -.15256430E+04 E0= -.15256430E+04  d E =0.425499E-03  mag=    16.0000
       N       E                     dE             d eps       ncg     rms          ort
SDA:   1    -0.152553640164E+04    0.10655E+00    0.00000E+00   624   0.263E+00 0.000E+00
CGA:   2    -0.152561164781E+04   -0.75246E-01   -0.75401E-01   624   0.957E-01 0.331E-02
CGA:   3    -0.152563320578E+04   -0.21558E-01   -0.21439E-01   624   0.199E-01-0.109E-02
CGA:   4    -0.152563689449E+04   -0.36887E-02   -0.35946E-02   624   0.417E-02-0.663E-03
CGA:   5    -0.152563774819E+04   -0.85370E-03   -0.84155E-03   624   0.103E-02-0.111E-03
CGA:   6    -0.152563796732E+04   -0.21913E-03   -0.22469E-03   624   0.283E-03 0.629E-04
CGA:   7    -0.152563804801E+04   -0.80687E-04   -0.81907E-04   624   0.117E-03 0.345E-04
CGA:   8    -0.152563810493E+04   -0.56928E-04   -0.61592E-04   624   0.118E-03-0.281E-04
CGA:   9    -0.152563813657E+04   -0.31633E-04   -0.44655E-04   624   0.130E-03-0.706E-04
CGA:  10    -0.152563816184E+04   -0.25276E-04   -0.27076E-04   624   0.388E-04 0.158E-04
CGA:  11    -0.152563817263E+04   -0.10785E-04   -0.11460E-04   624   0.175E-04 0.125E-04
CGA:  12    -0.152563818201E+04   -0.93831E-05   -0.91409E-05   624   0.134E-04 0.310E-05
  54 F= -.15256382E+04 E0= -.15256382E+04  d E =0.477785E-02  mag=    16.0000
       N       E                     dE             d eps       ncg     rms          ort
SDA:   1    -0.152512959325E+04    0.50858E+00    0.00000E+00   624   0.126E+01 0.000E+00
CGA:   2    -0.152550046269E+04   -0.37087E+00   -0.37100E+00   624   0.491E+00 0.502E-02
CGA:   3    -0.152560379696E+04   -0.10333E+00   -0.10317E+00   624   0.938E-01-0.148E-02
CGA:   4    -0.152562080146E+04   -0.17004E-01   -0.16850E-01   624   0.188E-01-0.116E-02
CGA:   5    -0.152562473617E+04   -0.39347E-02   -0.39246E-02   624   0.456E-02-0.105E-03
CGA:   6    -0.152562580194E+04   -0.10658E-02   -0.10669E-02   624   0.134E-02 0.182E-04
CGA:   7    -0.152562620951E+04   -0.40756E-03   -0.40783E-03   624   0.601E-03-0.555E-04
CGA:   8    -0.152562642407E+04   -0.21456E-03   -0.21907E-03   624   0.347E-03-0.544E-04
CGA:   9    -0.152562654858E+04   -0.12451E-03   -0.15341E-03   624   0.340E-03-0.156E-03
CGA:  10    -0.152562658972E+04   -0.41140E-04   -0.40974E-04   624   0.161E-03-0.953E-06
CGA:  11    -0.152562662573E+04   -0.36002E-04   -0.37002E-04   624   0.910E-04 0.134E-04
CGA:  12    -0.152562665470E+04   -0.28972E-04   -0.29019E-04   624   0.773E-04 0.584E-05
CGA:  13    -0.152562666723E+04   -0.12529E-04   -0.16219E-04   624   0.474E-04 0.352E-04
CGA:  14    -0.152562667368E+04   -0.64485E-05   -0.11043E-04   624   0.269E-04 0.336E-04
CGA:  15    -0.152562668431E+04   -0.10634E-04   -0.10453E-04   624   0.203E-04 0.187E-05
CGA:  16    -0.152562668370E+04    0.60833E-06   -0.22900E-05   624   0.114E-04 0.153E-04
  55 F= -.15256267E+04 E0= -.15256267E+04  d E =0.114983E-01  mag=    16.0000
       N       E                     dE             d eps       ncg     rms          ort
SDA:   1    -0.152488698770E+04    0.73970E+00    0.00000E+00   624   0.185E+01 0.000E+00
CGA:   2    -0.152542549984E+04   -0.53851E+00   -0.53839E+00   624   0.758E+00 0.783E-02
CGA:   3    -0.152558069944E+04   -0.15520E+00   -0.15500E+00   624   0.144E+00-0.234E-02
CGA:   4    -0.152560642632E+04   -0.25727E-01   -0.25633E-01   624   0.281E-01-0.971E-03
CGA:   5    -0.152561245622E+04   -0.60299E-02   -0.60148E-02   624   0.689E-02-0.277E-03
CGA:   6    -0.152561401121E+04   -0.15550E-02   -0.15585E-02   624   0.192E-02 0.942E-04
CGA:   7    -0.152561454192E+04   -0.53071E-03   -0.53007E-03   624   0.703E-03 0.764E-04
CGA:   8    -0.152561481873E+04   -0.27681E-03   -0.28946E-03   624   0.481E-03-0.962E-04
CGA:   9    -0.152561492722E+04   -0.10849E-03   -0.10881E-03   624   0.190E-03 0.356E-04
CGA:  10    -0.152561499743E+04   -0.70204E-04   -0.75060E-04   624   0.134E-03-0.497E-04
CGA:  11    -0.152561501572E+04   -0.18290E-04   -0.20522E-04   624   0.727E-04 0.325E-04
CGA:  12    -0.152561503128E+04   -0.15564E-04   -0.17869E-04   624   0.401E-04 0.308E-04
CGA:  13    -0.152561504715E+04   -0.15871E-04   -0.15763E-04   624   0.328E-04 0.144E-04
CGA:  14    -0.152561505212E+04   -0.49660E-05   -0.76758E-05   624   0.250E-04 0.278E-04
  56 F= -.15256151E+04 E0= -.15256151E+04  d E =0.116316E-01  mag=    16.0000
       N       E                     dE             d eps       ncg     rms          ort
SDA:   1    -0.152545843597E+04    0.15661E+00    0.00000E+00   624   0.449E+00 0.000E+00
CGA:   2    -0.152556972827E+04   -0.11129E+00   -0.11126E+00   624   0.194E+00-0.261E-02
CGA:   3    -0.152561196055E+04   -0.42232E-01   -0.42245E-01   624   0.404E-01 0.276E-03
CGA:   4    -0.152561902443E+04   -0.70639E-02   -0.70998E-02   624   0.738E-02 0.456E-03
CGA:   5    -0.152562054795E+04   -0.15235E-02   -0.15301E-02   624   0.179E-02 0.140E-03
CGA:   6    -0.152562099784E+04   -0.44989E-03   -0.44982E-03   624   0.537E-03-0.192E-04
CGA:   7    -0.152562115363E+04   -0.15579E-03   -0.15796E-03   624   0.221E-03-0.455E-04
CGA:   8    -0.152562121697E+04   -0.63337E-04   -0.63841E-04   624   0.916E-04-0.791E-05
CGA:   9    -0.152562124341E+04   -0.26447E-04   -0.26164E-04   624   0.318E-04 0.693E-05
CGA:  10    -0.152562125112E+04   -0.77025E-05   -0.79567E-05   624   0.113E-04 0.102E-04
  57 F= -.15256213E+04 E0= -.15256213E+04  d E =-.619900E-02  mag=    16.0000
       N       E                     dE             d eps       ncg     rms          ort
SDA:   1    -0.152560451512E+04    0.16728E-01    0.00000E+00   624   0.482E-01 0.000E+00
CGA:   2    -0.152561943622E+04   -0.14921E-01   -0.15006E-01   624   0.197E-01-0.161E-02
CGA:   3    -0.152562302375E+04   -0.35875E-02   -0.36324E-02   624   0.411E-02 0.641E-03
CGA:   4    -0.152562375098E+04   -0.72723E-03   -0.76205E-03   624   0.765E-03 0.448E-03
CGA:   5    -0.152562390863E+04   -0.15765E-03   -0.16502E-03   624   0.191E-03 0.124E-03
CGA:   6    -0.152562397916E+04   -0.70526E-04   -0.73694E-04   624   0.118E-03-0.389E-04
CGA:   7    -0.152562400731E+04   -0.28153E-04   -0.36995E-04   624   0.102E-03-0.630E-04
CGA:   8    -0.152562401572E+04   -0.84102E-05   -0.13291E-04   624   0.252E-04 0.373E-04
  58 F= -.15256240E+04 E0= -.15256240E+04  d E =-.276461E-02  mag=    16.0000
