       N       E                     dE             d eps       ncg     rms          ort
DAV:   1     0.271378681922E+04    0.27138E+04   -0.16101E+05 10962   0.165E+03
DAV:   2    -0.148323371919E+03   -0.28621E+04   -0.26845E+04 10962   0.448E+02
DAV:   3    -0.442692358382E+03   -0.29437E+03   -0.28784E+03 10962   0.162E+02
DAV:   4    -0.453526948749E+03   -0.10835E+02   -0.10497E+02 10962   0.320E+01
DAV:   5    -0.454277701362E+03   -0.75075E+00   -0.74571E+00 10962   0.619E+00
SDA:   6    -0.257326266808E+03    0.19695E+03   -0.74571E+00 10962   0.149E+04 0.000E+00
CGA:   7    -0.330575695325E+03   -0.73249E+02   -0.13331E+03 10962   0.101E+03 0.215E+02
CGA:   8    -0.345607783814E+03   -0.15032E+02   -0.15642E+02 10962   0.201E+02 0.537E+01
CGA:   9    -0.349600705613E+03   -0.39929E+01   -0.39933E+01 10962   0.963E+01 0.971E-02
CGA:  10    -0.351333069996E+03   -0.17324E+01   -0.17326E+01 10962   0.402E+01-0.812E-02
CGA:  11    -0.352080081427E+03   -0.74701E+00   -0.74719E+00 10962   0.142E+01 0.217E-01
CGA:  12    -0.352392081463E+03   -0.31200E+00   -0.31154E+00 10962   0.532E+00 0.167E-01
CGA:  13    -0.352504312633E+03   -0.11223E+00   -0.11204E+00 10962   0.176E+00 0.124E-01
CGA:  14    -0.352542675498E+03   -0.38363E-01   -0.38116E-01 10962   0.520E-01 0.141E-01
CGA:  15    -0.352556540499E+03   -0.13865E-01   -0.13788E-01 10962   0.190E-01 0.152E-02
CGA:  16    -0.352562083193E+03   -0.55427E-02   -0.55923E-02 10962   0.820E-02-0.541E-03
CGA:  17    -0.352564244897E+03   -0.21617E-02   -0.21323E-02 10962   0.295E-02 0.447E-03
CGA:  18    -0.352565267497E+03   -0.10226E-02   -0.16358E-02 10962   0.397E-02-0.191E-02
CGA:  19    -0.352565948110E+03   -0.68061E-03   -0.70358E-03 10962   0.500E-03 0.529E-03
CGA:  20    -0.352566206733E+03   -0.25862E-03    0.14116E-02 10962   0.170E-03 0.184E-03
CGA:  21    -0.352566346535E+03   -0.13980E-03    0.67825E-04 10962   0.942E-04 0.110E-03
CGA:  22    -0.352566381154E+03   -0.34619E-04   -0.30474E-04 10962   0.550E-04 0.392E-04
CGA:  23    -0.352566451502E+03   -0.70348E-04    0.85715E-05 10962   0.299E-04 0.514E-04
CGA:  24    -0.352566479407E+03   -0.27904E-04    0.30808E-05 10962   0.202E-04 0.228E-04
CGA:  25    -0.352566494547E+03   -0.15140E-04    0.33319E-05 10962   0.159E-04 0.177E-04
CGA:  26    -0.352566508960E+03   -0.14414E-04    0.17430E-05 10962   0.128E-04 0.142E-04
CGA:  27    -0.352566519484E+03   -0.10524E-04    0.17133E-05 10962   0.104E-04 0.114E-04
CGA:  28    -0.352566528887E+03   -0.94029E-05    0.11246E-05 10962   0.837E-05 0.924E-05
   1 F= -.35256653E+03 E0= -.35256653E+03  d E =-.352567E+03  mag=     8.0000
       N       E                     dE             d eps       ncg     rms          ort
SDA:   1    -0.352578105762E+03   -0.11586E-01    0.00000E+00 10962   0.321E-02 0.000E+00
CGA:   2    -0.352578855896E+03   -0.75013E-03   -0.74903E-03 10962   0.106E-02 0.115E-03
CGA:   3    -0.352579073585E+03   -0.21769E-03   -0.21600E-03 10962   0.597E-03-0.618E-04
CGA:   4    -0.352579163468E+03   -0.89883E-04   -0.86436E-04 10962   0.156E-03-0.501E-04
CGA:   5    -0.352579189641E+03   -0.26173E-04   -0.25319E-04 10962   0.597E-04-0.200E-04
CGA:   6    -0.352579202173E+03   -0.12532E-04   -0.14142E-04 10962   0.593E-04-0.298E-04
CGA:   7    -0.352579215315E+03   -0.13142E-04    0.10799E-02 10962   0.349E-04-0.138E-04
CGA:   8    -0.352579228429E+03   -0.13114E-04    0.25536E-04 10962   0.193E-04-0.301E-05
CGA:   9    -0.352579231724E+03   -0.32950E-05   -0.71470E-05 10962   0.407E-04-0.208E-04
   2 F= -.35257923E+03 E0= -.35257923E+03  d E =-.127028E-01  mag=     8.0000
       N       E                     dE             d eps       ncg     rms          ort
SDA:   1    -0.351133175939E+03    0.14461E+01    0.00000E+00 10962   0.547E+01 0.000E+00
CGA:   2    -0.352456460156E+03   -0.13233E+01   -0.13232E+01 10962   0.191E+01 0.870E-03
CGA:   3    -0.352798474463E+03   -0.34201E+00   -0.34184E+00 10962   0.885E+00-0.489E-02
CGA:   4    -0.352931116366E+03   -0.13264E+00   -0.13234E+00 10962   0.214E+00-0.435E-02
CGA:   5    -0.352965795739E+03   -0.34679E-01   -0.34635E-01 10962   0.646E-01-0.809E-03
CGA:   6    -0.352977265942E+03   -0.11470E-01   -0.11487E-01 10962   0.231E-01 0.402E-03
CGA:   7    -0.352982623193E+03   -0.53573E-02   -0.53640E-02 10962   0.116E-01-0.402E-03
CGA:   8    -0.352985748274E+03   -0.31251E-02   -0.32154E-02 10962   0.669E-02-0.134E-02
CGA:   9    -0.352987316074E+03   -0.15678E-02   -0.15985E-02 10962   0.319E-02-0.588E-03
CGA:  10    -0.352988051673E+03   -0.73560E-03   -0.73727E-03 10962   0.110E-02-0.494E-04
CGA:  11    -0.352988295650E+03   -0.24398E-03   -0.24331E-03 10962   0.372E-03 0.194E-03
CGA:  12    -0.352988374631E+03   -0.78982E-04   -0.83989E-04 10962   0.152E-03 0.163E-03
CGA:  13    -0.352988408929E+03   -0.34297E-04   -0.38743E-04 10962   0.748E-04 0.101E-03
CGA:  14    -0.352988428298E+03   -0.19369E-04   -0.18372E-04 10962   0.358E-04 0.368E-04
CGA:  15    -0.352988434198E+03   -0.59002E-05   -0.83794E-05 10962   0.253E-04 0.394E-04
   3 F= -.35298843E+03 E0= -.35298843E+03  d E =-.409202E+00  mag=     8.0000
       N       E                     dE             d eps       ncg     rms          ort
SDA:   1    -0.347642398835E+03    0.53460E+01    0.00000E+00 10962   0.173E+02 0.000E+00
CGA:   2    -0.351695306045E+03   -0.40529E+01   -0.40526E+01 10962   0.613E+01-0.211E-02
CGA:   3    -0.352766438817E+03   -0.10711E+01   -0.10707E+01 10962   0.277E+01-0.139E-01
CGA:   4    -0.353184326155E+03   -0.41789E+00   -0.41747E+00 10962   0.683E+00-0.758E-02
CGA:   5    -0.353293827710E+03   -0.10950E+00   -0.10947E+00 10962   0.203E+00-0.736E-03
CGA:   6    -0.353329932540E+03   -0.36105E-01   -0.36143E-01 10962   0.746E-01 0.134E-02
CGA:   7    -0.353347214141E+03   -0.17282E-01   -0.17284E-01 10962   0.376E-01-0.887E-04
CGA:   8    -0.353357448842E+03   -0.10235E-01   -0.10366E-01 10962   0.210E-01-0.193E-02
CGA:   9    -0.353362875681E+03   -0.54268E-02   -0.55137E-02 10962   0.103E-01-0.132E-02
CGA:  10    -0.353365360068E+03   -0.24844E-02   -0.24944E-02 10962   0.361E-02-0.227E-03
CGA:  11    -0.353366210845E+03   -0.85078E-03   -0.84161E-03 10962   0.119E-02 0.426E-03
CGA:  12    -0.353366515772E+03   -0.30493E-03   -0.30161E-03 10962   0.455E-03 0.347E-03
CGA:  13    -0.353366654675E+03   -0.13890E-03   -0.13629E-03 10962   0.207E-03 0.195E-03
CGA:  14    -0.353366721421E+03   -0.66746E-04   -0.66180E-04 10962   0.947E-04 0.117E-03
CGA:  15    -0.353366756784E+03   -0.35363E-04   -0.33150E-04 10962   0.425E-04 0.169E-04
CGA:  16    -0.353366783852E+03   -0.27068E-04   -0.25068E-04 10962   0.243E-04 0.727E-05
CGA:  17    -0.353366783995E+03   -0.14315E-06   -0.30336E-05 10962   0.144E-04 0.218E-04
   4 F= -.35336678E+03 E0= -.35336678E+03  d E =-.378350E+00  mag=     8.0000
       N       E                     dE             d eps       ncg     rms          ort
SDA:   1    -0.351076449686E+03    0.22903E+01    0.00000E+00 10962   0.704E+01 0.000E+00
CGA:   2    -0.352727637825E+03   -0.16512E+01   -0.16511E+01 10962   0.297E+01 0.231E-02
CGA:   3    -0.353219356884E+03   -0.49172E+00   -0.49156E+00 10962   0.123E+01-0.320E-02
CGA:   4    -0.353405674551E+03   -0.18632E+00   -0.18619E+00 10962   0.299E+00-0.216E-02
CGA:   5    -0.353452058905E+03   -0.46384E-01   -0.46359E-01 10962   0.837E-01-0.462E-03
CGA:   6    -0.353466869693E+03   -0.14811E-01   -0.14831E-01 10962   0.304E-01 0.506E-03
CGA:   7    -0.353473623815E+03   -0.67541E-02   -0.67523E-02 10962   0.141E-01 0.395E-03
CGA:   8    -0.353477458803E+03   -0.38350E-02   -0.38498E-02 10962   0.798E-02-0.275E-03
CGA:   9    -0.353479651623E+03   -0.21928E-02   -0.22128E-02 10962   0.419E-02-0.314E-03
CGA:  10    -0.353480722065E+03   -0.10704E-02   -0.10735E-02 10962   0.156E-02-0.680E-04
CGA:  11    -0.353481112262E+03   -0.39020E-03   -0.38785E-03 10962   0.517E-03 0.838E-04
CGA:  12    -0.353481245138E+03   -0.13288E-03   -0.13124E-03 10962   0.189E-03 0.108E-03
CGA:  13    -0.353481312839E+03   -0.67701E-04   -0.65331E-04 10962   0.899E-04 0.394E-04
CGA:  14    -0.353481348163E+03   -0.35324E-04   -0.34036E-04 10962   0.416E-04 0.154E-04
CGA:  15    -0.353481360981E+03   -0.12818E-04   -0.12509E-04 10962   0.155E-04 0.136E-04
CGA:  16    -0.353481367413E+03   -0.64326E-05   -0.62954E-05 10962   0.669E-05 0.195E-05
   5 F= -.35348137E+03 E0= -.35348137E+03  d E =-.114583E+00  mag=     8.0000
       N       E                     dE             d eps       ncg     rms          ort
SDA:   1    -0.347828861048E+03    0.56525E+01    0.00000E+00 10962   0.156E+02 0.000E+00
CGA:   2    -0.351658004683E+03   -0.38291E+01   -0.38290E+01 10962   0.848E+01 0.358E-02
CGA:   3    -0.352971681452E+03   -0.13137E+01   -0.13133E+01 10962   0.289E+01-0.359E-02
CGA:   4    -0.353392278120E+03   -0.42060E+00   -0.42052E+00 10962   0.684E+00-0.190E-02
CGA:   5    -0.353497425867E+03   -0.10515E+00   -0.10518E+00 10962   0.187E+00 0.126E-03
CGA:   6    -0.353530457177E+03   -0.33031E-01   -0.33056E-01 10962   0.643E-01 0.475E-03
CGA:   7    -0.353543915859E+03   -0.13459E-01   -0.13463E-01 10962   0.256E-01 0.319E-03
CGA:   8    -0.353550315871E+03   -0.64000E-02   -0.63989E-02 10962   0.129E-01 0.385E-04
CGA:   9    -0.353553931338E+03   -0.36155E-02   -0.36318E-02 10962   0.679E-02-0.276E-03
CGA:  10    -0.353555763011E+03   -0.18317E-02   -0.18376E-02 10962   0.276E-02-0.116E-03
CGA:  11    -0.353556510519E+03   -0.74751E-03   -0.74913E-03 10962   0.101E-02-0.338E-04
CGA:  12    -0.353556797516E+03   -0.28700E-03   -0.28483E-03 10962   0.408E-03 0.401E-04
CGA:  13    -0.353556938660E+03   -0.14114E-03   -0.13894E-03 10962   0.197E-03 0.230E-04
CGA:  14    -0.353557018126E+03   -0.79466E-04   -0.81518E-04 10962   0.112E-03-0.135E-04
CGA:  15    -0.353557043194E+03   -0.25068E-04   -0.25221E-04 10962   0.417E-04 0.310E-04
CGA:  16    -0.353557057060E+03   -0.13866E-04   -0.13756E-04 10962   0.164E-04 0.812E-05
CGA:  17    -0.353557062273E+03   -0.52137E-05   -0.51221E-05 10962   0.825E-05 0.603E-05
   6 F= -.35355706E+03 E0= -.35355706E+03  d E =-.756949E-01  mag=     8.0000
       N       E                     dE             d eps       ncg     rms          ort
SDA:   1    -0.343684589058E+03    0.98725E+01    0.00000E+00 10962   0.256E+02 0.000E+00
CGA:   2    -0.350542912067E+03   -0.68583E+01   -0.68579E+01 10962   0.147E+02 0.613E-02
CGA:   3    -0.352730556070E+03   -0.21876E+01   -0.21881E+01 10962   0.444E+01 0.269E-02
CGA:   4    -0.353363723344E+03   -0.63317E+00   -0.63295E+00 10962   0.105E+01-0.272E-02
CGA:   5    -0.353528019033E+03   -0.16430E+00   -0.16430E+00 10962   0.297E+00-0.354E-03
CGA:   6    -0.353579941898E+03   -0.51923E-01   -0.51956E-01 10962   0.978E-01 0.487E-03
CGA:   7    -0.353599934208E+03   -0.19992E-01   -0.19991E-01 10962   0.366E-01-0.610E-04
CGA:   8    -0.353608947971E+03   -0.90138E-02   -0.90224E-02 10962   0.178E-01-0.512E-03
CGA:   9    -0.353613763955E+03   -0.48160E-02   -0.48436E-02 10962   0.892E-02-0.598E-03
CGA:  10    -0.353616148446E+03   -0.23845E-02   -0.23994E-02 10962   0.366E-02-0.327E-03
CGA:  11    -0.353617124026E+03   -0.97558E-03   -0.98085E-03 10962   0.134E-02-0.122E-03
CGA:  12    -0.353617495231E+03   -0.37120E-03   -0.36909E-03 10962   0.537E-03 0.434E-04
CGA:  13    -0.353617679415E+03   -0.18418E-03   -0.18064E-03 10962   0.265E-03 0.406E-04
CGA:  14    -0.353617782006E+03   -0.10259E-03   -0.99508E-04 10962   0.136E-03 0.290E-04
CGA:  15    -0.353617827681E+03   -0.45674E-04   -0.44108E-04 10962   0.522E-04 0.366E-04
CGA:  16    -0.353617851955E+03   -0.24275E-04   -0.23950E-04 10962   0.266E-04 0.286E-05
CGA:  17    -0.353617859059E+03   -0.71037E-05   -0.71299E-05 10962   0.127E-04 0.106E-04
CGA:  18    -0.353617813670E+03    0.45389E-04   -0.25323E-04 10962   0.268E-03-0.562E-04
CGA:  19    -0.353617869741E+03   -0.56070E-04   -0.63751E-04 10962   0.236E-04 0.333E-04
CGA:  20    -0.353617898526E+03   -0.28786E-04    0.32636E-04 10962   0.274E-04-0.124E-04
CGA:  21    -0.353617892897E+03    0.56290E-05   -0.15000E-05 10962   0.118E-04 0.177E-04
   7 F= -.35361789E+03 E0= -.35361789E+03  d E =-.608306E-01  mag=     8.0000
       N       E                     dE             d eps       ncg     rms          ort
SDA:   1    -0.352953094501E+03    0.66480E+00    0.00000E+00 10962   0.193E+01 0.000E+00
CGA:   2    -0.353410620690E+03   -0.45753E+00   -0.45792E+00 10962   0.106E+01 0.781E-03
CGA:   3    -0.353575490781E+03   -0.16487E+00   -0.16487E+00 10962   0.363E+00 0.389E-03
CGA:   4    -0.353629444934E+03   -0.53954E-01   -0.53918E-01 10962   0.934E-01-0.190E-03
CGA:   5    -0.353643853426E+03   -0.14408E-01   -0.14417E-01 10962   0.259E-01-0.149E-04
CGA:   6    -0.353648419257E+03   -0.45658E-02   -0.45521E-02 10962   0.858E-02-0.737E-04
CGA:   7    -0.353650191797E+03   -0.17725E-02   -0.17694E-02 10962   0.348E-02-0.208E-04
CGA:   8    -0.353651012178E+03   -0.82038E-03   -0.83030E-03 10962   0.155E-02 0.858E-04
CGA:   9    -0.353651439741E+03   -0.42756E-03   -0.42741E-03 10962   0.763E-03-0.248E-05
CGA:  10    -0.353651647483E+03   -0.20774E-03   -0.20800E-03 10962   0.311E-03 0.333E-05
CGA:  11    -0.353651729556E+03   -0.82072E-04   -0.83041E-04 10962   0.115E-03 0.130E-04
CGA:  12    -0.353651771461E+03   -0.41905E-04   -0.42195E-04 10962   0.666E-04-0.194E-04
CGA:  13    -0.353651783520E+03   -0.12060E-04   -0.13286E-04 10962   0.276E-04 0.125E-04
CGA:  14    -0.353651793309E+03   -0.97893E-05   -0.97959E-05 10962   0.144E-04 0.180E-06
   8 F= -.35365179E+03 E0= -.35365179E+03  d E =-.339004E-01  mag=     8.0000
       N       E                     dE             d eps       ncg     rms          ort
SDA:   1    -0.353220598857E+03    0.43118E+00    0.00000E+00 10962   0.119E+01 0.000E+00
CGA:   2    -0.353544625720E+03   -0.32403E+00   -0.32412E+00 10962   0.616E+00 0.864E-03
CGA:   3    -0.353639216625E+03   -0.94591E-01   -0.94611E-01 10962   0.210E+00 0.587E-04
CGA:   4    -0.353669763236E+03   -0.30547E-01   -0.30529E-01 10962   0.509E-01-0.167E-03
CGA:   5    -0.353677589900E+03   -0.78267E-02   -0.78211E-02 10962   0.147E-01-0.552E-04
CGA:   6    -0.353680190890E+03   -0.26010E-02   -0.25951E-02 10962   0.498E-02-0.457E-04
CGA:   7    -0.353681200183E+03   -0.10093E-02   -0.10142E-02 10962   0.197E-02 0.504E-04
CGA:   8    -0.353681663411E+03   -0.46323E-03   -0.46921E-03 10962   0.854E-03 0.983E-04
CGA:   9    -0.353681911437E+03   -0.24803E-03   -0.24807E-03 10962   0.444E-03 0.256E-05
CGA:  10    -0.353682030539E+03   -0.11910E-03   -0.11921E-03 10962   0.179E-03 0.433E-05
CGA:  11    -0.353682083925E+03   -0.53385E-04   -0.53463E-04 10962   0.775E-04-0.142E-04
CGA:  12    -0.353682108255E+03   -0.24331E-04   -0.25494E-04 10962   0.470E-04-0.177E-04
CGA:  13    -0.353682120226E+03   -0.11971E-04   -0.12121E-04 10962   0.228E-04-0.384E-05
CGA:  14    -0.353682114389E+03    0.58376E-05   -0.19734E-04 10962   0.111E-03-0.398E-04
CGA:  15    -0.353682129094E+03   -0.14705E-04   -0.18851E-04 10962   0.142E-04 0.260E-04
CGA:  16    -0.353682135098E+03   -0.60043E-05   -0.82380E-05 10962   0.205E-04-0.149E-04
   9 F= -.35368214E+03 E0= -.35368214E+03  d E =-.303418E-01  mag=     8.0000
       N       E                     dE             d eps       ncg     rms          ort
SDA:   1    -0.351724955435E+03    0.19572E+01    0.00000E+00 10962   0.483E+01 0.000E+00
CGA:   2    -0.353219293360E+03   -0.14943E+01   -0.14944E+01 10962   0.237E+01 0.378E-02
CGA:   3    -0.353565112485E+03   -0.34582E+00   -0.34589E+00 10962   0.706E+00-0.302E-03
CGA:   4    -0.353665522268E+03   -0.10041E+00   -0.10019E+00 10962   0.166E+00-0.147E-02
CGA:   5    -0.353691602510E+03   -0.26080E-01   -0.25988E-01 10962   0.474E-01-0.688E-03
CGA:   6    -0.353699818839E+03   -0.82163E-02   -0.82193E-02 10962   0.149E-01 0.133E-04
CGA:   7    -0.353702689277E+03   -0.28704E-02   -0.28890E-02 10962   0.503E-02 0.195E-03
CGA:   8    -0.353703903771E+03   -0.12145E-02   -0.12169E-02 10962   0.231E-02 0.553E-04
CGA:   9    -0.353704540498E+03   -0.63673E-03   -0.63658E-03 10962   0.115E-02-0.207E-04
CGA:  10    -0.353704863278E+03   -0.32278E-03   -0.32292E-03 10962   0.481E-03-0.398E-04
CGA:  11    -0.353705000077E+03   -0.13680E-03   -0.13785E-03 10962   0.195E-03-0.608E-04
CGA:  12    -0.353705045175E+03   -0.45098E-04   -0.45190E-04 10962   0.702E-04 0.593E-05
CGA:  13    -0.353705073381E+03   -0.28206E-04   -0.30994E-04 10962   0.592E-04-0.188E-04
CGA:  14    -0.353705086535E+03   -0.13154E-04   -0.13097E-04 10962   0.341E-04 0.384E-05
CGA:  15    -0.353705099634E+03   -0.13099E-04   -0.13993E-04 10962   0.223E-04-0.920E-05
CGA:  16    -0.353705103343E+03   -0.37095E-05   -0.38381E-05 10962   0.107E-04 0.223E-05
  10 F= -.35370510E+03 E0= -.35370510E+03  d E =-.229682E-01  mag=     8.0000
       N       E                     dE             d eps       ncg     rms          ort
SDA:   1    -0.337726193802E+03    0.15979E+02    0.00000E+00 10962   0.391E+02 0.000E+00
CGA:   2    -0.349577612453E+03   -0.11851E+02   -0.11851E+02 10962   0.201E+02 0.122E-01
CGA:   3    -0.352468738165E+03   -0.28911E+01   -0.28956E+01 10962   0.578E+01 0.153E-01
CGA:   4    -0.353297410816E+03   -0.82867E+00   -0.82785E+00 10962   0.140E+01-0.542E-02
CGA:   5    -0.353520486873E+03   -0.22308E+00   -0.22278E+00 10962   0.414E+00-0.296E-02
CGA:   6    -0.353594152436E+03   -0.73666E-01   -0.73696E-01 10962   0.140E+00 0.141E-03
CGA:   7    -0.353622333901E+03   -0.28181E-01   -0.28207E-01 10962   0.520E-01 0.343E-03
CGA:   8    -0.353635078188E+03   -0.12744E-01   -0.12742E-01 10962   0.242E-01-0.172E-03
CGA:   9    -0.353641549867E+03   -0.64717E-02   -0.64770E-02 10962   0.112E-01-0.480E-03
CGA:  10    -0.353644552422E+03   -0.30026E-02   -0.30111E-02 10962   0.428E-02-0.545E-03
CGA:  11    -0.353645656702E+03   -0.11043E-02   -0.11073E-02 10962   0.147E-02-0.232E-03
CGA:  12    -0.353646071615E+03   -0.41491E-03   -0.41746E-03 10962   0.611E-03-0.653E-04
CGA:  13    -0.353646279629E+03   -0.20801E-03   -0.20878E-03 10962   0.340E-03-0.850E-05
CGA:  14    -0.353646409765E+03   -0.13014E-03   -0.12844E-03 10962   0.194E-03 0.142E-04
CGA:  15    -0.353646484139E+03   -0.74374E-04   -0.72703E-04 10962   0.900E-04 0.188E-04
CGA:  16    -0.353646515257E+03   -0.31118E-04   -0.30520E-04 10962   0.381E-04 0.182E-04
CGA:  17    -0.353646535082E+03   -0.19825E-04   -0.22072E-04 10962   0.422E-04-0.112E-04
CGA:  18    -0.353646541878E+03   -0.67962E-05   -0.69477E-05 10962   0.288E-04 0.263E-05
CGA:  19    -0.353646553367E+03   -0.11489E-04   -0.16171E-04 10962   0.482E-04-0.194E-04
CGA:  20    -0.353646567029E+03   -0.13661E-04   -0.13374E-04 10962   0.285E-04-0.139E-04
CGA:  21    -0.353646568903E+03   -0.18744E-05   -0.28762E-05 10962   0.916E-05 0.645E-05
  11 F= -.35364657E+03 E0= -.35364657E+03  d E =0.585344E-01  mag=     8.0000
       N       E                     dE             d eps       ncg     rms          ort
SDA:   1    -0.345371330298E+03    0.82752E+01    0.00000E+00 10962   0.213E+02 0.000E+00
CGA:   2    -0.351175867118E+03   -0.58045E+01   -0.58047E+01 10962   0.126E+02 0.987E-02
CGA:   3    -0.353016251824E+03   -0.18404E+01   -0.18406E+01 10962   0.359E+01 0.754E-02
CGA:   4    -0.353527234084E+03   -0.51098E+00   -0.51037E+00 10962   0.849E+00-0.437E-02
CGA:   5    -0.353661277254E+03   -0.13404E+00   -0.13392E+00 10962   0.245E+00-0.164E-02
CGA:   6    -0.353703903618E+03   -0.42626E-01   -0.42601E-01 10962   0.791E-01-0.372E-03
CGA:   7    -0.353719603272E+03   -0.15700E-01   -0.15703E-01 10962   0.286E-01 0.240E-04
CGA:   8    -0.353726318825E+03   -0.67156E-02   -0.67220E-02 10962   0.124E-01 0.332E-03
CGA:   9    -0.353729684133E+03   -0.33653E-02   -0.33679E-02 10962   0.596E-02-0.155E-03
CGA:  10    -0.353731328007E+03   -0.16439E-02   -0.16499E-02 10962   0.247E-02-0.225E-03
CGA:  11    -0.353731975002E+03   -0.64699E-03   -0.64848E-03 10962   0.883E-03-0.837E-04
CGA:  12    -0.353732244916E+03   -0.26991E-03   -0.27783E-03 10962   0.432E-03-0.114E-03
CGA:  13    -0.353732353830E+03   -0.10891E-03   -0.10746E-03 10962   0.191E-03 0.550E-04
CGA:  14    -0.353732436287E+03   -0.82457E-04   -0.82934E-04 10962   0.129E-03-0.412E-05
CGA:  15    -0.353732472275E+03   -0.35988E-04   -0.35519E-04 10962   0.619E-04 0.321E-04
CGA:  16    -0.353732499235E+03   -0.26961E-04   -0.26871E-04 10962   0.336E-04 0.941E-06
CGA:  17    -0.353732510227E+03   -0.10992E-04   -0.23634E-04 10962   0.674E-04-0.303E-04
CGA:  18    -0.353732521403E+03   -0.11175E-04   -0.13143E-04 10962   0.119E-04 0.201E-04
CGA:  19    -0.353732531791E+03   -0.10388E-04    0.13487E-04 10962   0.517E-05 0.261E-05
CGA:  20    -0.353732533791E+03   -0.20004E-05   -0.19540E-05 10962   0.344E-05 0.208E-05
  12 F= -.35373253E+03 E0= -.35373253E+03  d E =-.859649E-01  mag=     8.0000
       N       E                     dE             d eps       ncg     rms          ort
SDA:   1    -0.350580238144E+03    0.31523E+01    0.00000E+00 10962   0.766E+01 0.000E+00
CGA:   2    -0.352933596651E+03   -0.23534E+01   -0.23532E+01 10962   0.374E+01 0.171E-02
CGA:   3    -0.353498662411E+03   -0.56507E+00   -0.56529E+00 10962   0.118E+01 0.390E-03
CGA:   4    -0.353666679979E+03   -0.16802E+00   -0.16811E+00 10962   0.288E+00 0.567E-03
CGA:   5    -0.353712697746E+03   -0.46018E-01   -0.46046E-01 10962   0.866E-01 0.205E-03
CGA:   6    -0.353728114023E+03   -0.15416E-01   -0.15411E-01 10962   0.290E-01-0.864E-04
CGA:   7    -0.353734140564E+03   -0.60265E-02   -0.60096E-02 10962   0.116E-01-0.302E-03
CGA:   8    -0.353736945915E+03   -0.28054E-02   -0.28024E-02 10962   0.527E-02-0.156E-03
CGA:   9    -0.353738292417E+03   -0.13465E-02   -0.13463E-02 10962   0.230E-02-0.566E-04
CGA:  10    -0.353738917133E+03   -0.62472E-03   -0.62654E-03 10962   0.869E-03-0.136E-03
CGA:  11    -0.353739121679E+03   -0.20455E-03   -0.20466E-03 10962   0.266E-03 0.901E-05
CGA:  12    -0.353739206935E+03   -0.85256E-04   -0.88312E-04 10962   0.131E-03-0.459E-04
CGA:  13    -0.353739235170E+03   -0.28235E-04   -0.28304E-04 10962   0.557E-04 0.195E-04
CGA:  14    -0.353739255448E+03   -0.20278E-04   -0.20046E-04 10962   0.316E-04 0.478E-05
CGA:  15    -0.353739266629E+03   -0.11180E-04   -0.10941E-04 10962   0.166E-04 0.462E-05
CGA:  16    -0.353739270569E+03   -0.39402E-05   -0.42653E-05 10962   0.692E-05 0.714E-05
  13 F= -.35373927E+03 E0= -.35373927E+03  d E =-.673678E-02  mag=     8.0000
       N       E                     dE             d eps       ncg     rms          ort
SDA:   1    -0.353544644243E+03    0.19462E+00    0.00000E+00 10962   0.549E+00 0.000E+00
CGA:   2    -0.353707350338E+03   -0.16271E+00   -0.16272E+00 10962   0.265E+00-0.570E-03
CGA:   3    -0.353749592114E+03   -0.42242E-01   -0.42251E-01 10962   0.101E+00 0.182E-04
CGA:   4    -0.353764534687E+03   -0.14943E-01   -0.14947E-01 10962   0.263E-01 0.107E-05
CGA:   5    -0.353768923908E+03   -0.43892E-02   -0.43920E-02 10962   0.897E-02 0.240E-04
CGA:   6    -0.353770550308E+03   -0.16264E-02   -0.16272E-02 10962   0.311E-02 0.996E-05
CGA:   7    -0.353771226378E+03   -0.67607E-03   -0.67417E-03 10962   0.146E-02-0.533E-04
CGA:   8    -0.353771590327E+03   -0.36395E-03   -0.36421E-03 10962   0.627E-03-0.923E-04
CGA:   9    -0.353771731483E+03   -0.14116E-03   -0.14090E-03 10962   0.245E-03-0.232E-04
CGA:  10    -0.353771786678E+03   -0.55196E-04   -0.55366E-04 10962   0.704E-04 0.111E-04
CGA:  11    -0.353771807058E+03   -0.20380E-04   -0.20545E-04 10962   0.272E-04-0.560E-05
CGA:  12    -0.353771811095E+03   -0.40375E-05   -0.45482E-05 10962   0.864E-05 0.736E-05
  14 F= -.35377181E+03 E0= -.35377181E+03  d E =-.325405E-01  mag=     8.0000
       N       E                     dE             d eps       ncg     rms          ort
SDA:   1    -0.353607861659E+03    0.16395E+00    0.00000E+00 10962   0.417E+00 0.000E+00
CGA:   2    -0.353724080112E+03   -0.11622E+00   -0.11615E+00 10962   0.260E+00 0.173E-02
CGA:   3    -0.353761421504E+03   -0.37341E-01   -0.37338E-01 10962   0.695E-01-0.774E-04
CGA:   4    -0.353771208019E+03   -0.97865E-02   -0.97352E-02 10962   0.159E-01-0.538E-03
CGA:   5    -0.353773757720E+03   -0.25497E-02   -0.25307E-02 10962   0.467E-02-0.260E-03
CGA:   6    -0.353774541080E+03   -0.78336E-03   -0.77977E-03 10962   0.144E-02-0.599E-04
CGA:   7    -0.353774800479E+03   -0.25940E-03   -0.26212E-03 10962   0.440E-03 0.618E-04
CGA:   8    -0.353774891342E+03   -0.90863E-04   -0.92663E-04 10962   0.165E-03 0.750E-04
CGA:   9    -0.353774938687E+03   -0.47345E-04   -0.46814E-04 10962   0.803E-04 0.312E-04
CGA:  10    -0.353774965990E+03   -0.27303E-04   -0.26824E-04 10962   0.418E-04 0.864E-05
CGA:  11    -0.353774981058E+03   -0.15068E-04   -0.16741E-04 10962   0.284E-04-0.126E-04
CGA:  12    -0.353774986629E+03   -0.55710E-05   -0.69103E-05 10962   0.179E-04-0.119E-04
  15 F= -.35377499E+03 E0= -.35377499E+03  d E =-.317553E-02  mag=     8.0000
       N       E                     dE             d eps       ncg     rms          ort
SDA:   1    -0.347174292678E+03    0.66007E+01    0.00000E+00 10962   0.161E+02 0.000E+00
CGA:   2    -0.352028562986E+03   -0.48543E+01   -0.48540E+01 10962   0.934E+01 0.778E-03
CGA:   3    -0.353316987068E+03   -0.12884E+01   -0.12885E+01 10962   0.239E+01 0.112E-02
CGA:   4    -0.353654626092E+03   -0.33764E+00   -0.33747E+00 10962   0.568E+00-0.229E-02
CGA:   5    -0.353745190596E+03   -0.90565E-01   -0.90526E-01 10962   0.167E+00-0.747E-03
CGA:   6    -0.353773777269E+03   -0.28587E-01   -0.28567E-01 10962   0.520E-01-0.397E-03
CGA:   7    -0.353783833426E+03   -0.10056E-01   -0.10050E-01 10962   0.175E-01-0.218E-03
CGA:   8    -0.353788017799E+03   -0.41844E-02   -0.41845E-02 10962   0.793E-02-0.105E-04
CGA:   9    -0.353790149258E+03   -0.21315E-02   -0.21370E-02 10962   0.389E-02-0.119E-03
CGA:  10    -0.353791250415E+03   -0.11012E-02   -0.11184E-02 10962   0.173E-02-0.262E-03
CGA:  11    -0.353791708681E+03   -0.45827E-03   -0.47277E-03 10962   0.676E-03-0.226E-03
CGA:  12    -0.353791886127E+03   -0.17745E-03   -0.18508E-03 10962   0.303E-03-0.928E-04
CGA:  13    -0.353791969048E+03   -0.82921E-04   -0.81714E-04 10962   0.141E-03 0.157E-04
CGA:  14    -0.353792023686E+03   -0.54638E-04   -0.52566E-04 10962   0.790E-04 0.178E-04
CGA:  15    -0.353792054330E+03   -0.30644E-04   -0.28978E-04 10962   0.385E-04 0.209E-04
CGA:  16    -0.353792076614E+03   -0.22284E-04   -0.28014E-04 10962   0.485E-04-0.178E-04
CGA:  17    -0.353792078883E+03   -0.22688E-05   -0.36220E-05 10962   0.370E-04 0.105E-04
  16 F= -.35379208E+03 E0= -.35379208E+03  d E =-.170923E-01  mag=     8.0000
       N       E                     dE             d eps       ncg     rms          ort
SDA:   1    -0.340845939737E+03    0.12946E+02    0.00000E+00 10962   0.290E+02 0.000E+00
CGA:   2    -0.349277757291E+03   -0.84318E+01   -0.84261E+01 10962   0.140E+02 0.987E-01
CGA:   3    -0.351495256527E+03   -0.22175E+01   -0.22196E+01 10962   0.538E+01 0.972E-02
CGA:   4    -0.352292935444E+03   -0.79768E+00   -0.79803E+00 10962   0.142E+01 0.193E-02
CGA:   5    -0.352531118593E+03   -0.23818E+00   -0.23820E+00 10962   0.489E+00-0.611E-03
CGA:   6    -0.352620905644E+03   -0.89787E-01   -0.89807E-01 10962   0.170E+00 0.112E-03
CGA:   7    -0.352657285345E+03   -0.36380E-01   -0.36387E-01 10962   0.774E-01 0.243E-03
CGA:   8    -0.352675895424E+03   -0.18610E-01   -0.18610E-01 10962   0.305E-01 0.636E-05
CGA:   9    -0.352683283768E+03   -0.73883E-02   -0.73882E-02 10962   0.120E-01 0.500E-04
CGA:  10    -0.352686381283E+03   -0.30975E-02   -0.31019E-02 10962   0.397E-02-0.217E-03
CGA:  11    -0.352687400292E+03   -0.10190E-02   -0.10219E-02 10962   0.129E-02-0.129E-03
CGA:  12    -0.352687747924E+03   -0.34763E-03   -0.35018E-03 10962   0.437E-03-0.633E-04
CGA:  13    -0.352687883484E+03   -0.13556E-03   -0.13970E-03 10962   0.200E-03-0.447E-04
CGA:  14    -0.352687940676E+03   -0.57192E-04   -0.56444E-04 10962   0.949E-04 0.111E-04
CGA:  15    -0.352687959628E+03   -0.18952E-04   -0.79470E-04 10962   0.326E-03-0.112E-03
CGA:  16    -0.352687993645E+03   -0.34017E-04   -0.46959E-04 10962   0.611E-04 0.963E-04
CGA:  17    -0.352688015939E+03   -0.22294E-04   -0.22472E-04 10962   0.254E-04-0.140E-04
CGA:  18    -0.352688026898E+03   -0.10959E-04    0.86162E-04 10962   0.159E-04 0.338E-05
CGA:  19    -0.352688028668E+03   -0.17694E-05   -0.28214E-05 10962   0.794E-05 0.912E-05
  17 F= -.35268803E+03 E0= -.35268803E+03  d E =0.110405E+01  mag=     8.0000
       N       E                     dE             d eps       ncg     rms          ort
SDA:   1    -0.351117541652E+03    0.15705E+01    0.00000E+00 10962   0.580E+01 0.000E+00
CGA:   2    -0.352991383742E+03   -0.18738E+01   -0.18759E+01 10962   0.188E+01-0.284E-01
CGA:   3    -0.353406726965E+03   -0.41534E+00   -0.41543E+00 10962   0.659E+00 0.143E-03
CGA:   4    -0.353494296468E+03   -0.87570E-01   -0.87534E-01 10962   0.196E+00-0.542E-03
CGA:   5    -0.353531536820E+03   -0.37240E-01   -0.37220E-01 10962   0.678E-01-0.253E-03
CGA:   6    -0.353543347501E+03   -0.11811E-01   -0.11800E-01 10962   0.261E-01-0.131E-03
CGA:   7    -0.353549642139E+03   -0.62946E-02   -0.62905E-02 10962   0.126E-01-0.481E-03
CGA:   8    -0.353552435183E+03   -0.27930E-02   -0.27827E-02 10962   0.504E-02-0.415E-03
CGA:   9    -0.353553639965E+03   -0.12048E-02   -0.12048E-02 10962   0.187E-02-0.443E-05
CGA:  10    -0.353554084989E+03   -0.44502E-03   -0.44523E-03 10962   0.571E-03 0.202E-04
CGA:  11    -0.353554243820E+03   -0.15883E-03   -0.15988E-03 10962   0.201E-03-0.359E-04
CGA:  12    -0.353554280435E+03   -0.36615E-04   -0.38577E-04 10962   0.626E-04 0.441E-04
CGA:  13    -0.353554298141E+03   -0.17706E-04   -0.17874E-04 10962   0.269E-04 0.131E-04
CGA:  14    -0.353554309373E+03   -0.11232E-04   -0.11404E-04 10962   0.199E-04-0.169E-05
CGA:  15    -0.353554309394E+03   -0.20529E-07   -0.19132E-05 10962   0.135E-04 0.127E-04
  18 F= -.35355431E+03 E0= -.35355431E+03  d E =-.866281E+00  mag=     8.0000
       N       E                     dE             d eps       ncg     rms          ort
SDA:   1    -0.352920227816E+03    0.63408E+00    0.00000E+00 10962   0.200E+01 0.000E+00
CGA:   2    -0.353568446114E+03   -0.64822E+00   -0.64851E+00 10962   0.675E+00-0.321E-02
CGA:   3    -0.353708467950E+03   -0.14002E+00   -0.14004E+00 10962   0.268E+00 0.356E-03
CGA:   4    -0.353743865858E+03   -0.35398E-01   -0.35384E-01 10962   0.706E-01-0.194E-03
CGA:   5    -0.353757125533E+03   -0.13260E-01   -0.13255E-01 10962   0.257E-01-0.106E-03
CGA:   6    -0.353761574179E+03   -0.44486E-02   -0.44477E-02 10962   0.933E-02-0.173E-04
CGA:   7    -0.353763807447E+03   -0.22333E-02   -0.22346E-02 10962   0.470E-02-0.154E-03
CGA:   8    -0.353764861372E+03   -0.10539E-02   -0.10533E-02 10962   0.185E-02-0.192E-03
CGA:   9    -0.353765301047E+03   -0.43967E-03   -0.43951E-03 10962   0.699E-03 0.103E-04
CGA:  10    -0.353765464654E+03   -0.16361E-03   -0.16359E-03 10962   0.209E-03 0.248E-04
CGA:  11    -0.353765526686E+03   -0.62032E-04   -0.63444E-04 10962   0.830E-04-0.229E-04
CGA:  12    -0.353765538626E+03   -0.11941E-04   -0.13209E-04 10962   0.277E-04 0.226E-04
CGA:  13    -0.353765544963E+03   -0.63364E-05   -0.66890E-05 10962   0.116E-04 0.836E-05
  19 F= -.35376554E+03 E0= -.35376554E+03  d E =-.211236E+00  mag=     8.0000
       N       E                     dE             d eps       ncg     rms          ort
SDA:   1    -0.353514614201E+03    0.25092E+00    0.00000E+00 10962   0.689E+00 0.000E+00
CGA:   2    -0.353733923118E+03   -0.21931E+00   -0.21930E+00 10962   0.260E+00 0.667E-04
CGA:   3    -0.353781521226E+03   -0.47598E-01   -0.47626E-01 10962   0.110E+00 0.330E-03
CGA:   4    -0.353796770451E+03   -0.15249E-01   -0.15247E-01 10962   0.265E-01-0.466E-04
CGA:   5    -0.353801580278E+03   -0.48098E-02   -0.48051E-02 10962   0.964E-02-0.811E-04
CGA:   6    -0.353803322535E+03   -0.17423E-02   -0.17417E-02 10962   0.330E-02-0.106E-04
CGA:   7    -0.353804102288E+03   -0.77975E-03   -0.77975E-03 10962   0.166E-02-0.150E-04
CGA:   8    -0.353804484231E+03   -0.38194E-03   -0.38164E-03 10962   0.654E-03-0.521E-04
CGA:   9    -0.353804639549E+03   -0.15532E-03   -0.15520E-03 10962   0.250E-03 0.129E-04
CGA:  10    -0.353804698309E+03   -0.58760E-04   -0.58846E-04 10962   0.728E-04 0.146E-04
CGA:  11    -0.353804721993E+03   -0.23684E-04   -0.25119E-04 10962   0.363E-04-0.160E-04
CGA:  12    -0.353804725937E+03   -0.39439E-05   -0.46397E-05 10962   0.134E-04 0.907E-05
  20 F= -.35380473E+03 E0= -.35380473E+03  d E =-.391810E-01  mag=     8.0000
       N       E                     dE             d eps       ncg     rms          ort
SDA:   1    -0.353784704592E+03    0.20017E-01    0.00000E+00 10962   0.583E-01 0.000E+00
CGA:   2    -0.353801691462E+03   -0.16987E-01   -0.16979E-01 10962   0.290E-01 0.121E-03
CGA:   3    -0.353806139212E+03   -0.44477E-02   -0.44602E-02 10962   0.106E-01 0.145E-03
CGA:   4    -0.353807733975E+03   -0.15948E-02   -0.15964E-02 10962   0.290E-02 0.164E-04
CGA:   5    -0.353808200615E+03   -0.46664E-03   -0.46458E-03 10962   0.928E-03-0.311E-04
CGA:   6    -0.353808370260E+03   -0.16965E-03   -0.16906E-03 10962   0.334E-03-0.146E-04
CGA:   7    -0.353808436701E+03   -0.66441E-04   -0.66805E-04 10962   0.133E-03 0.189E-04
CGA:   8    -0.353808465511E+03   -0.28809E-04   -0.29117E-04 10962   0.473E-04 0.228E-04
CGA:   9    -0.353808476833E+03   -0.11322E-04   -0.11489E-04 10962   0.187E-04 0.125E-04
CGA:  10    -0.353808481704E+03   -0.48716E-05   -0.49454E-05 10962   0.691E-05 0.668E-05
  21 F= -.35380848E+03 E0= -.35380848E+03  d E =-.375577E-02  mag=     8.0000
       N       E                     dE             d eps       ncg     rms          ort
SDA:   1    -0.353792135021E+03    0.16342E-01    0.00000E+00 10962   0.476E-01 0.000E+00
CGA:   2    -0.353804712969E+03   -0.12578E-01   -0.12569E-01 10962   0.274E-01 0.211E-03
CGA:   3    -0.353808876801E+03   -0.41638E-02   -0.41749E-02 10962   0.926E-02 0.142E-03
CGA:   4    -0.353810249931E+03   -0.13731E-02   -0.13743E-02 10962   0.249E-02 0.127E-04
CGA:   5    -0.353810648496E+03   -0.39856E-03   -0.39687E-03 10962   0.728E-03-0.285E-04
CGA:   6    -0.353810788169E+03   -0.13967E-03   -0.13911E-03 10962   0.276E-03-0.235E-04
CGA:   7    -0.353810836789E+03   -0.48620E-04   -0.49389E-04 10962   0.961E-04 0.247E-04
CGA:   8    -0.353810852467E+03   -0.15678E-04   -0.17380E-04 10962   0.341E-04 0.353E-04
CGA:   9    -0.353810858211E+03   -0.57442E-05   -0.69712E-05 10962   0.154E-04 0.197E-04
  22 F= -.35381086E+03 E0= -.35381086E+03  d E =-.237651E-02  mag=     8.0000
       N       E                     dE             d eps       ncg     rms          ort
SDA:   1    -0.353806098997E+03    0.47535E-02    0.00000E+00 10962   0.148E-01 0.000E+00
CGA:   2    -0.353809635822E+03   -0.35368E-02   -0.35334E-02 10962   0.929E-02 0.132E-03
CGA:   3    -0.353811059621E+03   -0.14238E-02   -0.14292E-02 10962   0.299E-02 0.856E-04
CGA:   4    -0.353811473925E+03   -0.41430E-03   -0.41504E-03 10962   0.786E-03 0.905E-05
CGA:   5    -0.353811593241E+03   -0.11932E-03   -0.11852E-03 10962   0.231E-03-0.140E-04
CGA:   6    -0.353811638152E+03   -0.44911E-04   -0.44749E-04 10962   0.890E-04-0.204E-04
CGA:   7    -0.353811651339E+03   -0.13188E-04   -0.13593E-04 10962   0.265E-04 0.109E-04
CGA:   8    -0.353811653298E+03   -0.19587E-05   -0.33656E-05 10962   0.117E-04 0.157E-04
  23 F= -.35381165E+03 E0= -.35381165E+03  d E =-.795087E-03  mag=     8.0000
       N       E                     dE             d eps       ncg     rms          ort
SDA:   1    -0.353739498944E+03    0.72152E-01    0.00000E+00 10962   0.197E+00 0.000E+00
CGA:   2    -0.353786995607E+03   -0.47497E-01   -0.47468E-01 10962   0.128E+00 0.548E-03
CGA:   3    -0.353806648323E+03   -0.19653E-01   -0.19662E-01 10962   0.375E-01 0.191E-03
CGA:   4    -0.353811764250E+03   -0.51159E-02   -0.51163E-02 10962   0.851E-02-0.313E-05
CGA:   5    -0.353813082745E+03   -0.13185E-02   -0.13177E-02 10962   0.244E-02-0.252E-04
CGA:   6    -0.353813522765E+03   -0.44002E-03   -0.43933E-03 10962   0.821E-03-0.769E-04
CGA:   7    -0.353813669229E+03   -0.14646E-03   -0.14658E-03 10962   0.255E-03 0.229E-04
CGA:   8    -0.353813713126E+03   -0.43896E-04   -0.45082E-04 10962   0.862E-04 0.693E-04
CGA:   9    -0.353813731549E+03   -0.18424E-04   -0.19020E-04 10962   0.392E-04 0.409E-04
CGA:  10    -0.353813743058E+03   -0.11509E-04   -0.11335E-04 10962   0.197E-04 0.199E-04
CGA:  11    -0.353813749308E+03   -0.62495E-05   -0.10721E-04 10962   0.445E-04-0.125E-04
  24 F= -.35381375E+03 E0= -.35381375E+03  d E =-.209601E-02  mag=     8.0000
       N       E                     dE             d eps       ncg     rms          ort
SDA:   1    -0.353709697028E+03    0.10405E+00    0.00000E+00 10962   0.270E+00 0.000E+00
CGA:   2    -0.353783149649E+03   -0.73453E-01   -0.73427E-01 10962   0.172E+00 0.307E-03
CGA:   3    -0.353807854378E+03   -0.24705E-01   -0.24706E-01 10962   0.453E-01 0.494E-05
CGA:   4    -0.353814039995E+03   -0.61856E-02   -0.61873E-02 10962   0.106E-01 0.141E-04
CGA:   5    -0.353815662062E+03   -0.16221E-02   -0.16223E-02 10962   0.306E-02 0.250E-05
CGA:   6    -0.353816202371E+03   -0.54031E-03   -0.53822E-03 10962   0.985E-03-0.938E-04
CGA:   7    -0.353816384379E+03   -0.18201E-03   -0.18188E-03 10962   0.318E-03-0.193E-04
CGA:   8    -0.353816447577E+03   -0.63198E-04   -0.63008E-04 10962   0.116E-03 0.379E-04
CGA:   9    -0.353816479425E+03   -0.31848E-04   -0.30954E-04 10962   0.527E-04 0.220E-04
CGA:  10    -0.353816496792E+03   -0.17367E-04   -0.16803E-04 10962   0.264E-04 0.815E-05
CGA:  11    -0.353816507113E+03   -0.10321E-04   -0.12971E-04 10962   0.270E-04-0.119E-04
CGA:  12    -0.353816510595E+03   -0.34823E-05   -0.37575E-05 10962   0.150E-04-0.694E-05
  25 F= -.35381651E+03 E0= -.35381651E+03  d E =-.276129E-02  mag=     8.0000
       N       E                     dE             d eps       ncg     rms          ort
SDA:   1    -0.347102683314E+03    0.67138E+01    0.00000E+00 10962   0.164E+02 0.000E+00
CGA:   2    -0.352012607384E+03   -0.49099E+01   -0.49091E+01 10962   0.939E+01 0.493E-02
CGA:   3    -0.353327905056E+03   -0.13153E+01   -0.13152E+01 10962   0.248E+01 0.531E-03
CGA:   4    -0.353673185267E+03   -0.34528E+00   -0.34524E+00 10962   0.593E+00-0.945E-03
CGA:   5    -0.353765496533E+03   -0.92311E-01   -0.92325E-01 10962   0.174E+00-0.153E-04
CGA:   6    -0.353795845305E+03   -0.30349E-01   -0.30337E-01 10962   0.540E-01-0.402E-03
CGA:   7    -0.353806336801E+03   -0.10491E-01   -0.10489E-01 10962   0.186E-01-0.246E-03
CGA:   8    -0.353810732441E+03   -0.43956E-02   -0.43963E-02 10962   0.853E-02-0.208E-04
CGA:   9    -0.353813057456E+03   -0.23250E-02   -0.23352E-02 10962   0.427E-02-0.147E-03
CGA:  10    -0.353814241834E+03   -0.11844E-02   -0.12029E-02 10962   0.188E-02-0.240E-03
CGA:  11    -0.353814748436E+03   -0.50660E-03   -0.52496E-03 10962   0.747E-03-0.224E-03
CGA:  12    -0.353814936851E+03   -0.18842E-03   -0.19090E-03 10962   0.300E-03-0.346E-04
CGA:  13    -0.353815035100E+03   -0.98249E-04   -0.97746E-04 10962   0.158E-03 0.388E-05
CGA:  14    -0.353815092428E+03   -0.57328E-04   -0.54198E-04 10962   0.831E-04 0.278E-04
CGA:  15    -0.353815132765E+03   -0.40336E-04   -0.39372E-04 10962   0.473E-04 0.539E-05
CGA:  16    -0.353815150275E+03   -0.17511E-04   -0.16681E-04 10962   0.206E-04 0.907E-05
CGA:  17    -0.353815151673E+03   -0.13976E-05   -0.23675E-04 10962   0.863E-04-0.314E-04
CGA:  18    -0.353815167339E+03   -0.15666E-04   -0.17478E-04 10962   0.137E-04 0.229E-04
CGA:  19    -0.353815180095E+03   -0.12756E-04    0.72826E-05 10962   0.548E-05 0.708E-06
CGA:  20    -0.353815179733E+03    0.36218E-06   -0.48955E-06 10962   0.377E-05 0.442E-05
  26 F= -.35381518E+03 E0= -.35381518E+03  d E =0.133086E-02  mag=     8.0000
       N       E                     dE             d eps       ncg     rms          ort
SDA:   1    -0.352359170877E+03    0.14560E+01    0.00000E+00 10962   0.350E+01 0.000E+00
CGA:   2    -0.353495465515E+03   -0.11363E+01   -0.11363E+01 10962   0.166E+01 0.569E-04
CGA:   3    -0.353736617259E+03   -0.24115E+00   -0.24120E+00 10962   0.486E+00-0.203E-05
CGA:   4    -0.353804950812E+03   -0.68334E-01   -0.68280E-01 10962   0.118E+00-0.614E-03
CGA:   5    -0.353824036424E+03   -0.19086E-01   -0.19035E-01 10962   0.370E-01-0.599E-03
CGA:   6    -0.353830430799E+03   -0.63944E-02   -0.64037E-02 10962   0.115E-01 0.123E-03
CGA:   7    -0.353832686730E+03   -0.22559E-02   -0.22628E-02 10962   0.427E-02 0.152E-03
CGA:   8    -0.353833730363E+03   -0.10436E-02   -0.10436E-02 10962   0.192E-02-0.664E-05
CGA:   9    -0.353834217697E+03   -0.48733E-03   -0.48602E-03 10962   0.848E-03 0.952E-04
CGA:  10    -0.353834468048E+03   -0.25035E-03   -0.25159E-03 10962   0.358E-03-0.292E-04
CGA:  11    -0.353834570957E+03   -0.10291E-03   -0.10664E-03 10962   0.161E-03-0.562E-04
CGA:  12    -0.353834604940E+03   -0.33983E-04   -0.33953E-04 10962   0.571E-04 0.710E-05
CGA:  13    -0.353834626991E+03   -0.22051E-04   -0.24608E-04 10962   0.493E-04-0.154E-04
CGA:  14    -0.353834637204E+03   -0.10213E-04   -0.10089E-04 10962   0.308E-04 0.474E-05
CGA:  15    -0.353834649506E+03   -0.12303E-04   -0.14299E-04 10962   0.286E-04-0.120E-04
CGA:  16    -0.353834644003E+03    0.55034E-05   -0.13324E-04 10962   0.767E-04-0.380E-04
CGA:  17    -0.353834655012E+03   -0.11009E-04   -0.13905E-04 10962   0.150E-04 0.269E-04
CGA:  18    -0.353834660480E+03   -0.54685E-05   -0.12170E-04 10962   0.322E-04-0.212E-04
  27 F= -.35383466E+03 E0= -.35383466E+03  d E =-.194807E-01  mag=     8.0000
       N       E                     dE             d eps       ncg     rms          ort
SDA:   1    -0.352824859179E+03    0.10098E+01    0.00000E+00 10962   0.255E+01 0.000E+00
CGA:   2    -0.353517784876E+03   -0.69293E+00   -0.69293E+00 10962   0.162E+01-0.732E-03
CGA:   3    -0.353752547811E+03   -0.23476E+00   -0.23472E+00 10962   0.436E+00-0.735E-03
CGA:   4    -0.353812164597E+03   -0.59617E-01   -0.59577E-01 10962   0.999E-01-0.343E-03
CGA:   5    -0.353827588683E+03   -0.15424E-01   -0.15445E-01 10962   0.290E-01 0.150E-03
CGA:   6    -0.353832562476E+03   -0.49738E-02   -0.49981E-02 10962   0.887E-02 0.242E-03
CGA:   7    -0.353834335202E+03   -0.17727E-02   -0.17650E-02 10962   0.309E-02-0.116E-03
CGA:   8    -0.353835091667E+03   -0.75647E-03   -0.75350E-03 10962   0.153E-02-0.204E-03
CGA:   9    -0.353835494358E+03   -0.40269E-03   -0.40615E-03 10962   0.814E-03-0.149E-03
CGA:  10    -0.353835700243E+03   -0.20589E-03   -0.20762E-03 10962   0.349E-03-0.830E-04
CGA:  11    -0.353835768096E+03   -0.67853E-04   -0.69480E-04 10962   0.102E-03 0.397E-04
CGA:  12    -0.353835796483E+03   -0.28387E-04   -0.28519E-04 10962   0.406E-04 0.124E-04
CGA:  13    -0.353835809976E+03   -0.13493E-04   -0.13335E-04 10962   0.224E-04 0.476E-05
CGA:  14    -0.353835814567E+03   -0.45903E-05   -0.52181E-05 10962   0.118E-04 0.117E-04
  28 F= -.35383581E+03 E0= -.35383581E+03  d E =-.115409E-02  mag=     8.0000
       N       E                     dE             d eps       ncg     rms          ort
SDA:   1    -0.353677474831E+03    0.15834E+00    0.00000E+00 10962   0.441E+00 0.000E+00
CGA:   2    -0.353771714478E+03   -0.94240E-01   -0.94253E-01 10962   0.280E+00 0.982E-04
CGA:   3    -0.353819321766E+03   -0.47607E-01   -0.47605E-01 10962   0.976E-01-0.854E-04
CGA:   4    -0.353832395127E+03   -0.13073E-01   -0.13047E-01 10962   0.202E-01-0.232E-03
CGA:   5    -0.353835492783E+03   -0.30977E-02   -0.30916E-02 10962   0.620E-02-0.665E-04
CGA:   6    -0.353836572464E+03   -0.10797E-02   -0.10854E-02 10962   0.201E-02 0.765E-04
CGA:   7    -0.353836964329E+03   -0.39187E-03   -0.39281E-03 10962   0.661E-03 0.175E-04
CGA:   8    -0.353837122281E+03   -0.15795E-03   -0.15783E-03 10962   0.298E-03-0.204E-04
CGA:   9    -0.353837189932E+03   -0.67651E-04   -0.67732E-04 10962   0.112E-03 0.100E-04
CGA:  10    -0.353837219394E+03   -0.29462E-04   -0.29409E-04 10962   0.398E-04 0.448E-05
CGA:  11    -0.353837226995E+03   -0.76008E-05   -0.81027E-05 10962   0.116E-04 0.107E-04
  29 F= -.35383723E+03 E0= -.35383723E+03  d E =-.141243E-02  mag=     8.0000
       N       E                     dE             d eps       ncg     rms          ort
SDA:   1    -0.353586888742E+03    0.25033E+00    0.00000E+00 10962   0.599E+00 0.000E+00
CGA:   2    -0.353791200784E+03   -0.20431E+00   -0.20428E+00 10962   0.242E+00 0.294E-03
CGA:   3    -0.353827347678E+03   -0.36147E-01   -0.36157E-01 10962   0.751E-01 0.587E-04
CGA:   4    -0.353837641349E+03   -0.10294E-01   -0.10282E-01 10962   0.175E-01-0.131E-03
CGA:   5    -0.353840462673E+03   -0.28213E-02   -0.28100E-02 10962   0.554E-02-0.164E-03
CGA:   6    -0.353841409746E+03   -0.94707E-03   -0.94651E-03 10962   0.163E-02-0.111E-04
CGA:   7    -0.353841714012E+03   -0.30427E-03   -0.30717E-03 10962   0.553E-03 0.774E-04
CGA:   8    -0.353841849061E+03   -0.13505E-03   -0.13479E-03 10962   0.249E-03 0.306E-04
CGA:   9    -0.353841914896E+03   -0.65835E-04   -0.65031E-04 10962   0.114E-03 0.349E-04
CGA:  10    -0.353841949963E+03   -0.35067E-04   -0.34550E-04 10962   0.487E-04 0.126E-04
CGA:  11    -0.353841957817E+03   -0.78543E-05   -0.34843E-04 10962   0.148E-03-0.649E-04
CGA:  12    -0.353841973048E+03   -0.15230E-04   -0.19640E-04 10962   0.204E-04 0.382E-04
CGA:  13    -0.353841977400E+03   -0.43525E-05   -0.47077E-05 10962   0.706E-05 0.594E-05
  30 F= -.35384198E+03 E0= -.35384198E+03  d E =-.475041E-02  mag=     8.0000
       N       E                     dE             d eps       ncg     rms          ort
SDA:   1    -0.343519644261E+03    0.10322E+02    0.00000E+00 10962   0.244E+02 0.000E+00
CGA:   2    -0.351709136438E+03   -0.81895E+01   -0.81894E+01 10962   0.107E+02-0.317E-02
CGA:   3    -0.353250904137E+03   -0.15418E+01   -0.15436E+01 10962   0.301E+01 0.685E-02
CGA:   4    -0.353671222450E+03   -0.42032E+00   -0.42004E+00 10962   0.732E+00-0.152E-02
CGA:   5    -0.353789173179E+03   -0.11795E+00   -0.11778E+00 10962   0.223E+00-0.174E-02
CGA:   6    -0.353828075558E+03   -0.38902E-01   -0.38933E-01 10962   0.678E-01 0.257E-03
CGA:   7    -0.353841376711E+03   -0.13301E-01   -0.13305E-01 10962   0.246E-01 0.491E-04
CGA:   8    -0.353847411474E+03   -0.60348E-02   -0.60309E-02 10962   0.119E-01-0.367E-03
CGA:   9    -0.353850543577E+03   -0.31321E-02   -0.31325E-02 10962   0.564E-02-0.260E-04
CGA:  10    -0.353852149403E+03   -0.16058E-02   -0.16173E-02 10962   0.241E-02-0.359E-03
CGA:  11    -0.353852787870E+03   -0.63847E-03   -0.64679E-03 10962   0.923E-03-0.277E-03
CGA:  12    -0.353853012421E+03   -0.22455E-03   -0.22426E-03 10962   0.348E-03 0.178E-04
CGA:  13    -0.353853155084E+03   -0.14266E-03   -0.15477E-03 10962   0.305E-03-0.690E-04
CGA:  14    -0.353853227784E+03   -0.72701E-04   -0.71323E-04 10962   0.178E-03 0.573E-04
CGA:  15    -0.353853305568E+03   -0.77784E-04   -0.79350E-04 10962   0.118E-03-0.151E-04
CGA:  16    -0.353853347281E+03   -0.41713E-04   -0.48555E-04 10962   0.975E-04-0.392E-04
CGA:  17    -0.353853354647E+03   -0.73662E-05   -0.10765E-04 10962   0.602E-04 0.287E-04
CGA:  18    -0.353853367949E+03   -0.13302E-04   -0.14832E-04 10962   0.224E-04 0.175E-04
CGA:  19    -0.353853390575E+03   -0.22626E-04    0.92263E-05 10962   0.152E-04 0.454E-05
CGA:  20    -0.353853397788E+03   -0.72131E-05   -0.10463E-04 10962   0.253E-04-0.109E-04
CGA:  21    -0.353853406053E+03   -0.82650E-05   -0.18142E-04 10962   0.344E-04-0.231E-04
  31 F= -.35385341E+03 E0= -.35385341E+03  d E =-.114287E-01  mag=     8.0000
       N       E                     dE             d eps       ncg     rms          ort
SDA:   1    -0.342470162606E+03    0.11383E+02    0.00000E+00 10962   0.255E+02 0.000E+00
CGA:   2    -0.349611968735E+03   -0.71418E+01   -0.71426E+01 10962   0.135E+02 0.782E-02
CGA:   3    -0.351721689782E+03   -0.21097E+01   -0.21134E+01 10962   0.484E+01 0.428E-02
CGA:   4    -0.352450793832E+03   -0.72910E+00   -0.72915E+00 10962   0.128E+01 0.727E-03
CGA:   5    -0.352662506714E+03   -0.21171E+00   -0.21168E+00 10962   0.426E+00 0.302E-03
CGA:   6    -0.352739478594E+03   -0.76972E-01   -0.77051E-01 10962   0.150E+00 0.796E-03
CGA:   7    -0.352771397714E+03   -0.31919E-01   -0.31898E-01 10962   0.666E-01-0.346E-03
CGA:   8    -0.352787710974E+03   -0.16313E-01   -0.16289E-01 10962   0.271E-01-0.923E-03
CGA:   9    -0.352794093517E+03   -0.63825E-02   -0.63749E-02 10962   0.107E-01-0.239E-03
CGA:  10    -0.352796855079E+03   -0.27616E-02   -0.27594E-02 10962   0.351E-02-0.220E-03
CGA:  11    -0.352797705905E+03   -0.85083E-03   -0.85227E-03 10962   0.107E-02 0.700E-04
CGA:  12    -0.352798002827E+03   -0.29692E-03   -0.29690E-03 10962   0.350E-03 0.523E-05
CGA:  13    -0.352798113090E+03   -0.11026E-03   -0.11077E-03 10962   0.149E-03-0.111E-04
CGA:  14    -0.352798149975E+03   -0.36885E-04   -0.37305E-04 10962   0.618E-04 0.343E-04
CGA:  15    -0.352798180393E+03   -0.30417E-04   -0.31885E-04 10962   0.562E-04-0.987E-05
CGA:  16    -0.352798191271E+03   -0.10879E-04   -0.11372E-04 10962   0.348E-04 0.136E-04
CGA:  17    -0.352798203893E+03   -0.12621E-04   -0.12613E-04 10962   0.203E-04 0.431E-06
CGA:  18    -0.352798215745E+03   -0.11852E-04    0.65136E-04 10962   0.116E-04 0.370E-05
CGA:  19    -0.352798220914E+03   -0.51695E-05   -0.72344E-05 10962   0.183E-04-0.821E-05
CGA:  20    -0.352798092046E+03    0.12887E-03   -0.69413E-04 10962   0.695E-03-0.105E-03
CGA:  21    -0.352798213989E+03   -0.12194E-03   -0.14496E-03 10962   0.323E-04 0.723E-04
CGA:  22    -0.352798258448E+03   -0.44459E-04    0.41450E-04 10962   0.728E-04-0.401E-04
CGA:  23    -0.352798246012E+03    0.12435E-04   -0.51636E-05 10962   0.228E-04 0.400E-04
CGA:  24    -0.352798240585E+03    0.54266E-05   -0.13431E-05 10962   0.109E-04 0.158E-04
  32 F= -.35279824E+03 E0= -.35279824E+03  d E =0.105517E+01  mag=     8.0000
       N       E                     dE             d eps       ncg     rms          ort
SDA:   1    -0.349332449551E+03    0.34658E+01    0.00000E+00 10962   0.104E+02 0.000E+00
CGA:   2    -0.352748832783E+03   -0.34164E+01   -0.34131E+01 10962   0.337E+01-0.127E-01
CGA:   3    -0.353486232585E+03   -0.73740E+00   -0.73844E+00 10962   0.124E+01 0.436E-03
CGA:   4    -0.353652758621E+03   -0.16653E+00   -0.16630E+00 10962   0.351E+00-0.482E-03
CGA:   5    -0.353719342462E+03   -0.66584E-01   -0.66383E-01 10962   0.123E+00-0.738E-03
CGA:   6    -0.353740760724E+03   -0.21418E-01   -0.21426E-01 10962   0.481E-01 0.274E-04
CGA:   7    -0.353752326415E+03   -0.11566E-01   -0.11517E-01 10962   0.229E-01-0.320E-03
CGA:   8    -0.353757306493E+03   -0.49801E-02   -0.49204E-02 10962   0.894E-02-0.359E-03
CGA:   9    -0.353759435507E+03   -0.21290E-02   -0.21488E-02 10962   0.332E-02 0.149E-03
CGA:  10    -0.353760265659E+03   -0.83015E-03   -0.82428E-03 10962   0.106E-02-0.470E-04
CGA:  11    -0.353760543280E+03   -0.27762E-03   -0.27449E-03 10962   0.342E-03-0.312E-04
CGA:  12    -0.353760610043E+03   -0.66763E-04   -0.73224E-04 10962   0.997E-04 0.469E-04
CGA:  13    -0.353760642140E+03   -0.32097E-04   -0.32293E-04 10962   0.432E-04 0.288E-05
CGA:  14    -0.353760650137E+03   -0.79966E-05   -0.98942E-05 10962   0.193E-04 0.151E-04
  33 F= -.35376065E+03 E0= -.35376065E+03  d E =-.962410E+00  mag=     8.0000
       N       E                     dE             d eps       ncg     rms          ort
SDA:   1    -0.353214714952E+03    0.54593E+00    0.00000E+00 10962   0.149E+01 0.000E+00
CGA:   2    -0.353688577098E+03   -0.47386E+00   -0.47388E+00 10962   0.533E+00 0.643E-03
CGA:   3    -0.353794037349E+03   -0.10546E+00   -0.10549E+00 10962   0.224E+00 0.188E-03
CGA:   4    -0.353824309606E+03   -0.30272E-01   -0.30253E-01 10962   0.555E-01-0.206E-03
CGA:   5    -0.353834648341E+03   -0.10339E-01   -0.10309E-01 10962   0.202E-01-0.248E-03
CGA:   6    -0.353838147815E+03   -0.34995E-02   -0.34945E-02 10962   0.749E-02-0.391E-04
CGA:   7    -0.353839832304E+03   -0.16845E-02   -0.16888E-02 10962   0.365E-02 0.544E-04
CGA:   8    -0.353840642118E+03   -0.80981E-03   -0.81167E-03 10962   0.134E-02 0.235E-04
CGA:   9    -0.353840973162E+03   -0.33104E-03   -0.33303E-03 10962   0.537E-03 0.407E-04
CGA:  10    -0.353841110829E+03   -0.13767E-03   -0.13736E-03 10962   0.178E-03-0.692E-05
CGA:  11    -0.353841162119E+03   -0.51290E-04   -0.51325E-04 10962   0.714E-04-0.230E-04
CGA:  12    -0.353841175912E+03   -0.13792E-04   -0.14132E-04 10962   0.220E-04 0.527E-05
CGA:  13    -0.353841184057E+03   -0.81458E-05   -0.85925E-05 10962   0.155E-04-0.589E-05
  34 F= -.35384118E+03 E0= -.35384118E+03  d E =-.805339E-01  mag=     8.0000
       N       E                     dE             d eps       ncg     rms          ort
SDA:   1    -0.353676770781E+03    0.16441E+00    0.00000E+00 10962   0.422E+00 0.000E+00
CGA:   2    -0.353797475425E+03   -0.12070E+00   -0.12071E+00 10962   0.207E+00 0.127E-02
CGA:   3    -0.353829968932E+03   -0.32494E-01   -0.32527E-01 10962   0.777E-01 0.227E-03
CGA:   4    -0.353841774619E+03   -0.11806E-01   -0.11799E-01 10962   0.208E-01-0.669E-04
CGA:   5    -0.353845226910E+03   -0.34523E-02   -0.34365E-02 10962   0.684E-02-0.151E-03
CGA:   6    -0.353846441040E+03   -0.12141E-02   -0.12126E-02 10962   0.243E-02-0.184E-04
CGA:   7    -0.353846911850E+03   -0.47081E-03   -0.48171E-03 10962   0.987E-03 0.163E-03
CGA:   8    -0.353847123183E+03   -0.21133E-03   -0.22058E-03 10962   0.355E-03 0.174E-03
CGA:   9    -0.353847213012E+03   -0.89829E-04   -0.92413E-04 10962   0.149E-03 0.669E-04
CGA:  10    -0.353847258721E+03   -0.45709E-04   -0.45708E-04 10962   0.594E-04 0.143E-04
CGA:  11    -0.353847279841E+03   -0.21120E-04   -0.24181E-04 10962   0.485E-04-0.269E-04
CGA:  12    -0.353847286478E+03   -0.66376E-05   -0.64124E-05 10962   0.215E-04-0.103E-04
  35 F= -.35384729E+03 E0= -.35384729E+03  d E =-.610242E-02  mag=     8.0000
       N       E                     dE             d eps       ncg     rms          ort
SDA:   1    -0.353795522001E+03    0.51758E-01    0.00000E+00 10962   0.167E+00 0.000E+00
CGA:   2    -0.353835468434E+03   -0.39946E-01   -0.39973E-01 10962   0.962E-01 0.111E-02
CGA:   3    -0.353850561870E+03   -0.15093E-01   -0.15136E-01 10962   0.342E-01 0.389E-03
CGA:   4    -0.353855731644E+03   -0.51698E-02   -0.51710E-02 10962   0.961E-02 0.172E-05
CGA:   5    -0.353857249209E+03   -0.15176E-02   -0.15087E-02 10962   0.292E-02-0.984E-04
CGA:   6    -0.353857742541E+03   -0.49333E-03   -0.49352E-03 10962   0.977E-03 0.185E-05
CGA:   7    -0.353857910604E+03   -0.16806E-03   -0.17686E-03 10962   0.331E-03 0.145E-03
CGA:   8    -0.353857960410E+03   -0.49806E-04   -0.61032E-04 10962   0.130E-03 0.144E-03
CGA:   9    -0.353857979109E+03   -0.18699E-04   -0.26510E-04 10962   0.596E-04 0.841E-04
CGA:  10    -0.353857998654E+03   -0.19545E-04   -0.18811E-04 10962   0.409E-04 0.858E-05
CGA:  11    -0.353858005448E+03   -0.67943E-05   -0.81901E-05 10962   0.149E-04 0.236E-04
  36 F= -.35385801E+03 E0= -.35385801E+03  d E =-.107190E-01  mag=     8.0000
       N       E                     dE             d eps       ncg     rms          ort
SDA:   1    -0.353824707718E+03    0.33291E-01    0.00000E+00 10962   0.983E-01 0.000E+00
CGA:   2    -0.353849302638E+03   -0.24595E-01   -0.24582E-01 10962   0.573E-01 0.578E-03
CGA:   3    -0.353858310003E+03   -0.90074E-02   -0.90249E-02 10962   0.201E-01 0.228E-03
CGA:   4    -0.353861308761E+03   -0.29988E-02   -0.29992E-02 10962   0.530E-02 0.452E-07
CGA:   5    -0.353862167015E+03   -0.85825E-03   -0.85463E-03 10962   0.168E-02-0.609E-04
CGA:   6    -0.353862456844E+03   -0.28983E-03   -0.29071E-03 10962   0.569E-03 0.198E-04
CGA:   7    -0.353862555227E+03   -0.98383E-04   -0.10182E-03 10962   0.195E-03 0.864E-04
CGA:   8    -0.353862590945E+03   -0.35718E-04   -0.38914E-04 10962   0.772E-04 0.764E-04
CGA:   9    -0.353862606198E+03   -0.15253E-04   -0.17337E-04 10962   0.341E-04 0.407E-04
CGA:  10    -0.353862617745E+03   -0.11547E-04   -0.11903E-04 10962   0.316E-04-0.256E-05
CGA:  11    -0.353862624047E+03   -0.63022E-05   -0.63125E-05 10962   0.105E-04 0.766E-05
  37 F= -.35386262E+03 E0= -.35386262E+03  d E =-.461860E-02  mag=     8.0000
       N       E                     dE             d eps       ncg     rms          ort
SDA:   1    -0.353856205786E+03    0.64120E-02    0.00000E+00 10962   0.207E-01 0.000E+00
CGA:   2    -0.353860115891E+03   -0.39101E-02   -0.39140E-02 10962   0.119E-01 0.157E-03
CGA:   3    -0.353862232467E+03   -0.21166E-02   -0.21198E-02 10962   0.475E-02 0.904E-04
CGA:   4    -0.353862913393E+03   -0.68093E-03   -0.68063E-03 10962   0.104E-02-0.576E-05
CGA:   5    -0.353863076021E+03   -0.16263E-03   -0.16153E-03 10962   0.306E-03-0.223E-04
CGA:   6    -0.353863130130E+03   -0.54110E-04   -0.54005E-04 10962   0.105E-03-0.461E-05
CGA:   7    -0.353863146227E+03   -0.16096E-04   -0.16763E-04 10962   0.292E-04 0.167E-04
CGA:   8    -0.353863149609E+03   -0.33819E-05   -0.44478E-05 10962   0.119E-04 0.155E-04
  38 F= -.35386315E+03 E0= -.35386315E+03  d E =-.525561E-03  mag=     8.0000
       N       E                     dE             d eps       ncg     rms          ort
SDA:   1    -0.353852177814E+03    0.10968E-01    0.00000E+00 10962   0.366E-01 0.000E+00
CGA:   2    -0.353858574107E+03   -0.63963E-02   -0.63999E-02 10962   0.199E-01 0.171E-03
CGA:   3    -0.353862220814E+03   -0.36467E-02   -0.36476E-02 10962   0.837E-02 0.795E-04
CGA:   4    -0.353863389173E+03   -0.11684E-02   -0.11671E-02 10962   0.170E-02-0.255E-04
CGA:   5    -0.353863645998E+03   -0.25683E-03   -0.25565E-03 10962   0.485E-03-0.304E-04
CGA:   6    -0.353863731216E+03   -0.85218E-04   -0.85046E-04 10962   0.164E-03-0.181E-04
CGA:   7    -0.353863758968E+03   -0.27752E-04   -0.27836E-04 10962   0.444E-04 0.724E-05
CGA:   8    -0.353863765798E+03   -0.68307E-05   -0.72457E-05 10962   0.137E-04 0.134E-04
  39 F= -.35386377E+03 E0= -.35386377E+03  d E =-.616190E-03  mag=     8.0000
       N       E                     dE             d eps       ncg     rms          ort
SDA:   1    -0.353808495974E+03    0.55263E-01    0.00000E+00 10962   0.169E+00 0.000E+00
CGA:   2    -0.353840518535E+03   -0.32023E-01   -0.32020E-01 10962   0.100E+00 0.330E-03
CGA:   3    -0.353858103565E+03   -0.17585E-01   -0.17585E-01 10962   0.375E-01-0.667E-04
CGA:   4    -0.353863185243E+03   -0.50817E-02   -0.50767E-02 10962   0.747E-02-0.116E-03
CGA:   5    -0.353864307422E+03   -0.11222E-02   -0.11219E-02 10962   0.209E-02-0.128E-04
CGA:   6    -0.353864673201E+03   -0.36578E-03   -0.36568E-03 10962   0.669E-03-0.267E-04
CGA:   7    -0.353864801594E+03   -0.12839E-03   -0.12889E-03 10962   0.209E-03-0.307E-04
CGA:   8    -0.353864845283E+03   -0.43688E-04   -0.44200E-04 10962   0.820E-04-0.123E-04
CGA:   9    -0.353864865004E+03   -0.19721E-04   -0.20334E-04 10962   0.372E-04-0.751E-05
CGA:  10    -0.353864874157E+03   -0.91534E-05   -0.98375E-05 10962   0.171E-04-0.651E-05
  40 F= -.35386487E+03 E0= -.35386487E+03  d E =-.110836E-02  mag=     8.0000
       N       E                     dE             d eps       ncg     rms          ort
SDA:   1    -0.353692220611E+03    0.17264E+00    0.00000E+00 10962   0.451E+00 0.000E+00
CGA:   2    -0.353805372077E+03   -0.11315E+00   -0.11311E+00 10962   0.302E+00 0.595E-03
CGA:   3    -0.353850719736E+03   -0.45348E-01   -0.45343E-01 10962   0.826E-01-0.158E-03
CGA:   4    -0.353861898635E+03   -0.11179E-01   -0.11166E-01 10962   0.175E-01-0.241E-03
CGA:   5    -0.353864653934E+03   -0.27553E-02   -0.27544E-02 10962   0.509E-02-0.300E-04
CGA:   6    -0.353865525974E+03   -0.87204E-03   -0.87156E-03 10962   0.157E-02-0.264E-04
CGA:   7    -0.353865826163E+03   -0.30019E-03   -0.30028E-03 10962   0.496E-03-0.411E-04
CGA:   8    -0.353865933989E+03   -0.10783E-03   -0.10803E-03 10962   0.205E-03-0.606E-05
CGA:   9    -0.353865987057E+03   -0.53068E-04   -0.53493E-04 10962   0.942E-04-0.586E-05
CGA:  10    -0.353866013102E+03   -0.26045E-04   -0.26946E-04 10962   0.433E-04-0.909E-05
CGA:  11    -0.353866022643E+03   -0.95412E-05   -0.94367E-05 10962   0.133E-04 0.254E-05
  41 F= -.35386602E+03 E0= -.35386602E+03  d E =-.114849E-02  mag=     8.0000
       N       E                     dE             d eps       ncg     rms          ort
SDA:   1    -0.353139707081E+03    0.72631E+00    0.00000E+00 10962   0.173E+01 0.000E+00
CGA:   2    -0.353699085434E+03   -0.55938E+00   -0.55936E+00 10962   0.859E+00-0.547E-04
CGA:   3    -0.353820591157E+03   -0.12151E+00   -0.12149E+00 10962   0.238E+00-0.361E-03
CGA:   4    -0.353854233798E+03   -0.33643E-01   -0.33618E-01 10962   0.560E-01-0.397E-03
CGA:   5    -0.353863221332E+03   -0.89875E-02   -0.89829E-02 10962   0.166E-01-0.103E-03
CGA:   6    -0.353866051325E+03   -0.28300E-02   -0.28287E-02 10962   0.520E-02-0.382E-04
CGA:   7    -0.353867064420E+03   -0.10131E-02   -0.10119E-02 10962   0.174E-02-0.964E-04
CGA:   8    -0.353867486384E+03   -0.42196E-03   -0.42593E-03 10962   0.841E-03-0.939E-04
CGA:   9    -0.353867697996E+03   -0.21161E-03   -0.21486E-03 10962   0.409E-03-0.529E-04
CGA:  10    -0.353867805830E+03   -0.10783E-03   -0.11152E-03 10962   0.176E-03-0.464E-04
CGA:  11    -0.353867846837E+03   -0.41007E-04   -0.41500E-04 10962   0.586E-04-0.984E-05
CGA:  12    -0.353867863098E+03   -0.16261E-04   -0.16495E-04 10962   0.252E-04-0.295E-05
CGA:  13    -0.353867869667E+03   -0.65696E-05   -0.62848E-05 10962   0.122E-04 0.700E-05
  42 F= -.35386787E+03 E0= -.35386787E+03  d E =-.184702E-02  mag=     8.0000
       N       E                     dE             d eps       ncg     rms          ort
SDA:   1    -0.353754093320E+03    0.11377E+00    0.00000E+00 10962   0.321E+00 0.000E+00
CGA:   2    -0.353824469600E+03   -0.70376E-01   -0.70378E-01 10962   0.209E+00 0.151E-03
CGA:   3    -0.353858249235E+03   -0.33780E-01   -0.33779E-01 10962   0.677E-01-0.463E-04
CGA:   4    -0.353867392827E+03   -0.91436E-02   -0.91465E-02 10962   0.136E-01 0.108E-04
CGA:   5    -0.353869527518E+03   -0.21347E-02   -0.21327E-02 10962   0.400E-02-0.373E-04
CGA:   6    -0.353870215691E+03   -0.68817E-03   -0.68803E-03 10962   0.127E-02-0.450E-05
CGA:   7    -0.353870456731E+03   -0.24104E-03   -0.24146E-03 10962   0.386E-03 0.196E-04
CGA:   8    -0.353870544847E+03   -0.88116E-04   -0.88047E-04 10962   0.161E-03 0.492E-05
CGA:   9    -0.353870585682E+03   -0.40835E-04   -0.40621E-04 10962   0.694E-04 0.566E-05
CGA:  10    -0.353870603819E+03   -0.18136E-04   -0.17859E-04 10962   0.254E-04 0.779E-05
CGA:  11    -0.353870611049E+03   -0.72299E-05   -0.70823E-05 10962   0.950E-05 0.418E-05
  43 F= -.35387061E+03 E0= -.35387061E+03  d E =-.274138E-02  mag=     8.0000
       N       E                     dE             d eps       ncg     rms          ort
SDA:   1    -0.353845836063E+03    0.24768E-01    0.00000E+00 10962   0.912E-01 0.000E+00
CGA:   2    -0.353859396070E+03   -0.13560E-01   -0.13565E-01 10962   0.388E-01 0.275E-04
CGA:   3    -0.353866967030E+03   -0.75710E-02   -0.75704E-02 10962   0.212E-01-0.479E-04
CGA:   4    -0.353870116900E+03   -0.31499E-02   -0.31520E-02 10962   0.459E-02 0.260E-04
CGA:   5    -0.353870783427E+03   -0.66653E-03   -0.66793E-03 10962   0.118E-02 0.202E-04
CGA:   6    -0.353870982297E+03   -0.19887E-03   -0.19999E-03 10962   0.369E-03 0.297E-04
CGA:   7    -0.353871047444E+03   -0.65147E-04   -0.66310E-04 10962   0.100E-03 0.401E-04
CGA:   8    -0.353871066105E+03   -0.18661E-04   -0.19383E-04 10962   0.329E-04 0.258E-04
CGA:   9    -0.353871073643E+03   -0.75384E-05   -0.77221E-05 10962   0.137E-04 0.124E-04
  44 F= -.35387107E+03 E0= -.35387107E+03  d E =-.462595E-03  mag=     8.0000
       N       E                     dE             d eps       ncg     rms          ort
SDA:   1    -0.353684708197E+03    0.18636E+00    0.00000E+00 10962   0.439E+00 0.000E+00
CGA:   2    -0.353837176747E+03   -0.15247E+00   -0.15246E+00 10962   0.171E+00 0.624E-05
CGA:   3    -0.353863016555E+03   -0.25840E-01   -0.25841E-01 10962   0.519E-01-0.129E-04
CGA:   4    -0.353870115056E+03   -0.70985E-02   -0.70909E-02 10962   0.118E-01-0.125E-03
CGA:   5    -0.353872051598E+03   -0.19365E-02   -0.19331E-02 10962   0.365E-02-0.984E-04
CGA:   6    -0.353872664176E+03   -0.61258E-03   -0.61346E-03 10962   0.108E-02 0.292E-04
CGA:   7    -0.353872871100E+03   -0.20692E-03   -0.20698E-03 10962   0.360E-03 0.756E-05
CGA:   8    -0.353872966693E+03   -0.95593E-04   -0.99065E-04 10962   0.210E-03-0.458E-04
CGA:   9    -0.353873008912E+03   -0.42218E-04   -0.41873E-04 10962   0.847E-04 0.127E-04
CGA:  10    -0.353873032894E+03   -0.23982E-04   -0.23921E-04 10962   0.346E-04 0.963E-06
CGA:  11    -0.353873043125E+03   -0.10231E-04   -0.14253E-04 10962   0.361E-04-0.199E-04
CGA:  12    -0.353873046372E+03   -0.32471E-05   -0.44092E-05 10962   0.687E-05 0.124E-04
  45 F= -.35387305E+03 E0= -.35387305E+03  d E =-.197273E-02  mag=     8.0000
       N       E                     dE             d eps       ncg     rms          ort
SDA:   1    -0.335022326630E+03    0.18851E+02    0.00000E+00 10962   0.509E+02 0.000E+00
CGA:   2    -0.346324971894E+03   -0.11303E+02   -0.11299E+02 10962   0.322E+02 0.149E+00
CGA:   3    -0.351617525266E+03   -0.52926E+01   -0.52926E+01 10962   0.104E+02-0.845E-02
CGA:   4    -0.353031175755E+03   -0.14137E+01   -0.14130E+01 10962   0.222E+01-0.646E-02
CGA:   5    -0.353378034500E+03   -0.34686E+00   -0.34722E+00 10962   0.664E+00 0.576E-02
CGA:   6    -0.353493011700E+03   -0.11498E+00   -0.11508E+00 10962   0.214E+00 0.337E-02
CGA:   7    -0.353535046339E+03   -0.42035E-01   -0.42034E-01 10962   0.710E-01-0.124E-03
CGA:   8    -0.353551332817E+03   -0.16286E-01   -0.16272E-01 10962   0.297E-01 0.455E-03
CGA:   9    -0.353558957871E+03   -0.76251E-02   -0.76555E-02 10962   0.131E-01-0.546E-03
CGA:  10    -0.353562370353E+03   -0.34125E-02   -0.34349E-02 10962   0.494E-02-0.352E-03
CGA:  11    -0.353563571154E+03   -0.12008E-02   -0.11921E-02 10962   0.153E-02 0.208E-03
CGA:  12    -0.353564045855E+03   -0.47470E-03   -0.48680E-03 10962   0.633E-03-0.125E-03
CGA:  13    -0.353564187000E+03   -0.14114E-03   -0.13766E-03 10962   0.267E-03 0.149E-03
CGA:  14    -0.353564306512E+03   -0.11951E-03   -0.11699E-03 10962   0.209E-03 0.175E-04
CGA:  15    -0.353564392453E+03   -0.85940E-04   -0.80824E-04 10962   0.173E-03 0.356E-04
CGA:  16    -0.353564436004E+03   -0.43551E-04   -0.44483E-04 10962   0.102E-03 0.101E-03
CGA:  17    -0.353564475730E+03   -0.39726E-04   -0.37997E-04 10962   0.408E-04 0.117E-04
CGA:  18    -0.353564482608E+03   -0.68779E-05   -0.84667E-05 10962   0.245E-04 0.319E-04
CGA:  19    -0.353564495448E+03   -0.12840E-04    0.22624E-04 10962   0.169E-04 0.180E-04
CGA:  20    -0.353564499211E+03   -0.37638E-05   -0.38485E-05 10962   0.149E-04 0.156E-04
  46 F= -.35356450E+03 E0= -.35356450E+03  d E =0.308547E+00  mag=     8.0000
       N       E                     dE             d eps       ncg     rms          ort
SDA:   1    -0.350300117383E+03    0.32644E+01    0.00000E+00 10962   0.853E+01 0.000E+00
CGA:   2    -0.352924592767E+03   -0.26245E+01   -0.26241E+01 10962   0.355E+01 0.262E-02
CGA:   3    -0.353540853560E+03   -0.61626E+00   -0.61646E+00 10962   0.147E+01 0.181E-02
CGA:   4    -0.353748674774E+03   -0.20782E+00   -0.20787E+00 10962   0.365E+00-0.694E-04
CGA:   5    -0.353812583604E+03   -0.63909E-01   -0.63856E-01 10962   0.131E+00-0.108E-02
CGA:   6    -0.353835803964E+03   -0.23220E-01   -0.23215E-01 10962   0.466E-01-0.136E-03
CGA:   7    -0.353845933502E+03   -0.10130E-01   -0.10130E-01 10962   0.220E-01-0.927E-05
CGA:   8    -0.353851202601E+03   -0.52691E-02   -0.52724E-02 10962   0.852E-02-0.208E-03
CGA:   9    -0.353853258032E+03   -0.20554E-02   -0.20550E-02 10962   0.347E-02 0.193E-04
CGA:  10    -0.353854118952E+03   -0.86092E-03   -0.86107E-03 10962   0.108E-02-0.718E-05
CGA:  11    -0.353854388530E+03   -0.26958E-03   -0.26875E-03 10962   0.333E-03 0.361E-04
CGA:  12    -0.353854475665E+03   -0.87135E-04   -0.86619E-04 10962   0.104E-03 0.213E-04
CGA:  13    -0.353854509539E+03   -0.33874E-04   -0.33594E-04 10962   0.443E-04 0.371E-05
CGA:  14    -0.353854517410E+03   -0.78709E-05   -0.87340E-05 10962   0.201E-04 0.206E-04
  47 F= -.35385452E+03 E0= -.35385452E+03  d E =-.290018E+00  mag=     8.0000
       N       E                     dE             d eps       ncg     rms          ort
SDA:   1    -0.353805809951E+03    0.48700E-01    0.00000E+00 10962   0.163E+00 0.000E+00
CGA:   2    -0.353850466597E+03   -0.44657E-01   -0.44637E-01 10962   0.885E-01 0.416E-03
CGA:   3    -0.353864455553E+03   -0.13989E-01   -0.13985E-01 10962   0.325E-01-0.600E-04
CGA:   4    -0.353869232200E+03   -0.47766E-02   -0.47819E-02 10962   0.833E-02 0.542E-04
CGA:   5    -0.353870640132E+03   -0.14079E-02   -0.14080E-02 10962   0.281E-02-0.761E-06
CGA:   6    -0.353871153712E+03   -0.51358E-03   -0.51176E-03 10962   0.104E-02-0.472E-04
CGA:   7    -0.353871352398E+03   -0.19869E-03   -0.19933E-03 10962   0.412E-03 0.270E-04
CGA:   8    -0.353871444325E+03   -0.91926E-04   -0.91969E-04 10962   0.148E-03 0.546E-04
CGA:   9    -0.353871489491E+03   -0.45166E-04   -0.46138E-04 10962   0.834E-04-0.171E-04
CGA:  10    -0.353871506550E+03   -0.17058E-04   -0.17040E-04 10962   0.283E-04 0.176E-05
CGA:  11    -0.353871513455E+03   -0.69057E-05   -0.69243E-05 10962   0.101E-04-0.101E-05
CGA:  12    -0.353871517829E+03   -0.43737E-05    0.10821E-03 10962   0.350E-05 0.138E-05
  48 F= -.35387152E+03 E0= -.35387152E+03  d E =-.170004E-01  mag=     8.0000
       N       E                     dE             d eps       ncg     rms          ort
SDA:   1    -0.353811331274E+03    0.60182E-01    0.00000E+00 10962   0.217E+00 0.000E+00
CGA:   2    -0.353848820987E+03   -0.37490E-01   -0.37532E-01 10962   0.109E+00 0.651E-03
CGA:   3    -0.353868566406E+03   -0.19745E-01   -0.19756E-01 10962   0.502E-01 0.208E-03
CGA:   4    -0.353875881305E+03   -0.73149E-02   -0.73270E-02 10962   0.115E-01 0.140E-03
CGA:   5    -0.353877650268E+03   -0.17690E-02   -0.17689E-02 10962   0.331E-02-0.574E-05
CGA:   6    -0.353878237594E+03   -0.58733E-03   -0.58405E-03 10962   0.112E-02-0.842E-04
CGA:   7    -0.353878445238E+03   -0.20764E-03   -0.20811E-03 10962   0.353E-03 0.190E-04
CGA:   8    -0.353878505217E+03   -0.59979E-04   -0.63165E-04 10962   0.118E-03 0.855E-04
CGA:   9    -0.353878531210E+03   -0.25993E-04   -0.27091E-04 10962   0.470E-04 0.421E-04
CGA:  10    -0.353878546393E+03   -0.15183E-04   -0.14913E-04 10962   0.241E-04 0.112E-04
CGA:  11    -0.353878552018E+03   -0.56247E-05   -0.57980E-05 10962   0.100E-04 0.103E-04
  49 F= -.35387855E+03 E0= -.35387855E+03  d E =-.703419E-02  mag=     8.0000
       N       E                     dE             d eps       ncg     rms          ort
SDA:   1    -0.353846667697E+03    0.31879E-01    0.00000E+00 10962   0.126E+00 0.000E+00
CGA:   2    -0.353866557686E+03   -0.19890E-01   -0.19914E-01 10962   0.552E-01 0.363E-03
CGA:   3    -0.353876884573E+03   -0.10327E-01   -0.10330E-01 10962   0.279E-01 0.126E-03
CGA:   4    -0.353881029894E+03   -0.41453E-02   -0.41531E-02 10962   0.645E-02 0.121E-03
CGA:   5    -0.353882005025E+03   -0.97513E-03   -0.97547E-03 10962   0.170E-02 0.381E-05
CGA:   6    -0.353882305857E+03   -0.30083E-03   -0.29904E-03 10962   0.569E-03-0.667E-04
CGA:   7    -0.353882409018E+03   -0.10316E-03   -0.10312E-03 10962   0.172E-03-0.305E-05
CGA:   8    -0.353882434920E+03   -0.25902E-04   -0.27692E-04 10962   0.533E-04 0.454E-04
CGA:   9    -0.353882444687E+03   -0.97665E-05   -0.10753E-04 10962   0.224E-04 0.251E-04
  50 F= -.35388244E+03 E0= -.35388244E+03  d E =-.389267E-02  mag=     8.0000
       N       E                     dE             d eps       ncg     rms          ort
SDA:   1    -0.353620973196E+03    0.26146E+00    0.00000E+00 10962   0.980E+00 0.000E+00
CGA:   2    -0.353769592858E+03   -0.14862E+00   -0.14873E+00 10962   0.404E+00 0.189E-02
CGA:   3    -0.353846209401E+03   -0.76617E-01   -0.76617E-01 10962   0.215E+00-0.586E-04
CGA:   4    -0.353878484053E+03   -0.32275E-01   -0.32280E-01 10962   0.505E-01 0.653E-04
CGA:   5    -0.353885823205E+03   -0.73392E-02   -0.73485E-02 10962   0.130E-01 0.182E-03
CGA:   6    -0.353888026443E+03   -0.22032E-02   -0.22012E-02 10962   0.404E-02-0.108E-03
CGA:   7    -0.353888804550E+03   -0.77811E-03   -0.77842E-03 10962   0.124E-02-0.530E-04
CGA:   8    -0.353889033910E+03   -0.22936E-03   -0.22953E-03 10962   0.394E-03 0.146E-03
CGA:   9    -0.353889132998E+03   -0.99088E-04   -0.97024E-04 10962   0.154E-03 0.642E-04
CGA:  10    -0.353889183386E+03   -0.50389E-04   -0.49735E-04 10962   0.808E-04 0.736E-05
CGA:  11    -0.353889199147E+03   -0.15761E-04   -0.15937E-04 10962   0.316E-04 0.286E-04
CGA:  12    -0.353889208535E+03   -0.93883E-05   -0.91713E-05 10962   0.146E-04 0.106E-04
CGA:  13    -0.353889213690E+03   -0.51542E-05   -0.11068E-04 10962   0.331E-04-0.160E-04
  51 F= -.35388921E+03 E0= -.35388921E+03  d E =-.676900E-02  mag=     8.0000
       N       E                     dE             d eps       ncg     rms          ort
SDA:   1    -0.353600962503E+03    0.28825E+00    0.00000E+00 10962   0.111E+01 0.000E+00
CGA:   2    -0.353761713520E+03   -0.16075E+00   -0.16091E+00 10962   0.422E+00 0.168E-02
CGA:   3    -0.353843036171E+03   -0.81323E-01   -0.81321E-01 10962   0.243E+00-0.285E-03
CGA:   4    -0.353880177102E+03   -0.37141E-01   -0.37141E-01 10962   0.583E-01-0.815E-04
CGA:   5    -0.353888400285E+03   -0.82232E-02   -0.82414E-02 10962   0.140E-01 0.279E-03
CGA:   6    -0.353890723441E+03   -0.23232E-02   -0.23235E-02 10962   0.423E-02 0.272E-05
CGA:   7    -0.353891554452E+03   -0.83101E-03   -0.83100E-03 10962   0.129E-02-0.532E-04
CGA:   8    -0.353891795860E+03   -0.24141E-03   -0.24208E-03 10962   0.399E-03 0.104E-03
CGA:   9    -0.353891897426E+03   -0.10157E-03   -0.10045E-03 10962   0.160E-03 0.305E-04
CGA:  10    -0.353891946266E+03   -0.48840E-04   -0.48996E-04 10962   0.810E-04-0.192E-05
CGA:  11    -0.353891960423E+03   -0.14157E-04   -0.14682E-04 10962   0.300E-04 0.275E-04
CGA:  12    -0.353891968172E+03   -0.77489E-05   -0.78298E-05 10962   0.137E-04 0.120E-04
  52 F= -.35389197E+03 E0= -.35389197E+03  d E =-.275448E-02  mag=     8.0000
       N       E                     dE             d eps       ncg     rms          ort
SDA:   1    -0.353724383365E+03    0.16758E+00    0.00000E+00 10962   0.546E+00 0.000E+00
CGA:   2    -0.353818220950E+03   -0.93838E-01   -0.93871E-01 10962   0.275E+00 0.601E-03
CGA:   3    -0.353868152943E+03   -0.49932E-01   -0.49931E-01 10962   0.124E+00-0.135E-03
CGA:   4    -0.353885830272E+03   -0.17677E-01   -0.17675E-01 10962   0.275E-01-0.705E-04
CGA:   5    -0.353889907708E+03   -0.40774E-02   -0.40841E-02 10962   0.760E-02 0.112E-03
CGA:   6    -0.353891203891E+03   -0.12962E-02   -0.12973E-02 10962   0.240E-02 0.335E-04
CGA:   7    -0.353891683181E+03   -0.47929E-03   -0.47926E-03 10962   0.787E-03-0.401E-04
CGA:   8    -0.353891847510E+03   -0.16433E-03   -0.16389E-03 10962   0.292E-03 0.350E-04
CGA:   9    -0.353891925023E+03   -0.77513E-04   -0.77572E-04 10962   0.128E-03-0.115E-05
CGA:  10    -0.353891961659E+03   -0.36636E-04   -0.38256E-04 10962   0.648E-04-0.167E-04
CGA:  11    -0.353891971177E+03   -0.95186E-05   -0.10007E-04 10962   0.217E-04 0.164E-04
  53 F= -.35389197E+03 E0= -.35389197E+03  d E =-.300499E-05  mag=     8.0000
       N       E                     dE             d eps       ncg     rms          ort
SDA:   1    -0.353859695695E+03    0.32266E-01    0.00000E+00 10962   0.950E-01 0.000E+00
CGA:   2    -0.353880802809E+03   -0.21107E-01   -0.21105E-01 10962   0.592E-01 0.724E-04
CGA:   3    -0.353890389880E+03   -0.95871E-02   -0.95908E-02 10962   0.206E-01 0.725E-04
CGA:   4    -0.353893288595E+03   -0.28987E-02   -0.28936E-02 10962   0.488E-02-0.857E-04
CGA:   5    -0.353894051452E+03   -0.76286E-03   -0.76208E-03 10962   0.149E-02-0.192E-04
CGA:   6    -0.353894308136E+03   -0.25668E-03   -0.25744E-03 10962   0.470E-03 0.294E-04
CGA:   7    -0.353894404733E+03   -0.96597E-04   -0.96614E-04 10962   0.177E-03-0.390E-05
CGA:   8    -0.353894446825E+03   -0.42092E-04   -0.42176E-04 10962   0.783E-04-0.197E-05
CGA:   9    -0.353894461157E+03   -0.14332E-04   -0.14537E-04 10962   0.252E-04 0.172E-04
CGA:  10    -0.353894468166E+03   -0.70094E-05   -0.68757E-05 10962   0.990E-05 0.541E-05
  54 F= -.35389447E+03 E0= -.35389447E+03  d E =-.249699E-02  mag=     8.0000
       N       E                     dE             d eps       ncg     rms          ort
SDA:   1    -0.353878329652E+03    0.16132E-01    0.00000E+00 10962   0.573E-01 0.000E+00
CGA:   2    -0.353887434389E+03   -0.91047E-02   -0.91082E-02 10962   0.261E-01 0.527E-04
CGA:   3    -0.353892375667E+03   -0.49413E-02   -0.49413E-02 10962   0.133E-01-0.120E-04
CGA:   4    -0.353894301718E+03   -0.19261E-02   -0.19219E-02 10962   0.291E-02-0.824E-04
CGA:   5    -0.353894713705E+03   -0.41199E-03   -0.41256E-03 10962   0.726E-03 0.971E-05
CGA:   6    -0.353894832448E+03   -0.11874E-03   -0.11979E-03 10962   0.217E-03 0.360E-04
CGA:   7    -0.353894876109E+03   -0.43661E-04   -0.43660E-04 10962   0.654E-04 0.996E-05
CGA:   8    -0.353894891964E+03   -0.15855E-04   -0.16057E-04 10962   0.297E-04-0.473E-05
CGA:   9    -0.353894897264E+03   -0.52997E-05   -0.53053E-05 10962   0.104E-04 0.487E-05
  55 F= -.35389490E+03 E0= -.35389490E+03  d E =-.429098E-03  mag=     8.0000
       N       E                     dE             d eps       ncg     rms          ort
SDA:   1    -0.353862182963E+03    0.32709E-01    0.00000E+00 10962   0.879E-01 0.000E+00
CGA:   2    -0.353883638582E+03   -0.21456E-01   -0.21452E-01 10962   0.592E-01 0.434E-04
CGA:   3    -0.353892630220E+03   -0.89916E-02   -0.89946E-02 10962   0.167E-01 0.540E-04
CGA:   4    -0.353894874983E+03   -0.22448E-02   -0.22413E-02 10962   0.352E-02-0.611E-04
CGA:   5    -0.353895413176E+03   -0.53819E-03   -0.53867E-03 10962   0.104E-02 0.116E-04
CGA:   6    -0.353895587412E+03   -0.17424E-03   -0.17472E-03 10962   0.308E-03 0.216E-04
CGA:   7    -0.353895649819E+03   -0.62406E-04   -0.62530E-04 10962   0.104E-03-0.121E-04
CGA:   8    -0.353895672907E+03   -0.23088E-04   -0.23290E-04 10962   0.462E-04-0.475E-05
CGA:   9    -0.353895682212E+03   -0.93048E-05   -0.91649E-05 10962   0.168E-04 0.849E-05
  56 F= -.35389568E+03 E0= -.35389568E+03  d E =-.784947E-03  mag=     8.0000
       N       E                     dE             d eps       ncg     rms          ort
SDA:   1    -0.353456382761E+03    0.43929E+00    0.00000E+00 10962   0.111E+01 0.000E+00
CGA:   2    -0.353755288693E+03   -0.29891E+00   -0.29886E+00 10962   0.742E+00 0.349E-03
CGA:   3    -0.353862375201E+03   -0.10709E+00   -0.10709E+00 10962   0.193E+00-0.113E-03
CGA:   4    -0.353888202202E+03   -0.25827E-01   -0.25810E-01 10962   0.422E-01-0.312E-03
CGA:   5    -0.353894755355E+03   -0.65532E-02   -0.65562E-02 10962   0.125E-01 0.695E-04
CGA:   6    -0.353896891169E+03   -0.21358E-02   -0.21366E-02 10962   0.373E-02 0.361E-04
CGA:   7    -0.353897609269E+03   -0.71810E-03   -0.71822E-03 10962   0.119E-02-0.860E-04
CGA:   8    -0.353897877967E+03   -0.26870E-03   -0.27006E-03 10962   0.519E-03-0.337E-04
CGA:   9    -0.353898008361E+03   -0.13039E-03   -0.13013E-03 10962   0.234E-03 0.397E-05
CGA:  10    -0.353898077851E+03   -0.69490E-04   -0.72418E-04 10962   0.119E-03-0.264E-04
CGA:  11    -0.353898103194E+03   -0.25343E-04   -0.25072E-04 10962   0.382E-04 0.750E-05
CGA:  12    -0.353898115138E+03   -0.11944E-04   -0.12107E-04 10962   0.176E-04-0.175E-05
CGA:  13    -0.353898121214E+03   -0.60758E-05   -0.74469E-05 10962   0.189E-04-0.584E-05
  57 F= -.35389812E+03 E0= -.35389812E+03  d E =-.243900E-02  mag=     8.0000
[...]
CGA:   8    -0.353992554167E+03   -0.19618E-04   -0.19732E-04 10962   0.382E-04 0.225E-04
CGA:   9    -0.353992565343E+03   -0.11176E-04   -0.10780E-04 10962   0.196E-04 0.880E-05
CGA:  10    -0.353992573415E+03   -0.80717E-05   -0.87115E-05 10962   0.192E-04-0.376E-05
  98 F= -.35399257E+03 E0= -.35399257E+03  d E =-.602678E-03  mag=     8.0000
       N       E                     dE             d eps       ncg     rms          ort
SDA:   1    -0.353984808363E+03    0.77570E-02    0.00000E+00 10962   0.250E-01 0.000E+00
CGA:   2    -0.353989281138E+03   -0.44728E-02   -0.44730E-02 10962   0.135E-01 0.241E-05
CGA:   3    -0.353991700255E+03   -0.24191E-02   -0.24187E-02 10962   0.557E-02-0.278E-04
CGA:   4    -0.353992470957E+03   -0.77070E-03   -0.77038E-03 10962   0.117E-02-0.780E-05
CGA:   5    -0.353992650055E+03   -0.17910E-03   -0.17903E-03 10962   0.338E-03-0.226E-05
CGA:   6    -0.353992702705E+03   -0.52650E-04   -0.53290E-04 10962   0.941E-04 0.198E-04
CGA:   7    -0.353992718235E+03   -0.15529E-04   -0.16031E-04 10962   0.252E-04 0.183E-04
CGA:   8    -0.353992725445E+03   -0.72104E-05   -0.72573E-05 10962   0.135E-04-0.886E-06
  99 F= -.35399273E+03 E0= -.35399273E+03  d E =-.152030E-03  mag=     8.0000
       N       E                     dE             d eps       ncg     rms          ort
SDA:   1    -0.353979406692E+03    0.13312E-01    0.00000E+00 10962   0.358E-01 0.000E+00
CGA:   2    -0.353988907088E+03   -0.95004E-02   -0.94700E-02 10962   0.193E-01 0.419E-03
CGA:   3    -0.353991932943E+03   -0.30259E-02   -0.30219E-02 10962   0.640E-02-0.960E-04
CGA:   4    -0.353992827475E+03   -0.89453E-03   -0.88802E-03 10962   0.141E-02-0.116E-03
CGA:   5    -0.353993043048E+03   -0.21557E-03   -0.21414E-03 10962   0.410E-03-0.374E-04
CGA:   6    -0.353993112648E+03   -0.69600E-04   -0.69295E-04 10962   0.134E-03-0.172E-04
CGA:   7    -0.353993136139E+03   -0.23491E-04   -0.23525E-04 10962   0.430E-04 0.437E-05
CGA:   8    -0.353993147626E+03   -0.11487E-04   -0.11738E-04 10962   0.250E-04-0.341E-05
CGA:   9    -0.353993154278E+03   -0.66519E-05   -0.90460E-05 10962   0.304E-04-0.120E-04
 100 F= -.35399315E+03 E0= -.35399315E+03  d E =-.428833E-03  mag=     8.0000
       N       E                     dE             d eps       ncg     rms          ort
SDA:   1    -0.353615238930E+03    0.37791E+00    0.00000E+00 10962   0.102E+01 0.000E+00
CGA:   2    -0.353883464319E+03   -0.26823E+00   -0.26793E+00 10962   0.476E+00 0.412E-02
CGA:   3    -0.353961783542E+03   -0.78319E-01   -0.78293E-01 10962   0.175E+00-0.760E-03
CGA:   4    -0.353985948771E+03   -0.24165E-01   -0.24109E-01 10962   0.375E-01-0.914E-03
CGA:   5    -0.353991694960E+03   -0.57462E-02   -0.57343E-02 10962   0.111E-01-0.274E-03
CGA:   6    -0.353993546921E+03   -0.18520E-02   -0.18518E-02 10962   0.349E-02-0.947E-05
CGA:   7    -0.353994239353E+03   -0.69243E-03   -0.69231E-03 10962   0.133E-02 0.374E-04
CGA:   8    -0.353994578621E+03   -0.33927E-03   -0.33971E-03 10962   0.706E-03-0.847E-05
CGA:   9    -0.353994780157E+03   -0.20154E-03   -0.20377E-03 10962   0.430E-03-0.246E-04
CGA:  10    -0.353994899733E+03   -0.11958E-03   -0.12153E-03 10962   0.203E-03-0.219E-04
CGA:  11    -0.353994954726E+03   -0.54993E-04   -0.56295E-04 10962   0.862E-04-0.155E-04
CGA:  12    -0.353994976470E+03   -0.21744E-04   -0.21409E-04 10962   0.346E-04 0.583E-05
CGA:  13    -0.353994988733E+03   -0.12263E-04   -0.11936E-04 10962   0.187E-04 0.297E-05
CGA:  14    -0.353994994616E+03   -0.58835E-05   -0.55622E-05 10962   0.898E-05 0.594E-05
 101 F= -.35399499E+03 E0= -.35399499E+03  d E =-.184034E-02  mag=     8.0000
       N       E                     dE             d eps       ncg     rms          ort
SDA:   1    -0.352343992643E+03    0.16510E+01    0.00000E+00 10962   0.466E+01 0.000E+00
CGA:   2    -0.353491546606E+03   -0.11476E+01   -0.11472E+01 10962   0.203E+01 0.150E-01
CGA:   3    -0.353838266149E+03   -0.34672E+00   -0.34668E+00 10962   0.828E+00-0.137E-02
CGA:   4    -0.353953420559E+03   -0.11515E+00   -0.11496E+00 10962   0.178E+00-0.240E-02
CGA:   5    -0.353980806459E+03   -0.27386E-01   -0.27337E-01 10962   0.515E-01-0.773E-03
CGA:   6    -0.353989517468E+03   -0.87110E-02   -0.87189E-02 10962   0.166E-01 0.151E-03
CGA:   7    -0.353992919469E+03   -0.34020E-02   -0.34030E-02 10962   0.696E-02 0.747E-04
CGA:   8    -0.353994721598E+03   -0.18021E-02   -0.18044E-02 10962   0.383E-02-0.572E-04
CGA:   9    -0.353995795450E+03   -0.10739E-02   -0.10737E-02 10962   0.221E-02 0.358E-06
CGA:  10    -0.353996444593E+03   -0.64914E-03   -0.65933E-03 10962   0.106E-02-0.132E-03
CGA:  11    -0.353996709014E+03   -0.26442E-03   -0.26367E-03 10962   0.393E-03 0.183E-04
CGA:  12    -0.353996826726E+03   -0.11771E-03   -0.11731E-03 10962   0.175E-03 0.588E-05
CGA:  13    -0.353996889987E+03   -0.63261E-04   -0.63777E-04 10962   0.104E-03-0.414E-05
CGA:  14    -0.353996917759E+03   -0.27771E-04   -0.26967E-04 10962   0.442E-04 0.264E-04
CGA:  15    -0.353996939069E+03   -0.21310E-04   -0.23159E-04 10962   0.345E-04-0.104E-04
CGA:  16    -0.353996944301E+03   -0.52314E-05   -0.55394E-05 10962   0.201E-04 0.827E-05
 102 F= -.35399694E+03 E0= -.35399694E+03  d E =-.194968E-02  mag=     8.0000
       N       E                     dE             d eps       ncg     rms          ort
SDA:   1    -0.353659539630E+03    0.33740E+00    0.00000E+00 10962   0.103E+01 0.000E+00
CGA:   2    -0.353849076124E+03   -0.18954E+00   -0.18961E+00 10962   0.551E+00 0.622E-03
CGA:   3    -0.353947130177E+03   -0.98054E-01   -0.98037E-01 10962   0.234E+00-0.425E-03
CGA:   4    -0.353980221416E+03   -0.33091E-01   -0.33088E-01 10962   0.545E-01-0.907E-04
CGA:   5    -0.353988289576E+03   -0.80682E-02   -0.80816E-02 10962   0.152E-01 0.137E-03
CGA:   6    -0.353990911805E+03   -0.26222E-02   -0.26287E-02 10962   0.502E-02 0.107E-03
CGA:   7    -0.353991915513E+03   -0.10037E-02   -0.10036E-02 10962   0.174E-02-0.561E-05
CGA:   8    -0.353992321827E+03   -0.40631E-03   -0.40707E-03 10962   0.785E-03-0.865E-04
CGA:   9    -0.353992516080E+03   -0.19425E-03   -0.19742E-03 10962   0.372E-03-0.829E-04
CGA:  10    -0.353992605380E+03   -0.89300E-04   -0.91215E-04 10962   0.154E-03-0.417E-04
CGA:  11    -0.353992637589E+03   -0.32210E-04   -0.32180E-04 10962   0.479E-04 0.548E-05
CGA:  12    -0.353992649644E+03   -0.12055E-04   -0.11975E-04 10962   0.171E-04 0.752E-05
CGA:  13    -0.353992654570E+03   -0.49258E-05   -0.48619E-05 10962   0.801E-05 0.460E-05
 103 F= -.35399265E+03 E0= -.35399265E+03  d E =0.428973E-02  mag=     8.0000
       N       E                     dE             d eps       ncg     rms          ort
SDA:   1    -0.353323973105E+03    0.66868E+00    0.00000E+00 10962   0.194E+01 0.000E+00
CGA:   2    -0.353786189895E+03   -0.46222E+00   -0.46221E+00 10962   0.843E+00 0.181E-03
CGA:   3    -0.353928637785E+03   -0.14245E+00   -0.14246E+00 10962   0.354E+00-0.952E-06
CGA:   4    -0.353978745540E+03   -0.50108E-01   -0.50171E-01 10962   0.786E-01 0.584E-03
CGA:   5    -0.353990806956E+03   -0.12061E-01   -0.12083E-01 10962   0.222E-01 0.269E-03
CGA:   6    -0.353994670351E+03   -0.38634E-02   -0.38577E-02 10962   0.753E-02-0.123E-03
CGA:   7    -0.353996209541E+03   -0.15392E-02   -0.15391E-02 10962   0.315E-02-0.127E-04
CGA:   8    -0.353996989723E+03   -0.78018E-03   -0.77706E-03 10962   0.159E-02 0.109E-03
CGA:   9    -0.353997464187E+03   -0.47446E-03   -0.47675E-03 10962   0.954E-03-0.340E-04
CGA:  10    -0.353997712913E+03   -0.24873E-03   -0.24671E-03 10962   0.391E-03 0.491E-04
CGA:  11    -0.353997833529E+03   -0.12062E-03   -0.12192E-03 10962   0.177E-03-0.184E-04
CGA:  12    -0.353997889331E+03   -0.55802E-04   -0.60567E-04 10962   0.112E-03-0.370E-04
CGA:  13    -0.353997911726E+03   -0.22395E-04   -0.22188E-04 10962   0.467E-04 0.146E-04
CGA:  14    -0.353997929600E+03   -0.17874E-04   -0.20071E-04 10962   0.367E-04-0.153E-04
CGA:  15    -0.353997934438E+03   -0.48377E-05   -0.49965E-05 10962   0.193E-04 0.387E-05
 104 F= -.35399793E+03 E0= -.35399793E+03  d E =-.527987E-02  mag=     8.0000
       N       E                     dE             d eps       ncg     rms          ort
SDA:   1    -0.353927166128E+03    0.70763E-01    0.00000E+00 10962   0.190E+00 0.000E+00
CGA:   2    -0.353976063730E+03   -0.48898E-01   -0.48878E-01 10962   0.103E+00 0.880E-03
CGA:   3    -0.353991901133E+03   -0.15837E-01   -0.15829E-01 10962   0.344E-01-0.121E-03
CGA:   4    -0.353996711982E+03   -0.48108E-02   -0.47949E-02 10962   0.807E-02-0.177E-03
CGA:   5    -0.353997930351E+03   -0.12184E-02   -0.12154E-02 10962   0.230E-02-0.401E-04
CGA:   6    -0.353998320949E+03   -0.39060E-03   -0.39012E-03 10962   0.725E-03-0.930E-05
CGA:   7    -0.353998461259E+03   -0.14031E-03   -0.14062E-03 10962   0.258E-03 0.111E-04
CGA:   8    -0.353998515206E+03   -0.53948E-04   -0.54451E-04 10962   0.103E-03 0.379E-04
CGA:   9    -0.353998548071E+03   -0.32864E-04   -0.32603E-04 10962   0.599E-04 0.468E-05
CGA:  10    -0.353998566486E+03   -0.18415E-04   -0.18527E-04 10962   0.323E-04-0.156E-05
CGA:  11    -0.353998572889E+03   -0.64030E-05   -0.65323E-05 10962   0.111E-04 0.666E-05
 105 F= -.35399857E+03 E0= -.35399857E+03  d E =-.638451E-03  mag=     8.0000
       N       E                     dE             d eps       ncg     rms          ort
SDA:   1    -0.353649222645E+03    0.34934E+00    0.00000E+00 10962   0.919E+00 0.000E+00
CGA:   2    -0.353907403717E+03   -0.25818E+00   -0.25799E+00 10962   0.384E+00 0.321E-02
CGA:   3    -0.353973939007E+03   -0.66535E-01   -0.66499E-01 10962   0.148E+00-0.645E-03
CGA:   4    -0.353993212034E+03   -0.19273E-01   -0.19236E-01 10962   0.299E-01-0.409E-03
CGA:   5    -0.353998003751E+03   -0.47917E-02   -0.47836E-02 10962   0.912E-02-0.132E-03
CGA:   6    -0.353999549673E+03   -0.15459E-02   -0.15430E-02 10962   0.296E-02-0.582E-04
CGA:   7    -0.354000145033E+03   -0.59536E-03   -0.59527E-03 10962   0.121E-02-0.635E-05
CGA:   8    -0.354000444864E+03   -0.29983E-03   -0.29955E-03 10962   0.625E-03 0.885E-05
CGA:   9    -0.354000636667E+03   -0.19180E-03   -0.19702E-03 10962   0.430E-03-0.567E-04
CGA:  10    -0.354000741448E+03   -0.10478E-03   -0.10496E-03 10962   0.179E-03-0.430E-05
CGA:  11    -0.354000790258E+03   -0.48810E-04   -0.49028E-04 10962   0.724E-04-0.451E-05
CGA:  12    -0.354000813324E+03   -0.23067E-04   -0.24593E-04 10962   0.454E-04-0.129E-04
CGA:  13    -0.354000820985E+03   -0.76602E-05   -0.79382E-05 10962   0.208E-04 0.121E-04
 106 F= -.35400082E+03 E0= -.35400082E+03  d E =-.224810E-02  mag=     8.0000
       N       E                     dE             d eps       ncg     rms          ort
SDA:   1    -0.349495632581E+03    0.45052E+01    0.00000E+00 10962   0.118E+02 0.000E+00
CGA:   2    -0.352804346478E+03   -0.33087E+01   -0.33064E+01 10962   0.481E+01 0.341E-01
CGA:   3    -0.353663513620E+03   -0.85917E+00   -0.85915E+00 10962   0.183E+01-0.127E-02
CGA:   4    -0.353901503295E+03   -0.23799E+00   -0.23781E+00 10962   0.370E+00-0.220E-02
CGA:   5    -0.353961296064E+03   -0.59793E-01   -0.59728E-01 10962   0.117E+00-0.107E-02
CGA:   6    -0.353980927993E+03   -0.19632E-01   -0.19630E-01 10962   0.375E-01-0.646E-04
CGA:   7    -0.353988639671E+03   -0.77117E-02   -0.77109E-02 10962   0.156E-01-0.619E-04
CGA:   8    -0.353992617488E+03   -0.39778E-02   -0.39883E-02 10962   0.838E-02-0.320E-03
CGA:   9    -0.353994978667E+03   -0.23612E-02   -0.23767E-02 10962   0.495E-02-0.238E-03
CGA:  10    -0.353996335367E+03   -0.13567E-02   -0.13707E-02 10962   0.219E-02-0.243E-03
CGA:  11    -0.353996917256E+03   -0.58189E-03   -0.58613E-03 10962   0.880E-03-0.822E-04
CGA:  12    -0.353997171547E+03   -0.25429E-03   -0.25416E-03 10962   0.406E-03 0.147E-05
CGA:  13    -0.353997312222E+03   -0.14067E-03   -0.13822E-03 10962   0.218E-03 0.233E-04
CGA:  14    -0.353997382926E+03   -0.70705E-04   -0.67777E-04 10962   0.964E-04 0.554E-04
CGA:  15    -0.353997428150E+03   -0.45223E-04   -0.44680E-04 10962   0.529E-04 0.416E-05
CGA:  16    -0.353997443864E+03   -0.15714E-04   -0.15261E-04 10962   0.254E-04 0.170E-04
CGA:  17    -0.353997455887E+03   -0.12022E-04   -0.24447E-04 10962   0.756E-04-0.261E-04
CGA:  18    -0.353997469908E+03   -0.14021E-04   -0.15451E-04 10962   0.123E-04 0.202E-04
CGA:  19    -0.353997481929E+03   -0.12021E-04    0.50456E-05 10962   0.693E-05 0.356E-05
CGA:  20    -0.353997483742E+03   -0.18125E-05   -0.20429E-05 10962   0.534E-05 0.537E-05
 107 F= -.35399748E+03 E0= -.35399748E+03  d E =0.333724E-02  mag=     8.0000
       N       E                     dE             d eps       ncg     rms          ort
SDA:   1    -0.353757945168E+03    0.23954E+00    0.00000E+00 10962   0.671E+00 0.000E+00
CGA:   2    -0.353919422991E+03   -0.16148E+00   -0.16144E+00 10962   0.368E+00-0.531E-03
CGA:   3    -0.353977864626E+03   -0.58442E-01   -0.58436E-01 10962   0.139E+00-0.108E-03
CGA:   4    -0.353997841972E+03   -0.19977E-01   -0.19994E-01 10962   0.332E-01 0.175E-04
CGA:   5    -0.354002861845E+03   -0.50199E-02   -0.50473E-02 10962   0.966E-02 0.818E-04
CGA:   6    -0.354004533226E+03   -0.16714E-02   -0.16938E-02 10962   0.329E-02 0.843E-04
CGA:   7    -0.354005206482E+03   -0.67326E-03   -0.67525E-03 10962   0.134E-02 0.814E-05
CGA:   8    -0.354005531113E+03   -0.32463E-03   -0.32461E-03 10962   0.617E-03-0.637E-06
CGA:   9    -0.354005674917E+03   -0.14380E-03   -0.14839E-03 10962   0.262E-03 0.286E-04
CGA:  10    -0.354005754620E+03   -0.79703E-04   -0.78239E-04 10962   0.117E-03-0.137E-04
CGA:  11    -0.354005781290E+03   -0.26671E-04   -0.27594E-04 10962   0.419E-04 0.666E-05
CGA:  12    -0.354005793775E+03   -0.12485E-04   -0.12621E-04 10962   0.186E-04 0.142E-05
CGA:  13    -0.354005802346E+03   -0.85718E-05   -0.10933E-04 10962   0.305E-04-0.122E-04
 108 F= -.35400580E+03 E0= -.35400580E+03  d E =-.831860E-02  mag=     8.0000
       N       E                     dE             d eps       ncg     rms          ort
SDA:   1    -0.353760437778E+03    0.24536E+00    0.00000E+00 10962   0.660E+00 0.000E+00
CGA:   2    -0.353936259968E+03   -0.17582E+00   -0.17579E+00 10962   0.291E+00-0.680E-03
CGA:   3    -0.353984661090E+03   -0.48401E-01   -0.48407E-01 10962   0.113E+00-0.869E-05
CGA:   4    -0.353999863065E+03   -0.15202E-01   -0.15254E-01 10962   0.240E-01 0.188E-03
CGA:   5    -0.354003568813E+03   -0.37057E-02   -0.37121E-02 10962   0.720E-02 0.252E-04
CGA:   6    -0.354004819643E+03   -0.12508E-02   -0.12467E-02 10962   0.231E-02-0.266E-04
CGA:   7    -0.354005295153E+03   -0.47551E-03   -0.47488E-03 10962   0.971E-03-0.615E-05
CGA:   8    -0.354005548409E+03   -0.25326E-03   -0.25119E-03 10962   0.535E-03-0.331E-04
CGA:   9    -0.354005697605E+03   -0.14920E-03   -0.14857E-03 10962   0.314E-03-0.198E-04
CGA:  10    -0.354005776085E+03   -0.78480E-04   -0.79052E-04 10962   0.124E-03 0.100E-04
CGA:  11    -0.354005815340E+03   -0.39255E-04   -0.39151E-04 10962   0.581E-04-0.110E-04
CGA:  12    -0.354005828643E+03   -0.13303E-04   -0.13656E-04 10962   0.235E-04 0.617E-05
CGA:  13    -0.354005836696E+03   -0.80526E-05   -0.80559E-05 10962   0.124E-04 0.187E-05
 109 F= -.35400584E+03 E0= -.35400584E+03  d E =-.343495E-04  mag=     8.0000
       N       E                     dE             d eps       ncg     rms          ort
SDA:   1    -0.353859542431E+03    0.14629E+00    0.00000E+00 10962   0.433E+00 0.000E+00
CGA:   2    -0.353946593356E+03   -0.87051E-01   -0.87155E-01 10962   0.253E+00 0.654E-03
CGA:   3    -0.353988736987E+03   -0.42144E-01   -0.42105E-01 10962   0.949E-01-0.323E-03
CGA:   4    -0.354001908224E+03   -0.13171E-01   -0.13133E-01 10962   0.215E-01-0.259E-03
CGA:   5    -0.354005074982E+03   -0.31668E-02   -0.31520E-02 10962   0.583E-02-0.107E-03
CGA:   6    -0.354006063568E+03   -0.98859E-03   -0.98915E-03 10962   0.180E-02 0.289E-05
CGA:   7    -0.354006405924E+03   -0.34236E-03   -0.34603E-03 10962   0.604E-03 0.402E-04
CGA:   8    -0.354006548392E+03   -0.14247E-03   -0.14210E-03 10962   0.272E-03-0.803E-05
CGA:   9    -0.354006624036E+03   -0.75644E-04   -0.75813E-04 10962   0.154E-03-0.233E-04
CGA:  10    -0.354006661925E+03   -0.37889E-04   -0.37853E-04 10962   0.666E-04-0.525E-05
CGA:  11    -0.354006679191E+03   -0.17266E-04   -0.17271E-04 10962   0.251E-04 0.683E-06
CGA:  12    -0.354006684823E+03   -0.56315E-05   -0.58658E-05 10962   0.948E-05 0.541E-05
 110 F= -.35400668E+03 E0= -.35400668E+03  d E =-.848127E-03  mag=     8.0000
       N       E                     dE             d eps       ncg     rms          ort
SDA:   1    -0.353884492599E+03    0.12219E+00    0.00000E+00 10962   0.335E+00 0.000E+00
CGA:   2    -0.353966241091E+03   -0.81748E-01   -0.81771E-01 10962   0.192E+00 0.720E-03
CGA:   3    -0.353995895226E+03   -0.29654E-01   -0.29633E-01 10962   0.627E-01-0.218E-03
CGA:   4    -0.354004734123E+03   -0.88389E-02   -0.88158E-02 10962   0.141E-01-0.205E-03
CGA:   5    -0.354006927554E+03   -0.21934E-02   -0.21854E-02 10962   0.404E-02-0.834E-04
CGA:   6    -0.354007590845E+03   -0.66329E-03   -0.66668E-03 10962   0.126E-02 0.385E-04
CGA:   7    -0.354007833356E+03   -0.24251E-03   -0.24477E-03 10962   0.427E-03 0.408E-04
CGA:   8    -0.354007939421E+03   -0.10607E-03   -0.10609E-03 10962   0.215E-03 0.636E-05
CGA:   9    -0.354007997247E+03   -0.57826E-04   -0.57706E-04 10962   0.113E-03 0.600E-05
CGA:  10    -0.354008034163E+03   -0.36916E-04   -0.38188E-04 10962   0.680E-04-0.150E-04
CGA:  11    -0.354008048545E+03   -0.14382E-04   -0.14397E-04 10962   0.257E-04 0.298E-05
CGA:  12    -0.354008055250E+03   -0.67055E-05   -0.67045E-05 10962   0.106E-04 0.319E-05
 111 F= -.35400806E+03 E0= -.35400806E+03  d E =-.137043E-02  mag=     8.0000
       N       E                     dE             d eps       ncg     rms          ort
SDA:   1    -0.353889501393E+03    0.11855E+00    0.00000E+00 10962   0.360E+00 0.000E+00
CGA:   2    -0.353956676241E+03   -0.67175E-01   -0.67200E-01 10962   0.210E+00 0.174E-03
CGA:   3    -0.353993669547E+03   -0.36993E-01   -0.36992E-01 10962   0.827E-01-0.736E-04
CGA:   4    -0.354004784643E+03   -0.11115E-01   -0.11120E-01 10962   0.173E-01 0.197E-04
CGA:   5    -0.354007305233E+03   -0.25206E-02   -0.25310E-02 10962   0.483E-02 0.996E-04
CGA:   6    -0.354008133153E+03   -0.82792E-03   -0.83235E-03 10962   0.148E-02 0.626E-04
CGA:   7    -0.354008422904E+03   -0.28975E-03   -0.28996E-03 10962   0.477E-03 0.434E-05
CGA:   8    -0.354008518572E+03   -0.95668E-04   -0.96647E-04 10962   0.172E-03 0.300E-04
CGA:   9    -0.354008558446E+03   -0.39874E-04   -0.40234E-04 10962   0.660E-04 0.272E-04
CGA:  10    -0.354008581072E+03   -0.22626E-04   -0.22811E-04 10962   0.359E-04-0.281E-05
CGA:  11    -0.354008587952E+03   -0.68806E-05   -0.70969E-05 10962   0.133E-04 0.738E-05
 112 F= -.35400859E+03 E0= -.35400859E+03  d E =-.532702E-03  mag=     8.0000
       N       E                     dE             d eps       ncg     rms          ort
SDA:   1    -0.353974695846E+03    0.33885E-01    0.00000E+00 10962   0.905E-01 0.000E+00
CGA:   2    -0.353999025054E+03   -0.24329E-01   -0.24346E-01 10962   0.422E-01-0.530E-03
CGA:   3    -0.354005757799E+03   -0.67327E-02   -0.67359E-02 10962   0.159E-01 0.339E-04
CGA:   4    -0.354007910349E+03   -0.21525E-02   -0.21675E-02 10962   0.355E-02 0.150E-03
CGA:   5    -0.354008443602E+03   -0.53325E-03   -0.53745E-03 10962   0.105E-02 0.534E-04
CGA:   6    -0.354008632128E+03   -0.18853E-03   -0.18826E-03 10962   0.333E-03-0.599E-05
CGA:   7    -0.354008703738E+03   -0.71610E-04   -0.71546E-04 10962   0.146E-03-0.130E-04
CGA:   8    -0.354008740982E+03   -0.37245E-04   -0.38509E-04 10962   0.895E-04-0.239E-04
CGA:   9    -0.354008762077E+03   -0.21095E-04   -0.22589E-04 10962   0.568E-04-0.191E-04
CGA:  10    -0.354008771194E+03   -0.91172E-05   -0.92124E-05 10962   0.187E-04 0.450E-05
 113 F= -.35400877E+03 E0= -.35400877E+03  d E =-.183242E-03  mag=     8.0000
