Automatically generated mesh
      52
Reciprocal lattice
    0.00000000000000    0.00000000000000    0.00000000000000             1
    0.16666666666667    0.00000000000000    0.00000000000001             2
    0.33333333333333   -0.00000000000000    0.00000000000000             2
    0.50000000000000   -0.00000000000000   -0.00000000000000             1
    0.00000000000000    0.25000000000000    0.00000000000000             2
    0.16666666666667    0.25000000000000    0.00000000000001             2
    0.33333333333333    0.25000000000000    0.00000000000000             2
    0.50000000000000    0.25000000000000   -0.00000000000000             2
   -0.33333333333333    0.25000000000000   -0.00000000000000             2
   -0.16666666666667    0.25000000000000    0.00000000000000             2
    0.00000000000000    0.50000000000000    0.00000000000000             1
    0.16666666666667    0.50000000000000   -0.00000000000000             2
    0.33333333333333    0.50000000000000   -0.00000000000001             2
    0.50000000000000    0.50000000000000   -0.00000000000000             1
    0.00000000000000    0.00000000000000    0.25000000000000             2
    0.16666666666667    0.00000000000000    0.25000000000001             2
    0.33333333333333   -0.00000000000000    0.25000000000000             2
    0.50000000000000   -0.00000000000000    0.25000000000000             2
   -0.33333333333333    0.00000000000000    0.25000000000001             2
   -0.16666666666667   -0.00000000000000    0.24999999999999             2
    0.00000000000000    0.25000000000000    0.25000000000000             2
    0.16666666666667    0.25000000000000    0.25000000000000             2
    0.33333333333333    0.25000000000000    0.24999999999999             2
    0.50000000000000    0.25000000000000    0.25000000000000             2
   -0.33333333333333    0.25000000000000    0.25000000000000             2
   -0.16666666666667    0.25000000000000    0.24999999999999             2
    0.00000000000000    0.50000000000000    0.25000000000000             2
    0.16666666666667    0.50000000000000    0.25000000000001             2
    0.33333333333333    0.50000000000000    0.25000000000000             2
    0.50000000000000    0.50000000000000    0.25000000000000             2
   -0.33333333333333    0.50000000000000    0.25000000000000             2
   -0.16666666666667    0.50000000000000    0.25000000000000             2
    0.00000000000000   -0.25000000000000    0.25000000000000             2
    0.16666666666667   -0.25000000000000    0.25000000000001             2
    0.33333333333333   -0.25000000000000    0.25000000000000             2
    0.50000000000000   -0.25000000000000    0.25000000000000             2
   -0.33333333333333   -0.25000000000000    0.25000000000000             2
   -0.16666666666667   -0.25000000000000    0.24999999999999             2
    0.00000000000000    0.00000000000000    0.50000000000000             1
    0.16666666666667    0.00000000000000    0.50000000000000             2
    0.33333333333333   -0.00000000000000    0.50000000000000             2
    0.50000000000000   -0.00000000000000    0.50000000000000             1
    0.00000000000000    0.25000000000000    0.50000000000000             2
    0.16666666666667    0.25000000000000    0.50000000000001             2
    0.33333333333333    0.25000000000000    0.50000000000000             2
    0.50000000000000    0.25000000000000    0.50000000000000             2
   -0.33333333333333    0.25000000000000    0.50000000000000             2
   -0.16666666666667    0.25000000000000    0.49999999999999             2
    0.00000000000000    0.50000000000000    0.50000000000000             1
    0.16666666666667    0.50000000000000    0.50000000000001             2
    0.33333333333333    0.50000000000000    0.50000000000000             2
    0.50000000000000    0.50000000000000    0.50000000000000             1
