 running on   64 total cores
 distrk:  each k-point on   64 cores,    1 groups
 distr:  one band on   16 cores,    4 groups
 using from now: INCAR     
 vasp.6.1.2 22Jul20 (build Apr 14 2021 21:39:43) complex                        
  
 POSCAR found type information on POSCAR CrP O 
 POSCAR found :  3 types and      36 ions
 scaLAPACK will be used
 LDA part: xc-table for Pade appr. of Perdew


 VERY BAD NEWS! internal error in subroutine IBZKPT:
 Reciprocal lattice and k-lattice belong to different class of lattices. Often results are still useful...      96


 VERY BAD NEWS! internal error in subroutine IBZKPT:
 Reciprocal lattice and k-lattice belong to different class of lattices. Often results are still useful...      96


 VERY BAD NEWS! internal error in subroutine IBZKPT:
 Reciprocal lattice and k-lattice belong to different class of lattices. Often results are still useful...      96


 VERY BAD NEWS! internal error in subroutine IBZKPT:
 Reciprocal lattice and k-lattice belong to different class of lattices. Often results are still useful...      96


 VERY BAD NEWS! internal error in subroutine IBZKPT:
 Reciprocal lattice and k-lattice belong to different class of lattices. Often results are still useful...      96


 VERY BAD NEWS! internal error in subroutine IBZKPT:
 Reciprocal lattice and k-lattice belong to different class of lattices. Often results are still useful...      96


 VERY BAD NEWS! internal error in subroutine IBZKPT:
 Reciprocal lattice and k-lattice belong to different class of lattices. Often results are still useful...      96


 VERY BAD NEWS! internal error in subroutine IBZKPT:
 Reciprocal lattice and k-lattice belong to different class of lattices. Often results are still useful...      96


 VERY BAD NEWS! internal error in subroutine IBZKPT:
 Reciprocal lattice and k-lattice belong to different class of lattices. Often results are still useful...      96


 VERY BAD NEWS! internal error in subroutine IBZKPT:
 Reciprocal lattice and k-lattice belong to different class of lattices. Often results are still useful...      96


 VERY BAD NEWS! internal error in subroutine IBZKPT:
 Reciprocal lattice and k-lattice belong to different class of lattices. Often results are still useful...      96


 VERY BAD NEWS! internal error in subroutine IBZKPT:
 Reciprocal lattice and k-lattice belong to different class of lattices. Often results are still useful...      96
 generate k-points for:    6    4    4


 VERY BAD NEWS! internal error in subroutine IBZKPT:
 Reciprocal lattice and k-lattice belong to different class of lattices. Often results are still useful...      96


 VERY BAD NEWS! internal error in subroutine IBZKPT:
 Reciprocal lattice and k-lattice belong to different class of lattices. Often results are still useful...      96


 VERY BAD NEWS! internal error in subroutine IBZKPT:
 Reciprocal lattice and k-lattice belong to different class of lattices. Often results are still useful...      96


 VERY BAD NEWS! internal error in subroutine IBZKPT:
 Reciprocal lattice and k-lattice belong to different class of lattices. Often results are still useful...      96


 VERY BAD NEWS! internal error in subroutine IBZKPT:
 Reciprocal lattice and k-lattice belong to different class of lattices. Often results are still useful...      96


 VERY BAD NEWS! internal error in subroutine IBZKPT:
 Reciprocal lattice and k-lattice belong to different class of lattices. Often results are still useful...      96


 VERY BAD NEWS! internal error in subroutine IBZKPT:
 Reciprocal lattice and k-lattice belong to different class of lattices. Often results are still useful...      96


 VERY BAD NEWS! internal error in subroutine IBZKPT:
 Reciprocal lattice and k-lattice belong to different class of lattices. Often results are still useful...      96


 VERY BAD NEWS! internal error in subroutine IBZKPT:
 Reciprocal lattice and k-lattice belong to different class of lattices. Often results are still useful...      96


 VERY BAD NEWS! internal error in subroutine IBZKPT:
 Reciprocal lattice and k-lattice belong to different class of lattices. Often results are still useful...      96


 VERY BAD NEWS! internal error in subroutine IBZKPT:
 Reciprocal lattice and k-lattice belong to different class of lattices. Often results are still useful...      96


 VERY BAD NEWS! internal error in subroutine IBZKPT:
 Reciprocal lattice and k-lattice belong to different class of lattices. Often results are still useful...      96


 VERY BAD NEWS! internal error in subroutine IBZKPT:
 Reciprocal lattice and k-lattice belong to different class of lattices. Often results are still useful...      96


 VERY BAD NEWS! internal error in subroutine IBZKPT:
 Reciprocal lattice and k-lattice belong to different class of lattices. Often results are still useful...      96


 VERY BAD NEWS! internal error in subroutine IBZKPT:
 Reciprocal lattice and k-lattice belong to different class of lattices. Often results are still useful...      96


 VERY BAD NEWS! internal error in subroutine IBZKPT:
 Reciprocal lattice and k-lattice belong to different class of lattices. Often results are still useful...      96


 VERY BAD NEWS! internal error in subroutine IBZKPT:
 Reciprocal lattice and k-lattice belong to different class of lattices. Often results are still useful...      96


 VERY BAD NEWS! internal error in subroutine IBZKPT:
 Reciprocal lattice and k-lattice belong to different class of lattices. Often results are still useful...      96


 VERY BAD NEWS! internal error in subroutine IBZKPT:
 Reciprocal lattice and k-lattice belong to different class of lattices. Often results are still useful...      96


 VERY BAD NEWS! internal error in subroutine IBZKPT:
 Reciprocal lattice and k-lattice belong to different class of lattices. Often results are still useful...      96


 VERY BAD NEWS! internal error in subroutine IBZKPT:
 Reciprocal lattice and k-lattice belong to different class of lattices. Often results are still useful...      96


 VERY BAD NEWS! internal error in subroutine IBZKPT:
 Reciprocal lattice and k-lattice belong to different class of lattices. Often results are still useful...      96


 VERY BAD NEWS! internal error in subroutine IBZKPT:
 Reciprocal lattice and k-lattice belong to different class of lattices. Often results are still useful...      96


 VERY BAD NEWS! internal error in subroutine IBZKPT:
 Reciprocal lattice and k-lattice belong to different class of lattices. Often results are still useful...      96


 VERY BAD NEWS! internal error in subroutine IBZKPT:
 Reciprocal lattice and k-lattice belong to different class of lattices. Often results are still useful...      96


 VERY BAD NEWS! internal error in subroutine IBZKPT:
 Reciprocal lattice and k-lattice belong to different class of lattices. Often results are still useful...      96


 VERY BAD NEWS! internal error in subroutine IBZKPT:
 Reciprocal lattice and k-lattice belong to different class of lattices. Often results are still useful...      96


 VERY BAD NEWS! internal error in subroutine IBZKPT:
 Reciprocal lattice and k-lattice belong to different class of lattices. Often results are still useful...      96


 VERY BAD NEWS! internal error in subroutine IBZKPT:
 Reciprocal lattice and k-lattice belong to different class of lattices. Often results are still useful...      96


 VERY BAD NEWS! internal error in subroutine IBZKPT:
 Reciprocal lattice and k-lattice belong to different class of lattices. Often results are still useful...      96


 VERY BAD NEWS! internal error in subroutine IBZKPT:
 Reciprocal lattice and k-lattice belong to different class of lattices. Often results are still useful...      96


 VERY BAD NEWS! internal error in subroutine IBZKPT:
 Reciprocal lattice and k-lattice belong to different class of lattices. Often results are still useful...      96


 VERY BAD NEWS! internal error in subroutine IBZKPT:
 Reciprocal lattice and k-lattice belong to different class of lattices. Often results are still useful...      96


 VERY BAD NEWS! internal error in subroutine IBZKPT:
 Reciprocal lattice and k-lattice belong to different class of lattices. Often results are still useful...      96


 VERY BAD NEWS! internal error in subroutine IBZKPT:
 Reciprocal lattice and k-lattice belong to different class of lattices. Often results are still useful...      96


 VERY BAD NEWS! internal error in subroutine IBZKPT:
 Reciprocal lattice and k-lattice belong to different class of lattices. Often results are still useful...      96


 VERY BAD NEWS! internal error in subroutine IBZKPT:
 Reciprocal lattice and k-lattice belong to different class of lattices. Often results are still useful...      96


 VERY BAD NEWS! internal error in subroutine IBZKPT:
 Reciprocal lattice and k-lattice belong to different class of lattices. Often results are still useful...      96


 VERY BAD NEWS! internal error in subroutine IBZKPT:
 Reciprocal lattice and k-lattice belong to different class of lattices. Often results are still useful...      96


 VERY BAD NEWS! internal error in subroutine IBZKPT:
 Reciprocal lattice and k-lattice belong to different class of lattices. Often results are still useful...      96


 VERY BAD NEWS! internal error in subroutine IBZKPT:
 Reciprocal lattice and k-lattice belong to different class of lattices. Often results are still useful...      96


 VERY BAD NEWS! internal error in subroutine IBZKPT:
 Reciprocal lattice and k-lattice belong to different class of lattices. Often results are still useful...      96


 VERY BAD NEWS! internal error in subroutine IBZKPT:
 Reciprocal lattice and k-lattice belong to different class of lattices. Often results are still useful...      96


 VERY BAD NEWS! internal error in subroutine IBZKPT:
 Reciprocal lattice and k-lattice belong to different class of lattices. Often results are still useful...      96


 VERY BAD NEWS! internal error in subroutine IBZKPT:
 Reciprocal lattice and k-lattice belong to different class of lattices. Often results are still useful...      96


 VERY BAD NEWS! internal error in subroutine IBZKPT:
 Reciprocal lattice and k-lattice belong to different class of lattices. Often results are still useful...      96


 VERY BAD NEWS! internal error in subroutine IBZKPT:
 Reciprocal lattice and k-lattice belong to different class of lattices. Often results are still useful...      96


 VERY BAD NEWS! internal error in subroutine IBZKPT:
 Reciprocal lattice and k-lattice belong to different class of lattices. Often results are still useful...      96


 VERY BAD NEWS! internal error in subroutine IBZKPT:
 Reciprocal lattice and k-lattice belong to different class of lattices. Often results are still useful...      96


 VERY BAD NEWS! internal error in subroutine IBZKPT:
 Reciprocal lattice and k-lattice belong to different class of lattices. Often results are still useful...      96


 VERY BAD NEWS! internal error in subroutine IBZKPT:
 Reciprocal lattice and k-lattice belong to different class of lattices. Often results are still useful...      96


 VERY BAD NEWS! internal error in subroutine IBZKPT:
 Reciprocal lattice and k-lattice belong to different class of lattices. Often results are still useful...      96
 POSCAR, INCAR and KPOINTS ok, starting setup
 FFT: planning ...
 WAVECAR not read
 entering main loop
       N       E                     dE             d eps       ncg     rms          rms(c)
DAV:   1     0.268569130491E+04    0.26857E+04   -0.13432E+05 34688   0.160E+03
DAV:   2    -0.214965973169E+03   -0.29007E+04   -0.27205E+04 36168   0.456E+02
DAV:   3    -0.517478761145E+03   -0.30251E+03   -0.29801E+03 36328   0.165E+02
DAV:   4    -0.526068090787E+03   -0.85893E+01   -0.85114E+01 41208   0.283E+01
DAV:   5    -0.526372002325E+03   -0.30391E+00   -0.30351E+00 45984   0.475E+00    0.784E+01
DAV:   6    -0.407814885983E+03    0.11856E+03   -0.20819E+02 44584   0.556E+01    0.467E+01
DAV:   7    -0.410839951955E+03   -0.30251E+01   -0.35280E+01 42528   0.217E+01    0.318E+01
DAV:   8    -0.412373639479E+03   -0.15337E+01   -0.16262E+00 39824   0.488E+00    0.155E+01
DAV:   9    -0.412777838088E+03   -0.40420E+00   -0.60298E-01 43800   0.343E+00    0.430E+00
DAV:  10    -0.412744322460E+03    0.33516E-01   -0.12609E-01 39784   0.121E+00    0.212E+00
DAV:  11    -0.412794084376E+03   -0.49762E-01   -0.24271E-02 43192   0.619E-01    0.119E+00
DAV:  12    -0.412781224189E+03    0.12860E-01   -0.58097E-03 37624   0.322E-01    0.582E-01
DAV:  13    -0.412793045576E+03   -0.11821E-01   -0.10564E-03 41112   0.150E-01    0.331E-01
DAV:  14    -0.412793131181E+03   -0.85605E-04   -0.35460E-04 37272   0.688E-02    0.157E-01
DAV:  15    -0.412791429656E+03    0.17015E-02   -0.11870E-04 37856   0.454E-02    0.696E-02
DAV:  16    -0.412792427639E+03   -0.99798E-03   -0.25500E-05 27136   0.179E-02    0.270E-02
DAV:  17    -0.412792398459E+03    0.29181E-04   -0.11217E-05 21680   0.151E-02    0.131E-02
DAV:  18    -0.412792217197E+03    0.18126E-03   -0.10755E-05 21608   0.102E-02    0.879E-03
DAV:  19    -0.412792298810E+03   -0.81612E-04   -0.16467E-06 20808   0.460E-03    0.445E-03
DAV:  20    -0.412792240192E+03    0.58618E-04   -0.98652E-07 21352   0.422E-03    0.283E-03
DAV:  21    -0.412792258436E+03   -0.18244E-04   -0.66353E-07 20144   0.254E-03    0.170E-03
DAV:  22    -0.412792250761E+03    0.76752E-05   -0.10061E-07 19288   0.144E-03
   1 F= -.41279225E+03 E0= -.41279225E+03  d E =-.412792E+03  mag=    18.0000
 curvature:   0.00 expect dE= 0.000E+00 dE for cont linesearch  0.000E+00
 trial: gam= 0.00000 g(F)=  0.174E+00 g(S)=  0.121E+00 ort = 0.000E+00 (trialstep = 0.100E+01)
 search vector abs. value=  0.295E+00
 bond charge predicted
       N       E                     dE             d eps       ncg     rms          rms(c)
DAV:   1    -0.413080457746E+03   -0.28820E+00   -0.46860E+01 40384   0.364E+01    0.890E+00
DAV:   2    -0.412738861385E+03    0.34160E+00   -0.40014E+00 34960   0.812E+00    0.379E+00
DAV:   3    -0.412698416483E+03    0.40445E-01   -0.40263E-01 38864   0.202E+00    0.204E+00
DAV:   4    -0.412676504595E+03    0.21912E-01   -0.35320E-02 37120   0.764E-01    0.120E+00
DAV:   5    -0.412675222897E+03    0.12817E-02   -0.63611E-03 37672   0.266E-01    0.722E-01
DAV:   6    -0.412676206181E+03   -0.98328E-03   -0.29281E-03 36688   0.184E-01    0.389E-01
DAV:   7    -0.412676003085E+03    0.20310E-03   -0.42682E-04 38184   0.755E-02    0.167E-01
DAV:   8    -0.412675274888E+03    0.72820E-03   -0.86668E-05 39968   0.479E-02    0.986E-02
DAV:   9    -0.412675666541E+03   -0.39165E-03   -0.75773E-05 36336   0.301E-02    0.487E-02
DAV:  10    -0.412675439257E+03    0.22728E-03   -0.65535E-06 21768   0.134E-02    0.259E-02
DAV:  11    -0.412675470920E+03   -0.31663E-04   -0.11527E-05 20984   0.114E-02    0.133E-02
DAV:  12    -0.412675544228E+03   -0.73308E-04   -0.18809E-06 20016   0.560E-03    0.482E-03
DAV:  13    -0.412675516966E+03    0.27262E-04   -0.49775E-07 19136   0.267E-03    0.264E-03
DAV:  14    -0.412675520919E+03   -0.39521E-05   -0.12092E-07 19136   0.125E-03
   2 F= -.41267552E+03 E0= -.41267552E+03  d E =0.116730E+00  mag=    18.0000
 trial-energy change:    0.116730  1 .order    0.104104   -0.294863    0.503071
 step:   0.3480(harm=  0.3695)  dis= 0.01142  next Energy=  -412.843024 (dE=-0.508E-01)
 bond charge predicted
       N       E                     dE             d eps       ncg     rms          rms(c)
DAV:   1    -0.413038386326E+03   -0.36287E+00   -0.19644E+01 40088   0.234E+01    0.595E+00
DAV:   2    -0.412889570590E+03    0.14882E+00   -0.16437E+00 34936   0.501E+00    0.218E+00
DAV:   3    -0.412845847090E+03    0.43723E-01   -0.18521E-01 38768   0.139E+00    0.115E+00
DAV:   4    -0.412845204434E+03    0.64266E-03   -0.12283E-02 37088   0.435E-01    0.672E-01
DAV:   5    -0.412843977476E+03    0.12270E-02   -0.22179E-03 36968   0.152E-01    0.384E-01
DAV:   6    -0.412843180228E+03    0.79725E-03   -0.11124E-03 38264   0.107E-01    0.205E-01
DAV:   7    -0.412843238088E+03   -0.57860E-04   -0.20051E-04 38968   0.505E-02    0.109E-01
DAV:   8    -0.412843527025E+03   -0.28894E-03   -0.26213E-05 27096   0.281E-02    0.622E-02
DAV:   9    -0.412843264628E+03    0.26240E-03   -0.47039E-05 34208   0.243E-02    0.291E-02
DAV:  10    -0.412843378059E+03   -0.11343E-03   -0.37368E-06 20384   0.104E-02    0.141E-02
DAV:  11    -0.412843384373E+03   -0.63133E-05   -0.76748E-06 20048   0.101E-02
   3 F= -.41284338E+03 E0= -.41284338E+03  d E =-.511336E-01  mag=    18.0000
 curvature:  -0.18 expect dE=-0.102E-01 dE for cont linesearch -0.348E-05
 trial: gam= 0.17930 g(F)=  0.497E-01 g(S)=  0.553E-02 ort = 0.236E-02 (trialstep = 0.870E+00)
 search vector abs. value=  0.656E-01
 bond charge predicted
       N       E                     dE             d eps       ncg     rms          rms(c)
DAV:   1    -0.412832848261E+03    0.10530E-01   -0.11768E+01 37472   0.167E+01    0.300E+00
DAV:   2    -0.412853279291E+03   -0.20431E-01   -0.77895E-01 34944   0.331E+00    0.181E+00
DAV:   3    -0.412840102915E+03    0.13176E-01   -0.50414E-02 38576   0.120E+00    0.101E+00
DAV:   4    -0.412839985624E+03    0.11729E-03   -0.90861E-03 37664   0.359E-01    0.472E-01
DAV:   5    -0.412839979348E+03    0.62763E-05   -0.21310E-03 41112   0.190E-01    0.384E-01
DAV:   6    -0.412839772094E+03    0.20725E-03   -0.40115E-04 36928   0.804E-02    0.272E-01
DAV:   7    -0.412839661955E+03    0.11014E-03   -0.96575E-05 37736   0.419E-02    0.129E-01
DAV:   8    -0.412839708724E+03   -0.46769E-04   -0.51670E-05 35920   0.413E-02    0.411E-02
DAV:   9    -0.412839598138E+03    0.11059E-03   -0.14499E-05 24296   0.158E-02    0.175E-02
DAV:  10    -0.412839619440E+03   -0.21303E-04   -0.88435E-06 20376   0.105E-02    0.121E-02
DAV:  11    -0.412839620897E+03   -0.14571E-05   -0.20415E-06 19608   0.603E-03
   4 F= -.41283962E+03 E0= -.41283962E+03  d E =0.376348E-02  mag=    18.0000
 trial-energy change:    0.003763  1 .order    0.005115   -0.048394    0.058624
 step:   0.4097(harm=  0.3932)  dis= 0.00468  next Energy=  -412.854925 (dE=-0.115E-01)
 bond charge predicted
       N       E                     dE             d eps       ncg     rms          rms(c)
DAV:   1    -0.412856679988E+03   -0.17061E-01   -0.32825E+00 37448   0.885E+00    0.156E+00
DAV:   2    -0.412859592357E+03   -0.29124E-02   -0.21340E-01 34944   0.177E+00    0.923E-01
DAV:   3    -0.412857731927E+03    0.18604E-02   -0.14300E-02 38456   0.607E-01    0.521E-01
DAV:   4    -0.412855350133E+03    0.23818E-02   -0.24376E-03 37656   0.182E-01    0.243E-01
DAV:   5    -0.412854869270E+03    0.48086E-03   -0.60846E-04 41544   0.101E-01    0.198E-01
DAV:   6    -0.412854949098E+03   -0.79829E-04   -0.10770E-04 36584   0.414E-02    0.140E-01
DAV:   7    -0.412854974534E+03   -0.25436E-04   -0.22581E-05 26048   0.216E-02    0.649E-02
DAV:   8    -0.412854920536E+03    0.53998E-04   -0.15192E-05 22744   0.223E-02    0.211E-02
DAV:   9    -0.412854987977E+03   -0.67440E-04   -0.50687E-06 20384   0.916E-03    0.956E-03
DAV:  10    -0.412854972563E+03    0.15414E-04   -0.31553E-06 19584   0.618E-03    0.585E-03
DAV:  11    -0.412854972323E+03    0.23997E-06   -0.64896E-07 19136   0.301E-03
   5 F= -.41285497E+03 E0= -.41285497E+03  d E =-.115880E-01  mag=    18.0000
 curvature:  -0.23 expect dE=-0.400E-02 dE for cont linesearch -0.139E-04
 trial: gam= 0.34683 g(F)=  0.162E-01 g(S)=  0.111E-02 ort =-0.198E-02 (trialstep = 0.778E+00)
 search vector abs. value=  0.238E-01
 bond charge predicted
       N       E                     dE             d eps       ncg     rms          rms(c)
DAV:   1    -0.412848385059E+03    0.65875E-02   -0.33135E+00 37696   0.858E+00    0.115E+00
DAV:   2    -0.412859414759E+03   -0.11030E-01   -0.18733E-01 34952   0.153E+00    0.743E-01
DAV:   3    -0.412856480207E+03    0.29346E-02   -0.73675E-03 38200   0.409E-01    0.378E-01
DAV:   4    -0.412857809095E+03   -0.13289E-02   -0.11951E-03 37360   0.129E-01    0.259E-01
DAV:   5    -0.412857763352E+03    0.45743E-04   -0.28300E-04 39048   0.585E-02    0.232E-01
DAV:   6    -0.412857672714E+03    0.90638E-04   -0.35425E-05 30864   0.282E-02    0.176E-01
DAV:   7    -0.412857515250E+03    0.15746E-03   -0.79290E-05 35456   0.387E-02    0.502E-02
DAV:   8    -0.412857602729E+03   -0.87479E-04   -0.21252E-05 24728   0.243E-02    0.188E-02
DAV:   9    -0.412857561382E+03    0.41346E-04   -0.13116E-05 20384   0.125E-02    0.892E-03
DAV:  10    -0.412857564988E+03   -0.36056E-05   -0.31925E-06 19184   0.631E-03
   6 F= -.41285756E+03 E0= -.41285756E+03  d E =-.259267E-02  mag=    18.0000
 trial-energy change:   -0.002593  1 .order   -0.002308   -0.012911    0.008294
 step:   0.4881(harm=  0.4735)  dis= 0.00317  next Energy=  -412.859094 (dE=-0.412E-02)
 bond charge predicted
       N       E                     dE             d eps       ncg     rms          rms(c)
DAV:   1    -0.412858050881E+03   -0.48950E-03   -0.45921E-01 37792   0.318E+00    0.430E-01
DAV:   2    -0.412859373108E+03   -0.13222E-02   -0.25685E-02 34952   0.568E-01    0.273E-01
DAV:   3    -0.412859776357E+03   -0.40325E-03   -0.10148E-03 38152   0.152E-01    0.139E-01
DAV:   4    -0.412859029105E+03    0.74725E-03   -0.16770E-04 37240   0.482E-02    0.954E-02
DAV:   5    -0.412859028370E+03    0.73428E-06   -0.37738E-05 32216   0.219E-02    0.848E-02
DAV:   6    -0.412859060058E+03   -0.31687E-04   -0.59946E-06 21160   0.115E-02    0.637E-02
DAV:   7    -0.412859127167E+03   -0.67109E-04   -0.10859E-05 20792   0.145E-02    0.188E-02
DAV:   8    -0.412859066624E+03    0.60542E-04   -0.48863E-06 19552   0.103E-02    0.729E-03
DAV:   9    -0.412859098209E+03   -0.31584E-04   -0.20687E-06 19112   0.524E-03    0.354E-03
DAV:  10    -0.412859091215E+03    0.69932E-05   -0.67270E-07 19112   0.307E-03
   7 F= -.41285909E+03 E0= -.41285909E+03  d E =-.411889E-02  mag=    18.0000
 curvature:  -0.34 expect dE=-0.261E-02 dE for cont linesearch -0.458E-05
 trial: gam= 0.40884 g(F)=  0.762E-02 g(S)=  0.855E-04 ort =-0.568E-03 (trialstep = 0.720E+00)
 search vector abs. value=  0.112E-01
 bond charge predicted
       N       E                     dE             d eps       ncg     rms          rms(c)
DAV:   1    -0.412861902415E+03   -0.28042E-02   -0.16232E+00 34056   0.414E+00    0.484E-01
DAV:   2    -0.412862024524E+03   -0.12211E-03   -0.47270E-02 35080   0.723E-01    0.317E-01
DAV:   3    -0.412862038999E+03   -0.14475E-04   -0.96021E-04 38960   0.123E-01    0.171E-01
DAV:   4    -0.412862244755E+03   -0.20576E-03   -0.18915E-04 36464   0.558E-02    0.127E-01
DAV:   5    -0.412862296040E+03   -0.51285E-04   -0.52761E-05 36448   0.258E-02    0.884E-02
DAV:   6    -0.412862234287E+03    0.61753E-04   -0.22124E-05 25728   0.216E-02    0.557E-02
DAV:   7    -0.412862238051E+03   -0.37635E-05   -0.40218E-05 31472   0.227E-02
   8 F= -.41286224E+03 E0= -.41286224E+03  d E =-.314684E-02  mag=    18.0000
 trial-energy change:   -0.003147  1 .order   -0.003277   -0.005375   -0.001178
 step:   0.9909(harm=  0.9217)  dis= 0.00414  next Energy=  -412.862453 (dE=-0.336E-02)
 bond charge predicted
       N       E                     dE             d eps       ncg     rms          rms(c)
DAV:   1    -0.412862337145E+03   -0.10286E-03   -0.23041E-01 34296   0.156E+00    0.181E-01
DAV:   2    -0.412862136256E+03    0.20089E-03   -0.66213E-03 35120   0.272E-01    0.117E-01
DAV:   3    -0.412862238672E+03   -0.10242E-03   -0.13504E-04 39000   0.462E-02    0.636E-02
DAV:   4    -0.412862358432E+03   -0.11976E-03   -0.23379E-05 24136   0.207E-02    0.484E-02
DAV:   5    -0.412862379753E+03   -0.21321E-04   -0.94088E-06 20456   0.115E-02    0.343E-02
DAV:   6    -0.412862342799E+03    0.36954E-04   -0.64264E-06 20952   0.101E-02    0.215E-02
DAV:   7    -0.412862368117E+03   -0.25318E-04   -0.69671E-06 19808   0.948E-03    0.770E-03
DAV:   8    -0.412862353190E+03    0.14927E-04   -0.18126E-06 19408   0.488E-03    0.331E-03
DAV:   9    -0.412862357522E+03   -0.43318E-05   -0.45522E-07 19136   0.265E-03
   9 F= -.41286236E+03 E0= -.41286236E+03  d E =-.326631E-02  mag=    18.0000
 curvature:  -0.61 expect dE=-0.182E-02 dE for cont linesearch -0.549E-05
 trial: gam= 0.40196 g(F)=  0.265E-02 g(S)=  0.330E-03 ort =-0.318E-03 (trialstep = 0.774E+00)
 search vector abs. value=  0.453E-02
 bond charge predicted
       N       E                     dE             d eps       ncg     rms          rms(c)
DAV:   1    -0.412862689984E+03   -0.33679E-03   -0.69740E-01 34600   0.278E+00    0.454E-01
DAV:   2    -0.412862934081E+03   -0.24410E-03   -0.22100E-02 36904   0.501E-01    0.227E-01
DAV:   3    -0.412863129257E+03   -0.19518E-03   -0.69738E-04 37696   0.117E-01    0.131E-01
DAV:   4    -0.412862921681E+03    0.20758E-03   -0.15485E-04 37016   0.459E-02    0.102E-01
DAV:   5    -0.412863042047E+03   -0.12037E-03   -0.18302E-05 24200   0.170E-02    0.876E-02
DAV:   6    -0.412863036070E+03    0.59766E-05   -0.10660E-05 22344   0.134E-02
  10 F= -.41286304E+03 E0= -.41286304E+03  d E =-.678549E-03  mag=    18.0000
 trial-energy change:   -0.000679  1 .order   -0.000704   -0.002204    0.000795
 step:   0.5688(harm=  0.5688)  dis= 0.00213  next Energy=  -412.863167 (dE=-0.810E-03)
 bond charge predicted
       N       E                     dE             d eps       ncg     rms          rms(c)
DAV:   1    -0.412863142431E+03   -0.10038E-03   -0.49720E-02 34984   0.742E-01    0.123E-01
DAV:   2    -0.412863214832E+03   -0.72401E-04   -0.16628E-03 36656   0.136E-01    0.658E-02
DAV:   3    -0.412863120327E+03    0.94505E-04   -0.47242E-05 35432   0.298E-02    0.362E-02
DAV:   4    -0.412863136198E+03   -0.15871E-04   -0.94083E-06 20296   0.122E-02    0.207E-02
DAV:   5    -0.412863113429E+03    0.22769E-04   -0.31439E-06 19832   0.635E-03    0.178E-02
DAV:   6    -0.412863100283E+03    0.13146E-04   -0.85350E-07 19136   0.384E-03    0.107E-02
DAV:   7    -0.412863123898E+03   -0.23614E-04   -0.91562E-07 19240   0.351E-03    0.389E-03
DAV:   8    -0.412863118802E+03    0.50954E-05   -0.29159E-07 19072   0.229E-03
  11 F= -.41286312E+03 E0= -.41286312E+03  d E =-.761280E-03  mag=    18.0000
 curvature:  -0.45 expect dE=-0.103E-02 dE for cont linesearch -0.716E-06
 trial: gam= 0.74788 g(F)=  0.203E-02 g(S)=  0.240E-03 ort =-0.847E-04 (trialstep = 0.709E+00)
 search vector abs. value=  0.468E-02
 bond charge predicted
       N       E                     dE             d eps       ncg     rms          rms(c)
DAV:   1    -0.412861915294E+03    0.12086E-02   -0.50940E-01 37320   0.324E+00    0.430E-01
DAV:   2    -0.412863409084E+03   -0.14938E-02   -0.25987E-02 34944   0.560E-01    0.266E-01
DAV:   3    -0.412863603065E+03   -0.19398E-03   -0.80069E-04 37784   0.133E-01    0.152E-01
DAV:   4    -0.412863291960E+03    0.31111E-03   -0.17779E-04 36976   0.506E-02    0.107E-01
DAV:   5    -0.412863408311E+03   -0.11635E-03   -0.21772E-05 24768   0.200E-02    0.927E-02
DAV:   6    -0.412863436955E+03   -0.28644E-04   -0.13439E-05 22176   0.160E-02    0.591E-02
DAV:   7    -0.412863360485E+03    0.76470E-04   -0.14670E-05 22288   0.162E-02    0.275E-02
DAV:   8    -0.412863344904E+03    0.15581E-04   -0.96538E-06 20128   0.123E-02    0.933E-03
DAV:   9    -0.412863372488E+03   -0.27584E-04   -0.31088E-06 19296   0.653E-03    0.497E-03
DAV:  10    -0.412863360371E+03    0.12118E-04   -0.58315E-07 19088   0.289E-03    0.268E-03
DAV:  11    -0.412863357655E+03    0.27155E-05   -0.13774E-07 19088   0.159E-03
  12 F= -.41286336E+03 E0= -.41286336E+03  d E =-.238853E-03  mag=    18.0000
 trial-energy change:   -0.000239  1 .order   -0.000198   -0.001568    0.001173
 step:   0.4213(harm=  0.4058)  dis= 0.00134  next Energy=  -412.863593 (dE=-0.474E-03)
 bond charge predicted
       N       E                     dE             d eps       ncg     rms          rms(c)
DAV:   1    -0.412863448477E+03   -0.88107E-04   -0.84016E-02 37344   0.131E+00    0.175E-01
DAV:   2    -0.412863725870E+03   -0.27739E-03   -0.42837E-03 34912   0.227E-01    0.109E-01
DAV:   3    -0.412863528802E+03    0.19707E-03   -0.13188E-04 37728   0.545E-02    0.620E-02
DAV:   4    -0.412863629313E+03   -0.10051E-03   -0.26646E-05 25744   0.206E-02    0.438E-02
DAV:   5    -0.412863581818E+03    0.47495E-04   -0.55795E-06 19896   0.971E-03    0.374E-02
DAV:   6    -0.412863560810E+03    0.21009E-04   -0.25141E-06 19616   0.692E-03    0.247E-02
DAV:   7    -0.412863592631E+03   -0.31822E-04   -0.30446E-06 19536   0.699E-03    0.105E-02
DAV:   8    -0.412863600774E+03   -0.81424E-05   -0.14545E-06 18920   0.490E-03
  13 F= -.41286360E+03 E0= -.41286360E+03  d E =-.481972E-03  mag=    18.0000
 curvature:  -0.43 expect dE=-0.577E-03 dE for cont linesearch -0.822E-06
 trial: gam= 0.62226 g(F)=  0.126E-02 g(S)=  0.888E-04 ort =-0.947E-04 (trialstep = 0.652E+00)
 search vector abs. value=  0.304E-02
 bond charge predicted
       N       E                     dE             d eps       ncg     rms          rms(c)
DAV:   1    -0.412863626226E+03   -0.33594E-04   -0.31386E-01 35424   0.210E+00    0.289E-01
DAV:   2    -0.412863858501E+03   -0.23228E-03   -0.11452E-02 35056   0.357E-01    0.148E-01
DAV:   3    -0.412863959822E+03   -0.10132E-03   -0.42542E-04 39208   0.844E-02    0.835E-02
DAV:   4    -0.412863948068E+03    0.11754E-04   -0.97893E-05 35432   0.370E-02    0.621E-02
DAV:   5    -0.412863974054E+03   -0.25986E-04   -0.12264E-05 20552   0.148E-02    0.554E-02
DAV:   6    -0.412863978169E+03   -0.41148E-05   -0.73800E-06 21400   0.119E-02
  14 F= -.41286398E+03 E0= -.41286398E+03  d E =-.377395E-03  mag=    18.0000
 trial-energy change:   -0.000377  1 .order   -0.000318   -0.000839    0.000204
 step:   0.5531(harm=  0.5243)  dis= 0.00165  next Energy=  -412.863993 (dE=-0.393E-03)
 bond charge predicted
       N       E                     dE             d eps       ncg     rms          rms(c)
DAV:   1    -0.412863956156E+03    0.17898E-04   -0.73936E-03 35984   0.321E-01    0.483E-02
DAV:   2    -0.412864006096E+03   -0.49940E-04   -0.30396E-04 35312   0.578E-02    0.283E-02
DAV:   3    -0.412863972830E+03    0.33266E-04   -0.11227E-05 21832   0.136E-02    0.151E-02
DAV:   4    -0.412863970117E+03    0.27133E-05   -0.31708E-06 19520   0.723E-03    0.821E-03
DAV:   5    -0.412863964197E+03    0.59202E-05   -0.12824E-06 19064   0.394E-03    0.525E-03
DAV:   6    -0.412863963908E+03    0.28896E-06   -0.25316E-07 19064   0.191E-03
  15 F= -.41286396E+03 E0= -.41286396E+03  d E =-.363134E-03  mag=    18.0000
 curvature:  -0.59 expect dE=-0.510E-03 dE for cont linesearch -0.294E-05
 trial: gam= 0.67393 g(F)=  0.780E-03 g(S)=  0.891E-04 ort =-0.123E-03 (trialstep = 0.632E+00)
 search vector abs. value=  0.208E-02
 bond charge predicted
       N       E                     dE             d eps       ncg     rms          rms(c)
DAV:   1    -0.412864037040E+03   -0.72844E-04   -0.19757E-01 35472   0.169E+00    0.255E-01
DAV:   2    -0.412863890842E+03    0.14620E-03   -0.77539E-03 34944   0.318E-01    0.140E-01
DAV:   3    -0.412864007171E+03   -0.11633E-03   -0.28955E-04 37320   0.812E-02    0.795E-02
DAV:   4    -0.412864116351E+03   -0.10918E-03   -0.53523E-05 35200   0.289E-02    0.491E-02
DAV:   5    -0.412864136933E+03   -0.20583E-04   -0.98940E-06 20752   0.117E-02    0.403E-02
DAV:   6    -0.412864125944E+03    0.10989E-04   -0.30302E-06 20632   0.756E-03    0.297E-02
DAV:   7    -0.412864115130E+03    0.10814E-04   -0.44536E-06 20048   0.837E-03    0.115E-02
DAV:   8    -0.412864115770E+03   -0.64004E-06   -0.20176E-06 19608   0.617E-03
  16 F= -.41286412E+03 E0= -.41286412E+03  d E =-.151862E-03  mag=    18.0000
 trial-energy change:   -0.000152  1 .order   -0.000150   -0.000497    0.000196
 step:   0.4531(harm=  0.4531)  dis= 0.00107  next Energy=  -412.864142 (dE=-0.178E-03)
 bond charge predicted
       N       E                     dE             d eps       ncg     rms          rms(c)
DAV:   1    -0.412864124806E+03   -0.96757E-05   -0.15848E-02 35760   0.480E-01    0.729E-02
DAV:   2    -0.412864244710E+03   -0.11990E-03   -0.62432E-04 34936   0.907E-02    0.401E-02
DAV:   3    -0.412864188120E+03    0.56590E-04   -0.21491E-05 26648   0.231E-02    0.227E-02
DAV:   4    -0.412864149407E+03    0.38713E-04   -0.62354E-06 19552   0.979E-03    0.140E-02
DAV:   5    -0.412864142719E+03    0.66889E-05   -0.20950E-06 19032   0.516E-03    0.111E-02
DAV:   6    -0.412864150034E+03   -0.73156E-05   -0.49919E-07 18768   0.278E-03
  17 F= -.41286415E+03 E0= -.41286415E+03  d E =-.186127E-03  mag=    18.0000
 curvature:  -0.60 expect dE=-0.328E-03 dE for cont linesearch -0.557E-07
 trial: gam= 0.52295 g(F)=  0.529E-03 g(S)=  0.170E-04 ort =-0.139E-04 (trialstep = 0.596E+00)
 search vector abs. value=  0.110E-02
 bond charge predicted
       N       E                     dE             d eps       ncg     rms          rms(c)
DAV:   1    -0.412864060579E+03    0.82139E-04   -0.91933E-02 38048   0.146E+00    0.117E-01
DAV:   2    -0.412864311241E+03   -0.25066E-03   -0.45815E-03 34944   0.229E-01    0.607E-02
DAV:   3    -0.412864264305E+03    0.46935E-04   -0.12751E-04 39024   0.463E-02    0.347E-02
DAV:   4    -0.412864301945E+03   -0.37639E-04   -0.12421E-05 21736   0.163E-02    0.210E-02
DAV:   5    -0.412864314422E+03   -0.12477E-04   -0.11636E-05 20112   0.124E-02    0.133E-02
DAV:   6    -0.412864303057E+03    0.11364E-04   -0.22587E-06 19536   0.617E-03    0.917E-03
DAV:   7    -0.412864296026E+03    0.70315E-05   -0.99071E-07 19112   0.409E-03
  18 F= -.41286430E+03 E0= -.41286430E+03  d E =-.145992E-03  mag=    18.0000
 trial-energy change:   -0.000146  1 .order   -0.000197   -0.000321   -0.000073
 step:   0.7726(harm=  0.7726)  dis= 0.00140  next Energy=  -412.864358 (dE=-0.208E-03)
 reached required accuracy - stopping structural energy minimisation
