unknown system                          
           1
     0.000000    0.000000    6.279700
     5.189850    6.422600    3.139850
    -5.189850    6.422600    3.139850
   Cr   P    O 
     6     6    24
Direct configuration=     1
   0.00000000  0.50000000  0.50000000
   0.50000000  0.00000000  0.00000000
   0.88520000  0.61480000  0.11480000
   0.11480000  0.88520000  0.38520000
   0.88520000  0.11480000  0.61480000
   0.11480000  0.38520000  0.88520000
   0.16620000  0.25000000  0.25000000
   0.83380000  0.75000000  0.75000000
   0.67600000  0.82400000  0.32400000
   0.32400000  0.67600000  0.17600000
   0.67600000  0.32400000  0.82400000
   0.32400000  0.17600000  0.67600000
   0.02350000  0.37200000  0.12800000
   0.97650000  0.87200000  0.62800000
   0.97650000  0.62800000  0.87200000
   0.02350000  0.12800000  0.37200000
   0.79620000  0.62930000  0.35070000
   0.20380000  0.64930000  0.37070000
   0.72380000  0.12930000  0.85070000
   0.27620000  0.14930000  0.87070000
   0.20380000  0.37070000  0.64930000
   0.79620000  0.35070000  0.62930000
   0.27620000  0.87070000  0.14930000
   0.72380000  0.85070000  0.12930000
   0.80790000  0.91320000  0.36020000
   0.19210000  0.63980000  0.08680000
   0.41870000  0.41320000  0.86020000
   0.58130000  0.13980000  0.58680000
   0.19210000  0.08680000  0.63980000
   0.80790000  0.36020000  0.91320000
   0.58130000  0.58680000  0.13980000
   0.41870000  0.86020000  0.41320000
   0.19560000  0.34880000  0.34880000
   0.80440000  0.65120000  0.65120000
   0.60680000  0.84880000  0.84880000
   0.39320000  0.15120000  0.15120000
unknown system                          
           1
     0.000000    0.000769    6.326693
     5.227860    6.469266    3.164130
    -5.227860    6.469266    3.164130
   Cr   P    O 
     6     6    24
Direct configuration=     2
   0.00000000  0.50001253  0.49998747
   0.50000000  0.00001132 -0.00001131
   0.88350159  0.61644046  0.11648974
   0.11649841  0.88351026  0.38355954
   0.88351887  0.11650783  0.61642403
   0.11648113  0.38357597  0.88349217
   0.17142997  0.24999704  0.24999653
   0.82857003  0.75000347  0.75000296
   0.67712889  0.82287301  0.32286185
   0.32287111  0.67713816  0.17712699
   0.67711987  0.32288116  0.82285371
   0.32288012  0.17714629  0.67711883
   0.02087851  0.37355670  0.12644825
   0.97912148  0.87355175  0.62644331
   0.97910560  0.62644557  0.87354964
   0.02089439  0.12645036  0.37355443
   0.79521470  0.62926595  0.35151250
   0.20478530  0.64848749  0.37073405
   0.72402040  0.12926948  0.85147845
   0.27597961  0.14852155  0.87073052
   0.20482176  0.37069331  0.64850373
   0.79517824  0.35149627  0.62930670
   0.27596749  0.87068980  0.14853805
   0.72403251  0.85146195  0.12931020
   0.80765638  0.91361984  0.36029820
   0.19234362  0.63970179  0.08638015
   0.41843616  0.41363346  0.86029222
   0.58156385  0.13970777  0.58636654
   0.19232848  0.08637571  0.63970532
   0.80767152  0.36029469  0.91362429
   0.58157996  0.58636206  0.13971137
   0.41842003  0.86028863  0.41363795
   0.19479460  0.34995271  0.34993850
   0.80520540  0.65006149  0.65004729
   0.60531402  0.84996408  0.84994990
   0.39468599  0.15005009  0.15003592
unknown system                          
           1
     0.000000    0.000267    6.296053
     5.203077    6.438839    3.148299
    -5.203077    6.438839    3.148299
   Cr   P    O 
     6     6    24
Direct configuration=     3
   0.00000000  0.50000442  0.49999558
   0.50000000  0.00000399 -0.00000399
   0.88460131  0.61537852  0.11539590
   0.11539869  0.88460410  0.38462149
   0.88460740  0.11540228  0.61537272
   0.11539260  0.38462728  0.88459772
   0.16804511  0.24999916  0.24999898
   0.83195489  0.75000102  0.75000084
   0.67639793  0.82360256  0.32359862
   0.32360207  0.67640138  0.17639744
   0.67639475  0.32360544  0.82359575
   0.32360525  0.17640425  0.67639456
   0.02257515  0.37254900  0.12745255
   0.97742485  0.87254745  0.62745100
   0.97741925  0.62745180  0.87254671
   0.02258075  0.12745329  0.37254820
   0.79585251  0.62928794  0.35098654
   0.20414749  0.64901345  0.37071206
   0.72387787  0.12928923  0.85097458
   0.27612213  0.14902542  0.87071077
   0.20416035  0.37069769  0.64901919
   0.79583965  0.35098082  0.62930231
   0.27611786  0.87069641  0.14903124
   0.72388214  0.85096876  0.12930359
   0.80781413  0.91334807  0.36023462
   0.19218587  0.63976538  0.08665192
   0.41860700  0.41335287  0.86023251
   0.58139301  0.13976749  0.58664712
   0.19218053  0.08665036  0.63976662
   0.80781947  0.36023338  0.91334964
   0.58139869  0.58664554  0.13976876
   0.41860131  0.86023124  0.41335446
   0.19531620  0.34920652  0.34920151
   0.80468380  0.65079849  0.65079347
   0.60627610  0.84921051  0.84920551
   0.39372390  0.15079449  0.15078949
unknown system                          
           1
    -0.000000    0.000268    6.296735
     5.211561    6.459331    3.148639
    -5.211561    6.459331    3.148639
   Cr   P    O 
     6     6    24
Direct configuration=     4
  -0.00000000  0.50001432  0.49998568
   0.50000000  0.00001150 -0.00001150
   0.88364247  0.61604690  0.11626188
   0.11635753  0.88373812  0.38395310
   0.88365157  0.11628024  0.61603751
   0.11634843  0.38396249  0.88371976
   0.16841355  0.24999889  0.24998814
   0.83158645  0.75001185  0.75000111
   0.67613451  0.82391658  0.32391096
   0.32386548  0.67608904  0.17608342
   0.67613791  0.32391082  0.82391681
   0.32386210  0.17608320  0.67608918
   0.02275432  0.37233711  0.12766649
   0.97724568  0.87233351  0.62766289
   0.97722553  0.62766602  0.87233042
   0.02277447  0.12766958  0.37233398
   0.79505076  0.62947252  0.35164957
   0.20494924  0.64835043  0.37052748
   0.72383398  0.12948686  0.85159413
   0.27616603  0.14840587  0.87051313
   0.20498086  0.37049524  0.64836318
   0.79501914  0.35163682  0.62950476
   0.27615455  0.87047965  0.14842052
   0.72384545  0.85157948  0.12952035
   0.80688932  0.91265510  0.35994525
   0.19311069  0.64005475  0.08734490
   0.42047990  0.41268264  0.85994289
   0.57952009  0.14005711  0.58731736
   0.19309812  0.08734716  0.64006270
   0.80690187  0.35993730  0.91265284
   0.57952156  0.58731839  0.14006469
   0.42047844  0.85993531  0.41268161
   0.19472743  0.34963860  0.34962211
   0.80527257  0.65037789  0.65036140
   0.60594022  0.84967417  0.84965545
   0.39405977  0.15034455  0.15032583
unknown system                          
           1
    -0.000000    0.000268    6.296375
     5.207074    6.448493    3.148459
    -5.207074    6.448493    3.148459
   Cr   P    O 
     6     6    24
Direct configuration=     5
  -0.00000000  0.50000909  0.49999091
   0.50000000  0.00000754 -0.00000754
   0.88414832  0.61569458  0.11580522
   0.11585169  0.88419478  0.38430542
   0.88415582  0.11581726  0.61568710
   0.11584418  0.38431290  0.88418274
   0.16821871  0.24999903  0.24999386
   0.83178129  0.75000614  0.75000097
   0.67627331  0.82375102  0.32374628
   0.32372668  0.67625372  0.17624898
   0.67627323  0.32374981  0.82374753
   0.32372677  0.17625247  0.67625018
   0.02265956  0.37244900  0.12755351
   0.97734044  0.87244648  0.62755100
   0.97732798  0.62755290  0.87244463
   0.02267202  0.12755537  0.37244710
   0.79547409  0.62937540  0.35129980
   0.20452592  0.64870020  0.37062460
   0.72385653  0.12938284  0.85126731
   0.27614348  0.14873269  0.87061716
   0.20454762  0.37060179  0.64870924
   0.79545237  0.35129076  0.62939821
   0.27613581  0.87059377  0.14874268
   0.72386419  0.85125732  0.12940623
   0.80737921  0.91302062  0.36009765
   0.19262080  0.63990235  0.08697938
   0.41949018  0.41303617  0.86009543
   0.58050982  0.13990457  0.58696383
   0.19261204  0.08697962  0.63990676
   0.80738796  0.36009324  0.91302038
   0.58051351  0.58696349  0.13990882
   0.41948649  0.86009118  0.41303651
   0.19503812  0.34941079  0.34940036
   0.80496188  0.65059964  0.65058921
   0.60611711  0.84942971  0.84941823
   0.39388289  0.15058177  0.15057029
unknown system                          
           1
    -0.000000    0.000302    6.297668
     5.205243    6.457273    3.149139
    -5.205243    6.457273    3.149139
   Cr   P    O 
     6     6    24
Direct configuration=     6
   0.00000000  0.50001539  0.49998461
   0.50000000  0.00000971 -0.00000971
   0.88362389  0.61598799  0.11626376
   0.11637611  0.88373624  0.38401201
   0.88363110  0.11627150  0.61598317
   0.11636890  0.38401683  0.88372850
   0.16825025  0.24998462  0.24996569
   0.83174975  0.75003432  0.75001538
   0.67663534  0.82340265  0.32339762
   0.32336467  0.67660238  0.17659735
   0.67662417  0.32339225  0.82340867
   0.32337583  0.17659133  0.67660775
   0.02327847  0.37222450  0.12776707
   0.97672153  0.87223293  0.62777550
   0.97668710  0.62778491  0.87222286
   0.02331290  0.12777714  0.37221509
   0.79471190  0.62974472  0.35170507
   0.20528811  0.64829493  0.37025528
   0.72384129  0.12976610  0.85162400
   0.27615871  0.14837600  0.87023390
   0.20532416  0.37022231  0.64830620
   0.79467584  0.35169381  0.62977769
   0.27614367  0.87019972  0.14839115
   0.72385633  0.85160885  0.12980028
   0.80769467  0.91267717  0.36003281
   0.19230533  0.63996719  0.08732283
   0.41966310  0.41270754  0.86000878
   0.58033690  0.13999122  0.58729246
   0.19228607  0.08732457  0.63997818
   0.80771393  0.36002182  0.91267543
   0.58034059  0.58729427  0.14000220
   0.41965941  0.85999780  0.41270573
   0.19455023  0.34935570  0.34933273
   0.80544977  0.65066727  0.65064430
   0.60667887  0.84938161  0.84935729
   0.39332113  0.15064271  0.15061839
unknown system                          
           1
    -0.000000    0.000289    6.297186
     5.205925    6.454004    3.148886
    -5.205925    6.454004    3.148886
   Cr   P    O 
     6     6    24
Direct configuration=     7
   0.00000000  0.50001304  0.49998695
   0.50000000  0.00000890 -0.00000890
   0.88381895  0.61587894  0.11609321
   0.11618105  0.88390679  0.38412106
   0.88382627  0.11610255  0.61587313
   0.11617373  0.38412687  0.88389745
   0.16823852  0.24998997  0.24997617
   0.83176148  0.75002384  0.75001003
   0.67650072  0.82353219  0.32352727
   0.32349928  0.67647273  0.17646781
   0.67649368  0.32352521  0.82353466
   0.32350632  0.17646534  0.67647479
   0.02304808  0.37230811  0.12768752
   0.97695192  0.87231248  0.62769189
   0.97692567  0.62769850  0.87230546
   0.02307433  0.12769454  0.37230150
   0.79499547  0.62960740  0.35155437
   0.20500454  0.64844563  0.37039260
   0.72384681  0.12962358  0.85149138
   0.27615320  0.14850862  0.87037642
   0.20503525  0.37036341  0.64845607
   0.79496475  0.35154393  0.62963659
   0.27614090  0.87034626  0.14852185
   0.72385909  0.85147815  0.12965374
   0.80757732  0.91280497  0.36005683
   0.19242268  0.63994317  0.08719503
   0.41959882  0.41282981  0.86004092
   0.58040118  0.13995908  0.58717019
   0.19240733  0.08719622  0.63995171
   0.80759267  0.36004829  0.91280378
   0.58040487  0.58717120  0.13996756
   0.41959513  0.86003245  0.41282880
   0.19473188  0.34937618  0.34935788
   0.80526812  0.65064212  0.65062382
   0.60646977  0.84939949  0.84937996
   0.39353023  0.15062004  0.15060051
unknown system                          
           1
     0.000000    0.000226    6.297179
     5.204537    6.458498    3.148815
    -5.204537    6.458498    3.148815
   Cr   P    O 
     6     6    24
Direct configuration=     8
   0.00000000  0.50001312  0.49998688
   0.50000000  0.00000799 -0.00000799
   0.88389211  0.61577106  0.11604901
   0.11610789  0.88395098  0.38422894
   0.88390431  0.11605182  0.61576907
   0.11609569  0.38423093  0.88394818
   0.16828844  0.24999654  0.24997156
   0.83171156  0.75002844  0.75000346
   0.67651148  0.82357705  0.32356923
   0.32348851  0.67643077  0.17642295
   0.67650353  0.32355924  0.82358752
   0.32349648  0.17641248  0.67644076
   0.02341979  0.37248754  0.12746904
   0.97658021  0.87253096  0.62751246
   0.97653861  0.62752448  0.87251800
   0.02346139  0.12748201  0.37247551
   0.79459433  0.62959199  0.35188562
   0.20540568  0.64811438  0.37040801
   0.72390161  0.12962184  0.85177435
   0.27609839  0.14822565  0.87037816
   0.20544282  0.37037521  0.64812614
   0.79455717  0.35187386  0.62962479
   0.27608006  0.87034318  0.14824080
   0.72391994  0.85175920  0.12965682
   0.80820697  0.91245210  0.36000215
   0.19179303  0.63999785  0.08754790
   0.41944088  0.41252327  0.85997011
   0.58055912  0.14002989  0.58747673
   0.19177380  0.08755085  0.64001446
   0.80822620  0.35998554  0.91244915
   0.58055887  0.58747911  0.14004663
   0.41944113  0.85995337  0.41252089
   0.19428904  0.34934846  0.34931694
   0.80571096  0.65068306  0.65065153
   0.60691830  0.84938608  0.84935030
   0.39308170  0.15064971  0.15061392
unknown system                          
           1
     0.000000    0.000202    6.297177
     5.204014    6.460191    3.148788
    -5.204014    6.460191    3.148788
   Cr   P    O 
     6     6    24
Direct configuration=     9
   0.00000000  0.50001314  0.49998686
   0.50000000  0.00000764 -0.00000764
   0.88391966  0.61573043  0.11603239
   0.11608034  0.88396761  0.38426957
   0.88393370  0.11603273  0.61572988
   0.11606630  0.38427012  0.88396727
   0.16830726  0.24999901  0.24996982
   0.83169275  0.75003017  0.75000099
   0.67651555  0.82359394  0.32358503
   0.32348444  0.67641497  0.17640606
   0.67650725  0.32357205  0.82360743
   0.32349275  0.17639258  0.67642795
   0.02355985  0.37255517  0.12738670
   0.97644015  0.87261330  0.62744483
   0.97639277  0.62745889  0.87259809
   0.02360723  0.12740191  0.37254111
   0.79444322  0.62958612  0.35201041
   0.20555678  0.64798959  0.37041388
   0.72392230  0.12962113  0.85188095
   0.27607770  0.14811905  0.87037887
   0.20559636  0.37037972  0.64800185
   0.79440364  0.35199815  0.62962028
   0.27605709  0.87034208  0.14813492
   0.72394290  0.85186508  0.12965792
   0.80844417  0.91231918  0.35998161
   0.19155583  0.64001838  0.08768083
   0.41938132  0.41240780  0.85994348
   0.58061868  0.14005652  0.58759220
   0.19153514  0.08768443  0.64003803
   0.80846486  0.35996197  0.91231556
   0.58061695  0.58759509  0.14007637
   0.41938306  0.85992363  0.41240491
   0.19412216  0.34933803  0.34930152
   0.80587784  0.65069848  0.65066197
   0.60708730  0.84938104  0.84933912
   0.39291270  0.15066088  0.15061897
unknown system                          
           1
    -0.000000    0.000514    6.298707
     5.201728    6.460320    3.149870
    -5.201728    6.460320    3.149870
   Cr   P    O 
     6     6    24
Direct configuration=    10
   0.00000000  0.50000756  0.49999243
   0.50000000  0.00000324 -0.00000324
   0.88383362  0.61575853  0.11611005
   0.11616638  0.88388995  0.38424147
   0.88384455  0.11611558  0.61575632
   0.11615545  0.38424367  0.88388442
   0.16808139  0.24995140  0.24991832
   0.83191859  0.75008169  0.75004861
   0.67643683  0.82356932  0.32360024
   0.32356318  0.67639976  0.17643068
   0.67641243  0.32358932  0.82357659
   0.32358756  0.17642340  0.67641067
   0.02364993  0.37281579  0.12708955
   0.97635007  0.87291045  0.62718421
   0.97629116  0.62719898  0.87289664
   0.02370885  0.12710336  0.37280102
   0.79422901  0.62951470  0.35210503
   0.20577099  0.64789497  0.37048530
   0.72411498  0.12957121  0.85193756
   0.27588502  0.14806244  0.87042879
   0.20581352  0.37044786  0.64791007
   0.79418648  0.35208993  0.62955215
   0.27586566  0.87038779  0.14807943
   0.72413434  0.85192057  0.12961221
   0.80864486  0.91205009  0.35998045
   0.19135514  0.64001955  0.08794991
   0.41960136  0.41214519  0.85994139
   0.58039864  0.14005861  0.58785481
   0.19132406  0.08794778  0.64004639
   0.80867595  0.35995362  0.91205222
   0.58040085  0.58785197  0.14008734
   0.41959915  0.85991266  0.41214803
   0.19378174  0.34950966  0.34945650
   0.80621826  0.65054350  0.65049034
   0.60711813  0.84951406  0.84945816
   0.39288188  0.15054184  0.15048593
unknown system                          
           1
    -0.000000    0.000432    6.298302
     5.202334    6.460286    3.149584
    -5.202334    6.460286    3.149584
   Cr   P    O 
     6     6    24
Direct configuration=    11
   0.00000000  0.50000904  0.49999095
   0.50000000  0.00000441 -0.00000441
   0.88385642  0.61575108  0.11608946
   0.11614358  0.88391054  0.38424892
   0.88386818  0.11609362  0.61574932
   0.11613182  0.38425068  0.88390639
   0.16814124  0.24996402  0.24993197
   0.83185875  0.75006804  0.75003599
   0.67645769  0.82357585  0.32359621
   0.32354232  0.67640380  0.17642415
   0.67643755  0.32358474  0.82358476
   0.32356244  0.17641523  0.67641526
   0.02362605  0.37274668  0.12716834
   0.97637394  0.87283166  0.62725332
   0.97631809  0.62726790  0.87281748
   0.02368192  0.12718253  0.37273210
   0.79428578  0.62953364  0.35207994
   0.20571423  0.64792006  0.37046636
   0.72406392  0.12958445  0.85192255
   0.27593608  0.14807745  0.87041555
   0.20575597  0.37042979  0.64793441
   0.79424403  0.35206559  0.62957021
   0.27591639  0.87037567  0.14809415
   0.72408361  0.85190585  0.12962433
   0.80859166  0.91212143  0.35998074
   0.19140833  0.64001925  0.08787857
   0.41954304  0.41221481  0.85994193
   0.58045697  0.14005807  0.58778519
   0.19138001  0.08787797  0.64004419
   0.80862000  0.35995581  0.91212204
   0.58045812  0.58778387  0.14008445
   0.41954187  0.85991555  0.41221613
   0.19387197  0.34946416  0.34941542
   0.80612803  0.65058458  0.65053583
   0.60710997  0.84947880  0.84942661
   0.39289004  0.15057339  0.15052119
unknown system                          
           1
     0.000000   -0.000521    6.300761
     5.200112    6.458721    3.149832
    -5.200112    6.458721    3.149832
   Cr   P    O 
     6     6    24
Direct configuration=    12
   0.00000000  0.50000779  0.49999222
   0.50000000  0.00000485 -0.00000485
   0.88371293  0.61585885  0.11625406
   0.11628707  0.88374594  0.38414115
   0.88372730  0.11626371  0.61585427
   0.11627270  0.38414573  0.88373629
   0.16798010  0.25000535  0.24997023
   0.83201991  0.75002976  0.74999464
   0.67671876  0.82345231  0.32349158
   0.32328123  0.67650842  0.17654769
   0.67671708  0.32347672  0.82346623
   0.32328293  0.17653378  0.67652328
   0.02366275  0.37289936  0.12697113
   0.97633725  0.87302887  0.62710064
   0.97626918  0.62711230  0.87301722
   0.02373082  0.12698277  0.37288770
   0.79412344  0.62940672  0.35209774
   0.20587656  0.64790226  0.37059328
   0.72430161  0.12948139  0.85191082
   0.27569839  0.14808918  0.87051861
   0.20592226  0.37055369  0.64791894
   0.79407774  0.35208106  0.62944631
   0.27567844  0.87047903  0.14810582
   0.72432155  0.85189418  0.12952097
   0.80864283  0.91187459  0.36001682
   0.19135718  0.63998318  0.08812541
   0.41955072  0.41207221  0.86003450
   0.58044927  0.13996550  0.58792778
   0.19133449  0.08812566  0.64001904
   0.80866549  0.35998096  0.91187433
   0.58043802  0.58792552  0.14000219
   0.41956198  0.85999781  0.41207448
   0.19352237  0.34946328  0.34939867
   0.80647763  0.65060134  0.65053673
   0.60728115  0.84953420  0.84946828
   0.39271884  0.15053172  0.15046580
unknown system                          
           1
     0.000000   -0.000134    6.299762
     5.201014    6.459356    3.149731
    -5.201014    6.459356    3.149731
   Cr   P    O 
     6     6    24
Direct configuration=    13
   0.00000000  0.50000830  0.49999170
   0.50000000  0.00000467 -0.00000467
   0.88377120  0.61581508  0.11618719
   0.11622880  0.88381280  0.38418492
   0.88378450  0.11619461  0.61581164
   0.11621549  0.38418836  0.88380539
   0.16804552  0.24998857  0.24995469
   0.83195449  0.75004530  0.75001143
   0.67661276  0.82350249  0.32353407
   0.32338723  0.67646593  0.17649751
   0.67660360  0.32352059  0.82351437
   0.32339641  0.17648563  0.67647941
   0.02364785  0.37283732  0.12705126
   0.97635215  0.87294874  0.62716268
   0.97628904  0.62717553  0.87293607
   0.02371097  0.12706393  0.37282448
   0.79418933  0.62945829  0.35209051
   0.20581067  0.64790949  0.37054171
   0.72420512  0.12952325  0.85191558
   0.27579489  0.14808442  0.87047675
   0.20585476  0.37050335  0.64792522
   0.79414523  0.35207478  0.62949665
   0.27577504  0.87043705  0.14810109
   0.72422495  0.85189891  0.12956295
   0.80862204  0.91197487  0.36000216
   0.19137796  0.63999784  0.08802513
   0.41954760  0.41213015  0.85999689
   0.58045240  0.14000311  0.58786985
   0.19135298  0.08802503  0.64002926
   0.80864701  0.35997073  0.91197497
   0.58044618  0.58786797  0.14003561
   0.41955382  0.85996439  0.41213203
   0.19366428  0.34946365  0.34940548
   0.80633572  0.65059452  0.65053635
   0.60721167  0.84951169  0.84945135
   0.39278833  0.15054865  0.15048831
unknown system                          
           1
     0.000000    0.000075    6.301508
     5.199952    6.459693    3.150814
    -5.199952    6.459693    3.150814
   Cr   P    O 
     6     6    24
Direct configuration=    14
  -0.00000000  0.50000625  0.49999375
   0.50000000  0.00000522 -0.00000522
   0.88369276  0.61587364  0.11625794
   0.11630724  0.88374206  0.38412636
   0.88370627  0.11626651  0.61586876
   0.11629373  0.38413124  0.88373350
   0.16796203  0.24994665  0.24990711
   0.83203798  0.75009289  0.75005334
   0.67659917  0.82342527  0.32349077
   0.32340083  0.67650923  0.17657473
   0.67658183  0.32347377  0.82344372
   0.32341817  0.17655629  0.67652623
   0.02367073  0.37282079  0.12702942
   0.97632927  0.87297058  0.62717921
   0.97625554  0.62718852  0.87295983
   0.02374447  0.12704017  0.37281148
   0.79413401  0.62927296  0.35211258
   0.20586599  0.64788742  0.37072704
   0.72440841  0.12937601  0.85190107
   0.27559159  0.14809893  0.87062398
   0.20590827  0.37069105  0.64790221
   0.79409173  0.35209780  0.62930895
   0.27557361  0.87058598  0.14811538
   0.72442638  0.85188462  0.12941402
   0.80868384  0.91181717  0.36007010
   0.19131616  0.63992990  0.08818283
   0.41967190  0.41199998  0.86008358
   0.58032811  0.13991641  0.58800002
   0.19128983  0.08818062  0.63996711
   0.80871017  0.36003289  0.91181938
   0.58032275  0.58799348  0.13995515
   0.41967725  0.86004485  0.41200652
   0.19339293  0.34943185  0.34936379
   0.80660707  0.65063621  0.65056815
   0.60754324  0.84945074  0.84937795
   0.39245676  0.15062206  0.15054925
unknown system                          
           1
     0.000000    0.000044    6.301244
     5.200113    6.459642    3.150650
    -5.200113    6.459642    3.150650
   Cr   P    O 
     6     6    24
Direct configuration=    15
  -0.00000000  0.50000656  0.49999344
   0.50000000  0.00000514 -0.00000514
   0.88370463  0.61586478  0.11624723
   0.11629537  0.88375277  0.38413522
   0.88371812  0.11625562  0.61586011
   0.11628188  0.38413988  0.88374438
   0.16797467  0.24995300  0.24991431
   0.83202534  0.75008568  0.75004700
   0.67660122  0.82343696  0.32349733
   0.32339878  0.67650267  0.17656304
   0.67658513  0.32348086  0.82345442
   0.32341487  0.17654559  0.67651914
   0.02366726  0.37282329  0.12703272
   0.97633273  0.87296728  0.62717671
   0.97626061  0.62718655  0.87295623
   0.02373940  0.12704377  0.37281345
   0.79414238  0.62930102  0.35210924
   0.20585762  0.64789076  0.37069898
   0.72437763  0.12939831  0.85190326
   0.27562237  0.14809674  0.87060169
   0.20590017  0.37066262  0.64790569
   0.79409982  0.35209431  0.62933738
   0.27560411  0.87056343  0.14811321
   0.72439589  0.85188678  0.12943658
   0.80867448  0.91184105  0.36005981
   0.19132552  0.63994019  0.08815895
   0.41965308  0.41201969  0.86007045
   0.58034692  0.13992955  0.58798031
   0.19129939  0.08815705  0.63997652
   0.80870061  0.36002348  0.91184294
   0.58034143  0.58797447  0.13996734
   0.41965857  0.86003266  0.41202553
   0.19343400  0.34943666  0.34937011
   0.80656600  0.65062990  0.65056334
   0.60749304  0.84945997  0.84938906
   0.39250695  0.15061094  0.15054003
unknown system                          
           1
    -0.000000   -0.000148    6.302464
     5.199809    6.460931    3.151059
    -5.199809    6.460931    3.151059
   Cr   P    O 
     6     6    24
Direct configuration=    16
  -0.00000000  0.50000521  0.49999479
   0.50000000  0.00000527 -0.00000528
   0.88376806  0.61580995  0.11619639
   0.11623194  0.88380361  0.38419006
   0.88378411  0.11620663  0.61580461
   0.11621589  0.38419539  0.88379337
   0.16772543  0.24996772  0.24992544
   0.83227457  0.75007457  0.75003228
   0.67666165  0.82340539  0.32349131
   0.32333835  0.67650869  0.17659461
   0.67663832  0.32347150  0.82342403
   0.32336167  0.17657597  0.67652849
   0.02361282  0.37276370  0.12705377
   0.97638718  0.87294623  0.62723630
   0.97630437  0.62724507  0.87293215
   0.02369564  0.12706785  0.37275493
   0.79408496  0.62916669  0.35213201
   0.20591504  0.64786799  0.37083331
   0.72450408  0.12928362  0.85190367
   0.27549592  0.14809633  0.87071638
   0.20596090  0.37079573  0.64788154
   0.79403909  0.35211846  0.62920427
   0.27547642  0.87067691  0.14811329
   0.72452357  0.85188671  0.12932309
   0.80869777  0.91167484  0.36010927
   0.19130223  0.63989073  0.08832516
   0.41970961  0.41191431  0.86016015
   0.58029039  0.13983985  0.58808569
   0.19127266  0.08832020  0.63993013
   0.80872734  0.36006987  0.91167980
   0.58028523  0.58807696  0.13988128
   0.41971477  0.86011872  0.41192305
   0.19321957  0.34943414  0.34936116
   0.80678042  0.65063883  0.65056586
   0.60762059  0.84947690  0.84940055
   0.39237942  0.15059945  0.15052309
unknown system                          
           1
     0.000000   -0.000094    6.302119
     5.199895    6.460566    3.150943
    -5.199895    6.460566    3.150943
   Cr   P    O 
     6     6    24
Direct configuration=    17
  -0.00000000  0.50000559  0.49999441
   0.50000000  0.00000524 -0.00000524
   0.88375011  0.61582547  0.11621078
   0.11624989  0.88378921  0.38417453
   0.88376543  0.11622050  0.61582032
   0.11623457  0.38417967  0.88377950
   0.16779600  0.24996355  0.24992229
   0.83220400  0.75007771  0.75003645
   0.67664454  0.82341433  0.32349301
   0.32335546  0.67650699  0.17658567
   0.67662326  0.32347415  0.82343263
   0.32337674  0.17656737  0.67652585
   0.02362824  0.37278058  0.12704781
   0.97637176  0.87295219  0.62721942
   0.97629198  0.62722850  0.87293897
   0.02370803  0.12706103  0.37277150
   0.79410122  0.62920473  0.35212556
   0.20589878  0.64787444  0.37079527
   0.72446828  0.12931610  0.85190355
   0.27553172  0.14809645  0.87068390
   0.20594371  0.37075804  0.64788838
   0.79405629  0.35211162  0.62924196
   0.27551257  0.87064478  0.14811327
   0.72448742  0.85188673  0.12935522
   0.80869118  0.91172191  0.36009526
   0.19130882  0.63990474  0.08827809
   0.41969361  0.41194415  0.86013475
   0.58030639  0.13986525  0.58805584
   0.19128023  0.08827400  0.63994327
   0.80871977  0.36005673  0.91172600
   0.58030114  0.58804793  0.13990565
   0.41969885  0.86009435  0.41195207
   0.19328029  0.34943486  0.34936370
   0.80671971  0.65063630  0.65056514
   0.60758447  0.84947211  0.84939730
   0.39241553  0.15060270  0.15052789
unknown system                          
           1
     0.000000    0.000003    6.302467
     5.199985    6.460974    3.151213
    -5.199985    6.460974    3.151213
   Cr   P    O 
     6     6    24
Direct configuration=    18
  -0.00000000  0.50000614  0.49999386
   0.50000000  0.00000450 -0.00000450
   0.88381135  0.61575518  0.11614393
   0.11618865  0.88385606  0.38424482
   0.88383243  0.11615233  0.61574958
   0.11616757  0.38425042  0.88384768
   0.16776163  0.24995336  0.24990937
   0.83223837  0.75009063  0.75004665
   0.67669437  0.82335300  0.32344682
   0.32330562  0.67655318  0.17664700
   0.67667939  0.32342812  0.82337075
   0.32332061  0.17662925  0.67657188
   0.02346596  0.37276496  0.12704447
   0.97653404  0.87295553  0.62723504
   0.97644896  0.62724355  0.87294061
   0.02355104  0.12705939  0.37275645
   0.79402907  0.62919591  0.35212106
   0.20597093  0.64787894  0.37080409
   0.72451944  0.12932005  0.85187926
   0.27548056  0.14812074  0.87067995
   0.20602204  0.37076185  0.64789214
   0.79397796  0.35210787  0.62923815
   0.27546034  0.87063736  0.14813630
   0.72453966  0.85186370  0.12936264
   0.80874740  0.91161851  0.36013653
   0.19125261  0.63986347  0.08838149
   0.41969801  0.41187487  0.86019948
   0.58030199  0.13980052  0.58812513
   0.19122482  0.08837806  0.63990485
   0.80877518  0.36009515  0.91162193
   0.58029105  0.58811836  0.13984226
   0.41970895  0.86015774  0.41188164
   0.19313710  0.34944901  0.34937409
   0.80686290  0.65062591  0.65055100
   0.60768099  0.84947816  0.84940178
   0.39231901  0.15059822  0.15052184
