       N       E                     dE             d eps       ncg     rms          ort
DAV:   1     0.878310255467E+04    0.87831E+04   -0.53322E+05   624   0.153E+03
DAV:   2    -0.948120506968E+03   -0.97312E+04   -0.92699E+04   624   0.410E+02
DAV:   3    -0.190445178334E+04   -0.95633E+03   -0.93649E+03   624   0.147E+02
DAV:   4    -0.194493901865E+04   -0.40487E+02   -0.39896E+02   624   0.335E+01
DAV:   5    -0.194720924761E+04   -0.22702E+01   -0.22613E+01   624   0.575E+00
SDA:   6    -0.106689006045E+04    0.88032E+03   -0.22613E+01   624   0.319E+04 0.000E+00
CGA:   7    -0.121660526914E+04   -0.14972E+03   -0.32458E+03   624   0.431E+04-0.982E+02
CGA:   8    -0.132174725959E+04   -0.10514E+03   -0.26198E+03   624   0.227E+04-0.773E+03
CGA:   9    -0.133004969268E+04   -0.83024E+01   -0.11774E+03   624   0.167E+04-0.857E+03
CGA:  10    -0.137877154295E+04   -0.48722E+02   -0.89040E+02   624   0.982E+03-0.275E+03
CGA:  11    -0.144230196447E+04   -0.63530E+02   -0.52589E+02   624   0.125E+04-0.416E+03
CGA:  12    -0.144913147266E+04   -0.68295E+01   -0.33221E+02   624   0.115E+04-0.302E+03
CGA:  13    -0.147094532838E+04   -0.21814E+02   -0.38513E+02   624   0.515E+03-0.543E+03
CGA:  14    -0.147759707706E+04   -0.66517E+01   -0.87957E+01   624   0.392E+03-0.109E+03
CGA:  15    -0.147588691719E+04    0.17102E+01   -0.12187E+02   624   0.784E+03-0.236E+03
CGA:  16    -0.146969472043E+04    0.61922E+01   -0.41464E+02   624   0.114E+04-0.554E+03
CGA:  17    -0.146351528509E+04    0.61794E+01   -0.59103E+02   624   0.973E+03-0.732E+03
CGA:  18    -0.146079226906E+04    0.27230E+01   -0.41862E+02   624   0.238E+04-0.193E+04
CGA:  19    -0.144159828139E+04    0.19194E+02   -0.13131E+03   624   0.105E+04-0.732E+03
CGA:  20    -0.148987350813E+04   -0.48275E+02   -0.29278E+02   624   0.910E+03-0.115E+04
CGA:  21    -0.146910570523E+04    0.20768E+02   -0.34763E+02   624   0.155E+04-0.107E+04
CGA:  22    -0.144516990253E+04    0.23936E+02   -0.70937E+02   624   0.197E+04-0.122E+04
CGA:  23    -0.145698347357E+04   -0.11814E+02   -0.88625E+02   624   0.113E+04-0.110E+04
CGA:  24    -0.146521225170E+04   -0.82288E+01   -0.45324E+02   624   0.138E+04-0.132E+04
CGA:  25    -0.145948456086E+04    0.57277E+01   -0.48998E+02   624   0.178E+04-0.162E+04
CGA:  26    -0.144380254912E+04    0.15682E+02   -0.69632E+02   624   0.179E+04-0.134E+04
CGA:  27    -0.145523187139E+04   -0.11429E+02   -0.68373E+02   624   0.124E+04-0.131E+04
CGA:  28    -0.147955932329E+04   -0.24327E+02   -0.40517E+02   624   0.156E+04-0.207E+04
CGA:  29    -0.147380469950E+04    0.57546E+01   -0.53405E+02   624   0.175E+04-0.158E+04
CGA:  30    -0.146936097767E+04    0.44437E+01   -0.60838E+02   624   0.162E+04-0.148E+04
CGA:  31    -0.147809817607E+04   -0.87372E+01   -0.52898E+02   624   0.171E+04-0.188E+04
CGA:  32    -0.148047626551E+04   -0.23781E+01   -0.55605E+02   624   0.164E+04-0.170E+04
CGA:  33    -0.148739904142E+04   -0.69228E+01   -0.50342E+02   624   0.127E+04-0.141E+04
CGA:  34    -0.149493350605E+04   -0.75345E+01   -0.37467E+02   624   0.127E+04-0.147E+04
CGA:  35    -0.150205578106E+04   -0.71223E+01   -0.34886E+02   624   0.999E+03-0.118E+04
CGA:  36    -0.150838573948E+04   -0.63300E+01   -0.26192E+02   624   0.642E+03-0.813E+03
CGA:  37    -0.151533541061E+04   -0.69497E+01   -0.15005E+02   624   0.228E+03-0.391E+03
CGA:  38    -0.151781424877E+04   -0.24788E+01   -0.46412E+01   624   0.489E+02-0.800E+02
CGA:  39    -0.151844711227E+04   -0.63286E+00   -0.56620E+00   624   0.917E+01 0.216E+01
CGA:  40    -0.151864483702E+04   -0.19772E+00   -0.21004E+00   624   0.452E+01-0.613E+00
CGA:  41    -0.151902690211E+04   -0.38207E+00   -0.37312E+00   624   0.205E+02 0.180E+00
CGA:  42    -0.151999693210E+04   -0.97003E+00   -0.96894E+00   624   0.219E+02-0.139E+01
CGA:  43    -0.152073286604E+04   -0.73593E+00   -0.79810E+00   624   0.408E+01-0.790E+00
CGA:  44    -0.152092550904E+04   -0.19264E+00   -0.19428E+00   624   0.212E+01-0.926E-01
CGA:  45    -0.152102597258E+04   -0.10046E+00   -0.99902E-01   624   0.286E+01-0.895E-01
CGA:  46    -0.152128129855E+04   -0.25533E+00   -0.24945E+00   624   0.233E+01 0.984E-01
CGA:  47    -0.152143400481E+04   -0.15271E+00   -0.15265E+00   624   0.129E+01 0.707E-02
CGA:  48    -0.152155505921E+04   -0.12105E+00   -0.11848E+00   624   0.129E+01 0.322E-01
CGA:  49    -0.152163305070E+04   -0.77991E-01   -0.78236E-01   624   0.103E+01-0.605E-01
CGA:  50    -0.152175335174E+04   -0.12030E+00   -0.14681E+00   624   0.138E+01-0.283E+00
CGA:  51    -0.152181674825E+04   -0.63397E-01   -0.63392E-01   624   0.606E+00-0.125E+00
CGA:  52    -0.152187780324E+04   -0.61055E-01   -0.95831E-01   624   0.194E+01-0.345E+00
CGA:  53    -0.152194747698E+04   -0.69674E-01   -0.81888E-01   624   0.593E+00-0.180E+00
CGA:  54    -0.152199784290E+04   -0.50366E-01   -0.51429E-01   624   0.430E+00-0.341E-01
CGA:  55    -0.152207070012E+04   -0.72857E-01   -0.76271E-01   624   0.751E+00-0.189E-01
CGA:  56    -0.152212241748E+04   -0.51717E-01   -0.50228E-01   624   0.359E+00-0.596E-01
CGA:  57    -0.152218345306E+04   -0.61036E-01   -0.69838E-01   624   0.498E+00-0.570E-01
CGA:  58    -0.152221444652E+04   -0.30993E-01   -0.29146E-01   624   0.276E+00-0.327E-01
CGA:  59    -0.152226246967E+04   -0.48023E-01   -0.53627E-01   624   0.185E+00-0.394E-01
CGA:  60    -0.152229167464E+04   -0.29205E-01   -0.32002E-01   624   0.335E+00-0.233E-01
CGA:  61    -0.152231950219E+04   -0.27828E-01   -0.27848E-01   624   0.206E+00-0.211E-01
CGA:  62    -0.152235224966E+04   -0.32747E-01   -0.33096E-01   624   0.101E+00-0.115E-01
CGA:  63    -0.152236206172E+04   -0.98121E-02   -0.65146E-02   624   0.419E+00-0.885E-01
CGA:  64    -0.152242155996E+04   -0.59498E-01   -0.59098E-01   624   0.619E-01 0.912E-02
CGA:  65    -0.152244354059E+04   -0.21981E-01   -0.20270E-01   624   0.465E-01 0.125E-01
CGA:  66    -0.152246385291E+04   -0.20312E-01   -0.18271E-01   624   0.411E-01 0.148E-01
CGA:  67    -0.152249332723E+04   -0.29474E-01   -0.26676E-01   624   0.628E-01 0.919E-02
CGA:  68    -0.152252587292E+04   -0.32546E-01   -0.30076E-01   624   0.883E-01 0.130E-01
CGA:  69    -0.152256844008E+04   -0.42567E-01   -0.42969E-01   624   0.130E+00-0.443E-02
CGA:  70    -0.152259839543E+04   -0.29955E-01   -0.30108E-01   624   0.117E+00-0.978E-02
CGA:  71    -0.152262366953E+04   -0.25274E-01   -0.25401E-01   624   0.138E+00-0.174E-01
CGA:  72    -0.152265473013E+04   -0.31061E-01   -0.33126E-01   624   0.175E+00-0.365E-01
CGA:  73    -0.152267579719E+04   -0.21067E-01   -0.18612E-01   624   0.151E+00-0.240E-01
CGA:  74    -0.152269821033E+04   -0.22413E-01   -0.21151E-01   624   0.154E+00-0.204E-01
CGA:  75    -0.152272194819E+04   -0.23738E-01   -0.22704E-01   624   0.162E+00-0.187E-01
CGA:  76    -0.152274289194E+04   -0.20944E-01   -0.19652E-01   624   0.138E+00-0.130E-01
CGA:  77    -0.152275977611E+04   -0.16884E-01   -0.16325E-01   624   0.119E+00-0.616E-02
CGA:  78    -0.152277520639E+04   -0.15430E-01   -0.15596E-01   624   0.118E+00-0.572E-03
CGA:  79    -0.152279061451E+04   -0.15408E-01   -0.15901E-01   624   0.104E+00 0.595E-02
CGA:  80    -0.152280323908E+04   -0.12625E-01   -0.13486E-01   624   0.802E-01 0.908E-02
CGA:  81    -0.152281365830E+04   -0.10419E-01   -0.11232E-01   624   0.724E-01 0.997E-02
CGA:  82    -0.152282466653E+04   -0.11008E-01   -0.11670E-01   624   0.707E-01 0.111E-01
CGA:  83    -0.152283483141E+04   -0.10165E-01   -0.10867E-01   624   0.535E-01 0.107E-01
CGA:  84    -0.152284166597E+04   -0.68346E-02   -0.75515E-02   624   0.419E-01 0.101E-01
CGA:  85    -0.152284749752E+04   -0.58315E-02   -0.65402E-02   624   0.412E-01 0.123E-01
CGA:  86    -0.152285370792E+04   -0.62104E-02   -0.70209E-02   624   0.346E-01 0.151E-01
CGA:  87    -0.152285897507E+04   -0.52671E-02   -0.59579E-02   624   0.264E-01 0.123E-01
CGA:  88    -0.152286399745E+04   -0.50224E-02   -0.52909E-02   624   0.268E-01 0.824E-02
CGA:  89    -0.152286958940E+04   -0.55919E-02   -0.56777E-02   624   0.255E-01 0.485E-02
CGA:  90    -0.152287399603E+04   -0.44066E-02   -0.44510E-02   624   0.215E-01 0.123E-02
CGA:  91    -0.152287764700E+04   -0.36510E-02   -0.36388E-02   624   0.231E-01-0.984E-03
CGA:  92    -0.152288138526E+04   -0.37383E-02   -0.37172E-02   624   0.248E-01-0.353E-02
CGA:  93    -0.152288464589E+04   -0.32606E-02   -0.31094E-02   624   0.223E-01-0.573E-02
SDA:  94    -0.152288740895E+04   -0.27631E-02   -0.26234E-02   624   0.225E-01-0.701E-02
CGA:  95    -0.152289736640E+04   -0.99575E-02   -0.10108E-01   624   0.290E-01-0.395E-03
CGA:  96    -0.152290734917E+04   -0.99828E-02   -0.11427E-01   624   0.169E-01-0.619E-02
CGA:  97    -0.152291039335E+04   -0.30442E-02   -0.30513E-02   624   0.530E-02-0.740E-04
CGA:  98    -0.152291171813E+04   -0.13248E-02   -0.36404E-02   624   0.172E-01-0.466E-02
CGA:  99    -0.152291467667E+04   -0.29585E-02   -0.29736E-02   624   0.327E-02 0.433E-03
CGA: 100    -0.152291604151E+04   -0.13648E-02   -0.16912E-02   624   0.426E-02-0.114E-02
CGA: 101    -0.152291715284E+04   -0.11113E-02   -0.12691E-02   624   0.579E-02-0.702E-03
CGA: 102    -0.152291634633E+04    0.80651E-03   -0.47766E-02   624   0.245E-01-0.764E-02
CGA: 103    -0.152292113305E+04   -0.47867E-02   -0.49164E-02   624   0.589E-02 0.208E-02
CGA: 104    -0.152292327965E+04   -0.21466E-02   -0.21643E-02   624   0.348E-02-0.263E-03
CGA: 105    -0.152292434917E+04   -0.10695E-02   -0.10379E-02   624   0.178E-02 0.106E-02
CGA: 106    -0.152292500268E+04   -0.65352E-03   -0.65417E-03   624   0.500E-03 0.390E-03
CGA: 107    -0.152292535472E+04   -0.35204E-03   -0.46538E-03   624   0.178E-02-0.235E-03
CGA: 108    -0.152292545076E+04   -0.96035E-04   -0.12945E-03   624   0.183E-02 0.199E-03
CGA: 109    -0.152292568062E+04   -0.22987E-03   -0.29308E-03   624   0.124E-02 0.424E-03
CGA: 110    -0.152292616268E+04   -0.48205E-03   -0.48363E-03   624   0.222E-02-0.662E-04
CGA: 111    -0.152292676691E+04   -0.60423E-03   -0.58881E-03   624   0.311E-02-0.119E-02
CGA: 112    -0.152292765515E+04   -0.88825E-03   -0.88832E-03   624   0.101E-02 0.300E-04
CGA: 113    -0.152292770843E+04   -0.53272E-04   -0.71688E-03   624   0.550E-02-0.160E-02
CGA: 114    -0.152292838526E+04   -0.67684E-03   -0.75414E-03   624   0.547E-03 0.551E-03
CGA: 115    -0.152292861764E+04   -0.23237E-03   -0.26586E-03   624   0.373E-03-0.241E-03
CGA: 116    -0.152292867232E+04   -0.54686E-04   -0.97762E-04   624   0.836E-03-0.269E-03
CGA: 117    -0.152292882543E+04   -0.15310E-03   -0.15923E-03   624   0.187E-03 0.560E-04
CGA: 118    -0.152292843152E+04    0.39391E-03   -0.29065E-03   624   0.276E-02-0.600E-03
CGA: 119    -0.152292886514E+04   -0.43362E-03   -0.50314E-03   624   0.706E-03 0.422E-03
CGA: 120    -0.152292915946E+04   -0.29432E-03   -0.29483E-03   624   0.120E-03-0.208E-03
CGA: 121    -0.152292917471E+04   -0.15247E-04   -0.21014E-04   624   0.771E-04 0.518E-04
CGA: 122    -0.152292894163E+04    0.23308E-03   -0.13854E-03   624   0.157E-02-0.252E-03
CGA: 123    -0.152292959476E+04   -0.65314E-03   -0.63280E-03   624   0.213E-03-0.792E-04
CGA: 124    -0.152292959724E+04   -0.24752E-05   -0.26840E-04   624   0.448E-04 0.516E-04
CGA: 125    -0.152292960253E+04   -0.52950E-05   -0.12490E-04   624   0.468E-04 0.186E-04
CGA: 126    -0.152292847216E+04    0.11304E-02   -0.60081E-03   624   0.679E-02-0.443E-03
CGA: 127    -0.152292981399E+04   -0.13418E-02   -0.13905E-02   624   0.120E-02 0.265E-03
CGA: 128    -0.152293014360E+04   -0.32961E-03   -0.28141E-03   624   0.160E-03-0.648E-04
CGA: 129    -0.152293014124E+04    0.23540E-05   -0.30001E-04   624   0.307E-04 0.421E-04
CGA: 130    -0.152293014261E+04   -0.13651E-05   -0.10392E-04   624   0.194E-04 0.133E-04
CGA: 131    -0.152293016800E+04   -0.25393E-04   -0.25755E-04   624   0.107E-03-0.331E-04
CGA: 132    -0.152293016486E+04    0.31472E-05   -0.16360E-04   624   0.270E-04 0.270E-04
CGA: 133    -0.152293017535E+04   -0.10498E-04   -0.11205E-04   624   0.149E-04 0.128E-05
CGA: 134    -0.152293021712E+04   -0.41762E-04    0.11771E-04   624   0.171E-03-0.338E-04
CGA: 135    -0.152293021067E+04    0.64460E-05   -0.19247E-04   624   0.196E-04 0.385E-04
   1 F= -.15229302E+04 E0= -.15229302E+04  d E =-.152293E+04  mag=    16.0000
       N       E                     dE             d eps       ncg     rms          ort
SDA:   1    -0.152294779491E+04   -0.17578E-01    0.00000E+00   624   0.358E-02 0.000E+00
CGA:   2    -0.152294849215E+04   -0.69724E-03   -0.79598E-03   624   0.946E-03 0.181E-03
CGA:   3    -0.152294878051E+04   -0.28836E-03   -0.24606E-03   624   0.421E-03-0.831E-04
CGA:   4    -0.152294884381E+04   -0.63303E-04   -0.65303E-04   624   0.724E-04 0.529E-05
CGA:   5    -0.152294887558E+04   -0.31766E-04   -0.23054E-04   624   0.399E-04-0.226E-04
CGA:   6    -0.152294889534E+04   -0.19757E-04   -0.16032E-04   624   0.117E-03-0.389E-04
CGA:   7    -0.152294889874E+04   -0.34070E-05   -0.14870E-04   624   0.172E-04 0.212E-04
   2 F= -.15229489E+04 E0= -.15229489E+04  d E =-.186881E-01  mag=    16.0000
       N       E                     dE             d eps       ncg     rms          ort
SDA:   1    -0.152042420643E+04    0.25247E+01    0.00000E+00   624   0.101E+02 0.000E+00
CGA:   2    -0.152291745126E+04   -0.24932E+01   -0.25040E+01   624   0.250E+01 0.560E-01
CGA:   3    -0.152355356290E+04   -0.63611E+00   -0.63579E+00   624   0.703E+00 0.187E-02
CGA:   4    -0.152369198755E+04   -0.13842E+00   -0.13784E+00   624   0.163E+00 0.688E-03
CGA:   5    -0.152372672141E+04   -0.34734E-01   -0.34607E-01   624   0.475E-01-0.433E-03
CGA:   6    -0.152374047052E+04   -0.13749E-01   -0.13676E-01   624   0.223E-01-0.307E-03
CGA:   7    -0.152374778609E+04   -0.73156E-02   -0.72714E-02   624   0.114E-01-0.222E-03
CGA:   8    -0.152375154573E+04   -0.37596E-02   -0.37604E-02   624   0.467E-02 0.317E-05
CGA:   9    -0.152375315696E+04   -0.16112E-02   -0.15815E-02   624   0.191E-02-0.161E-03
CGA:  10    -0.152375374407E+04   -0.58711E-03   -0.58729E-03   624   0.825E-03 0.238E-05
CGA:  11    -0.152375409262E+04   -0.34855E-03   -0.32704E-03   624   0.700E-03-0.202E-03
CGA:  12    -0.152375417837E+04   -0.85757E-04   -0.10468E-03   624   0.250E-03 0.654E-04
CGA:  13    -0.152375423266E+04   -0.54291E-04   -0.62094E-04   624   0.115E-03 0.307E-04
CGA:  14    -0.152375428633E+04   -0.53669E-04   -0.42283E-04   624   0.129E-03-0.803E-04
CGA:  15    -0.152375428741E+04   -0.10808E-05   -0.14698E-04   624   0.253E-04 0.398E-04
   3 F= -.15237543E+04 E0= -.15237543E+04  d E =-.805389E+00  mag=    16.0000
       N       E                     dE             d eps       ncg     rms          ort
SDA:   1    -0.151744671569E+04    0.63076E+01    0.00000E+00   624   0.217E+02 0.000E+00
CGA:   2    -0.152267217727E+04   -0.52255E+01   -0.52450E+01   624   0.516E+01 0.280E-01
CGA:   3    -0.152399069402E+04   -0.13185E+01   -0.13165E+01   624   0.148E+01-0.807E-02
CGA:   4    -0.152428190707E+04   -0.29121E+00   -0.29043E+00   624   0.343E+00-0.152E-02
CGA:   5    -0.152435429666E+04   -0.72390E-01   -0.72469E-01   624   0.101E+00 0.376E-03
CGA:   6    -0.152438380849E+04   -0.29512E-01   -0.29535E-01   624   0.480E-01 0.153E-03
CGA:   7    -0.152439989715E+04   -0.16089E-01   -0.16051E-01   624   0.252E-01-0.716E-03
CGA:   8    -0.152440836877E+04   -0.84716E-02   -0.84417E-02   624   0.104E-01-0.652E-03
CGA:   9    -0.152441181547E+04   -0.34467E-02   -0.34267E-02   624   0.407E-02-0.448E-03
CGA:  10    -0.152441307794E+04   -0.12625E-02   -0.12605E-02   624   0.172E-02-0.314E-04
CGA:  11    -0.152441369887E+04   -0.62093E-03   -0.61777E-03   624   0.113E-02-0.192E-03
CGA:  12    -0.152441394032E+04   -0.24145E-03   -0.24591E-03   624   0.418E-03 0.377E-04
CGA:  13    -0.152441409405E+04   -0.15373E-03   -0.15264E-03   624   0.173E-03-0.656E-04
CGA:  14    -0.152441415309E+04   -0.59033E-04   -0.69322E-04   624   0.223E-03-0.975E-04
CGA:  15    -0.152441417062E+04   -0.17533E-04   -0.29187E-04   624   0.404E-04 0.487E-04
CGA:  16    -0.152441418238E+04   -0.11764E-04   -0.12867E-04   624   0.268E-04 0.109E-04
CGA:  17    -0.152441376782E+04    0.41457E-03   -0.22457E-03   624   0.277E-02-0.250E-03
CGA:  18    -0.152441412289E+04   -0.35507E-03   -0.39620E-03   624   0.337E-03 0.107E-03
CGA:  19    -0.152441428304E+04   -0.16016E-03   -0.14652E-03   624   0.870E-04-0.652E-04
CGA:  20    -0.152441429699E+04   -0.13950E-04   -0.14424E-04   624   0.377E-04 0.153E-05
CGA:  21    -0.152441430768E+04   -0.10693E-04   -0.11487E-04   624   0.811E-05 0.273E-05
CGA:  22    -0.152441432170E+04   -0.14018E-04    0.65070E-05   624   0.281E-04-0.755E-05
CGA:  23    -0.152441432204E+04   -0.33657E-06   -0.32253E-05   624   0.327E-05 0.634E-05
   4 F= -.15244143E+04 E0= -.15244143E+04  d E =-.660035E+00  mag=    16.0000
       N       E                     dE             d eps       ncg     rms          ort
SDA:   1    -0.152049256866E+04    0.39218E+01    0.00000E+00   624   0.125E+02 0.000E+00
CGA:   2    -0.152360587266E+04   -0.31133E+01   -0.31214E+01   624   0.316E+01 0.261E-01
CGA:   3    -0.152443124917E+04   -0.82538E+00   -0.82382E+00   624   0.866E+00 0.536E-03
CGA:   4    -0.152459802413E+04   -0.16677E+00   -0.16646E+00   624   0.190E+00-0.353E-03
CGA:   5    -0.152463812323E+04   -0.40099E-01   -0.40164E-01   624   0.552E-01 0.218E-03
CGA:   6    -0.152465423818E+04   -0.16115E-01   -0.16123E-01   624   0.263E-01 0.642E-04
CGA:   7    -0.152466310884E+04   -0.88707E-02   -0.88385E-02   624   0.146E-01-0.230E-03
CGA:   8    -0.152466812305E+04   -0.50142E-02   -0.49895E-02   624   0.641E-02-0.197E-03
CGA:   9    -0.152467028228E+04   -0.21592E-02   -0.21216E-02   624   0.268E-02-0.297E-03
CGA:  10    -0.152467098034E+04   -0.69806E-03   -0.70648E-03   624   0.108E-02 0.537E-04
CGA:  11    -0.152467134277E+04   -0.36243E-03   -0.34981E-03   624   0.592E-03-0.971E-04
CGA:  12    -0.152467149172E+04   -0.14895E-03   -0.15167E-03   624   0.223E-03 0.189E-04
CGA:  13    -0.152467158025E+04   -0.88530E-04   -0.86159E-04   624   0.116E-03-0.416E-04
CGA:  14    -0.152467161674E+04   -0.36488E-04   -0.34615E-04   624   0.863E-04-0.306E-04
CGA:  15    -0.152467162936E+04   -0.12622E-04   -0.14093E-04   624   0.375E-04 0.738E-05
CGA:  16    -0.152467164429E+04   -0.14928E-04   -0.15071E-04   624   0.360E-04 0.308E-05
CGA:  17    -0.152467166136E+04   -0.17074E-04   -0.19625E-04   624   0.104E-03-0.280E-04
CGA:  18    -0.152467167736E+04   -0.15992E-04   -0.16856E-04   624   0.235E-04 0.401E-05
CGA:  19    -0.152467167021E+04    0.71510E-05   -0.26099E-04   624   0.166E-03-0.499E-04
CGA:  20    -0.152467170102E+04   -0.30813E-04   -0.32976E-04   624   0.459E-04 0.977E-05
CGA:  21    -0.152467170889E+04   -0.78735E-05   -0.93662E-05   624   0.475E-05 0.657E-05
CGA:  22    -0.152467167830E+04    0.30588E-04   -0.16589E-04   624   0.184E-03-0.197E-04
CGA:  23    -0.152467171235E+04   -0.34044E-04   -0.35782E-04   624   0.567E-04 0.399E-05
CGA:  24    -0.152467173146E+04   -0.19109E-04   -0.16709E-04   624   0.742E-05-0.514E-05
CGA:  25    -0.152467167994E+04    0.51518E-04   -0.14723E-04   624   0.481E-03-0.448E-04
CGA:  26    -0.152467173257E+04   -0.52630E-04   -0.68606E-04   624   0.493E-04 0.293E-04
CGA:  27    -0.152467174013E+04   -0.75610E-05   -0.11648E-04   624   0.736E-05 0.786E-05
   5 F= -.15246717E+04 E0= -.15246717E+04  d E =-.257418E+00  mag=    16.0000
       N       E                     dE             d eps       ncg     rms          ort
SDA:   1    -0.152066602669E+04    0.40057E+01    0.00000E+00   624   0.113E+02 0.000E+00
CGA:   2    -0.152377651301E+04   -0.31105E+01   -0.31113E+01   624   0.339E+01 0.421E-01
CGA:   3    -0.152459465418E+04   -0.81814E+00   -0.81723E+00   624   0.840E+00 0.105E-01
CGA:   4    -0.152474889835E+04   -0.15424E+00   -0.15434E+00   624   0.170E+00 0.223E-02
CGA:   5    -0.152478575148E+04   -0.36853E-01   -0.36972E-01   624   0.481E-01 0.373E-03
CGA:   6    -0.152479953019E+04   -0.13779E-01   -0.13748E-01   624   0.214E-01-0.667E-04
CGA:   7    -0.152480673999E+04   -0.72098E-02   -0.71447E-02   624   0.123E-01-0.240E-03
CGA:   8    -0.152481098015E+04   -0.42402E-02   -0.42050E-02   624   0.598E-02-0.141E-03
CGA:   9    -0.152481281448E+04   -0.18343E-02   -0.18045E-02   624   0.251E-02-0.104E-03
CGA:  10    -0.152481345329E+04   -0.63881E-03   -0.63701E-03   624   0.998E-03 0.277E-05
CGA:  11    -0.152481377209E+04   -0.31879E-03   -0.30975E-03   624   0.438E-03-0.361E-04
CGA:  12    -0.152481392552E+04   -0.15343E-03   -0.15181E-03   624   0.195E-03-0.879E-05
CGA:  13    -0.152481398454E+04   -0.59026E-04   -0.60484E-04   624   0.873E-04 0.723E-05
CGA:  14    -0.152481401544E+04   -0.30893E-04   -0.29845E-04   624   0.514E-04-0.546E-05
CGA:  15    -0.152481402375E+04   -0.83153E-05   -0.12163E-04   624   0.259E-04 0.152E-04
CGA:  16    -0.152481403872E+04   -0.14971E-04   -0.15258E-04   624   0.279E-04 0.726E-05
CGA:  17    -0.152481406064E+04   -0.21919E-04   -0.22944E-04   624   0.911E-04-0.703E-05
CGA:  18    -0.152481407246E+04   -0.11818E-04   -0.13628E-04   624   0.833E-04 0.564E-05
CGA:  19    -0.152481408201E+04   -0.95439E-05   -0.13068E-04   624   0.570E-04 0.105E-04
CGA:  20    -0.152481409703E+04   -0.15027E-04   -0.15915E-04   624   0.569E-04 0.371E-05
CGA:  21    -0.152481411032E+04   -0.13285E-04   -0.10775E-04   624   0.269E-04-0.907E-05
CGA:  22    -0.152481411848E+04   -0.81657E-05   -0.70561E-05   624   0.361E-04-0.873E-05
   6 F= -.15248141E+04 E0= -.15248141E+04  d E =-.142378E+00  mag=    16.0000
       N       E                     dE             d eps       ncg     rms          ort
SDA:   1    -0.151463489909E+04    0.10179E+02    0.00000E+00   624   0.252E+02 0.000E+00
CGA:   2    -0.152272237721E+04   -0.80875E+01   -0.80869E+01   624   0.823E+01-0.956E-02
CGA:   3    -0.152447891570E+04   -0.17565E+01   -0.17558E+01   624   0.165E+01 0.982E-02
CGA:   4    -0.152478437054E+04   -0.30545E+00   -0.30614E+00   624   0.350E+00 0.346E-02
CGA:   5    -0.152486126686E+04   -0.76896E-01   -0.77039E-01   624   0.962E-01 0.107E-02
CGA:   6    -0.152488669798E+04   -0.25431E-01   -0.25428E-01   624   0.352E-01-0.252E-04
CGA:   7    -0.152489784195E+04   -0.11144E-01   -0.11119E-01   624   0.181E-01-0.388E-03
CGA:   8    -0.152490397928E+04   -0.61373E-02   -0.61237E-02   624   0.896E-02-0.390E-03
CGA:   9    -0.152490660049E+04   -0.26212E-02   -0.26191E-02   624   0.372E-02-0.177E-04
CGA:  10    -0.152490761134E+04   -0.10109E-02   -0.10109E-02   624   0.159E-02 0.117E-04
CGA:  11    -0.152490812034E+04   -0.50900E-03   -0.51042E-03   624   0.766E-03 0.327E-04
CGA:  12    -0.152490842743E+04   -0.30708E-03   -0.30666E-03   624   0.453E-03 0.164E-04
CGA:  13    -0.152490858862E+04   -0.16120E-03   -0.16179E-03   624   0.252E-03 0.386E-04
CGA:  14    -0.152490867400E+04   -0.85380E-04   -0.86993E-04   624   0.135E-03 0.361E-04
CGA:  15    -0.152490871139E+04   -0.37386E-04   -0.43115E-04   624   0.774E-04 0.692E-04
CGA:  16    -0.152490876085E+04   -0.49464E-04   -0.49225E-04   624   0.111E-03 0.878E-06
CGA:  17    -0.152490877891E+04   -0.18055E-04   -0.26375E-04   624   0.737E-04 0.614E-04
CGA:  18    -0.152490881280E+04   -0.33891E-04   -0.33865E-04   624   0.627E-04 0.398E-06
CGA:  19    -0.152490881762E+04   -0.48170E-05   -0.11838E-04   624   0.437E-04 0.388E-04
CGA:  20    -0.152490884327E+04   -0.25650E-04   -0.24271E-04   624   0.399E-04 0.713E-05
CGA:  21    -0.152490885086E+04   -0.75932E-05   -0.11918E-04   624   0.351E-04 0.383E-04
CGA:  22    -0.152490887413E+04   -0.23269E-04   -0.24246E-04   624   0.664E-04-0.289E-05
CGA:  23    -0.152490887392E+04    0.20994E-06   -0.91632E-05   624   0.467E-04 0.410E-04
CGA:  24    -0.152490888274E+04   -0.88234E-05   -0.11473E-04   624   0.198E-04 0.214E-04
CGA:  25    -0.152490889888E+04   -0.16134E-04   -0.15556E-04   624   0.370E-04 0.344E-05
CGA:  26    -0.152490890238E+04   -0.35087E-05   -0.90251E-05   624   0.448E-04 0.339E-04
CGA:  27    -0.152490890993E+04   -0.75464E-05   -0.10428E-04   624   0.164E-04 0.220E-04
   7 F= -.15249089E+04 E0= -.15249089E+04  d E =-.947914E-01  mag=    16.0000
       N       E                     dE             d eps       ncg     rms          ort
SDA:   1    -0.152199053383E+04    0.29184E+01    0.00000E+00   624   0.707E+01 0.000E+00
CGA:   2    -0.152443857414E+04   -0.24480E+01   -0.24480E+01   624   0.227E+01-0.816E-02
CGA:   3    -0.152487951668E+04   -0.44094E+00   -0.44095E+00   624   0.450E+00 0.530E-03
CGA:   4    -0.152496436473E+04   -0.84848E-01   -0.84896E-01   624   0.945E-01 0.430E-03
CGA:   5    -0.152498440775E+04   -0.20043E-01   -0.20102E-01   624   0.233E-01 0.495E-03
CGA:   6    -0.152499017558E+04   -0.57678E-02   -0.57556E-02   624   0.721E-02-0.141E-03
CGA:   7    -0.152499230282E+04   -0.21272E-02   -0.21158E-02   624   0.325E-02-0.350E-03
CGA:   8    -0.152499332185E+04   -0.10190E-02   -0.10196E-02   624   0.158E-02-0.173E-03
CGA:   9    -0.152499377002E+04   -0.44817E-03   -0.44591E-03   624   0.683E-03-0.740E-04
CGA:  10    -0.152499393427E+04   -0.16425E-03   -0.16621E-03   624   0.250E-03 0.296E-04
CGA:  11    -0.152499404187E+04   -0.10760E-03   -0.11173E-03   624   0.191E-03-0.385E-04
CGA:  12    -0.152499411947E+04   -0.77600E-04   -0.79234E-04   624   0.167E-03-0.103E-04
CGA:  13    -0.152499418390E+04   -0.64430E-04   -0.63315E-04   624   0.111E-03 0.167E-04
CGA:  14    -0.152499422223E+04   -0.38326E-04   -0.38915E-04   624   0.571E-04 0.281E-04
CGA:  15    -0.152499423699E+04   -0.14764E-04   -0.17837E-04   624   0.289E-04 0.348E-04
CGA:  16    -0.152499424411E+04   -0.71188E-05   -0.80080E-05   624   0.158E-04 0.161E-04
   8 F= -.15249942E+04 E0= -.15249942E+04  d E =-.853342E-01  mag=    16.0000
       N       E                     dE             d eps       ncg     rms          ort
SDA:   1    -0.152256663732E+04    0.24276E+01    0.00000E+00   624   0.593E+01 0.000E+00
CGA:   2    -0.152457213987E+04   -0.20055E+01   -0.20056E+01   624   0.194E+01-0.770E-02
CGA:   3    -0.152495332797E+04   -0.38119E+00   -0.38146E+00   624   0.378E+00 0.183E-02
CGA:   4    -0.152502340291E+04   -0.70075E-01   -0.70377E-01   624   0.781E-01 0.245E-02
CGA:   5    -0.152503985497E+04   -0.16452E-01   -0.16508E-01   624   0.190E-01 0.561E-03
CGA:   6    -0.152504447615E+04   -0.46212E-02   -0.46061E-02   624   0.554E-02-0.235E-03
CGA:   7    -0.152504604388E+04   -0.15677E-02   -0.15644E-02   624   0.225E-02-0.205E-03
CGA:   8    -0.152504673293E+04   -0.68905E-03   -0.68902E-03   624   0.943E-03 0.343E-05
CGA:   9    -0.152504696484E+04   -0.23191E-03   -0.23974E-03   624   0.310E-03 0.163E-03
CGA:  10    -0.152504705981E+04   -0.94973E-04   -0.96763E-04   624   0.118E-03 0.540E-04
CGA:  11    -0.152504710186E+04   -0.42048E-04   -0.41877E-04   624   0.611E-04 0.369E-04
CGA:  12    -0.152504713035E+04   -0.28493E-04   -0.27155E-04   624   0.478E-04 0.328E-04
CGA:  13    -0.152504714256E+04   -0.12207E-04   -0.12903E-04   624   0.275E-04 0.228E-04
CGA:  14    -0.152504715061E+04   -0.80514E-05   -0.97791E-05   624   0.238E-04 0.298E-04
   9 F= -.15250472E+04 E0= -.15250472E+04  d E =-.529065E-01  mag=    16.0000
       N       E                     dE             d eps       ncg     rms          ort
SDA:   1    -0.152028983037E+04    0.47573E+01    0.00000E+00   624   0.113E+02 0.000E+00
CGA:   2    -0.152424573554E+04   -0.39559E+01   -0.39565E+01   624   0.342E+01-0.105E-01
CGA:   3    -0.152492561881E+04   -0.67988E+00   -0.67998E+00   624   0.658E+00 0.105E-02
CGA:   4    -0.152504811590E+04   -0.12250E+00   -0.12276E+00   624   0.140E+00 0.278E-02
CGA:   5    -0.152507792954E+04   -0.29814E-01   -0.29869E-01   624   0.340E-01 0.736E-03
CGA:   6    -0.152508621133E+04   -0.82818E-02   -0.82684E-02   624   0.100E-01-0.307E-03
CGA:   7    -0.152508909433E+04   -0.28830E-02   -0.28852E-02   624   0.424E-02-0.305E-03
CGA:   8    -0.152509040311E+04   -0.13088E-02   -0.13088E-02   624   0.182E-02 0.373E-05
CGA:   9    -0.152509090143E+04   -0.49832E-03   -0.50038E-03   624   0.646E-03 0.182E-03
CGA:  10    -0.152509109894E+04   -0.19751E-03   -0.19784E-03   624   0.267E-03 0.485E-04
CGA:  11    -0.152509119233E+04   -0.93387E-04   -0.91805E-04   624   0.143E-03 0.455E-04
CGA:  12    -0.152509127270E+04   -0.80370E-04   -0.75041E-04   624   0.132E-03 0.323E-04
CGA:  13    -0.152509133230E+04   -0.59602E-04   -0.55565E-04   624   0.943E-04 0.831E-04
CGA:  14    -0.152509136214E+04   -0.29835E-04   -0.29338E-04   624   0.448E-04 0.355E-04
CGA:  15    -0.152509137435E+04   -0.12209E-04   -0.14761E-04   624   0.363E-04 0.433E-04
CGA:  16    -0.152509139459E+04   -0.20242E-04   -0.16554E-04   624   0.350E-04 0.227E-04
CGA:  17    -0.152509139779E+04   -0.32039E-05   -0.62778E-05   624   0.277E-04 0.248E-04
CGA:  18    -0.152509141344E+04   -0.15648E-04   -0.12370E-04   624   0.335E-04 0.217E-04
CGA:  19    -0.152509141468E+04   -0.12359E-05   -0.48150E-05   624   0.242E-04 0.223E-04
CGA:  20    -0.152509142751E+04   -0.12837E-04   -0.10123E-04   624   0.246E-04 0.221E-04
CGA:  21    -0.152509142934E+04   -0.18316E-05   -0.44100E-05   624   0.224E-04 0.209E-04
CGA:  22    -0.152509144230E+04   -0.12957E-04   -0.10003E-04   624   0.248E-04 0.194E-04
CGA:  23    -0.152509144278E+04   -0.47620E-06   -0.35501E-05   624   0.201E-04 0.192E-04
  10 F= -.15250914E+04 E0= -.15250914E+04  d E =-.442922E-01  mag=    16.0000
       N       E                     dE             d eps       ncg     rms          ort
SDA:   1    -0.150366708628E+04    0.21424E+02    0.00000E+00   624   0.509E+02 0.000E+00
CGA:   2    -0.152129382708E+04   -0.17627E+02   -0.17626E+02   624   0.151E+02 0.141E-01
CGA:   3    -0.152433698298E+04   -0.30432E+01   -0.30386E+01   624   0.295E+01 0.934E-02
CGA:   4    -0.152489387484E+04   -0.55689E+00   -0.55759E+00   624   0.645E+00 0.570E-02
CGA:   5    -0.152503486858E+04   -0.14099E+00   -0.14119E+00   624   0.168E+00 0.278E-02
CGA:   6    -0.152507647484E+04   -0.41606E-01   -0.41593E-01   624   0.543E-01-0.372E-03
CGA:   7    -0.152509231834E+04   -0.15843E-01   -0.15850E-01   624   0.237E-01-0.985E-03
CGA:   8    -0.152509965527E+04   -0.73369E-02   -0.73388E-02   624   0.983E-02-0.331E-04
CGA:   9    -0.152510249649E+04   -0.28412E-02   -0.28412E-02   624   0.367E-02 0.476E-04
CGA:  10    -0.152510348226E+04   -0.98577E-03   -0.98604E-03   624   0.132E-02 0.219E-04
CGA:  11    -0.152510391479E+04   -0.43253E-03   -0.43179E-03   624   0.642E-03 0.206E-04
CGA:  12    -0.152510421118E+04   -0.29638E-03   -0.30509E-03   624   0.610E-03-0.503E-04
CGA:  13    -0.152510440073E+04   -0.18955E-03   -0.18586E-03   624   0.375E-03 0.110E-03
CGA:  14    -0.152510456955E+04   -0.16882E-03   -0.16404E-03   624   0.209E-03 0.639E-04
CGA:  15    -0.152510463129E+04   -0.61737E-04   -0.65734E-04   624   0.109E-03 0.115E-03
CGA:  16    -0.152510467067E+04   -0.39389E-04   -0.37730E-04   624   0.632E-04 0.369E-04
CGA:  17    -0.152510468618E+04   -0.15505E-04   -0.19620E-04   624   0.474E-04 0.572E-04
CGA:  18    -0.152510470530E+04   -0.19123E-04   -0.17190E-04   624   0.386E-04 0.306E-04
CGA:  19    -0.152510471032E+04   -0.50150E-05   -0.79365E-05   624   0.338E-04 0.298E-04
CGA:  20    -0.152510473044E+04   -0.20121E-04   -0.15915E-04   624   0.450E-04 0.241E-04
CGA:  21    -0.152510473221E+04   -0.17701E-05   -0.61309E-05   624   0.279E-04 0.256E-04
CGA:  22    -0.152510474722E+04   -0.15011E-04   -0.11809E-04   624   0.273E-04 0.255E-04
CGA:  23    -0.152510475071E+04   -0.34895E-05   -0.56954E-05   624   0.254E-04 0.230E-04
CGA:  24    -0.152510476871E+04   -0.17998E-04   -0.13619E-04   624   0.377E-04 0.183E-04
CGA:  25    -0.152510476937E+04   -0.66239E-06   -0.45930E-05   624   0.212E-04 0.208E-04
  11 F= -.15251048E+04 E0= -.15251048E+04  d E =-.133266E-01  mag=    16.0000
       N       E                     dE             d eps       ncg     rms          ort
SDA:   1    -0.152210154216E+04    0.30032E+01    0.00000E+00   624   0.734E+01 0.000E+00
CGA:   2    -0.152450388335E+04   -0.24023E+01   -0.24024E+01   624   0.250E+01-0.197E-02
CGA:   3    -0.152501489279E+04   -0.51101E+00   -0.51083E+00   624   0.487E+00-0.129E-02
CGA:   4    -0.152510529996E+04   -0.90407E-01   -0.90538E-01   624   0.101E+00 0.149E-02
CGA:   5    -0.152512642226E+04   -0.21122E-01   -0.21171E-01   624   0.252E-01 0.570E-03
CGA:   6    -0.152513263070E+04   -0.62084E-02   -0.62089E-02   624   0.786E-02 0.123E-04
CGA:   7    -0.152513491268E+04   -0.22820E-02   -0.22821E-02   624   0.342E-02-0.104E-03
CGA:   8    -0.152513601169E+04   -0.10990E-02   -0.10969E-02   624   0.158E-02 0.611E-04
CGA:   9    -0.152513648298E+04   -0.47129E-03   -0.47109E-03   624   0.604E-03 0.148E-03
CGA:  10    -0.152513669959E+04   -0.21660E-03   -0.21728E-03   624   0.319E-03-0.177E-04
CGA:  11    -0.152513678339E+04   -0.83802E-04   -0.85042E-04   624   0.152E-03 0.667E-04
CGA:  12    -0.152513686738E+04   -0.83990E-04   -0.82942E-04   624   0.151E-03 0.565E-05
CGA:  13    -0.152513692479E+04   -0.57416E-04   -0.54646E-04   624   0.112E-03 0.549E-04
CGA:  14    -0.152513696600E+04   -0.41208E-04   -0.42687E-04   624   0.662E-04 0.625E-04
CGA:  15    -0.152513699692E+04   -0.30918E-04   -0.30345E-04   624   0.643E-04 0.346E-05
CGA:  16    -0.152513700988E+04   -0.12959E-04   -0.15822E-04   624   0.416E-04 0.378E-04
CGA:  17    -0.152513703315E+04   -0.23271E-04   -0.25895E-04   624   0.789E-04-0.851E-05
CGA:  18    -0.152513704423E+04   -0.11075E-04   -0.14462E-04   624   0.696E-04 0.368E-04
CGA:  19    -0.152513707514E+04   -0.30917E-04   -0.31379E-04   624   0.621E-04 0.480E-04
CGA:  20    -0.152513709307E+04   -0.17933E-04   -0.27111E-04   624   0.242E-03-0.755E-04
CGA:  21    -0.152513710690E+04   -0.13829E-04   -0.24943E-04   624   0.213E-04 0.523E-04
CGA:  22    -0.152513710638E+04    0.52091E-06   -0.25391E-05   624   0.151E-04 0.144E-04
CGA:  23    -0.152513714915E+04   -0.42768E-04   -0.20040E-04   624   0.907E-04 0.675E-05
CGA:  24    -0.152513718330E+04   -0.34146E-04   -0.44837E-04   624   0.438E-04 0.481E-04
CGA:  25    -0.152513720593E+04   -0.22638E-04   -0.14190E-04   624   0.850E-04-0.389E-04
CGA:  26    -0.152513720579E+04    0.14858E-06   -0.87066E-05   624   0.105E-04 0.214E-04
  12 F= -.15251372E+04 E0= -.15251372E+04  d E =-.324364E-01  mag=    16.0000
       N       E                     dE             d eps       ncg     rms          ort
SDA:   1    -0.152225442300E+04    0.28828E+01    0.00000E+00   624   0.680E+01 0.000E+00
CGA:   2    -0.152465221500E+04   -0.23978E+01   -0.23988E+01   624   0.201E+01 0.213E-02
CGA:   3    -0.152506078328E+04   -0.40857E+00   -0.40757E+00   624   0.381E+00 0.456E-03
CGA:   4    -0.152513355126E+04   -0.72768E-01   -0.72578E-01   624   0.845E-01-0.877E-03
CGA:   5    -0.152515155229E+04   -0.18001E-01   -0.17944E-01   624   0.209E-01-0.221E-03
CGA:   6    -0.152515661319E+04   -0.50609E-02   -0.50286E-02   624   0.636E-02-0.158E-03
CGA:   7    -0.152515841693E+04   -0.18037E-02   -0.17974E-02   624   0.260E-02-0.406E-04
CGA:   8    -0.152515927947E+04   -0.86254E-03   -0.85800E-03   624   0.118E-02-0.470E-04
CGA:   9    -0.152515971582E+04   -0.43635E-03   -0.42241E-03   624   0.678E-03-0.257E-03
CGA:  10    -0.152515984954E+04   -0.13372E-03   -0.12692E-03   624   0.228E-03-0.366E-04
CGA:  11    -0.152515992159E+04   -0.72054E-04   -0.69851E-04   624   0.107E-03-0.263E-04
CGA:  12    -0.152515995214E+04   -0.30550E-04   -0.31406E-04   624   0.584E-04 0.119E-04
CGA:  13    -0.152515997461E+04   -0.22468E-04   -0.22666E-04   624   0.400E-04 0.402E-05
CGA:  14    -0.152515999212E+04   -0.17507E-04   -0.17661E-04   624   0.333E-04-0.913E-05
CGA:  15    -0.152515999473E+04   -0.26122E-05   -0.46597E-05   624   0.164E-04 0.951E-05
  13 F= -.15251600E+04 E0= -.15251600E+04  d E =-.227889E-01  mag=    16.0000
       N       E                     dE             d eps       ncg     rms          ort
SDA:   1    -0.152477189867E+04    0.38809E+00    0.00000E+00   624   0.962E+00 0.000E+00
CGA:   2    -0.152508365755E+04   -0.31176E+00   -0.31187E+00   624   0.349E+00 0.214E-02
CGA:   3    -0.152515329810E+04   -0.69641E-01   -0.69392E-01   624   0.659E-01-0.137E-02
CGA:   4    -0.152516574159E+04   -0.12443E-01   -0.12340E-01   624   0.140E-01-0.583E-03
CGA:   5    -0.152516861341E+04   -0.28718E-02   -0.28552E-02   624   0.337E-02-0.110E-03
CGA:   6    -0.152516937172E+04   -0.75831E-03   -0.77041E-03   624   0.880E-03 0.104E-03
CGA:   7    -0.152516960715E+04   -0.23543E-03   -0.24091E-03   624   0.314E-03 0.721E-04
CGA:   8    -0.152516972939E+04   -0.12224E-03   -0.12251E-03   624   0.170E-03-0.117E-04
CGA:   9    -0.152516978157E+04   -0.52183E-04   -0.52120E-04   624   0.645E-04-0.302E-05
CGA:  10    -0.152516980326E+04   -0.21689E-04   -0.21753E-04   624   0.344E-04-0.127E-04
CGA:  11    -0.152516980328E+04   -0.13868E-07   -0.32549E-05   624   0.164E-04 0.147E-04
  14 F= -.15251698E+04 E0= -.15251698E+04  d E =-.980854E-02  mag=    16.0000
       N       E                     dE             d eps       ncg     rms          ort
SDA:   1    -0.152074723736E+04    0.44226E+01    0.00000E+00   624   0.105E+02 0.000E+00
CGA:   2    -0.152431415028E+04   -0.35669E+01   -0.35669E+01   624   0.359E+01 0.246E-02
CGA:   3    -0.152502254906E+04   -0.70840E+00   -0.70760E+00   624   0.648E+00-0.552E-02
CGA:   4    -0.152514323818E+04   -0.12069E+00   -0.12068E+00   624   0.138E+00 0.461E-04
CGA:   5    -0.152517206869E+04   -0.28831E-01   -0.28846E-01   624   0.332E-01 0.187E-03
CGA:   6    -0.152517998953E+04   -0.79208E-02   -0.79235E-02   624   0.917E-02 0.453E-04
CGA:   7    -0.152518263470E+04   -0.26452E-02   -0.26449E-02   624   0.375E-02-0.246E-04
CGA:   8    -0.152518390116E+04   -0.12665E-02   -0.12703E-02   624   0.181E-02-0.865E-04
CGA:   9    -0.152518445836E+04   -0.55721E-03   -0.55749E-03   624   0.722E-03-0.159E-04
CGA:  10    -0.152518467530E+04   -0.21694E-03   -0.21724E-03   624   0.353E-03-0.703E-04
CGA:  11    -0.152518473834E+04   -0.63035E-04   -0.68538E-04   624   0.128E-03 0.659E-04
CGA:  12    -0.152518478995E+04   -0.51605E-04   -0.50734E-04   624   0.891E-04 0.225E-04
CGA:  13    -0.152518483343E+04   -0.43484E-04   -0.44703E-04   624   0.136E-03-0.964E-05
CGA:  14    -0.152518484866E+04   -0.15232E-04   -0.21014E-04   624   0.783E-04 0.441E-04
CGA:  15    -0.152518485591E+04   -0.72536E-05   -0.14027E-04   624   0.467E-04 0.417E-04
CGA:  16    -0.152518487459E+04   -0.18680E-04   -0.20106E-04   624   0.653E-04-0.100E-04
CGA:  17    -0.152518487612E+04   -0.15211E-05   -0.61214E-05   624   0.325E-04 0.260E-04
  15 F= -.15251849E+04 E0= -.15251849E+04  d E =-.150728E-01  mag=    16.0000
       N       E                     dE             d eps       ncg     rms          ort
SDA:   1    -0.150367091484E+04    0.21514E+02    0.00000E+00   624   0.551E+02 0.000E+00
CGA:   2    -0.151857017746E+04   -0.14899E+02   -0.14900E+02   624   0.228E+02 0.356E-01
CGA:   3    -0.152332244188E+04   -0.47523E+01   -0.47524E+01   624   0.500E+01-0.452E-02
CGA:   4    -0.152425542758E+04   -0.93299E+00   -0.93418E+00   624   0.103E+01 0.146E-01
CGA:   5    -0.152446631464E+04   -0.21089E+00   -0.21122E+00   624   0.252E+00 0.490E-02
CGA:   6    -0.152452998360E+04   -0.63669E-01   -0.63636E-01   624   0.844E-01-0.218E-02
CGA:   7    -0.152455411014E+04   -0.24127E-01   -0.24178E-01   624   0.320E-01-0.216E-02
CGA:   8    -0.152456378888E+04   -0.96787E-02   -0.96557E-02   624   0.124E-01 0.538E-03
CGA:   9    -0.152456772547E+04   -0.39366E-02   -0.39207E-02   624   0.453E-02 0.393E-03
CGA:  10    -0.152456923704E+04   -0.15116E-02   -0.15305E-02   624   0.234E-02-0.326E-03
CGA:  11    -0.152456996430E+04   -0.72725E-03   -0.75738E-03   624   0.181E-02-0.396E-03
CGA:  12    -0.152457045179E+04   -0.48750E-03   -0.48770E-03   624   0.112E-02-0.966E-06
CGA:  13    -0.152457100424E+04   -0.55245E-03   -0.54145E-03   624   0.903E-03 0.494E-04
CGA:  14    -0.152457134198E+04   -0.33773E-03   -0.32220E-03   624   0.549E-03 0.295E-03
CGA:  15    -0.152457165222E+04   -0.31024E-03   -0.31745E-03   624   0.628E-03-0.538E-04
CGA:  16    -0.152457178284E+04   -0.13062E-03   -0.13880E-03   624   0.386E-03 0.146E-03
CGA:  17    -0.152457191036E+04   -0.12752E-03   -0.13055E-03   624   0.295E-03 0.132E-03
CGA:  18    -0.152457204820E+04   -0.13784E-03   -0.14198E-03   624   0.357E-03-0.687E-04
CGA:  19    -0.152457212260E+04   -0.74405E-04   -0.75300E-04   624   0.321E-03 0.322E-04
CGA:  20    -0.152457219106E+04   -0.68454E-04   -0.74055E-04   624   0.237E-03 0.624E-04
CGA:  21    -0.152457228306E+04   -0.92000E-04   -0.93208E-04   624   0.154E-03-0.371E-04
CGA:  22    -0.152457232264E+04   -0.39586E-04   -0.39647E-04   624   0.150E-03-0.838E-05
CGA:  23    -0.152457233875E+04   -0.16102E-04   -0.23163E-04   624   0.809E-04 0.522E-04
CGA:  24    -0.152457234870E+04   -0.99571E-05   -0.16205E-04   624   0.502E-04 0.440E-04
CGA:  25    -0.152457237792E+04   -0.29218E-04    0.22657E-03   624   0.297E-04 0.168E-04
CGA:  26    -0.152457238960E+04   -0.11683E-04   -0.11554E-04   624   0.162E-04 0.139E-04
CGA:  27    -0.152457241334E+04   -0.23736E-04   -0.19724E-04   624   0.218E-04 0.687E-05
CGA:  28    -0.152457242432E+04   -0.10983E-04   -0.10500E-04   624   0.177E-04 0.169E-04
CGA:  29    -0.152457243138E+04   -0.70579E-05   -0.68936E-05   624   0.199E-04 0.213E-05
  16 F= -.15245724E+04 E0= -.15245724E+04  d E =0.612445E+00  mag=    16.0000
       N       E                     dE             d eps       ncg     rms          ort
SDA:   1    -0.152058359949E+04    0.39888E+01    0.00000E+00   624   0.115E+02 0.000E+00
CGA:   2    -0.152388726633E+04   -0.33037E+01   -0.33039E+01   624   0.454E+01 0.129E-01
CGA:   3    -0.152482577370E+04   -0.93851E+00   -0.93760E+00   624   0.108E+01-0.821E-02
CGA:   4    -0.152504195493E+04   -0.21618E+00   -0.21528E+00   624   0.235E+00-0.794E-02
CGA:   5    -0.152508934234E+04   -0.47387E-01   -0.47263E-01   624   0.592E-01-0.124E-02
CGA:   6    -0.152510390263E+04   -0.14560E-01   -0.14619E-01   624   0.199E-01 0.127E-02
CGA:   7    -0.152510946262E+04   -0.55600E-02   -0.55751E-02   624   0.698E-02 0.810E-03
CGA:   8    -0.152511201145E+04   -0.25488E-02   -0.25974E-02   624   0.360E-02-0.736E-03
CGA:   9    -0.152511305273E+04   -0.10413E-02   -0.10569E-02   624   0.157E-02-0.461E-03
CGA:  10    -0.152511345686E+04   -0.40413E-03   -0.40401E-03   624   0.680E-03-0.953E-04
CGA:  11    -0.152511367916E+04   -0.22230E-03   -0.22234E-03   624   0.451E-03 0.547E-06
CGA:  12    -0.152511389727E+04   -0.21811E-03   -0.22236E-03   624   0.458E-03-0.228E-04
CGA:  13    -0.152511411899E+04   -0.22172E-03   -0.32567E-03   624   0.987E-03-0.238E-03
CGA:  14    -0.152511430104E+04   -0.18205E-03   -0.18891E-03   624   0.283E-03 0.538E-04
CGA:  15    -0.152511440487E+04   -0.10382E-03   -0.10544E-03   624   0.158E-03-0.536E-04
CGA:  16    -0.152511443530E+04   -0.30434E-04   -0.33057E-04   624   0.637E-04 0.391E-04
CGA:  17    -0.152511445929E+04   -0.23993E-04   -0.24314E-04   624   0.399E-04 0.198E-04
CGA:  18    -0.152511448472E+04   -0.25430E-04   -0.25515E-04   624   0.782E-04-0.707E-06
CGA:  19    -0.152511449911E+04   -0.14386E-04   -0.17733E-04   624   0.717E-04 0.337E-04
CGA:  20    -0.152511451869E+04   -0.19583E-04   -0.23205E-04   624   0.650E-04 0.366E-04
CGA:  21    -0.152511416969E+04    0.34900E-03   -0.10260E-03   624   0.353E-02-0.357E-03
CGA:  22    -0.152511456704E+04   -0.39734E-03   -0.43313E-03   624   0.121E-03 0.191E-03
CGA:  23    -0.152511459715E+04   -0.30109E-04   -0.33221E-04   624   0.363E-04 0.288E-04
CGA:  24    -0.152511460671E+04   -0.95648E-05   -0.95908E-05   624   0.112E-04 0.372E-06
  17 F= -.15251146E+04 E0= -.15251146E+04  d E =-.542175E+00  mag=    16.0000
       N       E                     dE             d eps       ncg     rms          ort
SDA:   1    -0.152491579509E+04    0.19880E+00    0.00000E+00   624   0.652E+00 0.000E+00
CGA:   2    -0.152508580598E+04   -0.17001E+00   -0.17026E+00   624   0.268E+00 0.308E-02
CGA:   3    -0.152514333094E+04   -0.57525E-01   -0.57423E-01   624   0.637E-01-0.830E-03
CGA:   4    -0.152515598626E+04   -0.12655E-01   -0.12441E-01   624   0.143E-01-0.153E-02
CGA:   5    -0.152515889049E+04   -0.29042E-02   -0.28558E-02   624   0.343E-02-0.393E-03
CGA:   6    -0.152515962068E+04   -0.73019E-03   -0.75470E-03   624   0.100E-02 0.259E-03
CGA:   7    -0.152515985681E+04   -0.23613E-03   -0.25434E-03   624   0.324E-03 0.225E-03
CGA:   8    -0.152515999882E+04   -0.14201E-03   -0.14227E-03   624   0.209E-03-0.558E-05
CGA:   9    -0.152516007815E+04   -0.79335E-04   -0.87473E-04   624   0.165E-03-0.734E-04
CGA:  10    -0.152516010381E+04   -0.25662E-04   -0.25891E-04   624   0.812E-04 0.280E-05
CGA:  11    -0.152516011739E+04   -0.13576E-04   -0.16742E-04   624   0.532E-04 0.278E-04
CGA:  12    -0.152516013016E+04   -0.12766E-04   -0.15749E-04   624   0.388E-04 0.331E-04
CGA:  13    -0.152516015133E+04   -0.21175E-04   -0.23918E-04   624   0.543E-04-0.890E-05
CGA:  14    -0.152516017096E+04   -0.19629E-04   -0.18868E-04   624   0.330E-04 0.583E-05
CGA:  15    -0.152516017520E+04   -0.42417E-05   -0.67663E-05   624   0.145E-04 0.177E-04
  18 F= -.15251602E+04 E0= -.15251602E+04  d E =-.455685E-01  mag=    16.0000
       N       E                     dE             d eps       ncg     rms          ort
SDA:   1    -0.152451482804E+04    0.64534E+00    0.00000E+00   624   0.188E+01 0.000E+00
CGA:   2    -0.152497485521E+04   -0.46003E+00   -0.46036E+00   624   0.777E+00 0.472E-02
CGA:   3    -0.152514629555E+04   -0.17144E+00   -0.17131E+00   624   0.184E+00-0.149E-02
CGA:   4    -0.152518095812E+04   -0.34663E-01   -0.34372E-01   624   0.388E-01-0.228E-02
CGA:   5    -0.152518888322E+04   -0.79251E-02   -0.78619E-02   624   0.926E-02-0.625E-03
CGA:   6    -0.152519097320E+04   -0.20900E-02   -0.21151E-02   624   0.276E-02 0.368E-03
CGA:   7    -0.152519167654E+04   -0.70334E-03   -0.72041E-03   624   0.871E-03 0.373E-03
CGA:   8    -0.152519201657E+04   -0.34003E-03   -0.34007E-03   624   0.458E-03-0.880E-06
CGA:   9    -0.152519218802E+04   -0.17145E-03   -0.17916E-03   624   0.267E-03-0.818E-04
CGA:  10    -0.152519224887E+04   -0.60844E-04   -0.61154E-04   624   0.107E-03 0.134E-04
CGA:  11    -0.152519227047E+04   -0.21603E-04   -0.25199E-04   624   0.587E-04 0.473E-04
CGA:  12    -0.152519228585E+04   -0.15377E-04   -0.18717E-04   624   0.388E-04 0.436E-04
CGA:  13    -0.152519231240E+04   -0.26548E-04   -0.30304E-04   624   0.800E-04-0.783E-05
CGA:  14    -0.152519232951E+04   -0.17117E-04   -0.17917E-04   624   0.539E-04 0.216E-04
CGA:  15    -0.152519234199E+04   -0.12474E-04   -0.15152E-04   624   0.220E-04 0.282E-04
CGA:  16    -0.152519234633E+04   -0.43384E-05   -0.51169E-05   624   0.127E-04 0.994E-05
  19 F= -.15251923E+04 E0= -.15251923E+04  d E =-.321711E-01  mag=    16.0000
       N       E                     dE             d eps       ncg     rms          ort
SDA:   1    -0.152514612442E+04    0.46218E-01    0.00000E+00   624   0.153E+00 0.000E+00
CGA:   2    -0.152518114387E+04   -0.35019E-01   -0.35021E-01   624   0.617E-01 0.427E-04
CGA:   3    -0.152519515023E+04   -0.14006E-01   -0.14005E-01   624   0.151E-01-0.437E-04
CGA:   4    -0.152519780926E+04   -0.26590E-02   -0.26521E-02   624   0.279E-02-0.544E-04
CGA:   5    -0.152519835820E+04   -0.54894E-03   -0.55356E-03   624   0.648E-03 0.514E-04
CGA:   6    -0.152519851352E+04   -0.15532E-03   -0.15636E-03   624   0.193E-03 0.219E-04
CGA:   7    -0.152519857520E+04   -0.61681E-04   -0.62179E-04   624   0.886E-04-0.168E-04
CGA:   8    -0.152519859766E+04   -0.22456E-04   -0.22507E-04   624   0.348E-04 0.942E-05
CGA:   9    -0.152519860972E+04   -0.12064E-04   -0.11913E-04   624   0.164E-04 0.571E-05
CGA:  10    -0.152519861329E+04   -0.35704E-05   -0.41706E-05   624   0.813E-05 0.901E-05
  20 F= -.15251986E+04 E0= -.15251986E+04  d E =-.626696E-02  mag=    16.0000
       N       E                     dE             d eps       ncg     rms          ort
SDA:   1    -0.152494805245E+04    0.25056E+00    0.00000E+00   624   0.736E+00 0.000E+00
CGA:   2    -0.152512339551E+04   -0.17534E+00   -0.17530E+00   624   0.301E+00-0.841E-03
CGA:   3    -0.152518988879E+04   -0.66493E-01   -0.66506E-01   624   0.713E-01 0.140E-03
CGA:   4    -0.152520246080E+04   -0.12572E-01   -0.12617E-01   624   0.132E-01 0.448E-03
CGA:   5    -0.152520508829E+04   -0.26275E-02   -0.26528E-02   624   0.302E-02 0.328E-03
CGA:   6    -0.152520586289E+04   -0.77461E-03   -0.77422E-03   624   0.966E-03-0.171E-04
CGA:   7    -0.152520616300E+04   -0.30010E-03   -0.30717E-03   624   0.468E-03-0.147E-03
CGA:   8    -0.152520627120E+04   -0.10820E-03   -0.10824E-03   624   0.172E-03 0.253E-04
CGA:   9    -0.152520631506E+04   -0.43864E-04   -0.44955E-04   624   0.627E-04 0.417E-04
CGA:  10    -0.152520633407E+04   -0.19010E-04   -0.19504E-04   624   0.277E-04 0.222E-04
CGA:  11    -0.152520635048E+04   -0.16409E-04   -0.16597E-04   624   0.264E-04-0.122E-05
CGA:  12    -0.152520635890E+04   -0.84174E-05   -0.18304E-04   624   0.658E-04-0.226E-04
CGA:  13    -0.152520636556E+04   -0.66569E-05   -0.10358E-04   624   0.219E-04 0.257E-04
  21 F= -.15252064E+04 E0= -.15252064E+04  d E =-.775227E-02  mag=    16.0000
       N       E                     dE             d eps       ncg     rms          ort
SDA:   1    -0.152515958937E+04    0.46770E-01    0.00000E+00   624   0.126E+00 0.000E+00
CGA:   2    -0.152519613880E+04   -0.36549E-01   -0.36550E-01   624   0.478E-01 0.172E-03
CGA:   3    -0.152520611437E+04   -0.99756E-02   -0.99692E-02   624   0.101E-01-0.754E-04
CGA:   4    -0.152520795013E+04   -0.18358E-02   -0.18403E-02   624   0.198E-02 0.440E-04
CGA:   5    -0.152520833536E+04   -0.38523E-03   -0.38982E-03   624   0.453E-03 0.539E-04
CGA:   6    -0.152520845119E+04   -0.11583E-03   -0.11583E-03   624   0.141E-03-0.103E-06
CGA:   7    -0.152520849698E+04   -0.45786E-04   -0.46918E-04   624   0.773E-04-0.196E-04
CGA:   8    -0.152520851786E+04   -0.20879E-04   -0.20797E-04   624   0.339E-04 0.236E-05
CGA:   9    -0.152520852569E+04   -0.78301E-05   -0.83128E-05   624   0.132E-04 0.114E-04
  22 F= -.15252085E+04 E0= -.15252085E+04  d E =-.216013E-02  mag=    16.0000
       N       E                     dE             d eps       ncg     rms          ort
SDA:   1    -0.152447169688E+04    0.73682E+00    0.00000E+00   624   0.188E+01 0.000E+00
CGA:   2    -0.152502509580E+04   -0.55340E+00   -0.55340E+00   624   0.742E+00-0.152E-03
CGA:   3    -0.152517512046E+04   -0.15002E+00   -0.14996E+00   624   0.148E+00-0.719E-03
CGA:   4    -0.152520190026E+04   -0.26780E-01   -0.26819E-01   624   0.291E-01 0.422E-03
CGA:   5    -0.152520774111E+04   -0.58409E-02   -0.58646E-02   624   0.679E-02 0.328E-03
CGA:   6    -0.152520940066E+04   -0.16595E-02   -0.16589E-02   624   0.196E-02-0.207E-04
CGA:   7    -0.152520996897E+04   -0.56831E-03   -0.57024E-03   624   0.805E-03-0.843E-04
CGA:   8    -0.152521021288E+04   -0.24391E-03   -0.24254E-03   624   0.335E-03 0.303E-04
CGA:   9    -0.152521031381E+04   -0.10093E-03   -0.10007E-03   624   0.120E-03 0.545E-04
CGA:  10    -0.152521036265E+04   -0.48835E-04   -0.48828E-04   624   0.688E-04 0.616E-07
CGA:  11    -0.152521038248E+04   -0.19834E-04   -0.19717E-04   624   0.373E-04 0.120E-04
CGA:  12    -0.152521040104E+04   -0.18559E-04   -0.18420E-04   624   0.349E-04 0.785E-06
CGA:  13    -0.152521040901E+04   -0.79740E-05   -0.87426E-05   624   0.234E-04 0.194E-04
  23 F= -.15252104E+04 E0= -.15252104E+04  d E =-.188333E-02  mag=    16.0000
       N       E                     dE             d eps       ncg     rms          ort
SDA:   1    -0.152501899328E+04    0.19141E+00    0.00000E+00   624   0.467E+00 0.000E+00
CGA:   2    -0.152517082558E+04   -0.15183E+00   -0.15184E+00   624   0.177E+00-0.141E-03
CGA:   3    -0.152520512383E+04   -0.34298E-01   -0.34247E-01   624   0.324E-01-0.520E-03
CGA:   4    -0.152521108557E+04   -0.59617E-02   -0.59692E-02   624   0.683E-02 0.862E-04
CGA:   5    -0.152521248603E+04   -0.14005E-02   -0.14051E-02   624   0.160E-02 0.681E-04
CGA:   6    -0.152521286886E+04   -0.38283E-03   -0.38355E-03   624   0.438E-03 0.218E-04
CGA:   7    -0.152521299064E+04   -0.12179E-03   -0.12169E-03   624   0.164E-03 0.185E-04
CGA:   8    -0.152521304117E+04   -0.50527E-04   -0.49925E-04   624   0.674E-04 0.268E-04
CGA:   9    -0.152521305922E+04   -0.18047E-04   -0.18874E-04   624   0.269E-04 0.282E-04
CGA:  10    -0.152521306633E+04   -0.71135E-05   -0.81353E-05   624   0.137E-04 0.184E-04
  24 F= -.15252131E+04 E0= -.15252131E+04  d E =-.265732E-02  mag=    16.0000
       N       E                     dE             d eps       ncg     rms          ort
SDA:   1    -0.152514325220E+04    0.69807E-01    0.00000E+00   624   0.189E+00 0.000E+00
CGA:   2    -0.152519451596E+04   -0.51264E-01   -0.51256E-01   624   0.794E-01 0.892E-03
CGA:   3    -0.152521115134E+04   -0.16635E-01   -0.16603E-01   624   0.171E-01-0.583E-03
CGA:   4    -0.152521430577E+04   -0.31544E-02   -0.31254E-02   624   0.344E-02-0.378E-03
CGA:   5    -0.152521501644E+04   -0.71067E-03   -0.70364E-03   624   0.872E-03-0.150E-03
CGA:   6    -0.152521519198E+04   -0.17554E-03   -0.17862E-03   624   0.221E-03 0.778E-04
CGA:   7    -0.152521523532E+04   -0.43334E-04   -0.47543E-04   624   0.730E-04 0.772E-04
CGA:   8    -0.152521525898E+04   -0.23658E-04   -0.23852E-04   624   0.404E-04 0.289E-04
CGA:   9    -0.152521527777E+04   -0.18795E-04   -0.18078E-04   624   0.243E-04 0.995E-05
CGA:  10    -0.152521528305E+04   -0.52798E-05   -0.60377E-05   624   0.126E-04 0.143E-04
  25 F= -.15252153E+04 E0= -.15252153E+04  d E =-.221672E-02  mag=    16.0000
       N       E                     dE             d eps       ncg     rms          ort
SDA:   1    -0.152497091661E+04    0.24436E+00    0.00000E+00   624   0.585E+00 0.000E+00
CGA:   2    -0.152516597694E+04   -0.19506E+00   -0.19498E+00   624   0.220E+00 0.975E-03
CGA:   3    -0.152520808979E+04   -0.42113E-01   -0.42035E-01   624   0.387E-01-0.130E-02
CGA:   4    -0.152521520411E+04   -0.71143E-02   -0.71063E-02   624   0.832E-02-0.124E-03
CGA:   5    -0.152521691396E+04   -0.17098E-02   -0.17103E-02   624   0.195E-02 0.141E-04
CGA:   6    -0.152521735643E+04   -0.44247E-03   -0.44359E-03   624   0.495E-03 0.774E-04
CGA:   7    -0.152521748934E+04   -0.13291E-03   -0.13199E-03   624   0.173E-03 0.578E-04
CGA:   8    -0.152521755368E+04   -0.64346E-04   -0.62492E-04   624   0.850E-04 0.227E-04
CGA:   9    -0.152521757541E+04   -0.21728E-04   -0.22255E-04   624   0.342E-04 0.375E-04
CGA:  10    -0.152521758464E+04   -0.92248E-05   -0.10132E-04   624   0.171E-04 0.231E-04
  26 F= -.15252176E+04 E0= -.15252176E+04  d E =-.230158E-02  mag=    16.0000
       N       E                     dE             d eps       ncg     rms          ort
SDA:   1    -0.150516149242E+04    0.20056E+02    0.00000E+00   624   0.505E+02 0.000E+00
CGA:   2    -0.151912910760E+04   -0.13968E+02   -0.13966E+02   624   0.210E+02 0.346E-01
CGA:   3    -0.152343961740E+04   -0.43105E+01   -0.43106E+01   624   0.465E+01-0.202E-02
CGA:   4    -0.152430804018E+04   -0.86842E+00   -0.86918E+00   624   0.965E+00 0.137E-01
CGA:   5    -0.152450575279E+04   -0.19771E+00   -0.19788E+00   624   0.234E+00 0.520E-02
CGA:   6    -0.152456456648E+04   -0.58814E-01   -0.58846E-01   624   0.790E-01-0.221E-02
CGA:   7    -0.152458678935E+04   -0.22223E-01   -0.22324E-01   624   0.291E-01-0.205E-02
CGA:   8    -0.152459538415E+04   -0.85948E-02   -0.85265E-02   624   0.105E-01 0.111E-02
CGA:   9    -0.152459868095E+04   -0.32968E-02   -0.32539E-02   624   0.346E-02 0.772E-03
CGA:  10    -0.152459983389E+04   -0.11529E-02   -0.11496E-02   624   0.140E-02 0.509E-04
CGA:  11    -0.152460029564E+04   -0.46175E-03   -0.46528E-03   624   0.817E-03-0.430E-04
CGA:  12    -0.152460053693E+04   -0.24129E-03   -0.23757E-03   624   0.479E-03 0.757E-04
CGA:  13    -0.152460067050E+04   -0.13357E-03   -0.13346E-03   624   0.255E-03 0.246E-03
CGA:  14    -0.152460076772E+04   -0.97217E-04   -0.88743E-04   624   0.151E-03 0.899E-04
CGA:  15    -0.152460080322E+04   -0.35503E-04   -0.42698E-04   624   0.106E-03 0.142E-03
CGA:  16    -0.152460086084E+04   -0.57611E-04   -0.46225E-04   624   0.922E-04 0.624E-04
CGA:  17    -0.152460087565E+04   -0.14812E-04   -0.18795E-04   624   0.738E-04 0.644E-04
CGA:  18    -0.152460092785E+04   -0.52201E-04   -0.39808E-04   624   0.124E-03 0.441E-04
CGA:  19    -0.152460093273E+04   -0.48843E-05   -0.14354E-04   624   0.570E-04 0.592E-04
CGA:  20    -0.152460093848E+04   -0.57440E-05   -0.12880E-04   624   0.776E-04 0.617E-04
CGA:  21    -0.152460096998E+04   -0.31507E-04   -0.42906E-04   624   0.377E-03-0.392E-04
CGA:  22    -0.152460099166E+04   -0.21675E-04   -0.37847E-04   624   0.525E-04 0.938E-04
CGA:  23    -0.152460099205E+04   -0.38960E-06   -0.69640E-05   624   0.484E-04 0.406E-04
CGA:  24    -0.152460102979E+04   -0.37737E-04   -0.29370E-04   624   0.110E-03 0.236E-04
CGA:  25    -0.152460105916E+04   -0.29377E-04   -0.36406E-04   624   0.333E-04 0.124E-03
CGA:  26    -0.152460106341E+04   -0.42478E-05   -0.65723E-05   624   0.310E-04 0.298E-04
CGA:  27    -0.152460108006E+04   -0.16647E-04   -0.12779E-04   624   0.320E-04 0.271E-04
CGA:  28    -0.152460108167E+04   -0.16073E-05   -0.48717E-05   624   0.270E-04 0.259E-04
CGA:  29    -0.152460109421E+04   -0.12550E-04   -0.10044E-04   624   0.262E-04 0.249E-04
CGA:  30    -0.152460109662E+04   -0.24026E-05   -0.46827E-05   624   0.241E-04 0.233E-04
  27 F= -.15246011E+04 E0= -.15246011E+04  d E =0.616488E+00  mag=    16.0000
       N       E                     dE             d eps       ncg     rms          ort
SDA:   1    -0.151590088494E+04    0.87002E+01    0.00000E+00   624   0.239E+02 0.000E+00
CGA:   2    -0.152264906178E+04   -0.67482E+01   -0.67481E+01   624   0.933E+01 0.154E-01
CGA:   3    -0.152456778305E+04   -0.19187E+01   -0.19175E+01   624   0.224E+01-0.153E-01
CGA:   4    -0.152501488909E+04   -0.44711E+00   -0.44621E+00   624   0.494E+00-0.117E-01
CGA:   5    -0.152511421050E+04   -0.99321E-01   -0.99246E-01   624   0.118E+00-0.103E-02
CGA:   6    -0.152514335504E+04   -0.29145E-01   -0.29196E-01   624   0.388E-01 0.266E-02
CGA:   7    -0.152515417792E+04   -0.10823E-01   -0.10814E-01   624   0.137E-01 0.129E-02
CGA:   8    -0.152515884719E+04   -0.46693E-02   -0.47451E-02   624   0.646E-02-0.107E-02
CGA:   9    -0.152516060406E+04   -0.17569E-02   -0.17758E-02   624   0.267E-02-0.639E-03
CGA:  10    -0.152516121589E+04   -0.61183E-03   -0.60878E-03   624   0.894E-03-0.165E-03
CGA:  11    -0.152516145356E+04   -0.23766E-03   -0.23748E-03   624   0.335E-03 0.153E-04
CGA:  12    -0.152516159816E+04   -0.14460E-03   -0.14869E-03   624   0.242E-03-0.267E-04
CGA:  13    -0.152516104647E+04    0.55169E-03   -0.31228E-03   624   0.429E-02-0.672E-03
CGA:  14    -0.152516172121E+04   -0.67474E-03   -0.73179E-03   624   0.860E-03 0.205E-03
CGA:  15    -0.152516199491E+04   -0.27370E-03   -0.26015E-03   624   0.286E-03-0.645E-04
CGA:  16    -0.152516206428E+04   -0.69372E-04   -0.76811E-04   624   0.921E-04 0.395E-04
CGA:  17    -0.152516210288E+04   -0.38603E-04   -0.37681E-04   624   0.475E-04-0.811E-05
CGA:  18    -0.152516211888E+04   -0.15997E-04   -0.15420E-04   624   0.311E-04-0.517E-05
CGA:  19    -0.152516212471E+04   -0.58285E-05   -0.74478E-05   624   0.139E-04 0.834E-05
  28 F= -.15251621E+04 E0= -.15251621E+04  d E =-.561028E+00  mag=    16.0000
       N       E                     dE             d eps       ncg     rms          ort
SDA:   1    -0.152510664816E+04    0.55471E-01    0.00000E+00   624   0.221E+00 0.000E+00
CGA:   2    -0.152515830663E+04   -0.51658E-01   -0.51609E-01   624   0.953E-01-0.168E-03
CGA:   3    -0.152517970949E+04   -0.21403E-01   -0.21413E-01   624   0.223E-01 0.398E-04
CGA:   4    -0.152518360320E+04   -0.38937E-02   -0.39032E-02   624   0.412E-02 0.463E-04
CGA:   5    -0.152518447239E+04   -0.86918E-03   -0.86861E-03   624   0.107E-02-0.202E-05
CGA:   6    -0.152518473622E+04   -0.26383E-03   -0.25987E-03   624   0.337E-03-0.235E-04
CGA:   7    -0.152518483474E+04   -0.98516E-04   -0.95662E-04   624   0.126E-03-0.252E-04
CGA:   8    -0.152518487506E+04   -0.40322E-04   -0.39256E-04   624   0.601E-04-0.173E-04
CGA:   9    -0.152518489470E+04   -0.19641E-04   -0.19291E-04   624   0.346E-04-0.159E-04
CGA:  10    -0.152518490457E+04   -0.98687E-05   -0.97262E-05   624   0.285E-04-0.138E-04
CGA:  11    -0.152518491952E+04   -0.14956E-04    0.29690E-04   624   0.270E-04-0.118E-04
CGA:  12    -0.152518489699E+04    0.22536E-04   -0.19192E-04   624   0.254E-03-0.509E-04
CGA:  13    -0.152518495292E+04   -0.55926E-04   -0.48024E-04   624   0.612E-04-0.311E-04
CGA:  14    -0.152518495769E+04   -0.47776E-05   -0.84528E-05   624   0.106E-04 0.141E-04
  29 F= -.15251850E+04 E0= -.15251850E+04  d E =-.228330E-01  mag=    16.0000
       N       E                     dE             d eps       ncg     rms          ort
SDA:   1    -0.152480336611E+04    0.38159E+00    0.00000E+00   624   0.119E+01 0.000E+00
CGA:   2    -0.152507011771E+04   -0.26675E+00   -0.26683E+00   624   0.492E+00 0.481E-03
CGA:   3    -0.152518360404E+04   -0.11349E+00   -0.11346E+00   624   0.121E+00-0.241E-03
CGA:   4    -0.152520449667E+04   -0.20893E-01   -0.20848E-01   624   0.214E-01-0.174E-03
CGA:   5    -0.152520893962E+04   -0.44430E-02   -0.44260E-02   624   0.530E-02-0.103E-03
CGA:   6    -0.152521016937E+04   -0.12297E-02   -0.12338E-02   624   0.150E-02 0.319E-04
CGA:   7    -0.152521055983E+04   -0.39046E-03   -0.39514E-03   624   0.463E-03 0.506E-04
CGA:   8    -0.152521072073E+04   -0.16089E-03   -0.16038E-03   624   0.217E-03-0.355E-04
CGA:   9    -0.152521078847E+04   -0.67741E-04   -0.67484E-04   624   0.889E-04-0.219E-04
CGA:  10    -0.152521081760E+04   -0.29129E-04   -0.29799E-04   624   0.550E-04-0.277E-04
CGA:  11    -0.152521082471E+04   -0.71081E-05   -0.77761E-05   624   0.219E-04 0.472E-05
  30 F= -.15252108E+04 E0= -.15252108E+04  d E =-.258670E-01  mag=    16.0000
       N       E                     dE             d eps       ncg     rms          ort
SDA:   1    -0.152507145539E+04    0.13936E+00    0.00000E+00   624   0.416E+00 0.000E+00
CGA:   2    -0.152517043922E+04   -0.98984E-01   -0.98927E-01   624   0.177E+00-0.504E-03
CGA:   3    -0.152520974902E+04   -0.39310E-01   -0.39295E-01   624   0.408E-01-0.152E-03
CGA:   4    -0.152521677122E+04   -0.70222E-02   -0.70708E-02   624   0.736E-02 0.329E-03
CGA:   5    -0.152521825453E+04   -0.14833E-02   -0.15033E-02   624   0.172E-02 0.169E-03
CGA:   6    -0.152521867386E+04   -0.41933E-03   -0.41957E-03   624   0.522E-03 0.326E-05
CGA:   7    -0.152521882664E+04   -0.15278E-03   -0.15210E-03   624   0.200E-03-0.332E-04
CGA:   8    -0.152521888352E+04   -0.56878E-04   -0.56866E-04   624   0.794E-04-0.215E-05
CGA:   9    -0.152521890036E+04   -0.16839E-04   -0.18441E-04   624   0.253E-04 0.213E-04
CGA:  10    -0.152521890816E+04   -0.78073E-05   -0.82073E-05   624   0.110E-04 0.788E-05
  31 F= -.15252189E+04 E0= -.15252189E+04  d E =-.808346E-02  mag=    16.0000
       N       E                     dE             d eps       ncg     rms          ort
SDA:   1    -0.152505189932E+04    0.16700E+00    0.00000E+00   624   0.442E+00 0.000E+00
CGA:   2    -0.152517888831E+04   -0.12699E+00   -0.12695E+00   624   0.174E+00-0.151E-02
CGA:   3    -0.152521442718E+04   -0.35539E-01   -0.35554E-01   624   0.380E-01 0.163E-03
CGA:   4    -0.152522129264E+04   -0.68655E-02   -0.69416E-02   624   0.750E-02 0.635E-03
CGA:   5    -0.152522277840E+04   -0.14858E-02   -0.15097E-02   624   0.170E-02 0.240E-03
CGA:   6    -0.152522323233E+04   -0.45392E-03   -0.45247E-03   624   0.585E-03-0.417E-04
CGA:   7    -0.152522340706E+04   -0.17473E-03   -0.17559E-03   624   0.255E-03-0.515E-04
CGA:   8    -0.152522347056E+04   -0.63494E-04   -0.64025E-04   624   0.896E-04 0.312E-04
CGA:   9    -0.152522349170E+04   -0.21147E-04   -0.23173E-04   624   0.327E-04 0.333E-04
CGA:  10    -0.152522350297E+04   -0.11271E-04   -0.11644E-04   624   0.161E-04 0.130E-04
CGA:  11    -0.152522351280E+04   -0.98292E-05   -0.95667E-05   624   0.147E-04 0.176E-05
  32 F= -.15252235E+04 E0= -.15252235E+04  d E =-.460464E-02  mag=    16.0000
       N       E                     dE             d eps       ncg     rms          ort
SDA:   1    -0.152517306629E+04    0.50437E-01    0.00000E+00   624   0.135E+00 0.000E+00
CGA:   2    -0.152521285654E+04   -0.39790E-01   -0.39790E-01   624   0.465E-01-0.564E-03
CGA:   3    -0.152522263390E+04   -0.97774E-02   -0.97777E-02   624   0.105E-01 0.159E-04
CGA:   4    -0.152522450864E+04   -0.18747E-02   -0.19003E-02   624   0.198E-02 0.234E-03
CGA:   5    -0.152522489903E+04   -0.39039E-03   -0.39804E-03   624   0.450E-03 0.860E-04
CGA:   6    -0.152522502140E+04   -0.12237E-03   -0.12223E-03   624   0.157E-03-0.665E-05
CGA:   7    -0.152522506614E+04   -0.44738E-04   -0.44732E-04   624   0.686E-04 0.655E-06
CGA:   8    -0.152522508619E+04   -0.20047E-04   -0.19936E-04   624   0.299E-04 0.130E-04
CGA:   9    -0.152522509182E+04   -0.56340E-05   -0.70699E-05   624   0.135E-04 0.173E-04
  33 F= -.15252251E+04 E0= -.15252251E+04  d E =-.157902E-02  mag=    16.0000
       N       E                     dE             d eps       ncg     rms          ort
SDA:   1    -0.152501839660E+04    0.20669E+00    0.00000E+00   624   0.535E+00 0.000E+00
CGA:   2    -0.152517676942E+04   -0.15837E+00   -0.15839E+00   624   0.192E+00-0.170E-02
CGA:   3    -0.152521664092E+04   -0.39872E-01   -0.39896E-01   624   0.414E-01 0.357E-03
CGA:   4    -0.152522411876E+04   -0.74778E-02   -0.75194E-02   624   0.806E-02 0.429E-03
CGA:   5    -0.152522570482E+04   -0.15861E-02   -0.16024E-02   624   0.187E-02 0.209E-03
CGA:   6    -0.152522619174E+04   -0.48692E-03   -0.48639E-03   624   0.595E-03-0.310E-04
CGA:   7    -0.152522637346E+04   -0.18172E-03   -0.18402E-03   624   0.287E-03-0.524E-04
CGA:   8    -0.152522644851E+04   -0.75046E-04   -0.74570E-04   624   0.109E-03 0.384E-04
CGA:   9    -0.152522648469E+04   -0.36186E-04   -0.35802E-04   624   0.460E-04 0.250E-04
CGA:  10    -0.152522650227E+04   -0.17583E-04   -0.17161E-04   624   0.236E-04 0.142E-04
CGA:  11    -0.152522651861E+04   -0.16340E-04   -0.17115E-04   624   0.329E-04-0.302E-05
CGA:  12    -0.152522652803E+04   -0.94111E-05   -0.91572E-05   624   0.302E-04 0.804E-05
CGA:  13    -0.152522653904E+04   -0.11015E-04   -0.10995E-04   624   0.232E-04 0.115E-04
CGA:  14    -0.152522655197E+04   -0.12932E-04   -0.12024E-04   624   0.224E-04 0.101E-04
CGA:  15    -0.152522656528E+04   -0.13309E-04   -0.12347E-04   624   0.222E-04 0.103E-04
CGA:  16    -0.152522658440E+04   -0.19115E-04   -0.17631E-04   624   0.334E-04 0.509E-05
CGA:  17    -0.152522659737E+04   -0.12977E-04   -0.12920E-04   624   0.338E-04 0.191E-04
CGA:  18    -0.152522660898E+04   -0.11603E-04   -0.11373E-04   624   0.958E-05 0.944E-05
CGA:  19    -0.152522661701E+04   -0.80310E-05   -0.77415E-05   624   0.972E-05 0.872E-06
  34 F= -.15252266E+04 E0= -.15252266E+04  d E =-.152519E-02  mag=    16.0000
       N       E                     dE             d eps       ncg     rms          ort
SDA:   1    -0.152515227528E+04    0.74334E-01    0.00000E+00   624   0.192E+00 0.000E+00
CGA:   2    -0.152520816320E+04   -0.55888E-01   -0.55879E-01   624   0.757E-01-0.270E-03
CGA:   3    -0.152522357320E+04   -0.15410E-01   -0.15429E-01   624   0.148E-01 0.176E-03
CGA:   4    -0.152522628801E+04   -0.27148E-02   -0.27413E-02   624   0.288E-02 0.204E-03
CGA:   5    -0.152522688461E+04   -0.59660E-03   -0.60118E-03   624   0.719E-03 0.443E-04
CGA:   6    -0.152522705463E+04   -0.17002E-03   -0.17183E-03   624   0.213E-03 0.264E-04
CGA:   7    -0.152522711879E+04   -0.64155E-04   -0.64222E-04   624   0.932E-04 0.694E-05
CGA:   8    -0.152522715339E+04   -0.34604E-04   -0.34272E-04   624   0.541E-04 0.587E-05
CGA:   9    -0.152522716325E+04   -0.98600E-05   -0.12277E-04   624   0.249E-04 0.270E-04
  35 F= -.15252272E+04 E0= -.15252272E+04  d E =-.546246E-03  mag=    16.0000
       N       E                     dE             d eps       ncg     rms          ort
SDA:   1    -0.152517071171E+04    0.56442E-01    0.00000E+00   624   0.143E+00 0.000E+00
CGA:   2    -0.152521440563E+04   -0.43694E-01   -0.43689E-01   624   0.554E-01 0.519E-03
CGA:   3    -0.152522576376E+04   -0.11358E-01   -0.11327E-01   624   0.108E-01-0.319E-03
CGA:   4    -0.152522780586E+04   -0.20421E-02   -0.20196E-02   624   0.226E-02-0.215E-03
CGA:   5    -0.152522827373E+04   -0.46786E-03   -0.46390E-03   624   0.594E-03-0.512E-04
CGA:   6    -0.152522840067E+04   -0.12694E-03   -0.12940E-03   624   0.169E-03 0.410E-04
CGA:   7    -0.152522844918E+04   -0.48510E-04   -0.48758E-04   624   0.713E-04 0.242E-04
CGA:   8    -0.152522848299E+04   -0.33817E-04   -0.34067E-04   624   0.630E-04-0.191E-05
CGA:   9    -0.152522850618E+04   -0.23186E-04   -0.23713E-04   624   0.497E-04-0.532E-05
CGA:  10    -0.152522852000E+04   -0.13825E-04   -0.13757E-04   624   0.325E-04 0.593E-05
CGA:  11    -0.152522853054E+04   -0.10534E-04   -0.10554E-04   624   0.237E-04 0.142E-04
CGA:  12    -0.152522854664E+04   -0.16103E-04   -0.14618E-04   624   0.255E-04 0.106E-04
CGA:  13    -0.152522856569E+04   -0.19049E-04   -0.18553E-04   624   0.399E-04 0.197E-05
CGA:  14    -0.152522857672E+04   -0.11034E-04   -0.11332E-04   624   0.266E-04 0.615E-05
CGA:  15    -0.152522858492E+04   -0.81930E-05   -0.84619E-05   624   0.223E-04 0.818E-05
  36 F= -.15252286E+04 E0= -.15252286E+04  d E =-.142166E-02  mag=    16.0000
       N       E                     dE             d eps       ncg     rms          ort
SDA:   1    -0.152508487917E+04    0.14370E+00    0.00000E+00   624   0.350E+00 0.000E+00
CGA:   2    -0.152519899610E+04   -0.11412E+00   -0.11411E+00   624   0.122E+00 0.444E-03
CGA:   3    -0.152522392645E+04   -0.24930E-01   -0.24899E-01   624   0.235E-01-0.298E-03
CGA:   4    -0.152522826132E+04   -0.43349E-02   -0.43049E-02   624   0.499E-02-0.259E-03
CGA:   5    -0.152522928027E+04   -0.10189E-02   -0.10185E-02   624   0.119E-02-0.452E-05
CGA:   6    -0.152522955724E+04   -0.27697E-03   -0.27925E-03   624   0.334E-03 0.434E-04
CGA:   7    -0.152522965982E+04   -0.10258E-03   -0.10261E-03   624   0.150E-03-0.285E-05
CGA:   8    -0.152522970918E+04   -0.49364E-04   -0.49054E-04   624   0.716E-04 0.727E-05
CGA:   9    -0.152522973940E+04   -0.30218E-04   -0.38182E-04   624   0.909E-04-0.362E-04
CGA:  10    -0.152522974707E+04   -0.76712E-05   -0.11917E-04   624   0.176E-04 0.254E-04
  37 F= -.15252297E+04 E0= -.15252297E+04  d E =-.116215E-02  mag=    16.0000
       N       E                     dE             d eps       ncg     rms          ort
SDA:   1    -0.152285014566E+04    0.23796E+01    0.00000E+00   624   0.578E+01 0.000E+00
CGA:   2    -0.152469060231E+04   -0.18405E+01   -0.18405E+01   624   0.219E+01 0.119E-03
CGA:   3    -0.152512464541E+04   -0.43404E+00   -0.43383E+00   624   0.404E+00-0.212E-02
CGA:   4    -0.152519819238E+04   -0.73547E-01   -0.73520E-01   624   0.836E-01-0.132E-03
CGA:   5    -0.152521565041E+04   -0.17458E-01   -0.17468E-01   624   0.202E-01 0.152E-03
CGA:   6    -0.152522046205E+04   -0.48116E-02   -0.48131E-02   624   0.582E-02 0.414E-04
CGA:   7    -0.152522211153E+04   -0.16495E-02   -0.16496E-02   624   0.233E-02-0.923E-05
CGA:   8    -0.152522289966E+04   -0.78813E-03   -0.78733E-03   624   0.113E-02 0.130E-04
CGA:   9    -0.152522327638E+04   -0.37672E-03   -0.37971E-03   624   0.554E-03-0.501E-04
CGA:  10    -0.152522340692E+04   -0.13055E-03   -0.13176E-03   624   0.220E-03 0.405E-04
CGA:  11    -0.152522348189E+04   -0.74966E-04   -0.74675E-04   624   0.120E-03 0.739E-05
CGA:  12    -0.152522353920E+04   -0.57309E-04   -0.56786E-04   624   0.987E-04 0.225E-05
CGA:  13    -0.152522358981E+04   -0.50608E-04   -0.50570E-04   624   0.906E-04-0.991E-06
CGA:  14    -0.152522362273E+04   -0.32918E-04   -0.33104E-04   624   0.712E-04-0.367E-05
CGA:  15    -0.152522363817E+04   -0.15444E-04   -0.16645E-04   624   0.335E-04 0.196E-04
CGA:  16    -0.152522365853E+04   -0.20361E-04   -0.20183E-04   624   0.439E-04 0.338E-06
CGA:  17    -0.152522367105E+04   -0.12524E-04   -0.29199E-04   624   0.185E-03-0.493E-04
CGA:  18    -0.152522369682E+04   -0.25767E-04   -0.28343E-04   624   0.378E-04 0.160E-04
CGA:  19    -0.152522371332E+04   -0.16502E-04   -0.17637E-04   624   0.155E-04-0.101E-04
CGA:  20    -0.152522371782E+04   -0.44987E-05   -0.72686E-05   624   0.340E-04-0.867E-05
  38 F= -.15252237E+04 E0= -.15252237E+04  d E =0.602925E-02  mag=    16.0000
       N       E                     dE             d eps       ncg     rms          ort
SDA:   1    -0.152389900807E+04    0.13247E+01    0.00000E+00   624   0.311E+01 0.000E+00
CGA:   2    -0.152493302937E+04   -0.10340E+01   -0.10340E+01   624   0.118E+01 0.134E-02
CGA:   3    -0.152515889853E+04   -0.22587E+00   -0.22555E+00   624   0.227E+00-0.243E-02
CGA:   4    -0.152520204662E+04   -0.43148E-01   -0.43156E-01   624   0.461E-01 0.435E-03
CGA:   5    -0.152521183911E+04   -0.97925E-02   -0.97912E-02   624   0.121E-01-0.638E-05
CGA:   6    -0.152521468862E+04   -0.28495E-02   -0.28588E-02   624   0.364E-02 0.125E-03
CGA:   7    -0.152521568077E+04   -0.99215E-03   -0.99532E-03   624   0.131E-02 0.860E-04
CGA:   8    -0.152521615029E+04   -0.46952E-03   -0.47418E-03   624   0.697E-03-0.101E-03
CGA:   9    -0.152521628998E+04   -0.13969E-03   -0.14794E-03   624   0.221E-03 0.106E-03
CGA:  10    -0.152521637568E+04   -0.85705E-04   -0.87311E-04   624   0.128E-03-0.414E-04
CGA:  11    -0.152521639987E+04   -0.24182E-04   -0.25577E-04   624   0.629E-04 0.226E-04
CGA:  12    -0.152521642100E+04   -0.21131E-04   -0.21330E-04   624   0.441E-04 0.126E-04
CGA:  13    -0.152521639617E+04    0.24828E-04   -0.65870E-04   624   0.484E-03-0.976E-04
CGA:  14    -0.152521646076E+04   -0.64590E-04   -0.82020E-04   624   0.926E-04 0.979E-04
CGA:  15    -0.152521650107E+04   -0.40310E-04   -0.42723E-04   624   0.631E-04-0.560E-04
CGA:  16    -0.152521650358E+04   -0.25097E-05   -0.81676E-05   624   0.172E-04 0.266E-04
  39 F= -.15252165E+04 E0= -.15252165E+04  d E =0.721424E-02  mag=    16.0000
       N       E                     dE             d eps       ncg     rms          ort
SDA:   1    -0.152396994361E+04    0.12466E+01    0.00000E+00   624   0.313E+01 0.000E+00
CGA:   2    -0.152492032650E+04   -0.95038E+00   -0.95034E+00   624   0.126E+01-0.162E-02
CGA:   3    -0.152517023861E+04   -0.24991E+00   -0.24990E+00   624   0.246E+00-0.183E-03
CGA:   4    -0.152521583469E+04   -0.45596E-01   -0.45578E-01   624   0.496E-01-0.945E-05
CGA:   5    -0.152522612329E+04   -0.10289E-01   -0.10311E-01   624   0.123E-01 0.222E-03
CGA:   6    -0.152522916714E+04   -0.30439E-02   -0.30321E-02   624   0.385E-02-0.190E-03
CGA:   7    -0.152523025307E+04   -0.10859E-02   -0.10827E-02   624   0.152E-02-0.173E-03
CGA:   8    -0.152523071733E+04   -0.46427E-03   -0.46453E-03   624   0.645E-03-0.154E-04
CGA:   9    -0.152523094733E+04   -0.23000E-03   -0.24232E-03   624   0.403E-03-0.161E-03
CGA:  10    -0.152523101009E+04   -0.62758E-04   -0.64116E-04   624   0.135E-03 0.149E-04
CGA:  11    -0.152523105924E+04   -0.49147E-04   -0.56252E-04   624   0.128E-03-0.718E-04
CGA:  12    -0.152523108865E+04   -0.29417E-04   -0.29336E-04   624   0.249E-04-0.930E-06
CGA:  13    -0.152523109192E+04   -0.32659E-05   -0.47239E-05   624   0.126E-04 0.129E-04
CGA:  14    -0.152523110035E+04   -0.84311E-05    0.15809E-04   624   0.789E-05 0.618E-05
  40 F= -.15252311E+04 E0= -.15252311E+04  d E =-.145968E-01  mag=    16.0000
       N       E                     dE             d eps       ncg     rms          ort
SDA:   1    -0.152507820393E+04    0.15289E+00    0.00000E+00   624   0.393E+00 0.000E+00
CGA:   2    -0.152519258894E+04   -0.11439E+00   -0.11438E+00   624   0.158E+00-0.518E-03
CGA:   3    -0.152522459814E+04   -0.32009E-01   -0.32042E-01   624   0.354E-01 0.325E-03
CGA:   4    -0.152523121672E+04   -0.66186E-02   -0.67007E-02   624   0.716E-02 0.788E-03
CGA:   5    -0.152523270244E+04   -0.14857E-02   -0.14958E-02   624   0.182E-02 0.117E-03
CGA:   6    -0.152523318394E+04   -0.48150E-03   -0.48049E-03   624   0.669E-03-0.373E-04
CGA:   7    -0.152523336138E+04   -0.17744E-03   -0.17760E-03   624   0.233E-03 0.119E-04
CGA:   8    -0.152523343827E+04   -0.76893E-04   -0.77019E-04   624   0.101E-03-0.312E-05
CGA:   9    -0.152523344790E+04   -0.96352E-05   -0.15787E-04   624   0.379E-04 0.481E-04
  41 F= -.15252334E+04 E0= -.15252334E+04  d E =-.234755E-02  mag=    16.0000
       N       E                     dE             d eps       ncg     rms          ort
SDA:   1    -0.152515952769E+04    0.73911E-01    0.00000E+00   624   0.182E+00 0.000E+00
CGA:   2    -0.152521910905E+04   -0.59581E-01   -0.59547E-01   624   0.677E-01 0.650E-03
CGA:   3    -0.152523250284E+04   -0.13394E-01   -0.13344E-01   624   0.133E-01-0.616E-03
CGA:   4    -0.152523502634E+04   -0.25235E-02   -0.25004E-02   624   0.287E-02-0.276E-03
CGA:   5    -0.152523561030E+04   -0.58395E-03   -0.58268E-03   624   0.708E-03-0.206E-04
CGA:   6    -0.152523576718E+04   -0.15688E-03   -0.15837E-03   624   0.191E-03 0.378E-04
CGA:   7    -0.152523581846E+04   -0.51287E-04   -0.51445E-04   624   0.652E-04 0.215E-04
CGA:   8    -0.152523584496E+04   -0.26494E-04   -0.27295E-04   624   0.402E-04-0.702E-05
CGA:   9    -0.152523585628E+04   -0.11322E-04   -0.17707E-04   624   0.484E-04-0.283E-04
CGA:  10    -0.152523586165E+04   -0.53684E-05   -0.67741E-05   624   0.791E-05 0.102E-04
  42 F= -.15252359E+04 E0= -.15252359E+04  d E =-.241374E-02  mag=    16.0000
       N       E                     dE             d eps       ncg     rms          ort
SDA:   1    -0.152519329137E+04    0.42565E-01    0.00000E+00   624   0.101E+00 0.000E+00
CGA:   2    -0.152522741155E+04   -0.34120E-01   -0.34094E-01   624   0.351E-01 0.391E-03
CGA:   3    -0.152523441286E+04   -0.70013E-02   -0.69586E-02   624   0.679E-02-0.561E-03
CGA:   4    -0.152523564809E+04   -0.12352E-02   -0.12291E-02   624   0.143E-02-0.719E-04
CGA:   5    -0.152523592876E+04   -0.28067E-03   -0.28328E-03   624   0.323E-03 0.414E-04
CGA:   6    -0.152523600602E+04   -0.77261E-04   -0.77501E-04   624   0.884E-04 0.858E-05
CGA:   7    -0.152523603376E+04   -0.27740E-04   -0.28131E-04   624   0.411E-04-0.777E-05
CGA:   8    -0.152523604447E+04   -0.10711E-04   -0.10644E-04   624   0.153E-04 0.309E-05
CGA:   9    -0.152523604920E+04   -0.47250E-05   -0.10467E-04   624   0.343E-04-0.154E-04
  43 F= -.15252360E+04 E0= -.15252360E+04  d E =-.187550E-03  mag=    16.0000
       N       E                     dE             d eps       ncg     rms          ort
SDA:   1    -0.151083088771E+04    0.14405E+02    0.00000E+00   624   0.344E+02 0.000E+00
CGA:   2    -0.152086341888E+04   -0.10033E+02   -0.10055E+02   624   0.156E+02-0.772E+00
CGA:   3    -0.152355026007E+04   -0.26868E+01   -0.27790E+01   624   0.400E+01 0.115E+00
CGA:   4    -0.152411909108E+04   -0.56883E+00   -0.38193E+00   624   0.108E+01 0.195E+01
CGA:   5    -0.152427504996E+04   -0.15596E+00   -0.10813E+00   624   0.502E+00 0.707E+00
CGA:   6    -0.152439777547E+04   -0.12273E+00   -0.12301E+00   624   0.398E+00 0.131E-01
CGA:   7    -0.152445325611E+04   -0.55481E-01   -0.44640E-01   624   0.736E-01 0.103E+00
CGA:   8    -0.152447117276E+04   -0.17917E-01   -0.17910E-01   624   0.130E+00 0.668E-02
CGA:   9    -0.152448891703E+04   -0.17744E-01   -0.17454E-01   624   0.427E-01-0.490E-02
CGA:  10    -0.152449462855E+04   -0.57115E-02   -0.55257E-02   624   0.359E-01-0.277E-02
CGA:  11    -0.152449748226E+04   -0.28537E-02   -0.32971E-02   624   0.119E-01 0.506E-02
[...]
CGA:  23    -0.152450138315E+04   -0.36517E-03   -0.27082E-03   624   0.130E-02-0.490E-03
CGA:  24    -0.152450156347E+04   -0.18032E-03   -0.10788E-03   624   0.114E-02-0.416E-03
CGA:  25    -0.152450155739E+04    0.60770E-05   -0.32121E-04   624   0.662E-03 0.177E-03
CGA:  26    -0.152450152301E+04    0.34384E-04   -0.26305E-04   624   0.371E-03 0.290E-03
CGA:  27    -0.152450149482E+04    0.28192E-04   -0.22162E-04   624   0.352E-03 0.252E-03
CGA:  28    -0.152450169980E+04   -0.20498E-03    0.19087E-03   624   0.657E-03-0.115E-03
CGA:  29    -0.152450168187E+04    0.17928E-04   -0.23799E-04   624   0.397E-03 0.229E-03
CGA:  30    -0.152450164411E+04    0.37762E-04   -0.16098E-04   624   0.152E-03 0.284E-03
CGA:  31    -0.152450163257E+04    0.11538E-04   -0.66630E-05   624   0.824E-04 0.105E-03
CGA:  32    -0.152450163032E+04    0.22524E-05   -0.61654E-05   624   0.562E-04 0.621E-04
CGA:  33    -0.152450166070E+04   -0.30382E-04   -0.22549E-04   624   0.654E-04 0.394E-04
CGA:  34    -0.152450165442E+04    0.62811E-05   -0.29963E-05   624   0.511E-04 0.556E-04
  44 F= -.15245017E+04 E0= -.15244996E+04  d E =0.734395E+00  mag=    16.0000
       N       E                     dE             d eps       ncg     rms          ort
SDA:   1    -0.151538383780E+04    0.91178E+01    0.00000E+00   624   0.235E+02 0.000E+00
CGA:   2    -0.152281444222E+04   -0.74306E+01   -0.74195E+01   624   0.862E+01 0.812E-01
CGA:   3    -0.152457458689E+04   -0.17601E+01   -0.17601E+01   624   0.225E+01-0.215E-01
CGA:   4    -0.152501657021E+04   -0.44198E+00   -0.44200E+00   624   0.412E+00 0.340E-02
CGA:   5    -0.152510537550E+04   -0.88805E-01   -0.88806E-01   624   0.123E+00 0.103E-03
CGA:   6    -0.152513705953E+04   -0.31684E-01   -0.31703E-01   624   0.453E-01-0.336E-03
CGA:   7    -0.152514979992E+04   -0.12740E-01   -0.12847E-01   624   0.172E-01-0.136E-02
CGA:   8    -0.152515518277E+04   -0.53829E-02   -0.56907E-02   624   0.830E-02-0.237E-02
CGA:   9    -0.152515698672E+04   -0.18039E-02   -0.18108E-02   624   0.273E-02-0.171E-03
CGA:  10    -0.152515779532E+04   -0.80860E-03   -0.98356E-03   624   0.211E-02-0.118E-02
CGA:  11    -0.152515805070E+04   -0.25539E-03   -0.25466E-03   624   0.942E-03-0.436E-04
CGA:  12    -0.152515830998E+04   -0.25928E-03   -0.26606E-03   624   0.736E-03-0.110E-03
CGA:  13    -0.152515821708E+04    0.92898E-04   -0.42227E-03   624   0.391E-02-0.122E-02
CGA:  14    -0.152515867817E+04   -0.46109E-03   -0.52655E-03   624   0.608E-03 0.600E-03
CGA:  15    -0.152515885941E+04   -0.18123E-03   -0.18058E-03   624   0.138E-03 0.525E-04
CGA:  16    -0.152515886123E+04   -0.18218E-05   -0.94310E-04   624   0.105E-02-0.240E-03
CGA:  17    -0.152515892455E+04   -0.63322E-04   -0.10370E-03   624   0.106E-03 0.253E-03
CGA:  18    -0.152515892621E+04   -0.16581E-05   -0.12051E-04   624   0.541E-04 0.635E-04
CGA:  19    -0.152515890455E+04    0.21657E-04   -0.22829E-04   624   0.602E-03-0.877E-04
CGA:  20    -0.152515894708E+04   -0.42528E-04   -0.82997E-04   624   0.129E-03 0.133E-03
CGA:  21    -0.152515898991E+04   -0.42825E-04   -0.44936E-04   624   0.447E-04 0.139E-04
CGA:  22    -0.152515903730E+04   -0.47393E-04    0.92647E-04   624   0.174E-03-0.564E-04
CGA:  23    -0.152515903287E+04    0.44263E-05   -0.16060E-04   624   0.336E-04 0.621E-04
  45 F= -.15251590E+04 E0= -.15251590E+04  d E =-.657378E+00  mag=    16.0000
       N       E                     dE             d eps       ncg     rms          ort
SDA:   1    -0.152496427887E+04    0.19476E+00    0.00000E+00   624   0.582E+00 0.000E+00
CGA:   2    -0.152515082802E+04   -0.18655E+00   -0.18646E+00   624   0.239E+00-0.113E-02
CGA:   3    -0.152519621751E+04   -0.45389E-01   -0.45429E-01   624   0.546E-01 0.417E-03
CGA:   4    -0.152520775743E+04   -0.11540E-01   -0.11532E-01   624   0.961E-02 0.461E-04
CGA:   5    -0.152520982259E+04   -0.20652E-02   -0.20652E-02   624   0.321E-02 0.805E-05
CGA:   6    -0.152521071177E+04   -0.88919E-03   -0.86540E-03   624   0.123E-02-0.246E-03
CGA:   7    -0.152521104902E+04   -0.33725E-03   -0.33186E-03   624   0.444E-03-0.770E-04
CGA:   8    -0.152521117251E+04   -0.12349E-03   -0.12344E-03   624   0.156E-03-0.773E-06
CGA:   9    -0.152521123186E+04   -0.59349E-04   -0.79908E-04   624   0.261E-03-0.128E-03
CGA:  10    -0.152521125612E+04   -0.24264E-04   -0.34804E-04   624   0.310E-04 0.468E-04
CGA:  11    -0.152521126753E+04   -0.11410E-04   -0.21083E-04   624   0.942E-04-0.430E-04
CGA:  12    -0.152521128811E+04   -0.20576E-04   -0.20327E-04   624   0.101E-04-0.167E-05
CGA:  13    -0.152521129250E+04   -0.43920E-05   -0.55551E-05   624   0.234E-04-0.566E-05
  46 F= -.15252113E+04 E0= -.15252113E+04  d E =-.522596E-01  mag=    16.0000
       N       E                     dE             d eps       ncg     rms          ort
SDA:   1    -0.152515104497E+04    0.60243E-01    0.00000E+00   624   0.165E+00 0.000E+00
CGA:   2    -0.152520275872E+04   -0.51714E-01   -0.51663E-01   624   0.650E-01-0.107E-02
CGA:   3    -0.152521537196E+04   -0.12613E-01   -0.12672E-01   624   0.155E-01 0.404E-03
CGA:   4    -0.152521847372E+04   -0.31018E-02   -0.31368E-02   624   0.293E-02 0.268E-03
CGA:   5    -0.152521911428E+04   -0.64056E-03   -0.64092E-03   624   0.900E-03 0.475E-05
CGA:   6    -0.152521938216E+04   -0.26788E-03   -0.26247E-03   624   0.426E-03-0.131E-03
CGA:   7    -0.152521949181E+04   -0.10965E-03   -0.10767E-03   624   0.168E-03-0.571E-04
CGA:   8    -0.152521952341E+04   -0.31598E-04   -0.34171E-04   624   0.525E-04 0.277E-04
CGA:   9    -0.152521954323E+04   -0.19829E-04   -0.19831E-04   624   0.313E-04-0.324E-05
CGA:  10    -0.152521955382E+04   -0.10583E-04   -0.10902E-04   624   0.244E-04-0.670E-05
CGA:  11    -0.152521956781E+04   -0.13996E-04    0.26363E-04   624   0.177E-04 0.256E-05
CGA:  12    -0.152521958238E+04   -0.14568E-04    0.21978E-04   624   0.144E-04 0.641E-05
CGA:  13    -0.152521959382E+04   -0.11435E-04   -0.12652E-04   624   0.297E-04-0.389E-05
CGA:  14    -0.152521960176E+04   -0.79438E-05   -0.10814E-04   624   0.565E-04-0.186E-04
CGA:  15    -0.152521961485E+04   -0.13090E-04   -0.14167E-04   624   0.189E-04 0.110E-04
CGA:  16    -0.152521961975E+04   -0.49011E-05   -0.52187E-05   624   0.506E-05 0.283E-05
  47 F= -.15252196E+04 E0= -.15252196E+04  d E =-.832725E-02  mag=    16.0000
       N       E                     dE             d eps       ncg     rms          ort
SDA:   1    -0.152517758526E+04    0.42030E-01    0.00000E+00   624   0.114E+00 0.000E+00
CGA:   2    -0.152520999785E+04   -0.32413E-01   -0.32377E-01   624   0.455E-01-0.785E-03
CGA:   3    -0.152521917234E+04   -0.91745E-02   -0.91915E-02   624   0.107E-01 0.151E-03
CGA:   4    -0.152522119520E+04   -0.20229E-02   -0.20520E-02   624   0.215E-02 0.230E-03
CGA:   5    -0.152522164921E+04   -0.45401E-03   -0.45690E-03   624   0.545E-03 0.279E-04
CGA:   6    -0.152522180501E+04   -0.15580E-03   -0.15437E-03   624   0.232E-03-0.490E-04
CGA:   7    -0.152522187262E+04   -0.67611E-04   -0.68544E-04   624   0.124E-03-0.538E-04
CGA:   8    -0.152522189238E+04   -0.19757E-04   -0.20981E-04   624   0.409E-04 0.140E-04
CGA:   9    -0.152522189987E+04   -0.74861E-05   -0.89627E-05   624   0.165E-04 0.138E-04
  48 F= -.15252219E+04 E0= -.15252219E+04  d E =-.228012E-02  mag=    16.0000
       N       E                     dE             d eps       ncg     rms          ort
SDA:   1    -0.152517455889E+04    0.47333E-01    0.00000E+00   624   0.135E+00 0.000E+00
CGA:   2    -0.152520917089E+04   -0.34612E-01   -0.34609E-01   624   0.571E-01-0.449E-04
CGA:   3    -0.152522134020E+04   -0.12169E-01   -0.12147E-01   624   0.126E-01-0.256E-03
CGA:   4    -0.152522358719E+04   -0.22470E-02   -0.22457E-02   624   0.236E-02-0.656E-05
CGA:   5    -0.152522407129E+04   -0.48410E-03   -0.48285E-03   624   0.578E-03-0.153E-04
CGA:   6    -0.152522420345E+04   -0.13216E-03   -0.13288E-03   624   0.166E-03 0.143E-04
CGA:   7    -0.152522424844E+04   -0.44988E-04   -0.45082E-04   624   0.590E-04 0.696E-05
CGA:   8    -0.152522426745E+04   -0.19008E-04   -0.18868E-04   624   0.280E-04 0.495E-05
CGA:   9    -0.152522427365E+04   -0.62021E-05   -0.67986E-05   624   0.114E-04 0.107E-04
  49 F= -.15252243E+04 E0= -.15252243E+04  d E =-.237378E-02  mag=    16.0000
       N       E                     dE             d eps       ncg     rms          ort
SDA:   1    -0.152509263143E+04    0.13164E+00    0.00000E+00   624   0.350E+00 0.000E+00
CGA:   2    -0.152518967350E+04   -0.97042E-01   -0.97043E-01   624   0.145E+00 0.614E-03
CGA:   3    -0.152521981425E+04   -0.30141E-01   -0.30093E-01   624   0.300E-01-0.617E-03
CGA:   4    -0.152522525232E+04   -0.54381E-02   -0.53993E-02   624   0.581E-02-0.400E-03
CGA:   5    -0.152522644228E+04   -0.11900E-02   -0.11822E-02   624   0.143E-02-0.119E-03
CGA:   6    -0.152522674471E+04   -0.30243E-03   -0.30642E-03   624   0.360E-03 0.804E-04
CGA:   7    -0.152522683621E+04   -0.91499E-04   -0.92612E-04   624   0.117E-03 0.507E-04
CGA:   8    -0.152522688208E+04   -0.45867E-04   -0.45683E-04   624   0.661E-04 0.236E-05
CGA:   9    -0.152522690388E+04   -0.21808E-04   -0.21895E-04   624   0.319E-04-0.156E-05
CGA:  10    -0.152522691367E+04   -0.97815E-05   -0.99161E-05   624   0.155E-04-0.281E-05
  50 F= -.15252269E+04 E0= -.15252269E+04  d E =-.264002E-02  mag=    16.0000
       N       E                     dE             d eps       ncg     rms          ort
SDA:   1    -0.152494922417E+04    0.27768E+00    0.00000E+00   624   0.691E+00 0.000E+00
CGA:   2    -0.152515286475E+04   -0.20364E+00   -0.20361E+00   624   0.283E+00 0.118E-02
CGA:   3    -0.152521049025E+04   -0.57625E-01   -0.57605E-01   624   0.574E-01-0.196E-03
CGA:   4    -0.152522089950E+04   -0.10409E-01   -0.10444E-01   624   0.110E-01 0.466E-03
CGA:   5    -0.152522324573E+04   -0.23462E-02   -0.23432E-02   624   0.290E-02-0.592E-04
CGA:   6    -0.152522391786E+04   -0.67213E-03   -0.67401E-03   624   0.861E-03 0.769E-04
CGA:   7    -0.152522413431E+04   -0.21645E-03   -0.21774E-03   624   0.287E-03 0.125E-03
CGA:   8    -0.152522424656E+04   -0.11225E-03   -0.11048E-03   624   0.161E-03 0.221E-04
CGA:   9    -0.152522427518E+04   -0.28613E-04   -0.33543E-04   624   0.660E-04 0.746E-04
CGA:  10    -0.152522429087E+04   -0.15692E-04   -0.18457E-04   624   0.333E-04 0.420E-04
CGA:  11    -0.152522430771E+04   -0.16845E-04   -0.22860E-04   624   0.101E-03-0.140E-04
CGA:  12    -0.152522430652E+04    0.11933E-05   -0.55857E-05   624   0.864E-04 0.377E-04
CGA:  13    -0.152522430690E+04   -0.38414E-06   -0.11055E-04   624   0.373E-04 0.616E-04
CGA:  14    -0.152522431455E+04   -0.76506E-05   -0.28550E-04   624   0.125E-03-0.412E-04
CGA:  15    -0.152522432490E+04   -0.10349E-04   -0.17139E-04   624   0.256E-04 0.467E-04
CGA:  16    -0.152522433009E+04   -0.51911E-05   -0.61415E-05   624   0.103E-04 0.940E-05
CGA:  17    -0.152522433822E+04   -0.81277E-05    0.28903E-04   624   0.138E-04 0.579E-05
  51 F= -.15252243E+04 E0= -.15252243E+04  d E =0.257544E-02  mag=    16.0000
       N       E                     dE             d eps       ncg     rms          ort
SDA:   1    -0.152518007200E+04    0.44258E-01    0.00000E+00   624   0.120E+00 0.000E+00
CGA:   2    -0.152521732619E+04   -0.37254E-01   -0.37295E-01   624   0.466E-01-0.811E-03
CGA:   3    -0.152522672758E+04   -0.94014E-02   -0.94032E-02   624   0.107E-01 0.540E-04
CGA:   4    -0.152522890305E+04   -0.21755E-02   -0.21468E-02   624   0.219E-02-0.438E-03
CGA:   5    -0.152522933185E+04   -0.42880E-03   -0.43227E-03   624   0.565E-03 0.657E-04
CGA:   6    -0.152522948167E+04   -0.14983E-03   -0.14982E-03   624   0.215E-03 0.792E-05
CGA:   7    -0.152522955698E+04   -0.75303E-04   -0.83543E-04   624   0.170E-03-0.658E-04
CGA:   8    -0.152522959106E+04   -0.34083E-04   -0.34572E-04   624   0.813E-04-0.171E-04
CGA:   9    -0.152522918192E+04    0.40914E-03   -0.22035E-03   624   0.256E-02-0.377E-03
CGA:  10    -0.152522956419E+04   -0.38228E-03   -0.42735E-03   624   0.363E-03 0.156E-03
CGA:  11    -0.152522966385E+04   -0.99656E-04   -0.93514E-04   624   0.107E-03-0.265E-04
CGA:  12    -0.152522968082E+04   -0.16968E-04   -0.23378E-04   624   0.366E-04 0.293E-04
CGA:  13    -0.152522969135E+04   -0.10531E-04   -0.12923E-04   624   0.166E-04 0.142E-04
CGA:  14    -0.152522970152E+04   -0.10168E-04   -0.10181E-04   624   0.232E-04-0.322E-05
CGA:  15    -0.152522969978E+04    0.17355E-05   -0.17437E-05   624   0.151E-04 0.102E-04
  52 F= -.15252297E+04 E0= -.15252297E+04  d E =-.536156E-02  mag=    16.0000
       N       E                     dE             d eps       ncg     rms          ort
SDA:   1    -0.152522476899E+04    0.49325E-02    0.00000E+00   624   0.146E-01 0.000E+00
CGA:   2    -0.152522867001E+04   -0.39010E-02   -0.38838E-02   624   0.563E-02-0.130E-03
CGA:   3    -0.152522985454E+04   -0.11845E-02   -0.11999E-02   624   0.124E-02 0.852E-04
CGA:   4    -0.152523007521E+04   -0.22067E-03   -0.22289E-03   624   0.242E-03 0.108E-04
CGA:   5    -0.152523012011E+04   -0.44901E-04   -0.47498E-04   624   0.549E-04 0.143E-04
CGA:   6    -0.152523013482E+04   -0.14708E-04   -0.14922E-04   624   0.202E-04 0.193E-05
CGA:   7    -0.152523014280E+04   -0.79801E-05   -0.12718E-04   624   0.517E-04-0.193E-04
  53 F= -.15252301E+04 E0= -.15252301E+04  d E =-.443014E-03  mag=    16.0000
       N       E                     dE             d eps       ncg     rms          ort
SDA:   1    -0.152517221037E+04    0.57924E-01    0.00000E+00   624   0.156E+00 0.000E+00
CGA:   2    -0.152521604461E+04   -0.43834E-01   -0.43820E-01   624   0.548E-01-0.233E-03
CGA:   3    -0.152522846307E+04   -0.12418E-01   -0.12426E-01   624   0.109E-01 0.640E-04
CGA:   4    -0.152523044091E+04   -0.19778E-02   -0.19805E-02   624   0.226E-02 0.144E-04
CGA:   5    -0.152523090042E+04   -0.45951E-03   -0.46342E-03   624   0.548E-03 0.282E-04
CGA:   6    -0.152523104390E+04   -0.14348E-03   -0.14395E-03   624   0.196E-03 0.601E-05
CGA:   7    -0.152523111225E+04   -0.68349E-04   -0.68643E-04   624   0.125E-03-0.206E-04
CGA:   8    -0.152523115426E+04   -0.42013E-04   -0.42482E-04   624   0.711E-04-0.102E-04
CGA:   9    -0.152523117677E+04   -0.22507E-04   -0.22549E-04   624   0.327E-04-0.446E-05
CGA:  10    -0.152523118588E+04   -0.91044E-05   -0.91532E-05   624   0.153E-04 0.129E-05
  54 F= -.15252312E+04 E0= -.15252312E+04  d E =-.104308E-02  mag=    16.0000
       N       E                     dE             d eps       ncg     rms          ort
SDA:   1    -0.152501072479E+04    0.22045E+00    0.00000E+00   624   0.574E+00 0.000E+00
CGA:   2    -0.152517685729E+04   -0.16613E+00   -0.16610E+00   624   0.209E+00-0.742E-03
CGA:   3    -0.152522220824E+04   -0.45351E-01   -0.45379E-01   624   0.419E-01 0.341E-03
CGA:   4    -0.152522959228E+04   -0.73840E-02   -0.74835E-02   624   0.807E-02 0.683E-03
CGA:   5    -0.152523132270E+04   -0.17304E-02   -0.17410E-02   624   0.196E-02 0.992E-04
CGA:   6    -0.152523183111E+04   -0.50841E-03   -0.50836E-03   624   0.683E-03-0.924E-06
CGA:   7    -0.152523204460E+04   -0.21349E-03   -0.21347E-03   624   0.361E-03-0.383E-04
CGA:   8    -0.152523215688E+04   -0.11228E-03   -0.11209E-03   624   0.178E-03 0.124E-04
CGA:   9    -0.152523219402E+04   -0.37136E-04   -0.41936E-04   624   0.644E-04 0.554E-04
CGA:  10    -0.152523221967E+04   -0.25650E-04   -0.25706E-04   624   0.340E-04 0.105E-04
CGA:  11    -0.152523223380E+04   -0.14135E-04   -0.13877E-04   624   0.225E-04 0.616E-05
CGA:  12    -0.152523224564E+04   -0.11831E-04   -0.11722E-04   624   0.239E-04 0.677E-06
CGA:  13    -0.152523222970E+04    0.15932E-04   -0.29150E-04   624   0.224E-03-0.532E-04
CGA:  14    -0.152523225061E+04   -0.20904E-04   -0.30523E-04   624   0.408E-04 0.439E-04
CGA:  15    -0.152523226536E+04   -0.14751E-04   -0.14766E-04   624   0.214E-04 0.307E-06
CGA:  16    -0.152523202182E+04    0.24354E-03   -0.13189E-03   624   0.175E-02-0.152E-03
CGA:  17    -0.152523221833E+04   -0.19651E-03   -0.22856E-03   624   0.156E-03 0.920E-04
CGA:  18    -0.152523229319E+04   -0.74864E-04   -0.69234E-04   624   0.562E-04-0.300E-04
CGA:  19    -0.152523230390E+04   -0.10711E-04   -0.10182E-04   624   0.208E-04-0.128E-05
CGA:  20    -0.152523230485E+04   -0.94860E-06   -0.36110E-05   624   0.708E-05 0.665E-05
  55 F= -.15252323E+04 E0= -.15252323E+04  d E =-.111897E-02  mag=    16.0000
       N       E                     dE             d eps       ncg     rms          ort
SDA:   1    -0.152500195852E+04    0.23035E+00    0.00000E+00   624   0.583E+00 0.000E+00
CGA:   2    -0.152517553175E+04   -0.17357E+00   -0.17343E+00   624   0.226E+00-0.704E-03
CGA:   3    -0.152522237630E+04   -0.46845E-01   -0.46864E-01   624   0.447E-01 0.394E-03
CGA:   4    -0.152523048773E+04   -0.81114E-02   -0.81127E-02   624   0.876E-02 0.195E-04
CGA:   5    -0.152523234433E+04   -0.18566E-02   -0.18789E-02   624   0.217E-02 0.827E-04
CGA:   6    -0.152523290536E+04   -0.56103E-03   -0.55407E-03   624   0.749E-03-0.304E-04
CGA:   7    -0.152523313922E+04   -0.23385E-03   -0.22546E-03   624   0.373E-03-0.501E-04
CGA:   8    -0.152523325085E+04   -0.11163E-03   -0.11159E-03   624   0.181E-03-0.216E-06
CGA:   9    -0.152523332100E+04   -0.70153E-04   -0.66572E-04   624   0.130E-03-0.405E-04
CGA:  10    -0.152523334130E+04   -0.20297E-04   -0.21750E-04   624   0.463E-04 0.634E-05
CGA:  11    -0.152523335869E+04   -0.17393E-04   -0.16744E-04   624   0.330E-04-0.696E-05
CGA:  12    -0.152523331702E+04    0.41674E-04   -0.33777E-04   624   0.568E-03-0.981E-04
CGA:  13    -0.152523337228E+04   -0.55266E-04   -0.73352E-04   624   0.630E-04 0.568E-04
CGA:  14    -0.152523338934E+04   -0.17057E-04   -0.18662E-04   624   0.171E-04 0.858E-05
CGA:  15    -0.152523339751E+04   -0.81680E-05   -0.10352E-04   624   0.758E-04-0.252E-04
  56 F= -.15252334E+04 E0= -.15252334E+04  d E =-.109266E-02  mag=    16.0000
       N       E                     dE             d eps       ncg     rms          ort
SDA:   1    -0.152512204729E+04    0.11134E+00    0.00000E+00   624   0.285E+00 0.000E+00
CGA:   2    -0.152520375764E+04   -0.81710E-01   -0.81858E-01   624   0.106E+00 0.100E-02
CGA:   3    -0.152522706932E+04   -0.23312E-01   -0.23243E-01   624   0.237E-01-0.323E-03
CGA:   4    -0.152523160588E+04   -0.45366E-02   -0.44294E-02   624   0.488E-02-0.452E-03
CGA:   5    -0.152523265108E+04   -0.10452E-02   -0.10247E-02   624   0.129E-02-0.106E-03
CGA:   6    -0.152523292997E+04   -0.27889E-03   -0.29290E-03   624   0.388E-03 0.862E-04
CGA:   7    -0.152523303061E+04   -0.10064E-03   -0.10765E-03   624   0.145E-03 0.555E-04
CGA:   8    -0.152523309109E+04   -0.60479E-04   -0.60445E-04   624   0.934E-04-0.221E-05
CGA:   9    -0.152523312213E+04   -0.31036E-04   -0.30392E-04   624   0.537E-04-0.128E-04
CGA:  10    -0.152523313446E+04   -0.12335E-04   -0.12015E-04   624   0.213E-04-0.264E-05
CGA:  11    -0.152523313654E+04   -0.20829E-05   -0.36620E-05   624   0.883E-05 0.828E-05
  57 F= -.15252331E+04 E0= -.15252331E+04  d E =0.260964E-03  mag=    16.0000
       N       E                     dE             d eps       ncg     rms          ort
SDA:   1    -0.152522059053E+04    0.12544E-01    0.00000E+00   624   0.334E-01 0.000E+00
CGA:   2    -0.152523070963E+04   -0.10119E-01   -0.10110E-01   624   0.118E-01-0.191E-03
CGA:   3    -0.152523320453E+04   -0.24949E-02   -0.25089E-02   624   0.288E-02 0.106E-03
CGA:   4    -0.152523367599E+04   -0.47146E-03   -0.51513E-03   624   0.516E-03 0.267E-03
CGA:   5    -0.152523379158E+04   -0.11559E-03   -0.11995E-03   624   0.146E-03 0.362E-04
CGA:   6    -0.152523384865E+04   -0.57079E-04   -0.61313E-04   624   0.138E-03-0.666E-04
CGA:   7    -0.152523386022E+04   -0.11563E-04   -0.12369E-04   624   0.645E-04 0.490E-05
CGA:   8    -0.152523386487E+04   -0.46475E-05   -0.83056E-05   624   0.288E-04 0.185E-04
  58 F= -.15252339E+04 E0= -.15252339E+04  d E =-.728321E-03  mag=    16.0000
