       N       E                     dE             d eps       ncg     rms          rms(c)
DAV:   1     0.221592708014E+04    0.22159E+04   -0.12155E+05 39496   0.151E+03
DAV:   2    -0.204154668351E+02   -0.22363E+04   -0.20942E+04 40760   0.409E+02
DAV:   3    -0.260953383626E+03   -0.24054E+03   -0.22941E+03 43472   0.144E+02
DAV:   4    -0.269319254617E+03   -0.83659E+01   -0.83087E+01 48544   0.285E+01
DAV:   5    -0.269784749683E+03   -0.46550E+00   -0.46517E+00 62848   0.531E+00    0.235E-01
DAV:   6    -0.269814085893E+03   -0.29336E-01   -0.72969E-02 53856   0.690E-01    0.398E-01
DAV:   7    -0.269815044047E+03   -0.95815E-03   -0.11410E-02 57040   0.223E-01    0.748E-01
DAV:   8    -0.269814302068E+03    0.74198E-03   -0.47249E-03 54088   0.147E-01    0.125E-01
DAV:   9    -0.269814619446E+03   -0.31738E-03   -0.14425E-03 45688   0.749E-02    0.389E-01
DAV:  10    -0.269814439722E+03    0.17972E-03   -0.11026E-03 40040   0.657E-02    0.996E-02
DAV:  11    -0.269814483071E+03   -0.43349E-04   -0.15639E-04 29232   0.305E-02    0.931E-02
DAV:  12    -0.269814488226E+03   -0.51553E-05   -0.50295E-05 27104   0.232E-02
   1 F= -.26981449E+03 E0= -.26980550E+03  d E =-.269814E+03  mag=     4.0000
