       N       E                     dE             d eps       ncg     rms          rms(c)
DAV:   1     0.231954356053E+04    0.23195E+04   -0.12023E+05 39976   0.147E+03
DAV:   2    -0.900287304260E+02   -0.24096E+04   -0.23267E+04 42640   0.400E+02
DAV:   3    -0.314815301946E+03   -0.22479E+03   -0.22063E+03 45088   0.139E+02
DAV:   4    -0.323492333473E+03   -0.86770E+01   -0.85288E+01 57152   0.303E+01
DAV:   5    -0.323906340993E+03   -0.41401E+00   -0.41272E+00 62872   0.478E+00    0.850E+01
DAV:   6    -0.297606438166E+03    0.26300E+02   -0.48331E+02 53408   0.670E+01    0.906E+01
DAV:   7    -0.286701960345E+03    0.10904E+02   -0.23055E+02 55136   0.135E+02    0.438E+01
DAV:   8    -0.276573259324E+03    0.10129E+02   -0.10762E+02 54800   0.356E+01    0.286E+01
DAV:   9    -0.272924336169E+03    0.36489E+01   -0.87753E+01 52888   0.176E+01    0.292E+01
DAV:  10    -0.268582563288E+03    0.43418E+01   -0.56500E+01 54432   0.155E+01    0.238E+01
DAV:  11    -0.267222294826E+03    0.13603E+01   -0.48889E+01 55264   0.122E+01    0.178E+01
DAV:  12    -0.267540930296E+03   -0.31864E+00   -0.16111E+01 54272   0.544E+00    0.253E+01
DAV:  13    -0.265895751353E+03    0.16452E+01   -0.11226E+01 54104   0.612E+00    0.130E+01
DAV:  14    -0.266211809098E+03   -0.31606E+00   -0.25152E-01 50192   0.134E+00    0.152E+01
DAV:  15    -0.266264214681E+03   -0.52406E-01   -0.12737E-01 54088   0.974E-01    0.154E+01
DAV:  16    -0.266206051507E+03    0.58163E-01   -0.84094E-02 54880   0.868E-01    0.141E+01
DAV:  17    -0.266212930735E+03   -0.68792E-02   -0.45741E-01 54256   0.139E+00    0.107E+01
DAV:  18    -0.266319079611E+03   -0.10615E+00   -0.30939E-01 53504   0.197E+00    0.857E+00
DAV:  19    -0.266313309115E+03    0.57705E-02   -0.10130E+00 55168   0.237E+00    0.982E+00
DAV:  20    -0.266337296082E+03   -0.23987E-01   -0.97531E-02 46520   0.867E-01    0.995E+00
DAV:  21    -0.266310623724E+03    0.26672E-01   -0.52472E-02 54264   0.738E-01    0.917E+00
DAV:  22    -0.266301205584E+03    0.94181E-02   -0.71917E-02 54840   0.107E+00    0.738E+00
DAV:  23    -0.266255936872E+03    0.45269E-01   -0.42369E-01 54704   0.222E+00    0.326E+00
DAV:  24    -0.266307626770E+03   -0.51690E-01   -0.12863E-01 47472   0.764E-01    0.512E+00
DAV:  25    -0.266293460135E+03    0.14167E-01   -0.60562E-03 44720   0.327E-01    0.499E+00
DAV:  26    -0.266293226985E+03    0.23315E-03   -0.23860E-02 53336   0.370E-01    0.610E+00
DAV:  27    -0.266283954259E+03    0.92727E-02   -0.12004E-03 47416   0.133E-01    0.609E+00
DAV:  28    -0.266293410966E+03   -0.94567E-02   -0.92662E-03 52312   0.315E-01    0.592E+00
DAV:  29    -0.266292543723E+03    0.86724E-03   -0.60789E-02 52296   0.789E-01    0.380E+00
DAV:  30    -0.266295827481E+03   -0.32838E-02   -0.66582E-02 53064   0.112E+00    0.220E+00
DAV:  31    -0.266294424904E+03    0.14026E-02   -0.32655E-02 54432   0.608E-01    0.176E+00
DAV:  32    -0.266302921198E+03   -0.84963E-02   -0.11042E-02 51272   0.460E-01    0.122E+00
DAV:  33    -0.266306345059E+03   -0.34239E-02   -0.23952E-02 51160   0.653E-01    0.114E+00
DAV:  34    -0.266307854860E+03   -0.15098E-02   -0.44481E-03 51136   0.223E-01    0.970E-01
DAV:  35    -0.266309664308E+03   -0.18094E-02   -0.42834E-03 52440   0.215E-01    0.882E-01
DAV:  36    -0.266310781027E+03   -0.11167E-02   -0.22813E-03 52024   0.190E-01    0.791E-01
DAV:  37    -0.266311242671E+03   -0.46164E-03   -0.38248E-03 51864   0.171E-01    0.702E-01
DAV:  38    -0.266311110786E+03    0.13189E-03   -0.19344E-03 54400   0.156E-01    0.509E-01
DAV:  39    -0.266310963008E+03    0.14778E-03   -0.53272E-04 52856   0.710E-02    0.336E-01
DAV:  40    -0.266311015696E+03   -0.52688E-04   -0.18300E-03 52168   0.110E-01    0.188E-01
DAV:  41    -0.266311108286E+03   -0.92590E-04   -0.52120E-04 53616   0.728E-02    0.190E-01
DAV:  42    -0.266311119107E+03   -0.10821E-04   -0.33274E-04 49560   0.600E-02    0.142E-01
DAV:  43    -0.266311150295E+03   -0.31189E-04   -0.65448E-05 36096   0.431E-02    0.903E-02
DAV:  44    -0.266311156701E+03   -0.64062E-05   -0.10059E-04 36064   0.250E-02    0.481E-02
DAV:  45    -0.266311168322E+03   -0.11621E-04   -0.34572E-05 30736   0.230E-02    0.333E-02
DAV:  46    -0.266311170647E+03   -0.23250E-05   -0.45342E-05 26200   0.199E-02
   1 F= -.26631117E+03 E0= -.26630197E+03  d E =-.266311E+03  mag=     4.0005
       N       E                     dE             d eps       ncg     rms          rms(c)
DAV:   1    -0.266352296843E+03   -0.41129E-01   -0.23599E-02 40536   0.540E-01    0.913E-02
DAV:   2    -0.266353073101E+03   -0.77626E-03   -0.61145E-03 52176   0.179E-01    0.699E-01
DAV:   3    -0.266352207446E+03    0.86566E-03   -0.41282E-03 53344   0.143E-01    0.112E-01
DAV:   4    -0.266352378784E+03   -0.17134E-03   -0.33518E-04 33400   0.442E-02    0.962E-02
DAV:   5    -0.266352369592E+03    0.91928E-05   -0.96665E-05 31208   0.321E-02
   2 F= -.26635237E+03 E0= -.26634316E+03  d E =-.411989E-01  mag=     4.0000
       N       E                     dE             d eps       ncg     rms          rms(c)
DAV:   1    -0.267245357057E+03   -0.89298E+00   -0.17167E+01 39816   0.146E+01    0.257E+00
DAV:   2    -0.267839771008E+03   -0.59441E+00   -0.35737E+00 52648   0.505E+00    0.167E+01
DAV:   3    -0.267242804531E+03    0.59697E+00   -0.27547E+00 53288   0.394E+00    0.110E+00
DAV:   4    -0.267323437846E+03   -0.80633E-01   -0.19465E-01 55800   0.105E+00    0.452E+00
DAV:   5    -0.267293604339E+03    0.29834E-01   -0.19707E-01 54200   0.892E-01    0.643E-01
DAV:   6    -0.267302051266E+03   -0.84469E-02   -0.23314E-02 54016   0.409E-01    0.134E+00
DAV:   7    -0.267300599232E+03    0.14520E-02   -0.35964E-02 53944   0.379E-01    0.997E-01
DAV:   8    -0.267300109850E+03    0.48938E-03   -0.56144E-03 53256   0.216E-01    0.397E-01
DAV:   9    -0.267300192124E+03   -0.82273E-04   -0.83036E-04 55992   0.867E-02    0.335E-01
DAV:  10    -0.267300001876E+03    0.19025E-03   -0.13564E-03 54200   0.975E-02    0.206E-01
DAV:  11    -0.267300069099E+03   -0.67223E-04   -0.57139E-04 54552   0.771E-02    0.154E-01
DAV:  12    -0.267300081957E+03   -0.12858E-04   -0.38862E-04 51712   0.644E-02    0.878E-02
DAV:  13    -0.267300102345E+03   -0.20388E-04   -0.86116E-05 32736   0.342E-02    0.918E-02
DAV:  14    -0.267300093592E+03    0.87526E-05   -0.46693E-05 29680   0.239E-02
   3 F= -.26730009E+03 E0= -.26729072E+03  d E =-.947724E+00  mag=     4.0000
       N       E                     dE             d eps       ncg     rms          rms(c)
DAV:   1    -0.267914283791E+03   -0.61418E+00   -0.13164E+02 39816   0.421E+01    0.720E+00
DAV:   2    -0.272433384473E+03   -0.45191E+01   -0.22868E+01 52032   0.147E+01    0.299E+01
DAV:   3    -0.268731505485E+03    0.37019E+01   -0.12302E+01 54912   0.122E+01    0.983E+00
DAV:   4    -0.268844672199E+03   -0.11317E+00   -0.23847E+00 56008   0.285E+00    0.113E+01
DAV:   5    -0.268652667565E+03    0.19200E+00   -0.16297E+00 54696   0.244E+00    0.520E+00
DAV:   6    -0.268741338364E+03   -0.88671E-01   -0.66530E-01 54384   0.158E+00    0.692E+00
DAV:   7    -0.268727181796E+03    0.14157E-01   -0.31406E-01 53592   0.134E+00    0.504E+00
DAV:   8    -0.268725781100E+03    0.14007E-02   -0.87871E-02 55440   0.967E-01    0.303E+00
DAV:   9    -0.268714615607E+03    0.11165E-01   -0.72728E-02 55456   0.778E-01    0.134E+00
DAV:  10    -0.268714490901E+03    0.12471E-03   -0.28544E-02 57488   0.572E-01    0.708E-01
DAV:  11    -0.268715672705E+03   -0.11818E-02   -0.15312E-02 55760   0.321E-01    0.713E-01
DAV:  12    -0.268716676469E+03   -0.10038E-02   -0.76362E-03 56456   0.221E-01    0.806E-01
DAV:  13    -0.268716191103E+03    0.48537E-03   -0.38567E-03 52872   0.163E-01    0.636E-01
DAV:  14    -0.268715986110E+03    0.20499E-03   -0.20880E-03 55000   0.138E-01    0.371E-01
DAV:  15    -0.268716170828E+03   -0.18472E-03   -0.16950E-03 53888   0.102E-01    0.166E-01
DAV:  16    -0.268716263894E+03   -0.93066E-04   -0.33817E-04 48048   0.617E-02    0.105E-01
DAV:  17    -0.268716270523E+03   -0.66290E-05   -0.21759E-04 46744   0.541E-02    0.837E-02
DAV:  18    -0.268716283854E+03   -0.13331E-04   -0.79590E-05 34304   0.330E-02    0.939E-02
DAV:  19    -0.268716306275E+03   -0.22421E-04   -0.63764E-05 33584   0.330E-02    0.561E-02
DAV:  20    -0.268716312031E+03   -0.57560E-05   -0.36169E-05 28376   0.224E-02
   4 F= -.26871631E+03 E0= -.26870631E+03  d E =-.141622E+01  mag=     3.9999
       N       E                     dE             d eps       ncg     rms          rms(c)
DAV:   1    -0.268808751718E+03   -0.92445E-01   -0.33106E+01 39312   0.220E+01    0.274E+00
DAV:   2    -0.269572348508E+03   -0.76360E+00   -0.51621E+00 51384   0.624E+00    0.177E+01
DAV:   3    -0.268921293014E+03    0.65106E+00   -0.28695E+00 54624   0.402E+00    0.162E+00
DAV:   4    -0.269026231281E+03   -0.10494E+00   -0.42378E-01 54680   0.135E+00    0.610E+00
DAV:   5    -0.268967129418E+03    0.59102E-01   -0.30956E-01 54736   0.116E+00    0.936E-01
DAV:   6    -0.268992632335E+03   -0.25503E-01   -0.13652E-01 54816   0.728E-01    0.362E+00
DAV:   7    -0.268971161047E+03    0.21471E-01   -0.77026E-02 55872   0.710E-01    0.623E-01
DAV:   8    -0.268975742235E+03   -0.45812E-02   -0.70028E-03 53840   0.272E-01    0.552E-01
DAV:   9    -0.268975727951E+03    0.14284E-04   -0.26644E-03 55624   0.167E-01    0.435E-01
DAV:  10    -0.268975566798E+03    0.16115E-03   -0.11442E-03 55216   0.134E-01    0.338E-01
DAV:  11    -0.268975514143E+03    0.52655E-04   -0.24689E-03 57552   0.137E-01    0.255E-01
DAV:  12    -0.268975593850E+03   -0.79707E-04   -0.75683E-04 53536   0.810E-02    0.174E-01
DAV:  13    -0.268975614315E+03   -0.20465E-04   -0.46859E-04 49936   0.553E-02    0.106E-01
DAV:  14    -0.268975623332E+03   -0.90165E-05   -0.90342E-05 36192   0.404E-02
   5 F= -.26897562E+03 E0= -.26896551E+03  d E =-.259311E+00  mag=     4.0000
       N       E                     dE             d eps       ncg     rms          rms(c)
DAV:   1    -0.268935331282E+03    0.40283E-01   -0.31923E+01 39312   0.242E+01    0.200E+00
DAV:   2    -0.269260370486E+03   -0.32504E+00   -0.29429E+00 44552   0.510E+00    0.103E+01
DAV:   3    -0.269086694380E+03    0.17368E+00   -0.10859E+00 54256   0.234E+00    0.141E+00
DAV:   4    -0.269135005288E+03   -0.48311E-01   -0.22814E-01 56344   0.103E+00    0.478E+00
DAV:   5    -0.269099481888E+03    0.35523E-01   -0.20029E-01 54056   0.894E-01    0.711E-01
DAV:   6    -0.269107243977E+03   -0.77621E-02   -0.31237E-02 56096   0.473E-01    0.166E+00
DAV:   7    -0.269104245513E+03    0.29985E-02   -0.39842E-02 54832   0.433E-01    0.907E-01
DAV:   8    -0.269104460357E+03   -0.21484E-03   -0.11830E-02 53728   0.285E-01    0.433E-01
DAV:   9    -0.269104820459E+03   -0.36010E-03   -0.28981E-03 55416   0.163E-01    0.362E-01
DAV:  10    -0.269104875948E+03   -0.55489E-04   -0.79961E-04 54248   0.101E-01    0.353E-01
DAV:  11    -0.269104772496E+03    0.10345E-03   -0.19000E-03 54880   0.121E-01    0.292E-01
DAV:  12    -0.269104762263E+03    0.10232E-04   -0.48262E-04 55384   0.767E-02    0.198E-01
DAV:  13    -0.269104762531E+03   -0.26753E-06   -0.54976E-04 52528   0.561E-02    0.714E-02
DAV:  14    -0.269104798131E+03   -0.35600E-04   -0.11272E-04 34208   0.385E-02    0.576E-02
DAV:  15    -0.269104803613E+03   -0.54824E-05   -0.40312E-05 30424   0.200E-02
   6 F= -.26910480E+03 E0= -.26909470E+03  d E =-.129180E+00  mag=     4.0000
       N       E                     dE             d eps       ncg     rms          rms(c)
DAV:   1    -0.268965571791E+03    0.13923E+00   -0.61564E+01 40320   0.319E+01    0.244E+00
DAV:   2    -0.269330907424E+03   -0.36534E+00   -0.35045E+00 42184   0.582E+00    0.951E+00
DAV:   3    -0.269208164439E+03    0.12274E+00   -0.14309E+00 53400   0.255E+00    0.330E+00
DAV:   4    -0.269219033904E+03   -0.10869E-01   -0.16538E-01 54928   0.107E+00    0.294E+00
DAV:   5    -0.269206553520E+03    0.12480E-01   -0.11076E-01 54168   0.709E-01    0.115E+00
DAV:   6    -0.269214421891E+03   -0.78684E-02   -0.71283E-02 54088   0.653E-01    0.270E+00
DAV:   7    -0.269203582358E+03    0.10840E-01   -0.62792E-02 53216   0.539E-01    0.677E-01
DAV:   8    -0.269205453303E+03   -0.18709E-02   -0.84694E-03 54960   0.355E-01    0.618E-01
DAV:   9    -0.269205501512E+03   -0.48209E-04   -0.58649E-03 53888   0.192E-01    0.420E-01
DAV:  10    -0.269205622943E+03   -0.12143E-03   -0.17961E-03 53768   0.125E-01    0.304E-01
DAV:  11    -0.269205670937E+03   -0.47994E-04   -0.19626E-03 54208   0.121E-01    0.350E-01
DAV:  12    -0.269205530342E+03    0.14060E-03   -0.75728E-04 54616   0.811E-02    0.171E-01
DAV:  13    -0.269205634198E+03   -0.10386E-03   -0.70479E-04 51128   0.556E-02    0.111E-01
DAV:  14    -0.269205663227E+03   -0.29029E-04   -0.24392E-04 34984   0.473E-02    0.671E-02
DAV:  15    -0.269205677596E+03   -0.14369E-04   -0.55407E-05 35368   0.236E-02    0.523E-02
DAV:  16    -0.269205677621E+03   -0.25306E-07   -0.12833E-05 24224   0.134E-02
   7 F= -.26920568E+03 E0= -.26919576E+03  d E =-.100874E+00  mag=     4.0000
       N       E                     dE             d eps       ncg     rms          rms(c)
DAV:   1    -0.268850998366E+03    0.35468E+00   -0.12552E+02 40320   0.420E+01    0.311E+00
DAV:   2    -0.269448539551E+03   -0.59754E+00   -0.60135E+00 42752   0.755E+00    0.100E+01
DAV:   3    -0.269285880659E+03    0.16266E+00   -0.11697E+00 54680   0.297E+00    0.401E+00
DAV:   4    -0.269306550268E+03   -0.20670E-01   -0.38734E-01 56528   0.157E+00    0.454E+00
DAV:   5    -0.269271131932E+03    0.35418E-01   -0.22032E-01 55184   0.113E+00    0.180E+00
DAV:   6    -0.269273422632E+03   -0.22907E-02   -0.61831E-02 55008   0.770E-01    0.197E+00
DAV:   7    -0.269271228221E+03    0.21944E-02   -0.10744E-01 54040   0.685E-01    0.174E+00
DAV:   8    -0.269267012130E+03    0.42161E-02   -0.19697E-02 53936   0.526E-01    0.600E-01
DAV:   9    -0.269267673122E+03   -0.66099E-03   -0.67573E-03 55360   0.264E-01    0.390E-01
DAV:  10    -0.269268261326E+03   -0.58820E-03   -0.35857E-03 53792   0.173E-01    0.383E-01
DAV:  11    -0.269268369164E+03   -0.10784E-03   -0.19859E-03 54120   0.131E-01    0.370E-01
DAV:  12    -0.269268189709E+03    0.17945E-03   -0.87324E-04 53936   0.106E-01    0.214E-01
DAV:  13    -0.269268266433E+03   -0.76723E-04   -0.11005E-03 53760   0.682E-02    0.131E-01
DAV:  14    -0.269268326353E+03   -0.59920E-04   -0.34706E-04 45480   0.672E-02    0.867E-02
DAV:  15    -0.269268339556E+03   -0.13204E-04   -0.13584E-04 38320   0.375E-02    0.653E-02
DAV:  16    -0.269268347600E+03   -0.80436E-05   -0.29439E-05 28672   0.192E-02
   8 F= -.26926835E+03 E0= -.26925859E+03  d E =-.626700E-01  mag=     4.0000
       N       E                     dE             d eps       ncg     rms          rms(c)
DAV:   1    -0.269287755796E+03   -0.19416E-01   -0.70211E+00 40640   0.113E+01    0.126E+00
DAV:   2    -0.269325293368E+03   -0.37538E-01   -0.39774E-01 42304   0.208E+00    0.207E+00
DAV:   3    -0.269330305684E+03   -0.50123E-02   -0.17413E-01 54968   0.972E-01    0.291E+00
DAV:   4    -0.269321759699E+03    0.85460E-02   -0.10060E-01 55120   0.676E-01    0.196E+00
DAV:   5    -0.269317672545E+03    0.40872E-02   -0.37858E-02 53472   0.414E-01    0.505E-01
DAV:   6    -0.269322080558E+03   -0.44080E-02   -0.33600E-02 54152   0.339E-01    0.170E+00
DAV:   7    -0.269317232891E+03    0.48477E-02   -0.20799E-02 53928   0.327E-01    0.250E-01
DAV:   8    -0.269318145227E+03   -0.91234E-03   -0.11244E-03 51000   0.128E-01    0.190E-01
DAV:   9    -0.269318292469E+03   -0.14724E-03   -0.10296E-03 54104   0.911E-02    0.155E-01
DAV:  10    -0.269318333282E+03   -0.40813E-04   -0.14756E-04 38152   0.449E-02    0.147E-01
DAV:  11    -0.269318328842E+03    0.44398E-05   -0.12405E-04 42488   0.416E-02    0.124E-01
DAV:  12    -0.269318294309E+03    0.34533E-04   -0.13025E-04 38856   0.478E-02    0.620E-02
DAV:  13    -0.269318306647E+03   -0.12338E-04   -0.13140E-04 37128   0.314E-02    0.668E-02
DAV:  14    -0.269318309031E+03   -0.23840E-05   -0.52699E-05 27360   0.241E-02
   9 F= -.26931831E+03 E0= -.26930874E+03  d E =-.499614E-01  mag=     4.0000
       N       E                     dE             d eps       ncg     rms          rms(c)
DAV:   1    -0.269331333036E+03   -0.13026E-01   -0.41711E+00 40320   0.796E+00    0.768E-01
DAV:   2    -0.269350471201E+03   -0.19138E-01   -0.19609E-01 44064   0.148E+00    0.205E+00
DAV:   3    -0.269347645439E+03    0.28258E-02   -0.90643E-02 56352   0.663E-01    0.161E+00
DAV:   4    -0.269346277528E+03    0.13679E-02   -0.28504E-02 53680   0.422E-01    0.108E+00
DAV:   5    -0.269344751928E+03    0.15256E-02   -0.17190E-02 54264   0.299E-01    0.456E-01
DAV:   6    -0.269345564263E+03   -0.81234E-03   -0.95415E-03 55352   0.229E-01    0.877E-01
DAV:   7    -0.269344380196E+03    0.11841E-02   -0.84655E-03 54216   0.191E-01    0.207E-01
DAV:   8    -0.269344485591E+03   -0.10540E-03   -0.73716E-04 53248   0.120E-01    0.102E-01
DAV:   9    -0.269344514793E+03   -0.29202E-04   -0.32739E-04 48072   0.455E-02    0.790E-02
DAV:  10    -0.269344524158E+03   -0.93649E-05   -0.66924E-05 31344   0.225E-02
  10 F= -.26934452E+03 E0= -.26933504E+03  d E =-.262151E-01  mag=     4.0000
       N       E                     dE             d eps       ncg     rms          rms(c)
DAV:   1    -0.269318962207E+03    0.25553E-01   -0.22123E+01 39816   0.166E+01    0.914E-01
DAV:   2    -0.269383507528E+03   -0.64545E-01   -0.68443E-01 42160   0.269E+00    0.161E+00
DAV:   3    -0.269385375311E+03   -0.18678E-02   -0.11355E-01 56088   0.731E-01    0.201E+00
DAV:   4    -0.269378838993E+03    0.65363E-02   -0.42662E-02 55080   0.512E-01    0.830E-01
DAV:   5    -0.269379425376E+03   -0.58638E-03   -0.15493E-02 54344   0.265E-01    0.881E-01
DAV:   6    -0.269377897581E+03    0.15278E-02   -0.88310E-03 53728   0.296E-01    0.540E-01
DAV:   7    -0.269378315312E+03   -0.41773E-03   -0.12311E-02 54368   0.267E-01    0.748E-01
DAV:   8    -0.269377159032E+03    0.11563E-02   -0.67420E-03 53888   0.246E-01    0.187E-01
DAV:   9    -0.269377465442E+03   -0.30641E-03   -0.18710E-03 53024   0.104E-01    0.157E-01
DAV:  10    -0.269377551173E+03   -0.85732E-04   -0.24771E-04 46416   0.519E-02    0.146E-01
DAV:  11    -0.269377560382E+03   -0.92082E-05   -0.13639E-04 43432   0.370E-02    0.125E-01
DAV:  12    -0.269377540527E+03    0.19854E-04   -0.10048E-04 36392   0.428E-02    0.609E-02
DAV:  13    -0.269377546041E+03   -0.55139E-05   -0.73874E-05 39808   0.297E-02
  11 F= -.26937755E+03 E0= -.26936821E+03  d E =-.330219E-01  mag=     4.0000
       N       E                     dE             d eps       ncg     rms          rms(c)
DAV:   1    -0.268870661114E+03    0.50688E+00   -0.19568E+02 40320   0.493E+01    0.291E+00
DAV:   2    -0.269472172246E+03   -0.60151E+00   -0.63662E+00 41368   0.817E+00    0.440E+00
DAV:   3    -0.269504319313E+03   -0.32147E-01   -0.11435E+00 54904   0.232E+00    0.640E+00
DAV:   4    -0.269435047019E+03    0.69272E-01   -0.45786E-01 55352   0.159E+00    0.263E+00
DAV:   5    -0.269434655580E+03    0.39144E-03   -0.10054E-01 53888   0.774E-01    0.178E+00
DAV:   6    -0.269432389438E+03    0.22661E-02   -0.11233E-01 53712   0.810E-01    0.267E+00
DAV:   7    -0.269422807586E+03    0.95819E-02   -0.81790E-02 53848   0.681E-01    0.145E+00
DAV:   8    -0.269419188589E+03    0.36190E-02   -0.18240E-02 53768   0.499E-01    0.530E-01
DAV:   9    -0.269422390404E+03   -0.32018E-02   -0.17961E-02 53488   0.292E-01    0.683E-01
DAV:  10    -0.269423242944E+03   -0.85254E-03   -0.58731E-03 53432   0.234E-01    0.612E-01
DAV:  11    -0.269423201942E+03    0.41002E-04   -0.12329E-03 53840   0.143E-01    0.503E-01
DAV:  12    -0.269423084958E+03    0.11698E-03   -0.26902E-03 53840   0.197E-01    0.343E-01
DAV:  13    -0.269423018125E+03    0.66833E-04   -0.11071E-03 54736   0.138E-01    0.160E-01
DAV:  14    -0.269423204111E+03   -0.18599E-03   -0.79957E-04 52248   0.762E-02    0.126E-01
DAV:  15    -0.269423225452E+03   -0.21341E-04   -0.19838E-04 42616   0.505E-02    0.792E-02
DAV:  16    -0.269423229647E+03   -0.41958E-05   -0.43143E-05 31952   0.215E-02
  12 F= -.26942323E+03 E0= -.26941448E+03  d E =-.456836E-01  mag=     4.0000
       N       E                     dE             d eps       ncg     rms          rms(c)
DAV:   1    -0.269313631341E+03    0.10959E+00   -0.55357E+01 40320   0.260E+01    0.182E+00
DAV:   2    -0.269495246736E+03   -0.18162E+00   -0.18535E+00 41568   0.444E+00    0.451E+00
DAV:   3    -0.269474542934E+03    0.20704E-01   -0.55379E-01 54384   0.164E+00    0.292E+00
DAV:   4    -0.269480590662E+03   -0.60477E-02   -0.23493E-01 55792   0.999E-01    0.347E+00
DAV:   5    -0.269458563829E+03    0.22027E-01   -0.10258E-01 54112   0.749E-01    0.710E-01
DAV:   6    -0.269462479772E+03   -0.39159E-02   -0.26529E-02 53528   0.460E-01    0.158E+00
DAV:   7    -0.269459265733E+03    0.32140E-02   -0.34784E-02 53784   0.412E-01    0.815E-01
DAV:   8    -0.269458239175E+03    0.10266E-02   -0.70223E-03 52888   0.330E-01    0.310E-01
DAV:   9    -0.269458906755E+03   -0.66758E-03   -0.48511E-03 54512   0.188E-01    0.319E-01
DAV:  10    -0.269459252336E+03   -0.34558E-03   -0.18931E-03 54176   0.112E-01    0.282E-01
DAV:  11    -0.269459281429E+03   -0.29093E-04   -0.62176E-04 54368   0.800E-02    0.241E-01
DAV:  12    -0.269459203144E+03    0.78284E-04   -0.52928E-04 53464   0.883E-02    0.105E-01
DAV:  13    -0.269459257857E+03   -0.54713E-04   -0.30422E-04 54136   0.531E-02    0.708E-02
DAV:  14    -0.269459284668E+03   -0.26811E-04   -0.10027E-04 32312   0.352E-02    0.565E-02
DAV:  15    -0.269459289897E+03   -0.52289E-05   -0.53851E-05 32480   0.258E-02
  13 F= -.26945929E+03 E0= -.26945074E+03  d E =-.360602E-01  mag=     4.0000
       N       E                     dE             d eps       ncg     rms          rms(c)
DAV:   1    -0.269387070004E+03    0.72215E-01   -0.29683E+01 40320   0.196E+01    0.147E+00
DAV:   2    -0.269484197466E+03   -0.97127E-01   -0.99849E-01 43680   0.326E+00    0.341E+00
DAV:   3    -0.269480095005E+03    0.41025E-02   -0.31212E-01 54824   0.129E+00    0.308E+00
DAV:   4    -0.269473873073E+03    0.62219E-02   -0.11338E-01 53736   0.728E-01    0.251E+00
DAV:   5    -0.269465651527E+03    0.82215E-02   -0.53996E-02 53624   0.475E-01    0.854E-01
DAV:   6    -0.269468418338E+03   -0.27668E-02   -0.21617E-02 54584   0.334E-01    0.141E+00
DAV:   7    -0.269464717749E+03    0.37006E-02   -0.31791E-02 53584   0.412E-01    0.779E-01
DAV:   8    -0.269464410585E+03    0.30716E-03   -0.77679E-03 54120   0.324E-01    0.359E-01
DAV:   9    -0.269465456663E+03   -0.10461E-02   -0.63018E-03 53328   0.216E-01    0.368E-01
DAV:  10    -0.269465667690E+03   -0.21103E-03   -0.72198E-04 51824   0.947E-02    0.358E-01
DAV:  11    -0.269465694292E+03   -0.26602E-04   -0.10203E-03 54088   0.113E-01    0.269E-01
DAV:  12    -0.269465594088E+03    0.10020E-03   -0.50642E-04 53840   0.101E-01    0.127E-01
DAV:  13    -0.269465610823E+03   -0.16735E-04   -0.26154E-04 50544   0.453E-02    0.738E-02
DAV:  14    -0.269465624437E+03   -0.13613E-04   -0.65336E-05 30792   0.262E-02    0.696E-02
DAV:  15    -0.269465627725E+03   -0.32881E-05   -0.41698E-05 28640   0.234E-02
  14 F= -.26946563E+03 E0= -.26945668E+03  d E =-.633783E-02  mag=     4.0000
       N       E                     dE             d eps       ncg     rms          rms(c)
DAV:   1    -0.269470468682E+03   -0.48442E-02   -0.17454E+00 40320   0.461E+00    0.435E-01
DAV:   2    -0.269475597998E+03   -0.51293E-02   -0.55282E-02 43352   0.813E-01    0.697E-01
DAV:   3    -0.269476417188E+03   -0.81919E-03   -0.22062E-02 55840   0.321E-01    0.113E+00
DAV:   4    -0.269474569599E+03    0.18476E-02   -0.10658E-02 53576   0.236E-01    0.278E-01
DAV:   5    -0.269475053986E+03   -0.48439E-03   -0.39902E-03 54528   0.142E-01    0.485E-01
DAV:   6    -0.269474679855E+03    0.37413E-03   -0.29704E-03 54248   0.136E-01    0.281E-01
DAV:   7    -0.269474754696E+03   -0.74841E-04   -0.25002E-03 54544   0.109E-01    0.307E-01
DAV:   8    -0.269474573584E+03    0.18111E-03   -0.88132E-04 54304   0.927E-02    0.677E-02
DAV:   9    -0.269474649962E+03   -0.76378E-04   -0.34811E-04 35016   0.369E-02    0.873E-02
DAV:  10    -0.269474662436E+03   -0.12474E-04   -0.38710E-05 28776   0.212E-02    0.833E-02
DAV:  11    -0.269474659268E+03    0.31681E-05   -0.22072E-05 27032   0.190E-02
  15 F= -.26947466E+03 E0= -.26946565E+03  d E =-.903154E-02  mag=     4.0000
       N       E                     dE             d eps       ncg     rms          rms(c)
DAV:   1    -0.269469946608E+03    0.47158E-02   -0.60863E+00 39312   0.825E+00    0.445E-01
DAV:   2    -0.269486196097E+03   -0.16249E-01   -0.17018E-01 40864   0.134E+00    0.974E-01
DAV:   3    -0.269485669528E+03    0.52657E-03   -0.28467E-02 54544   0.384E-01    0.817E-01
DAV:   4    -0.269485503619E+03    0.16591E-03   -0.14165E-02 53768   0.247E-01    0.821E-01
DAV:   5    -0.269484359709E+03    0.11439E-02   -0.53090E-03 54392   0.171E-01    0.230E-01
DAV:   6    -0.269484877961E+03   -0.51825E-03   -0.38363E-03 53792   0.140E-01    0.659E-01
DAV:   7    -0.269484056461E+03    0.82150E-03   -0.34283E-03 53536   0.141E-01    0.178E-01
DAV:   8    -0.269484134380E+03   -0.77918E-04   -0.67419E-04 53328   0.899E-02    0.996E-02
DAV:   9    -0.269484243051E+03   -0.10867E-03   -0.48086E-04 51288   0.635E-02    0.124E-01
DAV:  10    -0.269484255347E+03   -0.12296E-04   -0.10133E-04 38888   0.417E-02    0.108E-01
DAV:  11    -0.269484260961E+03   -0.56141E-05   -0.65203E-05 37704   0.321E-02
  16 F= -.26948426E+03 E0= -.26947535E+03  d E =-.960169E-02  mag=     4.0000
       N       E                     dE             d eps       ncg     rms          rms(c)
DAV:   1    -0.268669454159E+03    0.81480E+00   -0.23734E+02 39808   0.534E+01    0.539E+00
DAV:   2    -0.269412795083E+03   -0.74334E+00   -0.81199E+00 42960   0.953E+00    0.748E+00
DAV:   3    -0.269567830764E+03   -0.15504E+00   -0.31335E+00 54280   0.391E+00    0.132E+01
DAV:   4    -0.269406322180E+03    0.16151E+00   -0.30358E+00 54416   0.301E+00    0.100E+01
DAV:   5    -0.269282323276E+03    0.12400E+00   -0.10540E+00 53976   0.200E+00    0.211E+00
DAV:   6    -0.269287905912E+03   -0.55826E-02   -0.60601E-02 54480   0.126E+00    0.146E+00
DAV:   7    -0.269302732973E+03   -0.14827E-01   -0.18598E-01 54592   0.109E+00    0.395E+00
DAV:   8    -0.269279097440E+03    0.23636E-01   -0.14049E-01 53424   0.946E-01    0.148E+00
DAV:   9    -0.269286052777E+03   -0.69553E-02   -0.41495E-02 52656   0.488E-01    0.878E-01
DAV:  10    -0.269288498936E+03   -0.24462E-02   -0.73008E-03 52328   0.223E-01    0.878E-01
DAV:  11    -0.269288310209E+03    0.18873E-03   -0.37186E-03 54760   0.185E-01    0.782E-01
DAV:  12    -0.269287676792E+03    0.63342E-03   -0.44368E-03 53640   0.308E-01    0.574E-01
DAV:  13    -0.269287174842E+03    0.50195E-03   -0.40719E-03 54672   0.235E-01    0.372E-01
DAV:  14    -0.269287674210E+03   -0.49937E-03   -0.23088E-03 50968   0.148E-01    0.334E-01
DAV:  15    -0.269287755297E+03   -0.81087E-04   -0.13067E-03 53320   0.112E-01    0.140E-01
DAV:  16    -0.269287803868E+03   -0.48571E-04   -0.19397E-04 47000   0.459E-02    0.113E-01
DAV:  17    -0.269287786391E+03    0.17477E-04   -0.68099E-05 34144   0.330E-02    0.914E-02
DAV:  18    -0.269287785797E+03    0.59408E-06   -0.12018E-04 40032   0.355E-02    0.620E-02
DAV:  19    -0.269287801107E+03   -0.15310E-04   -0.82371E-05 30520   0.303E-02    0.374E-02
DAV:  20    -0.269287804190E+03   -0.30827E-05   -0.19355E-05 26784   0.162E-02
  17 F= -.26928780E+03 E0= -.26927921E+03  d E =0.196457E+00  mag=     4.0000
       N       E                     dE             d eps       ncg     rms          rms(c)
DAV:   1    -0.269458943581E+03   -0.17114E+00   -0.10225E+01 39312   0.123E+01    0.241E+00
DAV:   2    -0.269497119432E+03   -0.38176E-01   -0.52102E-01 44648   0.264E+00    0.213E+00
DAV:   3    -0.269585273337E+03   -0.88154E-01   -0.74934E-01 54280   0.176E+00    0.920E+00
DAV:   4    -0.269474726700E+03    0.11055E+00   -0.70144E-01 53304   0.147E+00    0.277E+00
DAV:   5    -0.269485420024E+03   -0.10693E-01   -0.97461E-02 52352   0.670E-01    0.955E-01
DAV:   6    -0.269489764845E+03   -0.43448E-02   -0.31171E-02 54320   0.477E-01    0.137E+00
DAV:   7    -0.269487216724E+03    0.25481E-02   -0.32068E-02 54152   0.410E-01    0.663E-01
DAV:   8    -0.269487096617E+03    0.12011E-03   -0.64322E-03 54208   0.281E-01    0.297E-01
DAV:   9    -0.269487270787E+03   -0.17417E-03   -0.22321E-03 54160   0.154E-01    0.245E-01
DAV:  10    -0.269487337110E+03   -0.66323E-04   -0.43148E-04 47448   0.557E-02    0.257E-01
DAV:  11    -0.269487287798E+03    0.49311E-04   -0.32982E-04 50088   0.526E-02    0.207E-01
DAV:  12    -0.269487205433E+03    0.82366E-04   -0.26227E-04 47352   0.608E-02    0.978E-02
DAV:  13    -0.269487229696E+03   -0.24263E-04   -0.19747E-04 47856   0.490E-02    0.102E-01
DAV:  14    -0.269487250157E+03   -0.20461E-04   -0.12469E-04 33312   0.350E-02    0.912E-02
DAV:  15    -0.269487255139E+03   -0.49814E-05   -0.36796E-05 30680   0.254E-02
  18 F= -.26948726E+03 E0= -.26947842E+03  d E =-.199451E+00  mag=     4.0000
       N       E                     dE             d eps       ncg     rms          rms(c)
DAV:   1    -0.269500814862E+03   -0.13565E-01   -0.21534E-01 40672   0.181E+00    0.348E-01
DAV:   2    -0.269501986514E+03   -0.11717E-02   -0.13773E-02 46408   0.412E-01    0.622E-01
DAV:   3    -0.269502378012E+03   -0.39150E-03   -0.16197E-02 53784   0.250E-01    0.887E-01
DAV:   4    -0.269501391215E+03    0.98680E-03   -0.61487E-03 53608   0.171E-01    0.289E-01
DAV:   5    -0.269501468770E+03   -0.77555E-04   -0.16940E-03 54112   0.958E-02    0.190E-01
DAV:   6    -0.269501429910E+03    0.38860E-04   -0.42837E-04 54280   0.762E-02    0.874E-02
DAV:   7    -0.269501529597E+03   -0.99687E-04   -0.87310E-04 42128   0.640E-02    0.287E-01
DAV:   8    -0.269501399060E+03    0.13054E-03   -0.70331E-04 38112   0.604E-02    0.606E-02
DAV:   9    -0.269501447422E+03   -0.48363E-04   -0.12596E-04 30616   0.294E-02    0.594E-02
DAV:  10    -0.269501452540E+03   -0.51178E-05   -0.19850E-05 26496   0.141E-02
  19 F= -.26950145E+03 E0= -.26949256E+03  d E =-.141974E-01  mag=     4.0000
       N       E                     dE             d eps       ncg     rms          rms(c)
DAV:   1    -0.269519366407E+03   -0.17919E-01   -0.44242E+00 39816   0.833E+00    0.148E+00
DAV:   2    -0.269538974075E+03   -0.19608E-01   -0.24411E-01 45240   0.182E+00    0.200E+00
DAV:   3    -0.269559634236E+03   -0.20660E-01   -0.29424E-01 54096   0.111E+00    0.480E+00
DAV:   4    -0.269531118102E+03    0.28516E-01   -0.20061E-01 53264   0.845E-01    0.171E+00
DAV:   5    -0.269532140551E+03   -0.10224E-02   -0.42491E-02 52984   0.456E-01    0.610E-01
DAV:   6    -0.269534360008E+03   -0.22195E-02   -0.18520E-02 54504   0.329E-01    0.115E+00
DAV:   7    -0.269532298045E+03    0.20620E-02   -0.15366E-02 54056   0.273E-01    0.364E-01
DAV:   8    -0.269532331352E+03   -0.33308E-04   -0.18172E-03 54312   0.176E-01    0.171E-01
DAV:   9    -0.269532496964E+03   -0.16561E-03   -0.16667E-03 54752   0.991E-02    0.174E-01
DAV:  10    -0.269532598244E+03   -0.10128E-03   -0.42865E-04 43032   0.499E-02    0.181E-01
DAV:  11    -0.269532594642E+03    0.36015E-05   -0.20921E-04 48984   0.457E-02    0.145E-01
DAV:  12    -0.269532571501E+03    0.23142E-04   -0.10440E-04 37616   0.455E-02    0.793E-02
DAV:  13    -0.269532559747E+03    0.11754E-04   -0.95778E-05 45584   0.441E-02    0.693E-02
DAV:  14    -0.269532572359E+03   -0.12612E-04   -0.62908E-05 32144   0.311E-02    0.532E-02
DAV:  15    -0.269532578917E+03   -0.65577E-05   -0.30289E-05 28368   0.230E-02
  20 F= -.26953258E+03 E0= -.26952365E+03  d E =-.311264E-01  mag=     4.0000
       N       E                     dE             d eps       ncg     rms          rms(c)
DAV:   1    -0.269532181649E+03    0.39071E-03   -0.46507E-02 41512   0.813E-01    0.165E-01
DAV:   2    -0.269532373494E+03   -0.19185E-03   -0.24808E-03 48008   0.187E-01    0.241E-01
DAV:   3    -0.269532580054E+03   -0.20656E-03   -0.35669E-03 53896   0.125E-01    0.480E-01
DAV:   4    -0.269532261202E+03    0.31885E-03   -0.17695E-03 52584   0.925E-02    0.181E-01
DAV:   5    -0.269532281469E+03   -0.20267E-04   -0.56427E-04 33288   0.473E-02    0.956E-02
DAV:   6    -0.269532284550E+03   -0.30806E-05   -0.16074E-04 37024   0.411E-02    0.855E-02
DAV:   7    -0.269532275956E+03    0.85938E-05   -0.13366E-04 31360   0.295E-02    0.535E-02
DAV:   8    -0.269532272832E+03    0.31244E-05   -0.37279E-05 29656   0.253E-02
  21 F= -.26953227E+03 E0= -.26952333E+03  d E =0.306085E-03  mag=     4.0000
       N       E                     dE             d eps       ncg     rms          rms(c)
DAV:   1    -0.269533616664E+03   -0.13407E-02   -0.71933E-02 40600   0.115E+00    0.140E-01
DAV:   2    -0.269534013824E+03   -0.39716E-03   -0.43136E-03 42936   0.229E-01    0.260E-01
DAV:   3    -0.269534035354E+03   -0.21530E-04   -0.23041E-03 54384   0.111E-01    0.314E-01
DAV:   4    -0.269533993664E+03    0.41690E-04   -0.14917E-03 46784   0.768E-02    0.269E-01
DAV:   5    -0.269533885060E+03    0.10860E-03   -0.60540E-04 34960   0.544E-02    0.718E-02
DAV:   6    -0.269533909590E+03   -0.24530E-04   -0.10936E-04 31184   0.276E-02    0.110E-01
DAV:   7    -0.269533892440E+03    0.17150E-04   -0.12353E-04 30832   0.296E-02    0.624E-02
DAV:   8    -0.269533883469E+03    0.89714E-05   -0.56566E-05 34232   0.316E-02
  22 F= -.26953388E+03 E0= -.26952501E+03  d E =-.161064E-02  mag=     4.0000
       N       E                     dE             d eps       ncg     rms          rms(c)
DAV:   1    -0.269535283917E+03   -0.13915E-02   -0.56325E-01 39816   0.327E+00    0.271E-01
DAV:   2    -0.269538331171E+03   -0.30473E-02   -0.31967E-02 42416   0.607E-01    0.610E-01
DAV:   3    -0.269537936246E+03    0.39492E-03   -0.89042E-03 54776   0.218E-01    0.405E-01
DAV:   4    -0.269538223647E+03   -0.28740E-03   -0.58355E-03 54336   0.148E-01    0.607E-01
DAV:   5    -0.269537630214E+03    0.59343E-03   -0.32106E-03 54280   0.119E-01    0.114E-01
DAV:   6    -0.269537855410E+03   -0.22520E-03   -0.11663E-03 51560   0.764E-02    0.338E-01
DAV:   7    -0.269537662835E+03    0.19258E-03   -0.94838E-04 52960   0.776E-02    0.670E-02
DAV:   8    -0.269537685701E+03   -0.22866E-04   -0.74523E-05 40712   0.450E-02    0.353E-02
DAV:   9    -0.269537691820E+03   -0.61188E-05   -0.49248E-05 26368   0.229E-02
  23 F= -.26953769E+03 E0= -.26952887E+03  d E =-.380835E-02  mag=     4.0000
       N       E                     dE             d eps       ncg     rms          rms(c)
DAV:   1    -0.269536515694E+03    0.11700E-02   -0.17140E+00 40304   0.558E+00    0.297E-01
DAV:   2    -0.269545176762E+03   -0.86611E-02   -0.87741E-02 42648   0.980E-01    0.984E-01
DAV:   3    -0.269543575897E+03    0.16009E-02   -0.14501E-02 54600   0.300E-01    0.305E-01
DAV:   4    -0.269544237894E+03   -0.66200E-03   -0.63483E-03 56120   0.164E-01    0.688E-01
DAV:   5    -0.269543421523E+03    0.81637E-03   -0.39955E-03 54432   0.133E-01    0.153E-01
DAV:   6    -0.269543692441E+03   -0.27092E-03   -0.15008E-03 52112   0.811E-02    0.376E-01
DAV:   7    -0.269543412129E+03    0.28031E-03   -0.94071E-04 54720   0.881E-02    0.757E-02
DAV:   8    -0.269543459622E+03   -0.47493E-04   -0.14648E-04 46384   0.408E-02    0.589E-02
DAV:   9    -0.269543470422E+03   -0.10800E-04   -0.62008E-05 30672   0.269E-02    0.482E-02
DAV:  10    -0.269543475460E+03   -0.50378E-05   -0.25400E-05 24864   0.201E-02
  24 F= -.26954348E+03 E0= -.26953474E+03  d E =-.578364E-02  mag=     4.0000
       N       E                     dE             d eps       ncg     rms          rms(c)
DAV:   1    -0.269529021220E+03    0.14449E-01   -0.58724E+00 39816   0.969E+00    0.522E-01
DAV:   2    -0.269551516551E+03   -0.22495E-01   -0.23609E-01 41992   0.164E+00    0.922E-01
DAV:   3    -0.269551682468E+03   -0.16592E-03   -0.31580E-02 54704   0.430E-01    0.976E-01
DAV:   4    -0.269550380805E+03    0.13017E-02   -0.12670E-02 55360   0.267E-01    0.594E-01
DAV:   5    -0.269550021094E+03    0.35971E-03   -0.44906E-03 54264   0.153E-01    0.347E-01
DAV:   6    -0.269550475977E+03   -0.45488E-03   -0.56430E-03 54344   0.160E-01    0.755E-01
DAV:   7    -0.269549471673E+03    0.10043E-02   -0.45870E-03 53600   0.160E-01    0.213E-01
DAV:   8    -0.269549485783E+03   -0.14110E-04   -0.79355E-04 54080   0.131E-01    0.109E-01
DAV:   9    -0.269549696896E+03   -0.21111E-03   -0.11282E-03 53392   0.806E-02    0.156E-01
DAV:  10    -0.269549730888E+03   -0.33992E-04   -0.15711E-04 37840   0.434E-02    0.153E-01
DAV:  11    -0.269549736200E+03   -0.53123E-05   -0.12619E-04 47696   0.459E-02    0.102E-01
DAV:  12    -0.269549728410E+03    0.77908E-05   -0.67238E-05 35656   0.371E-02
  25 F= -.26954973E+03 E0= -.26954118E+03  d E =-.625295E-02  mag=     4.0000
       N       E                     dE             d eps       ncg     rms          rms(c)
DAV:   1    -0.269486004627E+03    0.63732E-01   -0.25736E+01 39816   0.183E+01    0.127E+00
DAV:   2    -0.269564676857E+03   -0.78672E-01   -0.83248E-01 42352   0.306E+00    0.201E+00
DAV:   3    -0.269567273958E+03   -0.25971E-02   -0.19620E-01 54728   0.110E+00    0.240E+00
DAV:   4    -0.269557226667E+03    0.10047E-01   -0.66698E-02 55008   0.661E-01    0.131E+00
DAV:   5    -0.269555589595E+03    0.16371E-02   -0.25265E-02 55224   0.348E-01    0.636E-01
DAV:   6    -0.269556738718E+03   -0.11491E-02   -0.21275E-02 54152   0.348E-01    0.132E+00
DAV:   7    -0.269554171358E+03    0.25674E-02   -0.17404E-02 53872   0.274E-01    0.452E-01
DAV:   8    -0.269554166418E+03    0.49399E-05   -0.35300E-03 53168   0.236E-01    0.237E-01
DAV:   9    -0.269554473195E+03   -0.30678E-03   -0.25454E-03 53928   0.114E-01    0.229E-01
DAV:  10    -0.269554609653E+03   -0.13646E-03   -0.70095E-04 49672   0.737E-02    0.184E-01
DAV:  11    -0.269554610412E+03   -0.75844E-06   -0.39642E-04 53608   0.639E-02    0.127E-01
DAV:  12    -0.269554617118E+03   -0.67061E-05   -0.21988E-04 42984   0.478E-02    0.786E-02
DAV:  13    -0.269554629612E+03   -0.12494E-04   -0.81489E-05 34440   0.292E-02    0.371E-02
DAV:  14    -0.269554638628E+03   -0.90162E-05   -0.51953E-05 27560   0.220E-02
  26 F= -.26955464E+03 E0= -.26954615E+03  d E =-.491022E-02  mag=     4.0000
       N       E                     dE             d eps       ncg     rms          rms(c)
DAV:   1    -0.269556970154E+03   -0.23405E-02   -0.12748E+00 39312   0.464E+00    0.624E-01
DAV:   2    -0.269565440563E+03   -0.84704E-02   -0.84886E-02 46424   0.914E-01    0.150E+00
DAV:   3    -0.269564122154E+03    0.13184E-02   -0.63093E-02 53648   0.515E-01    0.137E+00
DAV:   4    -0.269564261021E+03   -0.13887E-03   -0.27123E-02 52544   0.342E-01    0.128E+00
DAV:   5    -0.269561473012E+03    0.27880E-02   -0.10786E-02 53656   0.260E-01    0.277E-01
DAV:   6    -0.269562378915E+03   -0.90590E-03   -0.38720E-03 54160   0.136E-01    0.602E-01
DAV:   7    -0.269561738539E+03    0.64038E-03   -0.34179E-03 53720   0.141E-01    0.156E-01
DAV:   8    -0.269561900202E+03   -0.16166E-03   -0.82304E-04 53416   0.797E-02    0.143E-01
DAV:   9    -0.269562010082E+03   -0.10988E-03   -0.51247E-04 43472   0.600E-02    0.142E-01
DAV:  10    -0.269562022056E+03   -0.11975E-04   -0.93182E-05 34456   0.377E-02    0.134E-01
DAV:  11    -0.269562028106E+03   -0.60497E-05   -0.85580E-05 42432   0.353E-02
  27 F= -.26956203E+03 E0= -.26955332E+03  d E =-.738948E-02  mag=     4.0000
       N       E                     dE             d eps       ncg     rms          rms(c)
DAV:   1    -0.269565122642E+03   -0.31006E-02   -0.91654E-01 40320   0.343E+00    0.318E-01
DAV:   2    -0.269568719828E+03   -0.35972E-02   -0.35291E-02 44880   0.632E-01    0.937E-01
DAV:   3    -0.269567771152E+03    0.94868E-03   -0.15122E-02 54648   0.280E-01    0.561E-01
DAV:   4    -0.269567857499E+03   -0.86347E-04   -0.53344E-03 53208   0.165E-01    0.540E-01
DAV:   5    -0.269567425410E+03    0.43209E-03   -0.32241E-03 53984   0.117E-01    0.146E-01
DAV:   6    -0.269567456341E+03   -0.30931E-04   -0.33709E-04 54208   0.803E-02    0.126E-01
DAV:   7    -0.269567555519E+03   -0.99179E-04   -0.12235E-03 54208   0.825E-02    0.275E-01
DAV:   8    -0.269567400768E+03    0.15475E-03   -0.75673E-04 46360   0.744E-02    0.580E-02
DAV:   9    -0.269567447302E+03   -0.46534E-04   -0.14549E-04 31656   0.256E-02    0.635E-02
DAV:  10    -0.269567452789E+03   -0.54875E-05   -0.19205E-05 25360   0.140E-02
  28 F= -.26956745E+03 E0= -.26955871E+03  d E =-.542468E-02  mag=     4.0000
       N       E                     dE             d eps       ncg     rms          rms(c)
DAV:   1    -0.269521989020E+03    0.45458E-01   -0.25343E+01 40320   0.168E+01    0.919E-01
DAV:   2    -0.269595683219E+03   -0.73694E-01   -0.74802E-01 42584   0.271E+00    0.318E+00
DAV:   3    -0.269582764394E+03    0.12919E-01   -0.14829E-01 54232   0.887E-01    0.137E+00
DAV:   4    -0.269581427980E+03    0.13364E-02   -0.14752E-02 53776   0.381E-01    0.585E-01
DAV:   5    -0.269581847549E+03   -0.41957E-03   -0.14364E-02 54432   0.288E-01    0.822E-01
DAV:   6    -0.269579708230E+03    0.21393E-02   -0.84114E-03 54024   0.300E-01    0.350E-01
DAV:   7    -0.269580513503E+03   -0.80527E-03   -0.87246E-03 54440   0.203E-01    0.728E-01
DAV:   8    -0.269579805021E+03    0.70848E-03   -0.45522E-03 52528   0.157E-01    0.209E-01
DAV:   9    -0.269579996293E+03   -0.19127E-03   -0.44497E-04 51520   0.618E-02    0.147E-01
DAV:  10    -0.269580014502E+03   -0.18209E-04   -0.96259E-05 33192   0.354E-02    0.133E-01
DAV:  11    -0.269580014513E+03   -0.11169E-07   -0.92230E-05 37632   0.367E-02
  29 F= -.26958001E+03 E0= -.26957132E+03  d E =-.125617E-01  mag=     4.0000
       N       E                     dE             d eps       ncg     rms          rms(c)
DAV:   1    -0.267994011920E+03    0.15860E+01   -0.14039E+02 40320   0.459E+01    0.926E+00
DAV:   2    -0.268678722376E+03   -0.68471E+00   -0.80271E+00 47584   0.977E+00    0.945E+00
DAV:   3    -0.269094442859E+03   -0.41572E+00   -0.83479E+00 54080   0.654E+00    0.164E+01
DAV:   4    -0.268726823838E+03    0.36762E+00   -0.49330E+00 54352   0.476E+00    0.146E+01
DAV:   5    -0.268416240258E+03    0.31058E+00   -0.24358E+00 54496   0.308E+00    0.373E+00
DAV:   6    -0.268550636714E+03   -0.13440E+00   -0.10393E+00 54040   0.216E+00    0.954E+00
DAV:   7    -0.268419253895E+03    0.13138E+00   -0.90103E-01 52984   0.183E+00    0.235E+00
DAV:   8    -0.268441139437E+03   -0.21886E-01   -0.60787E-02 53680   0.100E+00    0.182E+00
DAV:   9    -0.268442113069E+03   -0.97363E-03   -0.65944E-02 54344   0.703E-01    0.131E+00
DAV:  10    -0.268446139518E+03   -0.40264E-02   -0.39215E-02 53352   0.451E-01    0.122E+00
DAV:  11    -0.268448142699E+03   -0.20032E-02   -0.18376E-02 52792   0.323E-01    0.115E+00
DAV:  12    -0.268447177327E+03    0.96537E-03   -0.97372E-03 54288   0.289E-01    0.836E-01
DAV:  13    -0.268446342921E+03    0.83441E-03   -0.13515E-02 54584   0.363E-01    0.577E-01
DAV:  14    -0.268447464859E+03   -0.11219E-02   -0.46323E-03 51792   0.241E-01    0.509E-01
DAV:  15    -0.268448072042E+03   -0.60718E-03   -0.26618E-03 51152   0.213E-01    0.433E-01
DAV:  16    -0.268448279872E+03   -0.20783E-03   -0.25514E-03 53152   0.205E-01    0.313E-01
DAV:  17    -0.268448407726E+03   -0.12785E-03   -0.48355E-04 51632   0.678E-02    0.307E-01
DAV:  18    -0.268448391403E+03    0.16324E-04   -0.45104E-05 31080   0.264E-02    0.288E-01
DAV:  19    -0.268448390805E+03    0.59727E-06   -0.27274E-04 48632   0.566E-02    0.202E-01
DAV:  20    -0.268448381286E+03    0.95191E-05   -0.37119E-04 53176   0.778E-02    0.732E-02
DAV:  21    -0.268448399301E+03   -0.18015E-04   -0.18038E-04 47040   0.433E-02    0.898E-02
DAV:  22    -0.268448414913E+03   -0.15612E-04   -0.47350E-05 31544   0.261E-02    0.672E-02
DAV:  23    -0.268448427412E+03   -0.12499E-04   -0.69265E-05 35664   0.290E-02    0.376E-02
DAV:  24    -0.268448428653E+03   -0.12407E-05   -0.26472E-05 28968   0.179E-02
  30 F= -.26844843E+03 E0= -.26843935E+03  d E =0.113159E+01  mag=     4.0000
       N       E                     dE             d eps       ncg     rms          rms(c)
DAV:   1    -0.269231309670E+03   -0.78288E+00   -0.23535E+01 40320   0.173E+01    0.425E+00
DAV:   2    -0.269406158305E+03   -0.17485E+00   -0.18492E+00 47592   0.408E+00    0.801E+00
DAV:   3    -0.269408407619E+03   -0.22493E-02   -0.23362E+00 54224   0.319E+00    0.902E+00
DAV:   4    -0.269289890413E+03    0.11852E+00   -0.53568E-01 53888   0.177E+00    0.365E+00
DAV:   5    -0.269300537433E+03   -0.10647E-01   -0.27100E-01 53976   0.102E+00    0.361E+00
DAV:   6    -0.269285863144E+03    0.14674E-01   -0.88987E-02 54160   0.809E-01    0.116E+00
DAV:   7    -0.269300797918E+03   -0.14935E-01   -0.88033E-02 54416   0.567E-01    0.243E+00
DAV:   8    -0.269296318467E+03    0.44795E-02   -0.77365E-02 53512   0.620E-01    0.154E+00
DAV:   9    -0.269297299701E+03   -0.98123E-03   -0.18380E-02 52184   0.324E-01    0.111E+00
DAV:  10    -0.269297837587E+03   -0.53789E-03   -0.65357E-03 53928   0.227E-01    0.100E+00
DAV:  11    -0.269297132096E+03    0.70549E-03   -0.52426E-03 53752   0.198E-01    0.710E-01
DAV:  12    -0.269296950617E+03    0.18148E-03   -0.29729E-03 54224   0.190E-01    0.398E-01
DAV:  13    -0.269297096183E+03   -0.14557E-03   -0.19347E-03 54048   0.171E-01    0.267E-01
DAV:  14    -0.269297249464E+03   -0.15328E-03   -0.10876E-03 53104   0.117E-01    0.327E-01
DAV:  15    -0.269297180538E+03    0.68926E-04   -0.59596E-04 52856   0.835E-02    0.189E-01
DAV:  16    -0.269297186232E+03   -0.56944E-05   -0.33611E-04 52232   0.640E-02    0.833E-02
DAV:  17    -0.269297227306E+03   -0.41074E-04   -0.15328E-04 34840   0.386E-02    0.661E-02
DAV:  18    -0.269297252191E+03   -0.24884E-04   -0.97913E-05 33808   0.345E-02    0.636E-02
DAV:  19    -0.269297254312E+03   -0.21215E-05   -0.24128E-05 28560   0.169E-02
  31 F= -.26929725E+03 E0= -.26928783E+03  d E =-.848826E+00  mag=     4.0000
       N       E                     dE             d eps       ncg     rms          rms(c)
DAV:   1    -0.269395263617E+03   -0.98011E-01   -0.10812E+00 40320   0.409E+00    0.854E-01
DAV:   2    -0.269402057630E+03   -0.67940E-02   -0.77117E-02 47752   0.932E-01    0.144E+00
DAV:   3    -0.269403914466E+03   -0.18568E-02   -0.94917E-02 54448   0.630E-01    0.198E+00
DAV:   4    -0.269399558439E+03    0.43560E-02   -0.39092E-02 53768   0.424E-01    0.120E+00
DAV:   5    -0.269398313172E+03    0.12453E-02   -0.13529E-02 53544   0.258E-01    0.475E-01
DAV:   6    -0.269399260080E+03   -0.94691E-03   -0.78561E-03 54376   0.215E-01    0.773E-01
DAV:   7    -0.269398165025E+03    0.10951E-02   -0.60715E-03 54088   0.186E-01    0.286E-01
DAV:   8    -0.269398180911E+03   -0.15886E-04   -0.14858E-03 54376   0.151E-01    0.182E-01
DAV:   9    -0.269398491313E+03   -0.31040E-03   -0.25895E-03 52544   0.113E-01    0.170E-01
DAV:  10    -0.269398659310E+03   -0.16800E-03   -0.51996E-04 48440   0.668E-02    0.167E-01
DAV:  11    -0.269398679018E+03   -0.19708E-04   -0.22995E-04 46192   0.465E-02    0.153E-01
DAV:  12    -0.269398668334E+03    0.10685E-04   -0.86041E-05 36064   0.379E-02    0.100E-01
DAV:  13    -0.269398665669E+03    0.26650E-05   -0.10192E-04 44592   0.449E-02    0.783E-02
DAV:  14    -0.269398666603E+03   -0.93454E-06   -0.57449E-05 32592   0.286E-02
  32 F= -.26939867E+03 E0= -.26938930E+03  d E =-.101412E+00  mag=     4.0000
       N       E                     dE             d eps       ncg     rms          rms(c)
DAV:   1    -0.269471457822E+03   -0.72792E-01   -0.30788E+01 40320   0.218E+01    0.451E+00
DAV:   2    -0.269611220658E+03   -0.13976E+00   -0.17914E+00 47056   0.491E+00    0.433E+00
DAV:   3    -0.269793445934E+03   -0.18223E+00   -0.24085E+00 53520   0.330E+00    0.115E+01
DAV:   4    -0.269623326055E+03    0.17012E+00   -0.17133E+00 53760   0.241E+00    0.775E+00
DAV:   5    -0.269554329841E+03    0.68996E-01   -0.37649E-01 53896   0.143E+00    0.219E+00
DAV:   6    -0.269577031207E+03   -0.22701E-01   -0.13137E-01 54176   0.896E-01    0.307E+00
DAV:   7    -0.269566656541E+03    0.10375E-01   -0.16485E-01 54176   0.858E-01    0.220E+00
DAV:   8    -0.269560892428E+03    0.57641E-02   -0.34060E-02 53728   0.681E-01    0.139E+00
DAV:   9    -0.269564315733E+03   -0.34233E-02   -0.83232E-02 54160   0.679E-01    0.137E+00
DAV:  10    -0.269568014659E+03   -0.36989E-02   -0.22693E-02 52880   0.444E-01    0.949E-01
DAV:  11    -0.269569017404E+03   -0.10027E-02   -0.81121E-03 53896   0.260E-01    0.822E-01
DAV:  12    -0.269568893758E+03    0.12365E-03   -0.19676E-03 54288   0.155E-01    0.692E-01
DAV:  13    -0.269568657278E+03    0.23648E-03   -0.32126E-03 52488   0.267E-01    0.448E-01
DAV:  14    -0.269568432956E+03    0.22432E-03   -0.24322E-03 54248   0.150E-01    0.274E-01
DAV:  15    -0.269568445062E+03   -0.12107E-04   -0.76171E-04 52568   0.805E-02    0.151E-01
DAV:  16    -0.269568534636E+03   -0.89573E-04   -0.64023E-04 43496   0.546E-02    0.137E-01
DAV:  17    -0.269568559850E+03   -0.25214E-04   -0.78336E-05 32488   0.318E-02    0.116E-01
DAV:  18    -0.269568549869E+03    0.99809E-05   -0.34010E-05 30288   0.217E-02
  33 F= -.26956855E+03 E0= -.26955989E+03  d E =-.169883E+00  mag=     4.0000
       N       E                     dE             d eps       ncg     rms          rms(c)
DAV:   1    -0.269585244100E+03   -0.16684E-01   -0.13492E+00 40576   0.449E+00    0.925E-01
DAV:   2    -0.269591926414E+03   -0.66823E-02   -0.80062E-02 46952   0.100E+00    0.107E+00
DAV:   3    -0.269596432147E+03   -0.45057E-02   -0.72221E-02 53184   0.687E-01    0.195E+00
DAV:   4    -0.269589479383E+03    0.69528E-02   -0.40779E-02 54792   0.498E-01    0.806E-01
DAV:   5    -0.269589673357E+03   -0.19397E-03   -0.11299E-02 54072   0.222E-01    0.550E-01
DAV:   6    -0.269589436153E+03    0.23720E-03   -0.34424E-03 54256   0.161E-01    0.530E-01
DAV:   7    -0.269589209648E+03    0.22651E-03   -0.41711E-03 53504   0.119E-01    0.482E-01
DAV:   8    -0.269588766715E+03    0.44293E-03   -0.14195E-03 52856   0.151E-01    0.224E-01
DAV:   9    -0.269589106742E+03   -0.34003E-03   -0.36877E-03 52344   0.117E-01    0.205E-01
DAV:  10    -0.269589351143E+03   -0.24440E-03   -0.74393E-04 50000   0.822E-02    0.193E-01
DAV:  11    -0.269589362526E+03   -0.11383E-04   -0.37205E-04 54496   0.693E-02    0.131E-01
DAV:  12    -0.269589360022E+03    0.25046E-05   -0.15528E-04 46928   0.540E-02    0.618E-02
DAV:  13    -0.269589363090E+03   -0.30686E-05   -0.71808E-05 36360   0.371E-02
  34 F= -.26958936E+03 E0= -.26958056E+03  d E =-.208132E-01  mag=     4.0000
       N       E                     dE             d eps       ncg     rms          rms(c)
DAV:   1    -0.269591771747E+03   -0.24117E-02   -0.12121E-01 40896   0.144E+00    0.230E-01
DAV:   2    -0.269593472550E+03   -0.17008E-02   -0.15443E-02 50728   0.340E-01    0.960E-01
DAV:   3    -0.269592166828E+03    0.13057E-02   -0.13547E-02 53088   0.240E-01    0.353E-01
DAV:   4    -0.269592686426E+03   -0.51960E-03   -0.37878E-03 52832   0.129E-01    0.537E-01
DAV:   5    -0.269592207385E+03    0.47904E-03   -0.22428E-03 50960   0.105E-01    0.128E-01
DAV:   6    -0.269592286676E+03   -0.79291E-04   -0.45622E-04 35256   0.517E-02    0.145E-01
DAV:   7    -0.269592253063E+03    0.33613E-04   -0.18660E-04 39904   0.469E-02    0.583E-02
DAV:   8    -0.269592249594E+03    0.34686E-05   -0.39503E-05 32160   0.280E-02
  35 F= -.26959225E+03 E0= -.26958346E+03  d E =-.288650E-02  mag=     4.0000
       N       E                     dE             d eps       ncg     rms          rms(c)
DAV:   1    -0.269593186050E+03   -0.93299E-03   -0.69591E-01 40320   0.353E+00    0.403E-01
DAV:   2    -0.269598434653E+03   -0.52486E-02   -0.53118E-02 47000   0.700E-01    0.132E+00
DAV:   3    -0.269596336008E+03    0.20986E-02   -0.32760E-02 53888   0.382E-01    0.696E-01
DAV:   4    -0.269597422303E+03   -0.10863E-02   -0.13043E-02 54496   0.233E-01    0.981E-01
DAV:   5    -0.269595834227E+03    0.15881E-02   -0.75002E-03 53328   0.189E-01    0.186E-01
DAV:   6    -0.269596182593E+03   -0.34837E-03   -0.16386E-03 53400   0.941E-02    0.303E-01
DAV:   7    -0.269596006371E+03    0.17622E-03   -0.82743E-04 53992   0.865E-02    0.777E-02
DAV:   8    -0.269596039692E+03   -0.33321E-04   -0.11638E-04 41976   0.441E-02    0.672E-02
DAV:   9    -0.269596045000E+03   -0.53076E-05   -0.43415E-05 28808   0.227E-02
  36 F= -.26959604E+03 E0= -.26958724E+03  d E =-.379541E-02  mag=     4.0000
       N       E                     dE             d eps       ncg     rms          rms(c)
DAV:   1    -0.269596784734E+03   -0.74504E-03   -0.13125E-01 40448   0.141E+00    0.144E-01
DAV:   2    -0.269597337941E+03   -0.55321E-03   -0.62108E-03 41176   0.254E-01    0.236E-01
DAV:   3    -0.269597373467E+03   -0.35526E-04   -0.19850E-03 56168   0.105E-01    0.298E-01
DAV:   4    -0.269597265207E+03    0.10826E-03   -0.85101E-04 46184   0.667E-02    0.185E-01
DAV:   5    -0.269597232234E+03    0.32973E-04   -0.26588E-04 32672   0.349E-02    0.917E-02
DAV:   6    -0.269597240063E+03   -0.78288E-05   -0.11348E-04 31264   0.255E-02    0.110E-01
DAV:   7    -0.269597215112E+03    0.24951E-04   -0.13096E-04 32248   0.347E-02    0.684E-02
DAV:   8    -0.269597215172E+03   -0.60278E-07   -0.13343E-04 36080   0.383E-02    0.457E-02
DAV:   9    -0.269597238662E+03   -0.23489E-04   -0.10668E-04 30168   0.314E-02    0.558E-02
DAV:  10    -0.269597238867E+03   -0.20521E-06   -0.15170E-05 26384   0.171E-02
  37 F= -.26959724E+03 E0= -.26958836E+03  d E =-.119387E-02  mag=     4.0000
       N       E                     dE             d eps       ncg     rms          rms(c)
DAV:   1    -0.269595436441E+03    0.18022E-02   -0.12945E+00 40320   0.431E+00    0.337E-01
DAV:   2    -0.269600694887E+03   -0.52584E-02   -0.56826E-02 41512   0.741E-01    0.750E-01
DAV:   3    -0.269600358460E+03    0.33643E-03   -0.15117E-02 58240   0.276E-01    0.673E-01
DAV:   4    -0.269600583667E+03   -0.22521E-03   -0.88648E-03 53080   0.192E-01    0.769E-01
DAV:   5    -0.269599628775E+03    0.95489E-03   -0.55954E-03 53936   0.158E-01    0.186E-01
DAV:   6    -0.269599955192E+03   -0.32642E-03   -0.22485E-03 54184   0.990E-02    0.400E-01
DAV:   7    -0.269599639680E+03    0.31551E-03   -0.13990E-03 55800   0.964E-02    0.762E-02
DAV:   8    -0.269599712036E+03   -0.72356E-04   -0.14007E-04 44472   0.370E-02    0.661E-02
DAV:   9    -0.269599718983E+03   -0.69471E-05   -0.52489E-05 29032   0.214E-02
  38 F= -.26959972E+03 E0= -.26959064E+03  d E =-.248012E-02  mag=     4.0000
       N       E                     dE             d eps       ncg     rms          rms(c)
DAV:   1    -0.269599608763E+03    0.10327E-03   -0.31431E-01 39344   0.211E+00    0.199E-01
DAV:   2    -0.269600855679E+03   -0.12469E-02   -0.13382E-02 41720   0.378E-01    0.340E-01
DAV:   3    -0.269600820538E+03    0.35141E-04   -0.37884E-03 54560   0.141E-01    0.344E-01
DAV:   4    -0.269600898784E+03   -0.78247E-04   -0.32435E-03 53368   0.106E-01    0.444E-01
DAV:   5    -0.269600577718E+03    0.32107E-03   -0.15951E-03 50352   0.852E-02    0.940E-02
DAV:   6    -0.269600703676E+03   -0.12596E-03   -0.67067E-04 35760   0.573E-02    0.261E-01
DAV:   7    -0.269600582053E+03    0.12162E-03   -0.61635E-04 46072   0.639E-02    0.527E-02
DAV:   8    -0.269600620128E+03   -0.38075E-04   -0.13632E-04 31768   0.358E-02    0.557E-02
DAV:   9    -0.269600637819E+03   -0.17691E-04   -0.78461E-05 29360   0.281E-02    0.589E-02
DAV:  10    -0.269600638410E+03   -0.59092E-06   -0.15652E-05 25664   0.137E-02
  39 F= -.26960064E+03 E0= -.26959158E+03  d E =-.919426E-03  mag=     4.0000
       N       E                     dE             d eps       ncg     rms          rms(c)
DAV:   1    -0.269581316971E+03    0.19321E-01   -0.80321E+00 40320   0.104E+01    0.624E-01
DAV:   2    -0.269615042914E+03   -0.33726E-01   -0.33229E-01 42016   0.176E+00    0.284E+00
DAV:   3    -0.269603667388E+03    0.11376E-01   -0.91278E-02 52944   0.654E-01    0.677E-01
DAV:   4    -0.269605559286E+03   -0.18919E-02   -0.80920E-03 52560   0.268E-01    0.722E-01
DAV:   5    -0.269604723164E+03    0.83612E-03   -0.77399E-03 54456   0.206E-01    0.412E-01
DAV:   6    -0.269605375677E+03   -0.65251E-03   -0.72103E-03 54112   0.190E-01    0.839E-01
DAV:   7    -0.269604054597E+03    0.13211E-02   -0.61978E-03 53968   0.187E-01    0.200E-01
DAV:   8    -0.269604233829E+03   -0.17923E-03   -0.78639E-04 53000   0.920E-02    0.150E-01
DAV:   9    -0.269604310816E+03   -0.76987E-04   -0.62004E-04 53080   0.685E-02    0.125E-01
DAV:  10    -0.269604366926E+03   -0.56110E-04   -0.23412E-04 34360   0.484E-02    0.126E-01
DAV:  11    -0.269604382193E+03   -0.15267E-04   -0.12593E-04 43608   0.379E-02    0.135E-01
DAV:  12    -0.269604371380E+03    0.10813E-04   -0.59440E-05 32496   0.268E-02    0.830E-02
DAV:  13    -0.269604372464E+03   -0.10838E-05   -0.82414E-05 38696   0.316E-02
  40 F= -.26960437E+03 E0= -.26959511E+03  d E =-.373405E-02  mag=     4.0000
       N       E                     dE             d eps       ncg     rms          rms(c)
DAV:   1    -0.269330667795E+03    0.27370E+00   -0.76868E+01 40320   0.327E+01    0.229E+00
DAV:   2    -0.269649085067E+03   -0.31842E+00   -0.33146E+00 41456   0.556E+00    0.620E+00
DAV:   3    -0.269605563196E+03    0.43522E-01   -0.62725E-01 54144   0.189E+00    0.392E+00
DAV:   4    -0.269593484823E+03    0.12078E-01   -0.12355E-01 53288   0.933E-01    0.206E+00
DAV:   5    -0.269589892196E+03    0.35926E-02   -0.63436E-02 54656   0.547E-01    0.120E+00
DAV:   6    -0.269595330816E+03   -0.54386E-02   -0.88124E-02 53440   0.618E-01    0.259E+00
DAV:   7    -0.269584562726E+03    0.10768E-01   -0.60120E-02 53432   0.552E-01    0.907E-01
DAV:   8    -0.269585647298E+03   -0.10846E-02   -0.12520E-02 53552   0.329E-01    0.354E-01
DAV:   9    -0.269587586323E+03   -0.19390E-02   -0.87214E-03 53744   0.231E-01    0.524E-01
DAV:  10    -0.269587963072E+03   -0.37675E-03   -0.17537E-03 53248   0.148E-01    0.510E-01
DAV:  11    -0.269587895312E+03    0.67760E-04   -0.88484E-04 54432   0.101E-01    0.401E-01
DAV:  12    -0.269587862247E+03    0.33065E-04   -0.91355E-04 53992   0.109E-01    0.242E-01
DAV:  13    -0.269587857216E+03    0.50310E-05   -0.55631E-04 53328   0.958E-02    0.108E-01
DAV:  14    -0.269587898645E+03   -0.41429E-04   -0.35458E-04 48032   0.476E-02    0.951E-02
DAV:  15    -0.269587919661E+03   -0.21016E-04   -0.11534E-04 34128   0.442E-02    0.544E-02
DAV:  16    -0.269587926176E+03   -0.65149E-05   -0.83445E-05 39168   0.294E-02
  41 F= -.26958793E+03 E0= -.26957786E+03  d E =0.164463E-01  mag=     4.0000
       N       E                     dE             d eps       ncg     rms          rms(c)
DAV:   1    -0.269585370358E+03    0.25493E-02   -0.53081E+00 40320   0.938E+00    0.127E+00
DAV:   2    -0.269609291454E+03   -0.23921E-01   -0.25855E-01 44072   0.172E+00    0.140E+00
DAV:   3    -0.269623567154E+03   -0.14276E-01   -0.19077E-01 53360   0.101E+00    0.333E+00
DAV:   4    -0.269608092402E+03    0.15475E-01   -0.11537E-01 53648   0.718E-01    0.206E+00
DAV:   5    -0.269604545038E+03    0.35474E-02   -0.38843E-02 52664   0.422E-01    0.368E-01
DAV:   6    -0.269605551947E+03   -0.10069E-02   -0.27327E-03 52936   0.208E-01    0.283E-01
DAV:   7    -0.269606605366E+03   -0.10534E-02   -0.10303E-02 54432   0.213E-01    0.932E-01
DAV:   8    -0.269605200720E+03    0.14046E-02   -0.71888E-03 53032   0.186E-01    0.163E-01
DAV:   9    -0.269605513175E+03   -0.31245E-03   -0.58706E-04 52344   0.841E-02    0.146E-01
DAV:  10    -0.269605559719E+03   -0.46544E-04   -0.41295E-04 44192   0.518E-02    0.135E-01
DAV:  11    -0.269605578896E+03   -0.19177E-04   -0.29440E-04 39136   0.442E-02    0.117E-01
DAV:  12    -0.269605570400E+03    0.84965E-05   -0.14159E-04 38536   0.353E-02    0.787E-02
DAV:  13    -0.269605567889E+03    0.25111E-05   -0.11223E-04 38488   0.395E-02    0.663E-02
DAV:  14    -0.269605591659E+03   -0.23770E-04   -0.77209E-05 32152   0.274E-02    0.720E-02
DAV:  15    -0.269605595224E+03   -0.35651E-05   -0.44523E-05 29128   0.271E-02
  42 F= -.26960560E+03 E0= -.26959580E+03  d E =-.176690E-01  mag=     4.0000
       N       E                     dE             d eps       ncg     rms          rms(c)
DAV:   1    -0.269610543409E+03   -0.49517E-02   -0.55968E-01 40320   0.281E+00    0.580E-01
DAV:   2    -0.269614014567E+03   -0.34712E-02   -0.37890E-02 46840   0.614E-01    0.104E+00
DAV:   3    -0.269614340097E+03   -0.32553E-03   -0.40240E-02 53664   0.382E-01    0.126E+00
DAV:   4    -0.269613025934E+03    0.13142E-02   -0.16510E-02 52296   0.272E-01    0.865E-01
DAV:   5    -0.269612179486E+03    0.84645E-03   -0.72630E-03 53128   0.189E-01    0.209E-01
DAV:   6    -0.269612834430E+03   -0.65494E-03   -0.39552E-03 54208   0.136E-01    0.531E-01
DAV:   7    -0.269612295874E+03    0.53856E-03   -0.25761E-03 54280   0.122E-01    0.741E-02
DAV:   8    -0.269612397275E+03   -0.10140E-03   -0.18041E-04 48152   0.498E-02    0.873E-02
DAV:   9    -0.269612404568E+03   -0.72930E-05   -0.68999E-05 30976   0.272E-02
  43 F= -.26961240E+03 E0= -.26960273E+03  d E =-.680934E-02  mag=     4.0000
       N       E                     dE             d eps       ncg     rms          rms(c)
DAV:   1    -0.269609585571E+03    0.28117E-02   -0.89044E-01 40320   0.359E+00    0.256E-01
DAV:   2    -0.269613505360E+03   -0.39198E-02   -0.40139E-02 41640   0.610E-01    0.858E-01
DAV:   3    -0.269612524162E+03    0.98120E-03   -0.88413E-03 55056   0.214E-01    0.303E-01
DAV:   4    -0.269612824058E+03   -0.29990E-03   -0.23283E-03 52352   0.115E-01    0.405E-01
DAV:   5    -0.269612538806E+03    0.28525E-03   -0.18741E-03 54008   0.952E-02    0.145E-01
DAV:   6    -0.269612734334E+03   -0.19553E-03   -0.15579E-03 49088   0.815E-02    0.359E-01
DAV:   7    -0.269612477452E+03    0.25688E-03   -0.11879E-03 54632   0.825E-02    0.779E-02
DAV:   8    -0.269612527256E+03   -0.49804E-04   -0.19106E-04 32264   0.391E-02    0.706E-02
DAV:   9    -0.269612552179E+03   -0.24923E-04   -0.12771E-04 31448   0.340E-02    0.721E-02
DAV:  10    -0.269612556982E+03   -0.48032E-05   -0.32477E-05 27040   0.198E-02
  44 F= -.26961256E+03 E0= -.26960277E+03  d E =-.152414E-03  mag=     4.0000
       N       E                     dE             d eps       ncg     rms          rms(c)
DAV:   1    -0.267382217516E+03    0.22303E+01   -0.14701E+02 40328   0.523E+01    0.970E+00
DAV:   2    -0.268465039592E+03   -0.10828E+01   -0.12170E+01 40432   0.106E+01    0.726E+00
DAV:   3    -0.269378900896E+03   -0.91386E+00   -0.83464E+00 54768   0.670E+00    0.197E+01
DAV:   4    -0.268483184730E+03    0.89572E+00   -0.50229E+00 53416   0.535E+00    0.114E+01
DAV:   5    -0.268310493397E+03    0.17269E+00   -0.15989E+00 53168   0.257E+00    0.333E+00
DAV:   6    -0.268328943205E+03   -0.18450E-01   -0.13405E-01 54640   0.113E+00    0.212E+00
DAV:   7    -0.268361755068E+03   -0.32812E-01   -0.30013E-01 54504   0.119E+00    0.540E+00
DAV:   8    -0.268313016697E+03    0.48738E-01   -0.25974E-01 52976   0.112E+00    0.137E+00
DAV:   9    -0.268322954143E+03   -0.99374E-02   -0.64766E-02 53032   0.740E-01    0.161E+00
DAV:  10    -0.268327274268E+03   -0.43201E-02   -0.36491E-02 53544   0.510E-01    0.129E+00
DAV:  11    -0.268329527649E+03   -0.22534E-02   -0.16488E-02 53760   0.287E-01    0.113E+00
DAV:  12    -0.268329274436E+03    0.25321E-03   -0.26936E-03 50912   0.152E-01    0.113E+00
DAV:  13    -0.268328988269E+03    0.28617E-03   -0.13517E-03 54160   0.111E-01    0.103E+00
DAV:  14    -0.268328701144E+03    0.28713E-03   -0.68595E-03 52840   0.342E-01    0.462E-01
DAV:  15    -0.268328983236E+03   -0.28209E-03   -0.45673E-03 54456   0.225E-01    0.463E-01
DAV:  16    -0.268328955185E+03    0.28050E-04   -0.14894E-03 52672   0.114E-01    0.372E-01
DAV:  17    -0.268329222414E+03   -0.26723E-03   -0.14618E-03 51104   0.188E-01    0.180E-01
DAV:  18    -0.268329240898E+03   -0.18483E-04   -0.82721E-04 53848   0.982E-02    0.155E-01
DAV:  19    -0.268329326590E+03   -0.85693E-04   -0.47529E-04 50104   0.613E-02    0.146E-01
DAV:  20    -0.268329380959E+03   -0.54369E-04   -0.27860E-04 40216   0.485E-02    0.101E-01
DAV:  21    -0.268329393522E+03   -0.12563E-04   -0.94499E-05 34160   0.307E-02    0.849E-02
DAV:  22    -0.268329396568E+03   -0.30455E-05   -0.21589E-05 26920   0.152E-02
  45 F= -.26832940E+03 E0= -.26831865E+03  d E =0.128316E+01  mag=     4.0000
       N       E                     dE             d eps       ncg     rms          rms(c)
DAV:   1    -0.267119055468E+03    0.12103E+01   -0.32298E+02 41328   0.560E+01    0.176E+01
DAV:   2    -0.270835612474E+03   -0.37166E+01   -0.29105E+01 46832   0.146E+01    0.295E+01
DAV:   3    -0.270187456866E+03    0.64816E+00   -0.55486E+01 53576   0.154E+01    0.150E+01
DAV:   4    -0.269175112815E+03    0.10123E+01   -0.13393E+00 54064   0.526E+00    0.121E+01
DAV:   5    -0.269238195569E+03   -0.63083E-01   -0.42518E+00 53832   0.381E+00    0.169E+01
DAV:   6    -0.268659972113E+03    0.57822E+00   -0.15178E+00 55856   0.341E+00    0.588E+00
DAV:   7    -0.268791761979E+03   -0.13179E+00   -0.11891E+00 54432   0.221E+00    0.837E+00
DAV:   8    -0.268829189642E+03   -0.37428E-01   -0.49141E-01 53088   0.171E+00    0.959E+00
DAV:   9    -0.268742470060E+03    0.86720E-01   -0.39815E-01 54664   0.154E+00    0.675E+00
DAV:  10    -0.268660476209E+03    0.81994E-01   -0.18200E-01 54328   0.143E+00    0.367E+00
DAV:  11    -0.268681140115E+03   -0.20664E-01   -0.34932E-01 54072   0.870E-01    0.270E+00
DAV:  12    -0.268699262815E+03   -0.18123E-01   -0.24455E-02 50592   0.562E-01    0.236E+00
DAV:  13    -0.268699528669E+03   -0.26585E-03   -0.74275E-03 54272   0.296E-01    0.208E+00
DAV:  14    -0.268697913087E+03    0.16156E-02   -0.18969E-02 54760   0.427E-01    0.108E+00
DAV:  15    -0.268699694994E+03   -0.17819E-02   -0.17212E-02 53256   0.423E-01    0.827E-01
DAV:  16    -0.268702232531E+03   -0.25375E-02   -0.10481E-02 54144   0.300E-01    0.610E-01
DAV:  17    -0.268702665091E+03   -0.43256E-03   -0.38983E-03 52696   0.229E-01    0.413E-01
DAV:  18    -0.268702709593E+03   -0.44503E-04   -0.16404E-03 53904   0.148E-01    0.292E-01
DAV:  19    -0.268702870571E+03   -0.16098E-03   -0.55898E-04 53648   0.917E-02    0.203E-01
DAV:  20    -0.268702999267E+03   -0.12870E-03   -0.73480E-04 52504   0.865E-02    0.127E-01
DAV:  21    -0.268703043139E+03   -0.43873E-04   -0.28753E-04 47504   0.610E-02    0.115E-01
DAV:  22    -0.268703055598E+03   -0.12459E-04   -0.55516E-05 32192   0.255E-02    0.110E-01
DAV:  23    -0.268703050477E+03    0.51210E-05   -0.19200E-05 26672   0.145E-02
  46 F= -.26870305E+03 E0= -.26869392E+03  d E =-.373654E+00  mag=     4.0015
       N       E                     dE             d eps       ncg     rms          rms(c)
DAV:   1    -0.269185565502E+03   -0.48251E+00   -0.18269E+01 40320   0.152E+01    0.237E+00
DAV:   2    -0.269271326736E+03   -0.85761E-01   -0.96075E-01 46040   0.316E+00    0.317E+00
DAV:   3    -0.269293585950E+03   -0.22259E-01   -0.47487E-01 53776   0.157E+00    0.520E+00
DAV:   4    -0.269259589049E+03    0.33997E-01   -0.24521E-01 54456   0.121E+00    0.278E+00
DAV:   5    -0.269257185253E+03    0.24038E-02   -0.14717E-01 54288   0.839E-01    0.187E+00
DAV:   6    -0.269258300818E+03   -0.11156E-02   -0.61480E-02 54344   0.590E-01    0.219E+00
DAV:   7    -0.269250953789E+03    0.73470E-02   -0.45186E-02 53176   0.444E-01    0.841E-01
DAV:   8    -0.269250823191E+03    0.13060E-03   -0.10150E-02 53832   0.449E-01    0.464E-01
DAV:   9    -0.269252696609E+03   -0.18734E-02   -0.14479E-02 53712   0.257E-01    0.635E-01
DAV:  10    -0.269252945667E+03   -0.24906E-03   -0.23313E-03 52416   0.148E-01    0.452E-01
DAV:  11    -0.269252892667E+03    0.53000E-04   -0.99310E-04 53976   0.105E-01    0.342E-01
DAV:  12    -0.269252750479E+03    0.14219E-03   -0.74900E-04 53984   0.102E-01    0.171E-01
DAV:  13    -0.269252822811E+03   -0.72332E-04   -0.71420E-04 54408   0.681E-02    0.102E-01
DAV:  14    -0.269252882470E+03   -0.59659E-04   -0.19357E-04 40656   0.418E-02    0.105E-01
DAV:  15    -0.269252881212E+03    0.12585E-05   -0.83897E-05 35056   0.306E-02
  47 F= -.26925288E+03 E0= -.26924353E+03  d E =-.549831E+00  mag=     4.0000
       N       E                     dE             d eps       ncg     rms          rms(c)
DAV:   1    -0.269284462208E+03   -0.31580E-01   -0.73436E+01 40320   0.267E+01    0.793E+00
DAV:   2    -0.269630354987E+03   -0.34589E+00   -0.40562E+00 48640   0.579E+00    0.963E+00
DAV:   3    -0.270124880498E+03   -0.49453E+00   -0.71658E+00 53928   0.555E+00    0.179E+01
DAV:   4    -0.269481223263E+03    0.64366E+00   -0.26308E+00 53608   0.397E+00    0.715E+00
DAV:   5    -0.269471556203E+03    0.96671E-02   -0.73823E-01 52632   0.177E+00    0.372E+00
DAV:   6    -0.269478315494E+03   -0.67593E-02   -0.75637E-02 52656   0.871E-01    0.239E+00
DAV:   7    -0.269507895408E+03   -0.29580E-01   -0.29795E-01 54088   0.101E+00    0.535E+00
DAV:   8    -0.269468791981E+03    0.39103E-01   -0.23825E-01 53512   0.103E+00    0.131E+00
DAV:   9    -0.269481225148E+03   -0.12433E-01   -0.74472E-02 51192   0.533E-01    0.137E+00
DAV:  10    -0.269482548500E+03   -0.13234E-02   -0.69358E-03 51992   0.302E-01    0.121E+00
DAV:  11    -0.269481316441E+03    0.12321E-02   -0.15153E-03 52216   0.127E-01    0.114E+00
DAV:  12    -0.269480752352E+03    0.56409E-03   -0.49366E-04 49616   0.673E-02    0.109E+00
DAV:  13    -0.269479502474E+03    0.12499E-02   -0.87355E-03 51608   0.390E-01    0.672E-01
DAV:  14    -0.269478550590E+03    0.95188E-03   -0.95617E-03 52352   0.409E-01    0.822E-01
DAV:  15    -0.269479838351E+03   -0.12878E-02   -0.27398E-03 48848   0.186E-01    0.789E-01
DAV:  16    -0.269480681184E+03   -0.84283E-03   -0.28647E-03 51816   0.235E-01    0.431E-01
DAV:  17    -0.269480774325E+03   -0.93141E-04   -0.24225E-03 53328   0.163E-01    0.127E-01
DAV:  18    -0.269480948627E+03   -0.17430E-03   -0.65058E-04 49472   0.693E-02    0.160E-01
DAV:  19    -0.269480947111E+03    0.15165E-05   -0.88954E-05 33720   0.296E-02
  48 F= -.26948095E+03 E0= -.26947088E+03  d E =-.228066E+00  mag=     4.0000
       N       E                     dE             d eps       ncg     rms          rms(c)
DAV:   1    -0.269543325921E+03   -0.62377E-01   -0.12188E+01 41312   0.114E+01    0.299E+00
DAV:   2    -0.269681402045E+03   -0.13808E+00   -0.11933E+00 47288   0.295E+00    0.896E+00
DAV:   3    -0.269605438989E+03    0.75963E-01   -0.18392E+00 53008   0.238E+00    0.544E+00
DAV:   4    -0.269595056297E+03    0.10383E-01   -0.31454E-01 52832   0.129E+00    0.392E+00
DAV:   5    -0.269572851558E+03    0.22205E-01   -0.19313E-01 54040   0.975E-01    0.164E+00
DAV:   6    -0.269592555664E+03   -0.19704E-01   -0.15065E-01 53992   0.802E-01    0.396E+00
DAV:   7    -0.269570082750E+03    0.22473E-01   -0.12509E-01 52368   0.759E-01    0.691E-01
DAV:   8    -0.269577416370E+03   -0.73336E-02   -0.17060E-02 52280   0.388E-01    0.826E-01
DAV:   9    -0.269578324443E+03   -0.90807E-03   -0.76069E-03 53528   0.234E-01    0.763E-01
DAV:  10    -0.269578328500E+03   -0.40569E-05   -0.17714E-03 53256   0.120E-01    0.680E-01
DAV:  11    -0.269578392149E+03   -0.63649E-04   -0.16389E-03 54392   0.130E-01    0.634E-01
DAV:  12    -0.269577934805E+03    0.45734E-03   -0.20211E-03 52816   0.142E-01    0.278E-01
DAV:  13    -0.269578132790E+03   -0.19799E-03   -0.14109E-03 51776   0.113E-01    0.245E-01
DAV:  14    -0.269578175372E+03   -0.42582E-04   -0.64145E-04 49792   0.697E-02    0.179E-01
DAV:  15    -0.269578222624E+03   -0.47252E-04   -0.15370E-04 37976   0.397E-02    0.145E-01
DAV:  16    -0.269578229552E+03   -0.69284E-05   -0.12843E-04 40760   0.388E-02    0.782E-02
DAV:  17    -0.269578229995E+03   -0.44253E-06   -0.63888E-05 35384   0.303E-02
  49 F= -.26957823E+03 E0= -.26956855E+03  d E =-.972829E-01  mag=     4.0000
       N       E                     dE             d eps       ncg     rms          rms(c)
DAV:   1    -0.269590130507E+03   -0.11901E-01   -0.67904E-01 40336   0.273E+00    0.637E-01
DAV:   2    -0.269594107422E+03   -0.39769E-02   -0.43589E-02 48616   0.630E-01    0.138E+00
DAV:   3    -0.269594337997E+03   -0.23058E-03   -0.69099E-02 53888   0.497E-01    0.154E+00
DAV:   4    -0.269591678374E+03    0.26596E-02   -0.21843E-02 53176   0.316E-01    0.726E-01
DAV:   5    -0.269591489685E+03    0.18869E-03   -0.58971E-03 52888   0.162E-01    0.232E-01
DAV:   6    -0.269591923414E+03   -0.43373E-03   -0.29503E-03 54032   0.134E-01    0.498E-01
DAV:   7    -0.269591494030E+03    0.42938E-03   -0.26313E-03 54120   0.125E-01    0.129E-01
DAV:   8    -0.269591559312E+03   -0.65282E-04   -0.28428E-04 52488   0.678E-02    0.745E-02
DAV:   9    -0.269591580661E+03   -0.21349E-04   -0.13881E-04 35984   0.317E-02    0.787E-02
DAV:  10    -0.269591579559E+03    0.11020E-05   -0.15578E-05 25936   0.134E-02
  50 F= -.26959158E+03 E0= -.26958185E+03  d E =-.133496E-01  mag=     4.0000
       N       E                     dE             d eps       ncg     rms          rms(c)
DAV:   1    -0.269580321944E+03    0.11259E-01   -0.49918E+00 40320   0.911E+00    0.152E+00
DAV:   2    -0.269602678210E+03   -0.22356E-01   -0.27059E-01 44920   0.177E+00    0.181E+00
DAV:   3    -0.269628685637E+03   -0.26007E-01   -0.37382E-01 53816   0.113E+00    0.480E+00
DAV:   4    -0.269594312741E+03    0.34373E-01   -0.19786E-01 53888   0.861E-01    0.153E+00
DAV:   5    -0.269597269915E+03   -0.29572E-02   -0.25191E-02 52080   0.333E-01    0.516E-01
DAV:   6    -0.269597722430E+03   -0.45252E-03   -0.29023E-03 52928   0.239E-01    0.250E-01
DAV:   7    -0.269597805122E+03   -0.82692E-04   -0.26470E-03 53400   0.180E-01    0.385E-01
DAV:   8    -0.269597860247E+03   -0.55125E-04   -0.38321E-03 53720   0.142E-01    0.413E-01
DAV:   9    -0.269597661939E+03    0.19831E-03   -0.18972E-03 53256   0.108E-01    0.159E-01
DAV:  10    -0.269597745354E+03   -0.83415E-04   -0.17879E-04 41248   0.370E-02    0.155E-01
DAV:  11    -0.269597748371E+03   -0.30171E-05   -0.99123E-05 35464   0.278E-02
  51 F= -.26959775E+03 E0= -.26958781E+03  d E =-.616881E-02  mag=     4.0000
       N       E                     dE             d eps       ncg     rms          rms(c)
DAV:   1    -0.269598276278E+03   -0.53092E-03   -0.12860E+00 39328   0.523E+00    0.389E-01
DAV:   2    -0.269605964101E+03   -0.76878E-02   -0.84768E-02 42616   0.957E-01    0.741E-01
DAV:   3    -0.269606514076E+03   -0.54998E-03   -0.25714E-02 54808   0.329E-01    0.998E-01
DAV:   4    -0.269605169071E+03    0.13450E-02   -0.78704E-03 54688   0.210E-01    0.390E-01
DAV:   5    -0.269605324344E+03   -0.15527E-03   -0.32422E-03 54368   0.116E-01    0.381E-01
DAV:   6    -0.269605307970E+03    0.16374E-04   -0.21665E-03 54296   0.115E-01    0.359E-01
DAV:   7    -0.269605135615E+03    0.17236E-03   -0.21320E-03 54344   0.104E-01    0.182E-01
DAV:   8    -0.269605130569E+03    0.50463E-05   -0.32064E-04 51112   0.699E-02    0.954E-02
DAV:   9    -0.269605148076E+03   -0.17507E-04   -0.19142E-04 35560   0.426E-02    0.869E-02
DAV:  10    -0.269605154165E+03   -0.60889E-05   -0.68143E-05 30920   0.260E-02
  52 F= -.26960515E+03 E0= -.26959497E+03  d E =-.740579E-02  mag=     4.0000
       N       E                     dE             d eps       ncg     rms          rms(c)
DAV:   1    -0.269594047129E+03    0.11101E-01   -0.37385E+00 40320   0.822E+00    0.502E-01
DAV:   2    -0.269610672313E+03   -0.16625E-01   -0.17511E-01 42336   0.139E+00    0.103E+00
DAV:   3    -0.269611178090E+03   -0.50578E-03   -0.41168E-02 56032   0.436E-01    0.118E+00
DAV:   4    -0.269609063162E+03    0.21149E-02   -0.85536E-03 54288   0.247E-01    0.330E-01
DAV:   5    -0.269609701271E+03   -0.63811E-03   -0.57883E-03 54352   0.138E-01    0.699E-01
DAV:   6    -0.269608901474E+03    0.79980E-03   -0.30493E-03 54360   0.137E-01    0.226E-01
DAV:   7    -0.269609188528E+03   -0.28705E-03   -0.23767E-03 53968   0.117E-01    0.431E-01
DAV:   8    -0.269608869962E+03    0.31857E-03   -0.18269E-03 54312   0.109E-01    0.158E-01
DAV:   9    -0.269608971750E+03   -0.10179E-03   -0.70258E-04 52800   0.673E-02    0.123E-01
DAV:  10    -0.269609031121E+03   -0.59371E-04   -0.26816E-04 35664   0.465E-02    0.117E-01
DAV:  11    -0.269609056453E+03   -0.25332E-04   -0.17360E-04 42544   0.375E-02    0.130E-01
DAV:  12    -0.269609052261E+03    0.41912E-05   -0.38713E-05 31400   0.213E-02
  53 F= -.26960905E+03 E0= -.26959878E+03  d E =-.389810E-02  mag=     4.0000
       N       E                     dE             d eps       ncg     rms          rms(c)
DAV:   1    -0.269608221474E+03    0.83498E-03   -0.41019E-01 40336   0.248E+00    0.374E-01
DAV:   2    -0.269611047860E+03   -0.28264E-02   -0.27013E-02 47512   0.510E-01    0.102E+00
DAV:   3    -0.269609936101E+03    0.11118E-02   -0.18326E-02 52832   0.280E-01    0.597E-01
DAV:   4    -0.269610192694E+03   -0.25659E-03   -0.55613E-03 51840   0.167E-01    0.630E-01
DAV:   5    -0.269609560296E+03    0.63240E-03   -0.32575E-03 53952   0.119E-01    0.189E-01
DAV:   6    -0.269609716348E+03   -0.15605E-03   -0.86808E-04 42272   0.648E-02    0.258E-01
DAV:   7    -0.269609591164E+03    0.12518E-03   -0.61576E-04 52280   0.740E-02    0.111E-01
DAV:   8    -0.269609614214E+03   -0.23049E-04   -0.45982E-04 47544   0.565E-02    0.888E-02
DAV:   9    -0.269609668513E+03   -0.54299E-04   -0.23760E-04 32944   0.429E-02    0.909E-02
DAV:  10    -0.269609671359E+03   -0.28460E-05   -0.42995E-05 28784   0.260E-02
  54 F= -.26960967E+03 E0= -.26959950E+03  d E =-.619098E-03  mag=     4.0000
       N       E                     dE             d eps       ncg     rms          rms(c)
DAV:   1    -0.269609984594E+03   -0.31608E-03   -0.10481E-01 40432   0.155E+00    0.161E-01
DAV:   2    -0.269610958597E+03   -0.97400E-03   -0.94334E-03 44432   0.302E-01    0.465E-01
DAV:   3    -0.269610655378E+03    0.30322E-03   -0.37618E-03 53592   0.143E-01    0.250E-01
DAV:   4    -0.269610718103E+03   -0.62725E-04   -0.10931E-03 44776   0.690E-02    0.295E-01
DAV:   5    -0.269610583973E+03    0.13413E-03   -0.50226E-04 35008   0.520E-02    0.143E-01
DAV:   6    -0.269610595488E+03   -0.11515E-04   -0.94405E-05 30120   0.243E-02    0.159E-01
DAV:   7    -0.269610571560E+03    0.23928E-04   -0.14145E-04 31664   0.314E-02    0.126E-01
DAV:   8    -0.269610548759E+03    0.22801E-04   -0.33195E-04 47624   0.564E-02    0.695E-02
DAV:   9    -0.269610590923E+03   -0.42164E-04   -0.18695E-04 31880   0.404E-02    0.672E-02
DAV:  10    -0.269610595226E+03   -0.43026E-05   -0.34632E-05 29104   0.262E-02
  55 F= -.26961060E+03 E0= -.26960046E+03  d E =-.923866E-03  mag=     4.0000
       N       E                     dE             d eps       ncg     rms          rms(c)
DAV:   1    -0.269610504035E+03    0.86889E-04   -0.33512E-01 40320   0.234E+00    0.219E-01
DAV:   2    -0.269612386637E+03   -0.18826E-02   -0.18593E-02 42896   0.430E-01    0.778E-01
DAV:   3    -0.269611586035E+03    0.80060E-03   -0.75136E-03 54176   0.181E-01    0.256E-01
DAV:   4    -0.269611764118E+03   -0.17808E-03   -0.12105E-03 53320   0.911E-02    0.259E-01
DAV:   5    -0.269611644890E+03    0.11923E-03   -0.73368E-04 41432   0.667E-02    0.741E-02
DAV:   6    -0.269611648474E+03   -0.35846E-05   -0.12901E-04 43888   0.448E-02    0.531E-02
[...]
DAV:   4    -0.269614979356E+03    0.76867E-03   -0.12811E-02 53256   0.264E-01    0.671E-01
DAV:   5    -0.269614515348E+03    0.46401E-03   -0.50471E-03 54176   0.152E-01    0.354E-01
DAV:   6    -0.269614539659E+03   -0.24311E-04   -0.12117E-03 53864   0.797E-02    0.404E-01
DAV:   7    -0.269614307243E+03    0.23242E-03   -0.80440E-04 42440   0.688E-02    0.293E-01
DAV:   8    -0.269614041242E+03    0.26600E-03   -0.10565E-03 53056   0.138E-01    0.155E-01
DAV:   9    -0.269614361910E+03   -0.32067E-03   -0.19999E-03 51336   0.776E-02    0.200E-01
DAV:  10    -0.269614410022E+03   -0.48112E-04   -0.38647E-04 50312   0.734E-02    0.146E-01
DAV:  11    -0.269614416338E+03   -0.63162E-05   -0.15266E-04 47344   0.490E-02    0.948E-02
DAV:  12    -0.269614420705E+03   -0.43673E-05   -0.61414E-05 34896   0.358E-02
  60 F= -.26961442E+03 E0= -.26960437E+03  d E =-.731938E-02  mag=     4.0000
       N       E                     dE             d eps       ncg     rms          rms(c)
DAV:   1    -0.269612877756E+03    0.15386E-02   -0.66189E-01 40320   0.274E+00    0.240E-01
DAV:   2    -0.269614783168E+03   -0.19054E-02   -0.19911E-02 42888   0.451E-01    0.423E-01
DAV:   3    -0.269614909073E+03   -0.12590E-03   -0.73838E-03 53704   0.169E-01    0.559E-01
DAV:   4    -0.269614538051E+03    0.37102E-03   -0.24743E-03 52824   0.111E-01    0.245E-01
DAV:   5    -0.269614521425E+03    0.16626E-04   -0.59119E-04 42696   0.548E-02    0.141E-01
DAV:   6    -0.269614531098E+03   -0.96731E-05   -0.21199E-04 32992   0.349E-02    0.171E-01
DAV:   7    -0.269614486292E+03    0.44807E-04   -0.15181E-04 31600   0.343E-02    0.119E-01
DAV:   8    -0.269614446786E+03    0.39506E-04   -0.11669E-04 43984   0.452E-02    0.628E-02
DAV:   9    -0.269614474022E+03   -0.27236E-04   -0.27367E-04 34056   0.322E-02    0.803E-02
DAV:  10    -0.269614485142E+03   -0.11121E-04   -0.83848E-05 35088   0.334E-02    0.665E-02
DAV:  11    -0.269614485754E+03   -0.61205E-06   -0.24349E-05 27032   0.191E-02
  61 F= -.26961449E+03 E0= -.26960446E+03  d E =-.650490E-04  mag=     4.0000
       N       E                     dE             d eps       ncg     rms          rms(c)
DAV:   1    -0.269609923095E+03    0.45620E-02   -0.11934E+00 40320   0.417E+00    0.331E-01
DAV:   2    -0.269615812119E+03   -0.58890E-02   -0.60502E-02 41320   0.737E-01    0.112E+00
DAV:   3    -0.269614194972E+03    0.16171E-02   -0.17776E-02 54760   0.280E-01    0.469E-01
DAV:   4    -0.269614527674E+03   -0.33270E-03   -0.29731E-03 51312   0.143E-01    0.475E-01
DAV:   5    -0.269614134173E+03    0.39350E-03   -0.12791E-03 53872   0.920E-02    0.234E-01
DAV:   6    -0.269614117788E+03    0.16385E-04   -0.19026E-04 45736   0.523E-02    0.208E-01
DAV:   7    -0.269614471109E+03   -0.35332E-03   -0.33912E-03 54056   0.115E-01    0.615E-01
DAV:   8    -0.269613926653E+03    0.54446E-03   -0.39879E-03 53128   0.124E-01    0.170E-01
DAV:   9    -0.269614137819E+03   -0.21117E-03   -0.46046E-04 47928   0.686E-02    0.140E-01
DAV:  10    -0.269614137216E+03    0.60264E-06   -0.72778E-05 35784   0.435E-02
  62 F= -.26961414E+03 E0= -.26960399E+03  d E =0.348538E-03  mag=     4.0000
       N       E                     dE             d eps       ncg     rms          rms(c)
DAV:   1    -0.269444875569E+03    0.16926E+00   -0.33812E+01 39312   0.222E+01    0.164E+00
DAV:   2    -0.269641571048E+03   -0.19670E+00   -0.20857E+00 41112   0.407E+00    0.522E+00
DAV:   3    -0.269606202527E+03    0.35369E-01   -0.34644E-01 54968   0.139E+00    0.217E+00
DAV:   4    -0.269606996804E+03   -0.79428E-03   -0.54338E-02 52568   0.643E-01    0.161E+00
DAV:   5    -0.269605282046E+03    0.17148E-02   -0.59184E-02 54608   0.477E-01    0.132E+00
DAV:   6    -0.269607106426E+03   -0.18244E-02   -0.51430E-02 55552   0.500E-01    0.195E+00
DAV:   7    -0.269601516122E+03    0.55903E-02   -0.40073E-02 53832   0.436E-01    0.686E-01
DAV:   8    -0.269602013343E+03   -0.49722E-03   -0.52949E-03 54648   0.251E-01    0.217E-01
DAV:   9    -0.269602592665E+03   -0.57932E-03   -0.30070E-03 54560   0.151E-01    0.296E-01
DAV:  10    -0.269602809915E+03   -0.21725E-03   -0.94234E-04 52416   0.845E-02    0.280E-01
DAV:  11    -0.269602815987E+03   -0.60717E-05   -0.31201E-04 50592   0.615E-02    0.236E-01
DAV:  12    -0.269602779081E+03    0.36906E-04   -0.43895E-04 52640   0.832E-02    0.113E-01
DAV:  13    -0.269602794108E+03   -0.15026E-04   -0.21337E-04 48888   0.482E-02    0.940E-02
DAV:  14    -0.269602795899E+03   -0.17914E-05   -0.15060E-04 30952   0.311E-02    0.457E-02
DAV:  15    -0.269602810518E+03   -0.14620E-04   -0.61119E-05 29608   0.248E-02    0.431E-02
DAV:  16    -0.269602811822E+03   -0.13031E-05   -0.10847E-05 24464   0.110E-02
  63 F= -.26960281E+03 E0= -.26959248E+03  d E =0.113254E-01  mag=     4.0000
       N       E                     dE             d eps       ncg     rms          rms(c)
DAV:   1    -0.269580571742E+03    0.22239E-01   -0.42171E+00 39312   0.976E+00    0.105E+00
DAV:   2    -0.269636990870E+03   -0.56419E-01   -0.53064E-01 44800   0.216E+00    0.508E+00
DAV:   3    -0.269600433665E+03    0.36557E-01   -0.27979E-01 53344   0.108E+00    0.112E+00
DAV:   4    -0.269610859074E+03   -0.10425E-01   -0.36599E-02 53072   0.499E-01    0.175E+00
DAV:   5    -0.269605826262E+03    0.50328E-02   -0.29214E-02 53720   0.371E-01    0.591E-01
DAV:   6    -0.269607183330E+03   -0.13571E-02   -0.95387E-03 53992   0.223E-01    0.101E+00
DAV:   7    -0.269605401646E+03    0.17817E-02   -0.75965E-03 54416   0.210E-01    0.417E-01
DAV:   8    -0.269605183428E+03    0.21822E-03   -0.25119E-03 55760   0.200E-01    0.244E-01
DAV:   9    -0.269605813572E+03   -0.63014E-03   -0.43875E-03 53400   0.149E-01    0.269E-01
DAV:  10    -0.269606022928E+03   -0.20936E-03   -0.71249E-04 52040   0.909E-02    0.252E-01
DAV:  11    -0.269606028613E+03   -0.56853E-05   -0.36019E-04 53960   0.709E-02    0.196E-01
DAV:  12    -0.269606012237E+03    0.16377E-04   -0.21141E-04 49808   0.637E-02    0.947E-02
DAV:  13    -0.269606010886E+03    0.13502E-05   -0.15085E-04 50488   0.499E-02    0.691E-02
DAV:  14    -0.269606019679E+03   -0.87925E-05   -0.10868E-04 31680   0.265E-02    0.690E-02
DAV:  15    -0.269606019389E+03    0.28993E-06   -0.31187E-05 25856   0.172E-02
  64 F= -.26960602E+03 E0= -.26959583E+03  d E =-.320757E-02  mag=     4.0000
       N       E                     dE             d eps       ncg     rms          rms(c)
DAV:   1    -0.269606015358E+03    0.43211E-05   -0.17531E+00 39312   0.502E+00    0.676E-01
DAV:   2    -0.269614452514E+03   -0.84372E-02   -0.97390E-02 43000   0.993E-01    0.990E-01
DAV:   3    -0.269617597262E+03   -0.31447E-02   -0.59930E-02 54208   0.513E-01    0.192E+00
DAV:   4    -0.269612057119E+03    0.55401E-02   -0.29148E-02 53280   0.363E-01    0.445E-01
DAV:   5    -0.269613033297E+03   -0.97618E-03   -0.54589E-03 53656   0.170E-01    0.448E-01
DAV:   6    -0.269612762442E+03    0.27086E-03   -0.25357E-03 55256   0.153E-01    0.249E-01
DAV:   7    -0.269613148877E+03   -0.38644E-03   -0.49644E-03 53920   0.123E-01    0.638E-01
DAV:   8    -0.269612558654E+03    0.59022E-03   -0.24829E-03 52816   0.119E-01    0.120E-01
DAV:   9    -0.269612744476E+03   -0.18582E-03   -0.48755E-04 46600   0.555E-02    0.123E-01
DAV:  10    -0.269612770554E+03   -0.26077E-04   -0.14384E-04 32848   0.312E-02    0.105E-01
DAV:  11    -0.269612776364E+03   -0.58099E-05   -0.11059E-04 38232   0.290E-02    0.966E-02
DAV:  12    -0.269612771251E+03    0.51127E-05   -0.63341E-05 32216   0.236E-02
  65 F= -.26961277E+03 E0= -.26960256E+03  d E =-.675186E-02  mag=     4.0000
       N       E                     dE             d eps       ncg     rms          rms(c)
DAV:   1    -0.269612514291E+03    0.26207E-03   -0.13501E-01 40320   0.152E+00    0.168E-01
DAV:   2    -0.269613124531E+03   -0.61024E-03   -0.68475E-03 42352   0.282E-01    0.253E-01
DAV:   3    -0.269613302825E+03   -0.17829E-03   -0.41736E-03 54224   0.127E-01    0.457E-01
DAV:   4    -0.269612998972E+03    0.30385E-03   -0.16537E-03 54376   0.868E-02    0.153E-01
DAV:   5    -0.269613027435E+03   -0.28463E-04   -0.33384E-04 33144   0.382E-02    0.105E-01
DAV:   6    -0.269613028817E+03   -0.13816E-05   -0.14216E-04 32712   0.346E-02    0.110E-01
DAV:   7    -0.269613011155E+03    0.17662E-04   -0.15590E-04 32640   0.347E-02    0.694E-02
DAV:   8    -0.269613003033E+03    0.81225E-05   -0.47217E-05 32376   0.297E-02
  66 F= -.26961300E+03 E0= -.26960278E+03  d E =-.231782E-03  mag=     4.0000
       N       E                     dE             d eps       ncg     rms          rms(c)
DAV:   1    -0.269610273410E+03    0.27377E-02   -0.11243E+00 40320   0.365E+00    0.226E-01
DAV:   2    -0.269613275950E+03   -0.30025E-02   -0.31535E-02 41768   0.589E-01    0.396E-01
DAV:   3    -0.269613379185E+03   -0.10324E-03   -0.64974E-03 55688   0.199E-01    0.491E-01
DAV:   4    -0.269612995610E+03    0.38358E-03   -0.19376E-03 53608   0.112E-01    0.263E-01
DAV:   5    -0.269612961033E+03    0.34577E-04   -0.96903E-04 47840   0.620E-02    0.150E-01
DAV:   6    -0.269612974561E+03   -0.13528E-04   -0.73162E-04 53976   0.681E-02    0.262E-01
DAV:   7    -0.269612889806E+03    0.84755E-04   -0.95083E-04 48512   0.595E-02    0.128E-01
DAV:   8    -0.269612893264E+03   -0.34577E-05   -0.17910E-04 35472   0.471E-02    0.523E-02
DAV:   9    -0.269612913880E+03   -0.20616E-04   -0.10279E-04 31504   0.307E-02    0.599E-02
DAV:  10    -0.269612917150E+03   -0.32702E-05   -0.18369E-05 24400   0.157E-02
  67 F= -.26961292E+03 E0= -.26960268E+03  d E =0.858823E-04  mag=     4.0000
       N       E                     dE             d eps       ncg     rms          rms(c)
DAV:   1    -0.269505587637E+03    0.10733E+00   -0.40604E+01 40320   0.211E+01    0.149E+00
DAV:   2    -0.269608863242E+03   -0.10328E+00   -0.11199E+00 41480   0.342E+00    0.188E+00
DAV:   3    -0.269630877658E+03   -0.22014E-01   -0.32012E-01 54856   0.113E+00    0.470E+00
DAV:   4    -0.269597395452E+03    0.33482E-01   -0.17176E-01 54280   0.843E-01    0.102E+00
DAV:   5    -0.269602751725E+03   -0.53563E-02   -0.29862E-02 52672   0.392E-01    0.111E+00
DAV:   6    -0.269601217754E+03    0.15340E-02   -0.26889E-02 54896   0.412E-01    0.126E+00
DAV:   7    -0.269599471900E+03    0.17459E-02   -0.23478E-02 53824   0.334E-01    0.744E-01
DAV:   8    -0.269599169250E+03    0.30265E-03   -0.52717E-03 53664   0.249E-01    0.261E-01
DAV:   9    -0.269599899263E+03   -0.73001E-03   -0.39454E-03 53952   0.155E-01    0.274E-01
DAV:  10    -0.269600093267E+03   -0.19400E-03   -0.61432E-04 52272   0.905E-02    0.276E-01
DAV:  11    -0.269600059937E+03    0.33330E-04   -0.17036E-04 48568   0.445E-02    0.249E-01
DAV:  12    -0.269600072804E+03   -0.12867E-04   -0.23065E-04 47256   0.619E-02    0.168E-01
DAV:  13    -0.269600042444E+03    0.30360E-04   -0.27047E-04 52904   0.811E-02    0.787E-02
DAV:  14    -0.269600070373E+03   -0.27930E-04   -0.16128E-04 49008   0.423E-02    0.107E-01
DAV:  15    -0.269600068228E+03    0.21457E-05   -0.51173E-05 30464   0.258E-02
  68 F= -.26960007E+03 E0= -.26958981E+03  d E =0.128489E-01  mag=     4.0000
       N       E                     dE             d eps       ncg     rms          rms(c)
DAV:   1    -0.269583240316E+03    0.16830E-01   -0.39870E+00 40320   0.882E+00    0.121E+00
DAV:   2    -0.269605208002E+03   -0.21968E-01   -0.25907E-01 42480   0.172E+00    0.925E-01
DAV:   3    -0.269621808958E+03   -0.16601E-01   -0.15723E-01 55136   0.858E-01    0.362E+00
DAV:   4    -0.269600605588E+03    0.21203E-01   -0.12657E-01 54376   0.724E-01    0.104E+00
DAV:   5    -0.269603623088E+03   -0.30175E-02   -0.21710E-02 52376   0.309E-01    0.821E-01
DAV:   6    -0.269603313380E+03    0.30971E-03   -0.11536E-02 54688   0.290E-01    0.733E-01
DAV:   7    -0.269602913653E+03    0.39973E-03   -0.10437E-02 53952   0.202E-01    0.504E-01
DAV:   8    -0.269602665968E+03    0.24768E-03   -0.24835E-03 53896   0.164E-01    0.184E-01
DAV:   9    -0.269602748821E+03   -0.82853E-04   -0.65635E-04 55080   0.718E-02    0.121E-01
DAV:  10    -0.269602801900E+03   -0.53079E-04   -0.17270E-04 36000   0.325E-02    0.128E-01
DAV:  11    -0.269602794555E+03    0.73454E-05   -0.71597E-05 32640   0.255E-02
  69 F= -.26960279E+03 E0= -.26959268E+03  d E =-.272633E-02  mag=     4.0000
       N       E                     dE             d eps       ncg     rms          rms(c)
DAV:   1    -0.269593626506E+03    0.91754E-02   -0.56930E+00 40320   0.935E+00    0.764E-01
DAV:   2    -0.269614917309E+03   -0.21291E-01   -0.22990E-01 42384   0.161E+00    0.996E-01
DAV:   3    -0.269619156781E+03   -0.42395E-02   -0.73513E-02 55168   0.582E-01    0.204E+00
DAV:   4    -0.269613216854E+03    0.59399E-02   -0.45060E-02 53448   0.426E-01    0.928E-01
DAV:   5    -0.269612844040E+03    0.37281E-03   -0.74647E-03 52640   0.214E-01    0.294E-01
DAV:   6    -0.269613088634E+03   -0.24459E-03   -0.45123E-03 55424   0.182E-01    0.629E-01
DAV:   7    -0.269612767000E+03    0.32163E-03   -0.83572E-03 53880   0.162E-01    0.466E-01
DAV:   8    -0.269612695866E+03    0.71134E-04   -0.18232E-03 52704   0.124E-01    0.204E-01
DAV:   9    -0.269612815898E+03   -0.12003E-03   -0.63203E-04 53896   0.698E-02    0.146E-01
DAV:  10    -0.269612857687E+03   -0.41788E-04   -0.15013E-04 37944   0.417E-02    0.141E-01
DAV:  11    -0.269612864630E+03   -0.69431E-05   -0.88846E-05 38224   0.311E-02
  70 F= -.26961286E+03 E0= -.26960266E+03  d E =-.100701E-01  mag=     4.0000
       N       E                     dE             d eps       ncg     rms          rms(c)
DAV:   1    -0.269606184813E+03    0.66729E-02   -0.25602E+00 39336   0.576E+00    0.386E-01
DAV:   2    -0.269615785247E+03   -0.96004E-02   -0.96719E-02 42360   0.990E-01    0.138E+00
DAV:   3    -0.269613667563E+03    0.21177E-02   -0.28647E-02 55112   0.384E-01    0.659E-01
DAV:   4    -0.269614058812E+03   -0.39125E-03   -0.76463E-03 51992   0.196E-01    0.723E-01
DAV:   5    -0.269613292168E+03    0.76664E-03   -0.55432E-03 54064   0.150E-01    0.204E-01
DAV:   6    -0.269613655556E+03   -0.36339E-03   -0.24010E-03 53352   0.114E-01    0.454E-01
DAV:   7    -0.269613284759E+03    0.37080E-03   -0.21803E-03 55288   0.112E-01    0.165E-01
DAV:   8    -0.269613294310E+03   -0.95504E-05   -0.24496E-04 52856   0.608E-02    0.101E-01
DAV:   9    -0.269613299042E+03   -0.47326E-05   -0.20275E-04 33944   0.417E-02    0.815E-02
DAV:  10    -0.269613317737E+03   -0.18695E-04   -0.20724E-04 32632   0.366E-02    0.606E-02
DAV:  11    -0.269613332872E+03   -0.15135E-04   -0.12140E-04 31016   0.287E-02    0.569E-02
DAV:  12    -0.269613338516E+03   -0.56445E-05   -0.30783E-05 27384   0.177E-02
  71 F= -.26961334E+03 E0= -.26960312E+03  d E =-.473887E-03  mag=     4.0000
       N       E                     dE             d eps       ncg     rms          rms(c)
DAV:   1    -0.269565574084E+03    0.47759E-01   -0.14639E+01 40320   0.136E+01    0.117E+00
DAV:   2    -0.269614381420E+03   -0.48807E-01   -0.51782E-01 42328   0.233E+00    0.247E+00
DAV:   3    -0.269616690335E+03   -0.23089E-02   -0.23444E-01 54648   0.981E-01    0.294E+00
DAV:   4    -0.269610128574E+03    0.65618E-02   -0.97691E-02 53616   0.628E-01    0.197E+00
DAV:   5    -0.269604875100E+03    0.52535E-02   -0.31081E-02 54024   0.413E-01    0.483E-01
DAV:   6    -0.269606195194E+03   -0.13201E-02   -0.10735E-02 54336   0.251E-01    0.978E-01
DAV:   7    -0.269604955622E+03    0.12396E-02   -0.12775E-02 53888   0.234E-01    0.495E-01
DAV:   8    -0.269604938375E+03    0.17247E-04   -0.33970E-03 54048   0.147E-01    0.280E-01
DAV:   9    -0.269605284726E+03   -0.34635E-03   -0.27092E-03 53336   0.104E-01    0.222E-01
DAV:  10    -0.269605491638E+03   -0.20691E-03   -0.12202E-03 52272   0.954E-02    0.220E-01
DAV:  11    -0.269605516780E+03   -0.25142E-04   -0.43175E-04 50248   0.574E-02    0.175E-01
DAV:  12    -0.269605525674E+03   -0.88939E-05   -0.21371E-04 42928   0.553E-02    0.113E-01
DAV:  13    -0.269605535988E+03   -0.10314E-04   -0.14243E-04 47464   0.557E-02    0.792E-02
DAV:  14    -0.269605564722E+03   -0.28733E-04   -0.10722E-04 32360   0.335E-02    0.799E-02
DAV:  15    -0.269605570016E+03   -0.52941E-05   -0.39802E-05 28328   0.249E-02
  72 F= -.26960557E+03 E0= -.26959552E+03  d E =0.776850E-02  mag=     4.0000
       N       E                     dE             d eps       ncg     rms          rms(c)
DAV:   1    -0.269586100413E+03    0.19464E-01   -0.10455E+01 40320   0.113E+01    0.993E-01
DAV:   2    -0.269619154914E+03   -0.33055E-01   -0.35538E-01 42440   0.194E+00    0.181E+00
DAV:   3    -0.269622734918E+03   -0.35800E-02   -0.13551E-01 54712   0.810E-01    0.259E+00
DAV:   4    -0.269616843881E+03    0.58910E-02   -0.76591E-02 53312   0.558E-01    0.179E+00
DAV:   5    -0.269612934596E+03    0.39093E-02   -0.22045E-02 52968   0.335E-01    0.440E-01
DAV:   6    -0.269614840373E+03   -0.19058E-02   -0.11219E-02 53960   0.231E-01    0.110E+00
DAV:   7    -0.269612874396E+03    0.19660E-02   -0.10620E-02 54240   0.224E-01    0.361E-01
DAV:   8    -0.269613026176E+03   -0.15178E-03   -0.32217E-03 54472   0.178E-01    0.249E-01
DAV:   9    -0.269613503486E+03   -0.47731E-03   -0.24098E-03 53352   0.130E-01    0.260E-01
DAV:  10    -0.269613591870E+03   -0.88384E-04   -0.46013E-04 51432   0.789E-02    0.248E-01
DAV:  11    -0.269613611112E+03   -0.19242E-04   -0.24992E-04 48728   0.549E-02    0.219E-01
DAV:  12    -0.269613593797E+03    0.17316E-04   -0.23767E-04 45536   0.555E-02    0.112E-01
DAV:  13    -0.269613611294E+03   -0.17497E-04   -0.10495E-04 38096   0.409E-02    0.823E-02
DAV:  14    -0.269613610490E+03    0.80348E-06   -0.73020E-05 35264   0.269E-02
  73 F= -.26961361E+03 E0= -.26960341E+03  d E =-.804047E-02  mag=     4.0000
       N       E                     dE             d eps       ncg     rms          rms(c)
DAV:   1    -0.269612250060E+03    0.13612E-02   -0.28988E-01 40320   0.215E+00    0.329E-01
DAV:   2    -0.269613999826E+03   -0.17498E-02   -0.19107E-02 47504   0.454E-01    0.784E-01
DAV:   3    -0.269613735013E+03    0.26481E-03   -0.17151E-02 54664   0.255E-01    0.721E-01
DAV:   4    -0.269613447279E+03    0.28773E-03   -0.50218E-03 52864   0.162E-01    0.494E-01
DAV:   5    -0.269613108709E+03    0.33857E-03   -0.18116E-03 54632   0.106E-01    0.156E-01
DAV:   6    -0.269613236624E+03   -0.12791E-03   -0.78459E-04 47824   0.644E-02    0.285E-01
DAV:   7    -0.269613107623E+03    0.12900E-03   -0.88692E-04 39080   0.623E-02    0.127E-01
DAV:   8    -0.269613096731E+03    0.10892E-04   -0.31354E-04 51696   0.680E-02    0.815E-02
DAV:   9    -0.269613177003E+03   -0.80273E-04   -0.36223E-04 34312   0.488E-02    0.992E-02
DAV:  10    -0.269613182223E+03   -0.52201E-05   -0.48190E-05 31808   0.255E-02
  74 F= -.26961318E+03 E0= -.26960300E+03  d E =0.428267E-03  mag=     4.0000
       N       E                     dE             d eps       ncg     rms          rms(c)
DAV:   1    -0.269613323479E+03   -0.14648E-03   -0.16625E-01 39312   0.145E+00    0.194E-01
DAV:   2    -0.269614340926E+03   -0.10174E-02   -0.98694E-03 47896   0.296E-01    0.667E-01
DAV:   3    -0.269613796782E+03    0.54414E-03   -0.76136E-03 54424   0.182E-01    0.347E-01
DAV:   4    -0.269614000630E+03   -0.20385E-03   -0.22540E-03 52136   0.103E-01    0.417E-01
DAV:   5    -0.269613693854E+03    0.30678E-03   -0.98551E-04 48504   0.785E-02    0.120E-01
DAV:   6    -0.269613756973E+03   -0.63119E-04   -0.23342E-04 32576   0.353E-02    0.173E-01
DAV:   7    -0.269613717326E+03    0.39646E-04   -0.29708E-04 33008   0.408E-02    0.996E-02
DAV:   8    -0.269613717214E+03    0.11194E-06   -0.25448E-04 46416   0.475E-02    0.677E-02
DAV:   9    -0.269613750651E+03   -0.33437E-04   -0.14400E-04 32600   0.361E-02    0.645E-02
DAV:  10    -0.269613752761E+03   -0.21096E-05   -0.23408E-05 27312   0.183E-02
  75 F= -.26961375E+03 E0= -.26960356E+03  d E =-.570538E-03  mag=     4.0000
