       N       E                     dE             d eps       ncg     rms          ort
DAV:   1     0.285619526662E+04    0.28562E+04   -0.15320E+05  6480   0.161E+03
DAV:   2    -0.190270934792E+03   -0.30465E+04   -0.28781E+04  6480   0.446E+02
DAV:   3    -0.513288403230E+03   -0.32302E+03   -0.31864E+03  6480   0.158E+02
DAV:   4    -0.526994245866E+03   -0.13706E+02   -0.13570E+02  6480   0.285E+01
DAV:   5    -0.527674146331E+03   -0.67990E+00   -0.67867E+00  6480   0.510E+00
SDA:   6    -0.331753071713E+03    0.19592E+03   -0.67867E+00  6480   0.564E+03 0.000E+00
CGA:   7    -0.394584585901E+03   -0.62832E+02   -0.70066E+02  6480   0.224E+03-0.172E+02
CGA:   8    -0.403961926377E+03   -0.93773E+01   -0.20515E+02  6480   0.437E+02-0.184E+02
CGA:   9    -0.409108006282E+03   -0.51461E+01   -0.33455E+01  6480   0.166E+02 0.221E+02
CGA:  10    -0.410430789214E+03   -0.13228E+01   -0.69708E+00  6480   0.121E+02 0.158E+02
CGA:  11    -0.411298070576E+03   -0.86728E+00   -0.47494E+00  6480   0.672E+01 0.744E+01
CGA:  12    -0.413709471908E+03   -0.24114E+01   -0.23936E+01  6480   0.490E+01 0.108E+00
CGA:  13    -0.414626935368E+03   -0.91746E+00   -0.92044E+00  6480   0.139E+02-0.336E+00
CGA:  14    -0.415140110538E+03   -0.51318E+00   -0.73915E+00  6480   0.294E+01-0.193E+01
CGA:  15    -0.415317138291E+03   -0.17703E+00   -0.25507E+00  6480   0.771E+00-0.277E-01
CGA:  16    -0.415467313445E+03   -0.15018E+00   -0.15090E+00  6480   0.321E+00-0.352E-01
CGA:  17    -0.415543137369E+03   -0.75824E-01   -0.78906E-01  6480   0.155E+00-0.356E-01
CGA:  18    -0.415571856970E+03   -0.28720E-01   -0.28629E-01  6480   0.535E-01 0.268E-02
CGA:  19    -0.415583731152E+03   -0.11874E-01   -0.11721E-01  6480   0.274E-01 0.392E-02
CGA:  20    -0.415591675753E+03   -0.79446E-02   -0.78481E-02  6480   0.106E-01 0.111E-02
CGA:  21    -0.415593567361E+03   -0.18916E-02   -0.19134E-02  6480   0.385E-02 0.202E-02
CGA:  22    -0.415594272410E+03   -0.70505E-03   -0.74446E-03  6480   0.183E-02 0.182E-02
CGA:  23    -0.415594645952E+03   -0.37354E-03   -0.40547E-03  6480   0.703E-03 0.996E-03
CGA:  24    -0.415594526281E+03    0.11967E-03   -0.18381E-03  6480   0.465E-02-0.105E-02
CGA:  25    -0.415595249442E+03   -0.72316E-03   -0.81515E-03  6480   0.341E-03 0.607E-03
CGA:  26    -0.415595345760E+03   -0.96318E-04   -0.99611E-04  6480   0.935E-04 0.508E-04
CGA:  27    -0.415595377791E+03   -0.32031E-04   -0.32399E-04  6480   0.490E-04 0.204E-04
CGA:  28    -0.415595378581E+03   -0.79047E-06   -0.84820E-05  6480   0.343E-04 0.435E-04
   1 F= -.41559538E+03 E0= -.41559538E+03  d E =-.415595E+03  mag=    18.0000
       N       E                     dE             d eps       ncg     rms          ort
SDA:   1    -0.415679636063E+03   -0.84258E-01    0.00000E+00  6480   0.104E-01 0.000E+00
CGA:   2    -0.415682151851E+03   -0.25158E-02   -0.25190E-02  6480   0.258E-02 0.587E-04
CGA:   3    -0.415682793159E+03   -0.64131E-03   -0.64597E-03  6480   0.865E-03 0.924E-04
CGA:   4    -0.415682946649E+03   -0.15349E-03   -0.15574E-03  6480   0.229E-03 0.182E-04
CGA:   5    -0.415682998307E+03   -0.51658E-04   -0.51359E-04  6480   0.871E-04-0.425E-05
CGA:   6    -0.415683016578E+03   -0.18272E-04   -0.18688E-04  6480   0.408E-04 0.608E-05
CGA:   7    -0.415683023241E+03   -0.66624E-05   -0.83065E-05  6480   0.171E-04 0.176E-04
   2 F= -.41568302E+03 E0= -.41568302E+03  d E =-.876447E-01  mag=    18.0000
       N       E                     dE             d eps       ncg     rms          ort
SDA:   1    -0.411955657461E+03    0.37274E+01    0.00000E+00  6480   0.208E+02 0.000E+00
CGA:   2    -0.417123044865E+03   -0.51674E+01   -0.51653E+01  6480   0.511E+01-0.624E-01
CGA:   3    -0.418392409313E+03   -0.12694E+01   -0.12690E+01  6480   0.176E+01-0.222E-01
CGA:   4    -0.418695670783E+03   -0.30326E+00   -0.30262E+00  6480   0.461E+00-0.685E-02
CGA:   5    -0.418790115362E+03   -0.94445E-01   -0.94327E-01  6480   0.152E+00-0.175E-02
CGA:   6    -0.418824468416E+03   -0.34353E-01   -0.34346E-01  6480   0.694E-01-0.248E-03
CGA:   7    -0.418843601459E+03   -0.19133E-01   -0.19133E-01  6480   0.318E-01-0.546E-04
CGA:   8    -0.418852405339E+03   -0.88039E-02   -0.88050E-02  6480   0.128E-01-0.856E-04
CGA:   9    -0.418855903784E+03   -0.34984E-02   -0.34988E-02  6480   0.453E-02-0.286E-04
CGA:  10    -0.418857355814E+03   -0.14520E-02   -0.14718E-02  6480   0.197E-02-0.315E-03
CGA:  11    -0.418857990881E+03   -0.63507E-03   -0.64241E-03  6480   0.954E-03-0.881E-04
CGA:  12    -0.418858276640E+03   -0.28576E-03   -0.28248E-03  6480   0.333E-03 0.811E-04
CGA:  13    -0.418858412213E+03   -0.13557E-03   -0.14044E-03  6480   0.159E-03-0.419E-04
CGA:  14    -0.418858443196E+03   -0.30983E-04   -0.32706E-04  6480   0.560E-04 0.406E-04
CGA:  15    -0.418858458428E+03   -0.15232E-04   -0.15970E-04  6480   0.191E-04 0.152E-04
CGA:  16    -0.418858465776E+03   -0.73473E-05   -0.17109E-04  6480   0.457E-04-0.227E-04
   3 F= -.41885847E+03 E0= -.41885847E+03  d E =-.317544E+01  mag=    18.0000
       N       E                     dE             d eps       ncg     rms          ort
SDA:   1    -0.399975095274E+03    0.18883E+02    0.00000E+00  6480   0.685E+02 0.000E+00
CGA:   2    -0.416644901477E+03   -0.16670E+02   -0.16684E+02  6480   0.165E+02-0.848E-01
CGA:   3    -0.420523854462E+03   -0.38790E+01   -0.38772E+01  6480   0.590E+01-0.640E-01
CGA:   4    -0.421570918122E+03   -0.10471E+01   -0.10460E+01  6480   0.153E+01-0.177E-01
CGA:   5    -0.421876962760E+03   -0.30604E+00   -0.30550E+00  6480   0.508E+00-0.517E-02
CGA:   6    -0.421992726682E+03   -0.11576E+00   -0.11574E+00  6480   0.227E+00-0.496E-03
CGA:   7    -0.422053907226E+03   -0.61181E-01   -0.61183E-01  6480   0.995E-01 0.617E-03
CGA:   8    -0.422081584968E+03   -0.27678E-01   -0.27675E-01  6480   0.390E-01 0.419E-03
CGA:   9    -0.422092135404E+03   -0.10550E-01   -0.10552E-01  6480   0.133E-01 0.574E-03
CGA:  10    -0.422096374777E+03   -0.42394E-02   -0.42411E-02  6480   0.538E-02-0.475E-04
CGA:  11    -0.422098225996E+03   -0.18512E-02   -0.18450E-02  6480   0.277E-02 0.849E-04
CGA:  12    -0.422099215317E+03   -0.98932E-03   -0.97139E-03  6480   0.119E-02 0.262E-03
CGA:  13    -0.422099707500E+03   -0.49218E-03   -0.49238E-03  6480   0.524E-03-0.367E-05
CGA:  14    -0.422099863134E+03   -0.15563E-03   -0.15461E-03  6480   0.171E-03 0.990E-04
CGA:  15    -0.422099923524E+03   -0.60390E-04   -0.60059E-04  6480   0.616E-04 0.360E-04
CGA:  16    -0.422099958231E+03   -0.34707E-04   -0.37626E-04  6480   0.489E-04-0.135E-04
CGA:  17    -0.422099969534E+03   -0.11303E-04   -0.11313E-04  6480   0.253E-04 0.766E-05
CGA:  18    -0.422099980541E+03   -0.11007E-04   -0.13733E-04  6480   0.236E-04-0.158E-04
CGA:  19    -0.422099987018E+03   -0.64771E-05   -0.15202E-04  6480   0.424E-04-0.257E-04
   4 F= -.42209999E+03 E0= -.42209999E+03  d E =-.324152E+01  mag=    18.0000
       N       E                     dE             d eps       ncg     rms          ort
SDA:   1    -0.411050235320E+03    0.11050E+02    0.00000E+00  6480   0.398E+02 0.000E+00
CGA:   2    -0.420145904115E+03   -0.90957E+01   -0.91140E+01  6480   0.933E+01 0.526E-01
CGA:   3    -0.422316856213E+03   -0.21710E+01   -0.21695E+01  6480   0.356E+01-0.232E-01
CGA:   4    -0.422935304134E+03   -0.61845E+00   -0.61742E+00  6480   0.818E+00-0.108E-01
CGA:   5    -0.423091224104E+03   -0.15592E+00   -0.15593E+00  6480   0.246E+00 0.311E-03
CGA:   6    -0.423144086590E+03   -0.52862E-01   -0.53021E-01  6480   0.989E-01 0.187E-02
CGA:   7    -0.423171755586E+03   -0.27669E-01   -0.27675E-01  6480   0.492E-01 0.380E-03
CGA:   8    -0.423186777668E+03   -0.15022E-01   -0.15032E-01  6480   0.244E-01-0.691E-03
CGA:   9    -0.423193750528E+03   -0.69729E-02   -0.69728E-02  6480   0.964E-02-0.106E-03
CGA:  10    -0.423196758837E+03   -0.30083E-02   -0.30074E-02  6480   0.387E-02 0.377E-04
CGA:  11    -0.423198078670E+03   -0.13198E-02   -0.13186E-02  6480   0.190E-02 0.230E-04
CGA:  12    -0.423198771663E+03   -0.69299E-03   -0.68659E-03  6480   0.830E-03 0.985E-04
CGA:  13    -0.423199116261E+03   -0.34460E-03   -0.35799E-03  6480   0.389E-03-0.119E-03
CGA:  14    -0.423199220125E+03   -0.10386E-03   -0.10373E-03  6480   0.118E-03 0.167E-04
CGA:  15    -0.423199246906E+03   -0.26781E-04   -0.29042E-04  6480   0.380E-04 0.335E-04
CGA:  16    -0.423199261373E+03   -0.14467E-04   -0.14486E-04  6480   0.174E-04 0.722E-05
CGA:  17    -0.423199271159E+03   -0.97859E-05   -0.10504E-04  6480   0.145E-04-0.347E-05
   5 F= -.42319927E+03 E0= -.42319927E+03  d E =-.109928E+01  mag=    18.0000
       N       E                     dE             d eps       ncg     rms          ort
SDA:   1    -0.413857822063E+03    0.93414E+01    0.00000E+00  6480   0.327E+02 0.000E+00
CGA:   2    -0.421138456157E+03   -0.72806E+01   -0.73013E+01  6480   0.769E+01 0.778E-01
CGA:   3    -0.422959560496E+03   -0.18211E+01   -0.18201E+01  6480   0.302E+01-0.150E-01
CGA:   4    -0.423479201331E+03   -0.51964E+00   -0.51880E+00  6480   0.671E+00-0.909E-02
CGA:   5    -0.423607237716E+03   -0.12804E+00   -0.12815E+00  6480   0.197E+00 0.935E-03
CGA:   6    -0.423649256024E+03   -0.42018E-01   -0.42222E-01  6480   0.790E-01 0.277E-02
CGA:   7    -0.423671382166E+03   -0.22126E-01   -0.22135E-01  6480   0.411E-01 0.105E-02
CGA:   8    -0.423684472602E+03   -0.13090E-01   -0.13108E-01  6480   0.221E-01-0.570E-03
CGA:   9    -0.423690916353E+03   -0.64438E-02   -0.64453E-02  6480   0.898E-02-0.160E-03
CGA:  10    -0.423693632397E+03   -0.27160E-02   -0.27138E-02  6480   0.345E-02 0.117E-03
CGA:  11    -0.423694749686E+03   -0.11173E-02   -0.11140E-02  6480   0.151E-02 0.100E-03
CGA:  12    -0.423695294768E+03   -0.54508E-03   -0.53971E-03  6480   0.656E-03 0.896E-04
CGA:  13    -0.423695579741E+03   -0.28497E-03   -0.30960E-03  6480   0.382E-03-0.160E-03
CGA:  14    -0.423695678378E+03   -0.98636E-04   -0.10049E-03  6480   0.142E-03-0.383E-04
CGA:  15    -0.423695706099E+03   -0.27722E-04   -0.29945E-04  6480   0.520E-04 0.333E-04
CGA:  16    -0.423695721167E+03   -0.15068E-04   -0.15850E-04  6480   0.221E-04 0.153E-04
CGA:  17    -0.423695733157E+03   -0.11990E-04   -0.12204E-04  6480   0.159E-04-0.164E-05
CGA:  18    -0.423695736133E+03   -0.29760E-05   -0.33442E-05  6480   0.912E-05 0.490E-05
   6 F= -.42369574E+03 E0= -.42369574E+03  d E =-.496465E+00  mag=    18.0000
       N       E                     dE             d eps       ncg     rms          ort
SDA:   1    -0.413531376652E+03    0.10164E+02    0.00000E+00  6480   0.341E+02 0.000E+00
CGA:   2    -0.421095389688E+03   -0.75640E+01   -0.75869E+01  6480   0.923E+01 0.852E-01
CGA:   3    -0.423113941620E+03   -0.20186E+01   -0.20189E+01  6480   0.361E+01 0.105E-02
CGA:   4    -0.423733955747E+03   -0.62001E+00   -0.62013E+00  6480   0.749E+00-0.321E-02
CGA:   5    -0.423876754721E+03   -0.14280E+00   -0.14280E+00  6480   0.222E+00-0.581E-03
CGA:   6    -0.423924089028E+03   -0.47334E-01   -0.47378E-01  6480   0.858E-01 0.654E-03
CGA:   7    -0.423948216872E+03   -0.24128E-01   -0.24124E-01  6480   0.475E-01 0.657E-03
CGA:   8    -0.423963432559E+03   -0.15216E-01   -0.15205E-01  6480   0.265E-01 0.230E-03
CGA:   9    -0.423971577128E+03   -0.81446E-02   -0.81409E-02  6480   0.112E-01 0.108E-03
CGA:  10    -0.423974968414E+03   -0.33913E-02   -0.33893E-02  6480   0.417E-02 0.785E-04
CGA:  11    -0.423976288388E+03   -0.13200E-02   -0.13190E-02  6480   0.169E-02 0.280E-04
CGA:  12    -0.423976880694E+03   -0.59231E-03   -0.58754E-03  6480   0.721E-03 0.738E-04
CGA:  13    -0.423977143628E+03   -0.26293E-03   -0.25977E-03  6480   0.277E-03 0.519E-04
CGA:  14    -0.423977244402E+03   -0.10077E-03   -0.99625E-04  6480   0.988E-04 0.236E-04
CGA:  15    -0.423977276284E+03   -0.31882E-04   -0.31732E-04  6480   0.361E-04 0.265E-04
CGA:  16    -0.423977291951E+03   -0.15666E-04   -0.15250E-04  6480   0.188E-04 0.968E-05
CGA:  17    -0.423977304093E+03   -0.12142E-04   -0.12186E-04  6480   0.152E-04-0.242E-06
CGA:  18    -0.423977308461E+03   -0.43675E-05   -0.44077E-05  6480   0.716E-05 0.430E-05
   7 F= -.42397731E+03 E0= -.42397731E+03  d E =-.281572E+00  mag=    18.0000
       N       E                     dE             d eps       ncg     rms          ort
SDA:   1    -0.406126287048E+03    0.17851E+02    0.00000E+00  6480   0.521E+02 0.000E+00
CGA:   2    -0.418932915137E+03   -0.12807E+02   -0.12829E+02  6480   0.181E+02 0.122E+00
CGA:   3    -0.422566320695E+03   -0.36334E+01   -0.36355E+01  6480   0.606E+01 0.240E-01
CGA:   4    -0.423620017784E+03   -0.10537E+01   -0.10551E+01  6480   0.120E+01 0.790E-02
CGA:   5    -0.423844146022E+03   -0.22413E+00   -0.22433E+00  6480   0.358E+00 0.158E-02
CGA:   6    -0.423920795977E+03   -0.76650E-01   -0.76693E-01  6480   0.129E+00 0.560E-03
CGA:   7    -0.423956028678E+03   -0.35233E-01   -0.35234E-01  6480   0.666E-01 0.157E-03
CGA:   8    -0.423976716978E+03   -0.20688E-01   -0.20686E-01  6480   0.358E-01 0.193E-04
CGA:   9    -0.423988067393E+03   -0.11350E-01   -0.11352E-01  6480   0.160E-01-0.598E-04
CGA:  10    -0.423992967580E+03   -0.49002E-02   -0.48985E-02  6480   0.629E-02 0.545E-04
CGA:  11    -0.423995017811E+03   -0.20502E-02   -0.20518E-02  6480   0.275E-02-0.395E-04
CGA:  12    -0.423996026053E+03   -0.10082E-02   -0.10126E-02  6480   0.130E-02-0.524E-04
CGA:  13    -0.423996461475E+03   -0.43542E-03   -0.43048E-03  6480   0.464E-03 0.978E-04
CGA:  14    -0.423996623416E+03   -0.16194E-03   -0.16074E-03  6480   0.152E-03 0.385E-04
CGA:  15    -0.423996680947E+03   -0.57531E-04   -0.56808E-04  6480   0.558E-04 0.140E-04
CGA:  16    -0.423996702195E+03   -0.21248E-04   -0.20709E-04  6480   0.243E-04 0.120E-04
CGA:  17    -0.423996716403E+03   -0.14208E-04   -0.14423E-04  6480   0.178E-04-0.116E-05
CGA:  18    -0.423996720762E+03   -0.43584E-05   -0.45944E-05  6480   0.876E-05 0.658E-05
   8 F= -.42399672E+03 E0= -.42399672E+03  d E =-.194123E-01  mag=    18.0000
       N       E                     dE             d eps       ncg     rms          ort
SDA:   1    -0.421803938745E+03    0.21928E+01    0.00000E+00  6480   0.642E+01 0.000E+00
CGA:   2    -0.423552472916E+03   -0.17485E+01   -0.17483E+01  6480   0.225E+01-0.943E-02
CGA:   3    -0.424003194729E+03   -0.45072E+00   -0.45068E+00  6480   0.739E+00-0.115E-02
CGA:   4    -0.424130483112E+03   -0.12729E+00   -0.12745E+00  6480   0.152E+00 0.151E-02
CGA:   5    -0.424158879718E+03   -0.28397E-01   -0.28459E-01  6480   0.458E-01 0.626E-03
CGA:   6    -0.424168647656E+03   -0.97679E-02   -0.97628E-02  6480   0.160E-01-0.709E-04
CGA:   7    -0.424172793094E+03   -0.41454E-02   -0.41398E-02  6480   0.724E-02-0.287E-03
CGA:   8    -0.424174793100E+03   -0.20000E-02   -0.20004E-02  6480   0.338E-02-0.154E-03
CGA:   9    -0.424175782166E+03   -0.98907E-03   -0.98897E-03  6480   0.140E-02 0.296E-05
CGA:  10    -0.424176225184E+03   -0.44302E-03   -0.44396E-03  6480   0.587E-03-0.253E-04
CGA:  11    -0.424176406470E+03   -0.18129E-03   -0.18059E-03  6480   0.251E-03 0.218E-04
CGA:  12    -0.424176485603E+03   -0.79133E-04   -0.78271E-04  6480   0.105E-03 0.486E-04
CGA:  13    -0.424176532091E+03   -0.46488E-04   -0.45911E-04  6480   0.540E-04 0.706E-05
CGA:  14    -0.424176553140E+03   -0.21049E-04   -0.20979E-04  6480   0.228E-04 0.881E-06
CGA:  15    -0.424176560120E+03   -0.69805E-05   -0.69529E-05  6480   0.762E-05 0.364E-05
   9 F= -.42417656E+03 E0= -.42417656E+03  d E =-.179839E+00  mag=    18.0000
       N       E                     dE             d eps       ncg     rms          ort
SDA:   1    -0.423392623223E+03    0.78393E+00    0.00000E+00  6480   0.250E+01 0.000E+00
CGA:   2    -0.424007310318E+03   -0.61469E+00   -0.61442E+00  6480   0.778E+00-0.840E-02
CGA:   3    -0.424169076539E+03   -0.16177E+00   -0.16186E+00  6480   0.271E+00 0.112E-02
CGA:   4    -0.424215166121E+03   -0.46090E-01   -0.46377E-01  6480   0.541E-01 0.240E-02
CGA:   5    -0.424225317734E+03   -0.10152E-01   -0.10163E-01  6480   0.159E-01 0.108E-03
CGA:   6    -0.424228852155E+03   -0.35344E-02   -0.34969E-02  6480   0.613E-02-0.688E-03
CGA:   7    -0.424230459377E+03   -0.16072E-02   -0.16081E-02  6480   0.321E-02-0.303E-03
CGA:   8    -0.424231309164E+03   -0.84979E-03   -0.84865E-03  6480   0.147E-02 0.161E-03
CGA:   9    -0.424231769167E+03   -0.46000E-03   -0.45731E-03  6480   0.616E-03 0.107E-03
CGA:  10    -0.424231996376E+03   -0.22721E-03   -0.23136E-03  6480   0.317E-03-0.540E-04
CGA:  11    -0.424232089447E+03   -0.93071E-04   -0.93923E-04  6480   0.142E-03-0.177E-04
CGA:  12    -0.424232136021E+03   -0.46575E-04   -0.46970E-04  6480   0.626E-04-0.555E-05
CGA:  13    -0.424232152828E+03   -0.16807E-04   -0.16838E-04  6480   0.202E-04 0.109E-04
CGA:  14    -0.424232156158E+03   -0.33299E-05   -0.43609E-05  6480   0.747E-05 0.104E-04
  10 F= -.42423216E+03 E0= -.42423216E+03  d E =-.555960E-01  mag=    18.0000
       N       E                     dE             d eps       ncg     rms          ort
SDA:   1    -0.420965897453E+03    0.32663E+01    0.00000E+00  6480   0.926E+01 0.000E+00
CGA:   2    -0.423314135621E+03   -0.23482E+01   -0.23485E+01  6480   0.388E+01 0.101E-02
CGA:   3    -0.424016154348E+03   -0.70202E+00   -0.70193E+00  6480   0.109E+01-0.131E-02
CGA:   4    -0.424212243148E+03   -0.19609E+00   -0.19626E+00  6480   0.231E+00 0.162E-02
CGA:   5    -0.424252653715E+03   -0.40411E-01   -0.40453E-01  6480   0.605E-01 0.330E-03
CGA:   6    -0.424265557345E+03   -0.12904E-01   -0.12861E-01  6480   0.195E-01-0.859E-03
CGA:   7    -0.424270356979E+03   -0.47996E-02   -0.47936E-02  6480   0.829E-02-0.499E-03
CGA:   8    -0.424272626780E+03   -0.22698E-02   -0.22652E-02  6480   0.385E-02 0.229E-03
CGA:   9    -0.424273858596E+03   -0.12318E-02   -0.12217E-02  6480   0.173E-02 0.212E-03
CGA:  10    -0.424274485219E+03   -0.62662E-03   -0.63596E-03  6480   0.911E-03-0.113E-03
CGA:  11    -0.424274763840E+03   -0.27862E-03   -0.27951E-03  6480   0.409E-03-0.154E-04
CGA:  12    -0.424274901613E+03   -0.13777E-03   -0.13648E-03  6480   0.180E-03 0.186E-04
CGA:  13    -0.424274959751E+03   -0.58138E-04   -0.57175E-04  6480   0.673E-04 0.330E-04
CGA:  14    -0.424274975218E+03   -0.15467E-04   -0.17318E-04  6480   0.240E-04 0.316E-04
CGA:  15    -0.424274981906E+03   -0.66875E-05   -0.75018E-05  6480   0.993E-05 0.136E-04
CGA:  16    -0.424274964787E+03    0.17119E-04   -0.10248E-04  6480   0.148E-03-0.250E-04
CGA:  17    -0.424274978624E+03   -0.13837E-04   -0.25613E-04  6480   0.139E-04 0.369E-04
CGA:  18    -0.424274984158E+03   -0.55338E-05   -0.49740E-05  6480   0.351E-05-0.296E-05
  11 F= -.42427498E+03 E0= -.42427498E+03  d E =-.428280E-01  mag=    18.0000
       N       E                     dE             d eps       ncg     rms          ort
SDA:   1    -0.419004260325E+03    0.52707E+01    0.00000E+00  6480   0.141E+02 0.000E+00
CGA:   2    -0.422652014925E+03   -0.36478E+01   -0.36555E+01  6480   0.688E+01 0.302E-02
CGA:   3    -0.423852567347E+03   -0.12006E+01   -0.12006E+01  6480   0.169E+01 0.200E-01
CGA:   4    -0.424158071703E+03   -0.30550E+00   -0.30461E+00  6480   0.374E+00-0.160E-03
CGA:   5    -0.424223652317E+03   -0.65581E-01   -0.65663E-01  6480   0.973E-01 0.146E-03
CGA:   6    -0.424244285688E+03   -0.20633E-01   -0.20701E-01  6480   0.306E-01 0.279E-03
CGA:   7    -0.424251661227E+03   -0.73755E-02   -0.73837E-02  6480   0.121E-01 0.401E-04
CGA:   8    -0.424255172961E+03   -0.35117E-02   -0.35232E-02  6480   0.571E-02 0.105E-03
CGA:   9    -0.424256971139E+03   -0.17982E-02   -0.18067E-02  6480   0.254E-02 0.105E-03
CGA:  10    -0.424257795046E+03   -0.82391E-03   -0.82369E-03  6480   0.112E-02-0.489E-05
CGA:  11    -0.424258161227E+03   -0.36618E-03   -0.36743E-03  6480   0.511E-03 0.206E-04
CGA:  12    -0.424258353343E+03   -0.19212E-03   -0.19231E-03  6480   0.263E-03 0.146E-04
CGA:  13    -0.424258446423E+03   -0.93079E-04   -0.94019E-04  6480   0.109E-03 0.276E-04
CGA:  14    -0.424258477500E+03   -0.31077E-04   -0.33801E-04  6480   0.339E-04 0.275E-04
CGA:  15    -0.424258492687E+03   -0.15188E-04   -0.15191E-04  6480   0.141E-04 0.169E-06
CGA:  16    -0.424258497657E+03   -0.49699E-05   -0.49919E-05  6480   0.553E-05 0.976E-06
  12 F= -.42425850E+03 E0= -.42425850E+03  d E =0.164865E-01  mag=    18.0000
       N       E                     dE             d eps       ncg     rms          ort
SDA:   1    -0.415642364331E+03    0.86161E+01    0.00000E+00  6480   0.237E+02 0.000E+00
CGA:   2    -0.421600177234E+03   -0.59578E+01   -0.59669E+01  6480   0.116E+02 0.262E-01
CGA:   3    -0.423638358132E+03   -0.20382E+01   -0.20386E+01  6480   0.287E+01 0.158E-01
CGA:   4    -0.424149083114E+03   -0.51072E+00   -0.50910E+00  6480   0.637E+00-0.554E-02
CGA:   5    -0.424261038451E+03   -0.11196E+00   -0.11195E+00  6480   0.162E+00-0.637E-03
CGA:   6    -0.424295092504E+03   -0.34054E-01   -0.34133E-01  6480   0.504E-01 0.573E-03
CGA:   7    -0.424307195990E+03   -0.12103E-01   -0.12102E-01  6480   0.192E-01-0.371E-04
CGA:   8    -0.424312856782E+03   -0.56608E-02   -0.56569E-02  6480   0.925E-02-0.165E-03
CGA:   9    -0.424315800350E+03   -0.29436E-02   -0.29438E-02  6480   0.418E-02-0.115E-03
CGA:  10    -0.424317127835E+03   -0.13275E-02   -0.13278E-02  6480   0.182E-02-0.123E-03
CGA:  11    -0.424317671757E+03   -0.54392E-03   -0.54492E-03  6480   0.749E-03 0.928E-04
CGA:  12    -0.424317940366E+03   -0.26861E-03   -0.26680E-03  6480   0.362E-03 0.854E-04
CGA:  13    -0.424318083201E+03   -0.14283E-03   -0.14113E-03  6480   0.169E-03 0.551E-04
CGA:  14    -0.424318133110E+03   -0.49909E-04   -0.52741E-04  6480   0.575E-04 0.572E-04
CGA:  15    -0.424318153452E+03   -0.20342E-04   -0.21177E-04  6480   0.211E-04 0.193E-04
CGA:  16    -0.424318164761E+03   -0.11309E-04   -0.11359E-04  6480   0.128E-04-0.603E-06
CGA:  17    -0.424318164503E+03    0.25830E-06   -0.14682E-05  6480   0.828E-05 0.855E-05
  13 F= -.42431816E+03 E0= -.42431816E+03  d E =-.596668E-01  mag=    18.0000
       N       E                     dE             d eps       ncg     rms          ort
SDA:   1    -0.419458857140E+03    0.48593E+01    0.00000E+00  6480   0.124E+02 0.000E+00
CGA:   2    -0.422788693027E+03   -0.33298E+01   -0.33310E+01  6480   0.686E+01 0.171E-01
CGA:   3    -0.423932499814E+03   -0.11438E+01   -0.11439E+01  6480   0.148E+01-0.140E-02
CGA:   4    -0.424192123012E+03   -0.25962E+00   -0.25910E+00  6480   0.351E+00-0.309E-02
CGA:   5    -0.424254988442E+03   -0.62865E-01   -0.62889E-01  6480   0.892E-01 0.732E-04
CGA:   6    -0.424273562862E+03   -0.18574E-01   -0.18588E-01  6480   0.272E-01 0.140E-03
CGA:   7    -0.424279954833E+03   -0.63920E-02   -0.63893E-02  6480   0.955E-02-0.682E-04
CGA:   8    -0.424282545089E+03   -0.25903E-02   -0.25913E-02  6480   0.380E-02 0.235E-03
CGA:   9    -0.424283701117E+03   -0.11560E-02   -0.11536E-02  6480   0.146E-02 0.117E-03
CGA:  10    -0.424284189837E+03   -0.48872E-03   -0.49509E-03  6480   0.637E-03-0.123E-03
CGA:  11    -0.424284350424E+03   -0.16059E-03   -0.16074E-03  6480   0.221E-03 0.397E-04
CGA:  12    -0.424284420142E+03   -0.69717E-04   -0.69198E-04  6480   0.996E-04 0.348E-04
CGA:  13    -0.424284461756E+03   -0.41614E-04   -0.40793E-04  6480   0.616E-04 0.110E-04
CGA:  14    -0.424284474149E+03   -0.12393E-04   -0.14623E-04  6480   0.288E-04 0.318E-04
CGA:  15    -0.424284481181E+03   -0.70320E-05   -0.73082E-05  6480   0.937E-05 0.105E-04
  14 F= -.42428448E+03 E0= -.42428448E+03  d E =0.336833E-01  mag=    18.0000
       N       E                     dE             d eps       ncg     rms          ort
SDA:   1    -0.422124140520E+03    0.21603E+01    0.00000E+00  6480   0.587E+01 0.000E+00
CGA:   2    -0.423684877543E+03   -0.15607E+01   -0.15607E+01  6480   0.301E+01-0.261E-02
CGA:   3    -0.424192010549E+03   -0.50713E+00   -0.50778E+00  6480   0.700E+00 0.494E-02
CGA:   4    -0.424317496695E+03   -0.12549E+00   -0.12556E+00  6480   0.163E+00 0.388E-03
CGA:   5    -0.424346238277E+03   -0.28742E-01   -0.28734E-01  6480   0.414E-01-0.137E-03
CGA:   6    -0.424354812546E+03   -0.85743E-02   -0.86131E-02  6480   0.127E-01 0.629E-03
CGA:   7    -0.424357802354E+03   -0.29898E-02   -0.30017E-02  6480   0.454E-02 0.359E-03
CGA:   8    -0.424359193964E+03   -0.13916E-02   -0.13979E-02  6480   0.220E-02-0.180E-03
CGA:   9    -0.424359871808E+03   -0.67784E-03   -0.68614E-03  6480   0.993E-03-0.143E-03
CGA:  10    -0.424360127855E+03   -0.25605E-03   -0.25572E-03  6480   0.347E-03 0.505E-04
CGA:  11    -0.424360237856E+03   -0.11000E-03   -0.10925E-03  6480   0.149E-03 0.246E-04
CGA:  12    -0.424360302051E+03   -0.64195E-04   -0.66198E-04  6480   0.105E-03-0.141E-04
CGA:  13    -0.424360330419E+03   -0.28368E-04   -0.67912E-04  6480   0.188E-03-0.914E-04
CGA:  14    -0.424360380078E+03   -0.49659E-04   -0.49173E-04  6480   0.328E-04-0.128E-04
CGA:  15    -0.424360385587E+03   -0.55090E-05   -0.64433E-05  6480   0.739E-05 0.107E-04
  15 F= -.42436039E+03 E0= -.42436039E+03  d E =-.759044E-01  mag=    18.0000
       N       E                     dE             d eps       ncg     rms          ort
SDA:   1    -0.424159165954E+03    0.20121E+00    0.00000E+00  6480   0.532E+00 0.000E+00
CGA:   2    -0.424307883666E+03   -0.14872E+00   -0.14877E+00  6480   0.279E+00 0.115E-02
CGA:   3    -0.424353407318E+03   -0.45524E-01   -0.45300E-01  6480   0.598E-01-0.156E-02
CGA:   4    -0.424364184450E+03   -0.10777E-01   -0.10671E-01  6480   0.140E-01-0.822E-03
CGA:   5    -0.424366589044E+03   -0.24046E-02   -0.24094E-02  6480   0.334E-02 0.337E-04
CGA:   6    -0.424367226695E+03   -0.63765E-03   -0.65344E-03  6480   0.929E-03 0.154E-03
CGA:   7    -0.424367443006E+03   -0.21631E-03   -0.21836E-03  6480   0.316E-03 0.304E-04
CGA:   8    -0.424367549792E+03   -0.10679E-03   -0.10910E-03  6480   0.193E-03-0.509E-04
CGA:   9    -0.424367600215E+03   -0.50423E-04   -0.50988E-04  6480   0.859E-04-0.234E-04
CGA:  10    -0.424367622709E+03   -0.22494E-04   -0.22546E-04  6480   0.317E-04-0.749E-05
CGA:  11    -0.424367630106E+03   -0.73974E-05   -0.74948E-05  6480   0.115E-04 0.295E-05
  16 F= -.42436763E+03 E0= -.42436763E+03  d E =-.724452E-02  mag=    18.0000
       N       E                     dE             d eps       ncg     rms          ort
SDA:   1    -0.416864337769E+03    0.75033E+01    0.00000E+00  6480   0.189E+02 0.000E+00
CGA:   2    -0.422334261389E+03   -0.54699E+01   -0.54698E+01  6480   0.970E+01 0.181E-01
CGA:   3    -0.423883742921E+03   -0.15495E+01   -0.15494E+01  6480   0.206E+01-0.123E-02
CGA:   4    -0.424250697801E+03   -0.36695E+00   -0.36635E+00  6480   0.476E+00-0.535E-02
CGA:   5    -0.424334232739E+03   -0.83535E-01   -0.83580E-01  6480   0.117E+00 0.222E-03
CGA:   6    -0.424358605281E+03   -0.24373E-01   -0.24435E-01  6480   0.344E-01 0.972E-03
CGA:   7    -0.424366606502E+03   -0.80012E-02   -0.80057E-02  6480   0.118E-01 0.115E-03
CGA:   8    -0.424370071401E+03   -0.34649E-02   -0.34702E-02  6480   0.544E-02-0.197E-03
CGA:   9    -0.424371732545E+03   -0.16611E-02   -0.16694E-02  6480   0.226E-02-0.179E-03
CGA:  10    -0.424372413373E+03   -0.68083E-03   -0.68827E-03  6480   0.849E-03-0.158E-03
CGA:  11    -0.424372632002E+03   -0.21863E-03   -0.21831E-03  6480   0.284E-03 0.521E-04
CGA:  12    -0.424372720626E+03   -0.88623E-04   -0.87531E-04  6480   0.125E-03 0.567E-04
CGA:  13    -0.424372779267E+03   -0.58641E-04   -0.57397E-04  6480   0.847E-04 0.110E-04
CGA:  14    -0.424372805899E+03   -0.26633E-04   -0.26399E-04  6480   0.370E-04 0.255E-04
CGA:  15    -0.424372817635E+03   -0.11736E-04   -0.12093E-04  6480   0.140E-04 0.133E-04
CGA:  16    -0.424372825087E+03   -0.74522E-05   -0.10814E-04  6480   0.195E-04-0.116E-04
  17 F= -.42437283E+03 E0= -.42437283E+03  d E =-.519498E-02  mag=    18.0000
       N       E                     dE             d eps       ncg     rms          ort
SDA:   1    -0.412532413351E+03    0.11840E+02    0.00000E+00  6480   0.292E+02 0.000E+00
CGA:   2    -0.421549266579E+03   -0.90169E+01   -0.90160E+01  6480   0.131E+02 0.105E-01
CGA:   3    -0.423653028439E+03   -0.21038E+01   -0.21048E+01  6480   0.299E+01 0.892E-02
CGA:   4    -0.424185570937E+03   -0.53254E+00   -0.53269E+00  6480   0.672E+00 0.738E-03
CGA:   5    -0.424305571494E+03   -0.12000E+00   -0.12007E+00  6480   0.178E+00 0.439E-03
CGA:   6    -0.424343274544E+03   -0.37703E-01   -0.37715E-01  6480   0.531E-01 0.142E-03
CGA:   7    -0.424355621846E+03   -0.12347E-01   -0.12353E-01  6480   0.191E-01 0.133E-03
CGA:   8    -0.424361129384E+03   -0.55075E-02   -0.55045E-02  6480   0.856E-02 0.131E-03
CGA:   9    -0.424363759781E+03   -0.26304E-02   -0.26381E-02  6480   0.342E-02-0.195E-03
CGA:  10    -0.424364786809E+03   -0.10270E-02   -0.10372E-02  6480   0.126E-02-0.242E-03
CGA:  11    -0.424365121229E+03   -0.33442E-03   -0.33421E-03  6480   0.427E-03 0.129E-04
CGA:  12    -0.424365270641E+03   -0.14941E-03   -0.14815E-03  6480   0.207E-03 0.171E-04
CGA:  13    -0.424365368129E+03   -0.97488E-04   -0.10570E-03  6480   0.174E-03-0.382E-04
CGA:  14    -0.424365413199E+03   -0.45070E-04   -0.44739E-04  6480   0.733E-04 0.110E-04
CGA:  15    -0.424365439101E+03   -0.25902E-04   -0.26376E-04  6480   0.309E-04-0.923E-05
CGA:  16    -0.424365432527E+03    0.65741E-05   -0.23623E-04  6480   0.110E-03-0.516E-04
CGA:  17    -0.424365447278E+03   -0.14751E-04   -0.19679E-04  6480   0.177E-04 0.354E-04
CGA:  18    -0.424365450478E+03   -0.31999E-05   -0.42877E-05  6480   0.575E-05 0.846E-05
  18 F= -.42436545E+03 E0= -.42436545E+03  d E =0.737461E-02  mag=    18.0000
       N       E                     dE             d eps       ncg     rms          ort
SDA:   1    -0.422865917037E+03    0.14995E+01    0.00000E+00  6480   0.390E+01 0.000E+00
CGA:   2    -0.423966284001E+03   -0.11004E+01   -0.11003E+01  6480   0.194E+01-0.326E-02
CGA:   3    -0.424282959069E+03   -0.31668E+00   -0.31736E+00  6480   0.444E+00 0.448E-02
CGA:   4    -0.424363148284E+03   -0.80189E-01   -0.80364E-01  6480   0.107E+00 0.127E-02
CGA:   5    -0.424382536038E+03   -0.19388E-01   -0.19357E-01  6480   0.269E-01-0.318E-03
CGA:   6    -0.424388172471E+03   -0.56364E-02   -0.56212E-02  6480   0.835E-02-0.204E-03
CGA:   7    -0.424390097148E+03   -0.19247E-02   -0.19259E-02  6480   0.293E-02 0.233E-04
CGA:   8    -0.424390891012E+03   -0.79386E-03   -0.79434E-03  6480   0.118E-02 0.485E-04
CGA:   9    -0.424391249038E+03   -0.35803E-03   -0.35794E-03  6480   0.472E-03 0.418E-05
CGA:  10    -0.424391388676E+03   -0.13964E-03   -0.13957E-03  6480   0.172E-03 0.471E-05
CGA:  11    -0.424391449761E+03   -0.61084E-04   -0.63443E-04  6480   0.925E-04-0.284E-04
CGA:  12    -0.424391480539E+03   -0.30779E-04   -0.34975E-04  6480   0.646E-04-0.252E-04
CGA:  13    -0.424391494013E+03   -0.13473E-04   -0.13517E-04  6480   0.261E-04 0.707E-05
CGA:  14    -0.424391502223E+03   -0.82108E-05   -0.82343E-05  6480   0.105E-04 0.257E-05
  19 F= -.42439150E+03 E0= -.42439150E+03  d E =-.260517E-01  mag=    18.0000
       N       E                     dE             d eps       ncg     rms          ort
SDA:   1    -0.423676497112E+03    0.71500E+00    0.00000E+00  6480   0.180E+01 0.000E+00
CGA:   2    -0.424240164359E+03   -0.56367E+00   -0.56364E+00  6480   0.743E+00 0.100E-02
CGA:   3    -0.424363508328E+03   -0.12334E+00   -0.12341E+00  6480   0.183E+00 0.156E-03
CGA:   4    -0.424396227218E+03   -0.32719E-01   -0.32728E-01  6480   0.416E-01 0.966E-04
CGA:   5    -0.424403573339E+03   -0.73461E-02   -0.73579E-02  6480   0.109E-01 0.963E-04
CGA:   6    -0.424405914088E+03   -0.23407E-02   -0.23354E-02  6480   0.338E-02-0.838E-04
CGA:   7    -0.424406712725E+03   -0.79864E-03   -0.79615E-03  6480   0.126E-02-0.625E-04
CGA:   8    -0.424407051638E+03   -0.33891E-03   -0.33896E-03  6480   0.513E-03 0.269E-04
CGA:   9    -0.424407196103E+03   -0.14446E-03   -0.14445E-03  6480   0.178E-03 0.406E-04
CGA:  10    -0.424407251981E+03   -0.55877E-04   -0.55715E-04  6480   0.634E-04 0.107E-04
CGA:  11    -0.424407275561E+03   -0.23580E-04   -0.24427E-04  6480   0.356E-04-0.976E-05
CGA:  12    -0.424407286030E+03   -0.10469E-04   -0.18591E-04  6480   0.516E-04-0.242E-04
CGA:  13    -0.424407294642E+03   -0.86118E-05   -0.97989E-05  6480   0.810E-05 0.111E-04
  20 F= -.42440729E+03 E0= -.42440729E+03  d E =-.157924E-01  mag=    18.0000
       N       E                     dE             d eps       ncg     rms          ort
SDA:   1    -0.424351404385E+03    0.55882E-01    0.00000E+00  6480   0.152E+00 0.000E+00
CGA:   2    -0.424392243398E+03   -0.40839E-01   -0.40814E-01  6480   0.777E-01-0.116E-02
CGA:   3    -0.424405035587E+03   -0.12792E-01   -0.12901E-01  6480   0.178E-01 0.862E-03
CGA:   4    -0.424408056901E+03   -0.30213E-02   -0.30818E-02  6480   0.373E-02 0.536E-03
CGA:   5    -0.424408753630E+03   -0.69673E-03   -0.69718E-03  6480   0.968E-03 0.350E-05
CGA:   6    -0.424408982884E+03   -0.22925E-03   -0.22552E-03  6480   0.353E-03-0.937E-04
CGA:   7    -0.424409055495E+03   -0.72611E-04   -0.72195E-04  6480   0.127E-03-0.943E-05
CGA:   8    -0.424409083156E+03   -0.27661E-04   -0.28497E-04  6480   0.463E-04 0.219E-04
CGA:   9    -0.424409097765E+03   -0.14610E-04   -0.14590E-04  6480   0.221E-04 0.915E-05
CGA:  10    -0.424409107960E+03   -0.10195E-04   -0.11586E-04  6480   0.238E-04-0.816E-05
CGA:  11    -0.424409112276E+03   -0.43162E-05   -0.60542E-05  6480   0.202E-04-0.135E-04
  21 F= -.42440911E+03 E0= -.42440911E+03  d E =-.181763E-02  mag=    18.0000
       N       E                     dE             d eps       ncg     rms          ort
SDA:   1    -0.423152585248E+03    0.12565E+01    0.00000E+00  6480   0.321E+01 0.000E+00
CGA:   2    -0.424081206805E+03   -0.92862E+00   -0.92863E+00  6480   0.155E+01-0.187E-02
CGA:   3    -0.424334516585E+03   -0.25331E+00   -0.25329E+00  6480   0.354E+00-0.589E-03
CGA:   4    -0.424396760169E+03   -0.62244E-01   -0.62288E-01  6480   0.787E-01 0.244E-03
CGA:   5    -0.424410593478E+03   -0.13833E-01   -0.13838E-01  6480   0.193E-01 0.211E-04
CGA:   6    -0.424414622228E+03   -0.40287E-02   -0.40163E-02  6480   0.567E-02-0.208E-03
CGA:   7    -0.424415911052E+03   -0.12888E-02   -0.12869E-02  6480   0.196E-02-0.534E-04
CGA:   8    -0.424416452798E+03   -0.54175E-03   -0.54137E-03  6480   0.854E-03 0.251E-04
CGA:   9    -0.424416734389E+03   -0.28159E-03   -0.28440E-03  6480   0.405E-03-0.444E-04
CGA:  10    -0.424416864833E+03   -0.13044E-03   -0.13727E-03  6480   0.206E-03-0.772E-04
CGA:  11    -0.424416912296E+03   -0.47463E-04   -0.47520E-04  6480   0.724E-04-0.464E-05
CGA:  12    -0.424416934230E+03   -0.21934E-04   -0.21728E-04  6480   0.321E-04 0.616E-05
CGA:  13    -0.424416948429E+03   -0.14198E-04   -0.14632E-04  6480   0.232E-04-0.303E-05
CGA:  14    -0.424416954287E+03   -0.58583E-05   -0.58739E-05  6480   0.953E-05 0.438E-05
  22 F= -.42441695E+03 E0= -.42441695E+03  d E =-.784201E-02  mag=    18.0000
       N       E                     dE             d eps       ncg     rms          ort
SDA:   1    -0.399662203680E+03    0.24755E+02    0.00000E+00  6480   0.636E+02 0.000E+00
CGA:   2    -0.417385499420E+03   -0.17723E+02   -0.17724E+02  6480   0.323E+02 0.129E+00
CGA:   3    -0.422738589891E+03   -0.53531E+01   -0.53648E+01  6480   0.695E+01 0.980E-01
CGA:   4    -0.423977301976E+03   -0.12387E+01   -0.12388E+01  6480   0.164E+01-0.457E-03
CGA:   5    -0.424269092986E+03   -0.29179E+00   -0.29214E+00  6480   0.422E+00 0.128E-02
CGA:   6    -0.424358799536E+03   -0.89707E-01   -0.89802E-01  6480   0.131E+00 0.143E-02
CGA:   7    -0.424389767632E+03   -0.30968E-01   -0.30980E-01  6480   0.476E-01 0.323E-03
CGA:   8    -0.424403543105E+03   -0.13775E-01   -0.13774E-01  6480   0.207E-01 0.139E-04
CGA:   9    -0.424409841495E+03   -0.62984E-02   -0.63119E-02  6480   0.788E-02-0.330E-03
CGA:  10    -0.424412178786E+03   -0.23373E-02   -0.23522E-02  6480   0.279E-02-0.390E-03
CGA:  11    -0.424412932396E+03   -0.75361E-03   -0.75227E-03  6480   0.913E-03 0.767E-04
CGA:  12    -0.424413251100E+03   -0.31870E-03   -0.31482E-03  6480   0.420E-03 0.563E-04
CGA:  13    -0.424413453295E+03   -0.20220E-03   -0.21421E-03  6480   0.332E-03-0.583E-04
CGA:  14    -0.424413547679E+03   -0.94384E-04   -0.93086E-04  6480   0.139E-03 0.290E-04
CGA:  15    -0.424413596048E+03   -0.48369E-04   -0.48370E-04  6480   0.520E-04-0.149E-06
CGA:  16    -0.424413592119E+03    0.39284E-05   -0.44896E-04  6480   0.172E-03-0.845E-04
CGA:  17    -0.424413619336E+03   -0.27216E-04   -0.33236E-04  6480   0.247E-04 0.497E-04
CGA:  18    -0.424413629093E+03   -0.97571E-05   -0.97573E-05  6480   0.756E-05 0.131E-06
CGA:  19    -0.424413633856E+03   -0.47633E-05    0.69359E-04  6480   0.269E-05 0.609E-06
  23 F= -.42441363E+03 E0= -.42441363E+03  d E =0.332043E-02  mag=    18.0000
       N       E                     dE             d eps       ncg     rms          ort
SDA:   1    -0.422994149648E+03    0.14195E+01    0.00000E+00  6480   0.391E+01 0.000E+00
CGA:   2    -0.423948036476E+03   -0.95389E+00   -0.95415E+00  6480   0.195E+01 0.246E-02
CGA:   3    -0.424294264908E+03   -0.34623E+00   -0.34679E+00  6480   0.483E+00 0.383E-02
CGA:   4    -0.424382172558E+03   -0.87908E-01   -0.87978E-01  6480   0.122E+00 0.641E-03
CGA:   5    -0.424403806420E+03   -0.21634E-01   -0.21624E-01  6480   0.296E-01-0.111E-03
CGA:   6    -0.424410000511E+03   -0.61941E-02   -0.62006E-02  6480   0.967E-02 0.838E-04
CGA:   7    -0.424412262624E+03   -0.22621E-02   -0.22690E-02  6480   0.341E-02 0.163E-03
CGA:   8    -0.424413166385E+03   -0.90376E-03   -0.90592E-03  6480   0.135E-02 0.172E-03
CGA:   9    -0.424413562219E+03   -0.39583E-03   -0.39515E-03  6480   0.513E-03 0.129E-03
CGA:  10    -0.424413724061E+03   -0.16184E-03   -0.16114E-03  6480   0.206E-03 0.512E-04
CGA:  11    -0.424413802926E+03   -0.78864E-04   -0.79172E-04  6480   0.109E-03-0.428E-05
CGA:  12    -0.424413843054E+03   -0.40128E-04   -0.40851E-04  6480   0.608E-04-0.696E-05
CGA:  13    -0.424413861298E+03   -0.18244E-04   -0.18023E-04  6480   0.255E-04 0.650E-05
CGA:  14    -0.424413870424E+03   -0.91258E-05   -0.90453E-05  6480   0.106E-04 0.220E-05
  24 F= -.42441387E+03 E0= -.42441387E+03  d E =-.236568E-03  mag=    18.0000
       N       E                     dE             d eps       ncg     rms          ort
SDA:   1    -0.421698738535E+03    0.27151E+01    0.00000E+00  6480   0.706E+01 0.000E+00
CGA:   2    -0.423612209799E+03   -0.19135E+01   -0.19136E+01  6480   0.375E+01 0.113E-02
CGA:   3    -0.424243587223E+03   -0.63138E+00   -0.63190E+00  6480   0.801E+00 0.339E-02
CGA:   4    -0.424384054408E+03   -0.14047E+00   -0.14052E+00  6480   0.185E+00 0.653E-03
CGA:   5    -0.424416771764E+03   -0.32717E-01   -0.32743E-01  6480   0.463E-01 0.187E-03
CGA:   6    -0.424426408455E+03   -0.96367E-02   -0.96467E-02  6480   0.137E-01 0.132E-03
CGA:   7    -0.424429585407E+03   -0.31770E-02   -0.31760E-02  6480   0.473E-02-0.295E-04
CGA:   8    -0.424430913115E+03   -0.13277E-02   -0.13277E-02  6480   0.199E-02-0.254E-05
CGA:   9    -0.424431516379E+03   -0.60326E-03   -0.60311E-03  6480   0.766E-03 0.442E-05
CGA:  10    -0.424431747104E+03   -0.23072E-03   -0.23100E-03  6480   0.277E-03-0.100E-04
CGA:  11    -0.424431831753E+03   -0.84649E-04   -0.84900E-04  6480   0.104E-03-0.704E-05
CGA:  12    -0.424431873348E+03   -0.41595E-04   -0.48164E-04  6480   0.847E-04-0.333E-04
CGA:  13    -0.424431896588E+03   -0.23240E-04   -0.26625E-04  6480   0.537E-04-0.194E-04
CGA:  14    -0.424431912036E+03   -0.15448E-04   -0.16521E-04  6480   0.237E-04-0.103E-04
CGA:  15    -0.424431918980E+03   -0.69441E-05   -0.99934E-05  6480   0.188E-04-0.138E-04
  25 F= -.42443192E+03 E0= -.42443192E+03  d E =-.180486E-01  mag=    18.0000
       N       E                     dE             d eps       ncg     rms          ort
SDA:   1    -0.424091134579E+03    0.34078E+00    0.00000E+00  6480   0.889E+00 0.000E+00
CGA:   2    -0.424333671449E+03   -0.24254E+00   -0.24255E+00  6480   0.434E+00 0.821E-04
CGA:   3    -0.424408557771E+03   -0.74886E-01   -0.74940E-01  6480   0.102E+00 0.228E-03
CGA:   4    -0.424426762360E+03   -0.18205E-01   -0.18216E-01  6480   0.235E-01 0.771E-04
CGA:   5    -0.424430876665E+03   -0.41143E-02   -0.41413E-02  6480   0.581E-02 0.232E-03
CGA:   6    -0.424432051391E+03   -0.11747E-02   -0.11925E-02  6480   0.172E-02 0.217E-03
CGA:   7    -0.424432475135E+03   -0.42374E-03   -0.42474E-03  6480   0.637E-03 0.232E-04
CGA:   8    -0.424432667153E+03   -0.19202E-03   -0.19261E-03  6480   0.309E-03-0.292E-04
CGA:   9    -0.424432746141E+03   -0.78988E-04   -0.79254E-04  6480   0.107E-03 0.248E-04
CGA:  10    -0.424432770918E+03   -0.24777E-04   -0.26273E-04  6480   0.357E-04 0.292E-04
CGA:  11    -0.424432782166E+03   -0.11248E-04   -0.11488E-04  6480   0.158E-04 0.104E-04
CGA:  12    -0.424432790951E+03   -0.87848E-05   -0.10369E-04  6480   0.199E-04-0.686E-05
  26 F= -.42443279E+03 E0= -.42443279E+03  d E =-.871971E-03  mag=    18.0000
       N       E                     dE             d eps       ncg     rms          ort
SDA:   1    -0.424373238706E+03    0.59543E-01    0.00000E+00  6480   0.164E+00 0.000E+00
CGA:   2    -0.424416991017E+03   -0.43752E-01   -0.43764E-01  6480   0.798E-01 0.563E-03
CGA:   3    -0.424430922215E+03   -0.13931E-01   -0.13959E-01  6480   0.193E-01 0.226E-03
CGA:   4    -0.424434362305E+03   -0.34401E-02   -0.34277E-02  6480   0.450E-02-0.127E-03
CGA:   5    -0.424435158993E+03   -0.79669E-03   -0.79229E-03  6480   0.114E-02-0.464E-04
CGA:   6    -0.424435379624E+03   -0.22063E-03   -0.22476E-03  6480   0.330E-03 0.581E-04
CGA:   7    -0.424435455067E+03   -0.75443E-04   -0.76948E-04  6480   0.118E-03 0.341E-04
CGA:   8    -0.424435498511E+03   -0.43444E-04   -0.44731E-04  6480   0.826E-04-0.159E-04
CGA:   9    -0.424435518361E+03   -0.19850E-04   -0.19834E-04  6480   0.364E-04 0.160E-05
CGA:  10    -0.424435525197E+03   -0.68363E-05   -0.75290E-05  6480   0.139E-04 0.105E-04
  27 F= -.42443553E+03 E0= -.42443553E+03  d E =-.273425E-02  mag=    18.0000
       N       E                     dE             d eps       ncg     rms          ort
SDA:   1    -0.424182064010E+03    0.25345E+00    0.00000E+00  6480   0.653E+00 0.000E+00
CGA:   2    -0.424363062953E+03   -0.18100E+00   -0.18099E+00  6480   0.346E+00 0.715E-03
CGA:   3    -0.424420684450E+03   -0.57621E-01   -0.57620E-01  6480   0.741E-01-0.105E-03
CGA:   4    -0.424433570252E+03   -0.12886E-01   -0.12872E-01  6480   0.172E-01-0.176E-03
CGA:   5    -0.424436590612E+03   -0.30204E-02   -0.30174E-02  6480   0.420E-02-0.415E-04
CGA:   6    -0.424437448113E+03   -0.85750E-03   -0.85985E-03  6480   0.120E-02 0.506E-04
CGA:   7    -0.424437719835E+03   -0.27172E-03   -0.27270E-03  6480   0.398E-03 0.398E-04
CGA:   8    -0.424437839225E+03   -0.11939E-03   -0.11939E-03  6480   0.187E-03 0.475E-07
CGA:   9    -0.424437897740E+03   -0.58515E-04   -0.58526E-04  6480   0.830E-04-0.229E-06
CGA:  10    -0.424437920883E+03   -0.23143E-04   -0.22952E-04  6480   0.294E-04 0.787E-05
CGA:  11    -0.424437930501E+03   -0.96175E-05   -0.94792E-05  6480   0.119E-04 0.336E-05
  28 F= -.42443793E+03 E0= -.42443793E+03  d E =-.240530E-02  mag=    18.0000
       N       E                     dE             d eps       ncg     rms          ort
SDA:   1    -0.402061079039E+03    0.22377E+02    0.00000E+00  6480   0.568E+02 0.000E+00
CGA:   2    -0.418247104095E+03   -0.16186E+02   -0.16182E+02  6480   0.285E+02 0.796E-01
CGA:   3    -0.422946420023E+03   -0.46993E+01   -0.47056E+01  6480   0.615E+01 0.411E-01
CGA:   4    -0.424032579219E+03   -0.10862E+01   -0.10860E+01  6480   0.143E+01-0.175E-02
CGA:   5    -0.424289015185E+03   -0.25644E+00   -0.25660E+00  6480   0.374E+00 0.131E-02
CGA:   6    -0.424368379284E+03   -0.79364E-01   -0.79440E-01  6480   0.115E+00 0.193E-02
CGA:   7    -0.424395813592E+03   -0.27434E-01   -0.27439E-01  6480   0.435E-01 0.466E-03
CGA:   8    -0.424408410031E+03   -0.12596E-01   -0.12592E-01  6480   0.197E-01 0.778E-04
CGA:   9    -0.424414385860E+03   -0.59758E-02   -0.59754E-02  6480   0.780E-02-0.101E-05
CGA:  10    -0.424416748919E+03   -0.23631E-02   -0.23733E-02  6480   0.290E-02-0.195E-03
CGA:  11    -0.424417625355E+03   -0.87644E-03   -0.87602E-03  6480   0.113E-02 0.485E-05
CGA:  12    -0.424418051916E+03   -0.42656E-03   -0.42652E-03  6480   0.609E-03-0.104E-05
CGA:  13    -0.424418331667E+03   -0.27975E-03   -0.30744E-03  6480   0.465E-03-0.115E-03
CGA:  14    -0.424418459889E+03   -0.12822E-03   -0.12796E-03  6480   0.173E-03 0.321E-05
CGA:  15    -0.424418517646E+03   -0.57756E-04   -0.58585E-04  6480   0.594E-04-0.142E-04
CGA:  16    -0.424418538477E+03   -0.20832E-04   -0.23563E-04  6480   0.305E-04-0.180E-04
CGA:  17    -0.424418541918E+03   -0.34408E-05   -0.42043E-05  6480   0.147E-04 0.849E-05
  29 F= -.42441854E+03 E0= -.42441854E+03  d E =0.193886E-01  mag=    18.0000
       N       E                     dE             d eps       ncg     rms          ort
SDA:   1    -0.422784952132E+03    0.16336E+01    0.00000E+00  6480   0.416E+01 0.000E+00
CGA:   2    -0.423973414303E+03   -0.11885E+01   -0.11884E+01  6480   0.199E+01 0.585E-02
CGA:   3    -0.424315832065E+03   -0.34242E+00   -0.34201E+00  6480   0.453E+00-0.518E-02
CGA:   4    -0.424398697820E+03   -0.82866E-01   -0.82598E-01  6480   0.114E+00-0.281E-02
CGA:   5    -0.424418543465E+03   -0.19846E-01   -0.19894E-01  6480   0.280E-01 0.493E-03
CGA:   6    -0.424424251052E+03   -0.57076E-02   -0.57634E-02  6480   0.865E-02 0.929E-03
CGA:   7    -0.424426383898E+03   -0.21328E-02   -0.21360E-02  6480   0.320E-02 0.134E-03
CGA:   8    -0.424427345061E+03   -0.96116E-03   -0.96948E-03  6480   0.154E-02-0.223E-03
CGA:   9    -0.424427741061E+03   -0.39600E-03   -0.39558E-03  6480   0.533E-03 0.298E-04
CGA:  10    -0.424427890754E+03   -0.14969E-03   -0.14932E-03  6480   0.182E-03 0.332E-04
CGA:  11    -0.424427953073E+03   -0.62319E-04   -0.62513E-04  6480   0.845E-04-0.335E-05
CGA:  12    -0.424427975819E+03   -0.22746E-04   -0.22624E-04  6480   0.379E-04 0.205E-04
CGA:  13    -0.424427995800E+03   -0.19981E-04   -0.23562E-04  6480   0.471E-04-0.154E-04
CGA:  14    -0.424427986061E+03    0.97385E-05   -0.21024E-04  6480   0.105E-03-0.652E-04
CGA:  15    -0.424428000548E+03   -0.14487E-04   -0.19401E-04  6480   0.256E-04 0.418E-04
CGA:  16    -0.424428006867E+03   -0.63192E-05   -0.74403E-05  6480   0.974E-05 0.126E-04
  30 F= -.42442801E+03 E0= -.42442801E+03  d E =-.946495E-02  mag=    18.0000
       N       E                     dE             d eps       ncg     rms          ort
SDA:   1    -0.418022696350E+03    0.64053E+01    0.00000E+00  6480   0.161E+02 0.000E+00
CGA:   2    -0.422761462697E+03   -0.47388E+01   -0.47388E+01  6480   0.779E+01 0.358E-02
CGA:   3    -0.424037351050E+03   -0.12759E+01   -0.12771E+01  6480   0.174E+01 0.904E-02
CGA:   4    -0.424342335572E+03   -0.30498E+00   -0.30521E+00  6480   0.392E+00 0.221E-02
CGA:   5    -0.424411858966E+03   -0.69523E-01   -0.69503E-01  6480   0.101E+00-0.298E-03
CGA:   6    -0.424433229951E+03   -0.21371E-01   -0.21323E-01  6480   0.303E-01-0.741E-03
CGA:   7    -0.424440276955E+03   -0.70470E-02   -0.70435E-02  6480   0.112E-01-0.912E-04
CGA:   8    -0.424443399380E+03   -0.31224E-02   -0.31212E-02  6480   0.496E-02 0.213E-03
CGA:   9    -0.424445019087E+03   -0.16197E-02   -0.16239E-02  6480   0.225E-02-0.902E-04
CGA:  10    -0.424445729179E+03   -0.71009E-03   -0.71854E-03  6480   0.973E-03-0.175E-03
CGA:  11    -0.424446011317E+03   -0.28214E-03   -0.28325E-03  6480   0.392E-03-0.308E-04
CGA:  12    -0.424446162143E+03   -0.15083E-03   -0.15716E-03  6480   0.242E-03-0.477E-04
CGA:  13    -0.424446244670E+03   -0.82528E-04   -0.82100E-04  6480   0.115E-03 0.399E-05
CGA:  14    -0.424446278701E+03   -0.34031E-04   -0.34046E-04  6480   0.364E-04 0.219E-04
CGA:  15    -0.424446293137E+03   -0.14435E-04   -0.14358E-04  6480   0.123E-04 0.194E-05
CGA:  16    -0.424446297595E+03   -0.44585E-05   -0.44229E-05  6480   0.423E-05 0.759E-06
  31 F= -.42444630E+03 E0= -.42444630E+03  d E =-.182907E-01  mag=    18.0000
       N       E                     dE             d eps       ncg     rms          ort
SDA:   1    -0.423677219480E+03    0.76907E+00    0.00000E+00  6480   0.205E+01 0.000E+00
CGA:   2    -0.424184625704E+03   -0.50741E+00   -0.50745E+00  6480   0.110E+01-0.168E-03
CGA:   3    -0.424381698554E+03   -0.19707E+00   -0.19727E+00  6480   0.256E+00 0.160E-02
CGA:   4    -0.424426439335E+03   -0.44741E-01   -0.44832E-01  6480   0.601E-01 0.828E-03
CGA:   5    -0.424437047150E+03   -0.10608E-01   -0.10603E-01  6480   0.149E-01-0.557E-04
CGA:   6    -0.424440193617E+03   -0.31465E-02   -0.31280E-02  6480   0.471E-02-0.294E-03
CGA:   7    -0.424441258449E+03   -0.10648E-02   -0.10613E-02  6480   0.158E-02-0.896E-04
CGA:   8    -0.424441636962E+03   -0.37851E-03   -0.38059E-03  6480   0.554E-03 0.899E-04
CGA:   9    -0.424441796757E+03   -0.15980E-03   -0.15950E-03  6480   0.197E-03 0.519E-04
CGA:  10    -0.424441866299E+03   -0.69542E-04   -0.70182E-04  6480   0.910E-04-0.109E-04
CGA:  11    -0.424441894245E+03   -0.27946E-04   -0.28463E-04  6480   0.387E-04-0.854E-05
CGA:  12    -0.424441901150E+03   -0.69052E-05   -0.24534E-04  6480   0.888E-04-0.415E-04
CGA:  13    -0.424441914469E+03   -0.13318E-04   -0.15647E-04  6480   0.115E-04 0.197E-04
CGA:  14    -0.424441916201E+03   -0.17321E-05   -0.24408E-05  6480   0.440E-05 0.620E-05
  32 F= -.42444192E+03 E0= -.42444192E+03  d E =0.438139E-02  mag=    18.0000
       N       E                     dE             d eps       ncg     rms          ort
SDA:   1    -0.424115091377E+03    0.32682E+00    0.00000E+00  6480   0.867E+00 0.000E+00
CGA:   2    -0.424343858252E+03   -0.22877E+00   -0.22879E+00  6480   0.454E+00 0.106E-02
CGA:   3    -0.424423139794E+03   -0.79282E-01   -0.79183E-01  6480   0.104E+00-0.102E-02
CGA:   4    -0.424441600133E+03   -0.18460E-01   -0.18389E-01  6480   0.248E-01-0.718E-03
CGA:   5    -0.424445878226E+03   -0.42781E-02   -0.42878E-02  6480   0.602E-02 0.941E-04
CGA:   6    -0.424447053991E+03   -0.11758E-02   -0.11958E-02  6480   0.171E-02 0.280E-03
CGA:   7    -0.424447453822E+03   -0.39983E-03   -0.40322E-03  6480   0.568E-03 0.857E-04
CGA:   8    -0.424447632195E+03   -0.17837E-03   -0.18053E-03  6480   0.293E-03-0.551E-04
CGA:   9    -0.424447707848E+03   -0.75653E-04   -0.75900E-04  6480   0.112E-03-0.115E-04
CGA:  10    -0.424447734303E+03   -0.26455E-04   -0.26671E-04  6480   0.347E-04 0.120E-04
CGA:  11    -0.424447743951E+03   -0.96488E-05   -0.97295E-05  6480   0.126E-04 0.657E-05
  33 F= -.42444774E+03 E0= -.42444774E+03  d E =-.582775E-02  mag=    18.0000
       N       E                     dE             d eps       ncg     rms          ort
SDA:   1    -0.424368540433E+03    0.79194E-01    0.00000E+00  6480   0.197E+00 0.000E+00
CGA:   2    -0.424428877828E+03   -0.60337E-01   -0.60337E-01  6480   0.936E-01-0.186E-04
CGA:   3    -0.424443909390E+03   -0.15032E-01   -0.15021E-01  6480   0.206E-01-0.129E-03
CGA:   4    -0.424447517332E+03   -0.36079E-02   -0.36043E-02  6480   0.459E-02-0.477E-04
CGA:   5    -0.424448327374E+03   -0.81004E-03   -0.81134E-03  6480   0.114E-02 0.158E-04
CGA:   6    -0.424448552876E+03   -0.22550E-03   -0.22758E-03  6480   0.308E-03 0.403E-04
CGA:   7    -0.424448623102E+03   -0.70225E-04   -0.70697E-04  6480   0.103E-03 0.176E-04
CGA:   8    -0.424448656945E+03   -0.33844E-04   -0.34264E-04  6480   0.574E-04-0.616E-05
CGA:   9    -0.424448672774E+03   -0.15828E-04   -0.15737E-04  6480   0.233E-04 0.221E-05
CGA:  10    -0.424448679004E+03   -0.62308E-05   -0.62158E-05  6480   0.796E-05 0.356E-05
  34 F= -.42444868E+03 E0= -.42444868E+03  d E =-.935053E-03  mag=    18.0000
       N       E                     dE             d eps       ncg     rms          ort
SDA:   1    -0.414369648389E+03    0.10079E+02    0.00000E+00  6480   0.245E+02 0.000E+00
CGA:   2    -0.422163053826E+03   -0.77934E+01   -0.77923E+01  6480   0.107E+02 0.722E-02
CGA:   3    -0.423879985486E+03   -0.17169E+01   -0.17182E+01  6480   0.245E+01 0.111E-01
CGA:   4    -0.424306633812E+03   -0.42665E+00   -0.42683E+00  6480   0.531E+00 0.179E-02
CGA:   5    -0.424403169897E+03   -0.96536E-01   -0.96539E-01  6480   0.141E+00-0.182E-03
CGA:   6    -0.424432311394E+03   -0.29141E-01   -0.29158E-01  6480   0.402E-01 0.361E-03
CGA:   7    -0.424441717013E+03   -0.94056E-02   -0.94095E-02  6480   0.145E-01 0.358E-03
CGA:   8    -0.424445984851E+03   -0.42678E-02   -0.42689E-02  6480   0.678E-02-0.236E-04
CGA:   9    -0.424448094456E+03   -0.21096E-02   -0.21060E-02  6480   0.275E-02 0.542E-04
CGA:  10    -0.424448930689E+03   -0.83623E-03   -0.83687E-03  6480   0.984E-03-0.134E-04
CGA:  11    -0.424449262159E+03   -0.33147E-03   -0.34364E-03  6480   0.474E-03-0.124E-03
CGA:  12    -0.424449412523E+03   -0.15036E-03   -0.15104E-03  6480   0.233E-03-0.668E-05
CGA:  13    -0.424449516375E+03   -0.10385E-03   -0.13389E-03  6480   0.243E-03-0.938E-04
CGA:  14    -0.424449567838E+03   -0.51463E-04   -0.59007E-04  6480   0.129E-03-0.589E-04
CGA:  15    -0.424449588808E+03   -0.20970E-04   -0.21711E-04  6480   0.474E-04 0.118E-04
CGA:  16    -0.424449599176E+03   -0.10368E-04   -0.11000E-04  6480   0.190E-04 0.914E-05
CGA:  17    -0.424449605963E+03   -0.67863E-05   -0.67662E-05  6480   0.116E-04 0.998E-06
  35 F= -.42444961E+03 E0= -.42444961E+03  d E =-.926958E-03  mag=    18.0000
       N       E                     dE             d eps       ncg     rms          ort
SDA:   1    -0.419430487861E+03    0.50191E+01    0.00000E+00  6480   0.122E+02 0.000E+00
CGA:   2    -0.423317501684E+03   -0.38870E+01   -0.38867E+01  6480   0.527E+01 0.247E-02
CGA:   3    -0.424168267456E+03   -0.85077E+00   -0.85068E+00  6480   0.120E+01 0.176E-02
CGA:   4    -0.424377214804E+03   -0.20895E+00   -0.20894E+00  6480   0.253E+00 0.899E-04
CGA:   5    -0.424423254511E+03   -0.46040E-01   -0.46039E-01  6480   0.686E-01-0.856E-04
CGA:   6    -0.424437317511E+03   -0.14063E-01   -0.14058E-01  6480   0.187E-01-0.114E-03
CGA:   7    -0.424441687003E+03   -0.43695E-02   -0.43681E-02  6480   0.673E-02-0.601E-04
CGA:   8    -0.424443608943E+03   -0.19219E-02   -0.19248E-02  6480   0.307E-02-0.100E-03
CGA:   9    -0.424444569059E+03   -0.96012E-03   -0.96264E-03  6480   0.129E-02-0.432E-04
CGA:  10    -0.424444962017E+03   -0.39296E-03   -0.39503E-03  6480   0.476E-03-0.440E-04
CGA:  11    -0.424445111394E+03   -0.14938E-03   -0.15172E-03  6480   0.203E-03-0.363E-04
CGA:  12    -0.424445177326E+03   -0.65932E-04   -0.65401E-04  6480   0.949E-04 0.640E-05
CGA:  13    -0.424445222100E+03   -0.44774E-04   -0.47942E-04  6480   0.706E-04-0.147E-04
CGA:  14    -0.424445246156E+03   -0.24056E-04   -0.25481E-04  6480   0.334E-04-0.100E-04
CGA:  15    -0.424445251531E+03   -0.53747E-05   -0.60632E-05  6480   0.110E-04 0.874E-05
  36 F= -.42444525E+03 E0= -.42444525E+03  d E =0.435443E-02  mag=    18.0000
       N       E                     dE             d eps       ncg     rms          ort
SDA:   1    -0.416386241942E+03    0.80590E+01    0.00000E+00  6480   0.195E+02 0.000E+00
CGA:   2    -0.422633642715E+03   -0.62474E+01   -0.62468E+01  6480   0.859E+01 0.617E-02
CGA:   3    -0.424003396092E+03   -0.13698E+01   -0.13712E+01  6480   0.193E+01 0.661E-02
CGA:   4    -0.424343279548E+03   -0.33988E+00   -0.33990E+00  6480   0.414E+00 0.202E-03
CGA:   5    -0.424418278802E+03   -0.74999E-01   -0.75037E-01  6480   0.112E+00 0.312E-03
CGA:   6    -0.424441585211E+03   -0.23306E-01   -0.23312E-01  6480   0.319E-01 0.540E-04
CGA:   7    -0.424449161421E+03   -0.75762E-02   -0.75733E-02  6480   0.119E-01-0.116E-03
CGA:   8    -0.424452565094E+03   -0.34037E-02   -0.34063E-02  6480   0.544E-02-0.110E-03
CGA:   9    -0.424454294181E+03   -0.17291E-02   -0.17430E-02  6480   0.232E-02-0.237E-03
CGA:  10    -0.424454973537E+03   -0.67936E-03   -0.68606E-03  6480   0.855E-03-0.163E-03
CGA:  11    -0.424455212804E+03   -0.23927E-03   -0.23984E-03  6480   0.311E-03-0.182E-04
CGA:  12    -0.424455329482E+03   -0.11668E-03   -0.11905E-03  6480   0.178E-03-0.200E-04
CGA:  13    -0.424455398627E+03   -0.69145E-04   -0.68587E-04  6480   0.943E-04 0.389E-05
CGA:  14    -0.424455430087E+03   -0.31459E-04   -0.30870E-04  6480   0.327E-04 0.159E-04
CGA:  15    -0.424455444683E+03   -0.14596E-04   -0.14915E-04  6480   0.133E-04-0.310E-05
CGA:  16    -0.424455447328E+03   -0.26453E-05   -0.28655E-05  6480   0.482E-05 0.418E-05
  37 F= -.42445545E+03 E0= -.42445545E+03  d E =-.101958E-01  mag=    18.0000
       N       E                     dE             d eps       ncg     rms          ort
SDA:   1    -0.421243309817E+03    0.32121E+01    0.00000E+00  6480   0.797E+01 0.000E+00
CGA:   2    -0.423529988673E+03   -0.22867E+01   -0.22867E+01  6480   0.404E+01-0.119E-02
CGA:   3    -0.424199738239E+03   -0.66975E+00   -0.67009E+00  6480   0.865E+00 0.105E-02
CGA:   4    -0.424357118513E+03   -0.15738E+00   -0.15734E+00  6480   0.202E+00-0.838E-03
CGA:   5    -0.424392779477E+03   -0.35661E-01   -0.35665E-01  6480   0.508E-01-0.102E-04
CGA:   6    -0.424403442162E+03   -0.10663E-01   -0.10688E-01  6480   0.153E-01 0.448E-03
CGA:   7    -0.424406971787E+03   -0.35296E-02   -0.35371E-02  6480   0.516E-02 0.223E-03
CGA:   8    -0.424408442100E+03   -0.14703E-02   -0.14714E-02  6480   0.221E-02-0.557E-04
CGA:   9    -0.424409102483E+03   -0.66038E-03   -0.66205E-03  6480   0.850E-03-0.406E-04
CGA:  10    -0.424409344483E+03   -0.24200E-03   -0.24177E-03  6480   0.286E-03 0.878E-05
CGA:  11    -0.424409431642E+03   -0.87159E-04   -0.86952E-04  6480   0.104E-03 0.573E-05
CGA:  12    -0.424409464309E+03   -0.32667E-04   -0.32034E-04  6480   0.449E-04 0.179E-04
CGA:  13    -0.424409487739E+03   -0.23430E-04   -0.25102E-04  6480   0.411E-04-0.813E-05
CGA:  14    -0.424409500415E+03   -0.12676E-04   -0.13282E-04  6480   0.234E-04-0.534E-05
CGA:  15    -0.424409504303E+03   -0.38876E-05   -0.42848E-05  6480   0.938E-05 0.530E-05
  38 F= -.42440950E+03 E0= -.42440950E+03  d E =0.459430E-01  mag=    18.0000
       N       E                     dE             d eps       ncg     rms          ort
SDA:   1    -0.422199160936E+03    0.22103E+01    0.00000E+00  6480   0.551E+01 0.000E+00
CGA:   2    -0.423904106657E+03   -0.17049E+01   -0.17048E+01  6480   0.260E+01 0.231E-02
CGA:   3    -0.424324520573E+03   -0.42041E+00   -0.42047E+00  6480   0.566E+00 0.599E-03
CGA:   4    -0.424427405890E+03   -0.10289E+00   -0.10291E+00  6480   0.127E+00 0.524E-03
CGA:   5    -0.424450044519E+03   -0.22639E-01   -0.22649E-01  6480   0.338E-01 0.877E-04
CGA:   6    -0.424457271948E+03   -0.72274E-02   -0.72203E-02  6480   0.102E-01-0.144E-03
CGA:   7    -0.424459653995E+03   -0.23820E-02   -0.23801E-02  6480   0.366E-02-0.697E-04
CGA:   8    -0.424460628762E+03   -0.97477E-03   -0.97420E-03  6480   0.146E-02 0.902E-04
CGA:   9    -0.424461068902E+03   -0.44014E-03   -0.43821E-03  6480   0.534E-03 0.627E-04
CGA:  10    -0.424461241572E+03   -0.17267E-03   -0.17367E-03  6480   0.205E-03-0.208E-04
CGA:  11    -0.424461300641E+03   -0.59069E-04   -0.59166E-04  6480   0.742E-04-0.284E-05
CGA:  12    -0.424461330045E+03   -0.29404E-04   -0.34031E-04  6480   0.604E-04-0.235E-04
CGA:  13    -0.424461345311E+03   -0.15266E-04   -0.15605E-04  6480   0.327E-04-0.343E-05
CGA:  14    -0.424461356131E+03   -0.10820E-04   -0.11085E-04  6480   0.150E-04-0.347E-05
CGA:  15    -0.424461361073E+03   -0.49420E-05   -0.52939E-05  6480   0.696E-05-0.323E-05
  39 F= -.42446136E+03 E0= -.42446136E+03  d E =-.518568E-01  mag=    18.0000
       N       E                     dE             d eps       ncg     rms          ort
SDA:   1    -0.424353187780E+03    0.10817E+00    0.00000E+00  6480   0.269E+00 0.000E+00
CGA:   2    -0.424436771033E+03   -0.83583E-01   -0.83577E-01  6480   0.122E+00 0.181E-03
CGA:   3    -0.424456543665E+03   -0.19773E-01   -0.19836E-01  6480   0.275E-01 0.464E-03
CGA:   4    -0.424461298649E+03   -0.47550E-02   -0.47549E-02  6480   0.573E-02-0.840E-05
CGA:   5    -0.424462355876E+03   -0.10572E-02   -0.10545E-02  6480   0.155E-02-0.308E-04
CGA:   6    -0.424462654383E+03   -0.29851E-03   -0.30205E-03  6480   0.399E-03 0.468E-04
CGA:   7    -0.424462739302E+03   -0.84919E-04   -0.87280E-04  6480   0.127E-03 0.424E-04
CGA:   8    -0.424462780704E+03   -0.41402E-04   -0.41300E-04  6480   0.656E-04 0.342E-05
CGA:   9    -0.424462799925E+03   -0.19221E-04   -0.19084E-04  6480   0.277E-04 0.808E-05
CGA:  10    -0.424462804862E+03   -0.49375E-05   -0.58955E-05  6480   0.101E-04 0.123E-04
  40 F= -.42446280E+03 E0= -.42446280E+03  d E =-.144379E-02  mag=    18.0000
       N       E                     dE             d eps       ncg     rms          ort
SDA:   1    -0.423984392803E+03    0.47841E+00    0.00000E+00  6480   0.128E+01 0.000E+00
CGA:   2    -0.424314596989E+03   -0.33020E+00   -0.33021E+00  6480   0.677E+00-0.227E-03
CGA:   3    -0.424432046330E+03   -0.11745E+00   -0.11760E+00  6480   0.156E+00 0.158E-02
CGA:   4    -0.424458314855E+03   -0.26269E-01   -0.26323E-01  6480   0.320E-01 0.570E-03
CGA:   5    -0.424464127008E+03   -0.58122E-02   -0.58170E-02  6480   0.821E-02 0.606E-04
CGA:   6    -0.424465823978E+03   -0.16970E-02   -0.16997E-02  6480   0.236E-02 0.659E-04
CGA:   7    -0.424466348328E+03   -0.52435E-03   -0.52699E-03  6480   0.787E-03 0.112E-03
CGA:   8    -0.424466585135E+03   -0.23681E-03   -0.23533E-03  6480   0.378E-03 0.354E-04
CGA:   9    -0.424466712336E+03   -0.12720E-03   -0.12585E-03  6480   0.184E-03 0.186E-04
CGA:  10    -0.424466763493E+03   -0.51157E-04   -0.50668E-04  6480   0.675E-04 0.366E-04
CGA:  11    -0.424466787895E+03   -0.24402E-04   -0.23888E-04  6480   0.313E-04 0.115E-04
CGA:  12    -0.424466799812E+03   -0.11916E-04   -0.26055E-04  6480   0.763E-04-0.308E-04
CGA:  13    -0.424466814521E+03   -0.14710E-04   -0.15468E-04  6480   0.947E-05 0.104E-04
CGA:  14    -0.424466821523E+03   -0.70017E-05    0.74350E-05  6480   0.257E-05 0.237E-05
  41 F= -.42446682E+03 E0= -.42446682E+03  d E =-.401666E-02  mag=    18.0000
       N       E                     dE             d eps       ncg     rms          ort
SDA:   1    -0.404719038290E+03    0.19748E+02    0.00000E+00  6480   0.548E+02 0.000E+00
CGA:   2    -0.417952112581E+03   -0.13233E+02   -0.13357E+02  6480   0.271E+02-0.913E-02
CGA:   3    -0.423004286787E+03   -0.50522E+01   -0.50591E+01  6480   0.620E+01 0.548E+00
CGA:   4    -0.424094230506E+03   -0.10899E+01   -0.10885E+01  6480   0.135E+01 0.467E-01
CGA:   5    -0.424341993024E+03   -0.24776E+00   -0.24845E+00  6480   0.359E+00 0.913E-03
CGA:   6    -0.424417699912E+03   -0.75707E-01   -0.75976E-01  6480   0.111E+00 0.965E-03
CGA:   7    -0.424443767454E+03   -0.26068E-01   -0.26182E-01  6480   0.412E-01 0.486E-03
CGA:   8    -0.424455673833E+03   -0.11906E-01   -0.11934E-01  6480   0.193E-01 0.176E-03
CGA:   9    -0.424461724739E+03   -0.60509E-02   -0.60562E-02  6480   0.838E-02 0.428E-04
CGA:  10    -0.424464319480E+03   -0.25947E-02   -0.25982E-02  6480   0.338E-02 0.289E-04
CGA:  11    -0.424465400870E+03   -0.10814E-02   -0.10893E-02  6480   0.148E-02 0.943E-04
CGA:  12    -0.424465989643E+03   -0.58877E-03   -0.58846E-03  6480   0.828E-03-0.287E-04
CGA:  13    -0.424466345478E+03   -0.35584E-03   -0.35974E-03  6480   0.476E-03-0.885E-04
CGA:  14    -0.424466501301E+03   -0.15582E-03   -0.15482E-03  6480   0.167E-03-0.284E-04
CGA:  15    -0.424466556855E+03   -0.55554E-04   -0.54912E-04  6480   0.520E-04-0.134E-04
CGA:  16    -0.424466577172E+03   -0.20317E-04   -0.20751E-04  6480   0.248E-04-0.115E-04
CGA:  17    -0.424466390812E+03    0.18636E-03   -0.10038E-03  6480   0.723E-03-0.110E-03
CGA:  18    -0.424466559562E+03   -0.16875E-03   -0.19025E-03  6480   0.764E-04 0.461E-04
CGA:  19    -0.424466604717E+03   -0.45156E-04   -0.40221E-04  6480   0.519E-04-0.237E-04
CGA:  20    -0.424466602053E+03    0.26638E-05   -0.55725E-05  6480   0.228E-04 0.153E-04
  42 F= -.42446660E+03 E0= -.42446660E+03  d E =0.219470E-03  mag=    18.0000
       N       E                     dE             d eps       ncg     rms          ort
SDA:   1    -0.421002991585E+03    0.34636E+01    0.00000E+00  6480   0.917E+01 0.000E+00
CGA:   2    -0.423387537955E+03   -0.23845E+01   -0.23880E+01  6480   0.482E+01 0.494E-02
CGA:   3    -0.424229305839E+03   -0.84177E+00   -0.84244E+00  6480   0.107E+01 0.366E-01
CGA:   4    -0.424414048286E+03   -0.18474E+00   -0.18430E+00  6480   0.234E+00 0.166E-02
CGA:   5    -0.424456909479E+03   -0.42861E-01   -0.42839E-01  6480   0.610E-01-0.116E-03
CGA:   6    -0.424469583332E+03   -0.12674E-01   -0.12644E-01  6480   0.180E-01-0.114E-03
CGA:   7    -0.424473796031E+03   -0.42127E-02   -0.41768E-02  6480   0.635E-02-0.123E-03
CGA:   8    -0.424475557468E+03   -0.17614E-02   -0.17693E-02  6480   0.281E-02 0.302E-04
CGA:   9    -0.424476452172E+03   -0.89470E-03   -0.88919E-03  6480   0.124E-02-0.290E-04
CGA:  10    -0.424476880143E+03   -0.42797E-03   -0.41023E-03  6480   0.563E-03-0.108E-03
CGA:  11    -0.424477042615E+03   -0.16247E-03   -0.16175E-03  6480   0.229E-03-0.447E-05
CGA:  12    -0.424477121965E+03   -0.79350E-04   -0.80085E-04  6480   0.110E-03 0.539E-05
CGA:  13    -0.424477158599E+03   -0.36634E-04   -0.38882E-04  6480   0.498E-04 0.167E-04
CGA:  14    -0.424477169886E+03   -0.11287E-04   -0.15104E-04  6480   0.178E-04 0.183E-04
CGA:  15    -0.424477177458E+03   -0.75724E-05   -0.79937E-05  6480   0.773E-05 0.317E-05
  43 F= -.42447718E+03 E0= -.42447718E+03  d E =-.105754E-01  mag=    18.0000
       N       E                     dE             d eps       ncg     rms          ort
SDA:   1    -0.421995939137E+03    0.24812E+01    0.00000E+00  6480   0.698E+01 0.000E+00
CGA:   2    -0.423597120702E+03   -0.16012E+01   -0.16039E+01  6480   0.359E+01 0.248E-02
CGA:   3    -0.424267976084E+03   -0.67086E+00   -0.67134E+00  6480   0.908E+00 0.464E-02
CGA:   4    -0.424422161643E+03   -0.15419E+00   -0.15386E+00  6480   0.192E+00-0.498E-03
CGA:   5    -0.424456864795E+03   -0.34703E-01   -0.34661E-01  6480   0.486E-01-0.280E-03
CGA:   6    -0.424466997618E+03   -0.10133E-01   -0.10142E-01  6480   0.147E-01 0.187E-04
CGA:   7    -0.424470458036E+03   -0.34604E-02   -0.34493E-02  6480   0.516E-02-0.719E-04
CGA:   8    -0.424471901005E+03   -0.14430E-02   -0.14460E-02  6480   0.229E-02 0.251E-04
CGA:   9    -0.424472629996E+03   -0.72899E-03   -0.72914E-03  6480   0.103E-02 0.140E-05
CGA:  10    -0.424472982486E+03   -0.35249E-03   -0.34951E-03  6480   0.487E-03-0.659E-04
CGA:  11    -0.424473132828E+03   -0.15034E-03   -0.15000E-03  6480   0.212E-03-0.678E-05
CGA:  12    -0.424473203061E+03   -0.70234E-04   -0.70713E-04  6480   0.935E-04 0.114E-04
CGA:  13    -0.424473231972E+03   -0.28910E-04   -0.30400E-04  6480   0.380E-04 0.215E-04
CGA:  14    -0.424473241960E+03   -0.99883E-05   -0.11913E-04  6480   0.143E-04 0.161E-04
  44 F= -.42447324E+03 E0= -.42447324E+03  d E =0.393550E-02  mag=    18.0000
       N       E                     dE             d eps       ncg     rms          ort
SDA:   1    -0.424142359069E+03    0.33087E+00    0.00000E+00  6480   0.931E+00 0.000E+00
CGA:   2    -0.424364059835E+03   -0.22170E+00   -0.22177E+00  6480   0.482E+00-0.337E-03
CGA:   3    -0.424451875560E+03   -0.87816E-01   -0.87990E-01  6480   0.120E+00 0.881E-03
CGA:   4    -0.424472057370E+03   -0.20182E-01   -0.20252E-01  6480   0.246E-01 0.349E-03
CGA:   5    -0.424476481883E+03   -0.44245E-02   -0.44451E-02  6480   0.623E-02 0.121E-03
CGA:   6    -0.424477756455E+03   -0.12746E-02   -0.12889E-02  6480   0.181E-02 0.112E-03
CGA:   7    -0.424478157175E+03   -0.40072E-03   -0.40998E-03  6480   0.598E-03 0.888E-04
CGA:   8    -0.424478336673E+03   -0.17950E-03   -0.17994E-03  6480   0.287E-03 0.127E-04
CGA:   9    -0.424478427829E+03   -0.91156E-04   -0.91237E-04  6480   0.133E-03 0.106E-04
CGA:  10    -0.424478458906E+03   -0.31077E-04   -0.33631E-04  6480   0.478E-04 0.336E-04
CGA:  11    -0.424478471717E+03   -0.12811E-04   -0.14213E-04  6480   0.212E-04 0.180E-04
CGA:  12    -0.424478483164E+03   -0.11448E-04   -0.11560E-04  6480   0.177E-04-0.137E-05
CGA:  13    -0.424478489778E+03   -0.66132E-05   -0.76443E-05  6480   0.154E-04-0.714E-05
CGA:  14    -0.424478455189E+03    0.34588E-04   -0.11957E-04  6480   0.115E-03-0.476E-04
CGA:  15    -0.424478482349E+03   -0.27159E-04   -0.28624E-04  6480   0.198E-04 0.120E-04
CGA:  16    -0.424478487495E+03   -0.51459E-05   -0.60242E-05  6480   0.107E-04 0.972E-05
  45 F= -.42447849E+03 E0= -.42447849E+03  d E =-.524553E-02  mag=    18.0000
       N       E                     dE             d eps       ncg     rms          ort
SDA:   1    -0.424276545927E+03    0.20194E+00    0.00000E+00  6480   0.535E+00 0.000E+00
CGA:   2    -0.424419860258E+03   -0.14331E+00   -0.14332E+00  6480   0.274E+00-0.254E-03
CGA:   3    -0.424467169395E+03   -0.47309E-01   -0.47380E-01  6480   0.632E-01 0.330E-03
CGA:   4    -0.424477827302E+03   -0.10658E-01   -0.10698E-01  6480   0.131E-01 0.199E-03
CGA:   5    -0.424480200552E+03   -0.23733E-02   -0.23818E-02  6480   0.331E-02 0.497E-04
CGA:   6    -0.424480890246E+03   -0.68969E-03   -0.69179E-03  6480   0.952E-03 0.158E-04
CGA:   7    -0.424481102668E+03   -0.21242E-03   -0.21546E-03  6480   0.318E-03 0.296E-04
CGA:   8    -0.424481195678E+03   -0.93010E-04   -0.93266E-04  6480   0.146E-03 0.676E-05
CGA:   9    -0.424481240923E+03   -0.45245E-04   -0.45388E-04  6480   0.623E-04 0.916E-05
CGA:  10    -0.424481256565E+03   -0.15643E-04   -0.16637E-04  6480   0.217E-04 0.147E-04
CGA:  11    -0.424481263670E+03   -0.71044E-05   -0.73413E-05  6480   0.988E-05 0.565E-05
  46 F= -.42448126E+03 E0= -.42448126E+03  d E =-.277618E-02  mag=    18.0000
       N       E                     dE             d eps       ncg     rms          ort
SDA:   1    -0.424315957814E+03    0.16530E+00    0.00000E+00  6480   0.423E+00 0.000E+00
CGA:   2    -0.424441647201E+03   -0.12569E+00   -0.12568E+00  6480   0.182E+00-0.514E-03
CGA:   3    -0.424473897494E+03   -0.32250E-01   -0.32323E-01  6480   0.442E-01 0.452E-03
CGA:   4    -0.424481212285E+03   -0.73148E-02   -0.73504E-02  6480   0.883E-02 0.220E-03
CGA:   5    -0.424482845826E+03   -0.16335E-02   -0.16392E-02  6480   0.247E-02 0.443E-04
CGA:   6    -0.424483341862E+03   -0.49604E-03   -0.49761E-03  6480   0.715E-03 0.147E-04
CGA:   7    -0.424483502968E+03   -0.16111E-03   -0.16299E-03  6480   0.260E-03 0.265E-04
CGA:   8    -0.424483579847E+03   -0.76878E-04   -0.76983E-04  6480   0.129E-03 0.129E-04
CGA:   9    -0.424483620020E+03   -0.40173E-04   -0.40111E-04  6480   0.567E-04 0.164E-04
CGA:  10    -0.424483634189E+03   -0.14169E-04   -0.15197E-04  6480   0.211E-04 0.184E-04
CGA:  11    -0.424483642469E+03   -0.82797E-05   -0.82594E-05  6480   0.112E-04 0.464E-05
CGA:  12    -0.424483625236E+03    0.17233E-04   -0.18761E-04  6480   0.127E-03-0.333E-04
CGA:  13    -0.424483646543E+03   -0.21307E-04   -0.24406E-04  6480   0.154E-04 0.202E-04
CGA:  14    -0.424483648314E+03   -0.17715E-05   -0.15170E-04  6480   0.515E-04-0.261E-04
  47 F= -.42448365E+03 E0= -.42448365E+03  d E =-.238464E-02  mag=    18.0000
       N       E                     dE             d eps       ncg     rms          ort
SDA:   1    -0.424215156529E+03    0.26849E+00    0.00000E+00  6480   0.692E+00 0.000E+00
CGA:   2    -0.424415682028E+03   -0.20053E+00   -0.20051E+00  6480   0.306E+00-0.494E-03
CGA:   3    -0.424469868086E+03   -0.54186E-01   -0.54245E-01  6480   0.742E-01 0.257E-03
CGA:   4    -0.424482354953E+03   -0.12487E-01   -0.12520E-01  6480   0.152E-01 0.167E-03
CGA:   5    -0.424485084777E+03   -0.27298E-02   -0.27401E-02  6480   0.419E-02 0.642E-04
CGA:   6    -0.424485929951E+03   -0.84517E-03   -0.85050E-03  6480   0.119E-02 0.418E-04
CGA:   7    -0.424486211200E+03   -0.28125E-03   -0.28252E-03  6480   0.455E-03 0.146E-04
CGA:   8    -0.424486337850E+03   -0.12665E-03   -0.12758E-03  6480   0.214E-03 0.242E-04
CGA:   9    -0.424486399924E+03   -0.62075E-04   -0.63250E-04  6480   0.886E-04 0.361E-04
CGA:  10    -0.424486428411E+03   -0.28487E-04   -0.29060E-04  6480   0.372E-04 0.184E-04
CGA:  11    -0.424486445120E+03   -0.16709E-04   -0.16806E-04  6480   0.239E-04-0.158E-05
CGA:  12    -0.424486454200E+03   -0.90805E-05   -0.93975E-05  6480   0.152E-04-0.331E-05
  48 F= -.42448645E+03 E0= -.42448645E+03  d E =-.280589E-02  mag=    18.0000
       N       E                     dE             d eps       ncg     rms          ort
SDA:   1    -0.424111347642E+03    0.37510E+00    0.00000E+00  6480   0.956E+00 0.000E+00
CGA:   2    -0.424385974497E+03   -0.27463E+00   -0.27465E+00  6480   0.458E+00 0.375E-03
CGA:   3    -0.424464059068E+03   -0.78085E-01   -0.78023E-01  6480   0.108E+00-0.576E-03
CGA:   4    -0.424482387990E+03   -0.18329E-01   -0.18334E-01  6480   0.225E-01 0.237E-04
CGA:   5    -0.424486450720E+03   -0.40627E-02   -0.40926E-02  6480   0.590E-02 0.242E-03
CGA:   6    -0.424487654385E+03   -0.12037E-02   -0.12153E-02  6480   0.167E-02 0.123E-03
CGA:   7    -0.424488077234E+03   -0.42285E-03   -0.42068E-03  6480   0.682E-03-0.482E-04
CGA:   8    -0.424488261875E+03   -0.18464E-03   -0.18484E-03  6480   0.315E-03 0.186E-04
CGA:   9    -0.424488342230E+03   -0.80355E-04   -0.82625E-04  6480   0.118E-03 0.671E-04
CGA:  10    -0.424488381683E+03   -0.39453E-04   -0.39694E-04  6480   0.527E-04 0.259E-04
CGA:  11    -0.424488405789E+03   -0.24106E-04   -0.24442E-04  6480   0.359E-04-0.370E-05
CGA:  12    -0.424488415284E+03   -0.94951E-05   -0.95322E-05  6480   0.171E-04 0.566E-05
  49 F= -.42448842E+03 E0= -.42448842E+03  d E =-.196108E-02  mag=    18.0000
       N       E                     dE             d eps       ncg     rms          ort
SDA:   1    -0.424450191737E+03    0.38214E-01    0.00000E+00  6480   0.107E+00 0.000E+00
CGA:   2    -0.424475518468E+03   -0.25327E-01   -0.25333E-01  6480   0.550E-01 0.635E-04
CGA:   3    -0.424485657814E+03   -0.10139E-01   -0.10136E-01  6480   0.134E-01-0.519E-04
CGA:   4    -0.424488007956E+03   -0.23501E-02   -0.23483E-02  6480   0.326E-02-0.197E-04
CGA:   5    -0.424488580844E+03   -0.57289E-03   -0.57592E-03  6480   0.775E-03 0.289E-04
CGA:   6    -0.424488738379E+03   -0.15753E-03   -0.15910E-03  6480   0.238E-03 0.223E-04
CGA:   7    -0.424488794401E+03   -0.56023E-04   -0.56314E-04  6480   0.829E-04 0.722E-05
CGA:   8    -0.424488821706E+03   -0.27304E-04   -0.28433E-04  6480   0.514E-04-0.174E-04
CGA:   9    -0.424488834918E+03   -0.13212E-04   -0.15059E-04  6480   0.328E-04-0.186E-04
CGA:  10    -0.424488840129E+03   -0.52115E-05   -0.51545E-05  6480   0.120E-04-0.192E-05
  50 F= -.42448884E+03 E0= -.42448884E+03  d E =-.424845E-03  mag=    18.0000
       N       E                     dE             d eps       ncg     rms          ort
SDA:   1    -0.424445953868E+03    0.42881E-01    0.00000E+00  6480   0.111E+00 0.000E+00
CGA:   2    -0.424478465641E+03   -0.32512E-01   -0.32517E-01  6480   0.519E-01-0.272E-03
CGA:   3    -0.424487240904E+03   -0.87753E-02   -0.88092E-02  6480   0.120E-01 0.327E-03
CGA:   4    -0.424489286725E+03   -0.20458E-02   -0.20587E-02  6480   0.253E-02 0.133E-03
CGA:   5    -0.424489746743E+03   -0.46002E-03   -0.46024E-03  6480   0.695E-03 0.224E-05
CGA:   6    -0.424489891126E+03   -0.14438E-03   -0.14381E-03  6480   0.204E-03-0.119E-04
CGA:   7    -0.424489932929E+03   -0.41803E-04   -0.42485E-04  6480   0.660E-04 0.162E-04
CGA:   8    -0.424489949379E+03   -0.16450E-04   -0.16699E-04  6480   0.263E-04 0.145E-04
CGA:   9    -0.424489958435E+03   -0.90566E-05   -0.88834E-05  6480   0.133E-04 0.653E-05
  51 F= -.42448996E+03 E0= -.42448996E+03  d E =-.111831E-02  mag=    18.0000
       N       E                     dE             d eps       ncg     rms          ort
SDA:   1    -0.424426616402E+03    0.63333E-01    0.00000E+00  6480   0.172E+00 0.000E+00
CGA:   2    -0.424469143533E+03   -0.42527E-01   -0.42528E-01  6480   0.946E-01 0.193E-03
CGA:   3    -0.424485774140E+03   -0.16631E-01   -0.16656E-01  6480   0.208E-01 0.316E-03
CGA:   4    -0.424489409538E+03   -0.36354E-02   -0.36446E-02  6480   0.457E-02 0.124E-03
CGA:   5    -0.424490201606E+03   -0.79207E-03   -0.79424E-03  6480   0.117E-02 0.298E-04
CGA:   6    -0.424490449872E+03   -0.24827E-03   -0.24829E-03  6480   0.347E-03 0.605E-06
CGA:   7    -0.424490523308E+03   -0.73436E-04   -0.74014E-04  6480   0.111E-03 0.234E-04
CGA:   8    -0.424490548295E+03   -0.24987E-04   -0.25656E-04  6480   0.420E-04 0.320E-04
CGA:   9    -0.424490559661E+03   -0.11366E-04   -0.11722E-04  6480   0.203E-04 0.193E-04
CGA:  10    -0.424490566236E+03   -0.65741E-05   -0.66735E-05  6480   0.103E-04 0.108E-04
  52 F= -.42449057E+03 E0= -.42449057E+03  d E =-.607800E-03  mag=    18.0000
       N       E                     dE             d eps       ncg     rms          ort
SDA:   1    -0.424066101235E+03    0.42446E+00    0.00000E+00  6480   0.109E+01 0.000E+00
CGA:   2    -0.424366594044E+03   -0.30049E+00   -0.30047E+00  6480   0.575E+00 0.279E-03
CGA:   3    -0.424462236353E+03   -0.95642E-01   -0.95675E-01  6480   0.122E+00 0.354E-03
CGA:   4    -0.424483934787E+03   -0.21698E-01   -0.21720E-01  6480   0.262E-01 0.363E-03
CGA:   5    -0.424488501295E+03   -0.45665E-02   -0.45788E-02  6480   0.675E-02 0.207E-03
CGA:   6    -0.424489932569E+03   -0.14313E-02   -0.14325E-02  6480   0.191E-02 0.651E-04
CGA:   7    -0.424490374968E+03   -0.44240E-03   -0.44235E-03  6480   0.683E-03 0.256E-04
CGA:   8    -0.424490557096E+03   -0.18213E-03   -0.17968E-03  6480   0.279E-03 0.768E-04
CGA:   9    -0.424490642001E+03   -0.84905E-04   -0.82446E-04  6480   0.114E-03 0.680E-04
CGA:  10    -0.424490682714E+03   -0.40713E-04   -0.39374E-04  6480   0.514E-04 0.288E-04
CGA:  11    -0.424490702063E+03   -0.19349E-04   -0.18598E-04  6480   0.236E-04 0.135E-04
CGA:  12    -0.424490712121E+03   -0.10058E-04   -0.95877E-05  6480   0.126E-04 0.548E-05
CGA:  13    -0.424490718343E+03   -0.62225E-05   -0.62960E-05  6480   0.815E-05-0.477E-06
  53 F= -.42449072E+03 E0= -.42449072E+03  d E =-.152108E-03  mag=    18.0000
       N       E                     dE             d eps       ncg     rms          ort
SDA:   1    -0.424237824643E+03    0.25289E+00    0.00000E+00  6480   0.618E+00 0.000E+00
CGA:   2    -0.424439399621E+03   -0.20157E+00   -0.20161E+00  6480   0.231E+00-0.543E-03
CGA:   3    -0.424480040034E+03   -0.40640E-01   -0.40684E-01  6480   0.590E-01 0.506E-03
CGA:   4    -0.424489652300E+03   -0.96123E-02   -0.96345E-02  6480   0.115E-01 0.238E-03
CGA:   5    -0.424491830166E+03   -0.21779E-02   -0.21838E-02  6480   0.321E-02 0.103E-03
CGA:   6    -0.424492473345E+03   -0.64318E-03   -0.64618E-03  6480   0.881E-03 0.676E-04
CGA:   7    -0.424492688313E+03   -0.21497E-03   -0.21499E-03  6480   0.336E-03 0.115E-04
CGA:   8    -0.424492790051E+03   -0.10174E-03   -0.10180E-03  6480   0.174E-03-0.113E-05
CGA:   9    -0.424492833837E+03   -0.43786E-04   -0.43496E-04  6480   0.625E-04 0.383E-04
CGA:  10    -0.424492849703E+03   -0.15865E-04   -0.16551E-04  6480   0.243E-04 0.253E-04
CGA:  11    -0.424492860495E+03   -0.10792E-04   -0.10523E-04  6480   0.146E-04 0.411E-05
CGA:  12    -0.424492866846E+03   -0.63507E-05   -0.10941E-04  6480   0.265E-04-0.116E-04
  54 F= -.42449287E+03 E0= -.42449287E+03  d E =-.214850E-02  mag=    18.0000
       N       E                     dE             d eps       ncg     rms          ort
SDA:   1    -0.424443645985E+03    0.49215E-01    0.00000E+00  6480   0.158E+00 0.000E+00
CGA:   2    -0.424472403560E+03   -0.28758E-01   -0.28769E-01  6480   0.704E-01 0.588E-04
CGA:   3    -0.424487066227E+03   -0.14663E-01   -0.14671E-01  6480   0.220E-01 0.128E-03
CGA:   4    -0.424490938115E+03   -0.38719E-02   -0.38808E-02  6480   0.528E-02 0.102E-03
CGA:   5    -0.424491872198E+03   -0.93408E-03   -0.93559E-03  6480   0.131E-02 0.178E-04
[...]
CGA:   9    -0.424463417896E+03   -0.11250E-02   -0.11264E-02  6480   0.160E-02-0.169E-04
CGA:  10    -0.424463918689E+03   -0.50079E-03   -0.49904E-03  6480   0.622E-03 0.235E-04
CGA:  11    -0.424464118541E+03   -0.19985E-03   -0.19844E-03  6480   0.259E-03 0.201E-04
CGA:  12    -0.424464220786E+03   -0.10224E-03   -0.10239E-03  6480   0.139E-03-0.133E-05
CGA:  13    -0.424464269827E+03   -0.49041E-04   -0.47500E-04  6480   0.554E-04 0.175E-04
CGA:  14    -0.424464290997E+03   -0.21170E-04   -0.20774E-04  6480   0.186E-04 0.534E-05
CGA:  15    -0.424464298906E+03   -0.79091E-05   -0.82565E-05  6480   0.779E-05-0.250E-05
  66 F= -.42446430E+03 E0= -.42446430E+03  d E =0.200478E-01  mag=    18.0000
       N       E                     dE             d eps       ncg     rms          ort
SDA:   1    -0.421194701175E+03    0.32696E+01    0.00000E+00  6480   0.832E+01 0.000E+00
CGA:   2    -0.423602097220E+03   -0.24074E+01   -0.24072E+01  6480   0.376E+01 0.459E-02
CGA:   3    -0.424250628818E+03   -0.64853E+00   -0.64858E+00  6480   0.943E+00 0.824E-03
CGA:   4    -0.424411098871E+03   -0.16047E+00   -0.16056E+00  6480   0.183E+00 0.846E-03
CGA:   5    -0.424444396242E+03   -0.33297E-01   -0.33344E-01  6480   0.506E-01 0.572E-03
CGA:   6    -0.424455007954E+03   -0.10612E-01   -0.10624E-01  6480   0.146E-01 0.266E-03
CGA:   7    -0.424458432588E+03   -0.34246E-02   -0.34290E-02  6480   0.535E-02 0.229E-03
CGA:   8    -0.424459980496E+03   -0.15479E-02   -0.15414E-02  6480   0.250E-02 0.198E-03
CGA:   9    -0.424460778340E+03   -0.79784E-03   -0.78997E-03  6480   0.105E-02 0.149E-03
CGA:  10    -0.424461109245E+03   -0.33090E-03   -0.32697E-03  6480   0.402E-03 0.105E-03
CGA:  11    -0.424461256173E+03   -0.14693E-03   -0.14571E-03  6480   0.189E-03 0.165E-04
CGA:  12    -0.424461341204E+03   -0.85031E-04   -0.97771E-04  6480   0.172E-03-0.542E-04
CGA:  13    -0.424461383009E+03   -0.41805E-04   -0.42630E-04  6480   0.821E-04-0.111E-04
CGA:  14    -0.424461406300E+03   -0.23291E-04   -0.23415E-04  6480   0.320E-04-0.442E-05
CGA:  15    -0.424461416149E+03   -0.98487E-05   -0.10034E-04  6480   0.128E-04-0.347E-05
  67 F= -.42446142E+03 E0= -.42446142E+03  d E =0.288276E-02  mag=    18.0000
       N       E                     dE             d eps       ncg     rms          ort
SDA:   1    -0.418420578408E+03    0.60408E+01    0.00000E+00  6480   0.164E+02 0.000E+00
CGA:   2    -0.422798159040E+03   -0.43776E+01   -0.43780E+01  6480   0.659E+01 0.783E-02
CGA:   3    -0.424063719487E+03   -0.12656E+01   -0.12664E+01  6480   0.189E+01 0.566E-02
CGA:   4    -0.424374853807E+03   -0.31113E+00   -0.31121E+00  6480   0.345E+00-0.286E-03
CGA:   5    -0.424439091746E+03   -0.64238E-01   -0.64160E-01  6480   0.977E-01-0.102E-02
CGA:   6    -0.424459356625E+03   -0.20265E-01   -0.20262E-01  6480   0.297E-01-0.857E-04
CGA:   7    -0.424466573654E+03   -0.72170E-02   -0.72197E-02  6480   0.120E-01 0.122E-03
CGA:   8    -0.424470241203E+03   -0.36675E-02   -0.36743E-02  6480   0.648E-02-0.157E-03
CGA:   9    -0.424472359396E+03   -0.21182E-02   -0.21323E-02  6480   0.309E-02-0.207E-03
CGA:  10    -0.424473334814E+03   -0.97542E-03   -0.98723E-03  6480   0.132E-02-0.193E-03
CGA:  11    -0.424473743989E+03   -0.40917E-03   -0.41473E-03  6480   0.586E-03-0.873E-04
CGA:  12    -0.424473925616E+03   -0.18163E-03   -0.17900E-03  6480   0.245E-03 0.492E-04
CGA:  13    -0.424474027487E+03   -0.10187E-03   -0.10132E-03  6480   0.119E-03 0.509E-05
CGA:  14    -0.424474070856E+03   -0.43369E-04   -0.43115E-04  6480   0.419E-04 0.338E-05
CGA:  15    -0.424474079475E+03   -0.86191E-05   -0.95733E-05  6480   0.128E-04 0.150E-04
  68 F= -.42447408E+03 E0= -.42447408E+03  d E =-.126633E-01  mag=    18.0000
       N       E                     dE             d eps       ncg     rms          ort
SDA:   1    -0.415217778922E+03    0.92563E+01    0.00000E+00  6480   0.236E+02 0.000E+00
CGA:   2    -0.422149146019E+03   -0.69314E+01   -0.69310E+01  6480   0.984E+01 0.667E-02
CGA:   3    -0.423894757380E+03   -0.17456E+01   -0.17474E+01  6480   0.259E+01 0.528E-02
CGA:   4    -0.424326535870E+03   -0.43178E+00   -0.43196E+00  6480   0.492E+00 0.103E-02
CGA:   5    -0.424417492518E+03   -0.90957E-01   -0.90963E-01  6480   0.140E+00-0.735E-04
CGA:   6    -0.424446733386E+03   -0.29241E-01   -0.29257E-01  6480   0.415E-01 0.214E-03
CGA:   7    -0.424456708305E+03   -0.99749E-02   -0.99718E-02  6480   0.161E-01-0.150E-03
CGA:   8    -0.424461533241E+03   -0.48249E-02   -0.48375E-02  6480   0.822E-02-0.330E-03
CGA:   9    -0.424464106257E+03   -0.25730E-02   -0.25850E-02  6480   0.357E-02-0.215E-03
CGA:  10    -0.424465222683E+03   -0.11164E-02   -0.11306E-02  6480   0.146E-02-0.246E-03
CGA:  11    -0.424465669581E+03   -0.44690E-03   -0.45301E-03  6480   0.638E-03-0.968E-04
CGA:  12    -0.424465878117E+03   -0.20854E-03   -0.20598E-03  6480   0.294E-03 0.348E-04
CGA:  13    -0.424466003281E+03   -0.12516E-03   -0.12495E-03  6480   0.153E-03 0.134E-05
CGA:  14    -0.424466053319E+03   -0.50038E-04   -0.49219E-04  6480   0.492E-04 0.225E-04
CGA:  15    -0.424466068089E+03   -0.14770E-04   -0.15013E-04  6480   0.141E-04 0.130E-04
CGA:  16    -0.424466072656E+03   -0.45667E-05   -0.46701E-05  6480   0.512E-05 0.487E-05
  69 F= -.42446607E+03 E0= -.42446607E+03  d E =0.800682E-02  mag=    18.0000
       N       E                     dE             d eps       ncg     rms          ort
SDA:   1    -0.416265506021E+03    0.82006E+01    0.00000E+00  6480   0.217E+02 0.000E+00
CGA:   2    -0.422297299599E+03   -0.60318E+01   -0.60317E+01  6480   0.853E+01 0.237E-01
CGA:   3    -0.423941698683E+03   -0.16444E+01   -0.16438E+01  6480   0.241E+01-0.530E-02
CGA:   4    -0.424334457461E+03   -0.39276E+00   -0.39279E+00  6480   0.438E+00-0.162E-02
CGA:   5    -0.424417483747E+03   -0.83026E-01   -0.83074E-01  6480   0.126E+00 0.541E-03
CGA:   6    -0.424443518449E+03   -0.26035E-01   -0.26051E-01  6480   0.375E-01 0.257E-03
CGA:   7    -0.424452898928E+03   -0.93805E-02   -0.93796E-02  6480   0.154E-01-0.106E-03
CGA:   8    -0.424457556348E+03   -0.46574E-02   -0.46618E-02  6480   0.809E-02-0.105E-03
CGA:   9    -0.424460148213E+03   -0.25919E-02   -0.25937E-02  6480   0.358E-02-0.336E-04
CGA:  10    -0.424461282770E+03   -0.11346E-02   -0.11345E-02  6480   0.143E-02-0.105E-05
CGA:  11    -0.424461751191E+03   -0.46842E-03   -0.46832E-03  6480   0.631E-03 0.727E-06
CGA:  12    -0.424461994655E+03   -0.24346E-03   -0.24448E-03  6480   0.335E-03-0.924E-05
CGA:  13    -0.424462118204E+03   -0.12355E-03   -0.12176E-03  6480   0.138E-03 0.190E-04
CGA:  14    -0.424462169472E+03   -0.51268E-04   -0.50847E-04  6480   0.451E-04 0.614E-05
CGA:  15    -0.424462186361E+03   -0.16889E-04   -0.16946E-04  6480   0.146E-04-0.776E-06
CGA:  16    -0.424462190623E+03   -0.42625E-05   -0.42409E-05  6480   0.465E-05 0.315E-05
  70 F= -.42446219E+03 E0= -.42446219E+03  d E =0.388203E-02  mag=    18.0000
       N       E                     dE             d eps       ncg     rms          ort
SDA:   1    -0.405571898974E+03    0.18890E+02    0.00000E+00  6480   0.482E+02 0.000E+00
CGA:   2    -0.419575612165E+03   -0.14004E+02   -0.14003E+02  6480   0.205E+02 0.677E-01
CGA:   3    -0.423232759601E+03   -0.36571E+01   -0.36586E+01  6480   0.531E+01 0.220E-01
CGA:   4    -0.424122039936E+03   -0.88928E+00   -0.88995E+00  6480   0.103E+01 0.327E-02
CGA:   5    -0.424313855301E+03   -0.19182E+00   -0.19190E+00  6480   0.298E+00 0.631E-03
CGA:   6    -0.424377004498E+03   -0.63149E-01   -0.63165E-01  6480   0.905E-01 0.155E-03
CGA:   7    -0.424398894051E+03   -0.21890E-01   -0.21899E-01  6480   0.358E-01 0.310E-03
CGA:   8    -0.424409427716E+03   -0.10534E-01   -0.10528E-01  6480   0.173E-01 0.187E-03
CGA:   9    -0.424414836905E+03   -0.54092E-02   -0.54071E-02  6480   0.717E-02 0.405E-04
CGA:  10    -0.424417053995E+03   -0.22171E-02   -0.22180E-02  6480   0.275E-02-0.285E-04
CGA:  11    -0.424417976001E+03   -0.92201E-03   -0.93049E-03  6480   0.128E-02-0.126E-03
CGA:  12    -0.424418464677E+03   -0.48868E-03   -0.50212E-03  6480   0.750E-03-0.997E-04
CGA:  13    -0.424418743844E+03   -0.27917E-03   -0.28452E-03  6480   0.360E-03-0.423E-04
CGA:  14    -0.424418870783E+03   -0.12694E-03   -0.12941E-03  6480   0.127E-03-0.269E-04
CGA:  15    -0.424418904882E+03   -0.34100E-04   -0.34133E-04  6480   0.339E-04 0.157E-04
CGA:  16    -0.424418919745E+03   -0.14863E-04   -0.15958E-04  6480   0.182E-04-0.866E-05
CGA:  17    -0.424418924829E+03   -0.50833E-05   -0.51603E-05  6480   0.854E-05-0.933E-06
  71 F= -.42441892E+03 E0= -.42441892E+03  d E =0.432658E-01  mag=    18.0000
       N       E                     dE             d eps       ncg     rms          ort
SDA:   1    -0.418869199570E+03    0.55497E+01    0.00000E+00  6480   0.144E+02 0.000E+00
CGA:   2    -0.423069935135E+03   -0.42007E+01   -0.42009E+01  6480   0.559E+01 0.490E-02
CGA:   3    -0.424119066888E+03   -0.10491E+01   -0.10499E+01  6480   0.155E+01 0.361E-02
CGA:   4    -0.424374348899E+03   -0.25528E+00   -0.25529E+00  6480   0.295E+00-0.497E-03
CGA:   5    -0.424430007553E+03   -0.55659E-01   -0.55604E-01  6480   0.846E-01-0.629E-03
CGA:   6    -0.424447406082E+03   -0.17399E-01   -0.17410E-01  6480   0.253E-01 0.116E-03
CGA:   7    -0.424453590489E+03   -0.61844E-02   -0.61872E-02  6480   0.999E-02 0.724E-04
CGA:   8    -0.424456573773E+03   -0.29833E-02   -0.29861E-02  6480   0.511E-02-0.138E-03
CGA:   9    -0.424458191480E+03   -0.16177E-02   -0.16234E-02  6480   0.227E-02-0.133E-03
CGA:  10    -0.424458902795E+03   -0.71132E-03   -0.71793E-03  6480   0.938E-03-0.149E-03
CGA:  11    -0.424459191303E+03   -0.28851E-03   -0.29087E-03  6480   0.409E-03-0.485E-04
CGA:  12    -0.424459320626E+03   -0.12932E-03   -0.12744E-03  6480   0.178E-03 0.430E-04
CGA:  13    -0.424459397854E+03   -0.77229E-04   -0.76604E-04  6480   0.937E-04 0.595E-05
CGA:  14    -0.424459431000E+03   -0.33145E-04   -0.32681E-04  6480   0.324E-04 0.102E-04
CGA:  15    -0.424459438778E+03   -0.77787E-05   -0.84721E-05  6480   0.993E-05 0.118E-04
  72 F= -.42445944E+03 E0= -.42445944E+03  d E =-.405139E-01  mag=    18.0000
       N       E                     dE             d eps       ncg     rms          ort
SDA:   1    -0.417532314542E+03    0.69271E+01    0.00000E+00  6480   0.177E+02 0.000E+00
CGA:   2    -0.422727707729E+03   -0.51954E+01   -0.51953E+01  6480   0.736E+01-0.671E-03
CGA:   3    -0.424047679788E+03   -0.13200E+01   -0.13209E+01  6480   0.194E+01 0.200E-02
CGA:   4    -0.424370776578E+03   -0.32310E+00   -0.32315E+00  6480   0.369E+00-0.805E-04
CGA:   5    -0.424439022360E+03   -0.68246E-01   -0.68252E-01  6480   0.105E+00-0.287E-04
CGA:   6    -0.424460839618E+03   -0.21817E-01   -0.21846E-01  6480   0.310E-01 0.386E-03
CGA:   7    -0.424468350103E+03   -0.75105E-02   -0.75064E-02  6480   0.122E-01-0.156E-03
CGA:   8    -0.424472022457E+03   -0.36724E-02   -0.36885E-02  6480   0.638E-02-0.444E-03
CGA:   9    -0.424473985862E+03   -0.19634E-02   -0.19752E-02  6480   0.281E-02-0.232E-03
CGA:  10    -0.424474861388E+03   -0.87553E-03   -0.88697E-03  6480   0.117E-02-0.210E-03
CGA:  11    -0.424475219725E+03   -0.35834E-03   -0.36315E-03  6480   0.519E-03-0.802E-04
CGA:  12    -0.424475382300E+03   -0.16257E-03   -0.16021E-03  6480   0.226E-03 0.444E-04
CGA:  13    -0.424475480503E+03   -0.98203E-04   -0.98535E-04  6480   0.121E-03-0.300E-05
CGA:  14    -0.424475519557E+03   -0.39054E-04   -0.38541E-04  6480   0.400E-04 0.143E-04
CGA:  15    -0.424475529901E+03   -0.10344E-04   -0.10901E-04  6480   0.118E-04 0.124E-04
CGA:  16    -0.424475533552E+03   -0.36513E-05   -0.38143E-05  6480   0.431E-05 0.417E-05
  73 F= -.42447553E+03 E0= -.42447553E+03  d E =-.160948E-01  mag=    18.0000
       N       E                     dE             d eps       ncg     rms          ort
SDA:   1    -0.423426659014E+03    0.10489E+01    0.00000E+00  6480   0.273E+01 0.000E+00
CGA:   2    -0.424201898954E+03   -0.77524E+00   -0.77522E+00  6480   0.107E+01 0.248E-02
CGA:   3    -0.424404110283E+03   -0.20221E+00   -0.20211E+00  6480   0.303E+00-0.114E-02
CGA:   4    -0.424454330503E+03   -0.50220E-01   -0.50212E-01  6480   0.584E-01-0.256E-03
CGA:   5    -0.424465254266E+03   -0.10924E-01   -0.10937E-01  6480   0.164E-01 0.149E-03
CGA:   6    -0.424468657956E+03   -0.34037E-02   -0.34056E-02  6480   0.493E-02 0.282E-04
CGA:   7    -0.424469866574E+03   -0.12086E-02   -0.12089E-02  6480   0.194E-02 0.169E-04
CGA:   8    -0.424470422053E+03   -0.55548E-03   -0.55460E-03  6480   0.920E-03 0.359E-04
CGA:   9    -0.424470710719E+03   -0.28867E-03   -0.28720E-03  6480   0.384E-03 0.327E-04
CGA:  10    -0.424470829043E+03   -0.11832E-03   -0.11738E-03  6480   0.146E-03 0.307E-04
CGA:  11    -0.424470883493E+03   -0.54450E-04   -0.54546E-04  6480   0.748E-04-0.133E-05
CGA:  12    -0.424470915519E+03   -0.32026E-04   -0.37265E-04  6480   0.658E-04-0.226E-04
CGA:  13    -0.424470927976E+03   -0.12457E-04   -0.12511E-04  6480   0.283E-04 0.579E-05
CGA:  14    -0.424470934873E+03   -0.68969E-05   -0.71150E-05  6480   0.997E-05 0.435E-05
  74 F= -.42447093E+03 E0= -.42447093E+03  d E =0.459868E-02  mag=    18.0000
       N       E                     dE             d eps       ncg     rms          ort
SDA:   1    -0.423915354564E+03    0.55557E+00    0.00000E+00  6480   0.142E+01 0.000E+00
CGA:   2    -0.424338222520E+03   -0.42287E+00   -0.42284E+00  6480   0.584E+00 0.119E-02
CGA:   3    -0.424441355981E+03   -0.10313E+00   -0.10320E+00  6480   0.155E+00 0.505E-03
CGA:   4    -0.424468133526E+03   -0.26778E-01   -0.26816E-01  6480   0.315E-01 0.324E-03
CGA:   5    -0.424473946940E+03   -0.58134E-02   -0.58102E-02  6480   0.875E-02-0.451E-04
CGA:   6    -0.424475816239E+03   -0.18693E-02   -0.18626E-02  6480   0.276E-02-0.123E-03
CGA:   7    -0.424476445079E+03   -0.62884E-03   -0.63087E-03  6480   0.991E-03 0.593E-04
CGA:   8    -0.424476707509E+03   -0.26243E-03   -0.26284E-03  6480   0.399E-03 0.932E-04
CGA:   9    -0.424476841021E+03   -0.13351E-03   -0.13236E-03  6480   0.172E-03 0.294E-04
CGA:  10    -0.424476891095E+03   -0.50074E-04   -0.49957E-04  6480   0.626E-04 0.292E-04
CGA:  11    -0.424476911842E+03   -0.20747E-04   -0.20550E-04  6480   0.271E-04 0.133E-04
CGA:  12    -0.424476926177E+03   -0.14335E-04   -0.20163E-04  6480   0.461E-04-0.168E-04
CGA:  13    -0.424476932840E+03   -0.66633E-05   -0.80501E-05  6480   0.731E-05 0.127E-04
  75 F= -.42447693E+03 E0= -.42447693E+03  d E =-.599797E-02  mag=    18.0000
       N       E                     dE             d eps       ncg     rms          ort
SDA:   1    -0.424302001827E+03    0.17492E+00    0.00000E+00  6480   0.462E+00 0.000E+00
CGA:   2    -0.424435307730E+03   -0.13331E+00   -0.13331E+00  6480   0.172E+00-0.900E-03
CGA:   3    -0.424469080618E+03   -0.33773E-01   -0.33819E-01  6480   0.467E-01 0.495E-03
CGA:   4    -0.424476562566E+03   -0.74819E-02   -0.74865E-02  6480   0.834E-02 0.184E-04
CGA:   5    -0.424478197933E+03   -0.16354E-02   -0.16315E-02  6480   0.244E-02-0.526E-04
CGA:   6    -0.424478683996E+03   -0.48606E-03   -0.48691E-03  6480   0.716E-03 0.118E-04
CGA:   7    -0.424478867154E+03   -0.18316E-03   -0.18297E-03  6480   0.310E-03-0.193E-04
CGA:   8    -0.424478968331E+03   -0.10118E-03   -0.10487E-03  6480   0.211E-03-0.438E-04
CGA:   9    -0.424479024154E+03   -0.55823E-04   -0.56219E-04  6480   0.884E-04-0.953E-05
CGA:  10    -0.424479053639E+03   -0.29485E-04   -0.32077E-04  6480   0.499E-04-0.236E-04
CGA:  11    -0.424479066047E+03   -0.12408E-04   -0.13698E-04  6480   0.273E-04-0.130E-04
CGA:  12    -0.424479069496E+03   -0.34490E-05   -0.40139E-05  6480   0.118E-04 0.692E-05
  76 F= -.42447907E+03 E0= -.42447907E+03  d E =-.213666E-02  mag=    18.0000
       N       E                     dE             d eps       ncg     rms          ort
SDA:   1    -0.424425370096E+03    0.53696E-01    0.00000E+00  6480   0.149E+00 0.000E+00
CGA:   2    -0.424462905511E+03   -0.37535E-01   -0.37527E-01  6480   0.703E-01-0.515E-03
CGA:   3    -0.424475713947E+03   -0.12808E-01   -0.12803E-01  6480   0.187E-01-0.724E-04
CGA:   4    -0.424478965253E+03   -0.32513E-02   -0.32526E-02  6480   0.390E-02 0.780E-05
CGA:   5    -0.424479641865E+03   -0.67661E-03   -0.68082E-03  6480   0.100E-02 0.473E-04
CGA:   6    -0.424479847017E+03   -0.20515E-03   -0.20735E-03  6480   0.296E-03 0.418E-04
CGA:   7    -0.424479922910E+03   -0.75892E-04   -0.75843E-04  6480   0.119E-03-0.577E-05
CGA:   8    -0.424479962601E+03   -0.39691E-04   -0.46831E-04  6480   0.115E-03-0.482E-04
CGA:   9    -0.424479981233E+03   -0.18633E-04   -0.18969E-04  6480   0.551E-04-0.205E-04
CGA:  10    -0.424479989772E+03   -0.85385E-05   -0.89760E-05  6480   0.237E-04 0.680E-05
  77 F= -.42447999E+03 E0= -.42447999E+03  d E =-.920276E-03  mag=    18.0000
       N       E                     dE             d eps       ncg     rms          ort
SDA:   1    -0.424334611249E+03    0.14537E+00    0.00000E+00  6480   0.368E+00 0.000E+00
CGA:   2    -0.424444527880E+03   -0.10992E+00   -0.10987E+00  6480   0.136E+00 0.861E-03
CGA:   3    -0.424471106839E+03   -0.26579E-01   -0.26560E-01  6480   0.366E-01-0.321E-03
CGA:   4    -0.424476896778E+03   -0.57899E-02   -0.57942E-02  6480   0.660E-02 0.247E-04
CGA:   5    -0.424478170706E+03   -0.12739E-02   -0.12772E-02  6480   0.189E-02 0.570E-04
CGA:   6    -0.424478558401E+03   -0.38769E-03   -0.38776E-03  6480   0.554E-03 0.931E-06
CGA:   7    -0.424478690585E+03   -0.13218E-03   -0.13230E-03  6480   0.214E-03 0.184E-04
CGA:   8    -0.424478751970E+03   -0.61385E-04   -0.60622E-04  6480   0.101E-03 0.259E-04
CGA:   9    -0.424478787376E+03   -0.35406E-04   -0.34558E-04  6480   0.461E-04 0.143E-04
CGA:  10    -0.424478800506E+03   -0.13130E-04   -0.13124E-04  6480   0.171E-04 0.146E-04
CGA:  11    -0.424478806293E+03   -0.57876E-05   -0.57507E-05  6480   0.775E-05 0.642E-05
  78 F= -.42447881E+03 E0= -.42447881E+03  d E =0.118348E-02  mag=    18.0000
       N       E                     dE             d eps       ncg     rms          ort
SDA:   1    -0.424461097647E+03    0.17703E-01    0.00000E+00  6480   0.579E-01 0.000E+00
CGA:   2    -0.424472233315E+03   -0.11136E-01   -0.11136E-01  6480   0.249E-01-0.446E-05
CGA:   3    -0.424477164026E+03   -0.49307E-02   -0.49639E-02  6480   0.788E-02 0.475E-03
CGA:   4    -0.424478552232E+03   -0.13882E-02   -0.14131E-02  6480   0.193E-02 0.279E-03
CGA:   5    -0.424478903202E+03   -0.35097E-03   -0.35359E-03  6480   0.481E-03 0.307E-04
CGA:   6    -0.424479014616E+03   -0.11141E-03   -0.11031E-03  6480   0.173E-03-0.374E-04
CGA:   7    -0.424479051869E+03   -0.37253E-04   -0.37057E-04  6480   0.600E-04-0.893E-05
CGA:   8    -0.424479061326E+03   -0.94568E-05   -0.10490E-04  6480   0.176E-04 0.150E-04
  79 F= -.42447906E+03 E0= -.42447906E+03  d E =-.255032E-03  mag=    18.0000
       N       E                     dE             d eps       ncg     rms          ort
SDA:   1    -0.424466443764E+03    0.12608E-01    0.00000E+00  6480   0.357E-01 0.000E+00
CGA:   2    -0.424475957813E+03   -0.95140E-02   -0.95202E-02  6480   0.156E-01-0.284E-03
CGA:   3    -0.424478777239E+03   -0.28194E-02   -0.28114E-02  6480   0.439E-02-0.128E-03
CGA:   4    -0.424479533948E+03   -0.75671E-03   -0.75467E-03  6480   0.874E-03-0.313E-04
CGA:   5    -0.424479682020E+03   -0.14807E-03   -0.14863E-03  6480   0.233E-03 0.820E-05
CGA:   6    -0.424479728297E+03   -0.46277E-04   -0.46745E-04  6480   0.660E-04 0.126E-04
CGA:   7    -0.424479746028E+03   -0.17731E-04   -0.17789E-04  6480   0.288E-04-0.261E-05
CGA:   8    -0.424479736349E+03    0.96790E-05   -0.23149E-04  6480   0.184E-03-0.545E-04
CGA:   9    -0.424479764341E+03   -0.27991E-04   -0.28784E-04  6480   0.200E-04 0.727E-05
CGA:  10    -0.424479769357E+03   -0.50161E-05   -0.50477E-05  6480   0.454E-05 0.199E-05
  80 F= -.42447977E+03 E0= -.42447977E+03  d E =-.708031E-03  mag=    18.0000
