       N       E                     dE             d eps       ncg     rms          ort
DAV:   1     0.251568486819E+04    0.25157E+04   -0.13805E+05 10206   0.169E+03
DAV:   2    -0.163063136384E+03   -0.26787E+04   -0.24660E+04 10206   0.436E+02
DAV:   3    -0.479251674193E+03   -0.31619E+03   -0.31094E+03 10206   0.171E+02
DAV:   4    -0.491172672688E+03   -0.11921E+02   -0.11808E+02 10206   0.320E+01
DAV:   5    -0.491488452826E+03   -0.31578E+00   -0.31512E+00 10206   0.447E+00
SDA:   6    -0.184735795503E+03    0.30675E+03   -0.31512E+00 10206   0.102E+04 0.000E+00
CGA:   7    -0.272654751410E+03   -0.87919E+02   -0.10485E+03 10206   0.137E+04-0.346E+03
CGA:   8    -0.301144229709E+03   -0.28489E+02   -0.45416E+02 10206   0.436E+03-0.857E+02
CGA:   9    -0.325192647010E+03   -0.24048E+02   -0.19141E+02 10206   0.144E+03-0.284E+02
CGA:  10    -0.342273028236E+03   -0.17080E+02   -0.18552E+02 10206   0.104E+03 0.892E+01
CGA:  11    -0.350066198846E+03   -0.77932E+01   -0.62634E+01 10206   0.534E+02-0.222E+02
CGA:  12    -0.353132489465E+03   -0.30663E+01   -0.34776E+01 10206   0.686E+02-0.329E+01
CGA:  13    -0.355041767070E+03   -0.19093E+01   -0.37690E+01 10206   0.401E+02-0.173E+02
CGA:  14    -0.357086892646E+03   -0.20451E+01   -0.25623E+01 10206   0.146E+02-0.873E+00
CGA:  15    -0.358691765844E+03   -0.16049E+01   -0.16353E+01 10206   0.822E+01 0.116E+00
CGA:  16    -0.359492758395E+03   -0.80099E+00   -0.86721E+00 10206   0.277E+01 0.968E-01
CGA:  17    -0.360054089385E+03   -0.56133E+00   -0.56209E+00 10206   0.162E+01-0.265E-01
CGA:  18    -0.360316082456E+03   -0.26199E+00   -0.26220E+00 10206   0.798E+00-0.250E-01
CGA:  19    -0.360481628378E+03   -0.16555E+00   -0.16484E+00 10206   0.446E+00 0.103E-01
CGA:  20    -0.360554316248E+03   -0.72688E-01   -0.72668E-01 10206   0.207E+00 0.139E-01
CGA:  21    -0.360601875765E+03   -0.47560E-01   -0.47043E-01 10206   0.115E+00 0.101E-01
CGA:  22    -0.360622867293E+03   -0.20992E-01   -0.21000E-01 10206   0.573E-01-0.265E-03
CGA:  23    -0.360635969773E+03   -0.13102E-01   -0.13101E-01 10206   0.307E-01 0.228E-03
CGA:  24    -0.360642405832E+03   -0.64361E-02   -0.64312E-02 10206   0.210E-01 0.837E-03
CGA:  25    -0.360647013176E+03   -0.46073E-02   -0.48060E-02 10206   0.118E-01-0.355E-02
CGA:  26    -0.360647671759E+03   -0.65858E-03   -0.57687E-02 10206   0.298E-01-0.119E-01
CGA:  27    -0.360651548353E+03   -0.38766E-02   -0.40625E-02 10206   0.105E-01 0.362E-02
CGA:  28    -0.360654798845E+03   -0.32505E-02   -0.33511E-02 10206   0.323E-02-0.108E-02
CGA:  29    -0.360654790639E+03    0.82057E-05   -0.22546E-02 10206   0.105E-01-0.393E-02
CGA:  30    -0.360656795963E+03   -0.20053E-02   -0.19957E-02 10206   0.242E-02-0.285E-03
CGA:  31    -0.360657101998E+03   -0.30603E-03   -0.32865E-03 10206   0.900E-03 0.290E-03
CGA:  32    -0.360657654813E+03   -0.55281E-03    0.42134E-03 10206   0.231E-03 0.313E-03
CGA:  33    -0.360657950510E+03   -0.29570E-03    0.28717E-04 10206   0.324E-03 0.199E-05
CGA:  34    -0.360658295786E+03   -0.34528E-03    0.24927E-04 10206   0.233E-03 0.863E-04
CGA:  35    -0.360658471589E+03   -0.17580E-03    0.86319E-04 10206   0.474E-03-0.979E-04
CGA:  36    -0.360658939443E+03   -0.46785E-03    0.10236E-04 10206   0.979E-03-0.199E-03
CGA:  37    -0.360659870243E+03   -0.93080E-03    0.22352E-04 10206   0.168E-02-0.183E-02
CGA:  38    -0.360659979916E+03   -0.10967E-03   -0.16427E-03 10206   0.419E-03 0.458E-03
CGA:  39    -0.360660045993E+03   -0.66077E-04   -0.78161E-04 10206   0.213E-03 0.185E-03
CGA:  40    -0.360660071270E+03   -0.25277E-04   -0.36325E-04 10206   0.116E-03 0.122E-03
CGA:  41    -0.360660060498E+03    0.10771E-04   -0.50625E-05 10206   0.860E-04 0.989E-04
CGA:  42    -0.360660051895E+03    0.86031E-05   -0.34512E-05 10206   0.705E-04 0.774E-04
   1 F= -.36066005E+03 E0= -.36066005E+03  d E =-.360660E+03  mag=    16.0000
       N       E                     dE             d eps       ncg     rms          ort
SDA:   1    -0.360759725910E+03   -0.99665E-01    0.00000E+00 10206   0.157E-01 0.000E+00
CGA:   2    -0.360763297422E+03   -0.35715E-02   -0.35163E-02 10206   0.320E-02 0.127E-02
CGA:   3    -0.360764290972E+03   -0.99355E-03   -0.10409E-02 10206   0.197E-02-0.399E-03
CGA:   4    -0.360764413641E+03   -0.12267E-03   -0.16134E-03 10206   0.488E-03 0.407E-03
CGA:   5    -0.360764471633E+03   -0.57993E-04   -0.68128E-04 10206   0.236E-03 0.149E-03
CGA:   6    -0.360764534520E+03   -0.62886E-04   -0.77496E-04 10206   0.312E-03-0.204E-03
CGA:   7    -0.360764534227E+03    0.29286E-06   -0.19246E-04 10206   0.971E-04 0.160E-03
   2 F= -.36076453E+03 E0= -.36076453E+03  d E =-.104482E+00  mag=    16.0000
       N       E                     dE             d eps       ncg     rms          ort
SDA:   1    -0.356277857896E+03    0.44867E+01    0.00000E+00 10206   0.226E+02 0.000E+00
CGA:   2    -0.361968012628E+03   -0.56902E+01   -0.56987E+01 10206   0.514E+01-0.114E+00
CGA:   3    -0.363222679094E+03   -0.12547E+01   -0.12585E+01 10206   0.242E+01-0.513E-01
CGA:   4    -0.363540716769E+03   -0.31804E+00   -0.31982E+00 10206   0.702E+00-0.215E-01
CGA:   5    -0.363681493019E+03   -0.14078E+00   -0.14079E+00 10206   0.200E+00 0.220E-02
CGA:   6    -0.363729649822E+03   -0.48157E-01   -0.48353E-01 10206   0.105E+00-0.330E-02
CGA:   7    -0.363753467322E+03   -0.23818E-01   -0.23616E-01 10206   0.542E-01 0.437E-02
CGA:   8    -0.363765786571E+03   -0.12319E-01   -0.12469E-01 10206   0.327E-01-0.426E-02
CGA:   9    -0.363770930129E+03   -0.51436E-02   -0.51810E-02 10206   0.966E-02 0.265E-02
CGA:  10    -0.363773701536E+03   -0.27714E-02   -0.28096E-02 10206   0.381E-02-0.457E-03
CGA:  11    -0.363774777659E+03   -0.10761E-02   -0.10523E-02 10206   0.145E-02 0.237E-03
CGA:  12    -0.363775266284E+03   -0.48863E-03   -0.72034E-03 10206   0.283E-02-0.850E-03
CGA:  13    -0.363775407629E+03   -0.14134E-03   -0.23527E-03 10206   0.558E-03 0.754E-03
CGA:  14    -0.363775486539E+03   -0.78910E-04   -0.94287E-04 10206   0.278E-03 0.224E-03
CGA:  15    -0.363775525894E+03   -0.39356E-04   -0.14633E-03 10206   0.143E-02-0.602E-03
CGA:  16    -0.363775562639E+03   -0.36745E-04   -0.10009E-03 10206   0.259E-03 0.463E-03
CGA:  17    -0.363775570643E+03   -0.80035E-05   -0.26744E-04 10206   0.132E-03 0.153E-03
CGA:  18    -0.363775643782E+03   -0.73139E-04    0.30320E-04 10206   0.835E-04 0.315E-05
CGA:  19    -0.363775640000E+03    0.37815E-05   -0.45253E-05 10206   0.418E-04 0.587E-04
   3 F= -.36377564E+03 E0= -.36377564E+03  d E =-.301111E+01  mag=    16.0000
       N       E                     dE             d eps       ncg     rms          ort
SDA:   1    -0.352857999651E+03    0.10918E+02    0.00000E+00 10206   0.406E+02 0.000E+00
CGA:   2    -0.362532378912E+03   -0.96744E+01   -0.96716E+01 10206   0.110E+02-0.130E-01
CGA:   3    -0.364407242335E+03   -0.18749E+01   -0.18675E+01 10206   0.646E+01-0.229E+00
CGA:   4    -0.365395407531E+03   -0.98817E+00   -0.99265E+00 10206   0.112E+01 0.251E-01
CGA:   5    -0.365652239354E+03   -0.25683E+00   -0.25695E+00 10206   0.335E+00-0.191E-02
CGA:   6    -0.365729372991E+03   -0.77134E-01   -0.77017E-01 10206   0.158E+00 0.242E-02
CGA:   7    -0.365769488363E+03   -0.40115E-01   -0.40292E-01 10206   0.100E+00-0.285E-02
CGA:   8    -0.365787738718E+03   -0.18250E-01   -0.18261E-01 10206   0.461E-01 0.340E-02
CGA:   9    -0.365798650648E+03   -0.10912E-01   -0.10991E-01 10206   0.209E-01-0.190E-02
CGA:  10    -0.365802797721E+03   -0.41471E-02   -0.41215E-02 10206   0.716E-02 0.169E-02
CGA:  11    -0.365805086033E+03   -0.22883E-02   -0.24613E-02 10206   0.555E-02-0.137E-02
CGA:  12    -0.365805621344E+03   -0.53531E-03   -0.59710E-03 10206   0.242E-02 0.958E-03
CGA:  13    -0.365806210478E+03   -0.58913E-03   -0.58458E-03 10206   0.138E-02 0.390E-03
CGA:  14    -0.365806560687E+03   -0.35021E-03   -0.39701E-03 10206   0.223E-02-0.900E-03
CGA:  15    -0.365806641813E+03   -0.81125E-04   -0.16273E-03 10206   0.392E-03 0.658E-03
CGA:  16    -0.365806663233E+03   -0.21421E-04   -0.44942E-04 10206   0.235E-03 0.229E-03
CGA:  17    -0.365806768586E+03   -0.10535E-03    0.10726E-03 10206   0.184E-03 0.193E-04
CGA:  18    -0.365806773217E+03   -0.46307E-05   -0.17360E-04 10206   0.812E-04 0.128E-03
   4 F= -.36580677E+03 E0= -.36580677E+03  d E =-.203113E+01  mag=    16.0000
       N       E                     dE             d eps       ncg     rms          ort
SDA:   1    -0.358322153397E+03    0.74846E+01    0.00000E+00 10206   0.264E+02 0.000E+00
CGA:   2    -0.364418569705E+03   -0.60964E+01   -0.60924E+01 10206   0.684E+01 0.443E-01
CGA:   3    -0.365707538778E+03   -0.12890E+01   -0.12908E+01 10206   0.406E+01-0.803E-01
CGA:   4    -0.366288404742E+03   -0.58087E+00   -0.58303E+00 10206   0.734E+00-0.161E-01
CGA:   5    -0.366443303810E+03   -0.15490E+00   -0.15471E+00 10206   0.196E+00 0.603E-02
CGA:   6    -0.366487264982E+03   -0.43961E-01   -0.43916E-01 10206   0.861E-01 0.969E-03
CGA:   7    -0.366508205532E+03   -0.20941E-01   -0.20726E-01 10206   0.519E-01 0.365E-02
CGA:   8    -0.366520268586E+03   -0.12063E-01   -0.12220E-01 10206   0.351E-01-0.377E-02
CGA:   9    -0.366526609995E+03   -0.63414E-02   -0.63275E-02 10206   0.135E-01 0.153E-02
CGA:  10    -0.366530330990E+03   -0.37210E-02   -0.37874E-02 10206   0.551E-02-0.804E-03
CGA:  11    -0.366531711641E+03   -0.13807E-02   -0.13489E-02 10206   0.217E-02 0.449E-03
CGA:  12    -0.366532350126E+03   -0.63848E-03   -0.80970E-03 10206   0.376E-02-0.113E-02
CGA:  13    -0.366532541154E+03   -0.19103E-03   -0.29061E-03 10206   0.562E-03 0.816E-03
CGA:  14    -0.366532609559E+03   -0.68405E-04   -0.86192E-04 10206   0.376E-03 0.259E-03
CGA:  15    -0.366532734547E+03   -0.12499E-03   -0.15153E-03 10206   0.508E-03-0.313E-03
CGA:  16    -0.366532759311E+03   -0.24764E-04   -0.45841E-04 10206   0.148E-03 0.200E-03
CGA:  17    -0.366532793399E+03   -0.34088E-04   -0.34718E-04 10206   0.685E-04 0.286E-04
CGA:  18    -0.366532837645E+03   -0.44246E-04    0.17909E-04 10206   0.833E-04-0.258E-04
CGA:  19    -0.366532839544E+03   -0.18993E-05   -0.47735E-05 10206   0.848E-04 0.295E-04
   5 F= -.36653284E+03 E0= -.36653284E+03  d E =-.726066E+00  mag=    16.0000
       N       E                     dE             d eps       ncg     rms          ort
SDA:   1    -0.361259119488E+03    0.52737E+01    0.00000E+00 10206   0.174E+02 0.000E+00
CGA:   2    -0.365345578647E+03   -0.40865E+01   -0.40838E+01 10206   0.466E+01 0.279E-01
CGA:   3    -0.366295530359E+03   -0.94995E+00   -0.95111E+00 10206   0.267E+01-0.229E-01
CGA:   4    -0.366660721830E+03   -0.36519E+00   -0.36637E+00 10206   0.502E+00-0.204E-01
CGA:   5    -0.366762605708E+03   -0.10188E+00   -0.10176E+00 10206   0.130E+00 0.527E-02
CGA:   6    -0.366791346451E+03   -0.28741E-01   -0.28804E-01 10206   0.596E-01-0.161E-02
CGA:   7    -0.366804674265E+03   -0.13328E-01   -0.13195E-01 10206   0.344E-01 0.323E-02
CGA:   8    -0.366813129986E+03   -0.84557E-02   -0.85981E-02 10206   0.240E-01-0.277E-02
CGA:   9    -0.366817518496E+03   -0.43885E-02   -0.43717E-02 10206   0.934E-02 0.152E-02
CGA:  10    -0.366820174047E+03   -0.26556E-02   -0.27210E-02 10206   0.400E-02-0.757E-03
CGA:  11    -0.366821039610E+03   -0.86556E-03   -0.84807E-03 10206   0.161E-02 0.449E-03
CGA:  12    -0.366821495180E+03   -0.45557E-03   -0.56542E-03 10206   0.240E-02-0.908E-03
CGA:  13    -0.366821615042E+03   -0.11986E-03   -0.18849E-03 10206   0.397E-03 0.569E-03
CGA:  14    -0.366821666512E+03   -0.51469E-04   -0.62779E-04 10206   0.248E-03 0.171E-03
CGA:  15    -0.366821730184E+03   -0.63672E-04   -0.12051E-03 10206   0.717E-03-0.382E-03
CGA:  16    -0.366821760477E+03   -0.30293E-04   -0.58596E-04 10206   0.165E-03 0.244E-03
CGA:  17    -0.366821786121E+03   -0.25644E-04   -0.28960E-04 10206   0.711E-04 0.541E-04
CGA:  18    -0.366821831337E+03   -0.45215E-04    0.33609E-04 10206   0.598E-04-0.491E-04
CGA:  19    -0.366821827259E+03    0.40779E-05   -0.22874E-05 10206   0.314E-04 0.422E-04
   6 F= -.36682183E+03 E0= -.36682183E+03  d E =-.288988E+00  mag=    16.0000
       N       E                     dE             d eps       ncg     rms          ort
SDA:   1    -0.361147071816E+03    0.56748E+01    0.00000E+00 10206   0.159E+02 0.000E+00
CGA:   2    -0.365372357174E+03   -0.42253E+01   -0.42188E+01 10206   0.639E+01 0.537E-01
CGA:   3    -0.366392326152E+03   -0.10200E+01   -0.10152E+01 10206   0.284E+01-0.607E-01
CGA:   4    -0.366825344676E+03   -0.43302E+00   -0.43360E+00 10206   0.480E+00-0.506E-02
CGA:   5    -0.366916143695E+03   -0.90799E-01   -0.90729E-01 10206   0.130E+00 0.587E-02
CGA:   6    -0.366943794309E+03   -0.27651E-01   -0.27702E-01 10206   0.495E-01-0.164E-02
CGA:   7    -0.366953676247E+03   -0.98819E-02   -0.98246E-02 10206   0.264E-01 0.267E-02
CGA:   8    -0.366960185220E+03   -0.65090E-02   -0.66255E-02 10206   0.178E-01-0.205E-02
CGA:   9    -0.366963393006E+03   -0.32078E-02   -0.31906E-02 10206   0.756E-02 0.156E-02
CGA:  10    -0.366965693727E+03   -0.23007E-02   -0.23611E-02 10206   0.345E-02-0.582E-03
CGA:  11    -0.366966355380E+03   -0.66165E-03   -0.65088E-03 10206   0.131E-02 0.694E-03
CGA:  12    -0.366966765298E+03   -0.40992E-03   -0.43811E-03 10206   0.104E-02-0.318E-03
CGA:  13    -0.366966801926E+03   -0.36628E-04   -0.71405E-04 10206   0.524E-03 0.336E-03
CGA:  14    -0.366966830815E+03   -0.28889E-04   -0.59299E-04 10206   0.295E-03 0.294E-03
CGA:  15    -0.366965767659E+03    0.10632E-02   -0.57379E-03 10206   0.144E-01-0.143E-02
CGA:  16    -0.366966649739E+03   -0.88208E-03   -0.11405E-02 10206   0.928E-03 0.122E-02
CGA:  17    -0.366966812885E+03   -0.16315E-03   -0.18626E-03 10206   0.286E-03 0.168E-03
CGA:  18    -0.366966913226E+03   -0.10034E-03   -0.67142E-04 10206   0.362E-03-0.286E-03
CGA:  19    -0.366966898753E+03    0.14473E-04   -0.19642E-04 10206   0.583E-04 0.134E-03
CGA:  20    -0.366966889716E+03    0.90372E-05   -0.27301E-05 10206   0.239E-04 0.448E-04
   7 F= -.36696689E+03 E0= -.36696689E+03  d E =-.145062E+00  mag=    16.0000
       N       E                     dE             d eps       ncg     rms          ort
SDA:   1    -0.357008155375E+03    0.99587E+01    0.00000E+00 10206   0.246E+02 0.000E+00
CGA:   2    -0.364260226544E+03   -0.72521E+01   -0.72419E+01 10206   0.142E+02 0.245E+00
CGA:   3    -0.366173200333E+03   -0.19130E+01   -0.17741E+01 10206   0.334E+01 0.838E+00
CGA:   4    -0.366837664285E+03   -0.66446E+00   -0.66550E+00 10206   0.667E+00-0.438E-02
CGA:   5    -0.366966058725E+03   -0.12839E+00   -0.12853E+00 10206   0.183E+00 0.186E-02
CGA:   6    -0.367003839723E+03   -0.37781E-01   -0.37764E-01 10206   0.633E-01-0.343E-03
CGA:   7    -0.367017417600E+03   -0.13578E-01   -0.13505E-01 10206   0.275E-01-0.172E-02
CGA:   8    -0.367023527040E+03   -0.61094E-02   -0.61306E-02 10206   0.134E-01 0.884E-03
CGA:   9    -0.367026891020E+03   -0.33640E-02   -0.33471E-02 10206   0.101E-01-0.165E-02
CGA:  10    -0.367028373516E+03   -0.14825E-02   -0.15278E-02 10206   0.333E-02 0.592E-03
CGA:  11    -0.367029325458E+03   -0.95194E-03   -0.95809E-03 10206   0.155E-02-0.259E-03
CGA:  12    -0.367029738256E+03   -0.41280E-03   -0.46025E-03 10206   0.192E-02-0.656E-03
CGA:  13    -0.367029808282E+03   -0.70026E-04   -0.97754E-04 10206   0.892E-03 0.170E-03
CGA:  14    -0.367029863395E+03   -0.55113E-04   -0.85119E-04 10206   0.531E-03 0.192E-03
CGA:  15    -0.367029997853E+03   -0.13446E-03   -0.12924E-03 10206   0.439E-03-0.144E-03
CGA:  16    -0.367030067317E+03   -0.69463E-04   -0.80202E-04 10206   0.126E-02-0.696E-03
CGA:  17    -0.367030113151E+03   -0.45834E-04   -0.10070E-03 10206   0.230E-03 0.355E-03
CGA:  18    -0.367030133559E+03   -0.20409E-04   -0.32922E-04 10206   0.115E-03 0.108E-03
CGA:  19    -0.367030152528E+03   -0.18968E-04   -0.65392E-04 10206   0.412E-03-0.280E-03
CGA:  20    -0.367030165223E+03   -0.12695E-04   -0.34668E-04 10206   0.102E-03 0.151E-03
CGA:  21    -0.367030183453E+03   -0.18231E-04   -0.20164E-04 10206   0.448E-04 0.249E-04
CGA:  22    -0.367030228894E+03   -0.45441E-04    0.71134E-05 10206   0.499E-04-0.513E-04
CGA:  23    -0.367030224447E+03    0.44475E-05   -0.17478E-05 10206   0.232E-04 0.337E-04
   8 F= -.36703022E+03 E0= -.36703022E+03  d E =-.633347E-01  mag=    16.0000
       N       E                     dE             d eps       ncg     rms          ort
SDA:   1    -0.365836532137E+03    0.11937E+01    0.00000E+00 10206   0.321E+01 0.000E+00
CGA:   2    -0.366870999300E+03   -0.10345E+01   -0.10361E+01 10206   0.105E+01-0.134E-01
CGA:   3    -0.367053058527E+03   -0.18206E+00   -0.18233E+00 10206   0.383E+00 0.989E-02
CGA:   4    -0.367111505519E+03   -0.58447E-01   -0.58289E-01 10206   0.861E-01-0.423E-02
CGA:   5    -0.367125709003E+03   -0.14203E-01   -0.14314E-01 10206   0.225E-01 0.325E-02
CGA:   6    -0.367130832125E+03   -0.51231E-02   -0.51583E-02 10206   0.859E-02-0.175E-02
CGA:   7    -0.367132389485E+03   -0.15574E-02   -0.15597E-02 10206   0.338E-02 0.485E-03
CGA:   8    -0.367133282863E+03   -0.89338E-03   -0.92737E-03 10206   0.242E-02-0.591E-03
CGA:   9    -0.367133546917E+03   -0.26405E-03   -0.28651E-03 10206   0.864E-03 0.368E-03
CGA:  10    -0.367133736922E+03   -0.19000E-03   -0.19136E-03 10206   0.417E-03 0.146E-03
CGA:  11    -0.367133845777E+03   -0.10886E-03   -0.12348E-03 10206   0.646E-03-0.280E-03
CGA:  12    -0.367133864010E+03   -0.18233E-04   -0.44829E-04 10206   0.108E-03 0.199E-03
CGA:  13    -0.367133866381E+03   -0.23712E-05   -0.10468E-04 10206   0.598E-04 0.660E-04
CGA:  14    -0.367133895524E+03   -0.29143E-04    0.20527E-04 10206   0.395E-04 0.140E-04
CGA:  15    -0.367133896298E+03   -0.77333E-06   -0.41616E-05 10206   0.194E-04 0.321E-04
   9 F= -.36713390E+03 E0= -.36713390E+03  d E =-.103672E+00  mag=    16.0000
       N       E                     dE             d eps       ncg     rms          ort
SDA:   1    -0.365968173523E+03    0.11657E+01    0.00000E+00 10206   0.298E+01 0.000E+00
CGA:   2    -0.366927608386E+03   -0.95943E+00   -0.96144E+00 10206   0.101E+01-0.138E-01
CGA:   3    -0.367107010708E+03   -0.17940E+00   -0.17945E+00 10206   0.341E+00 0.612E-02
CGA:   4    -0.367157414217E+03   -0.50404E-01   -0.50453E-01 10206   0.742E-01 0.506E-03
CGA:   5    -0.367169758496E+03   -0.12344E-01   -0.12382E-01 10206   0.204E-01 0.223E-02
CGA:   6    -0.367174169042E+03   -0.44105E-02   -0.44536E-02 10206   0.750E-02-0.151E-02
CGA:   7    -0.367175416364E+03   -0.12473E-02   -0.12504E-02 10206   0.271E-02 0.703E-03
CGA:   8    -0.367176178471E+03   -0.76211E-03   -0.80973E-03 10206   0.204E-02-0.533E-03
CGA:   9    -0.367176359275E+03   -0.18080E-03   -0.21195E-03 10206   0.857E-03 0.523E-03
CGA:  10    -0.367176497916E+03   -0.13864E-03   -0.15221E-03 10206   0.431E-03 0.306E-03
CGA:  11    -0.367176626219E+03   -0.12830E-03   -0.13960E-03 10206   0.458E-03-0.206E-03
CGA:  12    -0.367176624122E+03    0.20968E-05   -0.13264E-04 10206   0.359E-03 0.117E-03
CGA:  13    -0.367176620158E+03    0.39635E-05   -0.23496E-04 10206   0.165E-03 0.215E-03
CGA:  14    -0.367176644692E+03   -0.24534E-04   -0.25793E-04 10206   0.425E-04 0.733E-04
CGA:  15    -0.367176658837E+03   -0.14145E-04   -0.13752E-04 10206   0.194E-04 0.761E-05
CGA:  16    -0.367176657332E+03    0.15053E-05   -0.10843E-05 10206   0.176E-04 0.203E-04
  10 F= -.36717666E+03 E0= -.36717666E+03  d E =-.427610E-01  mag=    16.0000
       N       E                     dE             d eps       ncg     rms          ort
SDA:   1    -0.363203282403E+03    0.39734E+01    0.00000E+00 10206   0.938E+01 0.000E+00
CGA:   2    -0.366447784351E+03   -0.32445E+01   -0.32498E+01 10206   0.387E+01-0.252E-01
CGA:   3    -0.366966456076E+03   -0.51867E+00   -0.51654E+00 10206   0.117E+01 0.110E-01
CGA:   4    -0.367157108912E+03   -0.19065E+00   -0.19070E+00 10206   0.213E+00-0.556E-03
CGA:   5    -0.367197289776E+03   -0.40181E-01   -0.40118E-01 10206   0.561E-01 0.351E-02
CGA:   6    -0.367209273999E+03   -0.11984E-01   -0.12119E-01 10206   0.197E-01-0.323E-02
CGA:   7    -0.367212682053E+03   -0.34081E-02   -0.34015E-02 10206   0.724E-02 0.607E-03
CGA:   8    -0.367214436798E+03   -0.17547E-02   -0.18094E-02 10206   0.420E-02-0.788E-03
CGA:   9    -0.367215013177E+03   -0.57638E-03   -0.59005E-03 10206   0.150E-02 0.728E-03
CGA:  10    -0.367215451771E+03   -0.43859E-03   -0.43500E-03 10206   0.624E-03 0.509E-04
CGA:  11    -0.367215619626E+03   -0.16786E-03   -0.19934E-03 10206   0.773E-03-0.242E-03
CGA:  12    -0.367215634977E+03   -0.15351E-04   -0.32265E-04 10206   0.378E-03 0.144E-03
CGA:  13    -0.367215642549E+03   -0.75710E-05   -0.25282E-04 10206   0.159E-03 0.143E-03
CGA:  14    -0.367215655654E+03   -0.13106E-04   -0.19022E-04 10206   0.131E-03 0.679E-04
CGA:  15    -0.367215689095E+03   -0.33441E-04   -0.37647E-04 10206   0.114E-03-0.131E-03
CGA:  16    -0.367215715299E+03   -0.26204E-04   -0.26632E-04 10206   0.261E-04-0.690E-05
CGA:  17    -0.367215715108E+03    0.19047E-06   -0.15350E-05 10206   0.126E-04 0.155E-04
  11 F= -.36721572E+03 E0= -.36721572E+03  d E =-.390578E-01  mag=    16.0000
       N       E                     dE             d eps       ncg     rms          ort
SDA:   1    -0.347216739011E+03    0.19999E+02    0.00000E+00 10206   0.485E+02 0.000E+00
CGA:   2    -0.362093451821E+03   -0.14877E+02   -0.14676E+02 10206   0.293E+02 0.136E+01
CGA:   3    -0.365790763741E+03   -0.36973E+01   -0.35589E+01 10206   0.553E+01 0.140E+00
CGA:   4    -0.366922420908E+03   -0.11317E+01   -0.11299E+01 10206   0.995E+00 0.286E-01
CGA:   5    -0.367121722653E+03   -0.19930E+00   -0.19924E+00 10206   0.324E+00 0.261E-02
CGA:   6    -0.367180225398E+03   -0.58503E-01   -0.58522E-01 10206   0.110E+00-0.242E-02
CGA:   7    -0.367203920217E+03   -0.23695E-01   -0.23712E-01 10206   0.420E-01-0.340E-03
CGA:   8    -0.367213970440E+03   -0.10050E-01   -0.10135E-01 10206   0.252E-01-0.128E-02
CGA:   9    -0.367218721230E+03   -0.47508E-02   -0.47454E-02 10206   0.105E-01 0.366E-03
CGA:  10    -0.367221263394E+03   -0.25422E-02   -0.25501E-02 10206   0.383E-02-0.134E-03
CGA:  11    -0.367222063716E+03   -0.80032E-03   -0.78958E-03 10206   0.124E-02 0.402E-03
CGA:  12    -0.367222359420E+03   -0.29570E-03   -0.56243E-03 10206   0.310E-02-0.118E-02
CGA:  13    -0.367222526388E+03   -0.16697E-03   -0.24468E-03 10206   0.398E-03 0.681E-03
CGA:  14    -0.367222563296E+03   -0.36909E-04   -0.52152E-04 10206   0.196E-03 0.187E-03
CGA:  15    -0.367222623011E+03   -0.59715E-04   -0.62258E-04 10206   0.155E-03-0.820E-04
CGA:  16    -0.367222629754E+03   -0.67429E-05   -0.97854E-05 10206   0.148E-03 0.391E-04
CGA:  17    -0.367222639487E+03   -0.97329E-05   -0.17564E-04 10206   0.761E-04 0.896E-04
CGA:  18    -0.367222664118E+03   -0.24631E-04   -0.37957E-04 10206   0.904E-04-0.416E-04
CGA:  19    -0.367222659456E+03    0.46623E-05   -0.42423E-05 10206   0.425E-04 0.606E-04
  12 F= -.36722266E+03 E0= -.36722266E+03  d E =-.694435E-02  mag=    16.0000
       N       E                     dE             d eps       ncg     rms          ort
SDA:   1    -0.365807586377E+03    0.14151E+01    0.00000E+00 10206   0.357E+01 0.000E+00
CGA:   2    -0.366947537648E+03   -0.11400E+01   -0.11388E+01 10206   0.123E+01 0.785E-02
CGA:   3    -0.367170499162E+03   -0.22296E+00   -0.22295E+00 10206   0.433E+00-0.138E-02
CGA:   4    -0.367239367424E+03   -0.68868E-01   -0.68711E-01 10206   0.103E+00-0.632E-02
CGA:   5    -0.367255372654E+03   -0.16005E-01   -0.16078E-01 10206   0.279E-01 0.292E-02
CGA:   6    -0.367260832090E+03   -0.54594E-02   -0.54549E-02 10206   0.869E-02 0.736E-03
CGA:   7    -0.367262506993E+03   -0.16749E-02   -0.16702E-02 10206   0.308E-02 0.147E-02
CGA:   8    -0.367263515053E+03   -0.10081E-02   -0.10947E-02 10206   0.269E-02-0.724E-03
CGA:   9    -0.367263756177E+03   -0.24112E-03   -0.27063E-03 10206   0.120E-02 0.501E-03
CGA:  10    -0.367263955652E+03   -0.19947E-03   -0.21084E-03 10206   0.584E-03 0.286E-03
CGA:  11    -0.367264112519E+03   -0.15687E-03   -0.19466E-03 10206   0.924E-03-0.451E-03
CGA:  12    -0.367264147169E+03   -0.34650E-04   -0.70491E-04 10206   0.194E-03 0.317E-03
CGA:  13    -0.367264162113E+03   -0.14944E-04   -0.24543E-04 10206   0.995E-04 0.107E-03
CGA:  14    -0.367264210839E+03   -0.48727E-04    0.24426E-04 10206   0.810E-04 0.799E-05
CGA:  15    -0.367264209504E+03    0.13355E-05   -0.60869E-05 10206   0.505E-04 0.676E-04
  13 F= -.36726421E+03 E0= -.36726421E+03  d E =-.415500E-01  mag=    16.0000
       N       E                     dE             d eps       ncg     rms          ort
SDA:   1    -0.367066113136E+03    0.19810E+00    0.00000E+00 10206   0.522E+00 0.000E+00
CGA:   2    -0.367241605019E+03   -0.17549E+00   -0.17567E+00 10206   0.196E+00-0.106E-02
CGA:   3    -0.367271177026E+03   -0.29572E-01   -0.29684E-01 10206   0.685E-01 0.501E-02
CGA:   4    -0.367283311999E+03   -0.12135E-01   -0.12129E-01 10206   0.174E-01-0.476E-02
CGA:   5    -0.367285879739E+03   -0.25677E-02   -0.25797E-02 10206   0.417E-02 0.823E-03
CGA:   6    -0.367286949192E+03   -0.10695E-02   -0.11719E-02 10206   0.234E-02-0.107E-02
CGA:   7    -0.367287233998E+03   -0.28481E-03   -0.28658E-03 10206   0.894E-03 0.135E-03
CGA:   8    -0.367287461721E+03   -0.22772E-03   -0.24569E-03 10206   0.487E-03-0.218E-03
CGA:   9    -0.367287548740E+03   -0.87019E-04   -0.13030E-03 10206   0.475E-03-0.251E-03
CGA:  10    -0.367287623313E+03   -0.74573E-04   -0.75696E-04 10206   0.907E-04 0.367E-04
CGA:  11    -0.367287680479E+03   -0.57166E-04    0.16690E-04 10206   0.315E-04 0.467E-05
CGA:  12    -0.367287682382E+03   -0.19032E-05   -0.32995E-05 10206   0.112E-04 0.157E-04
  14 F= -.36728768E+03 E0= -.36728768E+03  d E =-.234729E-01  mag=    16.0000
       N       E                     dE             d eps       ncg     rms          ort
SDA:   1    -0.367084102772E+03    0.20358E+00    0.00000E+00 10206   0.507E+00 0.000E+00
CGA:   2    -0.367253903556E+03   -0.16980E+00   -0.16933E+00 10206   0.178E+00 0.306E-02
CGA:   3    -0.367284307256E+03   -0.30404E-01   -0.30387E-01 10206   0.584E-01-0.735E-03
CGA:   4    -0.367293380769E+03   -0.90735E-02   -0.90173E-02 10206   0.131E-01-0.161E-02
CGA:   5    -0.367295489990E+03   -0.21092E-02   -0.21132E-02 10206   0.355E-02 0.169E-03
CGA:   6    -0.367296268144E+03   -0.77815E-03   -0.79187E-03 10206   0.135E-02-0.424E-03
CGA:   7    -0.367296473526E+03   -0.20538E-03   -0.20750E-03 10206   0.454E-03 0.138E-03
CGA:   8    -0.367296454055E+03    0.19470E-04   -0.30397E-03 10206   0.238E-02-0.773E-03
CGA:   9    -0.367296651996E+03   -0.19794E-03   -0.24497E-03 10206   0.390E-03 0.442E-03
CGA:  10    -0.367296756615E+03   -0.10462E-03   -0.11316E-03 10206   0.193E-03-0.210E-03
CGA:  11    -0.367296777362E+03   -0.20747E-04   -0.24615E-04 10206   0.278E-04 0.491E-04
CGA:  12    -0.367296803032E+03   -0.25670E-04    0.42857E-05 10206   0.155E-04-0.177E-05
CGA:  13    -0.367296813195E+03   -0.10163E-04    0.20276E-05 10206   0.117E-04 0.554E-05
CGA:  14    -0.367296831459E+03   -0.18264E-04    0.87681E-06 10206   0.573E-05 0.634E-05
CGA:  15    -0.367296843852E+03   -0.12392E-04    0.13358E-06 10206   0.430E-05 0.153E-05
CGA:  16    -0.367296849484E+03   -0.56325E-05    0.35531E-06 10206   0.252E-05 0.206E-05
  15 F= -.36729685E+03 E0= -.36729685E+03  d E =-.916710E-02  mag=    16.0000
       N       E                     dE             d eps       ncg     rms          ort
SDA:   1    -0.365582023227E+03    0.17148E+01    0.00000E+00 10206   0.401E+01 0.000E+00
CGA:   2    -0.366993520504E+03   -0.14115E+01   -0.14126E+01 10206   0.159E+01-0.730E-02
CGA:   3    -0.367212795801E+03   -0.21928E+00   -0.21915E+00 10206   0.464E+00 0.126E-01
CGA:   4    -0.367289857607E+03   -0.77062E-01   -0.76768E-01 10206   0.945E-01-0.879E-02
CGA:   5    -0.367305925275E+03   -0.16068E-01   -0.16147E-01 10206   0.242E-01 0.272E-02
CGA:   6    -0.367311079272E+03   -0.51540E-02   -0.51583E-02 10206   0.789E-02-0.925E-03
CGA:   7    -0.367312406421E+03   -0.13271E-02   -0.13437E-02 10206   0.279E-02 0.643E-03
CGA:   8    -0.367313227205E+03   -0.82078E-03   -0.89438E-03 10206   0.239E-02-0.779E-03
CGA:   9    -0.367313454494E+03   -0.22729E-03   -0.24298E-03 10206   0.100E-02 0.243E-03
CGA:  10    -0.367313657270E+03   -0.20278E-03   -0.20460E-03 10206   0.543E-03 0.101E-03
CGA:  11    -0.367313782076E+03   -0.12481E-03   -0.15928E-03 10206   0.992E-03-0.534E-03
CGA:  12    -0.367313827510E+03   -0.45434E-04   -0.76723E-04 10206   0.144E-03 0.246E-03
CGA:  13    -0.367313845132E+03   -0.17622E-04   -0.21722E-04 10206   0.753E-04 0.523E-04
CGA:  14    -0.367313885931E+03   -0.40799E-04    0.51215E-03 10206   0.387E-04-0.319E-04
CGA:  15    -0.367313890973E+03   -0.50428E-05   -0.10934E-04 10206   0.539E-04-0.201E-04
CGA:  16    -0.367313921576E+03   -0.30603E-04    0.15961E-04 10206   0.140E-04 0.128E-04
CGA:  17    -0.367313920066E+03    0.15107E-05   -0.70343E-06 10206   0.780E-05 0.131E-04
  16 F= -.36731392E+03 E0= -.36731392E+03  d E =-.170706E-01  mag=    16.0000
       N       E                     dE             d eps       ncg     rms          ort
SDA:   1    -0.335886208455E+03    0.31428E+02    0.00000E+00 10206   0.843E+02 0.000E+00
CGA:   2    -0.355310263637E+03   -0.19424E+02   -0.19046E+02 10206   0.600E+02 0.708E+01
CGA:   3    -0.364675734806E+03   -0.93655E+01   -0.85739E+01 10206   0.847E+01 0.283E+01
CGA:   4    -0.366660412305E+03   -0.19847E+01   -0.19834E+01 10206   0.230E+01 0.156E-01
CGA:   5    -0.367003563985E+03   -0.34315E+00   -0.34298E+00 10206   0.724E+00 0.879E-02
CGA:   6    -0.367132436879E+03   -0.12887E+00   -0.12898E+00 10206   0.232E+00-0.203E-02
CGA:   7    -0.367177692188E+03   -0.45255E-01   -0.45235E-01 10206   0.962E-01 0.438E-02
CGA:   8    -0.367199401411E+03   -0.21709E-01   -0.21772E-01 10206   0.550E-01-0.245E-02
CGA:   9    -0.367211216576E+03   -0.11815E-01   -0.11825E-01 10206   0.247E-01-0.290E-03
CGA:  10    -0.367216783012E+03   -0.55664E-02   -0.56252E-02 10206   0.128E-01-0.177E-02
CGA:  11    -0.367218805341E+03   -0.20223E-02   -0.20415E-02 10206   0.343E-02 0.826E-03
CGA:  12    -0.367219762384E+03   -0.95704E-03   -0.10136E-02 10206   0.200E-02-0.679E-03
CGA:  13    -0.367219977624E+03   -0.21524E-03   -0.23291E-03 10206   0.724E-03 0.333E-03
CGA:  14    -0.367220176232E+03   -0.19861E-03   -0.19975E-03 10206   0.392E-03-0.284E-04
CGA:  15    -0.367220266722E+03   -0.90490E-04   -0.89505E-04 10206   0.399E-03 0.236E-04
CGA:  16    -0.367220278387E+03   -0.11665E-04   -0.37494E-04 10206   0.175E-03 0.232E-03
CGA:  17    -0.367220279723E+03   -0.13368E-05   -0.13755E-04 10206   0.878E-04 0.108E-03
  17 F= -.36722028E+03 E0= -.36722028E+03  d E =0.936403E-01  mag=    16.0000
       N       E                     dE             d eps       ncg     rms          ort
SDA:   1    -0.366045332829E+03    0.11749E+01    0.00000E+00 10206   0.301E+01 0.000E+00
CGA:   2    -0.367061663402E+03   -0.10163E+01   -0.10162E+01 10206   0.143E+01 0.119E-03
CGA:   3    -0.367240582735E+03   -0.17892E+00   -0.17808E+00 10206   0.416E+00 0.600E-02
CGA:   4    -0.367322146056E+03   -0.81563E-01   -0.81569E-01 10206   0.813E-01-0.176E-02
CGA:   5    -0.367337113766E+03   -0.14968E-01   -0.14974E-01 10206   0.219E-01 0.159E-02
CGA:   6    -0.367342069548E+03   -0.49558E-02   -0.49844E-02 10206   0.966E-02-0.836E-03
CGA:   7    -0.367343607752E+03   -0.15382E-02   -0.15621E-02 10206   0.329E-02 0.107E-02
CGA:   8    -0.367344631153E+03   -0.10234E-02   -0.11330E-02 10206   0.277E-02-0.908E-03
CGA:   9    -0.367344850956E+03   -0.21980E-03   -0.25242E-03 10206   0.115E-02 0.467E-03
CGA:  10    -0.367345011453E+03   -0.16050E-03   -0.17774E-03 10206   0.521E-03 0.287E-03
CGA:  11    -0.367345154401E+03   -0.14295E-03   -0.17077E-03 10206   0.635E-03-0.379E-03
CGA:  12    -0.367345177135E+03   -0.22734E-04   -0.51578E-04 10206   0.158E-03 0.259E-03
CGA:  13    -0.367345190663E+03   -0.13528E-04   -0.21367E-04 10206   0.664E-04 0.862E-04
CGA:  14    -0.367345232899E+03   -0.42236E-04    0.81732E-05 10206   0.530E-04 0.977E-05
CGA:  15    -0.367345231541E+03    0.13589E-05   -0.41523E-05 10206   0.337E-04 0.482E-04
  18 F= -.36734523E+03 E0= -.36734523E+03  d E =-.124952E+00  mag=    16.0000
       N       E                     dE             d eps       ncg     rms          ort
SDA:   1    -0.364914519791E+03    0.24307E+01    0.00000E+00 10206   0.557E+01 0.000E+00
CGA:   2    -0.366969063919E+03   -0.20545E+01   -0.20589E+01 10206   0.162E+01-0.202E-01
CGA:   3    -0.367240966100E+03   -0.27190E+00   -0.27203E+00 10206   0.557E+00 0.154E-01
CGA:   4    -0.367320501252E+03   -0.79535E-01   -0.79394E-01 10206   0.112E+00-0.713E-02
CGA:   5    -0.367341002369E+03   -0.20501E-01   -0.20470E-01 10206   0.284E-01 0.355E-02
CGA:   6    -0.367347220616E+03   -0.62182E-02   -0.62965E-02 10206   0.102E-01-0.209E-02
CGA:   7    -0.367348848621E+03   -0.16280E-02   -0.16361E-02 10206   0.351E-02 0.119E-02
CGA:   8    -0.367349900675E+03   -0.10521E-02   -0.12042E-02 10206   0.340E-02-0.118E-02
CGA:   9    -0.367350164970E+03   -0.26430E-03   -0.28996E-03 10206   0.162E-02 0.454E-03
CGA:  10    -0.367350393590E+03   -0.22862E-03   -0.24531E-03 10206   0.807E-03 0.342E-03
CGA:  11    -0.367350592766E+03   -0.19918E-03   -0.24191E-03 10206   0.914E-03-0.634E-03
CGA:  12    -0.367350646302E+03   -0.53536E-04   -0.82049E-04 10206   0.197E-03 0.305E-03
CGA:  13    -0.367350681919E+03   -0.35617E-04   -0.37314E-04 10206   0.632E-04 0.464E-04
CGA:  14    -0.367350719976E+03   -0.38057E-04    0.18352E-04 10206   0.564E-04-0.123E-04
CGA:  15    -0.367350720715E+03   -0.73887E-06   -0.36323E-05 10206   0.455E-04 0.298E-04
  19 F= -.36735072E+03 E0= -.36735072E+03  d E =-.548917E-02  mag=    16.0000
       N       E                     dE             d eps       ncg     rms          ort
SDA:   1    -0.363107273670E+03    0.42434E+01    0.00000E+00 10206   0.101E+02 0.000E+00
CGA:   2    -0.366324911159E+03   -0.32176E+01   -0.32148E+01 10206   0.505E+01 0.197E-01
CGA:   3    -0.367043871966E+03   -0.71896E+00   -0.71761E+00 10206   0.134E+01-0.343E-02
CGA:   4    -0.367257830910E+03   -0.21396E+00   -0.21396E+00 10206   0.300E+00-0.840E-02
CGA:   5    -0.367310197441E+03   -0.52367E-01   -0.52346E-01 10206   0.764E-01 0.429E-02
CGA:   6    -0.367326096925E+03   -0.15899E-01   -0.15953E-01 10206   0.236E-01-0.157E-02
CGA:   7    -0.367330750245E+03   -0.46533E-02   -0.46257E-02 10206   0.876E-02 0.101E-02
CGA:   8    -0.367333054478E+03   -0.23042E-02   -0.25066E-02 10206   0.694E-02-0.203E-02
CGA:   9    -0.367333821256E+03   -0.76678E-03   -0.78791E-03 10206   0.257E-02 0.680E-03
CGA:  10    -0.367334446339E+03   -0.62508E-03   -0.62988E-03 10206   0.146E-02-0.105E-03
CGA:  11    -0.367334586433E+03   -0.14009E-03   -0.50810E-03 10206   0.543E-02-0.201E-02
CGA:  12    -0.367334904973E+03   -0.31854E-03   -0.42171E-03 10206   0.521E-03 0.945E-03
CGA:  13    -0.367334973212E+03   -0.68240E-04   -0.78250E-04 10206   0.277E-03 0.180E-03
CGA:  14    -0.367334749652E+03    0.22356E-03   -0.22115E-03 10206   0.289E-02-0.108E-02
CGA:  15    -0.367334969224E+03   -0.21957E-03   -0.28466E-03 10206   0.604E-03 0.637E-03
CGA:  16    -0.367335131044E+03   -0.16182E-03   -0.16305E-03 10206   0.119E-03-0.490E-04
CGA:  17    -0.367335200275E+03   -0.69231E-04    0.18136E-04 10206   0.151E-03-0.930E-04
CGA:  18    -0.367335194254E+03    0.60214E-05   -0.65089E-05 10206   0.463E-04 0.813E-04
  20 F= -.36733519E+03 E0= -.36733519E+03  d E =0.155265E-01  mag=    16.0000
       N       E                     dE             d eps       ncg     rms          ort
SDA:   1    -0.366408872260E+03    0.92633E+00    0.00000E+00 10206   0.222E+01 0.000E+00
CGA:   2    -0.367152365964E+03   -0.74349E+00   -0.74426E+00 10206   0.103E+01-0.559E-02
CGA:   3    -0.367302109643E+03   -0.14974E+00   -0.14994E+00 10206   0.284E+00 0.608E-02
CGA:   4    -0.367346622313E+03   -0.44513E-01   -0.44585E-01 10206   0.648E-01 0.210E-02
CGA:   5    -0.367358354675E+03   -0.11732E-01   -0.11733E-01 10206   0.179E-01 0.118E-03
CGA:   6    -0.367361918817E+03   -0.35641E-02   -0.35652E-02 10206   0.554E-02-0.799E-04
CGA:   7    -0.367363158324E+03   -0.12395E-02   -0.12560E-02 10206   0.280E-02-0.398E-03
CGA:   8    -0.367363552117E+03   -0.39379E-03   -0.40765E-03 10206   0.968E-03 0.440E-03
CGA:   9    -0.367363841466E+03   -0.28935E-03   -0.29223E-03 10206   0.533E-03-0.389E-04
CGA:  10    -0.367363910983E+03   -0.69516E-04   -0.77209E-04 10206   0.206E-03 0.194E-03
CGA:  11    -0.367363948431E+03   -0.37448E-04   -0.41330E-04 10206   0.892E-04 0.940E-04
CGA:  12    -0.367363978348E+03   -0.29918E-04   -0.29281E-04 10206   0.510E-04 0.162E-04
CGA:  13    -0.367363976664E+03    0.16846E-05   -0.39247E-05 10206   0.363E-04 0.454E-04
  21 F= -.36736398E+03 E0= -.36736398E+03  d E =-.287824E-01  mag=    16.0000
       N       E                     dE             d eps       ncg     rms          ort
SDA:   1    -0.367285518199E+03    0.78460E-01    0.00000E+00 10206   0.190E+00 0.000E+00
CGA:   2    -0.367351098297E+03   -0.65580E-01   -0.65533E-01 10206   0.727E-01 0.268E-03
CGA:   3    -0.367362595323E+03   -0.11497E-01   -0.11526E-01 10206   0.183E-01 0.108E-02
CGA:   4    -0.367365724374E+03   -0.31291E-02   -0.31272E-02 10206   0.473E-02-0.122E-03
CGA:   5    -0.367366510566E+03   -0.78619E-03   -0.78663E-03 10206   0.129E-02 0.284E-04
CGA:   6    -0.367366776531E+03   -0.26597E-03   -0.26809E-03 10206   0.419E-03-0.876E-04
CGA:   7    -0.367366833220E+03   -0.56689E-04   -0.59909E-04 10206   0.117E-03 0.108E-03
CGA:   8    -0.367366853109E+03   -0.19889E-04   -0.21825E-04 10206   0.491E-04 0.570E-04
CGA:   9    -0.367366858983E+03   -0.58744E-05   -0.85314E-05 10206   0.269E-04 0.421E-04
  22 F= -.36736686E+03 E0= -.36736686E+03  d E =-.288232E-02  mag=    16.0000
       N       E                     dE             d eps       ncg     rms          ort
SDA:   1    -0.365367464327E+03    0.19994E+01    0.00000E+00 10206   0.462E+01 0.000E+00
CGA:   2    -0.367038363360E+03   -0.16709E+01   -0.16727E+01 10206   0.159E+01-0.790E-02
CGA:   3    -0.367266335109E+03   -0.22797E+00   -0.22805E+00 10206   0.521E+00 0.135E-01
CGA:   4    -0.367348003651E+03   -0.81669E-01   -0.81533E-01 10206   0.100E+00-0.822E-02
CGA:   5    -0.367366399337E+03   -0.18396E-01   -0.18379E-01 10206   0.249E-01 0.239E-02
CGA:   6    -0.367371707302E+03   -0.53080E-02   -0.53479E-02 10206   0.883E-02-0.132E-02
CGA:   7    -0.367373062755E+03   -0.13555E-02   -0.13727E-02 10206   0.284E-02 0.104E-02
CGA:   8    -0.367373907180E+03   -0.84442E-03   -0.90349E-03 10206   0.210E-02-0.567E-03
CGA:   9    -0.367374147754E+03   -0.24057E-03   -0.25379E-03 10206   0.857E-03 0.386E-03
CGA:  10    -0.367374329683E+03   -0.18193E-03   -0.18240E-03 10206   0.366E-03 0.136E-03
CGA:  11    -0.367374381697E+03   -0.52014E-04   -0.17626E-03 10206   0.141E-02-0.535E-03
CGA:  12    -0.367374438598E+03   -0.56901E-04   -0.10325E-03 10206   0.198E-03 0.382E-03
CGA:  13    -0.367374446932E+03   -0.83344E-05   -0.20327E-04 10206   0.932E-04 0.111E-03
CGA:  14    -0.367374486073E+03   -0.39141E-04    0.58627E-04 10206   0.464E-04 0.923E-05
CGA:  15    -0.367374483395E+03    0.26782E-05   -0.23999E-05 10206   0.244E-04 0.372E-04
  23 F= -.36737448E+03 E0= -.36737448E+03  d E =-.762441E-02  mag=    16.0000
       N       E                     dE             d eps       ncg     rms          ort
SDA:   1    -0.349292199543E+03    0.18082E+02    0.00000E+00 10206   0.458E+02 0.000E+00
CGA:   2    -0.361743412971E+03   -0.12451E+02   -0.12149E+02 10206   0.297E+02 0.262E+01
CGA:   3    -0.365847954679E+03   -0.41045E+01   -0.39505E+01 10206   0.603E+01-0.814E-01
CGA:   4    -0.367011303332E+03   -0.11633E+01   -0.11611E+01 10206   0.111E+01 0.531E-01
CGA:   5    -0.367224874826E+03   -0.21357E+00   -0.21353E+00 10206   0.391E+00 0.468E-02
CGA:   6    -0.367287056176E+03   -0.62181E-01   -0.62169E-01 10206   0.126E+00-0.313E-02
CGA:   7    -0.367313543631E+03   -0.26487E-01   -0.26429E-01 10206   0.484E-01 0.169E-02
CGA:   8    -0.367324226859E+03   -0.10683E-01   -0.10781E-01 10206   0.285E-01-0.232E-02
CGA:   9    -0.367330041379E+03   -0.58145E-02   -0.57792E-02 10206   0.113E-01 0.990E-03
CGA:  10    -0.367332917681E+03   -0.28763E-02   -0.29636E-02 10206   0.676E-02-0.120E-02
CGA:  11    -0.367333872084E+03   -0.95440E-03   -0.97047E-03 10206   0.198E-02 0.733E-03
CGA:  12    -0.367334459049E+03   -0.58697E-03   -0.71585E-03 10206   0.164E-02-0.892E-03
CGA:  13    -0.367334565559E+03   -0.10651E-03   -0.12172E-03 10206   0.911E-03 0.284E-03
CGA:  14    -0.367334669435E+03   -0.10388E-03   -0.12497E-03 10206   0.330E-03 0.304E-03
CGA:  15    -0.367334748086E+03   -0.78651E-04   -0.78827E-04 10206   0.244E-03 0.500E-04
CGA:  16    -0.367334770928E+03   -0.22842E-04   -0.33415E-04 10206   0.198E-03 0.167E-03
CGA:  17    -0.367334783344E+03   -0.12416E-04   -0.21230E-04 10206   0.929E-04 0.122E-03
CGA:  18    -0.367334804846E+03   -0.21501E-04   -0.19501E-04 10206   0.531E-04 0.579E-04
CGA:  19    -0.367334801491E+03    0.33543E-05   -0.28481E-05 10206   0.486E-04 0.502E-04
  24 F= -.36733480E+03 E0= -.36733480E+03  d E =0.396819E-01  mag=    16.0000
       N       E                     dE             d eps       ncg     rms          ort
SDA:   1    -0.365241479154E+03    0.20933E+01    0.00000E+00 10206   0.502E+01 0.000E+00
CGA:   2    -0.366961459873E+03   -0.17200E+01   -0.17216E+01 10206   0.200E+01-0.805E-02
CGA:   3    -0.367235155655E+03   -0.27370E+00   -0.27318E+00 10206   0.662E+00 0.111E-01
CGA:   4    -0.367348123818E+03   -0.11297E+00   -0.11296E+00 10206   0.123E+00-0.585E-02
CGA:   5    -0.367370807676E+03   -0.22684E-01   -0.22648E-01 10206   0.316E-01 0.279E-02
CGA:   6    -0.367377577716E+03   -0.67700E-02   -0.68021E-02 10206   0.117E-01-0.871E-03
CGA:   7    -0.367379786346E+03   -0.22086E-02   -0.22023E-02 10206   0.456E-02 0.340E-03
CGA:   8    -0.367380937818E+03   -0.11515E-02   -0.12086E-02 10206   0.297E-02-0.703E-03
CGA:   9    -0.367381353334E+03   -0.41552E-03   -0.41834E-03 10206   0.107E-02 0.210E-03
CGA:  10    -0.367381645145E+03   -0.29181E-03   -0.30351E-03 10206   0.431E-03-0.137E-03
CGA:  11    -0.367381748439E+03   -0.10329E-03   -0.11730E-03 10206   0.270E-03-0.109E-03
CGA:  12    -0.367381765727E+03   -0.17288E-04   -0.21100E-04 10206   0.105E-03 0.448E-04
CGA:  13    -0.367381786116E+03   -0.20389E-04   -0.20565E-04 10206   0.730E-04 0.101E-04
CGA:  14    -0.367381752282E+03    0.33834E-04   -0.40683E-04 10206   0.695E-03-0.231E-03
CGA:  15    -0.367381801622E+03   -0.49340E-04   -0.62419E-04 10206   0.104E-03 0.118E-03
CGA:  16    -0.367381828354E+03   -0.26733E-04   -0.26823E-04 10206   0.396E-04-0.360E-05
CGA:  17    -0.367381798386E+03    0.29969E-04   -0.20674E-04 10206   0.675E-03-0.147E-03
CGA:  18    -0.367381835184E+03   -0.36798E-04   -0.50457E-04 10206   0.367E-04 0.987E-04
CGA:  19    -0.367381838581E+03   -0.33971E-05   -0.46398E-05 10206   0.195E-04 0.128E-04
CGA:  20    -0.367381703177E+03    0.13540E-03   -0.72996E-04 10206   0.561E-03-0.152E-03
CGA:  21    -0.367381804111E+03   -0.10093E-03   -0.11562E-03 10206   0.206E-03 0.904E-04
CGA:  22    -0.367381868315E+03   -0.64204E-04   -0.48531E-04 10206   0.104E-03-0.997E-04
CGA:  23    -0.367381865799E+03    0.25167E-05   -0.34935E-05 10206   0.421E-04 0.209E-04
  25 F= -.36738187E+03 E0= -.36738187E+03  d E =-.470643E-01  mag=    16.0000
       N       E                     dE             d eps       ncg     rms          ort
SDA:   1    -0.366912232398E+03    0.46964E+00    0.00000E+00 10206   0.110E+01 0.000E+00
CGA:   2    -0.367306882852E+03   -0.39465E+00   -0.39473E+00 10206   0.351E+00-0.235E-02
CGA:   3    -0.367365880117E+03   -0.58997E-01   -0.59306E-01 10206   0.111E+00 0.219E-02
CGA:   4    -0.367383001365E+03   -0.17121E-01   -0.16891E-01 10206   0.267E-01-0.179E-02
CGA:   5    -0.367387213711E+03   -0.42123E-02   -0.43574E-02 10206   0.688E-02 0.105E-02
CGA:   6    -0.367388718309E+03   -0.15046E-02   -0.14851E-02 10206   0.227E-02-0.209E-03
CGA:   7    -0.367389134674E+03   -0.41637E-03   -0.43758E-03 10206   0.783E-03 0.217E-03
CGA:   8    -0.367389412508E+03   -0.27783E-03   -0.30452E-03 10206   0.118E-02-0.425E-03
CGA:   9    -0.367389466783E+03   -0.54275E-04   -0.10491E-03 10206   0.197E-03 0.247E-03
CGA:  10    -0.367389502638E+03   -0.35855E-04   -0.40188E-04 10206   0.874E-04 0.372E-04
CGA:  11    -0.367388320889E+03    0.11817E-02   -0.64216E-03 10206   0.122E-01-0.910E-03
CGA:  12    -0.367389168493E+03   -0.84760E-03   -0.10537E-02 10206   0.107E-02 0.734E-03
CGA:  13    -0.367389483972E+03   -0.31548E-03   -0.31718E-03 10206   0.293E-03 0.808E-05
CGA:  14    -0.367389580325E+03   -0.96353E-04   -0.56026E-04 10206   0.305E-03-0.141E-03
CGA:  15    -0.367389587034E+03   -0.67086E-05   -0.19155E-04 10206   0.164E-03 0.364E-04
CGA:  16    -0.367389576401E+03    0.10633E-04   -0.10522E-04 10206   0.406E-04 0.546E-04
CGA:  17    -0.367389570673E+03    0.57284E-05   -0.33385E-05 10206   0.261E-04 0.248E-04
CGA:  18    -0.367389595317E+03   -0.24644E-04    0.34495E-04 10206   0.677E-04-0.178E-04
CGA:  19    -0.367389587772E+03    0.75451E-05   -0.33114E-05 10206   0.145E-04 0.302E-04
  26 F= -.36738959E+03 E0= -.36738959E+03  d E =-.772197E-02  mag=    16.0000
       N       E                     dE             d eps       ncg     rms          ort
SDA:   1    -0.367310694151E+03    0.78901E-01    0.00000E+00 10206   0.186E+00 0.000E+00
CGA:   2    -0.367375455247E+03   -0.64761E-01   -0.64749E-01 10206   0.666E-01-0.524E-03
CGA:   3    -0.367385914374E+03   -0.10459E-01   -0.10637E-01 10206   0.186E-01 0.851E-03
CGA:   4    -0.367389103890E+03   -0.31895E-02   -0.30829E-02 10206   0.476E-02-0.549E-03
CGA:   5    -0.367389807081E+03   -0.70319E-03   -0.73948E-03 10206   0.119E-02 0.190E-03
CGA:   6    -0.367390110872E+03   -0.30379E-03   -0.28199E-03 10206   0.475E-03-0.191E-03
CGA:   7    -0.367390161395E+03   -0.50523E-04   -0.63676E-04 10206   0.137E-03 0.748E-04
CGA:   8    -0.367390208559E+03   -0.47164E-04   -0.45313E-04 10206   0.105E-03-0.440E-04
CGA:   9    -0.367390221706E+03   -0.13147E-04   -0.13468E-04 10206   0.547E-04 0.237E-05
CGA:  10    -0.367390237101E+03   -0.15395E-04   -0.13931E-04 10206   0.346E-04-0.212E-04
CGA:  11    -0.367390259905E+03   -0.22804E-04    0.46929E-05 10206   0.301E-04-0.190E-04
CGA:  12    -0.367390257701E+03    0.22040E-05   -0.22498E-05 10206   0.123E-04 0.186E-04
  27 F= -.36739026E+03 E0= -.36739026E+03  d E =-.669929E-03  mag=    16.0000
       N       E                     dE             d eps       ncg     rms          ort
SDA:   1    -0.367027928185E+03    0.36233E+00    0.00000E+00 10206   0.841E+00 0.000E+00
CGA:   2    -0.367326238372E+03   -0.29831E+00   -0.29827E+00 10206   0.284E+00 0.653E-03
CGA:   3    -0.367372966415E+03   -0.46728E-01   -0.46672E-01 10206   0.806E-01-0.444E-03
CGA:   4    -0.367385332790E+03   -0.12366E-01   -0.12453E-01 10206   0.188E-01 0.649E-03
CGA:   5    -0.367388781536E+03   -0.34487E-02   -0.33824E-02 10206   0.578E-02-0.617E-03
CGA:   6    -0.367389684268E+03   -0.90273E-03   -0.94073E-03 10206   0.141E-02 0.338E-03
CGA:   7    -0.367390042341E+03   -0.35807E-03   -0.35387E-03 10206   0.660E-03-0.108E-03
CGA:   8    -0.367390127486E+03   -0.85145E-04   -0.99470E-04 10206   0.236E-03 0.130E-03
CGA:   9    -0.367390217166E+03   -0.89679E-04   -0.10297E-03 10206   0.296E-03-0.139E-03
CGA:  10    -0.367390238202E+03   -0.21036E-04   -0.34337E-04 10206   0.479E-04 0.848E-04
CGA:  11    -0.367390255498E+03   -0.17296E-04   -0.19130E-04 10206   0.650E-04-0.405E-04
CGA:  12    -0.367390257937E+03   -0.24392E-05   -0.65865E-05 10206   0.145E-04 0.250E-04
CGA:  13    -0.367390179021E+03    0.78915E-04   -0.23284E-04 10206   0.566E-03-0.114E-03
CGA:  14    -0.367390264161E+03   -0.85140E-04   -0.96287E-04 10206   0.232E-04 0.832E-04
CGA:  15    -0.367390271968E+03   -0.78068E-05   -0.11575E-04 10206   0.303E-04-0.274E-04
  28 F= -.36739027E+03 E0= -.36739027E+03  d E =-.142671E-04  mag=    16.0000
       N       E                     dE             d eps       ncg     rms          ort
SDA:   1    -0.362795490418E+03    0.45948E+01    0.00000E+00 10206   0.106E+02 0.000E+00
CGA:   2    -0.366496837895E+03   -0.37013E+01   -0.37010E+01 10206   0.450E+01 0.594E-03
CGA:   3    -0.367093575881E+03   -0.59674E+00   -0.58536E+00 10206   0.121E+01 0.959E-01
CGA:   4    -0.367305797749E+03   -0.21222E+00   -0.21230E+00 10206   0.236E+00-0.905E-02
CGA:   5    -0.367350299889E+03   -0.44502E-01   -0.44654E-01 10206   0.645E-01 0.186E-02
CGA:   6    -0.367363434970E+03   -0.13135E-01   -0.13001E-01 10206   0.213E-01-0.178E-02
CGA:   7    -0.367367167877E+03   -0.37329E-02   -0.38167E-02 10206   0.782E-02 0.981E-03
CGA:   8    -0.367369321176E+03   -0.21533E-02   -0.21478E-02 10206   0.488E-02-0.918E-03
CGA:   9    -0.367370015687E+03   -0.69451E-03   -0.73769E-03 10206   0.190E-02 0.456E-03
CGA:  10    -0.367370598409E+03   -0.58272E-03   -0.58819E-03 10206   0.799E-03-0.287E-03
CGA:  11    -0.367370812256E+03   -0.21385E-03   -0.23637E-03 10206   0.441E-03-0.268E-03
CGA:  12    -0.367370830997E+03   -0.18742E-04   -0.34321E-04 10206   0.200E-03 0.103E-03
CGA:  13    -0.367370866394E+03   -0.35397E-04   -0.38567E-04 10206   0.756E-04 0.302E-04
CGA:  14    -0.367370919400E+03   -0.53006E-04    0.58355E-04 10206   0.102E-03-0.405E-04
CGA:  15    -0.367370911987E+03    0.74122E-05   -0.51923E-05 10206   0.410E-04 0.615E-04
  29 F= -.36737091E+03 E0= -.36737091E+03  d E =0.193600E-01  mag=    16.0000
       N       E                     dE             d eps       ncg     rms          ort
SDA:   1    -0.366579577398E+03    0.79134E+00    0.00000E+00 10206   0.184E+01 0.000E+00
CGA:   2    -0.367225259094E+03   -0.64568E+00   -0.64637E+00 10206   0.767E+00-0.599E-02
CGA:   3    -0.367334014548E+03   -0.10876E+00   -0.10899E+00 10206   0.221E+00 0.799E-02
CGA:   4    -0.367370773989E+03   -0.36759E-01   -0.36452E-01 10206   0.488E-01-0.476E-02
CGA:   5    -0.367378666066E+03   -0.78921E-02   -0.80265E-02 10206   0.122E-01 0.209E-02
CGA:   6    -0.367381407965E+03   -0.27419E-02   -0.27351E-02 10206   0.425E-02-0.444E-03
CGA:   7    -0.367382084362E+03   -0.67640E-03   -0.70900E-03 10206   0.141E-02 0.581E-03
CGA:   8    -0.367382506858E+03   -0.42250E-03   -0.43102E-03 10206   0.912E-03-0.201E-03
CGA:   9    -0.367382600629E+03   -0.93771E-04   -0.11219E-03 10206   0.370E-03 0.217E-03
CGA:  10    -0.367382672980E+03   -0.72351E-04   -0.77929E-04 10206   0.147E-03 0.103E-03
CGA:  11    -0.367382720593E+03   -0.47613E-04   -0.53488E-04 10206   0.245E-03-0.944E-04
CGA:  12    -0.367382718642E+03    0.19514E-05   -0.14855E-04 10206   0.557E-04 0.103E-03
  30 F= -.36738272E+03 E0= -.36738272E+03  d E =-.118067E-01  mag=    16.0000
       N       E                     dE             d eps       ncg     rms          ort
SDA:   1    -0.366233019809E+03    0.11497E+01    0.00000E+00 10206   0.267E+01 0.000E+00
CGA:   2    -0.367195181238E+03   -0.96216E+00   -0.96326E+00 10206   0.887E+00-0.701E-02
CGA:   3    -0.367333008651E+03   -0.13783E+00   -0.13808E+00 10206   0.281E+00 0.664E-02
CGA:   4    -0.367376023506E+03   -0.43015E-01   -0.42782E-01 10206   0.615E-01-0.498E-02
CGA:   5    -0.367386020208E+03   -0.99967E-02   -0.10107E-01 10206   0.153E-01 0.268E-02
CGA:   6    -0.367389377738E+03   -0.33575E-02   -0.33594E-02 10206   0.474E-02-0.618E-03
CGA:   7    -0.367390211312E+03   -0.83357E-03   -0.84398E-03 10206   0.165E-02 0.472E-03
CGA:   8    -0.367390706562E+03   -0.49525E-03   -0.55247E-03 10206   0.169E-02-0.584E-03
CGA:   9    -0.367390809099E+03   -0.10254E-03   -0.12314E-03 10206   0.759E-03 0.210E-03
CGA:  10    -0.367390882371E+03   -0.73272E-04   -0.93389E-04 10206   0.420E-03 0.207E-03
CGA:  11    -0.367390974915E+03   -0.92544E-04   -0.90873E-04 10206   0.156E-03-0.525E-04
CGA:  12    -0.367391007016E+03   -0.32101E-04   -0.41967E-04 10206   0.216E-03-0.918E-04
CGA:  13    -0.367391007517E+03   -0.50032E-06   -0.13908E-04 10206   0.561E-04 0.951E-04
  31 F= -.36739101E+03 E0= -.36739101E+03  d E =-.828887E-02  mag=    16.0000
       N       E                     dE             d eps       ncg     rms          ort
SDA:   1    -0.367303190242E+03    0.87817E-01    0.00000E+00 10206   0.199E+00 0.000E+00
CGA:   2    -0.367370008398E+03   -0.66818E-01   -0.66733E-01 10206   0.780E-01 0.572E-03
CGA:   3    -0.367382158606E+03   -0.12150E-01   -0.12133E-01 10206   0.270E-01-0.433E-03
CGA:   4    -0.367386164273E+03   -0.40057E-02   -0.40113E-02 10206   0.501E-02 0.116E-03
CGA:   5    -0.367387188288E+03   -0.10240E-02   -0.10265E-02 10206   0.155E-02-0.259E-03
CGA:   6    -0.367387447756E+03   -0.25947E-03   -0.26061E-03 10206   0.433E-03 0.644E-04
CGA:   7    -0.367387560215E+03   -0.11246E-03   -0.17401E-03 10206   0.710E-03-0.321E-03
CGA:   8    -0.367387605890E+03   -0.45675E-04   -0.64996E-04 10206   0.112E-03 0.173E-03
CGA:   9    -0.367387634803E+03   -0.28913E-04   -0.29220E-04 10206   0.621E-04-0.263E-04
CGA:  10    -0.367387660522E+03   -0.25719E-04    0.12982E-04 10206   0.462E-04-0.626E-05
CGA:  11    -0.367387666073E+03   -0.55505E-05   -0.59722E-05 10206   0.210E-04 0.773E-05
  32 F= -.36738767E+03 E0= -.36738767E+03  d E =0.334144E-02  mag=    16.0000
       N       E                     dE             d eps       ncg     rms          ort
SDA:   1    -0.367360712979E+03    0.26948E-01    0.00000E+00 10206   0.662E-01 0.000E+00
CGA:   2    -0.367383683889E+03   -0.22971E-01   -0.22741E-01 10206   0.258E-01 0.154E-02
CGA:   3    -0.367387845744E+03   -0.41619E-02   -0.40757E-02 10206   0.101E-01-0.183E-02
CGA:   4    -0.367389038839E+03   -0.11931E-02   -0.12510E-02 10206   0.153E-02 0.878E-03
CGA:   5    -0.367389359410E+03   -0.32057E-03   -0.32079E-03 10206   0.532E-03 0.647E-04
CGA:   6    -0.367389484524E+03   -0.12511E-03   -0.15592E-03 10206   0.773E-03-0.364E-03
CGA:   7    -0.367389499800E+03   -0.15276E-04   -0.49817E-04 10206   0.123E-03 0.254E-03
CGA:   8    -0.367389498244E+03    0.15558E-05   -0.93478E-05 10206   0.572E-04 0.798E-04
CGA:   9    -0.367389521066E+03   -0.22822E-04    0.79790E-04 10206   0.225E-04 0.208E-04
CGA:  10    -0.367389519984E+03    0.10820E-05   -0.18764E-05 10206   0.143E-04 0.235E-04
  33 F= -.36738952E+03 E0= -.36738952E+03  d E =-.185391E-02  mag=    16.0000
       N       E                     dE             d eps       ncg     rms          ort
SDA:   1    -0.367317196889E+03    0.72324E-01    0.00000E+00 10206   0.164E+00 0.000E+00
CGA:   2    -0.367378518160E+03   -0.61321E-01   -0.61316E-01 10206   0.430E-01 0.239E-04
CGA:   3    -0.367386320445E+03   -0.78023E-02   -0.78067E-02 10206   0.128E-01 0.163E-02
CGA:   4    -0.367388446759E+03   -0.21263E-02   -0.20651E-02 10206   0.445E-02-0.213E-02
CGA:   5    -0.367388898767E+03   -0.45201E-03   -0.48865E-03 10206   0.805E-03 0.718E-03
CGA:   6    -0.367389022927E+03   -0.12416E-03   -0.13335E-03 10206   0.303E-03 0.245E-03
CGA:   7    -0.367389056684E+03   -0.33757E-04   -0.15891E-03 10206   0.140E-02-0.559E-03
CGA:   8    -0.367389101445E+03   -0.44761E-04   -0.96655E-04 10206   0.226E-03 0.432E-03
CGA:   9    -0.367389110520E+03   -0.90745E-05   -0.22553E-04 10206   0.101E-03 0.126E-03
CGA:  10    -0.367389165663E+03   -0.55143E-04    0.17128E-04 10206   0.502E-04 0.889E-05
CGA:  11    -0.367389163412E+03    0.22510E-05   -0.27023E-05 10206   0.245E-04 0.385E-04
  34 F= -.36738916E+03 E0= -.36738916E+03  d E =0.356572E-03  mag=    16.0000
       N       E                     dE             d eps       ncg     rms          ort
SDA:   1    -0.365878166090E+03    0.15110E+01    0.00000E+00 10206   0.358E+01 0.000E+00
CGA:   2    -0.367056438647E+03   -0.11783E+01   -0.11779E+01 10206   0.128E+01 0.201E-02
CGA:   3    -0.367282278493E+03   -0.22584E+00   -0.22582E+00 10206   0.424E+00 0.678E-02
CGA:   4    -0.367341623392E+03   -0.59345E-01   -0.59097E-01 10206   0.849E-01-0.933E-02
CGA:   5    -0.367356504019E+03   -0.14881E-01   -0.14855E-01 10206   0.220E-01 0.325E-02
CGA:   6    -0.367361304316E+03   -0.48003E-02   -0.48697E-02 10206   0.780E-02-0.166E-02
CGA:   7    -0.367362507393E+03   -0.12031E-02   -0.12099E-02 10206   0.263E-02 0.119E-02
CGA:   8    -0.367363337401E+03   -0.83001E-03   -0.96022E-03 10206   0.260E-02-0.904E-03
CGA:   9    -0.367363536323E+03   -0.19892E-03   -0.21960E-03 10206   0.137E-02 0.402E-03
CGA:  10    -0.367363740637E+03   -0.20431E-03   -0.21678E-03 10206   0.672E-03 0.303E-03
CGA:  11    -0.367363901040E+03   -0.16040E-03   -0.23463E-03 10206   0.111E-02-0.672E-03
CGA:  12    -0.367363951710E+03   -0.50669E-04   -0.90224E-04 10206   0.246E-03 0.397E-03
CGA:  13    -0.367363977819E+03   -0.26110E-04   -0.34656E-04 10206   0.960E-04 0.118E-03
CGA:  14    -0.367363221675E+03    0.75614E-03   -0.40893E-03 10206   0.577E-02-0.962E-03
CGA:  15    -0.367363683666E+03   -0.46199E-03   -0.61492E-03 10206   0.117E-02 0.756E-03
CGA:  16    -0.367363983417E+03   -0.29975E-03   -0.28700E-03 10206   0.781E-04-0.146E-03
CGA:  17    -0.367363968775E+03    0.14642E-04   -0.55107E-04 10206   0.500E-03-0.138E-03
CGA:  18    -0.367363968260E+03    0.51462E-06   -0.41288E-04 10206   0.997E-04 0.172E-03
CGA:  19    -0.367363971264E+03   -0.30034E-05   -0.13151E-04 10206   0.336E-04 0.471E-04
CGA:  20    -0.367363530821E+03    0.44044E-03   -0.69208E-04 10206   0.321E-02-0.466E-03
CGA:  21    -0.367363775125E+03   -0.24430E-03   -0.37102E-03 10206   0.647E-03 0.535E-03
CGA:  22    -0.367363955442E+03   -0.18032E-03   -0.16445E-03 10206   0.798E-04-0.125E-03
CGA:  23    -0.367363969471E+03   -0.14029E-04   -0.15038E-04 10206   0.115E-04 0.962E-05
CGA:  24    -0.367363968113E+03    0.13584E-05   -0.87120E-06 10206   0.522E-05 0.838E-05
  35 F= -.36736397E+03 E0= -.36736397E+03  d E =0.251953E-01  mag=    16.0000
       N       E                     dE             d eps       ncg     rms          ort
SDA:   1    -0.366803309521E+03    0.56066E+00    0.00000E+00 10206   0.127E+01 0.000E+00
CGA:   2    -0.367281925502E+03   -0.47862E+00   -0.47874E+00 10206   0.334E+00-0.200E-02
CGA:   3    -0.367342828885E+03   -0.60903E-01   -0.61272E-01 10206   0.126E+00 0.336E-02
CGA:   4    -0.367360574921E+03   -0.17746E-01   -0.17250E-01 10206   0.262E-01-0.398E-02
CGA:   5    -0.367365319134E+03   -0.47442E-02   -0.48655E-02 10206   0.592E-02 0.117E-02
CGA:   6    -0.367366844719E+03   -0.15256E-02   -0.14838E-02 10206   0.302E-02-0.794E-03
CGA:   7    -0.367367257248E+03   -0.41253E-03   -0.43834E-03 10206   0.103E-02 0.213E-03
CGA:   8    -0.367367586676E+03   -0.32943E-03   -0.33840E-03 10206   0.895E-03-0.375E-03
CGA:   9    -0.367367697464E+03   -0.11079E-03   -0.10539E-03 10206   0.421E-03-0.538E-04
CGA:  10    -0.367367801938E+03   -0.10447E-03   -0.10025E-03 10206   0.240E-03-0.160E-03
CGA:  11    -0.367367730261E+03    0.71676E-04   -0.10103E-03 10206   0.121E-02-0.433E-03
CGA:  12    -0.367367816018E+03   -0.85757E-04   -0.13192E-03 10206   0.282E-03 0.244E-03
CGA:  13    -0.367367920517E+03   -0.10450E-03   -0.12152E-03 10206   0.281E-03-0.245E-03
CGA:  14    -0.367367941120E+03   -0.20603E-04   -0.36344E-04 10206   0.504E-04 0.964E-04
CGA:  15    -0.367367957574E+03   -0.16453E-04   -0.15656E-04 10206   0.230E-04-0.150E-04
CGA:  16    -0.367367959430E+03   -0.18558E-05   -0.25030E-05 10206   0.140E-04 0.511E-05
  36 F= -.36736796E+03 E0= -.36736796E+03  d E =-.399132E-02  mag=    16.0000
       N       E                     dE             d eps       ncg     rms          ort
SDA:   1    -0.366930513649E+03    0.43744E+00    0.00000E+00 10206   0.108E+01 0.000E+00
CGA:   2    -0.367289755143E+03   -0.35924E+00   -0.35941E+00 10206   0.372E+00-0.316E-02
CGA:   3    -0.367358568658E+03   -0.68814E-01   -0.68958E-01 10206   0.108E+00 0.167E-02
CGA:   4    -0.367373929564E+03   -0.15361E-01   -0.15339E-01 10206   0.244E-01-0.333E-03
CGA:   5    -0.367378114216E+03   -0.41847E-02   -0.42465E-02 10206   0.675E-02 0.684E-03
CGA:   6    -0.367379478306E+03   -0.13641E-02   -0.13514E-02 10206   0.212E-02-0.190E-03
CGA:   7    -0.367379863070E+03   -0.38476E-03   -0.39881E-03 10206   0.765E-03 0.215E-03
CGA:   8    -0.367380112388E+03   -0.24932E-03   -0.26459E-03 10206   0.835E-03-0.263E-03
CGA:   9    -0.367380149101E+03   -0.36713E-04   -0.59119E-04 10206   0.403E-03 0.149E-03
CGA:  10    -0.367380176910E+03   -0.27809E-04   -0.48258E-04 10206   0.212E-03 0.137E-03
CGA:  11    -0.367380226857E+03   -0.49948E-04   -0.48815E-04 10206   0.926E-04-0.158E-04
CGA:  12    -0.367380244727E+03   -0.17870E-04   -0.34129E-04 10206   0.280E-03-0.103E-03
CGA:  13    -0.367380246089E+03   -0.13620E-05   -0.19166E-04 10206   0.557E-04 0.992E-04
  37 F= -.36738025E+03 E0= -.36738025E+03  d E =-.122867E-01  mag=    16.0000
       N       E                     dE             d eps       ncg     rms          ort
SDA:   1    -0.367340741883E+03    0.39503E-01    0.00000E+00 10206   0.924E-01 0.000E+00
CGA:   2    -0.367368172256E+03   -0.27430E-01   -0.27302E-01 10206   0.423E-01 0.195E-02
CGA:   3    -0.367375177472E+03   -0.70052E-02   -0.69410E-02 10206   0.133E-01-0.900E-03
CGA:   4    -0.367376974855E+03   -0.17974E-02   -0.18672E-02 10206   0.271E-02 0.816E-03
CGA:   5    -0.367377610326E+03   -0.63547E-03   -0.63192E-03 10206   0.125E-02-0.585E-03
CGA:   6    -0.367377748041E+03   -0.13771E-03   -0.14544E-03 10206   0.308E-03 0.101E-03
CGA:   7    -0.367377806638E+03   -0.58597E-04   -0.59297E-04 10206   0.117E-03 0.160E-04
CGA:   8    -0.367377837957E+03   -0.31319E-04   -0.46412E-04 10206   0.184E-03-0.956E-04
CGA:   9    -0.367377841486E+03   -0.35288E-05   -0.14897E-04 10206   0.456E-04 0.777E-04
  38 F= -.36737784E+03 E0= -.36737784E+03  d E =0.240460E-02  mag=    16.0000
       N       E                     dE             d eps       ncg     rms          ort
SDA:   1    -0.367353255558E+03    0.24582E-01    0.00000E+00 10206   0.563E-01 0.000E+00
CGA:   2    -0.367370260932E+03   -0.17005E-01   -0.16784E-01 10206   0.256E-01 0.265E-02
CGA:   3    -0.367374487299E+03   -0.42264E-02   -0.40896E-02 10206   0.103E-01-0.216E-02
CGA:   4    -0.367375725952E+03   -0.12387E-02   -0.12936E-02 10206   0.116E-02 0.716E-03
CGA:   5    -0.367375983399E+03   -0.25745E-03   -0.25754E-03 10206   0.439E-03 0.279E-04
CGA:   6    -0.367376042056E+03   -0.58657E-04   -0.17440E-03 10206   0.173E-02-0.657E-03
CGA:   7    -0.367376097953E+03   -0.55897E-04   -0.11896E-03 10206   0.187E-03 0.419E-03
CGA:   8    -0.367376101217E+03   -0.32645E-05   -0.17059E-04 10206   0.836E-04 0.990E-04
CGA:   9    -0.367376146872E+03   -0.45655E-04    0.26246E-04 10206   0.441E-04 0.957E-05
CGA:  10    -0.367376143913E+03    0.29599E-05   -0.23659E-05 10206   0.206E-04 0.338E-04
  39 F= -.36737614E+03 E0= -.36737614E+03  d E =0.169757E-02  mag=    16.0000
       N       E                     dE             d eps       ncg     rms          ort
SDA:   1    -0.367267532675E+03    0.10861E+00    0.00000E+00 10206   0.245E+00 0.000E+00
CGA:   2    -0.367353640528E+03   -0.86108E-01   -0.86104E-01 10206   0.810E-01 0.269E-05
CGA:   3    -0.367367291709E+03   -0.13651E-01   -0.13672E-01 10206   0.256E-01 0.758E-03
CGA:   4    -0.367371185089E+03   -0.38934E-02   -0.38157E-02 10206   0.617E-02-0.165E-02
CGA:   5    -0.367372044940E+03   -0.85985E-03   -0.88619E-03 10206   0.131E-02 0.661E-03
CGA:   6    -0.367372364677E+03   -0.31974E-03   -0.32160E-03 10206   0.421E-03-0.619E-04
CGA:   7    -0.367372445535E+03   -0.80858E-04   -0.80465E-04 10206   0.133E-03 0.526E-04
CGA:   8    -0.367372074144E+03    0.37139E-03   -0.20215E-03 10206   0.260E-02-0.526E-03
CGA:   9    -0.367372406221E+03   -0.33208E-03   -0.38712E-03 10206   0.411E-03 0.270E-03
CGA:  10    -0.367372546987E+03   -0.14077E-03   -0.12163E-03 10206   0.458E-03-0.256E-03
CGA:  11    -0.367372535567E+03    0.11420E-04   -0.30075E-04 10206   0.749E-04 0.152E-03
CGA:  12    -0.367372528545E+03    0.70225E-05   -0.59241E-05 10206   0.359E-04 0.487E-04
CGA:  13    -0.367372559647E+03   -0.31103E-04    0.14486E-04 10206   0.220E-04-0.272E-06
CGA:  14    -0.367372556118E+03    0.35297E-05   -0.87857E-06 10206   0.129E-04 0.162E-04
  40 F= -.36737256E+03 E0= -.36737256E+03  d E =0.358779E-02  mag=    16.0000
       N       E                     dE             d eps       ncg     rms          ort
SDA:   1    -0.367049720719E+03    0.32284E+00    0.00000E+00 10206   0.739E+00 0.000E+00
CGA:   2    -0.367306829491E+03   -0.25711E+00   -0.25713E+00 10206   0.246E+00-0.462E-03
CGA:   3    -0.367348858305E+03   -0.42029E-01   -0.42271E-01 10206   0.805E-01 0.255E-02
CGA:   4    -0.367360532586E+03   -0.11674E-01   -0.11255E-01 10206   0.161E-01-0.329E-02
CGA:   5    -0.367363228133E+03   -0.26955E-02   -0.27863E-02 10206   0.378E-02 0.968E-03
CGA:   6    -0.367364149931E+03   -0.92180E-03   -0.90082E-03 10206   0.151E-02-0.464E-03
CGA:   7    -0.367364314753E+03   -0.16482E-03   -0.19582E-03 10206   0.465E-03 0.257E-03
CGA:   8    -0.367364478693E+03   -0.16394E-03   -0.17546E-03 10206   0.454E-03-0.190E-03
CGA:   9    -0.367364539511E+03   -0.60818E-04   -0.57128E-04 10206   0.294E-03-0.702E-04
CGA:  10    -0.367364582084E+03   -0.42573E-04   -0.42645E-04 10206   0.134E-03 0.749E-06
CGA:  11    -0.367364618745E+03   -0.36661E-04   -0.41554E-04 10206   0.130E-03-0.961E-04
CGA:  12    -0.367364626685E+03   -0.79400E-05   -0.14834E-04 10206   0.343E-04 0.471E-04
CGA:  13    -0.367364638181E+03   -0.11496E-04   -0.19414E-04 10206   0.707E-04-0.486E-04
CGA:  14    -0.367364645499E+03   -0.73179E-05   -0.99584E-05 10206   0.114E-04 0.219E-04
  41 F= -.36736465E+03 E0= -.36736465E+03  d E =0.791062E-02  mag=    16.0000
       N       E                     dE             d eps       ncg     rms          ort
SDA:   1    -0.367159254986E+03    0.20538E+00    0.00000E+00 10206   0.488E+00 0.000E+00
CGA:   2    -0.367314020830E+03   -0.15477E+00   -0.15474E+00 10206   0.203E+00 0.183E-03
CGA:   3    -0.367344957937E+03   -0.30937E-01   -0.31157E-01 10206   0.677E-01 0.298E-02
CGA:   4    -0.367355740874E+03   -0.10783E-01   -0.10594E-01 10206   0.132E-01-0.214E-02
CGA:   5    -0.367357899833E+03   -0.21590E-02   -0.21973E-02 10206   0.341E-02 0.508E-03
CGA:   6    -0.367358675118E+03   -0.77528E-03   -0.76788E-03 10206   0.123E-02-0.273E-03
CGA:   7    -0.367358805945E+03   -0.13083E-03   -0.15913E-03 10206   0.391E-03 0.278E-03
CGA:   8    -0.367358934591E+03   -0.12865E-03   -0.12997E-03 10206   0.234E-03-0.402E-04
CGA:   9    -0.367358991273E+03   -0.56681E-04   -0.57681E-04 10206   0.159E-03-0.285E-04
CGA:  10    -0.367359001009E+03   -0.97368E-05   -0.16497E-04 10206   0.705E-04 0.550E-04
CGA:  11    -0.367359012945E+03   -0.11936E-04   -0.13774E-04 10206   0.270E-04 0.204E-04
CGA:  12    -0.367359029564E+03   -0.16620E-04    0.11463E-03 10206   0.244E-04-0.685E-05
CGA:  13    -0.367359028552E+03    0.10126E-05   -0.95449E-06 10206   0.168E-04 0.110E-04
  42 F= -.36735903E+03 E0= -.36735903E+03  d E =0.561695E-02  mag=    16.0000
       N       E                     dE             d eps       ncg     rms          ort
SDA:   1    -0.367151125516E+03    0.20790E+00    0.00000E+00 10206   0.490E+00 0.000E+00
CGA:   2    -0.367329554082E+03   -0.17843E+00   -0.17870E+00 10206   0.137E+00-0.176E-02
CGA:   3    -0.367354833995E+03   -0.25280E-01   -0.25333E-01 10206   0.411E-01 0.152E-02
CGA:   4    -0.367360757494E+03   -0.59235E-02   -0.58932E-02 10206   0.101E-01-0.411E-03
CGA:   5    -0.367362499194E+03   -0.17417E-02   -0.17517E-02 10206   0.257E-02 0.257E-03
CGA:   6    -0.367363050786E+03   -0.55159E-03   -0.55090E-03 10206   0.905E-03-0.189E-03
CGA:   7    -0.367363177425E+03   -0.12664E-03   -0.13569E-03 10206   0.270E-03 0.179E-03
CGA:   8    -0.367363266841E+03   -0.89415E-04   -0.94426E-04 10206   0.211E-03-0.606E-04
CGA:   9    -0.367363277020E+03   -0.10179E-04   -0.18102E-04 10206   0.112E-03 0.766E-04
CGA:  10    -0.367363286645E+03   -0.96246E-05   -0.15684E-04 10206   0.428E-04 0.571E-04
CGA:  11    -0.367363310984E+03   -0.24340E-04    0.10912E-04 10206   0.209E-04 0.852E-05
CGA:  12    -0.367363308872E+03    0.21118E-05   -0.10656E-05 10206   0.127E-04 0.197E-04
  43 F= -.36736331E+03 E0= -.36736331E+03  d E =-.428032E-02  mag=    16.0000
       N       E                     dE             d eps       ncg     rms          ort
SDA:   1    -0.367340171343E+03    0.23140E-01    0.00000E+00 10206   0.601E-01 0.000E+00
CGA:   2    -0.367357528578E+03   -0.17357E-01   -0.17468E-01 10206   0.321E-01-0.109E-02
CGA:   3    -0.367362357033E+03   -0.48285E-02   -0.48445E-02 10206   0.827E-02 0.419E-03
CGA:   4    -0.367363921542E+03   -0.15645E-02   -0.15612E-02 10206   0.286E-02-0.850E-03
CGA:   5    -0.367364255098E+03   -0.33356E-03   -0.35200E-03 10206   0.625E-03 0.350E-03
CGA:   6    -0.367364394368E+03   -0.13927E-03   -0.13944E-03 10206   0.218E-03-0.153E-04
CGA:   7    -0.367364434032E+03   -0.39664E-04   -0.86930E-04 10206   0.487E-03-0.214E-03
CGA:   8    -0.367364456803E+03   -0.22771E-04   -0.40329E-04 10206   0.779E-04 0.151E-03
CGA:   9    -0.367364465430E+03   -0.86262E-05   -0.10999E-04 10206   0.276E-04 0.278E-04
CGA:  10    -0.367364482423E+03   -0.16993E-04    0.17620E-04 10206   0.154E-04-0.416E-05
CGA:  11    -0.367364482493E+03   -0.70373E-07   -0.89901E-06 10206   0.897E-05 0.690E-05
  44 F= -.36736448E+03 E0= -.36736448E+03  d E =-.117362E-02  mag=    16.0000
       N       E                     dE             d eps       ncg     rms          ort
SDA:   1    -0.367345249725E+03    0.19233E-01    0.00000E+00 10206   0.422E-01 0.000E+00
CGA:   2    -0.367359600851E+03   -0.14351E-01   -0.14301E-01 10206   0.130E-01 0.299E-03
CGA:   3    -0.367362027416E+03   -0.24266E-02   -0.24255E-02 10206   0.385E-02 0.761E-03
CGA:   4    -0.367362754957E+03   -0.72754E-03   -0.71608E-03 10206   0.207E-02-0.138E-02
CGA:   5    -0.367362856352E+03   -0.10140E-03   -0.13222E-03 10206   0.580E-03 0.369E-03
CGA:   6    -0.367362869369E+03   -0.13017E-04   -0.43276E-04 10206   0.209E-03 0.260E-03
CGA:   7    -0.367362884810E+03   -0.15441E-04   -0.25593E-04 10206   0.112E-03 0.114E-03
CGA:   8    -0.367362941404E+03   -0.56594E-04    0.19351E-04 10206   0.858E-04-0.166E-04
CGA:   9    -0.367362940329E+03    0.10745E-05   -0.44641E-05 10206   0.483E-04 0.512E-04
  45 F= -.36736294E+03 E0= -.36736294E+03  d E =0.154216E-02  mag=    16.0000
