       N       E                     dE             d eps       ncg     rms          ort
DAV:   1     0.295010064143E+04    0.29501E+04   -0.14014E+05 11088   0.176E+03
DAV:   2     0.104107857452E+02   -0.29397E+04   -0.27113E+04 11088   0.451E+02
DAV:   3    -0.411907286394E+03   -0.42232E+03   -0.40497E+03 11088   0.188E+02
DAV:   4    -0.433141382193E+03   -0.21234E+02   -0.20969E+02 11088   0.415E+01
DAV:   5    -0.434151135385E+03   -0.10098E+01   -0.10055E+01 11088   0.684E+00
SDA:   6    -0.354410414462E+03    0.79741E+02   -0.10055E+01 11088   0.179E+02 0.000E+00
CGA:   7    -0.357533628805E+03   -0.31232E+01   -0.31291E+01 11088   0.390E+01-0.265E-01
CGA:   8    -0.358218620613E+03   -0.68499E+00   -0.68380E+00 11088   0.155E+01-0.108E+00
CGA:   9    -0.358596199101E+03   -0.37758E+00   -0.38245E+00 11088   0.773E+00-0.985E-01
CGA:  10    -0.358737670796E+03   -0.14147E+00   -0.14115E+00 11088   0.322E+00-0.593E-01
CGA:  11    -0.358811458768E+03   -0.73788E-01   -0.75724E-01 11088   0.159E+00-0.343E-01
CGA:  12    -0.358844955294E+03   -0.33497E-01   -0.34062E-01 11088   0.631E-01-0.146E-01
CGA:  13    -0.358858827785E+03   -0.13872E-01   -0.14073E-01 11088   0.212E-01-0.465E-02
CGA:  14    -0.358864550095E+03   -0.57223E-02   -0.61334E-02 11088   0.116E-01-0.375E-02
CGA:  15    -0.358867306274E+03   -0.27562E-02   -0.46581E-02 11088   0.155E-01-0.674E-02
CGA:  16    -0.358870078207E+03   -0.27719E-02   -0.27907E-02 11088   0.255E-02 0.411E-03
CGA:  17    -0.358870967773E+03   -0.88957E-03   -0.89309E-03 11088   0.107E-02-0.219E-04
CGA:  18    -0.358871464019E+03   -0.49625E-03   -0.76147E-03 11088   0.190E-02-0.522E-03
CGA:  19    -0.358871794592E+03   -0.33057E-03   -0.40091E-03 11088   0.149E-02-0.423E-03
CGA:  20    -0.358872178724E+03   -0.38413E-03   -0.55508E-03 11088   0.158E-02-0.772E-03
CGA:  21    -0.358872662334E+03   -0.48361E-03   -0.48611E-03 11088   0.449E-03-0.722E-04
CGA:  22    -0.358872134428E+03    0.52791E-03   -0.34411E-03 11088   0.369E-02-0.906E-03
CGA:  23    -0.358873265017E+03   -0.11306E-02   -0.10412E-02 11088   0.723E-03-0.410E-03
CGA:  24    -0.358873527459E+03   -0.26244E-03   -0.26508E-03 11088   0.154E-03 0.342E-04
CGA:  25    -0.358873557258E+03   -0.29799E-04   -0.39559E-04 11088   0.459E-04 0.405E-04
CGA:  26    -0.358873543210E+03    0.14048E-04   -0.50656E-05 11088   0.358E-04 0.495E-04
CGA:  27    -0.358873533369E+03    0.98408E-05   -0.24929E-05 11088   0.293E-04 0.321E-04
   1 F= -.35887353E+03 E0= -.35887353E+03  d E =-.358874E+03  mag=    12.0000
