       N       E                     dE             d eps       ncg     rms          rms(c)
DAV:   1     0.281644009379E+04    0.28164E+04   -0.13340E+05 24208   0.152E+03
DAV:   2    -0.249155434206E+02   -0.28414E+04   -0.27559E+04 27000   0.437E+02
DAV:   3    -0.308091020982E+03   -0.28318E+03   -0.27723E+03 28096   0.150E+02
DAV:   4    -0.323295486633E+03   -0.15204E+02   -0.14713E+02 38288   0.362E+01
DAV:   5    -0.324359871372E+03   -0.10644E+01   -0.10503E+01 43536   0.639E+00    0.712E+01
DAV:   6    -0.291804702791E+03    0.32555E+02   -0.30830E+02 32912   0.503E+01    0.523E+01
DAV:   7    -0.318384739050E+03   -0.26580E+02   -0.19262E+02 34984   0.750E+01    0.661E+01
DAV:   8    -0.302026590512E+03    0.16358E+02   -0.10535E+02 33400   0.514E+01    0.520E+01
DAV:   9    -0.285900441570E+03    0.16126E+02   -0.53447E+01 33808   0.229E+01    0.317E+01
DAV:  10    -0.292048457534E+03   -0.61480E+01   -0.48392E+01 34384   0.147E+01    0.357E+01
DAV:  11    -0.283944094459E+03    0.81044E+01   -0.11003E+01 34176   0.121E+01    0.231E+01
DAV:  12    -0.285030049293E+03   -0.10860E+01   -0.10525E+00 33896   0.345E+00    0.162E+01
DAV:  13    -0.285585542112E+03   -0.55549E+00   -0.14584E+01 33384   0.530E+00    0.241E+01
DAV:  14    -0.285354105496E+03    0.23144E+00   -0.16109E+00 32336   0.235E+00    0.139E+01
DAV:  15    -0.285651076891E+03   -0.29697E+00   -0.20379E-01 31128   0.114E+00    0.130E+01
DAV:  16    -0.285593089863E+03    0.57987E-01   -0.22380E-01 35504   0.195E+00    0.106E+01
DAV:  17    -0.285802744114E+03   -0.20965E+00   -0.17390E+00 34472   0.245E+00    0.137E+01
DAV:  18    -0.285957991806E+03   -0.15525E+00   -0.15163E-01 29624   0.106E+00    0.149E+01
DAV:  19    -0.285817759073E+03    0.14023E+00   -0.74661E-02 32736   0.867E-01    0.138E+01
DAV:  20    -0.285863854314E+03   -0.46095E-01   -0.20827E+00 35032   0.168E+00    0.109E+01
DAV:  21    -0.285851238126E+03    0.12616E-01   -0.75992E-02 28368   0.107E+00    0.981E+00
DAV:  22    -0.285757648336E+03    0.93590E-01   -0.12226E+00 36440   0.131E+00    0.939E+00
DAV:  23    -0.285678537699E+03    0.79111E-01   -0.40181E-01 31608   0.109E+00    0.668E+00
DAV:  24    -0.285697038721E+03   -0.18501E-01   -0.28424E-02 29136   0.587E-01    0.642E+00
DAV:  25    -0.285687902935E+03    0.91358E-02   -0.77221E-03 30864   0.311E-01    0.681E+00
DAV:  26    -0.285675408746E+03    0.12494E-01   -0.60478E-03 34648   0.247E-01    0.642E+00
DAV:  27    -0.285637848237E+03    0.37561E-01   -0.68750E-02 33744   0.631E-01    0.515E+00
DAV:  28    -0.285633534871E+03    0.43134E-02   -0.14861E-02 32232   0.283E-01    0.481E+00
DAV:  29    -0.285629672782E+03    0.38621E-02   -0.10820E-03 26872   0.128E-01    0.478E+00
DAV:  30    -0.285628355196E+03    0.13176E-02   -0.15369E-02 34008   0.363E-01    0.414E+00
DAV:  31    -0.285626634969E+03    0.17202E-02   -0.10251E-01 33680   0.548E-01    0.300E+00
DAV:  32    -0.285632393460E+03   -0.57585E-02   -0.34309E-03 27360   0.224E-01    0.289E+00
DAV:  33    -0.285634963961E+03   -0.25705E-02   -0.62114E-03 36264   0.204E-01    0.308E+00
DAV:  34    -0.285648189314E+03   -0.13225E-01   -0.27818E-03 32192   0.180E-01    0.299E+00
DAV:  35    -0.285675586202E+03   -0.27397E-01   -0.42218E-02 33096   0.533E-01    0.178E+00
DAV:  36    -0.285682108440E+03   -0.65222E-02   -0.88783E-03 32968   0.274E-01    0.165E+00
DAV:  37    -0.285688903966E+03   -0.67955E-02   -0.28259E-03 33928   0.178E-01    0.149E+00
DAV:  38    -0.285692124679E+03   -0.32207E-02   -0.11071E-02 31016   0.146E-01    0.175E+00
DAV:  39    -0.285691945075E+03    0.17960E-03   -0.59764E-04 29360   0.946E-02    0.158E+00
DAV:  40    -0.285691484603E+03    0.46047E-03   -0.34212E-04 29392   0.450E-02    0.150E+00
DAV:  41    -0.285693966184E+03   -0.24816E-02   -0.81102E-04 30064   0.980E-02    0.129E+00
DAV:  42    -0.285697143221E+03   -0.31770E-02   -0.62051E-03 33584   0.242E-01    0.484E-01
DAV:  43    -0.285698438817E+03   -0.12956E-02   -0.31450E-03 32592   0.126E-01    0.696E-01
DAV:  44    -0.285697974399E+03    0.46442E-03   -0.99656E-04 31096   0.814E-02    0.464E-01
DAV:  45    -0.285698059578E+03   -0.85179E-04   -0.14159E-04 28448   0.330E-02    0.393E-01
DAV:  46    -0.285698090330E+03   -0.30752E-04   -0.25074E-04 21176   0.337E-02    0.298E-01
DAV:  47    -0.285698253288E+03   -0.16296E-03   -0.36257E-04 28248   0.557E-02    0.188E-01
DAV:  48    -0.285698339085E+03   -0.85797E-04   -0.12262E-04 22896   0.362E-02    0.145E-01
DAV:  49    -0.285698386204E+03   -0.47119E-04   -0.12767E-04 26264   0.352E-02    0.884E-02
DAV:  50    -0.285698394208E+03   -0.80038E-05   -0.10330E-04 19840   0.223E-02    0.515E-02
DAV:  51    -0.285698406405E+03   -0.12197E-04   -0.26702E-05 17448   0.181E-02    0.633E-02
DAV:  52    -0.285698406876E+03   -0.47110E-06   -0.98608E-06 14696   0.110E-02
   1 F= -.28569841E+03 E0= -.28568694E+03  d E =-.285698E+03  mag=     9.9992
       N       E                     dE             d eps       ncg     rms          rms(c)
DAV:   1    -0.285710899949E+03   -0.12494E-01   -0.59688E-03 25040   0.267E-01    0.401E-02
DAV:   2    -0.285710968701E+03   -0.68751E-04   -0.72164E-04 30112   0.629E-02    0.203E-01
DAV:   3    -0.285710899599E+03    0.69102E-04   -0.39811E-04 23720   0.388E-02    0.453E-02
DAV:   4    -0.285710927578E+03   -0.27979E-04   -0.64341E-05 18024   0.159E-02    0.560E-02
DAV:   5    -0.285710923026E+03    0.45520E-05   -0.16278E-05 14968   0.125E-02
   2 F= -.28571092E+03 E0= -.28569951E+03  d E =-.125161E-01  mag=     9.9999
       N       E                     dE             d eps       ncg     rms          rms(c)
DAV:   1    -0.286266715281E+03   -0.55579E+00   -0.23599E+01 24768   0.168E+01    0.217E+00
DAV:   2    -0.286495490615E+03   -0.22878E+00   -0.26008E+00 29296   0.380E+00    0.101E+01
DAV:   3    -0.286368311729E+03    0.12718E+00   -0.15772E+00 36208   0.180E+00    0.570E+00
DAV:   4    -0.286357037356E+03    0.11274E-01   -0.41023E-01 36016   0.103E+00    0.180E+00
DAV:   5    -0.286366774184E+03   -0.97368E-02   -0.60931E-02 34192   0.661E-01    0.216E+00
DAV:   6    -0.286361657882E+03    0.51163E-02   -0.69908E-02 34080   0.405E-01    0.114E+00
DAV:   7    -0.286361792617E+03   -0.13473E-03   -0.16300E-02 29912   0.379E-01    0.588E-01
DAV:   8    -0.286363644657E+03   -0.18520E-02   -0.72545E-03 32248   0.166E-01    0.779E-01
DAV:   9    -0.286363439138E+03    0.20552E-03   -0.52982E-04 32224   0.678E-02    0.849E-01
DAV:  10    -0.286362989896E+03    0.44924E-03   -0.83268E-05 24144   0.328E-02    0.912E-01
DAV:  11    -0.286362822890E+03    0.16701E-03   -0.56204E-04 29776   0.643E-02    0.683E-01
DAV:  12    -0.286362893298E+03   -0.70407E-04   -0.25568E-03 32592   0.120E-01    0.323E-01
DAV:  13    -0.286362912546E+03   -0.19248E-04   -0.13352E-03 28656   0.100E-01    0.238E-01
DAV:  14    -0.286363157490E+03   -0.24494E-03   -0.11785E-03 32016   0.620E-02    0.248E-01
DAV:  15    -0.286363197946E+03   -0.40455E-04   -0.14290E-04 24288   0.318E-02    0.274E-01
DAV:  16    -0.286363146105E+03    0.51840E-04   -0.14527E-05 16848   0.148E-02    0.273E-01
DAV:  17    -0.286363101597E+03    0.44508E-04   -0.87769E-06 15624   0.135E-02    0.277E-01
DAV:  18    -0.286363139298E+03   -0.37701E-04   -0.97435E-05 23608   0.410E-02    0.177E-01
DAV:  19    -0.286363164644E+03   -0.25347E-04   -0.27743E-04 27408   0.366E-02    0.463E-02
DAV:  20    -0.286363196231E+03   -0.31586E-04   -0.48488E-05 19432   0.241E-02    0.356E-02
DAV:  21    -0.286363200925E+03   -0.46941E-05   -0.19935E-05 15104   0.151E-02
   3 F= -.28636320E+03 E0= -.28635190E+03  d E =-.652278E+00  mag=    10.0000
       N       E                     dE             d eps       ncg     rms          rms(c)
DAV:   1    -0.286740796592E+03   -0.37760E+00   -0.50770E+01 25056   0.251E+01    0.276E+00
DAV:   2    -0.287223772840E+03   -0.48298E+00   -0.53221E+00 29096   0.557E+00    0.142E+01
DAV:   3    -0.287005478121E+03    0.21829E+00   -0.32692E+00 36240   0.227E+00    0.906E+00
DAV:   4    -0.286948007947E+03    0.57470E-01   -0.85603E-01 36056   0.146E+00    0.199E+00
DAV:   5    -0.286971069521E+03   -0.23062E-01   -0.55849E-02 32136   0.826E-01    0.160E+00
DAV:   6    -0.286978096130E+03   -0.70266E-02   -0.13619E-01 34416   0.563E-01    0.334E+00
DAV:   7    -0.286960657372E+03    0.17439E-01   -0.13801E-01 33848   0.667E-01    0.774E-01
DAV:   8    -0.286971027760E+03   -0.10370E-01   -0.19467E-02 30288   0.296E-01    0.105E+00
DAV:   9    -0.286970673170E+03    0.35459E-03   -0.13245E-03 32696   0.107E-01    0.116E+00
DAV:  10    -0.286968913533E+03    0.17596E-02   -0.10624E-03 32792   0.917E-02    0.128E+00
DAV:  11    -0.286968643551E+03    0.26998E-03   -0.17014E-04 28752   0.358E-02    0.134E+00
DAV:  12    -0.286968557839E+03    0.85712E-04   -0.11453E-05 16872   0.128E-02    0.135E+00
DAV:  13    -0.286968227101E+03    0.33074E-03   -0.16393E-03 31992   0.881E-02    0.165E+00
DAV:  14    -0.286967780729E+03    0.44637E-03   -0.63380E-04 31112   0.521E-02    0.184E+00
DAV:  15    -0.286967689319E+03    0.91411E-04   -0.33197E-04 28904   0.521E-02    0.194E+00
DAV:  16    -0.286967887021E+03   -0.19770E-03   -0.48063E-03 31712   0.196E-01    0.153E+00
DAV:  17    -0.286968310286E+03   -0.42326E-03   -0.57440E-03 33056   0.222E-01    0.794E-01
DAV:  18    -0.286968977722E+03   -0.66744E-03   -0.31068E-03 33256   0.136E-01    0.404E-01
DAV:  19    -0.286969458363E+03   -0.48064E-03   -0.13770E-03 28952   0.827E-02    0.454E-01
DAV:  20    -0.286969008948E+03    0.44941E-03   -0.10075E-03 31184   0.926E-02    0.602E-01
DAV:  21    -0.286968411381E+03    0.59757E-03   -0.56422E-04 30904   0.639E-02    0.741E-01
DAV:  22    -0.286968692573E+03   -0.28119E-03   -0.51480E-05 22024   0.312E-02    0.709E-01
DAV:  23    -0.286969351769E+03   -0.65920E-03   -0.63903E-04 29864   0.861E-02    0.524E-01
DAV:  24    -0.286969797255E+03   -0.44549E-03   -0.13370E-03 31624   0.110E-01    0.254E-01
DAV:  25    -0.286969963246E+03   -0.16599E-03   -0.69058E-04 32840   0.661E-02    0.151E-01
DAV:  26    -0.286970026889E+03   -0.63642E-04   -0.20586E-04 26608   0.411E-02    0.685E-02
DAV:  27    -0.286970057703E+03   -0.30814E-04   -0.10790E-04 21064   0.256E-02    0.481E-02
DAV:  28    -0.286970069528E+03   -0.11825E-04   -0.23389E-05 17912   0.164E-02    0.649E-02
DAV:  29    -0.286970069850E+03   -0.32133E-06   -0.73747E-06 13792   0.104E-02
   4 F= -.28697007E+03 E0= -.28695864E+03  d E =-.606869E+00  mag=    10.0000
       N       E                     dE             d eps       ncg     rms          rms(c)
DAV:   1    -0.287068315734E+03   -0.98246E-01   -0.33812E+01 25056   0.213E+01    0.217E+00
DAV:   2    -0.287419670968E+03   -0.35136E+00   -0.36965E+00 29408   0.469E+00    0.137E+01
DAV:   3    -0.287205537289E+03    0.21413E+00   -0.21246E+00 35456   0.187E+00    0.658E+00
DAV:   4    -0.287218489989E+03   -0.12953E-01   -0.52109E-01 35736   0.111E+00    0.206E+00
DAV:   5    -0.287252056965E+03   -0.33567E-01   -0.24739E-01 33896   0.833E-01    0.442E+00
DAV:   6    -0.287219944904E+03    0.32112E-01   -0.15192E-01 34400   0.732E-01    0.869E-01
DAV:   7    -0.287224884909E+03   -0.49400E-02   -0.16044E-02 30792   0.473E-01    0.480E-01
DAV:   8    -0.287228415856E+03   -0.35309E-02   -0.18531E-02 33840   0.243E-01    0.678E-01
DAV:   9    -0.287229578196E+03   -0.11623E-02   -0.39556E-03 33976   0.127E-01    0.729E-01
DAV:  10    -0.287229295232E+03    0.28296E-03   -0.12592E-03 33064   0.890E-02    0.628E-01
DAV:  11    -0.287229207207E+03    0.88025E-04   -0.56657E-04 32168   0.696E-02    0.478E-01
DAV:  12    -0.287229123880E+03    0.83327E-04   -0.13694E-03 31960   0.113E-01    0.308E-01
DAV:  13    -0.287229153743E+03   -0.29862E-04   -0.13068E-03 33272   0.896E-02    0.149E-01
DAV:  14    -0.287229238053E+03   -0.84310E-04   -0.51753E-04 31336   0.479E-02    0.178E-01
DAV:  15    -0.287229248774E+03   -0.10721E-04   -0.47334E-05 19640   0.226E-02    0.190E-01
DAV:  16    -0.287229217427E+03    0.31348E-04   -0.16460E-05 17544   0.206E-02    0.214E-01
DAV:  17    -0.287229203899E+03    0.13528E-04   -0.32813E-04 28880   0.679E-02    0.773E-02
DAV:  18    -0.287229238284E+03   -0.34386E-04   -0.13627E-04 27352   0.352E-02    0.110E-01
DAV:  19    -0.287229233199E+03    0.50853E-05   -0.48733E-05 21048   0.323E-02
   5 F= -.28722923E+03 E0= -.28721751E+03  d E =-.259163E+00  mag=    10.0000
       N       E                     dE             d eps       ncg     rms          rms(c)
DAV:   1    -0.287207081173E+03    0.22157E-01   -0.30796E+01 25344   0.213E+01    0.203E+00
DAV:   2    -0.287459564087E+03   -0.25248E+00   -0.27803E+00 29080   0.449E+00    0.101E+01
DAV:   3    -0.287335064777E+03    0.12450E+00   -0.12627E+00 35312   0.170E+00    0.413E+00
DAV:   4    -0.287356486851E+03   -0.21422E-01   -0.35397E-01 36304   0.960E-01    0.211E+00
DAV:   5    -0.287356732217E+03   -0.24537E-03   -0.76468E-02 34760   0.675E-01    0.206E+00
DAV:   6    -0.287352145317E+03    0.45869E-02   -0.60869E-02 34432   0.412E-01    0.135E+00
DAV:   7    -0.287348922689E+03    0.32226E-02   -0.16312E-02 31576   0.381E-01    0.523E-01
DAV:   8    -0.287350888583E+03   -0.19659E-02   -0.19114E-02 35904   0.234E-01    0.682E-01
DAV:   9    -0.287352556499E+03   -0.16679E-02   -0.63322E-03 32120   0.165E-01    0.670E-01
DAV:  10    -0.287352379522E+03    0.17698E-03   -0.21482E-03 33672   0.138E-01    0.445E-01
DAV:  11    -0.287352304089E+03    0.75433E-04   -0.17045E-03 33776   0.131E-01    0.241E-01
DAV:  12    -0.287352391868E+03   -0.87779E-04   -0.90545E-04 34560   0.910E-02    0.205E-01
DAV:  13    -0.287352417494E+03   -0.25626E-04   -0.40553E-04 28368   0.468E-02    0.229E-01
DAV:  14    -0.287352410323E+03    0.71708E-05   -0.25763E-04 30264   0.647E-02    0.107E-01
DAV:  15    -0.287352444948E+03   -0.34624E-04   -0.17389E-04 29920   0.415E-02    0.871E-02
DAV:  16    -0.287352439090E+03    0.58580E-05   -0.27600E-05 18424   0.202E-02
   6 F= -.28735244E+03 E0= -.28734059E+03  d E =-.123206E+00  mag=    10.0000
       N       E                     dE             d eps       ncg     rms          rms(c)
DAV:   1    -0.287127969293E+03    0.22448E+00   -0.66037E+01 25344   0.307E+01    0.273E+00
DAV:   2    -0.287562803930E+03   -0.43483E+00   -0.47744E+00 26920   0.611E+00    0.118E+01
DAV:   3    -0.287391390974E+03    0.17141E+00   -0.20208E+00 35464   0.218E+00    0.507E+00
DAV:   4    -0.287425935973E+03   -0.34545E-01   -0.73290E-01 35192   0.119E+00    0.329E+00
DAV:   5    -0.287418242563E+03    0.76934E-02   -0.12319E-01 34200   0.913E-01    0.266E+00
DAV:   6    -0.287410015449E+03    0.82271E-02   -0.90361E-02 34712   0.600E-01    0.164E+00
DAV:   7    -0.287406020083E+03    0.39954E-02   -0.55947E-02 33480   0.550E-01    0.152E+00
DAV:   8    -0.287407793034E+03   -0.17730E-02   -0.79254E-02 34616   0.429E-01    0.108E+00
DAV:   9    -0.287410655383E+03   -0.28623E-02   -0.20791E-02 32592   0.292E-01    0.796E-01
DAV:  10    -0.287410684457E+03   -0.29074E-04   -0.17126E-03 32896   0.122E-01    0.777E-01
DAV:  11    -0.287410145630E+03    0.53883E-03   -0.26765E-04 31456   0.524E-02    0.694E-01
DAV:  12    -0.287410102574E+03    0.43056E-04   -0.31059E-03 32760   0.165E-01    0.588E-01
DAV:  13    -0.287409820539E+03    0.28204E-03   -0.38492E-03 34960   0.138E-01    0.231E-01
DAV:  14    -0.287410083805E+03   -0.26327E-03   -0.73724E-04 29584   0.723E-02    0.274E-01
DAV:  15    -0.287410031147E+03    0.52659E-04   -0.33263E-04 25656   0.412E-02    0.179E-01
DAV:  16    -0.287410087356E+03   -0.56209E-04   -0.26736E-04 24744   0.333E-02    0.137E-01
DAV:  17    -0.287410101995E+03   -0.14639E-04   -0.16223E-04 21064   0.285E-02    0.850E-02
DAV:  18    -0.287410116299E+03   -0.14305E-04   -0.33457E-05 18328   0.195E-02    0.748E-02
DAV:  19    -0.287410117922E+03   -0.16226E-05   -0.50409E-05 20448   0.213E-02
   7 F= -.28741012E+03 E0= -.28739805E+03  d E =-.576788E-01  mag=    10.0000
       N       E                     dE             d eps       ncg     rms          rms(c)
DAV:   1    -0.287394746483E+03    0.15370E-01   -0.15354E+01 25256   0.143E+01    0.107E+00
DAV:   2    -0.287447938512E+03   -0.53192E-01   -0.59397E-01 25704   0.248E+00    0.158E+00
DAV:   3    -0.287452658205E+03   -0.47197E-02   -0.16211E-01 35376   0.696E-01    0.198E+00
DAV:   4    -0.287445984533E+03    0.66737E-02   -0.32060E-02 35712   0.444E-01    0.916E-01
DAV:   5    -0.287445725275E+03    0.25926E-03   -0.13785E-02 34320   0.232E-01    0.627E-01
DAV:   6    -0.287447471747E+03   -0.17465E-02   -0.26885E-02 34856   0.237E-01    0.145E+00
DAV:   7    -0.287444057804E+03    0.34139E-02   -0.18481E-02 34424   0.250E-01    0.642E-01
DAV:   8    -0.287445004331E+03   -0.94653E-03   -0.83224E-03 32656   0.172E-01    0.289E-01
DAV:   9    -0.287445569219E+03   -0.56489E-03   -0.20425E-03 30616   0.910E-02    0.332E-01
DAV:  10    -0.287445449418E+03    0.11980E-03   -0.14337E-04 27464   0.432E-02    0.297E-01
DAV:  11    -0.287445433978E+03    0.15440E-04   -0.17776E-04 30632   0.594E-02    0.217E-01
DAV:  12    -0.287445406502E+03    0.27476E-04   -0.31372E-04 33264   0.594E-02    0.123E-01
DAV:  13    -0.287445425865E+03   -0.19362E-04   -0.10623E-04 25168   0.277E-02    0.923E-02
DAV:  14    -0.287445422712E+03    0.31528E-05   -0.71846E-05 18008   0.196E-02
   8 F= -.28744542E+03 E0= -.28743343E+03  d E =-.353048E-01  mag=    10.0000
       N       E                     dE             d eps       ncg     rms          rms(c)
DAV:   1    -0.287446818091E+03   -0.13922E-02   -0.79943E+00 25344   0.104E+01    0.800E-01
DAV:   2    -0.287477411825E+03   -0.30594E-01   -0.33375E-01 25656   0.183E+00    0.132E+00
DAV:   3    -0.287478884696E+03   -0.14729E-02   -0.82553E-02 38920   0.537E-01    0.196E+00
DAV:   4    -0.287477958730E+03    0.92597E-03   -0.75207E-02 34320   0.381E-01    0.174E+00
DAV:   5    -0.287474107793E+03    0.38509E-02   -0.24626E-02 34248   0.313E-01    0.330E-01
DAV:   6    -0.287476038700E+03   -0.19309E-02   -0.11737E-02 34320   0.179E-01    0.841E-01
DAV:   7    -0.287474677694E+03    0.13610E-02   -0.68349E-03 34288   0.192E-01    0.291E-01
DAV:   8    -0.287475043822E+03   -0.36613E-03   -0.12685E-03 30392   0.946E-02    0.156E-01
DAV:   9    -0.287475110590E+03   -0.66769E-04   -0.22918E-04 30096   0.375E-02    0.164E-01
DAV:  10    -0.287475095351E+03    0.15239E-04   -0.21900E-05 17064   0.161E-02    0.155E-01
DAV:  11    -0.287475085066E+03    0.10286E-04   -0.75784E-06 13880   0.101E-02    0.145E-01
DAV:  12    -0.287475064399E+03    0.20667E-04   -0.95389E-05 23032   0.339E-02    0.925E-02
DAV:  13    -0.287475081164E+03   -0.16765E-04   -0.11182E-04 26656   0.289E-02    0.735E-02
DAV:  14    -0.287475085349E+03   -0.41852E-05   -0.22367E-05 17248   0.160E-02
   9 F= -.28747509E+03 E0= -.28746316E+03  d E =-.296626E-01  mag=    10.0000
       N       E                     dE             d eps       ncg     rms          rms(c)
DAV:   1    -0.287449755762E+03    0.25325E-01   -0.13780E+01 25352   0.132E+01    0.896E-01
DAV:   2    -0.287497388085E+03   -0.47632E-01   -0.51668E-01 25216   0.227E+00    0.107E+00
DAV:   3    -0.287501235660E+03   -0.38476E-02   -0.80916E-02 38808   0.621E-01    0.185E+00
DAV:   4    -0.287497026817E+03    0.42088E-02   -0.46801E-02 34936   0.408E-01    0.140E+00
DAV:   5    -0.287495568136E+03    0.14587E-02   -0.15473E-02 33848   0.220E-01    0.466E-01
DAV:   6    -0.287497067736E+03   -0.14996E-02   -0.12199E-02 34424   0.169E-01    0.896E-01
DAV:   7    -0.287495289024E+03    0.17787E-02   -0.83108E-03 34344   0.196E-01    0.348E-01
DAV:   8    -0.287495486069E+03   -0.19705E-03   -0.27439E-03 32216   0.124E-01    0.174E-01
DAV:   9    -0.287495976146E+03   -0.49008E-03   -0.21023E-03 31064   0.724E-02    0.287E-01
DAV:  10    -0.287495971494E+03    0.46519E-05   -0.56595E-04 30960   0.646E-02    0.222E-01
DAV:  11    -0.287495973860E+03   -0.23659E-05   -0.27562E-04 29456   0.447E-02    0.181E-01
DAV:  12    -0.287495965574E+03    0.82857E-05   -0.24718E-04 31336   0.413E-02    0.119E-01
DAV:  13    -0.287495985768E+03   -0.20194E-04   -0.61358E-05 19224   0.242E-02    0.768E-02
DAV:  14    -0.287495992842E+03   -0.70738E-05   -0.43553E-05 17544   0.164E-02
  10 F= -.28749599E+03 E0= -.28748404E+03  d E =-.209075E-01  mag=    10.0000
       N       E                     dE             d eps       ncg     rms          rms(c)
DAV:   1    -0.287380740229E+03    0.11525E+00   -0.37138E+01 25080   0.217E+01    0.153E+00
DAV:   2    -0.287522991394E+03   -0.14225E+00   -0.14907E+00 24592   0.373E+00    0.394E+00
DAV:   3    -0.287515857743E+03    0.71337E-02   -0.38837E-01 34432   0.969E-01    0.257E+00
DAV:   4    -0.287519112583E+03   -0.32548E-02   -0.87781E-02 35584   0.645E-01    0.275E+00
DAV:   5    -0.287509977570E+03    0.91350E-02   -0.77655E-02 33816   0.409E-01    0.820E-01
DAV:   6    -0.287513026513E+03   -0.30489E-02   -0.18320E-02 34272   0.316E-01    0.119E+00
DAV:   7    -0.287510804317E+03    0.22222E-02   -0.18317E-02 34312   0.273E-01    0.102E+00
DAV:   8    -0.287509254074E+03    0.15502E-02   -0.10730E-02 33240   0.204E-01    0.412E-01
DAV:   9    -0.287511357432E+03   -0.21034E-02   -0.10853E-02 30840   0.145E-01    0.604E-01
DAV:  10    -0.287511796491E+03   -0.43906E-03   -0.37130E-03 32144   0.132E-01    0.492E-01
DAV:  11    -0.287511840638E+03   -0.44147E-04   -0.66646E-04 32664   0.824E-02    0.399E-01
DAV:  12    -0.287511822854E+03    0.17784E-04   -0.37913E-04 32312   0.614E-02    0.288E-01
DAV:  13    -0.287511831335E+03   -0.84805E-05   -0.35440E-04 31232   0.672E-02    0.175E-01
DAV:  14    -0.287511874160E+03   -0.42826E-04   -0.32765E-04 32160   0.512E-02    0.175E-01
DAV:  15    -0.287511849915E+03    0.24245E-04   -0.20242E-04 25416   0.318E-02    0.968E-02
DAV:  16    -0.287511874246E+03   -0.24332E-04   -0.10047E-04 20280   0.270E-02    0.122E-01
DAV:  17    -0.287511869742E+03    0.45043E-05   -0.79639E-05 19072   0.213E-02
  11 F= -.28751187E+03 E0= -.28749966E+03  d E =-.158769E-01  mag=    10.0000
       N       E                     dE             d eps       ncg     rms          rms(c)
DAV:   1    -0.287443750480E+03    0.68124E-01   -0.21930E+01 25056   0.176E+01    0.136E+00
DAV:   2    -0.287549848352E+03   -0.10610E+00   -0.10984E+00 25304   0.316E+00    0.476E+00
DAV:   3    -0.287527353264E+03    0.22495E-01   -0.36989E-01 34616   0.916E-01    0.220E+00
DAV:   4    -0.287542338155E+03   -0.14985E-01   -0.16086E-01 33392   0.670E-01    0.293E+00
DAV:   5    -0.287529664507E+03    0.12674E-01   -0.63869E-02 33904   0.521E-01    0.102E+00
DAV:   6    -0.287531394735E+03   -0.17302E-02   -0.14842E-02 33168   0.238E-01    0.666E-01
DAV:   7    -0.287530516880E+03    0.87785E-03   -0.62088E-03 31360   0.230E-01    0.380E-01
DAV:   8    -0.287531159071E+03   -0.64219E-03   -0.62401E-03 32944   0.175E-01    0.336E-01
DAV:   9    -0.287531894199E+03   -0.73513E-03   -0.22346E-03 30328   0.998E-02    0.393E-01
DAV:  10    -0.287531818151E+03    0.76048E-04   -0.70433E-04 31472   0.732E-02    0.360E-01
DAV:  11    -0.287531753292E+03    0.64859E-04   -0.39202E-04 29680   0.479E-02    0.300E-01
DAV:  12    -0.287531750853E+03    0.24394E-05   -0.99944E-05 21896   0.294E-02
  12 F= -.28753175E+03 E0= -.28751945E+03  d E =-.198811E-01  mag=    10.0000
       N       E                     dE             d eps       ncg     rms          rms(c)
DAV:   1    -0.287518155773E+03    0.13598E-01   -0.10667E+01 25344   0.117E+01    0.112E+00
DAV:   2    -0.287557830421E+03   -0.39675E-01   -0.43150E-01 25256   0.209E+00    0.179E+00
DAV:   3    -0.287560571136E+03   -0.27407E-02   -0.16141E-01 35608   0.670E-01    0.224E+00
DAV:   4    -0.287557417481E+03    0.31537E-02   -0.83473E-02 34600   0.486E-01    0.195E+00
DAV:   5    -0.287552437664E+03    0.49798E-02   -0.34305E-02 34016   0.348E-01    0.564E-01
DAV:   6    -0.287554557010E+03   -0.21193E-02   -0.11603E-02 33832   0.191E-01    0.909E-01
DAV:   7    -0.287552672704E+03    0.18843E-02   -0.72845E-03 33920   0.211E-01    0.346E-01
DAV:   8    -0.287553263888E+03   -0.59118E-03   -0.43194E-03 34104   0.130E-01    0.319E-01
DAV:   9    -0.287553765034E+03   -0.50115E-03   -0.19709E-03 29792   0.853E-02    0.297E-01
DAV:  10    -0.287553727432E+03    0.37602E-04   -0.26842E-04 29920   0.515E-02    0.272E-01
DAV:  11    -0.287553685516E+03    0.41915E-04   -0.16280E-04 23024   0.350E-02    0.227E-01
DAV:  12    -0.287553668666E+03    0.16850E-04   -0.26505E-04 30152   0.434E-02    0.167E-01
DAV:  13    -0.287553712671E+03   -0.44005E-04   -0.13939E-04 27464   0.416E-02    0.110E-01
DAV:  14    -0.287553715531E+03   -0.28594E-05   -0.71720E-05 20680   0.278E-02
  13 F= -.28755372E+03 E0= -.28754119E+03  d E =-.219647E-01  mag=    10.0000
       N       E                     dE             d eps       ncg     rms          rms(c)
DAV:   1    -0.287558580988E+03   -0.48683E-02   -0.83938E-01 25344   0.316E+00    0.422E-01
DAV:   2    -0.287561520496E+03   -0.29395E-02   -0.31719E-02 26272   0.563E-01    0.227E-01
DAV:   3    -0.287563263933E+03   -0.17434E-02   -0.16071E-02 35080   0.195E-01    0.144E+00
DAV:   4    -0.287560294898E+03    0.29690E-02   -0.13768E-02 32208   0.176E-01    0.269E-01
DAV:   5    -0.287561307579E+03   -0.10127E-02   -0.13600E-03 29464   0.839E-02    0.204E-01
DAV:   6    -0.287561450689E+03   -0.14311E-03   -0.14958E-03 31696   0.722E-02    0.315E-01
DAV:   7    -0.287561261735E+03    0.18895E-03   -0.12928E-03 33296   0.641E-02    0.106E-01
DAV:   8    -0.287561309627E+03   -0.47892E-04   -0.32629E-04 27112   0.396E-02    0.857E-02
DAV:   9    -0.287561362375E+03   -0.52748E-04   -0.21561E-04 20368   0.282E-02    0.895E-02
DAV:  10    -0.287561363669E+03   -0.12934E-05   -0.11301E-04 23648   0.291E-02    0.619E-02
DAV:  11    -0.287561365908E+03   -0.22389E-05   -0.44174E-05 17352   0.175E-02
  14 F= -.28756137E+03 E0= -.28754873E+03  d E =-.765038E-02  mag=    10.0000
       N       E                     dE             d eps       ncg     rms          rms(c)
DAV:   1    -0.287557803043E+03    0.35606E-02   -0.40234E+00 25344   0.688E+00    0.422E-01
DAV:   2    -0.287570186310E+03   -0.12383E-01   -0.13075E-01 24960   0.115E+00    0.615E-01
DAV:   3    -0.287571472634E+03   -0.12863E-02   -0.28384E-02 34760   0.295E-01    0.117E+00
DAV:   4    -0.287569890789E+03    0.15818E-02   -0.14916E-02 34968   0.208E-01    0.654E-01
DAV:   5    -0.287569644288E+03    0.24650E-03   -0.42282E-03 33328   0.137E-01    0.186E-01
DAV:   6    -0.287570063248E+03   -0.41896E-03   -0.32238E-03 33960   0.998E-02    0.538E-01
DAV:   7    -0.287569505001E+03    0.55825E-03   -0.29575E-03 33568   0.996E-02    0.128E-01
DAV:   8    -0.287569622452E+03   -0.11745E-03   -0.25287E-04 30624   0.548E-02    0.783E-02
DAV:   9    -0.287569708518E+03   -0.86067E-04   -0.51079E-04 28096   0.345E-02    0.109E-01
DAV:  10    -0.287569728687E+03   -0.20169E-04   -0.10172E-04 24816   0.343E-02    0.988E-02
DAV:  11    -0.287569722145E+03    0.65424E-05   -0.27899E-05 18672   0.189E-02
  15 F= -.28756972E+03 E0= -.28755700E+03  d E =-.835624E-02  mag=    10.0000
       N       E                     dE             d eps       ncg     rms          rms(c)
DAV:   1    -0.287347998790E+03    0.22173E+00   -0.88870E+01 25344   0.321E+01    0.202E+00
DAV:   2    -0.287614867815E+03   -0.26687E+00   -0.28478E+00 25280   0.538E+00    0.188E+00
DAV:   3    -0.287640234173E+03   -0.25366E-01   -0.32211E-01 35032   0.136E+00    0.431E+00
DAV:   4    -0.287606479366E+03    0.33755E-01   -0.23629E-01 35448   0.892E-01    0.107E+00
DAV:   5    -0.287617268327E+03   -0.10789E-01   -0.70434E-02 33992   0.456E-01    0.290E+00
DAV:   6    -0.287604529672E+03    0.12739E-01   -0.80229E-02 34104   0.441E-01    0.100E+00
DAV:   7    -0.287610379774E+03   -0.58501E-02   -0.56018E-02 33360   0.360E-01    0.152E+00
DAV:   8    -0.287605691807E+03    0.46880E-02   -0.15548E-02 33752   0.327E-01    0.590E-01
DAV:   9    -0.287608606205E+03   -0.29144E-02   -0.18494E-02 31880   0.190E-01    0.691E-01
DAV:  10    -0.287609400270E+03   -0.79406E-03   -0.40187E-03 32448   0.154E-01    0.689E-01
DAV:  11    -0.287608982329E+03    0.41794E-03   -0.29814E-04 27872   0.596E-02    0.698E-01
DAV:  12    -0.287608685866E+03    0.29646E-03   -0.16060E-05 19456   0.176E-02    0.711E-01
DAV:  13    -0.287608890436E+03   -0.20457E-03   -0.15624E-03 32400   0.156E-01    0.466E-01
DAV:  14    -0.287608957440E+03   -0.67003E-04   -0.14887E-03 33440   0.148E-01    0.397E-01
DAV:  15    -0.287608949044E+03    0.83962E-05   -0.35369E-04 29008   0.591E-02    0.311E-01
DAV:  16    -0.287609010046E+03   -0.61003E-04   -0.74256E-05 25112   0.323E-02    0.273E-01
DAV:  17    -0.287608981539E+03    0.28507E-04   -0.18318E-04 26640   0.421E-02    0.207E-01
DAV:  18    -0.287609035049E+03   -0.53511E-04   -0.49227E-04 30464   0.681E-02    0.112E-01
DAV:  19    -0.287609116656E+03   -0.81606E-04   -0.19087E-04 26312   0.435E-02    0.881E-02
DAV:  20    -0.287609120167E+03   -0.35109E-05   -0.26960E-05 18544   0.205E-02
  16 F= -.28760912E+03 E0= -.28759625E+03  d E =-.393980E-01  mag=    10.0000
       N       E                     dE             d eps       ncg     rms          rms(c)
DAV:   1    -0.287290438287E+03    0.31868E+00   -0.55826E+01 25344   0.253E+01    0.474E+00
DAV:   2    -0.287487382349E+03   -0.19694E+00   -0.22662E+00 28288   0.491E+00    0.462E+00
DAV:   3    -0.287587897535E+03   -0.10052E+00   -0.25862E+00 33728   0.243E+00    0.782E+00
DAV:   4    -0.287577838806E+03    0.10059E-01   -0.19864E+00 34080   0.180E+00    0.884E+00
DAV:   5    -0.287435386322E+03    0.14245E+00   -0.57443E-01 33976   0.140E+00    0.396E+00
DAV:   6    -0.287443865529E+03   -0.84792E-02   -0.15520E-01 33864   0.707E-01    0.308E+00
DAV:   7    -0.287439802793E+03    0.40627E-02   -0.14628E-01 35272   0.692E-01    0.256E+00
DAV:   8    -0.287444866873E+03   -0.50641E-02   -0.22003E-01 34304   0.794E-01    0.208E+00
DAV:   9    -0.287447163023E+03   -0.22962E-02   -0.62729E-02 32792   0.524E-01    0.111E+00
DAV:  10    -0.287448316254E+03   -0.11532E-02   -0.54875E-03 31640   0.210E-01    0.935E-01
DAV:  11    -0.287447421742E+03    0.89451E-03   -0.36155E-03 33656   0.142E-01    0.549E-01
DAV:  12    -0.287447880211E+03   -0.45847E-03   -0.49189E-03 32872   0.175E-01    0.491E-01
DAV:  13    -0.287448082401E+03   -0.20219E-03   -0.33719E-03 33216   0.108E-01    0.478E-01
DAV:  14    -0.287448059776E+03    0.22625E-04   -0.13221E-03 33008   0.887E-02    0.360E-01
DAV:  15    -0.287448167911E+03   -0.10813E-03   -0.27534E-04 31704   0.489E-02    0.432E-01
DAV:  16    -0.287447918836E+03    0.24908E-03   -0.10905E-03 30552   0.643E-02    0.169E-01
DAV:  17    -0.287448104929E+03   -0.18609E-03   -0.44418E-04 29640   0.676E-02    0.178E-01
DAV:  18    -0.287448139394E+03   -0.34465E-04   -0.80305E-04 33144   0.521E-02    0.214E-01
DAV:  19    -0.287448111818E+03    0.27575E-04   -0.74775E-05 23504   0.338E-02    0.169E-01
DAV:  20    -0.287448095037E+03    0.16781E-04   -0.14881E-04 21640   0.265E-02    0.669E-02
DAV:  21    -0.287448117734E+03   -0.22697E-04   -0.25444E-05 16616   0.166E-02    0.689E-02
DAV:  22    -0.287448116252E+03    0.14829E-05   -0.29409E-05 13696   0.114E-02
  17 F= -.28744812E+03 E0= -.28743555E+03  d E =0.161004E+00  mag=    10.0000
       N       E                     dE             d eps       ncg     rms          rms(c)
DAV:   1    -0.287524566333E+03   -0.76449E-01   -0.14224E+00 25056   0.380E+00    0.943E-01
DAV:   2    -0.287531390531E+03   -0.68242E-02   -0.78131E-02 29960   0.826E-01    0.150E+00
DAV:   3    -0.287534273014E+03   -0.28825E-02   -0.11627E-01 34432   0.445E-01    0.222E+00
DAV:   4    -0.287527428544E+03    0.68445E-02   -0.22000E-02 33952   0.335E-01    0.875E-01
DAV:   5    -0.287528025980E+03   -0.59744E-03   -0.34613E-03 33112   0.116E-01    0.708E-01
DAV:   6    -0.287528046488E+03   -0.20508E-04   -0.30392E-04 27648   0.463E-02    0.628E-01
DAV:   7    -0.287528078684E+03   -0.32195E-04   -0.11266E-03 30176   0.631E-02    0.642E-01
DAV:   8    -0.287528254330E+03   -0.17565E-03   -0.10202E-02 33112   0.172E-01    0.807E-01
DAV:   9    -0.287528072555E+03    0.18178E-03   -0.10447E-02 32632   0.167E-01    0.288E-01
DAV:  10    -0.287528586730E+03   -0.51418E-03   -0.11815E-03 30464   0.107E-01    0.222E-01
DAV:  11    -0.287528605384E+03   -0.18654E-04   -0.58934E-04 32704   0.549E-02    0.113E-01
DAV:  12    -0.287528634576E+03   -0.29192E-04   -0.12477E-04 25024   0.277E-02    0.150E-01
DAV:  13    -0.287528619350E+03    0.15226E-04   -0.17864E-05 16368   0.139E-02    0.145E-01
DAV:  14    -0.287528629548E+03   -0.10198E-04   -0.58261E-05 20976   0.265E-02    0.150E-01
DAV:  15    -0.287528625013E+03    0.45356E-05   -0.15548E-04 26768   0.367E-02    0.819E-02
DAV:  16    -0.287528640182E+03   -0.15170E-04   -0.50494E-05 19184   0.237E-02    0.772E-02
DAV:  17    -0.287528640763E+03   -0.58053E-06   -0.21388E-05 17480   0.171E-02
  18 F= -.28752864E+03 E0= -.28751597E+03  d E =-.805245E-01  mag=    10.0000
       N       E                     dE             d eps       ncg     rms          rms(c)
DAV:   1    -0.287559076634E+03   -0.30436E-01   -0.37143E-01 25056   0.196E+00    0.482E-01
DAV:   2    -0.287560413755E+03   -0.13371E-02   -0.16464E-02 29480   0.412E-01    0.285E-01
DAV:   3    -0.287561899561E+03   -0.14858E-02   -0.14456E-02 34632   0.217E-01    0.128E+00
DAV:   4    -0.287559301054E+03    0.25985E-02   -0.96558E-03 32592   0.173E-01    0.435E-01
DAV:   5    -0.287559900955E+03   -0.59990E-03   -0.65686E-04 27464   0.624E-02    0.304E-01
DAV:   6    -0.287560036516E+03   -0.13556E-03   -0.14838E-04 21904   0.260E-02    0.326E-01
DAV:   7    -0.287560049463E+03   -0.12947E-04   -0.17118E-05 16080   0.145E-02    0.314E-01
DAV:   8    -0.287559950282E+03    0.99181E-04   -0.59589E-04 29344   0.617E-02    0.186E-01
DAV:   9    -0.287560028805E+03   -0.78523E-04   -0.14372E-03 30432   0.576E-02    0.112E-01
DAV:  10    -0.287560128682E+03   -0.99877E-04   -0.36208E-04 28136   0.483E-02    0.117E-01
DAV:  11    -0.287560128225E+03    0.45636E-06   -0.54331E-05 21104   0.227E-02
  19 F= -.28756013E+03 E0= -.28754734E+03  d E =-.314875E-01  mag=    10.0000
       N       E                     dE             d eps       ncg     rms          rms(c)
DAV:   1    -0.287616549668E+03   -0.56421E-01   -0.63309E+00 25056   0.816E+00    0.196E+00
DAV:   2    -0.287641379412E+03   -0.24830E-01   -0.30209E-01 29528   0.171E+00    0.263E+00
DAV:   3    -0.287660257843E+03   -0.18878E-01   -0.53579E-01 34344   0.941E-01    0.395E+00
DAV:   4    -0.287634988389E+03    0.25269E-01   -0.98569E-02 34320   0.695E-01    0.260E+00
DAV:   5    -0.287630366370E+03    0.46220E-02   -0.47191E-02 33864   0.322E-01    0.142E+00
DAV:   6    -0.287631321276E+03   -0.95491E-03   -0.10590E-02 33920   0.195E-01    0.111E+00
DAV:   7    -0.287630825432E+03    0.49584E-03   -0.47748E-03 34312   0.155E-01    0.790E-01
DAV:   8    -0.287631500453E+03   -0.67502E-03   -0.20466E-02 33768   0.257E-01    0.114E+00
DAV:   9    -0.287631842445E+03   -0.34199E-03   -0.28763E-02 33136   0.262E-01    0.559E-01
DAV:  10    -0.287633146617E+03   -0.13042E-02   -0.32823E-03 31792   0.174E-01    0.703E-01
DAV:  11    -0.287632702697E+03    0.44392E-03   -0.15903E-03 33304   0.107E-01    0.438E-01
DAV:  12    -0.287632749971E+03   -0.47274E-04   -0.53757E-04 31504   0.499E-02    0.336E-01
DAV:  13    -0.287632726539E+03    0.23432E-04   -0.66891E-04 22152   0.362E-02    0.128E-01
DAV:  14    -0.287632882160E+03   -0.15562E-03   -0.45923E-04 25488   0.432E-02    0.183E-01
DAV:  15    -0.287632888067E+03   -0.59064E-05   -0.91494E-04 22368   0.390E-02    0.164E-01
DAV:  16    -0.287632890966E+03   -0.28993E-05   -0.83250E-05 22120   0.287E-02
  20 F= -.28763289E+03 E0= -.28762007E+03  d E =-.727627E-01  mag=    10.0000
       N       E                     dE             d eps       ncg     rms          rms(c)
DAV:   1    -0.287638290003E+03   -0.54019E-02   -0.21972E-01 25408   0.161E+00    0.383E-01
DAV:   2    -0.287641342431E+03   -0.30524E-02   -0.29271E-02 32072   0.378E-01    0.172E+00
DAV:   3    -0.287637421141E+03    0.39213E-02   -0.30675E-02 33104   0.252E-01    0.386E-01
DAV:   4    -0.287639416468E+03   -0.19953E-02   -0.67757E-03 32328   0.151E-01    0.700E-01
DAV:   5    -0.287638538536E+03    0.87793E-03   -0.37698E-03 34168   0.113E-01    0.232E-01
DAV:   6    -0.287638750640E+03   -0.21210E-03   -0.39956E-04 26696   0.452E-02    0.210E-01
DAV:   7    -0.287638722345E+03    0.28296E-04   -0.20498E-04 24704   0.368E-02    0.107E-01
DAV:   8    -0.287638752293E+03   -0.29949E-04   -0.31240E-04 25672   0.348E-02    0.769E-02
DAV:   9    -0.287638804922E+03   -0.52629E-04   -0.21433E-04 20440   0.277E-02    0.929E-02
DAV:  10    -0.287638805907E+03   -0.98516E-06   -0.55849E-05 21352   0.257E-02
  21 F= -.28763881E+03 E0= -.28762593E+03  d E =-.591494E-02  mag=    10.0000
       N       E                     dE             d eps       ncg     rms          rms(c)
DAV:   1    -0.287644635976E+03   -0.58311E-02   -0.10187E+00 25344   0.364E+00    0.684E-01
DAV:   2    -0.287647815526E+03   -0.31795E-02   -0.42303E-02 27808   0.708E-01    0.434E-01
DAV:   3    -0.287652801388E+03   -0.49859E-02   -0.53610E-02 34960   0.365E-01    0.222E+00
DAV:   4    -0.287645068536E+03    0.77329E-02   -0.30659E-02 33928   0.314E-01    0.586E-01
DAV:   5    -0.287647017110E+03   -0.19486E-02   -0.51417E-03 32168   0.149E-01    0.240E-01
DAV:   6    -0.287647437847E+03   -0.42074E-03   -0.25279E-03 34360   0.875E-02    0.419E-01
DAV:   7    -0.287647148032E+03    0.28981E-03   -0.21225E-03 33824   0.766E-02    0.151E-01
DAV:   8    -0.287647265953E+03   -0.11792E-03   -0.85944E-04 28392   0.578E-02    0.157E-01
DAV:   9    -0.287647380784E+03   -0.11483E-03   -0.48546E-04 25800   0.404E-02    0.160E-01
DAV:  10    -0.287647366688E+03    0.14096E-04   -0.73473E-05 26152   0.331E-02    0.136E-01
DAV:  11    -0.287647357010E+03    0.96779E-05   -0.14041E-04 28264   0.477E-02    0.703E-02
DAV:  12    -0.287647366948E+03   -0.99379E-05   -0.43652E-05 19192   0.184E-02
  22 F= -.28764737E+03 E0= -.28763439E+03  d E =-.856104E-02  mag=    10.0000
       N       E                     dE             d eps       ncg     rms          rms(c)
DAV:   1    -0.287647819024E+03   -0.46201E-03   -0.24175E-02 25200   0.513E-01    0.115E-01
DAV:   2    -0.287647885611E+03   -0.66587E-04   -0.97488E-04 29576   0.104E-01    0.106E-01
DAV:   3    -0.287648017766E+03   -0.13215E-03   -0.19073E-03 33344   0.599E-02    0.360E-01
DAV:   4    -0.287647824733E+03    0.19303E-03   -0.13814E-03 26032   0.522E-02    0.125E-01
DAV:   5    -0.287647858293E+03   -0.33560E-04   -0.13493E-04 20232   0.245E-02    0.528E-02
DAV:   6    -0.287647873295E+03   -0.15002E-04   -0.54925E-05 17168   0.171E-02    0.650E-02
DAV:   7    -0.287647870367E+03    0.29276E-05   -0.23176E-05 14120   0.131E-02
  23 F= -.28764787E+03 E0= -.28763501E+03  d E =-.503419E-03  mag=    10.0000
       N       E                     dE             d eps       ncg     rms          rms(c)
DAV:   1    -0.287649535285E+03   -0.16620E-02   -0.29599E-02 25056   0.658E-01    0.695E-02
DAV:   2    -0.287649697615E+03   -0.16233E-03   -0.17931E-03 27696   0.123E-01    0.211E-01
DAV:   3    -0.287649633583E+03    0.64032E-04   -0.69882E-04 27648   0.431E-02    0.780E-02
DAV:   4    -0.287649668539E+03   -0.34956E-04   -0.26442E-04 20888   0.267E-02    0.164E-01
DAV:   5    -0.287649626748E+03    0.41791E-04   -0.19042E-04 20112   0.268E-02    0.481E-02
DAV:   6    -0.287649647553E+03   -0.20805E-04   -0.82659E-05 18040   0.175E-02    0.746E-02
DAV:   7    -0.287649640648E+03    0.69052E-05   -0.44948E-05 15424   0.166E-02
  24 F= -.28764964E+03 E0= -.28763674E+03  d E =-.177028E-02  mag=    10.0000
       N       E                     dE             d eps       ncg     rms          rms(c)
DAV:   1    -0.287655358766E+03   -0.57112E-02   -0.13394E+00 25056   0.427E+00    0.315E-01
DAV:   2    -0.287661577842E+03   -0.62191E-02   -0.64936E-02 26744   0.747E-01    0.133E+00
DAV:   3    -0.287659297731E+03    0.22801E-02   -0.18878E-02 34288   0.237E-01    0.384E-01
DAV:   4    -0.287660675882E+03   -0.13782E-02   -0.71374E-03 34320   0.146E-01    0.616E-01
DAV:   5    -0.287659980384E+03    0.69550E-03   -0.40522E-03 33888   0.111E-01    0.224E-01
DAV:   6    -0.287660097526E+03   -0.11714E-03   -0.62202E-04 31304   0.526E-02    0.229E-01
DAV:   7    -0.287659974670E+03    0.12286E-03   -0.37630E-04 29824   0.520E-02    0.144E-01
DAV:   8    -0.287659957626E+03    0.17045E-04   -0.62164E-04 31376   0.523E-02    0.113E-01
DAV:   9    -0.287660059126E+03   -0.10150E-03   -0.46712E-04 25856   0.373E-02    0.147E-01
DAV:  10    -0.287660052981E+03    0.61450E-05   -0.15181E-04 29120   0.433E-02    0.106E-01
DAV:  11    -0.287660050306E+03    0.26746E-05   -0.93468E-05 22048   0.289E-02
  25 F= -.28766005E+03 E0= -.28764712E+03  d E =-.104097E-01  mag=    10.0000
       N       E                     dE             d eps       ncg     rms          rms(c)
DAV:   1    -0.287662140974E+03   -0.20880E-02   -0.27708E+00 25056   0.551E+00    0.363E-01
DAV:   2    -0.287669975559E+03   -0.78346E-02   -0.85131E-02 25296   0.910E-01    0.402E-01
DAV:   3    -0.287671466803E+03   -0.14912E-02   -0.19262E-02 34968   0.239E-01    0.126E+00
DAV:   4    -0.287669090930E+03    0.23759E-02   -0.98923E-03 34336   0.185E-01    0.318E-01
DAV:   5    -0.287669751532E+03   -0.66060E-03   -0.21475E-03 32928   0.878E-02    0.226E-01
DAV:   6    -0.287669917466E+03   -0.16593E-03   -0.24493E-03 33448   0.822E-02    0.412E-01
DAV:   7    -0.287669572681E+03    0.34478E-03   -0.16120E-03 34128   0.809E-02    0.119E-01
DAV:   8    -0.287669620852E+03   -0.48170E-04   -0.16031E-04 28320   0.450E-02    0.105E-01
DAV:   9    -0.287669685389E+03   -0.64537E-04   -0.73196E-04 27992   0.374E-02    0.126E-01
DAV:  10    -0.287669716351E+03   -0.30962E-04   -0.14770E-04 27472   0.404E-02    0.108E-01
DAV:  11    -0.287669711364E+03    0.49875E-05   -0.31660E-05 19496   0.204E-02
  26 F= -.28766971E+03 E0= -.28765665E+03  d E =-.966106E-02  mag=    10.0000
       N       E                     dE             d eps       ncg     rms          rms(c)
DAV:   1    -0.287622540592E+03    0.47176E-01   -0.26465E+01 25056   0.163E+01    0.983E-01
DAV:   2    -0.287695170055E+03   -0.72629E-01   -0.77754E-01 25920   0.267E+00    0.214E+00
DAV:   3    -0.287696792609E+03   -0.16226E-02   -0.18888E-01 34536   0.692E-01    0.220E+00
DAV:   4    -0.287691786057E+03    0.50066E-02   -0.42988E-02 34600   0.447E-01    0.162E+00
DAV:   5    -0.287689284352E+03    0.25017E-02   -0.27713E-02 33816   0.262E-01    0.595E-01
DAV:   6    -0.287689631023E+03   -0.34667E-03   -0.12530E-02 33256   0.275E-01    0.814E-01
DAV:   7    -0.287688828985E+03    0.80204E-03   -0.12705E-02 34232   0.224E-01    0.650E-01
DAV:   8    -0.287688734030E+03    0.94956E-04   -0.82526E-03 33896   0.164E-01    0.397E-01
DAV:   9    -0.287689283142E+03   -0.54911E-03   -0.38428E-03 30376   0.101E-01    0.299E-01
DAV:  10    -0.287689391331E+03   -0.10819E-03   -0.68114E-04 31192   0.729E-02    0.316E-01
DAV:  11    -0.287689328132E+03    0.63198E-04   -0.19853E-04 29000   0.448E-02    0.251E-01
DAV:  12    -0.287689304086E+03    0.24047E-04   -0.20101E-04 29848   0.401E-02    0.187E-01
DAV:  13    -0.287689324827E+03   -0.20741E-04   -0.15593E-04 22376   0.334E-02    0.121E-01
DAV:  14    -0.287689348761E+03   -0.23934E-04   -0.11698E-04 20936   0.261E-02    0.909E-02
DAV:  15    -0.287689346564E+03    0.21964E-05   -0.13399E-04 25648   0.309E-02    0.353E-02
DAV:  16    -0.287689357524E+03   -0.10960E-04   -0.24577E-05 16360   0.165E-02    0.311E-02
DAV:  17    -0.287689359569E+03   -0.20451E-05   -0.18466E-05 14096   0.104E-02
  27 F= -.28768936E+03 E0= -.28767623E+03  d E =-.196482E-01  mag=    10.0000
       N       E                     dE             d eps       ncg     rms          rms(c)
DAV:   1    -0.287030084550E+03    0.65927E+00   -0.24458E+02 25056   0.484E+01    0.322E+00
DAV:   2    -0.287735774716E+03   -0.70569E+00   -0.76153E+00 26288   0.817E+00    0.417E+00
DAV:   3    -0.287810091882E+03   -0.74317E-01   -0.18775E+00 34304   0.236E+00    0.633E+00
DAV:   4    -0.287737539227E+03    0.72553E-01   -0.67071E-01 34984   0.137E+00    0.507E+00
DAV:   5    -0.287700715926E+03    0.36823E-01   -0.14397E-01 33976   0.791E-01    0.213E+00
DAV:   6    -0.287710465046E+03   -0.97491E-02   -0.13144E-01 34616   0.607E-01    0.302E+00
DAV:   7    -0.287719156958E+03   -0.86919E-02   -0.36996E-01 35384   0.905E-01    0.634E+00
DAV:   8    -0.287677507167E+03    0.41650E-01   -0.56041E-01 33640   0.929E-01    0.204E+00
DAV:   9    -0.287694662717E+03   -0.17156E-01   -0.34210E-02 28600   0.511E-01    0.947E-01
DAV:  10    -0.287696278131E+03   -0.16154E-02   -0.95336E-03 30856   0.204E-01    0.741E-01
DAV:  11    -0.287696869938E+03   -0.59181E-03   -0.23138E-03 32760   0.130E-01    0.728E-01
DAV:  12    -0.287696879871E+03   -0.99335E-05   -0.52013E-04 31712   0.645E-02    0.747E-01
DAV:  13    -0.287696681253E+03    0.19862E-03   -0.10168E-03 32472   0.120E-01    0.768E-01
DAV:  14    -0.287696172378E+03    0.50887E-03   -0.82756E-03 33776   0.199E-01    0.454E-01
DAV:  15    -0.287696786241E+03   -0.61386E-03   -0.26841E-03 29952   0.112E-01    0.452E-01
DAV:  16    -0.287696688403E+03    0.97837E-04   -0.30859E-04 30928   0.818E-02    0.351E-01
DAV:  17    -0.287696657877E+03    0.30527E-04   -0.57137E-04 34144   0.753E-02    0.210E-01
DAV:  18    -0.287696672498E+03   -0.14621E-04   -0.29203E-04 26344   0.357E-02    0.132E-01
DAV:  19    -0.287696699675E+03   -0.27177E-04   -0.79207E-05 22168   0.274E-02    0.141E-01
DAV:  20    -0.287696699332E+03    0.34332E-06   -0.10781E-04 25680   0.327E-02    0.104E-01
DAV:  21    -0.287696719149E+03   -0.19817E-04   -0.13004E-04 21240   0.278E-02    0.113E-01
DAV:  22    -0.287696725210E+03   -0.60608E-05   -0.65120E-05 18720   0.256E-02
  28 F= -.28769673E+03 E0= -.28768340E+03  d E =-.736564E-02  mag=    10.0000
       N       E                     dE             d eps       ncg     rms          rms(c)
DAV:   1    -0.287663403746E+03    0.33315E-01   -0.13079E+01 25344   0.121E+01    0.167E+00
DAV:   2    -0.287729123567E+03   -0.65720E-01   -0.67626E-01 27704   0.224E+00    0.510E+00
DAV:   3    -0.287703754077E+03    0.25369E-01   -0.48462E-01 33592   0.942E-01    0.248E+00
DAV:   4    -0.287715615285E+03   -0.11861E-01   -0.12934E-01 33520   0.708E-01    0.328E+00
DAV:   5    -0.287700437978E+03    0.15177E-01   -0.11149E-01 33280   0.582E-01    0.156E+00
DAV:   6    -0.287703959009E+03   -0.35210E-02   -0.28436E-02 31376   0.273E-01    0.123E+00
DAV:   7    -0.287701856591E+03    0.21024E-02   -0.71770E-03 32424   0.230E-01    0.686E-01
DAV:   8    -0.287702562427E+03   -0.70584E-03   -0.13811E-02 33504   0.224E-01    0.792E-01
DAV:   9    -0.287703721357E+03   -0.11589E-02   -0.13753E-02 31808   0.173E-01    0.540E-01
DAV:  10    -0.287704127959E+03   -0.40660E-03   -0.16401E-03 30768   0.129E-01    0.501E-01
DAV:  11    -0.287703951650E+03    0.17631E-03   -0.72298E-04 33904   0.702E-02    0.369E-01
DAV:  12    -0.287703989364E+03   -0.37714E-04   -0.34869E-04 27424   0.459E-02    0.336E-01
DAV:  13    -0.287703972476E+03    0.16887E-04   -0.64818E-04 30104   0.565E-02    0.184E-01
DAV:  14    -0.287704058542E+03   -0.86066E-04   -0.28950E-04 26568   0.444E-02    0.141E-01
DAV:  15    -0.287704085226E+03   -0.26684E-04   -0.19892E-04 23328   0.328E-02    0.966E-02
DAV:  16    -0.287704097578E+03   -0.12352E-04   -0.68967E-05 20392   0.246E-02    0.937E-02
DAV:  17    -0.287704095091E+03    0.24872E-05   -0.28873E-05 17896   0.199E-02
  29 F= -.28770410E+03 E0= -.28769080E+03  d E =-.736988E-02  mag=    10.0000
       N       E                     dE             d eps       ncg     rms          rms(c)
DAV:   1    -0.287660523876E+03    0.43574E-01   -0.18013E+01 25056   0.136E+01    0.111E+00
DAV:   2    -0.287722384760E+03   -0.61861E-01   -0.64791E-01 27592   0.230E+00    0.313E+00
DAV:   3    -0.287710183465E+03    0.12201E-01   -0.18477E-01 34360   0.792E-01    0.202E+00
DAV:   4    -0.287710749009E+03   -0.56554E-03   -0.56102E-02 33400   0.446E-01    0.131E+00
DAV:   5    -0.287708440506E+03    0.23085E-02   -0.17428E-02 34256   0.272E-01    0.543E-01
DAV:   6    -0.287708164392E+03    0.27611E-03   -0.64502E-03 31712   0.180E-01    0.664E-01
DAV:   7    -0.287709015787E+03   -0.85139E-03   -0.16682E-02 34072   0.188E-01    0.122E+00
DAV:   8    -0.287706914938E+03    0.21008E-02   -0.13927E-02 33256   0.221E-01    0.393E-01
DAV:   9    -0.287708476233E+03   -0.15613E-02   -0.48872E-03 31128   0.138E-01    0.433E-01
DAV:  10    -0.287708474550E+03    0.16838E-05   -0.13685E-03 33512   0.116E-01    0.368E-01
DAV:  11    -0.287708379235E+03    0.95315E-04   -0.58493E-04 34072   0.809E-02    0.221E-01
DAV:  12    -0.287708461431E+03   -0.82196E-04   -0.60585E-04 29400   0.512E-02    0.189E-01
DAV:  13    -0.287708503703E+03   -0.42272E-04   -0.27033E-04 23648   0.381E-02    0.134E-01
DAV:  14    -0.287708527668E+03   -0.23965E-04   -0.59575E-05 20856   0.275E-02    0.142E-01
DAV:  15    -0.287708516410E+03    0.11258E-04   -0.41613E-05 17720   0.191E-02    0.113E-01
DAV:  16    -0.287708522270E+03   -0.58605E-05   -0.34968E-05 20936   0.249E-02
  30 F= -.28770852E+03 E0= -.28769517E+03  d E =-.442718E-02  mag=    10.0000
       N       E                     dE             d eps       ncg     rms          rms(c)
DAV:   1    -0.287704245608E+03    0.42708E-02   -0.58073E+00 25344   0.748E+00    0.491E-01
DAV:   2    -0.287719841474E+03   -0.15596E-01   -0.16622E-01 26296   0.124E+00    0.107E+00
DAV:   3    -0.287719598953E+03    0.24252E-03   -0.34161E-02 34752   0.337E-01    0.108E+00
DAV:   4    -0.287719510642E+03    0.88311E-04   -0.21709E-02 34720   0.233E-01    0.115E+00
DAV:   5    -0.287717787181E+03    0.17235E-02   -0.12346E-02 33768   0.171E-01    0.287E-01
DAV:   6    -0.287718490175E+03   -0.70299E-03   -0.38042E-03 33592   0.107E-01    0.402E-01
DAV:   7    -0.287718054843E+03    0.43533E-03   -0.22894E-03 30984   0.128E-01    0.150E-01
DAV:   8    -0.287718158007E+03   -0.10316E-03   -0.47812E-04 29200   0.571E-02    0.873E-02
DAV:   9    -0.287718186120E+03   -0.28113E-04   -0.83603E-05 20064   0.214E-02    0.944E-02
DAV:  10    -0.287718184640E+03    0.14797E-05   -0.53050E-05 17224   0.179E-02
  31 F= -.28771818E+03 E0= -.28770490E+03  d E =-.966237E-02  mag=    10.0000
       N       E                     dE             d eps       ncg     rms          rms(c)
DAV:   1    -0.287121008094E+03    0.59718E+00   -0.77997E+01 25344   0.327E+01    0.561E+00
DAV:   2    -0.287502145928E+03   -0.38114E+00   -0.43527E+00 27928   0.645E+00    0.695E+00
DAV:   3    -0.287583562901E+03   -0.81417E-01   -0.24996E+00 33960   0.288E+00    0.953E+00
DAV:   4    -0.287532262601E+03    0.51300E-01   -0.25965E+00 33776   0.196E+00    0.961E+00
DAV:   5    -0.287393449219E+03    0.13881E+00   -0.19250E-01 33360   0.117E+00    0.541E+00
DAV:   6    -0.287406660890E+03   -0.13212E-01   -0.58314E-01 34520   0.910E-01    0.417E+00
DAV:   7    -0.287414738629E+03   -0.80777E-02   -0.29123E-01 33160   0.802E-01    0.327E+00
DAV:   8    -0.287422843179E+03   -0.81046E-02   -0.13192E-01 33112   0.832E-01    0.206E+00
DAV:   9    -0.287423685625E+03   -0.84245E-03   -0.11705E-01 33928   0.600E-01    0.223E+00
DAV:  10    -0.287423863888E+03   -0.17826E-03   -0.69669E-02 32960   0.470E-01    0.100E+00
DAV:  11    -0.287428268124E+03   -0.44042E-02   -0.89905E-03 30368   0.207E-01    0.120E+00
DAV:  12    -0.287426709873E+03    0.15583E-02   -0.61183E-04 26168   0.932E-02    0.129E+00
DAV:  13    -0.287426000269E+03    0.70960E-03   -0.49468E-03 35176   0.215E-01    0.111E+00
DAV:  14    -0.287427030408E+03   -0.10301E-02   -0.30878E-03 31544   0.179E-01    0.872E-01
DAV:  15    -0.287427175195E+03   -0.14479E-03   -0.24804E-03 33400   0.123E-01    0.573E-01
DAV:  16    -0.287427394184E+03   -0.21899E-03   -0.80722E-04 30592   0.751E-02    0.414E-01
DAV:  17    -0.287427612848E+03   -0.21866E-03   -0.33967E-04 25240   0.381E-02    0.414E-01
DAV:  18    -0.287427705172E+03   -0.92324E-04   -0.23313E-04 23480   0.362E-02    0.393E-01
DAV:  19    -0.287427654466E+03    0.50706E-04   -0.38859E-04 24368   0.406E-02    0.260E-01
DAV:  20    -0.287427728092E+03   -0.73627E-04   -0.13734E-04 25000   0.305E-02    0.218E-01
DAV:  21    -0.287427800167E+03   -0.72074E-04   -0.16177E-04 24600   0.350E-02    0.183E-01
DAV:  22    -0.287427815318E+03   -0.15152E-04   -0.13533E-04 21592   0.292E-02    0.992E-02
DAV:  23    -0.287427834210E+03   -0.18892E-04   -0.37489E-05 19896   0.239E-02    0.697E-02
DAV:  24    -0.287427842370E+03   -0.81595E-05   -0.13509E-05 15728   0.142E-02
  32 F= -.28742784E+03 E0= -.28741415E+03  d E =0.290342E+00  mag=    10.0000
       N       E                     dE             d eps       ncg     rms          rms(c)
DAV:   1    -0.287704040892E+03   -0.27621E+00   -0.20536E+01 25712   0.122E+01    0.399E+00
DAV:   2    -0.287801395303E+03   -0.97354E-01   -0.11549E+00 30560   0.293E+00    0.452E+00
DAV:   3    -0.287862581010E+03   -0.61186E-01   -0.15839E+00 34736   0.181E+00    0.703E+00
DAV:   4    -0.287830495526E+03    0.32085E-01   -0.11658E+00 32976   0.142E+00    0.702E+00
DAV:   5    -0.287754458067E+03    0.76037E-01   -0.24398E-01 33296   0.937E-01    0.321E+00
DAV:   6    -0.287761565120E+03   -0.71071E-02   -0.11349E-01 33768   0.564E-01    0.320E+00
DAV:   7    -0.287751984675E+03    0.95804E-02   -0.22236E-01 33992   0.668E-01    0.230E+00
DAV:   8    -0.287765274934E+03   -0.13290E-01   -0.26230E-01 33376   0.786E-01    0.279E+00
DAV:   9    -0.287757981018E+03    0.72939E-02   -0.71442E-02 32168   0.507E-01    0.111E+00
DAV:  10    -0.287762242796E+03   -0.42618E-02   -0.20867E-02 33264   0.258E-01    0.146E+00
DAV:  11    -0.287760518239E+03    0.17246E-02   -0.61686E-03 31208   0.213E-01    0.879E-01
DAV:  12    -0.287760437512E+03    0.80727E-04   -0.31699E-03 34168   0.128E-01    0.540E-01
DAV:  13    -0.287761116844E+03   -0.67933E-03   -0.56195E-03 33696   0.121E-01    0.558E-01
DAV:  14    -0.287761042748E+03    0.74097E-04   -0.11615E-03 31504   0.886E-02    0.329E-01
DAV:  15    -0.287761148196E+03   -0.10545E-03   -0.22808E-04 27976   0.415E-02    0.338E-01
DAV:  16    -0.287761069149E+03    0.79047E-04   -0.35536E-04 29336   0.491E-02    0.171E-01
DAV:  17    -0.287761157254E+03   -0.88105E-04   -0.19196E-04 27536   0.399E-02    0.116E-01
DAV:  18    -0.287761191516E+03   -0.34262E-04   -0.96008E-05 19520   0.219E-02    0.984E-02
DAV:  19    -0.287761196178E+03   -0.46618E-05   -0.36148E-05 17320   0.194E-02
  33 F= -.28776120E+03 E0= -.28774799E+03  d E =-.333354E+00  mag=    10.0000
       N       E                     dE             d eps       ncg     rms          rms(c)
DAV:   1    -0.287769365746E+03   -0.81742E-02   -0.14403E-01 25344   0.120E+00    0.303E-01
DAV:   2    -0.287769961744E+03   -0.59600E-03   -0.71711E-03 30248   0.259E-01    0.301E-01
DAV:   3    -0.287770610813E+03   -0.64907E-03   -0.11364E-02 33920   0.144E-01    0.814E-01
DAV:   4    -0.287769836163E+03    0.77465E-03   -0.84773E-03 32984   0.124E-01    0.529E-01
DAV:   5    -0.287769634380E+03    0.20178E-03   -0.24440E-03 32720   0.895E-02    0.183E-01
DAV:   6    -0.287769766069E+03   -0.13169E-03   -0.30750E-04 23120   0.391E-02    0.165E-01
DAV:   7    -0.287769756505E+03    0.95638E-05   -0.56235E-05 20512   0.241E-02
  34 F= -.28776976E+03 E0= -.28775658E+03  d E =-.856033E-02  mag=    10.0000
       N       E                     dE             d eps       ncg     rms          rms(c)
DAV:   1    -0.287770031488E+03   -0.26542E-03   -0.35094E+00 25344   0.637E+00    0.140E+00
DAV:   2    -0.287781860738E+03   -0.11829E-01   -0.15676E-01 30344   0.131E+00    0.108E+00
DAV:   3    -0.287803735069E+03   -0.21874E-01   -0.28896E-01 34280   0.706E-01    0.474E+00
DAV:   4    -0.287779914199E+03    0.23821E-01   -0.27437E-01 33232   0.599E-01    0.297E+00
DAV:   5    -0.287775380661E+03    0.45335E-02   -0.54494E-02 32304   0.446E-01    0.689E-01
DAV:   6    -0.287779382918E+03   -0.40023E-02   -0.15140E-02 32776   0.236E-01    0.882E-01
DAV:   7    -0.287778321445E+03    0.10615E-02   -0.47098E-03 34384   0.204E-01    0.317E-01
DAV:   8    -0.287778904141E+03   -0.58270E-03   -0.46300E-03 33584   0.124E-01    0.281E-01
DAV:   9    -0.287779427086E+03   -0.52295E-03   -0.18661E-03 30400   0.832E-02    0.325E-01
DAV:  10    -0.287779349200E+03    0.77887E-04   -0.36382E-04 29328   0.593E-02    0.290E-01
DAV:  11    -0.287779289777E+03    0.59423E-04   -0.28265E-04 26128   0.424E-02    0.200E-01
DAV:  12    -0.287779309583E+03   -0.19805E-04   -0.21307E-04 27656   0.386E-02    0.130E-01
DAV:  13    -0.287779352404E+03   -0.42822E-04   -0.17154E-04 26552   0.415E-02    0.775E-02
DAV:  14    -0.287779361593E+03   -0.91889E-05   -0.84206E-05 20184   0.250E-02
  35 F= -.28777936E+03 E0= -.28776613E+03  d E =-.960509E-02  mag=    10.0000
       N       E                     dE             d eps       ncg     rms          rms(c)
DAV:   1    -0.287779957482E+03   -0.60508E-03   -0.53737E-01 25344   0.240E+00    0.562E-01
DAV:   2    -0.287782140839E+03   -0.21834E-02   -0.26922E-02 31104   0.508E-01    0.809E-01
DAV:   3    -0.287783891260E+03   -0.17504E-02   -0.46223E-02 34040   0.289E-01    0.154E+00
DAV:   4    -0.287780983650E+03    0.29076E-02   -0.18268E-02 33496   0.236E-01    0.702E-01
DAV:   5    -0.287781007676E+03   -0.24026E-04   -0.46117E-03 33344   0.141E-01    0.242E-01
DAV:   6    -0.287781514466E+03   -0.50679E-03   -0.26790E-03 34024   0.854E-02    0.497E-01
DAV:   7    -0.287781138398E+03    0.37607E-03   -0.22985E-03 33280   0.773E-02    0.159E-01
DAV:   8    -0.287781234647E+03   -0.96249E-04   -0.47846E-04 27112   0.494E-02    0.114E-01
DAV:   9    -0.287781300140E+03   -0.65493E-04   -0.62423E-04 23904   0.401E-02    0.126E-01
DAV:  10    -0.287781317895E+03   -0.17756E-04   -0.27507E-04 25472   0.346E-02    0.732E-02
DAV:  11    -0.287781334966E+03   -0.17071E-04   -0.66150E-05 18768   0.215E-02    0.690E-02
DAV:  12    -0.287781336963E+03   -0.19970E-05   -0.20037E-05 15120   0.126E-02
  36 F= -.28778134E+03 E0= -.28776807E+03  d E =-.197537E-02  mag=    10.0000
       N       E                     dE             d eps       ncg     rms          rms(c)
DAV:   1    -0.287781631516E+03   -0.29655E-03   -0.56673E-02 25352   0.899E-01    0.164E-01
DAV:   2    -0.287782120309E+03   -0.48879E-03   -0.52074E-03 31768   0.191E-01    0.527E-01
DAV:   3    -0.287781760384E+03    0.35993E-03   -0.40275E-03 33152   0.100E-01    0.253E-01
DAV:   4    -0.287781906599E+03   -0.14621E-03   -0.11138E-03 29384   0.655E-02    0.250E-01
DAV:   5    -0.287781798629E+03    0.10797E-03   -0.40084E-04 24384   0.443E-02    0.961E-02
DAV:   6    -0.287781811655E+03   -0.13026E-04   -0.60319E-05 19368   0.202E-02    0.912E-02
DAV:   7    -0.287781821034E+03   -0.93785E-05   -0.29810E-04 20408   0.276E-02    0.142E-01
DAV:   8    -0.287781807861E+03    0.13173E-04   -0.30409E-04 20808   0.321E-02    0.575E-02
DAV:   9    -0.287781836903E+03   -0.29042E-04   -0.94122E-05 18504   0.212E-02    0.522E-02
DAV:  10    -0.287781837938E+03   -0.10352E-05   -0.21660E-05 15744   0.134E-02
  37 F= -.28778184E+03 E0= -.28776862E+03  d E =-.500976E-03  mag=    10.0000
       N       E                     dE             d eps       ncg     rms          rms(c)
DAV:   1    -0.287782043144E+03   -0.20624E-03   -0.44961E-02 25360   0.891E-01    0.103E-01
DAV:   2    -0.287782386086E+03   -0.34294E-03   -0.35087E-03 27152   0.164E-01    0.327E-01
DAV:   3    -0.287782257430E+03    0.12866E-03   -0.14390E-03 31944   0.599E-02    0.139E-01
DAV:   4    -0.287782324566E+03   -0.67136E-04   -0.36477E-04 22816   0.396E-02    0.139E-01
DAV:   5    -0.287782291615E+03    0.32951E-04   -0.16215E-04 20808   0.284E-02    0.626E-02
DAV:   6    -0.287782297092E+03   -0.54771E-05   -0.24758E-05 14968   0.110E-02
  38 F= -.28778230E+03 E0= -.28776905E+03  d E =-.459154E-03  mag=    10.0000
       N       E                     dE             d eps       ncg     rms          rms(c)
DAV:   1    -0.287782577333E+03   -0.28572E-03   -0.50460E-02 25368   0.938E-01    0.105E-01
DAV:   2    -0.287782986550E+03   -0.40922E-03   -0.43634E-03 26664   0.170E-01    0.374E-01
DAV:   3    -0.287782799013E+03    0.18754E-03   -0.19475E-03 32360   0.694E-02    0.134E-01
DAV:   4    -0.287782924915E+03   -0.12590E-03   -0.73453E-04 23616   0.451E-02    0.261E-01
DAV:   5    -0.287782816455E+03    0.10846E-03   -0.52410E-04 23024   0.433E-02    0.573E-02
DAV:   6    -0.287782877808E+03   -0.61353E-04   -0.19655E-04 20312   0.268E-02    0.110E-01
DAV:   7    -0.287782868854E+03    0.89539E-05   -0.10365E-04 18696   0.237E-02    0.632E-02
DAV:   8    -0.287782875657E+03   -0.68024E-05   -0.18093E-05 15104   0.128E-02
  39 F= -.28778288E+03 E0= -.28776963E+03  d E =-.578565E-03  mag=    10.0000
       N       E                     dE             d eps       ncg     rms          rms(c)
DAV:   1    -0.287778796988E+03    0.40719E-02   -0.12064E+00 25392   0.451E+00    0.354E-01
DAV:   2    -0.287786221267E+03   -0.74243E-02   -0.76023E-02 25864   0.779E-01    0.116E+00
DAV:   3    -0.287784953013E+03    0.12683E-02   -0.21679E-02 34496   0.229E-01    0.543E-01
DAV:   4    -0.287785576852E+03   -0.62384E-03   -0.26716E-03 32160   0.134E-01    0.353E-01
DAV:   5    -0.287785437714E+03    0.13914E-03   -0.14525E-03 33728   0.705E-02    0.177E-01
DAV:   6    -0.287785575105E+03   -0.13739E-03   -0.14501E-03 32320   0.665E-02    0.321E-01
DAV:   7    -0.287785370281E+03    0.20482E-03   -0.11000E-03 33248   0.670E-02    0.987E-02
DAV:   8    -0.287785468701E+03   -0.98420E-04   -0.44921E-04 28224   0.395E-02    0.897E-02
DAV:   9    -0.287785516975E+03   -0.48275E-04   -0.15279E-04 19120   0.226E-02    0.105E-01
DAV:  10    -0.287785508262E+03    0.87130E-05   -0.21782E-05 16664   0.159E-02
  40 F= -.28778551E+03 E0= -.28777225E+03  d E =-.263261E-02  mag=    10.0000
       N       E                     dE             d eps       ncg     rms          rms(c)
DAV:   1    -0.287783237376E+03    0.22796E-02   -0.14430E+00 25344   0.463E+00    0.355E-01
DAV:   2    -0.287790605435E+03   -0.73681E-02   -0.75609E-02 25320   0.801E-01    0.114E+00
DAV:   3    -0.287789119471E+03    0.14860E-02   -0.18834E-02 34672   0.246E-01    0.532E-01
DAV:   4    -0.287790345445E+03   -0.12260E-02   -0.93994E-03 34184   0.167E-01    0.714E-01
DAV:   5    -0.287789515052E+03    0.83039E-03   -0.51847E-03 33336   0.120E-01    0.195E-01
DAV:   6    -0.287789719799E+03   -0.20475E-03   -0.99414E-04 30664   0.590E-02    0.226E-01
DAV:   7    -0.287789597129E+03    0.12267E-03   -0.41172E-04 30208   0.665E-02    0.881E-02
DAV:   8    -0.287789703904E+03   -0.10677E-03   -0.56432E-04 29384   0.390E-02    0.111E-01
DAV:   9    -0.287789738630E+03   -0.34726E-04   -0.94578E-05 18512   0.209E-02    0.129E-01
DAV:  10    -0.287789724069E+03    0.14561E-04   -0.10004E-05 15312   0.116E-02    0.127E-01
DAV:  11    -0.287789726329E+03   -0.22599E-05   -0.22442E-05 18352   0.186E-02
  41 F= -.28778973E+03 E0= -.28777646E+03  d E =-.421807E-02  mag=    10.0000
       N       E                     dE             d eps       ncg     rms          rms(c)
DAV:   1    -0.287792775861E+03   -0.30518E-02   -0.21524E-01 25344   0.171E+00    0.141E-01
DAV:   2    -0.287793559370E+03   -0.78351E-03   -0.87200E-03 24904   0.294E-01    0.189E-01
DAV:   3    -0.287793710311E+03   -0.15094E-03   -0.31991E-03 35224   0.849E-02    0.415E-01
DAV:   4    -0.287793515889E+03    0.19442E-03   -0.19207E-03 31432   0.660E-02    0.239E-01
DAV:   5    -0.287793492395E+03    0.23495E-04   -0.58200E-04 23312   0.441E-02    0.727E-02
DAV:   6    -0.287793543139E+03   -0.50744E-04   -0.27807E-04 21952   0.339E-02    0.135E-01
DAV:   7    -0.287793512975E+03    0.30164E-04   -0.23117E-04 27240   0.362E-02    0.567E-02
DAV:   8    -0.287793521967E+03   -0.89922E-05   -0.25074E-05 15920   0.144E-02
  42 F= -.28779352E+03 E0= -.28778019E+03  d E =-.379564E-02  mag=    10.0000
       N       E                     dE             d eps       ncg     rms          rms(c)
DAV:   1    -0.287796926739E+03   -0.34138E-02   -0.23090E-01 25344   0.182E+00    0.155E-01
DAV:   2    -0.287797883780E+03   -0.95704E-03   -0.10539E-02 25560   0.322E-01    0.279E-01
DAV:   3    -0.287797835221E+03    0.48560E-04   -0.22821E-03 34544   0.988E-02    0.261E-01
DAV:   4    -0.287797894713E+03   -0.59493E-04   -0.19464E-03 30640   0.643E-02    0.375E-01
DAV:   5    -0.287797690306E+03    0.20441E-03   -0.10623E-03 27720   0.568E-02    0.771E-02
DAV:   6    -0.287797751028E+03   -0.60722E-04   -0.33077E-04 29872   0.458E-02    0.141E-01
DAV:   7    -0.287797768760E+03   -0.17733E-04   -0.63080E-04 22536   0.375E-02    0.163E-01
DAV:   8    -0.287797771630E+03   -0.28698E-05   -0.23076E-04 20240   0.315E-02    0.831E-02
DAV:   9    -0.287797776313E+03   -0.46825E-05   -0.11922E-05 15664   0.123E-02
  43 F= -.28779778E+03 E0= -.28778448E+03  d E =-.425435E-02  mag=    10.0000
       N       E                     dE             d eps       ncg     rms          rms(c)
DAV:   1    -0.287802213948E+03   -0.44423E-02   -0.89028E-01 25344   0.325E+00    0.226E-01
DAV:   2    -0.287805116167E+03   -0.29022E-02   -0.32216E-02 25952   0.556E-01    0.435E-01
DAV:   3    -0.287805153016E+03   -0.36849E-04   -0.78571E-03 35560   0.144E-01    0.499E-01
DAV:   4    -0.287805037326E+03    0.11569E-03   -0.40651E-03 34528   0.101E-01    0.456E-01
DAV:   5    -0.287804756635E+03    0.28069E-03   -0.20592E-03 33240   0.810E-02    0.171E-01
DAV:   6    -0.287804878281E+03   -0.12165E-03   -0.81024E-04 27632   0.537E-02    0.214E-01
DAV:   7    -0.287804771048E+03    0.10723E-03   -0.54359E-04 31368   0.662E-02    0.107E-01
DAV:   8    -0.287804842829E+03   -0.71781E-04   -0.34478E-04 26464   0.326E-02    0.954E-02
DAV:   9    -0.287804846662E+03   -0.38327E-05   -0.21384E-05 16504   0.145E-02
  44 F= -.28780485E+03 E0= -.28779152E+03  d E =-.707035E-02  mag=    10.0000
       N       E                     dE             d eps       ncg     rms          rms(c)
DAV:   1    -0.287703588602E+03    0.10125E+00   -0.49926E+01 25344   0.233E+01    0.152E+00
DAV:   2    -0.287858559367E+03   -0.15497E+00   -0.16977E+00 26048   0.400E+00    0.246E+00
DAV:   3    -0.287859871621E+03   -0.13123E-02   -0.21499E-01 34560   0.106E+00    0.248E+00
DAV:   4    -0.287852494676E+03    0.73769E-02   -0.97168E-02 36384   0.631E-01    0.217E+00
DAV:   5    -0.287847909030E+03    0.45856E-02   -0.59706E-02 34360   0.410E-01    0.110E+00
DAV:   6    -0.287846156143E+03    0.17529E-02   -0.27297E-02 31520   0.394E-01    0.962E-01
DAV:   7    -0.287849166208E+03   -0.30101E-02   -0.55659E-02 34456   0.329E-01    0.158E+00
DAV:   8    -0.287846388062E+03    0.27781E-02   -0.24787E-02 34280   0.283E-01    0.636E-01
DAV:   9    -0.287847846355E+03   -0.14583E-02   -0.34488E-03 30960   0.121E-01    0.588E-01
DAV:  10    -0.287847633619E+03    0.21274E-03   -0.26931E-04 27840   0.562E-02    0.584E-01
DAV:  11    -0.287847506346E+03    0.12727E-03   -0.33240E-04 28608   0.545E-02    0.486E-01
DAV:  12    -0.287847460556E+03    0.45789E-04   -0.21348E-03 32680   0.159E-01    0.215E-01
DAV:  13    -0.287847694484E+03   -0.23393E-03   -0.10459E-03 31568   0.779E-02    0.214E-01
DAV:  14    -0.287847697599E+03   -0.31150E-05   -0.90028E-05 24624   0.362E-02
  45 F= -.28784770E+03 E0= -.28783446E+03  d E =-.428509E-01  mag=    10.0000
       N       E                     dE             d eps       ncg     rms          rms(c)
DAV:   1    -0.287835388989E+03    0.12305E-01   -0.69212E+00 25344   0.818E+00    0.739E-01
DAV:   2    -0.287855117045E+03   -0.19728E-01   -0.21353E-01 27496   0.139E+00    0.138E+00
DAV:   3    -0.287856524969E+03   -0.14079E-02   -0.90820E-02 34400   0.469E-01    0.182E+00
DAV:   4    -0.287854053495E+03    0.24715E-02   -0.41693E-02 33848   0.314E-01    0.157E+00
DAV:   5    -0.287851259794E+03    0.27937E-02   -0.14615E-02 32216   0.212E-01    0.353E-01
DAV:   6    -0.287852632360E+03   -0.13726E-02   -0.48443E-03 32176   0.166E-01    0.592E-01
DAV:   7    -0.287852193738E+03    0.43862E-03   -0.74100E-03 34904   0.164E-01    0.417E-01
DAV:   8    -0.287852425329E+03   -0.23159E-03   -0.25746E-03 32712   0.103E-01    0.258E-01
DAV:   9    -0.287852577447E+03   -0.15212E-03   -0.46489E-04 28168   0.497E-02    0.267E-01
DAV:  10    -0.287852521015E+03    0.56432E-04   -0.29942E-04 31272   0.553E-02    0.197E-01
DAV:  11    -0.287852484982E+03    0.36033E-04   -0.28246E-04 31864   0.581E-02    0.784E-02
DAV:  12    -0.287852588183E+03   -0.10320E-03   -0.36979E-04 27840   0.382E-02    0.152E-01
DAV:  13    -0.287852586916E+03    0.12667E-05   -0.73194E-05 19952   0.282E-02
  46 F= -.28785259E+03 E0= -.28783919E+03  d E =-.488932E-02  mag=    10.0000
       N       E                     dE             d eps       ncg     rms          rms(c)
DAV:   1    -0.287802852640E+03    0.49736E-01   -0.11513E+01 24768   0.111E+01    0.788E-01
DAV:   2    -0.287840120975E+03   -0.37268E-01   -0.40266E-01 26752   0.192E+00    0.198E+00
DAV:   3    -0.287836447198E+03    0.36738E-02   -0.81164E-02 35416   0.552E-01    0.145E+00
DAV:   4    -0.287838511342E+03   -0.20641E-02   -0.49702E-02 34736   0.370E-01    0.179E+00
DAV:   5    -0.287834045568E+03    0.44658E-02   -0.34670E-02 33680   0.287E-01    0.705E-01
DAV:   6    -0.287834966665E+03   -0.92110E-03   -0.83405E-03 33488   0.161E-01    0.528E-01
DAV:   7    -0.287834001885E+03    0.96478E-03   -0.25935E-03 31296   0.166E-01    0.251E-01
DAV:   8    -0.287834402692E+03   -0.40081E-03   -0.49236E-03 33880   0.120E-01    0.284E-01
DAV:   9    -0.287834823883E+03   -0.42119E-03   -0.14298E-03 30944   0.761E-02    0.343E-01
DAV:  10    -0.287834752561E+03    0.71322E-04   -0.36330E-04 32296   0.679E-02    0.245E-01
DAV:  11    -0.287834730383E+03    0.22178E-04   -0.21632E-04 32208   0.538E-02    0.134E-01
DAV:  12    -0.287834727472E+03    0.29116E-05   -0.10369E-04 25128   0.333E-02    0.738E-02
DAV:  13    -0.287834730673E+03   -0.32011E-05   -0.92894E-05 23040   0.280E-02
  47 F= -.28783473E+03 E0= -.28782139E+03  d E =0.178562E-01  mag=    10.0000
       N       E                     dE             d eps       ncg     rms          rms(c)
DAV:   1    -0.287833384496E+03    0.13430E-02   -0.20450E+00 24768   0.457E+00    0.436E-01
DAV:   2    -0.287839787671E+03   -0.64032E-02   -0.68453E-02 27392   0.788E-01    0.105E+00
DAV:   3    -0.287838877490E+03    0.91018E-03   -0.24295E-02 34656   0.267E-01    0.799E-01
DAV:   4    -0.287839575135E+03   -0.69765E-03   -0.14907E-02 34152   0.209E-01    0.883E-01
DAV:   5    -0.287838278305E+03    0.12968E-02   -0.76801E-03 33944   0.165E-01    0.214E-01
DAV:   6    -0.287838708103E+03   -0.42980E-03   -0.22299E-03 33792   0.732E-02    0.347E-01
DAV:   7    -0.287838492159E+03    0.21594E-03   -0.96785E-04 30056   0.770E-02    0.124E-01
DAV:   8    -0.287838534067E+03   -0.41908E-04   -0.28194E-04 29768   0.406E-02    0.610E-02
DAV:   9    -0.287838578556E+03   -0.44489E-04   -0.19367E-04 19856   0.247E-02    0.888E-02
DAV:  10    -0.287838582257E+03   -0.37003E-05   -0.80239E-05 18976   0.248E-02
  48 F= -.28783858E+03 E0= -.28782523E+03  d E =-.385158E-02  mag=    10.0000
       N       E                     dE             d eps       ncg     rms          rms(c)
DAV:   1    -0.287837222695E+03    0.13559E-02   -0.47551E+00 24768   0.672E+00    0.454E-01
DAV:   2    -0.287849703490E+03   -0.12481E-01   -0.13575E-01 25928   0.112E+00    0.558E-01
DAV:   3    -0.287850945820E+03   -0.12423E-02   -0.24147E-02 34632   0.303E-01    0.120E+00
DAV:   4    -0.287849095823E+03    0.18500E-02   -0.15758E-02 34712   0.213E-01    0.779E-01
DAV:   5    -0.287848811175E+03    0.28465E-03   -0.57727E-03 32816   0.143E-01    0.247E-01
DAV:   6    -0.287849375336E+03   -0.56416E-03   -0.46769E-03 34168   0.996E-02    0.607E-01
DAV:   7    -0.287848577262E+03    0.79807E-03   -0.45981E-03 34624   0.131E-01    0.153E-01
DAV:   8    -0.287848878231E+03   -0.30097E-03   -0.89708E-04 29432   0.683E-02    0.118E-01
DAV:   9    -0.287848961923E+03   -0.83692E-04   -0.21363E-04 23544   0.312E-02    0.137E-01
DAV:  10    -0.287848953255E+03    0.86682E-05   -0.70013E-05 23088   0.298E-02
  49 F= -.28784895E+03 E0= -.28783561E+03  d E =-.103710E-01  mag=    10.0000
       N       E                     dE             d eps       ncg     rms          rms(c)
DAV:   1    -0.287442309690E+03    0.40665E+00   -0.54637E+01 25344   0.261E+01    0.442E+00
DAV:   2    -0.287706773823E+03   -0.26446E+00   -0.28234E+00 28496   0.510E+00    0.756E+00
DAV:   3    -0.287701073089E+03    0.57007E-02   -0.27229E+00 33800   0.239E+00    0.580E+00
DAV:   4    -0.287680140187E+03    0.20933E-01   -0.59910E-01 34312   0.134E+00    0.649E+00
DAV:   5    -0.287622309167E+03    0.57831E-01   -0.15818E-01 33144   0.739E-01    0.336E+00
DAV:   6    -0.287629877158E+03   -0.75680E-02   -0.87232E-02 34088   0.462E-01    0.364E+00
DAV:   7    -0.287614671095E+03    0.15206E-01   -0.11078E-01 34296   0.528E-01    0.132E+00
DAV:   8    -0.287623506121E+03   -0.88350E-02   -0.52598E-02 32088   0.463E-01    0.137E+00
DAV:   9    -0.287625780425E+03   -0.22743E-02   -0.55400E-02 33408   0.405E-01    0.124E+00
DAV:  10    -0.287626487521E+03   -0.70710E-03   -0.14595E-02 31112   0.272E-01    0.110E+00
DAV:  11    -0.287626158660E+03    0.32886E-03   -0.88414E-03 33560   0.181E-01    0.739E-01
DAV:  12    -0.287626425266E+03   -0.26661E-03   -0.28043E-03 33064   0.109E-01    0.523E-01
DAV:  13    -0.287626890392E+03   -0.46513E-03   -0.22309E-03 31768   0.107E-01    0.469E-01
DAV:  14    -0.287627019895E+03   -0.12950E-03   -0.74481E-04 31192   0.665E-02    0.412E-01
DAV:  15    -0.287626986006E+03    0.33888E-04   -0.78848E-04 31184   0.635E-02    0.282E-01
DAV:  16    -0.287627050012E+03   -0.64006E-04   -0.80771E-04 27960   0.518E-02    0.217E-01
DAV:  17    -0.287627069705E+03   -0.19693E-04   -0.13657E-04 21808   0.305E-02    0.157E-01
DAV:  18    -0.287627075393E+03   -0.56884E-05   -0.27298E-05 16936   0.160E-02
  50 F= -.28762708E+03 E0= -.28761347E+03  d E =0.221878E+00  mag=    10.0000
       N       E                     dE             d eps       ncg     rms          rms(c)
DAV:   1    -0.287803545646E+03   -0.17648E+00   -0.15473E+01 25056   0.121E+01    0.339E+00
DAV:   2    -0.287985952697E+03   -0.18241E+00   -0.19715E+00 30368   0.310E+00    0.106E+01
DAV:   3    -0.287864058033E+03    0.12189E+00   -0.23422E+00 33048   0.196E+00    0.647E+00
DAV:   4    -0.287889160449E+03   -0.25102E-01   -0.11008E+00 33360   0.136E+00    0.580E+00
DAV:   5    -0.287844905853E+03    0.44255E-01   -0.32670E-01 33800   0.107E+00    0.299E+00
DAV:   6    -0.287841707469E+03    0.31984E-02   -0.88744E-02 33160   0.543E-01    0.172E+00
DAV:   7    -0.287839767243E+03    0.19402E-02   -0.40647E-02 32288   0.464E-01    0.968E-01
DAV:   8    -0.287844316011E+03   -0.45488E-02   -0.38392E-02 32368   0.356E-01    0.122E+00
DAV:   9    -0.287845645457E+03   -0.13294E-02   -0.12716E-02 30280   0.230E-01    0.937E-01
DAV:  10    -0.287846378408E+03   -0.73295E-03   -0.14809E-02 33472   0.240E-01    0.108E+00
DAV:  11    -0.287846688314E+03   -0.30991E-03   -0.63019E-03 32480   0.160E-01    0.114E+00
DAV:  12    -0.287845764133E+03    0.92418E-03   -0.49083E-03 33016   0.123E-01    0.569E-01
DAV:  13    -0.287846627062E+03   -0.86293E-03   -0.22844E-03 29552   0.995E-02    0.361E-01
DAV:  14    -0.287847003768E+03   -0.37671E-03   -0.80289E-04 30528   0.643E-02    0.302E-01
DAV:  15    -0.287847024668E+03   -0.20900E-04   -0.11752E-03 32072   0.671E-02    0.169E-01
DAV:  16    -0.287847176281E+03   -0.15161E-03   -0.33791E-04 25744   0.446E-02    0.203E-01
DAV:  17    -0.287847171158E+03    0.51223E-05   -0.19641E-04 22368   0.348E-02    0.160E-01
DAV:  18    -0.287847169296E+03    0.18622E-05   -0.10134E-04 23272   0.299E-02    0.120E-01
DAV:  19    -0.287847169907E+03   -0.61044E-06   -0.63952E-05 21544   0.254E-02
  51 F= -.28784717E+03 E0= -.28783368E+03  d E =-.220095E+00  mag=    10.0000
       N       E                     dE             d eps       ncg     rms          rms(c)
DAV:   1    -0.287857690737E+03   -0.10521E-01   -0.49799E-01 25344   0.247E+00    0.522E-01
DAV:   2    -0.287860644285E+03   -0.29535E-02   -0.32965E-02 30056   0.523E-01    0.121E+00
DAV:   3    -0.287859608009E+03    0.10363E-02   -0.34788E-02 33888   0.270E-01    0.988E-01
DAV:   4    -0.287859364772E+03    0.24324E-03   -0.89540E-03 33664   0.202E-01    0.676E-01
DAV:   5    -0.287858818136E+03    0.54664E-03   -0.40181E-03 33688   0.130E-01    0.226E-01
DAV:   6    -0.287859352119E+03   -0.53398E-03   -0.30564E-03 32392   0.822E-02    0.477E-01
DAV:   7    -0.287858977803E+03    0.37432E-03   -0.16458E-03 33528   0.768E-02    0.129E-01
DAV:   8    -0.287859165728E+03   -0.18793E-03   -0.46958E-04 25920   0.391E-02    0.127E-01
DAV:   9    -0.287859201321E+03   -0.35593E-04   -0.12159E-04 20808   0.279E-02    0.132E-01
DAV:  10    -0.287859178612E+03    0.22708E-04   -0.12360E-04 26960   0.360E-02    0.709E-02
DAV:  11    -0.287859187725E+03   -0.91126E-05   -0.92647E-05 23352   0.329E-02
  52 F= -.28785919E+03 E0= -.28784575E+03  d E =-.120178E-01  mag=    10.0000
       N       E                     dE             d eps       ncg     rms          rms(c)
DAV:   1    -0.287866404118E+03   -0.72255E-02   -0.12898E+00 25064   0.425E+00    0.803E-01
DAV:   2    -0.287871645144E+03   -0.52410E-02   -0.64736E-02 28240   0.840E-01    0.569E-01
DAV:   3    -0.287877759631E+03   -0.61145E-02   -0.70831E-02 34568   0.437E-01    0.245E+00
DAV:   4    -0.287868995182E+03    0.87644E-02   -0.63237E-02 33352   0.368E-01    0.100E+00
DAV:   5    -0.287870235943E+03   -0.12408E-02   -0.12336E-02 32896   0.200E-01    0.398E-01
DAV:   6    -0.287871076246E+03   -0.84030E-03   -0.51370E-03 33552   0.118E-01    0.532E-01
DAV:   7    -0.287870697864E+03    0.37838E-03   -0.21489E-03 33168   0.109E-01    0.156E-01
DAV:   8    -0.287870967968E+03   -0.27010E-03   -0.11370E-03 31064   0.549E-02    0.179E-01
DAV:   9    -0.287871005387E+03   -0.37419E-04   -0.10024E-04 22376   0.293E-02    0.186E-01
DAV:  10    -0.287870942961E+03    0.62425E-04   -0.17253E-05 19776   0.244E-02    0.210E-01
DAV:  11    -0.287870954239E+03   -0.11278E-04   -0.11117E-04 26728   0.556E-02    0.133E-01
DAV:  12    -0.287870967273E+03   -0.13034E-04   -0.23304E-04 31376   0.473E-02    0.634E-02
DAV:  13    -0.287870999321E+03   -0.32048E-04   -0.14344E-04 19848   0.282E-02    0.749E-02
DAV:  14    -0.287871000077E+03   -0.75566E-06   -0.21346E-05 17920   0.179E-02
  53 F= -.28787100E+03 E0= -.28785759E+03  d E =-.118124E-01  mag=    10.0000
       N       E                     dE             d eps       ncg     rms          rms(c)
DAV:   1    -0.287872430186E+03   -0.14309E-02   -0.34061E-02 25376   0.735E-01    0.141E-01
DAV:   2    -0.287873113181E+03   -0.68299E-03   -0.61633E-03 30616   0.173E-01    0.759E-01
DAV:   3    -0.287872245086E+03    0.86809E-03   -0.46071E-03 31848   0.114E-01    0.110E-01
DAV:   4    -0.287872678863E+03   -0.43378E-03   -0.97545E-04 25496   0.606E-02    0.277E-01
DAV:   5    -0.287872563995E+03    0.11487E-03   -0.66367E-04 23312   0.452E-02    0.990E-02
DAV:   6    -0.287872591257E+03   -0.27263E-04   -0.75172E-05 18056   0.191E-02    0.751E-02
DAV:   7    -0.287872594622E+03   -0.33649E-05   -0.56739E-06 14072   0.101E-02
[...]
DAV:   5    -0.287916295685E+03    0.23183E-01   -0.15099E-01 33848   0.636E-01    0.164E+00
DAV:   6    -0.287920514672E+03   -0.42190E-02   -0.36383E-02 32800   0.386E-01    0.126E+00
DAV:   7    -0.287918147741E+03    0.23669E-02   -0.48143E-02 32168   0.401E-01    0.146E+00
DAV:   8    -0.287918060605E+03    0.87136E-04   -0.12860E-02 30568   0.283E-01    0.100E+00
DAV:   9    -0.287918273463E+03   -0.21286E-03   -0.54345E-03 32472   0.141E-01    0.678E-01
DAV:  10    -0.287919031527E+03   -0.75806E-03   -0.18504E-03 32312   0.115E-01    0.815E-01
DAV:  11    -0.287918846541E+03    0.18499E-03   -0.34138E-04 31952   0.555E-02    0.754E-01
DAV:  12    -0.287918703819E+03    0.14272E-03   -0.30232E-04 29560   0.470E-02    0.624E-01
DAV:  13    -0.287918618349E+03    0.85471E-04   -0.14795E-03 28080   0.528E-02    0.199E-01
DAV:  14    -0.287918996280E+03   -0.37793E-03   -0.60366E-04 25440   0.420E-02    0.818E-02
DAV:  15    -0.287919099473E+03   -0.10319E-03   -0.88102E-05 22456   0.319E-02    0.912E-02
DAV:  16    -0.287919105670E+03   -0.61976E-05   -0.28295E-05 17520   0.162E-02
  69 F= -.28791911E+03 E0= -.28790621E+03  d E =-.912563E-02  mag=    10.0000
       N       E                     dE             d eps       ncg     rms          rms(c)
DAV:   1    -0.287891193264E+03    0.27906E-01   -0.12801E+01 25344   0.114E+01    0.128E+00
DAV:   2    -0.287939484353E+03   -0.48291E-01   -0.50473E-01 27720   0.199E+00    0.341E+00
DAV:   3    -0.287926414321E+03    0.13070E-01   -0.22340E-01 33792   0.749E-01    0.178E+00
DAV:   4    -0.287926167875E+03    0.24645E-03   -0.29691E-02 32016   0.421E-01    0.672E-01
DAV:   5    -0.287927917221E+03   -0.17493E-02   -0.24568E-02 34504   0.243E-01    0.141E+00
DAV:   6    -0.287925077648E+03    0.28396E-02   -0.24277E-02 33216   0.270E-01    0.814E-01
DAV:   7    -0.287925217990E+03   -0.14034E-03   -0.53772E-03 31784   0.166E-01    0.429E-01
DAV:   8    -0.287925550380E+03   -0.33239E-03   -0.24447E-03 31184   0.112E-01    0.244E-01
DAV:   9    -0.287925985555E+03   -0.43518E-03   -0.21054E-03 31872   0.776E-02    0.219E-01
DAV:  10    -0.287926088332E+03   -0.10278E-03   -0.56707E-04 28632   0.571E-02    0.249E-01
DAV:  11    -0.287926023154E+03    0.65178E-04   -0.12990E-04 27088   0.377E-02    0.227E-01
DAV:  12    -0.287925977479E+03    0.45675E-04   -0.15284E-04 24728   0.432E-02    0.117E-01
DAV:  13    -0.287926011888E+03   -0.34409E-04   -0.25784E-04 27928   0.443E-02    0.935E-02
DAV:  14    -0.287926016555E+03   -0.46667E-05   -0.50492E-05 21776   0.250E-02
  70 F= -.28792602E+03 E0= -.28791281E+03  d E =-.691088E-02  mag=    10.0000
       N       E                     dE             d eps       ncg     rms          rms(c)
DAV:   1    -0.287895465481E+03    0.30546E-01   -0.11033E+01 25344   0.102E+01    0.783E-01
DAV:   2    -0.287924190412E+03   -0.28725E-01   -0.31048E-01 26104   0.170E+00    0.906E-01
DAV:   3    -0.287927989231E+03   -0.37988E-02   -0.76496E-02 34840   0.473E-01    0.204E+00
DAV:   4    -0.287922039773E+03    0.59495E-02   -0.49171E-02 35112   0.359E-01    0.118E+00
DAV:   5    -0.287921756269E+03    0.28350E-03   -0.11258E-02 33144   0.189E-01    0.387E-01
DAV:   6    -0.287922978877E+03   -0.12226E-02   -0.93794E-03 33472   0.178E-01    0.823E-01
DAV:   7    -0.287921368456E+03    0.16104E-02   -0.74339E-03 34696   0.188E-01    0.253E-01
DAV:   8    -0.287921880979E+03   -0.51252E-03   -0.28150E-03 33000   0.104E-01    0.251E-01
DAV:   9    -0.287922196203E+03   -0.31522E-03   -0.12511E-03 30136   0.672E-02    0.274E-01
DAV:  10    -0.287922167594E+03    0.28609E-04   -0.35625E-04 32216   0.750E-02    0.177E-01
DAV:  11    -0.287922150046E+03    0.17548E-04   -0.27250E-04 32784   0.619E-02    0.895E-02
DAV:  12    -0.287922161100E+03   -0.11054E-04   -0.17377E-04 28056   0.360E-02    0.102E-01
DAV:  13    -0.287922168268E+03   -0.71680E-05   -0.11091E-04 19304   0.266E-02    0.584E-02
DAV:  14    -0.287922177795E+03   -0.95266E-05   -0.30661E-05 18184   0.184E-02
  71 F= -.28792218E+03 E0= -.28790892E+03  d E =0.383876E-02  mag=    10.0000
       N       E                     dE             d eps       ncg     rms          rms(c)
DAV:   1    -0.287919369148E+03    0.27991E-02   -0.26262E+00 25344   0.518E+00    0.428E-01
DAV:   2    -0.287927071038E+03   -0.77019E-02   -0.82468E-02 26352   0.874E-01    0.787E-01
DAV:   3    -0.287926912664E+03    0.15837E-03   -0.20179E-02 34416   0.246E-01    0.824E-01
DAV:   4    -0.287926732029E+03    0.18063E-03   -0.12317E-02 34432   0.184E-01    0.731E-01
DAV:   5    -0.287925971793E+03    0.76024E-03   -0.50816E-03 33480   0.140E-01    0.236E-01
DAV:   6    -0.287926399600E+03   -0.42781E-03   -0.29723E-03 32904   0.846E-02    0.478E-01
DAV:   7    -0.287925970599E+03    0.42900E-03   -0.11078E-03 31152   0.911E-02    0.201E-01
DAV:   8    -0.287926056607E+03   -0.86008E-04   -0.74160E-04 31776   0.512E-02    0.102E-01
DAV:   9    -0.287926159457E+03   -0.10285E-03   -0.36381E-04 23224   0.364E-02    0.107E-01
DAV:  10    -0.287926171908E+03   -0.12451E-04   -0.10699E-04 26416   0.343E-02    0.772E-02
DAV:  11    -0.287926175447E+03   -0.35392E-05   -0.57038E-05 18976   0.226E-02
  72 F= -.28792618E+03 E0= -.28791285E+03  d E =-.399765E-02  mag=    10.0000
       N       E                     dE             d eps       ncg     rms          rms(c)
DAV:   1    -0.287927205398E+03   -0.10335E-02   -0.95470E-01 25056   0.311E+00    0.321E-01
DAV:   2    -0.287930594559E+03   -0.33892E-02   -0.35492E-02 26200   0.551E-01    0.924E-01
DAV:   3    -0.287929603895E+03    0.99066E-03   -0.12858E-02 33800   0.195E-01    0.470E-01
DAV:   4    -0.287929962891E+03   -0.35900E-03   -0.36437E-03 31296   0.123E-01    0.476E-01
DAV:   5    -0.287929652836E+03    0.31005E-03   -0.20666E-03 34128   0.758E-02    0.181E-01
DAV:   6    -0.287929751929E+03   -0.99092E-04   -0.54472E-04 24264   0.452E-02    0.188E-01
DAV:   7    -0.287929652299E+03    0.99630E-04   -0.43367E-04 30232   0.513E-02    0.123E-01
DAV:   8    -0.287929674455E+03   -0.22157E-04   -0.67111E-04 31080   0.514E-02    0.112E-01
DAV:   9    -0.287929723716E+03   -0.49261E-04   -0.21208E-04 23248   0.350E-02    0.103E-01
DAV:  10    -0.287929717233E+03    0.64836E-05   -0.69172E-05 25416   0.309E-02
  73 F= -.28792972E+03 E0= -.28791649E+03  d E =-.354179E-02  mag=    10.0000
       N       E                     dE             d eps       ncg     rms          rms(c)
DAV:   1    -0.287930129698E+03   -0.40598E-03   -0.67074E-02 25344   0.858E-01    0.100E-01
DAV:   2    -0.287930402851E+03   -0.27315E-03   -0.27917E-03 27512   0.153E-01    0.267E-01
DAV:   3    -0.287930323192E+03    0.79659E-04   -0.11800E-03 31360   0.531E-02    0.139E-01
DAV:   4    -0.287930347367E+03   -0.24175E-04   -0.28705E-04 21856   0.355E-02    0.137E-01
DAV:   5    -0.287930316637E+03    0.30730E-04   -0.18767E-04 20104   0.283E-02    0.719E-02
DAV:   6    -0.287930322486E+03   -0.58484E-05   -0.48276E-05 16472   0.147E-02
  74 F= -.28793032E+03 E0= -.28791709E+03  d E =-.605253E-03  mag=    10.0000
       N       E                     dE             d eps       ncg     rms          rms(c)
DAV:   1    -0.287931205196E+03   -0.88856E-03   -0.10457E-02 25056   0.401E-01    0.667E-02
DAV:   2    -0.287931328255E+03   -0.12306E-03   -0.13155E-03 29016   0.885E-02    0.302E-01
DAV:   3    -0.287931190539E+03    0.13772E-03   -0.72069E-04 25656   0.482E-02    0.558E-02
DAV:   4    -0.287931275143E+03   -0.84604E-04   -0.26942E-04 20744   0.301E-02    0.139E-01
DAV:   5    -0.287931250455E+03    0.24688E-04   -0.23106E-04 20512   0.286E-02    0.698E-02
DAV:   6    -0.287931257112E+03   -0.66576E-05   -0.76928E-05 16600   0.161E-02
  75 F= -.28793126E+03 E0= -.28791804E+03  d E =-.934627E-03  mag=    10.0000
       N       E                     dE             d eps       ncg     rms          rms(c)
DAV:   1    -0.287933502964E+03   -0.22525E-02   -0.32976E-01 24768   0.197E+00    0.156E-01
DAV:   2    -0.287934737533E+03   -0.12346E-02   -0.13771E-02 26096   0.355E-01    0.348E-01
DAV:   3    -0.287934615847E+03    0.12169E-03   -0.26361E-03 34584   0.103E-01    0.275E-01
DAV:   4    -0.287934705984E+03   -0.90137E-04   -0.19838E-03 31920   0.733E-02    0.360E-01
DAV:   5    -0.287934519817E+03    0.18617E-03   -0.99983E-04 30520   0.623E-02    0.109E-01
DAV:   6    -0.287934594675E+03   -0.74858E-04   -0.51727E-04 21848   0.334E-02    0.173E-01
DAV:   7    -0.287934546623E+03    0.48051E-04   -0.37276E-04 25952   0.400E-02    0.635E-02
DAV:   8    -0.287934565601E+03   -0.18977E-04   -0.79059E-05 19272   0.223E-02    0.495E-02
DAV:   9    -0.287934569232E+03   -0.36314E-05   -0.49124E-05 17152   0.173E-02
  76 F= -.28793457E+03 E0= -.28792130E+03  d E =-.331212E-02  mag=    10.0000
       N       E                     dE             d eps       ncg     rms          rms(c)
DAV:   1    -0.287930341424E+03    0.42242E-02   -0.46801E+00 24768   0.735E+00    0.496E-01
DAV:   2    -0.287945993908E+03   -0.15652E-01   -0.17460E-01 25336   0.128E+00    0.780E-01
DAV:   3    -0.287946762688E+03   -0.76878E-03   -0.30566E-02 35568   0.334E-01    0.118E+00
DAV:   4    -0.287946022897E+03    0.73979E-03   -0.22473E-02 35152   0.241E-01    0.103E+00
DAV:   5    -0.287944699482E+03    0.13234E-02   -0.94011E-03 33768   0.189E-01    0.172E-01
DAV:   6    -0.287945244673E+03   -0.54519E-03   -0.31332E-03 30696   0.129E-01    0.513E-01
DAV:   7    -0.287944869322E+03    0.37535E-03   -0.25507E-03 33272   0.879E-02    0.201E-01
DAV:   8    -0.287945044573E+03   -0.17525E-03   -0.46736E-04 28616   0.534E-02    0.780E-02
DAV:   9    -0.287945126256E+03   -0.81683E-04   -0.22025E-04 23272   0.265E-02    0.105E-01
DAV:  10    -0.287945133619E+03   -0.73633E-05   -0.47388E-05 17944   0.224E-02
  77 F= -.28794513E+03 E0= -.28793187E+03  d E =-.105644E-01  mag=    10.0000
       N       E                     dE             d eps       ncg     rms          rms(c)
DAV:   1    -0.287868313638E+03    0.76813E-01   -0.26414E+01 24768   0.181E+01    0.131E+00
DAV:   2    -0.287972811061E+03   -0.10450E+00   -0.11631E+00 25312   0.325E+00    0.221E+00
DAV:   3    -0.287974085790E+03   -0.12747E-02   -0.17528E-01 35712   0.856E-01    0.241E+00
DAV:   4    -0.287975943981E+03   -0.18582E-02   -0.13684E-01 35608   0.610E-01    0.298E+00
DAV:   5    -0.287963777646E+03    0.12166E-01   -0.77131E-02 33760   0.501E-01    0.745E-01
DAV:   6    -0.287970280117E+03   -0.65025E-02   -0.41695E-02 33048   0.294E-01    0.153E+00
DAV:   7    -0.287965635757E+03    0.46444E-02   -0.19998E-02 33024   0.306E-01    0.474E-01
DAV:   8    -0.287967098356E+03   -0.14626E-02   -0.32366E-03 28424   0.136E-01    0.206E-01
DAV:   9    -0.287967332035E+03   -0.23368E-03   -0.67062E-04 33016   0.595E-02    0.180E-01
DAV:  10    -0.287967325493E+03    0.65427E-05   -0.10240E-04 22768   0.329E-02    0.166E-01
DAV:  11    -0.287967310411E+03    0.15082E-04   -0.45389E-04 27744   0.456E-02    0.139E-01
DAV:  12    -0.287967308362E+03    0.20486E-05   -0.29230E-04 24712   0.374E-02    0.591E-02
DAV:  13    -0.287967329027E+03   -0.20665E-04   -0.79651E-05 18696   0.242E-02    0.629E-02
DAV:  14    -0.287967331049E+03   -0.20229E-05   -0.31275E-05 16520   0.162E-02
  78 F= -.28796733E+03 E0= -.28795414E+03  d E =-.221974E-01  mag=    10.0000
       N       E                     dE             d eps       ncg     rms          rms(c)
DAV:   1    -0.287885507229E+03    0.81822E-01   -0.22135E+01 24768   0.156E+01    0.110E+00
DAV:   2    -0.287958785442E+03   -0.73278E-01   -0.80097E-01 25776   0.273E+00    0.171E+00
DAV:   3    -0.287960114154E+03   -0.13287E-02   -0.12717E-01 35296   0.729E-01    0.224E+00
DAV:   4    -0.287958718285E+03    0.13959E-02   -0.11341E-01 35968   0.507E-01    0.245E+00
DAV:   5    -0.287951146713E+03    0.75716E-02   -0.44493E-02 33784   0.362E-01    0.448E-01
DAV:   6    -0.287954869024E+03   -0.37223E-02   -0.19727E-02 31872   0.283E-01    0.135E+00
DAV:   7    -0.287951982777E+03    0.28862E-02   -0.15401E-02 33496   0.228E-01    0.384E-01
DAV:   8    -0.287953356553E+03   -0.13738E-02   -0.38630E-03 31592   0.135E-01    0.260E-01
DAV:   9    -0.287953818966E+03   -0.46241E-03   -0.14183E-03 30592   0.699E-02    0.365E-01
DAV:  10    -0.287953742580E+03    0.76387E-04   -0.31514E-04 27896   0.504E-02    0.315E-01
DAV:  11    -0.287953672929E+03    0.69650E-04   -0.18680E-04 23920   0.395E-02    0.209E-01
DAV:  12    -0.287953686518E+03   -0.13588E-04   -0.31158E-04 30504   0.577E-02    0.116E-01
DAV:  13    -0.287953713359E+03   -0.26841E-04   -0.15850E-04 26360   0.344E-02    0.970E-02
DAV:  14    -0.287953714358E+03   -0.99971E-06   -0.25104E-05 18688   0.240E-02
  79 F= -.28795371E+03 E0= -.28794047E+03  d E =0.136167E-01  mag=    10.0000
       N       E                     dE             d eps       ncg     rms          rms(c)
DAV:   1    -0.287724848364E+03    0.22886E+00   -0.50202E+01 24768   0.249E+01    0.190E+00
DAV:   2    -0.287917203037E+03   -0.19235E+00   -0.21206E+00 25040   0.446E+00    0.203E+00
DAV:   3    -0.287938504237E+03   -0.21301E-01   -0.42078E-01 34704   0.127E+00    0.502E+00
DAV:   4    -0.287908529913E+03    0.29974E-01   -0.30453E-01 35480   0.876E-01    0.357E+00
DAV:   5    -0.287903193445E+03    0.53365E-02   -0.10159E-01 33560   0.479E-01    0.727E-01
DAV:   6    -0.287916336403E+03   -0.13143E-01   -0.82740E-02 34792   0.485E-01    0.238E+00
DAV:   7    -0.287905680716E+03    0.10656E-01   -0.50350E-02 33848   0.455E-01    0.923E-01
DAV:   8    -0.287907546348E+03   -0.18656E-02   -0.85488E-03 31904   0.222E-01    0.607E-01
DAV:   9    -0.287908402323E+03   -0.85597E-03   -0.28551E-03 31768   0.109E-01    0.555E-01
DAV:  10    -0.287908484294E+03   -0.81971E-04   -0.11277E-03 31920   0.853E-02    0.411E-01
DAV:  11    -0.287908574910E+03   -0.90615E-04   -0.39728E-04 30736   0.577E-02    0.337E-01
DAV:  12    -0.287908552508E+03    0.22401E-04   -0.35737E-04 31632   0.644E-02    0.288E-01
DAV:  13    -0.287908616611E+03   -0.64103E-04   -0.43504E-04 27992   0.479E-02    0.183E-01
DAV:  14    -0.287908682142E+03   -0.65530E-04   -0.28043E-04 20880   0.325E-02    0.122E-01
DAV:  15    -0.287908705722E+03   -0.23580E-04   -0.83633E-05 24744   0.296E-02    0.960E-02
DAV:  16    -0.287908709850E+03   -0.41281E-05   -0.34156E-05 16096   0.156E-02
  80 F= -.28790871E+03 E0= -.28789546E+03  d E =0.450045E-01  mag=    10.0000
       N       E                     dE             d eps       ncg     rms          rms(c)
DAV:   1    -0.287849134649E+03    0.59571E-01   -0.28121E+01 24768   0.184E+01    0.149E+00
DAV:   2    -0.287954093000E+03   -0.10496E+00   -0.11565E+00 25184   0.330E+00    0.265E+00
DAV:   3    -0.287954662423E+03   -0.56942E-03   -0.24482E-01 35392   0.950E-01    0.282E+00
DAV:   4    -0.287956672941E+03   -0.20105E-02   -0.18586E-01 34600   0.689E-01    0.315E+00
DAV:   5    -0.287942635935E+03    0.14037E-01   -0.91379E-02 33960   0.568E-01    0.117E+00
DAV:   6    -0.287946281663E+03   -0.36457E-02   -0.33652E-02 32880   0.277E-01    0.981E-01
DAV:   7    -0.287944441276E+03    0.18404E-02   -0.10045E-02 29440   0.283E-01    0.315E-01
DAV:   8    -0.287945260030E+03   -0.81875E-03   -0.35256E-03 30816   0.132E-01    0.255E-01
DAV:   9    -0.287945545510E+03   -0.28548E-03   -0.10121E-03 32168   0.694E-02    0.242E-01
DAV:  10    -0.287945539043E+03    0.64674E-05   -0.31927E-04 29192   0.517E-02    0.194E-01
DAV:  11    -0.287945514342E+03    0.24702E-04   -0.43592E-04 26952   0.456E-02    0.158E-01
DAV:  12    -0.287945500970E+03    0.13372E-04   -0.21291E-04 25976   0.395E-02    0.509E-02
DAV:  13    -0.287945522308E+03   -0.21338E-04   -0.95625E-05 20552   0.242E-02    0.644E-02
DAV:  14    -0.287945528763E+03   -0.64554E-05   -0.44458E-05 18008   0.180E-02
  81 F= -.28794553E+03 E0= -.28793232E+03  d E =-.368189E-01  mag=    10.0000
       N       E                     dE             d eps       ncg     rms          rms(c)
DAV:   1    -0.287933201757E+03    0.12321E-01   -0.66989E+00 24768   0.900E+00    0.703E-01
DAV:   2    -0.287956168156E+03   -0.22966E-01   -0.25374E-01 25120   0.157E+00    0.970E-01
DAV:   3    -0.287958407958E+03   -0.22398E-02   -0.57348E-02 35464   0.441E-01    0.180E+00
DAV:   4    -0.287955568922E+03    0.28390E-02   -0.38456E-02 34520   0.336E-01    0.124E+00
DAV:   5    -0.287954257229E+03    0.13117E-02   -0.14629E-02 33352   0.246E-01    0.269E-01
DAV:   6    -0.287956454345E+03   -0.21971E-02   -0.15849E-02 34632   0.182E-01    0.117E+00
DAV:   7    -0.287954006900E+03    0.24474E-02   -0.10036E-02 34080   0.185E-01    0.240E-01
DAV:   8    -0.287954844214E+03   -0.83731E-03   -0.12103E-03 29600   0.834E-02    0.138E-01
DAV:   9    -0.287954992247E+03   -0.14803E-03   -0.23854E-04 27608   0.378E-02    0.145E-01
DAV:  10    -0.287954961994E+03    0.30253E-04   -0.31425E-05 18824   0.200E-02    0.144E-01
DAV:  11    -0.287954950895E+03    0.11099E-04   -0.21120E-05 18176   0.171E-02    0.124E-01
DAV:  12    -0.287954962661E+03   -0.11765E-04   -0.95998E-05 25200   0.427E-02    0.672E-02
DAV:  13    -0.287954976409E+03   -0.13749E-04   -0.12115E-04 26480   0.324E-02    0.103E-01
DAV:  14    -0.287954972095E+03    0.43138E-05   -0.38653E-05 19744   0.283E-02
  82 F= -.28795497E+03 E0= -.28794160E+03  d E =-.944333E-02  mag=    10.0000
       N       E                     dE             d eps       ncg     rms          rms(c)
DAV:   1    -0.287935862577E+03    0.19114E-01   -0.38259E+00 24768   0.678E+00    0.518E-01
DAV:   2    -0.287949428654E+03   -0.13566E-01   -0.14912E-01 25440   0.120E+00    0.103E+00
DAV:   3    -0.287949193146E+03    0.23551E-03   -0.31616E-02 35408   0.339E-01    0.112E+00
DAV:   4    -0.287949169116E+03    0.24031E-04   -0.21709E-02 34656   0.250E-01    0.110E+00
DAV:   5    -0.287947569764E+03    0.15994E-02   -0.10985E-02 33072   0.194E-01    0.308E-01
DAV:   6    -0.287948454822E+03   -0.88506E-03   -0.52956E-03 32192   0.113E-01    0.571E-01
DAV:   7    -0.287947913513E+03    0.54131E-03   -0.34990E-03 31864   0.126E-01    0.173E-01
DAV:   8    -0.287948122222E+03   -0.20871E-03   -0.56986E-04 29216   0.590E-02    0.132E-01
DAV:   9    -0.287948142863E+03   -0.20641E-04   -0.64403E-05 21384   0.225E-02    0.125E-01
DAV:  10    -0.287948134594E+03    0.82690E-05   -0.36977E-05 17392   0.180E-02
  83 F= -.28794813E+03 E0= -.28793489E+03  d E =0.683750E-02  mag=    10.0000
       N       E                     dE             d eps       ncg     rms          rms(c)
DAV:   1    -0.287947851180E+03    0.29168E-03   -0.76378E-03 25344   0.274E-01    0.941E-02
DAV:   2    -0.287948369660E+03   -0.51848E-03   -0.49670E-03 33720   0.104E-01    0.723E-01
DAV:   3    -0.287947607836E+03    0.76182E-03   -0.37821E-03 31752   0.914E-02    0.599E-02
DAV:   4    -0.287947881162E+03   -0.27333E-03   -0.19574E-04 22232   0.361E-02    0.111E-01
DAV:   5    -0.287947875515E+03    0.56463E-05   -0.12833E-04 19776   0.274E-02    0.576E-02
DAV:   6    -0.287947889980E+03   -0.14464E-04   -0.12932E-04 17704   0.189E-02    0.106E-01
DAV:   7    -0.287947876280E+03    0.13700E-04   -0.72667E-05 17256   0.191E-02    0.326E-02
DAV:   8    -0.287947883587E+03   -0.73065E-05   -0.19461E-05 14776   0.103E-02
  84 F= -.28794788E+03 E0= -.28793466E+03  d E =0.251008E-03  mag=    10.0000
       N       E                     dE             d eps       ncg     rms          rms(c)
DAV:   1    -0.287948451088E+03   -0.57481E-03   -0.21085E-02 24768   0.493E-01    0.416E-02
DAV:   2    -0.287948545701E+03   -0.94613E-04   -0.98043E-04 27080   0.904E-02    0.157E-01
DAV:   3    -0.287948508691E+03    0.37010E-04   -0.27349E-04 22576   0.320E-02    0.507E-02
DAV:   4    -0.287948528001E+03   -0.19310E-04   -0.84681E-05 17928   0.195E-02    0.739E-02
DAV:   5    -0.287948518692E+03    0.93100E-05   -0.45211E-05 14872   0.162E-02
  85 F= -.28794852E+03 E0= -.28793527E+03  d E =-.635105E-03  mag=    10.0000
