       N       E                     dE             d eps       ncg     rms          ort
DAV:   1     0.294177518934E+04    0.29418E+04   -0.13751E+05 10584   0.176E+03
DAV:   2    -0.261147513033E+02   -0.29679E+04   -0.27212E+04 10584   0.457E+02
DAV:   3    -0.428016222854E+03   -0.40190E+03   -0.39338E+03 10584   0.191E+02
DAV:   4    -0.444969594827E+03   -0.16953E+02   -0.16578E+02 10584   0.384E+01
DAV:   5    -0.445539788977E+03   -0.57019E+00   -0.56441E+00 10584   0.579E+00
SDA:   6    -0.236511082349E+03    0.20903E+03   -0.56441E+00 10584   0.110E+04 0.000E+00
CGA:   7    -0.232802384844E+03    0.37087E+01   -0.85256E+02 10584   0.265E+04-0.240E+03
CGA:   8    -0.277873439842E+03   -0.45071E+02   -0.88116E+02 10584   0.127E+04-0.122E+03
CGA:   9    -0.277662509146E+03    0.21093E+00   -0.47895E+02 10584   0.314E+03-0.197E+03
CGA:  10    -0.286667094838E+03   -0.90046E+01   -0.45813E+01 10584   0.551E+03 0.503E+03
CGA:  11    -0.293652967142E+03   -0.69859E+01   -0.15766E+02 10584   0.407E+03-0.214E+03
CGA:  12    -0.308930534823E+03   -0.15278E+02   -0.66835E+01 10584   0.137E+04-0.152E+04
CGA:  13    -0.272310785833E+03    0.36620E+02   -0.70444E+02 10584   0.123E+04-0.462E+03
CGA:  14    -0.311627417812E+03   -0.39317E+02   -0.22137E+02 10584   0.185E+03-0.797E+02
CGA:  15    -0.321580142413E+03   -0.99527E+01   -0.12961E+01 10584   0.735E+03 0.109E+04
CGA:  16    -0.277985693310E+03    0.43594E+02   -0.28935E+02 10584   0.386E+03-0.125E+03
CGA:  17    -0.310747006887E+03   -0.32761E+02   -0.82363E+01 10584   0.967E+03-0.985E+03
CGA:  18    -0.282052137287E+03    0.28695E+02   -0.28807E+02 10584   0.686E+03-0.403E+03
CGA:  19    -0.313919116545E+03   -0.31867E+02   -0.11589E+02 10584   0.338E+03-0.129E+03
CGA:  20    -0.314440267026E+03   -0.52115E+00   -0.50351E+01 10584   0.136E+04-0.594E+03
CGA:  21    -0.266790496243E+03    0.47650E+02   -0.58750E+02 10584   0.976E+03-0.377E+03
CGA:  22    -0.322854712639E+03   -0.56064E+02   -0.16490E+02 10584   0.112E+03-0.154E+03
CGA:  23    -0.332393283774E+03   -0.95386E+01   -0.10284E+01 10584   0.225E+03 0.402E+02
CGA:  24    -0.327736056184E+03    0.46572E+01   -0.56796E+01 10584   0.858E+03-0.362E+03
CGA:  25    -0.318524996276E+03    0.92111E+01   -0.36132E+02 10584   0.156E+03-0.183E+01
CGA:  26    -0.331076232252E+03   -0.12551E+02   -0.29473E+01 10584   0.649E+03-0.104E+04
CGA:  27    -0.319307214378E+03    0.11769E+02   -0.21971E+02 10584   0.572E+03-0.276E+03
CGA:  28    -0.306098763861E+03    0.13208E+02   -0.10543E+02 10584   0.337E+03-0.179E+03
CGA:  29    -0.304670285565E+03    0.14285E+01   -0.57159E+01 10584   0.178E+03-0.122E+03
CGA:  30    -0.306253963977E+03   -0.15837E+01   -0.28501E+01 10584   0.303E+03-0.217E+03
CGA:  31    -0.302927810647E+03    0.33262E+01   -0.70047E+01 10584   0.213E+03-0.186E+03
CGA:  32    -0.306465301139E+03   -0.35375E+01   -0.53013E+01 10584   0.542E+03-0.515E+03
CGA:  33    -0.303438097859E+03    0.30272E+01   -0.14498E+02 10584   0.317E+03-0.285E+03
CGA:  34    -0.307552917280E+03   -0.41148E+01   -0.84368E+01 10584   0.622E+03-0.657E+03
CGA:  35    -0.305638005475E+03    0.19149E+01   -0.16279E+02 10584   0.577E+03-0.559E+03
CGA:  36    -0.304666432305E+03    0.97157E+00   -0.16047E+02 10584   0.470E+03-0.429E+03
CGA:  37    -0.315503056005E+03   -0.10837E+02   -0.10989E+02 10584   0.609E+03-0.951E+03
CGA:  38    -0.305011918086E+03    0.10491E+02   -0.14818E+02 10584   0.255E+03-0.215E+03
CGA:  39    -0.318292855707E+03   -0.13281E+02   -0.26997E+01 10584   0.174E+04-0.196E+04
CGA:  40    -0.302099497789E+03    0.16193E+02   -0.45600E+02 10584   0.185E+03-0.127E+03
CGA:  41    -0.334896290181E+03   -0.32797E+02   -0.26983E+01 10584   0.480E+03-0.175E+04
CGA:  42    -0.319362986076E+03    0.15533E+02   -0.81812E+01 10584   0.284E+04-0.100E+04
CGA:  43    -0.306484734452E+03    0.12878E+02   -0.68490E+02 10584   0.254E+03-0.175E+03
CGA:  44    -0.322974710344E+03   -0.16490E+02   -0.42411E+01 10584   0.190E+04-0.289E+04
CGA:  45    -0.308231179462E+03    0.14744E+02   -0.42145E+02 10584   0.199E+03-0.117E+03
CGA:  46    -0.319196143702E+03   -0.10965E+02   -0.26614E+01 10584   0.273E+04-0.333E+04
CGA:  47    -0.307588427178E+03    0.11608E+02   -0.57694E+02 10584   0.284E+03-0.184E+03
CGA:  48    -0.323929345148E+03   -0.16341E+02   -0.42237E+01 10584   0.213E+04-0.317E+04
CGA:  49    -0.308918085984E+03    0.15011E+02   -0.41567E+02 10584   0.241E+03-0.151E+03
CGA:  50    -0.320756287381E+03   -0.11838E+02   -0.30067E+01 10584   0.274E+04-0.336E+04
CGA:  51    -0.309395365558E+03    0.11361E+02   -0.50697E+02 10584   0.554E+03-0.318E+03
CGA:  52    -0.316415017310E+03   -0.70197E+01   -0.79155E+01 10584   0.159E+04-0.180E+04
CGA:  53    -0.308728507343E+03    0.76865E+01   -0.26791E+02 10584   0.290E+03-0.241E+03
CGA:  54    -0.330281974445E+03   -0.21553E+02   -0.32231E+01 10584   0.177E+04-0.314E+04
CGA:  55    -0.316327371612E+03    0.13955E+02   -0.27069E+02 10584   0.114E+04-0.592E+03
CGA:  56    -0.327934196911E+03   -0.11607E+02   -0.11029E+02 10584   0.213E+04-0.201E+04
CGA:  57    -0.314270389408E+03    0.13664E+02   -0.31369E+02 10584   0.110E+04-0.730E+03
CGA:  58    -0.329155122515E+03   -0.14885E+02   -0.99626E+01 10584   0.197E+04-0.217E+04
CGA:  59    -0.318072143215E+03    0.11083E+02   -0.27140E+02 10584   0.120E+04-0.753E+03
CGA:  60    -0.336734136380E+03   -0.18662E+02   -0.92636E+01 10584   0.325E+03-0.773E+03
CGA:  61    -0.336913900733E+03   -0.17976E+00   -0.25838E+01 10584   0.245E+03-0.250E+03
CGA:  62    -0.337904883531E+03   -0.99098E+00   -0.13756E+01 10584   0.325E+02-0.928E+02
CGA:  63    -0.338043245175E+03   -0.13836E+00   -0.16198E+00 10584   0.219E+01-0.273E+01
CGA:  64    -0.338063580002E+03   -0.20335E-01   -0.20569E-01 10584   0.215E+01-0.484E-01
CGA:  65    -0.338497226396E+03   -0.43365E+00   -0.11361E+00 10584   0.180E+02 0.550E+00
CGA:  66    -0.338689591774E+03   -0.19237E+00   -0.20195E+00 10584   0.394E+01-0.215E+01
CGA:  67    -0.338797347268E+03   -0.10776E+00   -0.10677E+00 10584   0.177E+01 0.817E-01
CGA:  68    -0.338842348707E+03   -0.45001E-01   -0.45712E-01 10584   0.218E+01-0.616E-01
CGA:  69    -0.338890074062E+03   -0.47725E-01   -0.46378E-01 10584   0.236E+01-0.399E-01
CGA:  70    -0.339007017676E+03   -0.11694E+00   -0.11553E+00 10584   0.232E+01 0.505E-01
CGA:  71    -0.339052292529E+03   -0.45275E-01   -0.52336E-01 10584   0.650E+00-0.304E+00
CGA:  72    -0.339112780401E+03   -0.60488E-01   -0.57423E-01 10584   0.867E+00 0.462E-01
CGA:  73    -0.339149512143E+03   -0.36732E-01   -0.36898E-01 10584   0.663E+00-0.555E-01
CGA:  74    -0.339195480404E+03   -0.45968E-01   -0.53791E-01 10584   0.130E+01-0.181E+00
CGA:  75    -0.339246374873E+03   -0.50894E-01   -0.51500E-01 10584   0.258E+00-0.106E+00
CGA:  76    -0.339263115046E+03   -0.16740E-01   -0.17563E-01 10584   0.561E+00-0.326E-01
CGA:  77    -0.339299501279E+03   -0.36386E-01   -0.40065E-01 10584   0.306E+00-0.105E+00
CGA:  78    -0.339316104118E+03   -0.16603E-01   -0.17581E-01 10584   0.316E+00-0.545E-01
CGA:  79    -0.339331113870E+03   -0.15010E-01   -0.15462E-01 10584   0.239E+00-0.594E-01
CGA:  80    -0.339349588861E+03   -0.18475E-01   -0.22390E-01 10584   0.249E+00-0.605E-01
CGA:  81    -0.339355510048E+03   -0.59212E-02   -0.57934E-02 10584   0.741E-01-0.103E-01
CGA:  82    -0.339366109286E+03   -0.10599E-01   -0.11886E-01 10584   0.333E+00-0.102E-01
CGA:  83    -0.339379226093E+03   -0.13117E-01   -0.13371E-01 10584   0.115E+00 0.134E-02
CGA:  84    -0.339383464410E+03   -0.42383E-02   -0.44745E-02 10584   0.690E-01 0.875E-02
CGA:  85    -0.339388336077E+03   -0.48717E-02   -0.47987E-02 10584   0.688E-01 0.124E-01
CGA:  86    -0.339394871809E+03   -0.65357E-02   -0.64257E-02 10584   0.120E+00 0.553E-02
CGA:  87    -0.339401833575E+03   -0.69618E-02   -0.70031E-02 10584   0.518E-01 0.587E-02
CGA:  88    -0.339404191827E+03   -0.23583E-02   -0.24861E-02 10584   0.471E-01 0.677E-02
CGA:  89    -0.339409675954E+03   -0.54841E-02   -0.47977E-02 10584   0.550E-01 0.216E-01
CGA:  90    -0.339413227930E+03   -0.35520E-02   -0.37657E-02 10584   0.138E-01 0.171E-01
CGA:  91    -0.339416906810E+03   -0.36789E-02   -0.29881E-02 10584   0.239E-01 0.658E-02
SDA:  92    -0.339420942578E+03   -0.40358E-02   -0.36306E-02 10584   0.278E-01 0.105E-01
CGA:  93    -0.339421795696E+03   -0.85312E-03   -0.92893E-03 10584   0.124E-01 0.229E-02
CGA:  94    -0.339423603991E+03   -0.18083E-02   -0.22363E-02 10584   0.479E-01-0.426E-02
CGA:  95    -0.339425513199E+03   -0.19092E-02   -0.18632E-02 10584   0.381E-01-0.419E-02
CGA:  96    -0.339426687907E+03   -0.11747E-02   -0.11372E-02 10584   0.218E-01-0.142E-02
CGA:  97    -0.339428733850E+03   -0.20459E-02   -0.21371E-02 10584   0.707E-01-0.285E-02
CGA:  98    -0.339433521743E+03   -0.47879E-02   -0.47993E-02 10584   0.952E-01-0.127E-02
CGA:  99    -0.339436100718E+03   -0.25790E-02   -0.26660E-02 10584   0.284E-01 0.533E-02
CGA: 100    -0.339437194543E+03   -0.10938E-02   -0.11322E-02 10584   0.276E-01 0.185E-02
CGA: 101    -0.339439800598E+03   -0.26061E-02   -0.26820E-02 10584   0.752E-01-0.308E-02
CGA: 102    -0.339442673282E+03   -0.28727E-02   -0.26525E-02 10584   0.512E-01-0.667E-02
CGA: 103    -0.339444038639E+03   -0.13654E-02   -0.12260E-02 10584   0.291E-01-0.392E-02
CGA: 104    -0.339445476812E+03   -0.14382E-02   -0.14113E-02 10584   0.642E-01-0.272E-02
CGA: 105    -0.339449549951E+03   -0.40731E-02   -0.40925E-02 10584   0.172E+00-0.446E-02
CGA: 106    -0.339455039036E+03   -0.54891E-02   -0.52623E-02 10584   0.139E+00-0.371E-02
CGA: 107    -0.339457861966E+03   -0.28229E-02   -0.27574E-02 10584   0.545E-01 0.449E-02
CGA: 108    -0.339459081402E+03   -0.12194E-02   -0.12561E-02 10584   0.410E-01 0.245E-02
CGA: 109    -0.339461202289E+03   -0.21209E-02   -0.21061E-02 10584   0.104E+00-0.243E-02
CGA: 110    -0.339466596482E+03   -0.53942E-02   -0.53200E-02 10584   0.179E+00-0.278E-01
CGA: 111    -0.339469364186E+03   -0.27677E-02   -0.17071E-02 10584   0.112E+00 0.468E-02
CGA: 112    -0.339471503247E+03   -0.21391E-02   -0.16284E-02 10584   0.509E-01-0.125E-01
CGA: 113    -0.339472345389E+03   -0.84214E-03   -0.71670E-03 10584   0.382E-01-0.481E-02
CGA: 114    -0.339473061416E+03   -0.71603E-03   -0.72093E-03 10584   0.525E-01-0.277E-03
CGA: 115    -0.339474576049E+03   -0.15146E-02   -0.15782E-02 10584   0.102E+00 0.234E-02
CGA: 116    -0.339477438134E+03   -0.28621E-02   -0.29216E-02 10584   0.992E-01 0.390E-03
CGA: 117    -0.339479212501E+03   -0.17744E-02   -0.17170E-02 10584   0.397E-01-0.519E-02
CGA: 118    -0.339480014180E+03   -0.80168E-03   -0.73117E-03 10584   0.269E-01-0.369E-02
CGA: 119    -0.339480870576E+03   -0.85640E-03   -0.83045E-03 10584   0.469E-01-0.263E-02
CGA: 120    -0.339482487271E+03   -0.16167E-02   -0.16082E-02 10584   0.793E-01-0.206E-02
CGA: 121    -0.339484688356E+03   -0.22011E-02   -0.21524E-02 10584   0.601E-01-0.398E-02
CGA: 122    -0.339486040461E+03   -0.13521E-02   -0.12366E-02 10584   0.268E-01-0.608E-02
SDA: 123    -0.339486743500E+03   -0.70304E-03   -0.61211E-03 10584   0.186E-01-0.591E-02
CGA: 124    -0.339488518788E+03   -0.17753E-02   -0.15223E-02 10584   0.133E-01 0.628E-02
CGA: 125    -0.339489973558E+03   -0.14548E-02   -0.12456E-02 10584   0.546E-02 0.785E-02
CGA: 126    -0.339489402893E+03    0.57066E-03   -0.47991E-03 10584   0.129E+00-0.960E-02
CGA: 127    -0.339492060188E+03   -0.26573E-02   -0.31212E-02 10584   0.418E-02 0.104E-01
CGA: 128    -0.339492155375E+03   -0.95187E-04   -0.17243E-03 10584   0.307E-02 0.194E-02
CGA: 129    -0.339492591491E+03   -0.43612E-03   -0.40459E-03 10584   0.692E-02 0.238E-02
CGA: 130    -0.339493013337E+03   -0.42185E-03   -0.40588E-03 10584   0.402E-02-0.872E-03
CGA: 131    -0.339493964347E+03   -0.95101E-03   -0.63320E-03 10584   0.236E-02 0.306E-02
CGA: 132    -0.339494035722E+03   -0.71375E-04   -0.11521E-03 10584   0.185E-02 0.135E-02
CGA: 133    -0.339494057948E+03   -0.22226E-04   -0.14350E-03 10584   0.688E-01-0.229E-02
CGA: 134    -0.339495318592E+03   -0.12606E-02   -0.16560E-02 10584   0.286E-02 0.520E-02
CGA: 135    -0.339495376001E+03   -0.57409E-04   -0.11813E-03 10584   0.147E-02 0.661E-03
CGA: 136    -0.339495665642E+03   -0.28964E-03   -0.28004E-03 10584   0.817E-02 0.497E-03
CGA: 137    -0.339498004926E+03   -0.23393E-02   -0.20292E-02 10584   0.832E-02 0.626E-02
CGA: 138    -0.339498161590E+03   -0.15666E-03   -0.21758E-03 10584   0.105E-02 0.698E-03
CGA: 139    -0.339498319937E+03   -0.15835E-03   -0.16864E-03 10584   0.609E-02-0.646E-03
CGA: 140    -0.339498426545E+03   -0.10661E-03   -0.18516E-03 10584   0.701E-03 0.916E-03
CGA: 141    -0.339498502138E+03   -0.75592E-04   -0.81623E-04 10584   0.199E-02 0.227E-03
CGA: 142    -0.339500092920E+03   -0.15908E-02   -0.11713E-02 10584   0.773E-02 0.130E-02
CGA: 143    -0.339500494911E+03   -0.40199E-03   -0.35945E-03 10584   0.161E-02-0.639E-03
CGA: 144    -0.339500530782E+03   -0.35871E-04   -0.90740E-04 10584   0.758E-03 0.715E-03
CGA: 145    -0.339500608065E+03   -0.77283E-04   -0.89048E-04 10584   0.111E-02 0.219E-03
CGA: 146    -0.339500711888E+03   -0.10382E-03   -0.13239E-03 10584   0.164E-02 0.721E-03
CGA: 147    -0.339500910184E+03   -0.19830E-03   -0.18053E-03 10584   0.355E-02-0.896E-03
CGA: 148    -0.339500968433E+03   -0.58249E-04   -0.10615E-03 10584   0.616E-03 0.536E-03
CGA: 149    -0.339501041788E+03   -0.73355E-04   -0.67425E-04 10584   0.184E-02-0.210E-03
CGA: 150    -0.339501177588E+03   -0.13580E-03   -0.13754E-03 10584   0.874E-02 0.184E-03
CGA: 151    -0.339502977417E+03   -0.17998E-02   -0.16333E-02 10584   0.137E-01 0.313E-02
CGA: 152    -0.339504218326E+03   -0.12409E-02   -0.11238E-02 10584   0.120E-01-0.196E-02
CGA: 153    -0.339504845225E+03   -0.62690E-03   -0.75472E-03 10584   0.842E-02 0.207E-02
CGA: 154    -0.339505240785E+03   -0.39556E-03   -0.47842E-03 10584   0.117E-02 0.113E-02
CGA: 155    -0.339501041920E+03    0.41989E-02   -0.23761E-02 10584   0.255E+00-0.805E-02
CGA: 156    -0.339505868126E+03   -0.48262E-02   -0.53870E-02 10584   0.470E-02 0.156E-01
CGA: 157    -0.339505944813E+03   -0.76688E-04   -0.17336E-03 10584   0.182E-02 0.721E-03
CGA: 158    -0.339506156657E+03   -0.21184E-03   -0.19158E-03 10584   0.374E-02-0.214E-03
CGA: 159    -0.339506283926E+03   -0.12727E-03   -0.15184E-03 10584   0.160E-02 0.172E-03
CGA: 160    -0.339506286563E+03   -0.26374E-05   -0.43064E-04 10584   0.721E-03 0.262E-03
CGA: 161    -0.339506294882E+03   -0.83191E-05   -0.38352E-04 10584   0.878E-03 0.234E-03
CGA: 162    -0.339506328717E+03   -0.33835E-04   -0.64706E-04 10584   0.121E-02 0.277E-03
CGA: 163    -0.339506329815E+03   -0.10976E-05   -0.71730E-04 10584   0.956E-03 0.606E-03
CGA: 164    -0.339506318152E+03    0.11663E-04   -0.47809E-04 10584   0.663E-03 0.483E-03
CGA: 165    -0.339506541379E+03   -0.22323E-03    0.37645E-03 10584   0.194E-02-0.211E-03
CGA: 166    -0.339506582069E+03   -0.40691E-04   -0.48397E-04 10584   0.986E-03 0.654E-04
CGA: 167    -0.339506576473E+03    0.55959E-05   -0.27462E-04 10584   0.630E-03 0.289E-03
CGA: 168    -0.339506597703E+03   -0.21229E-04   -0.37552E-04 10584   0.810E-03 0.176E-03
CGA: 169    -0.339506687663E+03   -0.89960E-04   -0.89408E-04 10584   0.258E-02-0.201E-04
CGA: 170    -0.339506728115E+03   -0.40451E-04   -0.87397E-04 10584   0.283E-02 0.450E-03
CGA: 171    -0.339506728880E+03   -0.76567E-06   -0.78014E-04 10584   0.172E-02 0.643E-03
CGA: 172    -0.339506754333E+03   -0.25453E-04   -0.73581E-04 10584   0.252E-02 0.523E-03
CGA: 173    -0.339506989843E+03   -0.23551E-03   -0.23970E-03 10584   0.823E-02-0.301E-04
CGA: 174    -0.339507502567E+03   -0.51272E-03   -0.41067E-03 10584   0.213E-01-0.155E-02
CGA: 175    -0.339507928222E+03   -0.42565E-03   -0.24647E-03 10584   0.218E-01 0.396E-02
CGA: 176    -0.339508413208E+03   -0.48499E-03   -0.37972E-03 10584   0.116E-01 0.271E-02
CGA: 177    -0.339508546067E+03   -0.13286E-03   -0.19138E-03 10584   0.694E-02 0.124E-03
CGA: 178    -0.339508575543E+03   -0.29476E-04   -0.13121E-03 10584   0.910E-02 0.835E-03
CGA: 179    -0.339508703014E+03   -0.12747E-03   -0.29818E-03 10584   0.164E-01 0.181E-02
CGA: 180    -0.339509067138E+03   -0.36412E-03   -0.42869E-03 10584   0.112E-01 0.284E-02
CGA: 181    -0.339509316888E+03   -0.24975E-03   -0.21515E-03 10584   0.497E-02 0.162E-05
CGA: 182    -0.339509442995E+03   -0.12611E-03   -0.10466E-03 10584   0.384E-02-0.590E-03
CGA: 183    -0.339509495327E+03   -0.52332E-04   -0.65961E-04 10584   0.330E-02 0.187E-04
CGA: 184    -0.339509533382E+03   -0.38055E-04   -0.70537E-04 10584   0.382E-02 0.427E-03
CGA: 185    -0.339509681729E+03   -0.14835E-03   -0.16900E-03 10584   0.879E-02 0.367E-03
CGA: 186    -0.339510154309E+03   -0.47258E-03   -0.40098E-03 10584   0.972E-02-0.315E-02
CGA: 187    -0.339510380204E+03   -0.22590E-03   -0.89190E-04 10584   0.495E-02-0.253E-02
CGA: 188    -0.339510561146E+03   -0.18094E-03   -0.76143E-04 10584   0.554E-02-0.247E-02
CGA: 189    -0.339510735094E+03   -0.17395E-03   -0.10499E-03 10584   0.176E-01-0.303E-02
CGA: 190    -0.339510996579E+03   -0.26148E-03   -0.39593E-03 10584   0.265E-02 0.332E-02
CGA: 191    -0.339511119480E+03   -0.12290E-03   -0.14345E-03 10584   0.264E-02 0.123E-02
CGA: 192    -0.339511415443E+03   -0.29596E-03   -0.30404E-03 10584   0.269E-02-0.467E-03
CGA: 193    -0.339511441502E+03   -0.26059E-04   -0.59864E-04 10584   0.177E-02 0.965E-03
CGA: 194    -0.339511471273E+03   -0.29771E-04   -0.63469E-04 10584   0.142E-02 0.100E-02
CGA: 195    -0.339511705664E+03   -0.23439E-03    0.10289E-03 10584   0.110E-02 0.665E-03
CGA: 196    -0.339511899000E+03   -0.19334E-03   -0.20517E-03 10584   0.202E-02-0.167E-03
CGA: 197    -0.339512135675E+03   -0.23667E-03    0.47986E-03 10584   0.219E-02-0.544E-03
CGA: 198    -0.339512365224E+03   -0.22955E-03    0.32143E-03 10584   0.323E-02 0.124E-02
CGA: 199    -0.339512416901E+03   -0.51677E-04   -0.10302E-03 10584   0.177E-02 0.169E-02
CGA: 200    -0.339512634565E+03   -0.21766E-03   -0.23184E-03 10584   0.361E-02-0.201E-03
   1 F= -.33951263E+03 E0= -.33950820E+03  d E =-.339513E+03  mag=    14.0000
       N       E                     dE             d eps       ncg     rms          ort
SDA:   1    -0.339457503154E+03    0.54914E-01    0.00000E+00 10584   0.255E+01 0.000E+00
CGA:   2    -0.339512778198E+03   -0.55275E-01   -0.58958E-01 10584   0.264E-01-0.237E+00
CGA:   3    -0.339513165021E+03   -0.38682E-03   -0.53254E-03 10584   0.203E-02 0.401E-02
CGA:   4    -0.339513249120E+03   -0.84098E-04   -0.97540E-04 10584   0.206E-02 0.823E-03
CGA:   5    -0.339511387184E+03    0.18619E-02   -0.10347E-02 10584   0.402E-01-0.960E-02
CGA:   6    -0.339512523328E+03   -0.11361E-02   -0.14126E-02 10584   0.148E-01 0.459E-02
CGA:   7    -0.339513816197E+03   -0.12929E-02   -0.12711E-02 10584   0.679E-02-0.928E-03
CGA:   8    -0.339514117810E+03   -0.30161E-03   -0.33346E-03 10584   0.938E-03 0.719E-03
CGA:   9    -0.339514186455E+03   -0.68646E-04   -0.73740E-04 10584   0.780E-03 0.195E-03
CGA:  10    -0.339514292441E+03   -0.10599E-03   -0.10305E-03 10584   0.422E-03 0.226E-03
CGA:  11    -0.339514356457E+03   -0.64016E-04   -0.62631E-04 10584   0.803E-03 0.808E-04
CGA:  12    -0.339514598734E+03   -0.24228E-03   -0.32431E-03 10584   0.278E-02-0.291E-03
CGA:  13    -0.339514682930E+03   -0.84196E-04   -0.76416E-04 10584   0.241E-02 0.168E-04
CGA:  14    -0.339514973830E+03   -0.29090E-03   -0.39718E-03 10584   0.130E-01-0.160E-02
CGA:  15    -0.339515556161E+03   -0.58233E-03   -0.57221E-03 10584   0.338E-02-0.160E-03
CGA:  16    -0.339515734753E+03   -0.17859E-03   -0.20368E-03 10584   0.293E-02 0.557E-03
CGA:  17    -0.339515647936E+03    0.86816E-04   -0.10137E-02 10584   0.335E-01-0.570E-02
CGA:  18    -0.339516160240E+03   -0.51230E-03   -0.79494E-03 10584   0.245E-02 0.382E-02
CGA:  19    -0.339516249013E+03   -0.88773E-04   -0.12042E-03 10584   0.164E-02 0.510E-03
CGA:  20    -0.339516492061E+03   -0.24305E-03   -0.35628E-03 10584   0.772E-02-0.152E-02
CGA:  21    -0.339516572659E+03   -0.80598E-04   -0.18359E-03 10584   0.935E-03 0.136E-02
CGA:  22    -0.339516605601E+03   -0.32942E-04   -0.42310E-04 10584   0.309E-03 0.144E-03
CGA:  23    -0.339514726216E+03    0.18794E-02   -0.10569E-02 10584   0.867E-01-0.377E-02
CGA:  24    -0.339516371634E+03   -0.16454E-02   -0.19932E-02 10584   0.508E-02 0.638E-02
CGA:  25    -0.339516646801E+03   -0.27517E-03   -0.26158E-03 10584   0.128E-02-0.473E-04
CGA:  26    -0.339516877164E+03   -0.23036E-03   -0.13647E-03 10584   0.683E-02-0.149E-02
CGA:  27    -0.339516901930E+03   -0.24765E-04   -0.13939E-03 10584   0.356E-03 0.932E-03
CGA:  28    -0.339516894776E+03    0.71533E-05   -0.11323E-04 10584   0.202E-03 0.142E-03
CGA:  29    -0.339516926334E+03   -0.31558E-04   -0.27077E-04 10584   0.610E-03-0.767E-04
CGA:  30    -0.339516966619E+03   -0.40285E-04   -0.22383E-04 10584   0.196E-02-0.200E-03
CGA:  31    -0.339517034122E+03   -0.67503E-04   -0.50206E-04 10584   0.281E-02-0.161E-03
CGA:  32    -0.339517088096E+03   -0.53974E-04   -0.58299E-04 10584   0.161E-02 0.263E-03
CGA:  33    -0.339517131780E+03   -0.43685E-04   -0.44870E-04 10584   0.132E-02 0.103E-03
CGA:  34    -0.339517255946E+03   -0.12417E-03   -0.83788E-04 10584   0.385E-02-0.524E-03
CGA:  35    -0.339517444955E+03   -0.18901E-03   -0.75021E-04 10584   0.945E-02-0.996E-03
CGA:  36    -0.339517865697E+03   -0.42074E-03   -0.15013E-03 10584   0.148E-01 0.161E-02
CGA:  37    -0.339518380046E+03   -0.51435E-03   -0.19290E-03 10584   0.143E-01 0.124E-01
CGA:  38    -0.339519108860E+03   -0.72881E-03   -0.72125E-03 10584   0.201E-02-0.276E-03
CGA:  39    -0.339519132049E+03   -0.23189E-04   -0.77208E-04 10584   0.113E-02 0.785E-03
CGA:  40    -0.339519252944E+03   -0.12090E-03   -0.12750E-03 10584   0.474E-03 0.283E-03
CGA:  41    -0.339519315977E+03   -0.63033E-04   -0.89976E-04 10584   0.343E-02-0.558E-03
CGA:  42    -0.339519344639E+03   -0.28662E-04   -0.73705E-04 10584   0.307E-03 0.565E-03
CGA:  43    -0.339519378277E+03   -0.33638E-04   -0.31049E-04 10584   0.107E-02-0.174E-03
CGA:  44    -0.339519450979E+03   -0.72701E-04   -0.43630E-04 10584   0.541E-03-0.491E-03
CGA:  45    -0.339519450911E+03    0.67230E-07   -0.11132E-04 10584   0.269E-03 0.188E-03
CGA:  46    -0.339519458612E+03   -0.77005E-05   -0.12407E-04 10584   0.187E-03 0.787E-04
CGA:  47    -0.339519547376E+03   -0.88764E-04    0.11154E-04 10584   0.516E-03 0.101E-03
CGA:  48    -0.339519545824E+03    0.15517E-05   -0.11546E-04 10584   0.121E-03 0.189E-03
   2 F= -.33951955E+03 E0= -.33951525E+03  d E =-.691126E-02  mag=    14.0000
       N       E                     dE             d eps       ncg     rms          ort
SDA:   1    -0.339517446000E+03    0.21014E-02    0.00000E+00 10584   0.336E-01 0.000E+00
CGA:   2    -0.339518465239E+03   -0.10192E-02   -0.11042E-02 10584   0.709E-02 0.240E-02
CGA:   3    -0.339519961116E+03   -0.14959E-02   -0.13334E-02 10584   0.772E-02 0.175E-02
CGA:   4    -0.339520635411E+03   -0.67430E-03   -0.59297E-03 10584   0.802E-02-0.327E-02
CGA:   5    -0.339520843529E+03   -0.20812E-03   -0.24234E-03 10584   0.457E-02 0.102E-02
CGA:   6    -0.339520904402E+03   -0.60874E-04   -0.12600E-03 10584   0.109E-02 0.113E-02
CGA:   7    -0.339520982053E+03   -0.77650E-04   -0.78814E-04 10584   0.185E-02 0.514E-04
CGA:   8    -0.339521157312E+03   -0.17526E-03   -0.19242E-03 10584   0.213E-02-0.905E-03
CGA:   9    -0.339521169178E+03   -0.11866E-04   -0.14042E-04 10584   0.107E-02 0.355E-04
CGA:  10    -0.339521178055E+03   -0.88771E-05   -0.16152E-04 10584   0.643E-03 0.119E-03
CGA:  11    -0.339521201047E+03   -0.22992E-04   -0.24178E-04 10584   0.142E-02 0.305E-04
CGA:  12    -0.339521303414E+03   -0.10237E-03   -0.95219E-04 10584   0.487E-02-0.827E-03
CGA:  13    -0.339521465884E+03   -0.16247E-03   -0.14580E-03 10584   0.485E-03-0.413E-03
CGA:  14    -0.339521462043E+03    0.38406E-05   -0.10510E-04 10584   0.276E-03 0.309E-03
CGA:  15    -0.339521494651E+03   -0.32608E-04   -0.29674E-04 10584   0.523E-03 0.733E-04
CGA:  16    -0.339521588563E+03   -0.93913E-04    0.13297E-02 10584   0.194E-03 0.282E-03
CGA:  17    -0.339521584202E+03    0.43613E-05   -0.32824E-05 10584   0.131E-03 0.145E-03
CGA:  18    -0.339521599704E+03   -0.15502E-04   -0.12547E-04 10584   0.156E-03 0.102E-03
CGA:  19    -0.339521658579E+03   -0.58875E-04    0.30260E-05 10584   0.278E-03 0.276E-04
CGA:  20    -0.339521710172E+03   -0.51593E-04    0.75013E-04 10584   0.191E-03 0.300E-03
CGA:  21    -0.339521704942E+03    0.52300E-05   -0.26317E-05 10584   0.124E-03 0.144E-03
   3 F= -.33952170E+03 E0= -.33951742E+03  d E =-.215912E-02  mag=    14.0000
       N       E                     dE             d eps       ncg     rms          ort
SDA:   1    -0.339501482295E+03    0.20228E-01    0.00000E+00 10584   0.596E-01 0.000E+00
CGA:   2    -0.339515552473E+03   -0.14070E-01   -0.14237E-01 10584   0.693E-01-0.937E-03
CGA:   3    -0.339518273201E+03   -0.27207E-02   -0.28337E-02 10584   0.327E-01 0.471E-02
CGA:   4    -0.339521740697E+03   -0.34675E-02   -0.36129E-02 10584   0.247E-01-0.451E-02
CGA:   5    -0.339522439732E+03   -0.69903E-03   -0.81784E-03 10584   0.778E-02 0.362E-02
CGA:   6    -0.339523052226E+03   -0.61249E-03   -0.61403E-03 10584   0.589E-02 0.766E-03
CGA:   7    -0.339523548740E+03   -0.49651E-03   -0.56613E-03 10584   0.107E-01-0.421E-02
CGA:   8    -0.339523667213E+03   -0.11847E-03   -0.23787E-03 10584   0.148E-02 0.248E-02
CGA:   9    -0.339523699993E+03   -0.32781E-04   -0.58267E-04 10584   0.955E-03 0.686E-03
CGA:  10    -0.339523807314E+03   -0.10732E-03   -0.16959E-03 10584   0.339E-02-0.115E-02
CGA:  11    -0.339523883209E+03   -0.75895E-04   -0.10160E-03 10584   0.642E-03 0.649E-03
CGA:  12    -0.339523921248E+03   -0.38039E-04   -0.98817E-04 10584   0.292E-02-0.989E-03
CGA:  13    -0.339523978664E+03   -0.57416E-04   -0.88464E-04 10584   0.427E-03 0.780E-03
CGA:  14    -0.339524015575E+03   -0.36911E-04   -0.36380E-04 10584   0.521E-03-0.286E-03
CGA:  15    -0.339524032819E+03   -0.17244E-04   -0.21110E-04 10584   0.154E-03 0.137E-03
CGA:  16    -0.339524070059E+03   -0.37241E-04    0.15882E-04 10584   0.231E-03 0.874E-04
CGA:  17    -0.339524072315E+03   -0.22558E-05   -0.73034E-05 10584   0.134E-03 0.141E-03
   4 F= -.33952407E+03 E0= -.33951980E+03  d E =-.236737E-02  mag=    14.0000
       N       E                     dE             d eps       ncg     rms          ort
SDA:   1    -0.339510914365E+03    0.13156E-01    0.00000E+00 10584   0.101E+00 0.000E+00
CGA:   2    -0.339514758547E+03   -0.38442E-02   -0.35897E-02 10584   0.500E-01-0.108E-01
CGA:   3    -0.339521411931E+03   -0.66534E-02   -0.62020E-02 10584   0.162E-01 0.603E-02
CGA:   4    -0.339523479441E+03   -0.20675E-02   -0.24135E-02 10584   0.359E-01-0.531E-02
CGA:   5    -0.339524130757E+03   -0.65132E-03   -0.77626E-03 10584   0.170E-01 0.323E-02
CGA:   6    -0.339524518056E+03   -0.38730E-03   -0.49874E-03 10584   0.757E-02 0.292E-02
CGA:   7    -0.339524874703E+03   -0.35665E-03   -0.33826E-03 10584   0.333E-02-0.660E-03
CGA:   8    -0.339524834781E+03    0.39922E-04   -0.43263E-03 10584   0.299E-01-0.617E-02
CGA:   9    -0.339525273184E+03   -0.43840E-03   -0.64049E-03 10584   0.196E-02 0.441E-02
CGA:  10    -0.339525306207E+03   -0.33023E-04   -0.62262E-04 10584   0.812E-03 0.749E-03
CGA:  11    -0.339525389151E+03   -0.82945E-04   -0.95768E-04 10584   0.190E-02-0.632E-03
CGA:  12    -0.339525449011E+03   -0.59860E-04   -0.66562E-04 10584   0.328E-03 0.223E-03
CGA:  13    -0.339525499219E+03   -0.50208E-04    0.19119E-03 10584   0.385E-03-0.190E-04
CGA:  14    -0.339525538899E+03   -0.39679E-04   -0.33651E-04 10584   0.550E-03 0.215E-03
CGA:  15    -0.339525564629E+03   -0.25730E-04   -0.66161E-04 10584   0.198E-02-0.746E-03
CGA:  16    -0.339525604552E+03   -0.39923E-04   -0.57374E-04 10584   0.241E-03 0.443E-03
CGA:  17    -0.339525616141E+03   -0.11589E-04   -0.12841E-04 10584   0.146E-03 0.547E-04
CGA:  18    -0.339525649348E+03   -0.33207E-04    0.14376E-04 10584   0.263E-03 0.108E-03
CGA:  19    -0.339525665830E+03   -0.16482E-04   -0.16556E-04 10584   0.155E-03 0.293E-04
CGA:  20    -0.339525697201E+03   -0.31371E-04    0.14589E-04 10584   0.172E-03 0.152E-03
CGA:  21    -0.339525708867E+03   -0.11666E-04   -0.37464E-04 10584   0.127E-02-0.168E-03
CGA:  22    -0.339525761534E+03   -0.52667E-04   -0.53605E-04 10584   0.181E-03 0.310E-04
CGA:  23    -0.339525799842E+03   -0.38308E-04    0.14932E-04 10584   0.346E-03-0.173E-04
CGA:  24    -0.339526001782E+03   -0.20194E-03   -0.54043E-04 10584   0.355E-02 0.104E-03
CGA:  25    -0.339469550940E+03    0.56451E-01   -0.19006E-01 10584   0.246E+01-0.116E+00
CGA:  26    -0.339490909582E+03   -0.21359E-01   -0.11195E+00 10584   0.150E+01-0.178E+01
CGA:  27    -0.339529289393E+03   -0.38380E-01   -0.36046E-01 10584   0.122E-01 0.940E-01
CGA:  28    -0.339529733295E+03   -0.44390E-03   -0.42072E-03 10584   0.394E-02-0.131E-03
CGA:  29    -0.339530847094E+03   -0.11138E-02   -0.12694E-02 10584   0.274E-01-0.136E-02
CGA:  30    -0.339531171748E+03   -0.32465E-03   -0.46543E-03 10584   0.110E-01 0.139E-02
CGA:  31    -0.339531218042E+03   -0.46294E-04   -0.20000E-03 10584   0.333E-02 0.137E-02
CGA:  32    -0.339531226085E+03   -0.80426E-05   -0.11960E-03 10584   0.453E-02 0.766E-03
CGA:  33    -0.339531444051E+03   -0.21797E-03   -0.32317E-03 10584   0.720E-02 0.875E-03
CGA:  34    -0.339531732695E+03   -0.28864E-03   -0.27184E-03 10584   0.281E-02-0.285E-03
CGA:  35    -0.339531835113E+03   -0.10242E-03   -0.95092E-04 10584   0.182E-02-0.863E-04
CGA:  36    -0.339531836123E+03   -0.10106E-05   -0.44296E-04 10584   0.884E-03 0.330E-03
CGA:  37    -0.339531824163E+03    0.11960E-04   -0.27699E-04 10584   0.770E-03 0.307E-03
CGA:  38    -0.339531861080E+03   -0.36917E-04   -0.56417E-04 10584   0.125E-02 0.204E-03
CGA:  39    -0.339531983923E+03   -0.12284E-03   -0.74759E-04 10584   0.507E-03-0.484E-03
CGA:  40    -0.339532014679E+03   -0.30756E-04   -0.12116E-04 10584   0.442E-03-0.180E-03
CGA:  41    -0.339532016908E+03   -0.22293E-05   -0.11593E-04 10584   0.548E-03 0.978E-04
CGA:  42    -0.339532014937E+03    0.19709E-05   -0.24264E-04 10584   0.225E-03 0.276E-03
CGA:  43    -0.339531888190E+03    0.12675E-03   -0.81019E-04 10584   0.119E-01-0.892E-03
CGA:  44    -0.339532062050E+03   -0.17386E-03   -0.26102E-03 10584   0.239E-03 0.112E-02
CGA:  45    -0.339532067024E+03   -0.49744E-05   -0.81635E-05 10584   0.881E-04 0.326E-04
CGA:  46    -0.339532104814E+03   -0.37790E-04    0.13842E-04 10584   0.287E-03-0.693E-04
CGA:  47    -0.339532100955E+03    0.38584E-05   -0.74065E-05 10584   0.652E-04 0.111E-03
   5 F= -.33953210E+03 E0= -.33952789E+03  d E =-.802864E-02  mag=    14.0000
       N       E                     dE             d eps       ncg     rms          ort
SDA:   1    -0.339348489692E+03    0.18362E+00    0.00000E+00 10584   0.620E+00 0.000E+00
CGA:   2    -0.339397380262E+03   -0.48891E-01   -0.48434E-01 10584   0.913E+00 0.729E-02
CGA:   3    -0.339488251223E+03   -0.90871E-01   -0.90870E-01 10584   0.230E+00 0.183E-02
CGA:   4    -0.339508119325E+03   -0.19868E-01   -0.19682E-01 10584   0.305E+00-0.918E-02
CGA:   5    -0.339521922566E+03   -0.13803E-01   -0.14205E-01 10584   0.510E-01 0.110E-01
CGA:   6    -0.339527132756E+03   -0.52102E-02   -0.52060E-02 10584   0.341E-01-0.463E-04
CGA:   7    -0.339529644011E+03   -0.25113E-02   -0.23554E-02 10584   0.283E-01-0.410E-02
CGA:   8    -0.339530399906E+03   -0.75589E-03   -0.89169E-03 10584   0.561E-02 0.240E-02
CGA:   9    -0.339530637651E+03   -0.23775E-03   -0.31476E-03 10584   0.624E-02 0.145E-02
CGA:  10    -0.339531350246E+03   -0.71259E-03   -0.69381E-03 10584   0.363E-02-0.135E-02
CGA:  11    -0.339531476828E+03   -0.12658E-03   -0.11956E-03 10584   0.179E-02-0.120E-03
CGA:  12    -0.339531574389E+03   -0.97561E-04   -0.11320E-03 10584   0.143E-02 0.470E-03
CGA:  13    -0.339531702996E+03   -0.12861E-03   -0.12451E-03 10584   0.178E-02-0.148E-03
CGA:  14    -0.339531779582E+03   -0.76587E-04   -0.79204E-04 10584   0.576E-03 0.564E-04
CGA:  15    -0.339531799303E+03   -0.19721E-04   -0.22211E-04 10584   0.498E-03 0.438E-04
CGA:  16    -0.339531757153E+03    0.42150E-04   -0.20135E-03 10584   0.444E-02-0.853E-03
CGA:  17    -0.339531842006E+03   -0.84853E-04   -0.12268E-03 10584   0.599E-03 0.518E-03
CGA:  18    -0.339531889731E+03   -0.47725E-04   -0.53762E-04 10584   0.625E-03 0.293E-03
CGA:  19    -0.339531974353E+03   -0.84622E-04   -0.14081E-03 10584   0.337E-02-0.110E-02
CGA:  20    -0.339532007654E+03   -0.33301E-04   -0.78280E-04 10584   0.221E-03 0.606E-03
CGA:  21    -0.339532005838E+03    0.18158E-05   -0.68306E-05 10584   0.137E-03 0.120E-03
CGA:  22    -0.339532045215E+03   -0.39377E-04    0.12679E-04 10584   0.143E-03 0.530E-04
CGA:  23    -0.339532052018E+03   -0.68039E-05   -0.10397E-04 10584   0.356E-04 0.853E-04
   6 F= -.33953205E+03 E0= -.33952779E+03  d E =0.489369E-04  mag=    14.0000
       N       E                     dE             d eps       ncg     rms          ort
SDA:   1    -0.338562862673E+03    0.96918E+00    0.00000E+00 10584   0.256E+01 0.000E+00
CGA:   2    -0.338893407900E+03   -0.33055E+00   -0.32340E+00 10584   0.524E+01 0.152E+00
CGA:   3    -0.339303099158E+03   -0.40969E+00   -0.40685E+00 10584   0.114E+01-0.792E-02
CGA:   4    -0.339362791770E+03   -0.59693E-01   -0.58638E-01 10584   0.868E+00 0.316E-01
CGA:   5    -0.339444075364E+03   -0.81284E-01   -0.81284E-01 10584   0.448E+00-0.143E-01
CGA:   6    -0.339464794919E+03   -0.20720E-01   -0.20304E-01 10584   0.118E+00 0.220E-01
CGA:   7    -0.339475795139E+03   -0.11000E-01   -0.11000E-01 10584   0.106E+00-0.491E-03
CGA:   8    -0.339482804945E+03   -0.70098E-02   -0.68824E-02 10584   0.677E-01-0.732E-02
CGA:   9    -0.339485308927E+03   -0.25040E-02   -0.26742E-02 10584   0.177E-01 0.481E-02
CGA:  10    -0.339487492390E+03   -0.21835E-02   -0.22065E-02 10584   0.342E-01-0.760E-03
CGA:  11    -0.339489099439E+03   -0.16070E-02   -0.15509E-02 10584   0.863E-02-0.169E-02
CGA:  12    -0.339489349678E+03   -0.25024E-03   -0.33109E-03 10584   0.589E-02 0.184E-02
CGA:  13    -0.339490182318E+03   -0.83264E-03   -0.80076E-03 10584   0.889E-02 0.109E-02
CGA:  14    -0.339490838189E+03   -0.65587E-03   -0.54193E-03 10584   0.442E-02-0.356E-02
CGA:  15    -0.339490921407E+03   -0.83218E-04   -0.11480E-03 10584   0.183E-02 0.805E-03
CGA:  16    -0.339490965273E+03   -0.43866E-04   -0.83426E-04 10584   0.169E-02 0.939E-03
CGA:  17    -0.339486634425E+03    0.43308E-02   -0.23832E-02 10584   0.219E+00-0.119E-01
CGA:  18    -0.339491125518E+03   -0.44911E-02   -0.49745E-02 10584   0.374E-02 0.166E-01
CGA:  19    -0.339491183808E+03   -0.58290E-04   -0.12904E-03 10584   0.142E-02 0.733E-03
CGA:  20    -0.339491383141E+03   -0.19933E-03   -0.19045E-03 10584   0.249E-02-0.451E-03
CGA:  21    -0.339491459276E+03   -0.76135E-04   -0.59563E-04 10584   0.134E-02-0.173E-03
CGA:  22    -0.339491479730E+03   -0.20454E-04   -0.32636E-04 10584   0.619E-03 0.130E-03
CGA:  23    -0.339491483776E+03   -0.40458E-05   -0.17659E-04 10584   0.321E-03 0.144E-03
CGA:  24    -0.339491490443E+03   -0.66670E-05   -0.13695E-04 10584   0.363E-03 0.843E-04
CGA:  25    -0.339491514156E+03   -0.23713E-04   -0.29589E-04 10584   0.797E-03 0.123E-03
CGA:  26    -0.339491543788E+03   -0.29632E-04   -0.42745E-04 10584   0.362E-03 0.196E-03
CGA:  27    -0.339491556841E+03   -0.13053E-04   -0.16182E-04 10584   0.303E-03 0.478E-04
CGA:  28    -0.339491597878E+03   -0.41037E-04   -0.50074E-04 10584   0.166E-02-0.201E-03
CGA:  29    -0.339491656333E+03   -0.58455E-04   -0.68593E-04 10584   0.282E-03 0.157E-03
CGA:  30    -0.339491665472E+03   -0.91394E-05   -0.13558E-04 10584   0.128E-03 0.774E-04
CGA:  31    -0.339491698389E+03   -0.32917E-04    0.47021E-03 10584   0.140E-03 0.801E-04
CGA:  32    -0.339491696094E+03    0.22959E-05   -0.33096E-05 10584   0.588E-04 0.745E-04
   7 F= -.33949170E+03 E0= -.33948749E+03  d E =0.403559E-01  mag=    14.0000
       N       E                     dE             d eps       ncg     rms          ort
SDA:   1    -0.338825825788E+03    0.66587E+00    0.00000E+00 10584   0.198E+01 0.000E+00
CGA:   2    -0.339042905508E+03   -0.21708E+00   -0.21863E+00 10584   0.478E+01-0.445E-01
CGA:   3    -0.339383581034E+03   -0.34068E+00   -0.34144E+00 10584   0.808E+00-0.219E-01
CGA:   4    -0.339442798776E+03   -0.59218E-01   -0.59281E-01 10584   0.765E+00 0.459E-03
CGA:   5    -0.339495204588E+03   -0.52406E-01   -0.52373E-01 10584   0.293E+00 0.418E-02
CGA:   6    -0.339516644501E+03   -0.21440E-01   -0.21406E-01 10584   0.724E-01-0.173E-02
CGA:   7    -0.339527082560E+03   -0.10438E-01   -0.10491E-01 10584   0.439E-01-0.928E-03
CGA:   8    -0.339529020233E+03   -0.19377E-02   -0.19957E-02 10584   0.214E-01 0.159E-02
CGA:   9    -0.339531679121E+03   -0.26589E-02   -0.26301E-02 10584   0.122E-01 0.104E-02
CGA:  10    -0.339532663470E+03   -0.98435E-03   -0.90973E-03 10584   0.155E-01-0.365E-02
CGA:  11    -0.339533103623E+03   -0.44015E-03   -0.51271E-03 10584   0.742E-02 0.172E-02
CGA:  12    -0.339533280949E+03   -0.17733E-03   -0.27981E-03 10584   0.491E-02 0.190E-02
CGA:  13    -0.339533721116E+03   -0.44017E-03   -0.43831E-03 10584   0.465E-02-0.109E-03
CGA:  14    -0.339534078400E+03   -0.35728E-03   -0.32335E-03 10584   0.765E-02-0.240E-02
CGA:  15    -0.339534168611E+03   -0.90211E-04   -0.19050E-03 10584   0.119E-02 0.176E-02
CGA:  16    -0.339534209788E+03   -0.41177E-04   -0.57922E-04 10584   0.723E-03 0.403E-03
CGA:  17    -0.339533908915E+03    0.30087E-03   -0.27252E-03 10584   0.192E-01-0.283E-02
CGA:  18    -0.339534289827E+03   -0.38091E-03   -0.52562E-03 10584   0.232E-02 0.267E-02
CGA:  19    -0.339534421270E+03   -0.13144E-03   -0.12395E-03 10584   0.503E-03-0.181E-03
CGA:  20    -0.339534524219E+03   -0.10295E-03    0.62744E-04 10584   0.720E-03-0.381E-05
CGA:  21    -0.339534531489E+03   -0.72695E-05   -0.23419E-04 10584   0.199E-03 0.313E-03
   8 F= -.33953453E+03 E0= -.33953023E+03  d E =-.428354E-01  mag=    14.0000
       N       E                     dE             d eps       ncg     rms          ort
SDA:   1    -0.339103089149E+03    0.43144E+00    0.00000E+00 10584   0.150E+01 0.000E+00
CGA:   2    -0.339191035977E+03   -0.87947E-01   -0.89865E-01 10584   0.193E+01-0.704E-02
CGA:   3    -0.339442367157E+03   -0.25133E+00   -0.25106E+00 10584   0.398E+00 0.711E-02
CGA:   4    -0.339472996559E+03   -0.30629E-01   -0.30625E-01 10584   0.469E+00-0.137E-01
CGA:   5    -0.339505621174E+03   -0.32625E-01   -0.32717E-01 10584   0.111E+00 0.153E-01
CGA:   6    -0.339512982251E+03   -0.73611E-02   -0.73538E-02 10584   0.735E-01-0.188E-02
CGA:   7    -0.339517179132E+03   -0.41969E-02   -0.42353E-02 10584   0.410E-01 0.232E-02
CGA:   8    -0.339520571799E+03   -0.33927E-02   -0.33963E-02 10584   0.122E-01-0.161E-02
CGA:   9    -0.339521868476E+03   -0.12967E-02   -0.12255E-02 10584   0.795E-02 0.273E-02
CGA:  10    -0.339522660048E+03   -0.79157E-03   -0.80761E-03 10584   0.181E-01-0.436E-02
CGA:  11    -0.339522911921E+03   -0.25187E-03   -0.40352E-03 10584   0.189E-02 0.270E-02
CGA:  12    -0.339522992508E+03   -0.80587E-04   -0.10568E-03 10584   0.231E-02 0.894E-03
CGA:  13    -0.339523415006E+03   -0.42250E-03   -0.60776E-03 10584   0.991E-02-0.177E-02
CGA:  14    -0.339523653146E+03   -0.23814E-03   -0.29829E-03 10584   0.173E-02 0.131E-02
CGA:  15    -0.339523776246E+03   -0.12310E-03   -0.12006E-03 10584   0.117E-02-0.186E-03
CGA:  16    -0.339523924523E+03   -0.14828E-03   -0.13789E-03 10584   0.989E-03 0.191E-03
CGA:  17    -0.339524000308E+03   -0.75785E-04   -0.72971E-04 10584   0.936E-03-0.175E-03
CGA:  18    -0.339524123871E+03   -0.12356E-03    0.19439E-02 10584   0.119E-02 0.257E-03
CGA:  19    -0.339524233195E+03   -0.10932E-03   -0.11210E-03 10584   0.627E-03 0.543E-03
CGA:  20    -0.339524294016E+03   -0.60821E-04   -0.60435E-04 10584   0.853E-03-0.299E-04
CGA:  21    -0.339524428645E+03   -0.13463E-03    0.52885E-03 10584   0.897E-03 0.280E-03
CGA:  22    -0.339524465348E+03   -0.36702E-04   -0.45892E-04 10584   0.294E-03 0.237E-03
CGA:  23    -0.339524469929E+03   -0.45812E-05   -0.13364E-04 10584   0.227E-03 0.219E-03
CGA:  24    -0.339524528410E+03   -0.58481E-04    0.11405E-04 10584   0.308E-03 0.177E-04
CGA:  25    -0.339524547528E+03   -0.19117E-04   -0.21206E-04 10584   0.149E-03 0.205E-03
CGA:  26    -0.339524547761E+03   -0.23372E-06   -0.42157E-05 10584   0.833E-04 0.879E-04
   9 F= -.33952455E+03 E0= -.33952017E+03  d E =0.998373E-02  mag=    14.0000
       N       E                     dE             d eps       ncg     rms          ort
SDA:   1    -0.339385243585E+03    0.13930E+00    0.00000E+00 10584   0.448E+00 0.000E+00
CGA:   2    -0.339424662109E+03   -0.39419E-01   -0.39336E-01 10584   0.964E+00 0.857E-02
CGA:   3    -0.339514397002E+03   -0.89735E-01   -0.89860E-01 10584   0.110E+00-0.876E-02
CGA:   4    -0.339526762238E+03   -0.12365E-01   -0.12022E-01 10584   0.139E+00 0.943E-02
CGA:   5    -0.339536394509E+03   -0.96323E-02   -0.95057E-02 10584   0.361E-01-0.126E-01
CGA:   6    -0.339537849630E+03   -0.14551E-02   -0.15623E-02 10584   0.123E-01 0.416E-02
CGA:   7    -0.339539210466E+03   -0.13608E-02   -0.14290E-02 10584   0.217E-01-0.221E-02
CGA:   8    -0.339540066396E+03   -0.85593E-03   -0.84857E-03 10584   0.447E-02-0.249E-03
CGA:   9    -0.339540234745E+03   -0.16835E-03   -0.18876E-03 10584   0.378E-02 0.684E-03
CGA:  10    -0.339540607926E+03   -0.37318E-03   -0.37591E-03 10584   0.247E-02-0.190E-03
CGA:  11    -0.339540762955E+03   -0.15503E-03   -0.15310E-03 10584   0.148E-02-0.267E-03
CGA:  12    -0.339540825658E+03   -0.62703E-04   -0.63728E-04 10584   0.115E-02 0.419E-04
CGA:  13    -0.339540025438E+03    0.80022E-03   -0.44664E-03 10584   0.165E-01-0.347E-02
CGA:  14    -0.339540443944E+03   -0.41851E-03   -0.54827E-03 10584   0.348E-02 0.187E-02
CGA:  15    -0.339540967393E+03   -0.52345E-03   -0.52178E-03 10584   0.209E-02 0.164E-03
CGA:  16    -0.339541112562E+03   -0.14517E-03   -0.11346E-03 10584   0.859E-03-0.449E-03
CGA:  17    -0.339541126072E+03   -0.13510E-04   -0.29022E-04 10584   0.335E-03 0.199E-03
CGA:  18    -0.339541137447E+03   -0.11376E-04   -0.20884E-04 10584   0.325E-03 0.143E-03
CGA:  19    -0.339541086210E+03    0.51238E-04   -0.13822E-03 10584   0.344E-02-0.103E-02
CGA:  20    -0.339541190614E+03   -0.10440E-03   -0.14384E-03 10584   0.572E-03 0.486E-03
CGA:  21    -0.339541214204E+03   -0.23590E-04   -0.35052E-04 10584   0.334E-03 0.175E-03
CGA:  22    -0.339541259700E+03   -0.45496E-04   -0.45437E-04 10584   0.153E-03-0.503E-05
CGA:  23    -0.339541253554E+03    0.61452E-05   -0.25902E-05 10584   0.734E-04 0.890E-04
  10 F= -.33954125E+03 E0= -.33953691E+03  d E =-.167058E-01  mag=    14.0000
       N       E                     dE             d eps       ncg     rms          ort
SDA:   1    -0.338456255215E+03    0.10850E+01    0.00000E+00 10584   0.297E+01 0.000E+00
CGA:   2    -0.338781560920E+03   -0.32531E+00   -0.32547E+00 10584   0.795E+01-0.114E-01
CGA:   3    -0.339354653434E+03   -0.57309E+00   -0.57709E+00 10584   0.863E+00-0.328E-01
CGA:   4    -0.339448992596E+03   -0.94339E-01   -0.94099E-01 10584   0.851E+00 0.223E-01
CGA:   5    -0.339501700630E+03   -0.52708E-01   -0.51170E-01 10584   0.314E+00 0.330E-01
CGA:   6    -0.339519206505E+03   -0.17506E-01   -0.17786E-01 10584   0.121E+00-0.165E-01
CGA:   7    -0.339526017249E+03   -0.68107E-02   -0.67617E-02 10584   0.869E-01 0.674E-03
CGA:   8    -0.339532716135E+03   -0.66989E-02   -0.67132E-02 10584   0.198E-01 0.716E-03
CGA:   9    -0.339535570786E+03   -0.28547E-02   -0.30087E-02 10584   0.253E-01-0.290E-02
CGA:  10    -0.339536271719E+03   -0.70093E-03   -0.83643E-03 10584   0.102E-01 0.239E-02
CGA:  11    -0.339536908152E+03   -0.63643E-03   -0.65335E-03 10584   0.489E-02 0.453E-03
CGA:  12    -0.339537434782E+03   -0.52663E-03   -0.58724E-03 10584   0.223E-01-0.305E-02
CGA:  13    -0.339537786942E+03   -0.35216E-03   -0.50671E-03 10584   0.164E-02 0.236E-02
CGA:  14    -0.339537882330E+03   -0.95388E-04   -0.10664E-03 10584   0.164E-02 0.344E-03
CGA:  15    -0.339537954013E+03   -0.71683E-04   -0.39607E-03 10584   0.199E-01-0.298E-02
CGA:  16    -0.339538303799E+03   -0.34979E-03   -0.49093E-03 10584   0.190E-02 0.255E-02
CGA:  17    -0.339538376362E+03   -0.72563E-04   -0.85510E-04 10584   0.459E-03 0.253E-03
CGA:  18    -0.339537553345E+03    0.82302E-03   -0.21497E-03 10584   0.477E-01-0.321E-02
CGA:  19    -0.339538439151E+03   -0.88581E-03   -0.10999E-02 10584   0.207E-02 0.367E-02
CGA:  20    -0.339538535750E+03   -0.96599E-04   -0.98078E-04 10584   0.447E-03 0.406E-04
CGA:  21    -0.339538632366E+03   -0.96617E-04    0.31524E-03 10584   0.251E-02-0.663E-03
CGA:  22    -0.339538631148E+03    0.12184E-05   -0.48233E-04 10584   0.264E-03 0.637E-03
  11 F= -.33953863E+03 E0= -.33953433E+03  d E =0.262241E-02  mag=    14.0000
       N       E                     dE             d eps       ncg     rms          ort
SDA:   1    -0.334347585303E+03    0.51910E+01    0.00000E+00 10584   0.127E+02 0.000E+00
CGA:   2    -0.337705426649E+03   -0.33578E+01   -0.32032E+01 10584   0.171E+02 0.108E+01
CGA:   3    -0.338598124195E+03   -0.89270E+00   -0.63692E+00 10584   0.276E+01 0.454E+01
CGA:   4    -0.338926910830E+03   -0.32879E+00   -0.32872E+00 10584   0.774E+01-0.249E-01
CGA:   5    -0.339240815691E+03   -0.31390E+00   -0.31785E+00 10584   0.349E+01-0.102E+00
CGA:   6    -0.339333765241E+03   -0.92950E-01   -0.92954E-01 10584   0.135E+01 0.629E-02
CGA:   7    -0.339378474414E+03   -0.44709E-01   -0.40328E-01 10584   0.854E+00 0.158E+00
CGA:   8    -0.339412672420E+03   -0.34198E-01   -0.32597E-01 10584   0.793E+00 0.530E-01
CGA:   9    -0.339444743791E+03   -0.32071E-01   -0.32322E-01 10584   0.628E+00-0.234E-01
CGA:  10    -0.339461160291E+03   -0.16416E-01   -0.16752E-01 10584   0.298E+00-0.425E-01
CGA:  11    -0.339469183495E+03   -0.80232E-02   -0.79097E-02 10584   0.162E+00 0.985E-02
CGA:  12    -0.339473798806E+03   -0.46153E-02   -0.49923E-02 10584   0.139E+00 0.116E-01
CGA:  13    -0.339481222657E+03   -0.74239E-02   -0.76281E-02 10584   0.210E+00 0.903E-02
CGA:  14    -0.339488284246E+03   -0.70616E-02   -0.70105E-02 10584   0.601E-01-0.743E-02
CGA:  15    -0.339490035774E+03   -0.17515E-02   -0.15202E-02 10584   0.338E-01-0.625E-02
CGA:  16    -0.339492933307E+03   -0.28975E-02   -0.30438E-02 10584   0.101E+00-0.465E-02
CGA:  17    -0.339495369245E+03   -0.24359E-02   -0.25598E-02 10584   0.364E-01 0.283E-02
CGA:  18    -0.339496065801E+03   -0.69656E-03   -0.79178E-03 10584   0.149E-01 0.268E-02
CGA:  19    -0.339496727429E+03   -0.66163E-03   -0.67023E-03 10584   0.188E-01 0.347E-03
CGA:  20    -0.339497583704E+03   -0.85628E-03   -0.82664E-03 10584   0.198E-01-0.150E-02
CGA:  21    -0.339498223543E+03   -0.63984E-03   -0.65745E-03 10584   0.179E-01 0.577E-03
CGA:  22    -0.339498606135E+03   -0.38259E-03   -0.46240E-03 10584   0.739E-02 0.229E-02
CGA:  23    -0.339498776270E+03   -0.17013E-03   -0.19942E-03 10584   0.390E-02 0.802E-03
CGA:  24    -0.339499046225E+03   -0.26996E-03   -0.28174E-03 10584   0.102E-01-0.180E-02
CGA:  25    -0.339499256149E+03   -0.20992E-03   -0.14990E-03 10584   0.150E-01-0.193E-02
CGA:  26    -0.339499538678E+03   -0.28253E-03   -0.25604E-03 10584   0.976E-02-0.751E-03
CGA:  27    -0.339499619335E+03   -0.80657E-04   -0.13250E-03 10584   0.440E-02 0.133E-02
CGA:  28    -0.339499619223E+03    0.11180E-06   -0.59056E-04 10584   0.227E-02 0.146E-02
CGA:  29    -0.339499609183E+03    0.10041E-04   -0.37120E-04 10584   0.183E-02 0.122E-02
CGA:  30    -0.339499500588E+03    0.10859E-03   -0.13288E-03 10584   0.226E-01-0.248E-02
CGA:  31    -0.339500019677E+03   -0.51909E-03   -0.61834E-03 10584   0.641E-03 0.212E-02
CGA:  32    -0.339500029506E+03   -0.98291E-05   -0.25188E-04 10584   0.393E-03 0.302E-03
CGA:  33    -0.339500043346E+03   -0.13840E-04   -0.16660E-03 10584   0.213E-02-0.750E-03
CGA:  34    -0.339500242463E+03   -0.19912E-03   -0.19501E-03 10584   0.457E-02-0.137E-02
CGA:  35    -0.339500251079E+03   -0.86162E-05   -0.96595E-04 10584   0.476E-03 0.123E-02
  12 F= -.33950025E+03 E0= -.33949576E+03  d E =0.383801E-01  mag=    14.0000
       N       E                     dE             d eps       ncg     rms          ort
SDA:   1    -0.338644701276E+03    0.85554E+00    0.00000E+00 10584   0.297E+01 0.000E+00
CGA:   2    -0.338823669926E+03   -0.17897E+00   -0.17039E+00 10584   0.355E+01 0.688E-02
CGA:   3    -0.339275012556E+03   -0.45134E+00   -0.45251E+00 10584   0.176E+01-0.296E-01
CGA:   4    -0.339353684423E+03   -0.78672E-01   -0.71185E-01 10584   0.470E+00 0.155E+00
CGA:   5    -0.339436573836E+03   -0.82889E-01   -0.82261E-01 10584   0.443E+00 0.811E-02
CGA:   6    -0.339455158340E+03   -0.18585E-01   -0.18743E-01 10584   0.139E+00-0.255E-01
CGA:   7    -0.339465885695E+03   -0.10727E-01   -0.10749E-01 10584   0.108E+00 0.567E-02
CGA:   8    -0.339472344562E+03   -0.64589E-02   -0.64621E-02 10584   0.431E-01-0.760E-03
CGA:   9    -0.339475455897E+03   -0.31113E-02   -0.30910E-02 10584   0.244E-01-0.168E-02
CGA:  10    -0.339478285715E+03   -0.28298E-02   -0.29337E-02 10584   0.224E-01-0.259E-02
CGA:  11    -0.339478781686E+03   -0.49597E-03   -0.65418E-03 10584   0.662E-02 0.303E-02
CGA:  12    -0.339479466117E+03   -0.68443E-03   -0.67362E-03 10584   0.108E-01 0.183E-02
CGA:  13    -0.339480473487E+03   -0.10074E-02   -0.96780E-03 10584   0.882E-02-0.297E-02
CGA:  14    -0.339480675343E+03   -0.20186E-03   -0.23440E-03 10584   0.313E-02 0.722E-03
CGA:  15    -0.339480724588E+03   -0.49245E-04   -0.10212E-03 10584   0.216E-02 0.106E-02
CGA:  16    -0.339480900209E+03   -0.17562E-03   -0.18634E-03 10584   0.287E-02 0.768E-03
CGA:  17    -0.339481241691E+03   -0.34148E-03   -0.40628E-03 10584   0.682E-02-0.244E-02
CGA:  18    -0.339481338695E+03   -0.97004E-04   -0.15443E-03 10584   0.720E-03 0.104E-02
CGA:  19    -0.339481387270E+03   -0.48575E-04   -0.51042E-04 10584   0.953E-03 0.166E-03
CGA:  20    -0.339481474460E+03   -0.87190E-04   -0.16450E-03 10584   0.374E-02-0.120E-02
CGA:  21    -0.339481506550E+03   -0.32090E-04   -0.87221E-04 10584   0.614E-03 0.103E-02
CGA:  22    -0.339481513698E+03   -0.71484E-05   -0.21532E-04 10584   0.282E-03 0.299E-03
CGA:  23    -0.339481546422E+03   -0.32724E-04   -0.34539E-04 10584   0.769E-03-0.204E-03
CGA:  24    -0.339481576555E+03   -0.30133E-04   -0.32002E-04 10584   0.159E-03 0.581E-04
CGA:  25    -0.339481619583E+03   -0.43029E-04    0.83346E-05 10584   0.267E-03-0.120E-04
CGA:  26    -0.339481702074E+03   -0.82490E-04   -0.65336E-04 10584   0.700E-03 0.902E-04
CGA:  27    -0.339481744800E+03   -0.42726E-04   -0.51837E-04 10584   0.279E-03 0.348E-03
CGA:  28    -0.339481104635E+03    0.64016E-03   -0.35095E-03 10584   0.357E-01-0.191E-02
CGA:  29    -0.339481856671E+03   -0.75204E-03   -0.91637E-03 10584   0.231E-02 0.198E-02
CGA:  30    -0.339482004001E+03   -0.14733E-03   -0.11417E-03 10584   0.204E-03-0.347E-03
CGA:  31    -0.339482053602E+03   -0.49601E-04    0.23371E-03 10584   0.644E-03-0.557E-04
CGA:  32    -0.339482052247E+03    0.13548E-05   -0.17478E-04 10584   0.362E-03 0.192E-03
CGA:  33    -0.339482045384E+03    0.68630E-05   -0.12025E-04 10584   0.182E-03 0.178E-03
CGA:  34    -0.339482061062E+03   -0.15678E-04   -0.15598E-04 10584   0.212E-03-0.402E-06
CGA:  35    -0.339482117553E+03   -0.56491E-04    0.14622E-03 10584   0.182E-02-0.251E-03
CGA:  36    -0.339482117505E+03    0.47810E-07   -0.41922E-04 10584   0.237E-03 0.442E-03
  13 F= -.33948212E+03 E0= -.33947773E+03  d E =0.181336E-01  mag=    14.0000
       N       E                     dE             d eps       ncg     rms          ort
SDA:   1    -0.339037872854E+03    0.44424E+00    0.00000E+00 10584   0.136E+01 0.000E+00
CGA:   2    -0.339247138587E+03   -0.20927E+00   -0.21547E+00 10584   0.307E+01-0.105E+00
CGA:   3    -0.339434379328E+03   -0.18724E+00   -0.18930E+00 10584   0.962E+00-0.460E-01
CGA:   4    -0.339478065723E+03   -0.43686E-01   -0.39102E-01 10584   0.285E+00 0.111E+00
CGA:   5    -0.339509448874E+03   -0.31383E-01   -0.31401E-01 10584   0.374E+00 0.387E-02
CGA:   6    -0.339533880535E+03   -0.24432E-01   -0.24309E-01 10584   0.842E-01-0.938E-02
CGA:   7    -0.339537066817E+03   -0.31863E-02   -0.32733E-02 10584   0.469E-01 0.268E-02
CGA:   8    -0.339542652112E+03   -0.55853E-02   -0.55926E-02 10584   0.382E-01-0.591E-03
CGA:   9    -0.339544779160E+03   -0.21270E-02   -0.21157E-02 10584   0.130E-01-0.658E-03
CGA:  10    -0.339545322203E+03   -0.54304E-03   -0.61801E-03 10584   0.105E-01 0.156E-02
CGA:  11    -0.339546867618E+03   -0.15454E-02   -0.15816E-02 10584   0.428E-02-0.102E-02
CGA:  12    -0.339547228055E+03   -0.36044E-03   -0.35089E-03 10584   0.894E-02-0.992E-03
CGA:  13    -0.339547597082E+03   -0.36903E-03   -0.39285E-03 10584   0.439E-02 0.556E-03
CGA:  14    -0.339547774931E+03   -0.17785E-03   -0.17965E-03 10584   0.212E-02 0.492E-04
CGA:  15    -0.339547972388E+03   -0.19746E-03   -0.18870E-03 10584   0.459E-02-0.129E-02
CGA:  16    -0.339548038286E+03   -0.65898E-04   -0.13100E-03 10584   0.785E-03 0.102E-02
CGA:  17    -0.339548096637E+03   -0.58350E-04   -0.58484E-04 10584   0.756E-03 0.773E-05
CGA:  18    -0.339548236418E+03   -0.13978E-03    0.18274E-02 10584   0.103E-02 0.941E-04
CGA:  19    -0.339548280583E+03   -0.44165E-04   -0.51341E-04 10584   0.303E-03 0.160E-03
CGA:  20    -0.339548280993E+03   -0.40993E-06   -0.99085E-05 10584   0.154E-03 0.161E-03
CGA:  21    -0.339548310175E+03   -0.29182E-04    0.53112E-04 10584   0.150E-03 0.800E-04
CGA:  22    -0.339548311044E+03   -0.86952E-06   -0.46242E-05 10584   0.859E-04 0.696E-04
CGA:  23    -0.339548334005E+03   -0.22960E-04    0.44354E-04 10584   0.162E-03 0.744E-04
CGA:  24    -0.339548280116E+03    0.53889E-04   -0.34161E-04 10584   0.552E-02-0.685E-03
CGA:  25    -0.339548362357E+03   -0.82241E-04   -0.12093E-03 10584   0.170E-03 0.633E-03
CGA:  26    -0.339548378867E+03   -0.16510E-04   -0.14343E-04 10584   0.553E-03-0.228E-03
CGA:  27    -0.339548397727E+03   -0.18860E-04   -0.17325E-04 10584   0.740E-04-0.310E-04
CGA:  28    -0.339548395379E+03    0.23480E-05   -0.13035E-05 10584   0.551E-04 0.577E-04
  14 F= -.33954840E+03 E0= -.33954400E+03  d E =-.662779E-01  mag=    14.0000
       N       E                     dE             d eps       ncg     rms          ort
SDA:   1    -0.339134339504E+03    0.41406E+00    0.00000E+00 10584   0.103E+01 0.000E+00
CGA:   2    -0.339381142929E+03   -0.24680E+00   -0.24280E+00 10584   0.254E+01 0.215E-01
CGA:   3    -0.339480298208E+03   -0.99155E-01   -0.10204E+00 10584   0.384E+00-0.110E+00
CGA:   4    -0.339509765738E+03   -0.29468E-01   -0.29441E-01 10584   0.419E+00-0.528E-03
CGA:   5    -0.339539506022E+03   -0.29740E-01   -0.29763E-01 10584   0.654E-01-0.227E-02
CGA:   6    -0.339542891365E+03   -0.33853E-02   -0.35080E-02 10584   0.444E-01 0.458E-02
CGA:   7    -0.339547476279E+03   -0.45849E-02   -0.47089E-02 10584   0.290E-01-0.713E-02
CGA:   8    -0.339548243439E+03   -0.76716E-03   -0.92415E-03 10584   0.694E-02 0.368E-02
CGA:   9    -0.339549087513E+03   -0.84407E-03   -0.80491E-03 10584   0.665E-02 0.172E-02
CGA:  10    -0.339549723066E+03   -0.63555E-03   -0.60357E-03 10584   0.843E-02-0.377E-02
CGA:  11    -0.339549810432E+03   -0.87365E-04   -0.18994E-03 10584   0.132E-02 0.178E-02
CGA:  12    -0.339549849454E+03   -0.39022E-04   -0.66677E-04 10584   0.142E-02 0.760E-03
CGA:  13    -0.339545539523E+03    0.43099E-02   -0.23649E-02 10584   0.235E+00-0.120E-01
CGA:  14    -0.339550253598E+03   -0.47141E-02   -0.51789E-02 10584   0.299E-02 0.147E-01
CGA:  15    -0.339550260791E+03   -0.71926E-05   -0.84972E-04 10584   0.768E-03 0.770E-03
CGA:  16    -0.339550296470E+03   -0.35679E-04   -0.52816E-04 10584   0.892E-03 0.235E-03
CGA:  17    -0.339550441638E+03   -0.14517E-03   -0.14580E-03 10584   0.107E-02-0.598E-03
CGA:  18    -0.339550438506E+03    0.31320E-05   -0.26631E-04 10584   0.329E-03 0.301E-03
CGA:  19    -0.339550465091E+03   -0.26585E-04   -0.32891E-04 10584   0.604E-03 0.153E-03
CGA:  20    -0.339550568557E+03   -0.10347E-03   -0.10640E-03 10584   0.185E-02-0.929E-03
CGA:  21    -0.339550566681E+03    0.18757E-05   -0.40788E-04 10584   0.351E-03 0.448E-03
CGA:  22    -0.339550569459E+03   -0.27772E-05   -0.17819E-04 10584   0.406E-03 0.209E-03
CGA:  23    -0.339550286017E+03    0.28344E-03   -0.11881E-03 10584   0.260E-01-0.219E-02
CGA:  24    -0.339550668882E+03   -0.38286E-03   -0.54935E-03 10584   0.250E-03 0.213E-02
CGA:  25    -0.339550662376E+03    0.65056E-05   -0.46239E-05 10584   0.854E-04 0.115E-03
  15 F= -.33955066E+03 E0= -.33954624E+03  d E =-.226700E-02  mag=    14.0000
       N       E                     dE             d eps       ncg     rms          ort
SDA:   1    -0.325068105989E+03    0.14483E+02    0.00000E+00 10584   0.378E+02 0.000E+00
CGA:   2    -0.333229059548E+03   -0.81610E+01   -0.79159E+01 10584   0.670E+02 0.196E+01
CGA:   3    -0.336362962099E+03   -0.31339E+01   -0.39980E+01 10584   0.341E+02-0.196E+01
CGA:   4    -0.337604011195E+03   -0.12410E+01   -0.92286E+00 10584   0.131E+02 0.505E+01
CGA:   5    -0.338063778728E+03   -0.45977E+00   -0.56557E+00 10584   0.186E+02-0.347E+01
CGA:   6    -0.338409967697E+03   -0.34619E+00   -0.42485E+00 10584   0.245E+02-0.201E+01
CGA:   7    -0.338946968927E+03   -0.53700E+00   -0.52464E+00 10584   0.782E+01-0.372E+00
CGA:   8    -0.339100896235E+03   -0.15393E+00   -0.18669E+00 10584   0.520E+01-0.127E+01
CGA:   9    -0.339180412965E+03   -0.79517E-01   -0.55471E-01 10584   0.337E+01 0.185E+01
CGA:  10    -0.339245962556E+03   -0.65550E-01   -0.57205E-01 10584   0.157E+01 0.722E+00
CGA:  11    -0.339280970151E+03   -0.35008E-01   -0.34738E-01 10584   0.194E+01 0.664E-01
CGA:  12    -0.339323553340E+03   -0.42583E-01   -0.42622E-01 10584   0.327E+01-0.146E-01
CGA:  13    -0.339376500174E+03   -0.52947E-01   -0.59013E-01 10584   0.298E+01-0.365E+00
CGA:  14    -0.339405472388E+03   -0.28972E-01   -0.30943E-01 10584   0.121E+01-0.284E+00
CGA:  15    -0.339417017492E+03   -0.11545E-01   -0.13596E-01 10584   0.615E+00-0.182E+00
CGA:  16    -0.339424617059E+03   -0.75996E-02   -0.80159E-02 10584   0.532E+00 0.434E-02
CGA:  17    -0.339432980143E+03   -0.83631E-02   -0.84922E-02 10584   0.465E+00 0.524E-01
CGA:  18    -0.339441979624E+03   -0.89995E-02   -0.97378E-02 10584   0.552E+00 0.227E-01
CGA:  19    -0.339454437088E+03   -0.12457E-01   -0.12928E-01 10584   0.785E+00 0.100E-01
CGA:  20    -0.339468940295E+03   -0.14503E-01   -0.15182E-01 10584   0.606E+00-0.416E-01
CGA:  21    -0.339476859974E+03   -0.79197E-02   -0.78658E-02 10584   0.223E+00-0.479E-01
CGA:  22    -0.339480070128E+03   -0.32102E-02   -0.29878E-02 10584   0.134E+00-0.155E-01
CGA:  23    -0.339483203853E+03   -0.31337E-02   -0.30478E-02 10584   0.185E+00-0.576E-02
CGA:  24    -0.339487382660E+03   -0.41788E-02   -0.41619E-02 10584   0.196E+00 0.365E-02
CGA:  25    -0.339491021389E+03   -0.36387E-02   -0.37565E-02 10584   0.145E+00 0.407E-02
CGA:  26    -0.339494069316E+03   -0.30479E-02   -0.29548E-02 10584   0.120E+00-0.135E-02
CGA:  27    -0.339496748855E+03   -0.26795E-02   -0.24972E-02 10584   0.832E-01-0.122E-01
CGA:  28    -0.339498364569E+03   -0.16157E-02   -0.14074E-02 10584   0.559E-01-0.990E-02
CGA:  29    -0.339499685650E+03   -0.13211E-02   -0.12741E-02 10584   0.775E-01-0.332E-02
CGA:  30    -0.339501525222E+03   -0.18396E-02   -0.19509E-02 10584   0.806E-01 0.670E-02
CGA:  31    -0.339502754944E+03   -0.12297E-02   -0.14846E-02 10584   0.300E-01 0.962E-02
SDA:  32    -0.339503223082E+03   -0.46814E-03   -0.55809E-03 10584   0.157E-01 0.358E-02
CGA:  33    -0.339503768906E+03   -0.54582E-03   -0.18910E-02 10584   0.687E-01-0.164E-01
CGA:  34    -0.339505322015E+03   -0.15531E-02   -0.17382E-02 10584   0.618E-02 0.112E-01
CGA:  35    -0.339505504429E+03   -0.18241E-03   -0.21249E-03 10584   0.290E-02 0.230E-02
CGA:  36    -0.339505897152E+03   -0.39272E-03   -0.35255E-03 10584   0.807E-02 0.853E-03
CGA:  37    -0.339506630936E+03   -0.73378E-03   -0.73736E-03 10584   0.354E-02-0.145E-03
CGA:  38    -0.339506771854E+03   -0.14092E-03   -0.13448E-03 10584   0.204E-02-0.927E-03
CGA:  39    -0.339506915803E+03   -0.14395E-03    0.60120E-03 10584   0.236E-02 0.729E-03
CGA:  40    -0.339507228157E+03   -0.31235E-03   -0.28924E-03 10584   0.392E-02 0.511E-03
CGA:  41    -0.339507372709E+03   -0.14455E-03   -0.16505E-03 10584   0.145E-02 0.157E-02
CGA:  42    -0.339507506206E+03   -0.13350E-03   -0.16834E-03 10584   0.495E-02-0.982E-03
CGA:  43    -0.339507673787E+03   -0.16758E-03   -0.15467E-03 10584   0.119E-02-0.782E-03
CGA:  44    -0.339507689704E+03   -0.15917E-04   -0.28940E-04 10584   0.610E-03 0.689E-03
CGA:  45    -0.339507723573E+03   -0.33869E-04   -0.32340E-04 10584   0.626E-03 0.248E-03
CGA:  46    -0.339507813273E+03   -0.89701E-04    0.25686E-03 10584   0.354E-03 0.674E-03
CGA:  47    -0.339507843106E+03   -0.29833E-04   -0.26257E-04 10584   0.498E-03 0.132E-03
CGA:  48    -0.339507894754E+03   -0.51648E-04   -0.44068E-04 10584   0.294E-03 0.472E-03
CGA:  49    -0.339507951727E+03   -0.56973E-04    0.75228E-05 10584   0.227E-03 0.120E-03
CGA:  50    -0.339507984860E+03   -0.33133E-04    0.16413E-03 10584   0.244E-03 0.285E-03
CGA:  51    -0.339507983390E+03    0.14708E-05   -0.45929E-05 10584   0.183E-03 0.199E-03
  16 F= -.33950798E+03 E0= -.33950343E+03  d E =0.426790E-01  mag=    14.0000
       N       E                     dE             d eps       ncg     rms          ort
SDA:   1    -0.316028955743E+03    0.23479E+02    0.00000E+00 10584   0.531E+02 0.000E+00
CGA:   2    -0.329154684282E+03   -0.13126E+02   -0.11496E+02 10584   0.447E+02 0.106E+02
CGA:   3    -0.331444475260E+03   -0.22898E+01   -0.41996E+01 10584   0.111E+03-0.563E+02
CGA:   4    -0.334283703482E+03   -0.28392E+01   -0.34210E+01 10584   0.145E+02-0.160E+02
CGA:   5    -0.335206256707E+03   -0.92255E+00   -0.11361E+01 10584   0.253E+02-0.465E+01
CGA:   6    -0.336668106707E+03   -0.14618E+01   -0.14620E+01 10584   0.744E+01-0.554E-01
CGA:   7    -0.336979176608E+03   -0.31107E+00   -0.30085E+00 10584   0.373E+01 0.384E-01
CGA:   8    -0.337301285689E+03   -0.32211E+00   -0.32330E+00 10584   0.662E+01-0.175E-01
CGA:   9    -0.337548742804E+03   -0.24746E+00   -0.25695E+00 10584   0.125E+01-0.876E-01
CGA:  10    -0.337585091675E+03   -0.36349E-01   -0.38184E-01 10584   0.551E+00-0.666E-01
CGA:  11    -0.337628640187E+03   -0.43549E-01   -0.43158E-01 10584   0.775E+00 0.175E-01
CGA:  12    -0.337674078489E+03   -0.45438E-01   -0.45452E-01 10584   0.284E+00 0.302E-02
CGA:  13    -0.337686866088E+03   -0.12788E-01   -0.12570E-01 10584   0.174E+00-0.226E-01
CGA:  14    -0.337706889923E+03   -0.20024E-01   -0.19260E-01 10584   0.231E+00 0.120E-01
CGA:  15    -0.337722317940E+03   -0.15428E-01   -0.15439E-01 10584   0.105E+00-0.668E-02
CGA:  16    -0.337729553463E+03   -0.72355E-02   -0.73406E-02 10584   0.970E-01-0.107E-01
CGA:  17    -0.337735098558E+03   -0.55451E-02   -0.55175E-02 10584   0.365E-01 0.121E-01
CGA:  18    -0.337738167013E+03   -0.30685E-02   -0.31400E-02 10584   0.473E-01-0.488E-02
CGA:  19    -0.337743052895E+03   -0.48859E-02   -0.51377E-02 10584   0.575E-01-0.418E-02
CGA:  20    -0.337744617156E+03   -0.15643E-02   -0.17924E-02 10584   0.138E-01 0.667E-02
CGA:  21    -0.337745922030E+03   -0.13049E-02   -0.12592E-02 10584   0.307E-01 0.248E-02
CGA:  22    -0.337749971744E+03   -0.40497E-02   -0.47717E-02 10584   0.496E-01-0.113E-01
CGA:  23    -0.337750880901E+03   -0.90916E-03   -0.99341E-03 10584   0.280E-01 0.877E-03
CGA:  24    -0.337751689976E+03   -0.80907E-03   -0.98620E-03 10584   0.260E-01 0.515E-02
CGA:  25    -0.337754455228E+03   -0.27653E-02   -0.25871E-02 10584   0.490E-01 0.856E-02
CGA:  26    -0.337757820072E+03   -0.33648E-02   -0.32935E-02 10584   0.172E-01-0.432E-02
CGA:  27    -0.337758965540E+03   -0.11455E-02   -0.11449E-02 10584   0.264E-01-0.224E-03
CGA:  28    -0.337760932346E+03   -0.19668E-02   -0.19147E-02 10584   0.175E-01 0.555E-02
CGA:  29    -0.337762482225E+03   -0.15499E-02   -0.15897E-02 10584   0.259E-01-0.421E-02
CGA:  30    -0.337763711607E+03   -0.12294E-02   -0.12174E-02 10584   0.249E-01-0.344E-02
CGA:  31    -0.337764252712E+03   -0.54111E-03   -0.68202E-03 10584   0.125E-01 0.364E-02
CGA:  32    -0.337764490685E+03   -0.23797E-03   -0.40313E-03 10584   0.792E-02 0.458E-02
CGA:  33    -0.337764874564E+03   -0.38388E-03   -0.46244E-03 10584   0.942E-02 0.396E-02
CGA:  34    -0.337765455603E+03   -0.58104E-03   -0.58323E-03 10584   0.115E-01-0.420E-02
CGA:  35    -0.337765814260E+03   -0.35866E-03   -0.36747E-03 10584   0.941E-02 0.240E-02
CGA:  36    -0.337765985009E+03   -0.17075E-03   -0.30684E-03 10584   0.284E-02 0.400E-02
CGA:  37    -0.337766048743E+03   -0.63734E-04   -0.11558E-03 10584   0.151E-02 0.172E-02
CGA:  38    -0.337766240081E+03   -0.19134E-03    0.48521E-03 10584   0.159E-02 0.501E-03
CGA:  39    -0.337766506750E+03   -0.26667E-03   -0.20741E-03 10584   0.993E-03 0.149E-02
CGA:  40    -0.337766502360E+03    0.43900E-05   -0.23615E-04 10584   0.725E-03 0.776E-03
CGA:  41    -0.337766525333E+03   -0.22973E-04   -0.32308E-04 10584   0.671E-03 0.687E-03
CGA:  42    -0.337766588120E+03   -0.62787E-04   -0.51000E-04 10584   0.623E-03 0.637E-03
CGA:  43    -0.337766614888E+03   -0.26769E-04   -0.31478E-04 10584   0.596E-03 0.601E-03
CGA:  44    -0.337766691080E+03   -0.76192E-04   -0.55990E-04 10584   0.569E-03 0.565E-03
CGA:  45    -0.337766705924E+03   -0.14844E-04   -0.24154E-04 10584   0.543E-03 0.538E-03
CGA:  46    -0.337766785431E+03   -0.79507E-04   -0.56575E-04 10584   0.531E-03 0.510E-03
CGA:  47    -0.337766792993E+03   -0.75620E-05   -0.19504E-04 10584   0.497E-03 0.490E-03
CGA:  48    -0.337766859462E+03   -0.66469E-04   -0.48649E-04 10584   0.482E-03 0.473E-03
CGA:  49    -0.337766869722E+03   -0.10261E-04   -0.19737E-04 10584   0.461E-03 0.454E-03
CGA:  50    -0.337766936390E+03   -0.66667E-04   -0.47981E-04 10584   0.458E-03 0.434E-03
CGA:  51    -0.337766942084E+03   -0.56947E-05   -0.16740E-04 10584   0.428E-03 0.419E-03
CGA:  52    -0.337766996865E+03   -0.54780E-04   -0.40991E-04 10584   0.425E-03 0.407E-03
CGA:  53    -0.337767006170E+03   -0.93050E-05   -0.17720E-04 10584   0.405E-03 0.390E-03
CGA:  54    -0.337767057586E+03   -0.51417E-04   -0.38915E-04 10584   0.430E-03 0.371E-03
CGA:  55    -0.337767065738E+03   -0.81519E-05   -0.16831E-04 10584   0.390E-03 0.351E-03
CGA:  56    -0.337767102180E+03   -0.36442E-04   -0.30930E-04 10584   0.438E-03 0.335E-03
CGA:  57    -0.337767117248E+03   -0.15067E-04   -0.20169E-04 10584   0.417E-03 0.293E-03
CGA:  58    -0.337767137107E+03   -0.19859E-04   -0.22369E-04 10584   0.441E-03 0.278E-03
CGA:  59    -0.337767160933E+03   -0.23826E-04   -0.25027E-04 10584   0.514E-03 0.220E-03
CGA:  60    -0.337767206091E+03   -0.45159E-04   -0.46424E-04 10584   0.393E-03 0.739E-03
CGA:  61    -0.337767227207E+03   -0.21116E-04   -0.22306E-04 10584   0.441E-03 0.230E-03
CGA:  62    -0.337767244793E+03   -0.17587E-04   -0.20597E-04 10584   0.421E-03 0.203E-03
CGA:  63    -0.337767278149E+03   -0.33356E-04   -0.35332E-04 10584   0.422E-03 0.600E-03
CGA:  64    -0.337767297553E+03   -0.19404E-04   -0.21219E-04 10584   0.432E-03 0.175E-03
CGA:  65    -0.337767353534E+03   -0.55981E-04   -0.46517E-04 10584   0.394E-03 0.594E-03
CGA:  66    -0.337767358995E+03   -0.54609E-05   -0.12703E-04 10584   0.294E-03 0.252E-03
CGA:  67    -0.337767377503E+03   -0.18508E-04   -0.18027E-04 10584   0.304E-03 0.266E-03
CGA:  68    -0.337767396920E+03   -0.19418E-04   -0.18842E-04 10584   0.335E-03 0.239E-03
CGA:  69    -0.337767406960E+03   -0.10040E-04   -0.14100E-04 10584   0.307E-03 0.229E-03
CGA:  70    -0.337767431964E+03   -0.25003E-04   -0.22262E-04 10584   0.409E-03 0.202E-03
CGA:  71    -0.337767437790E+03   -0.58264E-05   -0.12482E-04 10584   0.278E-03 0.229E-03
CGA:  72    -0.337767466407E+03   -0.28617E-04   -0.22877E-04 10584   0.328E-03 0.238E-03
CGA:  73    -0.337767470742E+03   -0.43345E-05   -0.10681E-04 10584   0.270E-03 0.237E-03
CGA:  74    -0.337767500042E+03   -0.29299E-04   -0.22952E-04 10584   0.317E-03 0.235E-03
CGA:  75    -0.337767503752E+03   -0.37109E-05   -0.10125E-04 10584   0.262E-03 0.234E-03
CGA:  76    -0.337767532556E+03   -0.28804E-04   -0.22414E-04 10584   0.302E-03 0.233E-03
CGA:  77    -0.337767536243E+03   -0.36868E-05   -0.98415E-05 10584   0.257E-03 0.230E-03
CGA:  78    -0.337767565182E+03   -0.28938E-04   -0.22363E-04 10584   0.300E-03 0.227E-03
CGA:  79    -0.337767568468E+03   -0.32861E-05   -0.95332E-05 10584   0.251E-03 0.226E-03
CGA:  80    -0.337767596693E+03   -0.28225E-04   -0.21802E-04 10584   0.290E-03 0.224E-03
CGA:  81    -0.337767600065E+03   -0.33715E-05   -0.93825E-05 10584   0.247E-03 0.221E-03
CGA:  82    -0.337767628417E+03   -0.28352E-04   -0.21801E-04 10584   0.292E-03 0.218E-03
CGA:  83    -0.337767631429E+03   -0.30125E-05   -0.91462E-05 10584   0.242E-03 0.216E-03
CGA:  84    -0.337767658980E+03   -0.27551E-04   -0.21215E-04 10584   0.283E-03 0.215E-03
CGA:  85    -0.337767662154E+03   -0.31739E-05   -0.90502E-05 10584   0.238E-03 0.212E-03
CGA:  86    -0.337767690000E+03   -0.27846E-04   -0.21346E-04 10584   0.288E-03 0.208E-03
CGA:  87    -0.337767692777E+03   -0.27777E-05   -0.88421E-05 10584   0.233E-03 0.207E-03
CGA:  88    -0.337767719748E+03   -0.26971E-04   -0.20709E-04 10584   0.277E-03 0.207E-03
CGA:  89    -0.337767722759E+03   -0.30109E-05   -0.87655E-05 10584   0.230E-03 0.203E-03
CGA:  90    -0.337767750297E+03   -0.27537E-04   -0.21032E-04 10584   0.286E-03 0.199E-03
CGA:  91    -0.337767752846E+03   -0.25493E-05   -0.85827E-05 10584   0.225E-03 0.199E-03
CGA:  92    -0.337767779175E+03   -0.26329E-04   -0.20182E-04 10584   0.269E-03 0.200E-03
CGA:  93    -0.337767782151E+03   -0.29766E-05   -0.85541E-05 10584   0.224E-03 0.196E-03
CGA:  94    -0.337767809472E+03   -0.27321E-04   -0.20829E-04 10584   0.289E-03 0.190E-03
CGA:  95    -0.337767811844E+03   -0.23714E-05   -0.84131E-05 10584   0.218E-03 0.192E-03
CGA:  96    -0.337767837321E+03   -0.25478E-04   -0.19549E-04 10584   0.260E-03 0.195E-03
CGA:  97    -0.337767840433E+03   -0.31117E-05   -0.84229E-05 10584   0.219E-03 0.189E-03
CGA:  98    -0.337767867679E+03   -0.27246E-04   -0.20785E-04 10584   0.299E-03 0.180E-03
CGA:  99    -0.337767869903E+03   -0.22233E-05   -0.83510E-05 10584   0.212E-03 0.186E-03
CGA: 100    -0.337767894219E+03   -0.24316E-04   -0.18725E-04 10584   0.246E-03 0.191E-03
CGA: 101    -0.337767897727E+03   -0.35087E-05   -0.83887E-05 10584   0.215E-03 0.183E-03
CGA: 102    -0.337767925144E+03   -0.27417E-04   -0.20992E-04 10584   0.320E-03 0.167E-03
CGA: 103    -0.337767927263E+03   -0.21195E-05   -0.84594E-05 10584   0.205E-03 0.182E-03
CGA: 104    -0.337767949864E+03   -0.22600E-04   -0.17578E-04 10584   0.226E-03 0.191E-03
CGA: 105    -0.337767954402E+03   -0.45386E-05   -0.86337E-05 10584   0.212E-03 0.181E-03
CGA: 106    -0.337767981986E+03   -0.27584E-04   -0.21325E-04 10584   0.352E-03 0.153E-03
CGA: 107    -0.337767984169E+03   -0.21821E-05   -0.88105E-05 10584   0.198E-03 0.180E-03
CGA: 108    -0.337768004693E+03   -0.20524E-04   -0.16285E-04 10584   0.208E-03 0.191E-03
CGA: 109    -0.337768011167E+03   -0.64742E-05   -0.93628E-05 10584   0.207E-03 0.181E-03
CGA: 110    -0.337768038288E+03   -0.27121E-04   -0.21074E-04 10584   0.357E-03 0.146E-03
CGA: 111    -0.337768040548E+03   -0.22598E-05   -0.88558E-05 10584   0.193E-03 0.175E-03
CGA: 112    -0.337768046125E+03   -0.55778E-05   -0.10878E-04 10584   0.307E-03 0.234E-03
CGA: 113    -0.337768067956E+03   -0.21831E-04   -0.23259E-04 10584   0.849E-03-0.885E-04
CGA: 114    -0.337768107727E+03   -0.39770E-04   -0.38158E-04 10584   0.159E-02 0.546E-03
CGA: 115    -0.337768127527E+03   -0.19800E-04   -0.32580E-04 10584   0.198E-03 0.319E-03
CGA: 116    -0.337768128788E+03   -0.12607E-05   -0.62861E-05 10584   0.221E-03 0.158E-03
CGA: 117    -0.337768153511E+03   -0.24723E-04   -0.22182E-04 10584   0.610E-03 0.582E-04
CGA: 118    -0.337768204724E+03   -0.51213E-04   -0.48411E-04 10584   0.277E-03 0.722E-03
CGA: 119    -0.337768207531E+03   -0.28072E-05   -0.77268E-05 10584   0.184E-03 0.157E-03
CGA: 120    -0.337768228498E+03   -0.20967E-04   -0.16060E-04 10584   0.217E-03 0.164E-03
CGA: 121    -0.337768232065E+03   -0.35662E-05   -0.74498E-05 10584   0.187E-03 0.157E-03
CGA: 122    -0.337768255099E+03   -0.23035E-04   -0.17746E-04 10584   0.280E-03 0.144E-03
CGA: 123    -0.337768257506E+03   -0.24073E-05   -0.75341E-05 10584   0.179E-03 0.156E-03
CGA: 124    -0.337768277442E+03   -0.19936E-04   -0.15366E-04 10584   0.203E-03 0.165E-03
CGA: 125    -0.337768281358E+03   -0.39159E-05   -0.74529E-05 10584   0.185E-03 0.156E-03
CGA: 126    -0.337768304501E+03   -0.23143E-04   -0.17908E-04 10584   0.294E-03 0.136E-03
CGA: 127    -0.337768306788E+03   -0.22869E-05   -0.76098E-05 10584   0.175E-03 0.155E-03
CGA: 128    -0.337768325472E+03   -0.18684E-04   -0.14584E-04 10584   0.190E-03 0.165E-03
CGA: 129    -0.337768330197E+03   -0.47243E-05   -0.77097E-05 10584   0.183E-03 0.156E-03
CGA: 130    -0.337768352863E+03   -0.22666E-04   -0.17742E-04 10584   0.304E-03 0.129E-03
CGA: 131    -0.337768355222E+03   -0.23590E-05   -0.77375E-05 10584   0.171E-03 0.152E-03
CGA: 132    -0.337768361011E+03   -0.57888E-05   -0.10017E-04 10584   0.273E-03 0.212E-03
CGA: 133    -0.337768379679E+03   -0.18669E-04   -0.19463E-04 10584   0.662E-03-0.603E-04
CGA: 134    -0.337768416219E+03   -0.36539E-04   -0.33465E-04 10584   0.105E-02 0.490E-03
CGA: 135    -0.337768428745E+03   -0.12527E-04   -0.21772E-04 10584   0.171E-03 0.241E-03
CGA: 136    -0.337768430257E+03   -0.15117E-05   -0.57613E-05 10584   0.205E-03 0.144E-03
CGA: 137    -0.337768450231E+03   -0.19974E-04   -0.18523E-04 10584   0.525E-03 0.416E-04
CGA: 138    -0.337768493231E+03   -0.43000E-04   -0.39641E-04 10584   0.301E-03 0.607E-03
CGA: 139    -0.337768496022E+03   -0.27908E-05   -0.75496E-05 10584   0.161E-03 0.146E-03
  17 F= -.33776850E+03 E0= -.33776067E+03  d E =0.173949E+01  mag=    14.0000
       N       E                     dE             d eps       ncg     rms          ort
SDA:   1    -0.334339375383E+03    0.34291E+01    0.00000E+00 10584   0.123E+02 0.000E+00
CGA:   2    -0.336175710867E+03   -0.18363E+01   -0.19017E+01 10584   0.365E+02-0.351E+00
CGA:   3    -0.338122129291E+03   -0.19464E+01   -0.19486E+01 10584   0.588E+01 0.524E-01
CGA:   4    -0.338409820768E+03   -0.28769E+00   -0.25166E+00 10584   0.388E+01-0.157E+00
CGA:   5    -0.338771462381E+03   -0.36164E+00   -0.36229E+00 10584   0.549E+01-0.148E-01
CGA:   6    -0.338948074001E+03   -0.17661E+00   -0.18456E+00 10584   0.105E+01-0.162E+00
CGA:   7    -0.338984454578E+03   -0.36381E-01   -0.35415E-01 10584   0.516E+00 0.344E-01
CGA:   8    -0.339034793958E+03   -0.50339E-01   -0.49432E-01 10584   0.875E+00 0.260E-01
CGA:   9    -0.339065992644E+03   -0.31199E-01   -0.31847E-01 10584   0.144E+00-0.340E-01
CGA:  10    -0.339075703283E+03   -0.97106E-02   -0.99020E-02 10584   0.230E+00-0.160E-01
CGA:  11    -0.339088378668E+03   -0.12675E-01   -0.12648E-01 10584   0.112E+00 0.111E-01
CGA:  12    -0.339092638535E+03   -0.42599E-02   -0.43280E-02 10584   0.455E-01 0.381E-02
CGA:  13    -0.339097164238E+03   -0.45257E-02   -0.53073E-02 10584   0.131E+00-0.143E-01
CGA:  14    -0.339100814450E+03   -0.36502E-02   -0.36339E-02 10584   0.796E-01-0.113E-02
CGA:  15    -0.339102162628E+03   -0.13482E-02   -0.15665E-02 10584   0.195E-01 0.758E-02
CGA:  16    -0.339102651948E+03   -0.48932E-03   -0.60254E-03 10584   0.178E-01 0.389E-02
CGA:  17    -0.339104135874E+03   -0.14839E-02   -0.14668E-02 10584   0.387E-01 0.137E-02
CGA:  18    -0.339105899400E+03   -0.17635E-02   -0.16723E-02 10584   0.193E-01-0.548E-02
CGA:  19    -0.339106315173E+03   -0.41577E-03   -0.37290E-03 10584   0.617E-02-0.151E-02
CGA:  20    -0.339106445209E+03   -0.13004E-03   -0.14821E-03 10584   0.522E-02 0.657E-03
CGA:  21    -0.339106747761E+03   -0.30255E-03   -0.30331E-03 10584   0.103E-01 0.134E-02
CGA:  22    -0.339107533137E+03   -0.78538E-03   -0.80651E-03 10584   0.428E-02-0.228E-02
CGA:  23    -0.339107692466E+03   -0.15933E-03   -0.20628E-03 10584   0.863E-02-0.567E-02
CGA:  24    -0.339107805297E+03   -0.11283E-03   -0.19746E-03 10584   0.189E-02 0.277E-02
CGA:  25    -0.339107861198E+03   -0.55901E-04   -0.80542E-04 10584   0.182E-02 0.122E-02
CGA:  26    -0.339108080215E+03   -0.21902E-03    0.27204E-03 10584   0.146E-02 0.481E-03
CGA:  27    -0.339108267309E+03   -0.18709E-03   -0.15739E-03 10584   0.446E-03 0.873E-03
CGA:  28    -0.339108308141E+03   -0.40832E-04   -0.35554E-04 10584   0.540E-03 0.197E-03
CGA:  29    -0.339108429040E+03   -0.12090E-03    0.49626E-04 10584   0.335E-03 0.653E-03
CGA:  30    -0.339108474961E+03   -0.45921E-04   -0.67608E-04 10584   0.219E-02-0.146E-03
CGA:  31    -0.339108638279E+03   -0.16332E-03    0.50452E-03 10584   0.455E-02 0.599E-03
CGA:  32    -0.339108956221E+03   -0.31794E-03   -0.81331E-03 10584   0.156E-01-0.662E-02
CGA:  33    -0.339109440315E+03   -0.48409E-03   -0.51206E-03 10584   0.759E-03 0.979E-03
CGA:  34    -0.339109514113E+03   -0.73797E-04   -0.29408E-04 10584   0.978E-02-0.751E-03
CGA:  35    -0.339109841483E+03   -0.32737E-03   -0.32657E-03 10584   0.225E-03-0.446E-05
CGA:  36    -0.339109897881E+03   -0.56397E-04    0.11418E-03 10584   0.462E-03 0.174E-04
CGA:  37    -0.339109905836E+03   -0.79549E-05   -0.24129E-04 10584   0.148E-03 0.250E-03
CGA:  38    -0.339109919701E+03   -0.13865E-04   -0.13562E-04 10584   0.313E-03-0.171E-04
CGA:  39    -0.339110044933E+03   -0.12523E-03    0.13901E-04 10584   0.254E-03 0.108E-03
CGA:  40    -0.339108411033E+03    0.16339E-02   -0.87593E-03 10584   0.745E-01-0.315E-02
CGA:  41    -0.339110447250E+03   -0.20362E-02   -0.21476E-02 10584   0.536E-03-0.621E-03
CGA:  42    -0.339110469602E+03   -0.22352E-04   -0.26686E-04 10584   0.252E-03 0.297E-04
CGA:  43    -0.339110480255E+03   -0.10653E-04   -0.23911E-04 10584   0.121E-03 0.143E-03
CGA:  44    -0.339110560898E+03   -0.80643E-04    0.12300E-04 10584   0.911E-03-0.109E-03
CGA:  45    -0.339110546587E+03    0.14312E-04   -0.21118E-04 10584   0.101E-03 0.234E-03
CGA:  46    -0.339110542858E+03    0.37282E-05   -0.31839E-05 10584   0.548E-04 0.477E-04
CGA:  47    -0.339110556167E+03   -0.13309E-04   -0.16183E-04 10584   0.883E-03-0.767E-04
CGA:  48    -0.339110602384E+03   -0.46217E-04   -0.33685E-04 10584   0.566E-04-0.101E-03
CGA:  49    -0.339110622193E+03   -0.19809E-04    0.16109E-04 10584   0.175E-03-0.521E-05
CGA:  50    -0.339110712997E+03   -0.90804E-04    0.15624E-04 10584   0.156E-03 0.731E-04
CGA:  51    -0.339110791047E+03   -0.78050E-04    0.15440E-03 10584   0.132E-02-0.235E-03
CGA:  52    -0.339110806736E+03   -0.15689E-04   -0.36264E-04 10584   0.504E-04 0.166E-03
CGA:  53    -0.339110810701E+03   -0.39656E-05   -0.31173E-05 10584   0.525E-04-0.877E-05
  18 F= -.33911081E+03 E0= -.33910444E+03  d E =-.134231E+01  mag=    14.0000
       N       E                     dE             d eps       ncg     rms          ort
SDA:   1    -0.337978543109E+03    0.11323E+01    0.00000E+00 10584   0.381E+01 0.000E+00
CGA:   2    -0.338584408873E+03   -0.60587E+00   -0.60222E+00 10584   0.732E+01 0.187E+00
CGA:   3    -0.339151481208E+03   -0.56707E+00   -0.49624E+00 10584   0.100E+01 0.696E+00
CGA:   4    -0.339269110832E+03   -0.11763E+00   -0.11919E+00 10584   0.147E+01 0.220E-02
CGA:   5    -0.339383660279E+03   -0.11455E+00   -0.11036E+00 10584   0.177E+00 0.372E-01
CGA:   6    -0.339401741963E+03   -0.18082E-01   -0.17863E-01 10584   0.301E+00-0.932E-02
CGA:   7    -0.339416786789E+03   -0.15045E-01   -0.15479E-01 10584   0.518E-01 0.939E-02
CGA:   8    -0.339421171692E+03   -0.43849E-02   -0.44442E-02 10584   0.651E-01 0.149E-02
[...]
CGA:   6    -0.339611514605E+03   -0.91664E-02   -0.91767E-02 10584   0.278E-01-0.261E-02
CGA:   7    -0.339614715053E+03   -0.32004E-02   -0.32393E-02 10584   0.218E-01 0.163E-02
CGA:   8    -0.339616111600E+03   -0.13965E-02   -0.12559E-02 10584   0.929E-02-0.211E-02
CGA:   9    -0.339616737612E+03   -0.62601E-03   -0.69104E-03 10584   0.368E-02 0.119E-02
CGA:  10    -0.339617318902E+03   -0.58129E-03   -0.59075E-03 10584   0.812E-02-0.121E-02
CGA:  11    -0.339617453199E+03   -0.13430E-03   -0.18761E-03 10584   0.277E-02 0.542E-03
CGA:  12    -0.339617469779E+03   -0.16580E-04   -0.73384E-04 10584   0.140E-02 0.550E-03
CGA:  13    -0.339617532386E+03   -0.62607E-04   -0.94643E-04 10584   0.211E-02 0.471E-03
CGA:  14    -0.339617712530E+03   -0.18014E-03   -0.16172E-03 10584   0.116E-02-0.298E-03
CGA:  15    -0.339617798440E+03   -0.85910E-04   -0.70320E-04 10584   0.848E-03-0.330E-03
CGA:  16    -0.339617797340E+03    0.11006E-05   -0.15091E-04 10584   0.495E-03 0.180E-03
CGA:  17    -0.339617797387E+03   -0.47577E-07   -0.19353E-04 10584   0.500E-03 0.244E-03
CGA:  18    -0.339617857385E+03   -0.59997E-04   -0.60825E-04 10584   0.481E-03 0.327E-04
CGA:  19    -0.339617905530E+03   -0.48145E-04   -0.57450E-04 10584   0.322E-02-0.147E-02
CGA:  20    -0.339617914313E+03   -0.87832E-05   -0.73498E-04 10584   0.386E-03 0.782E-03
CGA:  21    -0.339617908597E+03    0.57161E-05   -0.12418E-04 10584   0.264E-03 0.238E-03
CGA:  22    -0.339617977568E+03   -0.68971E-04    0.39200E-04 10584   0.359E-03 0.412E-04
CGA:  23    -0.339617979775E+03   -0.22071E-05   -0.15142E-04 10584   0.753E-04 0.210E-03
 120 F= -.33961798E+03 E0= -.33961554E+03  d E =0.419347E-02  mag=    14.0000
       N       E                     dE             d eps       ncg     rms          ort
SDA:   1    -0.339558946691E+03    0.59031E-01    0.00000E+00 10584   0.177E+00 0.000E+00
CGA:   2    -0.339592092936E+03   -0.33146E-01   -0.33113E-01 10584   0.284E+00 0.324E-03
CGA:   3    -0.339605481328E+03   -0.13388E-01   -0.13295E-01 10584   0.982E-01-0.139E-02
CGA:   4    -0.339616199649E+03   -0.10718E-01   -0.10693E-01 10584   0.456E-01 0.171E-02
CGA:   5    -0.339620319568E+03   -0.41199E-02   -0.40851E-02 10584   0.360E-01-0.592E-02
CGA:   6    -0.339621616612E+03   -0.12970E-02   -0.14335E-02 10584   0.107E-01 0.303E-02
CGA:   7    -0.339622512442E+03   -0.89583E-03   -0.90855E-03 10584   0.580E-02 0.987E-03
CGA:   8    -0.339623016788E+03   -0.50435E-03   -0.45432E-03 10584   0.817E-02-0.265E-02
CGA:   9    -0.339623214412E+03   -0.19762E-03   -0.20386E-03 10584   0.508E-02 0.147E-03
CGA:  10    -0.339623251685E+03   -0.37273E-04   -0.10352E-03 10584   0.131E-02 0.100E-02
CGA:  11    -0.339623262154E+03   -0.10468E-04   -0.43065E-04 10584   0.124E-02 0.573E-03
CGA:  12    -0.339623388608E+03   -0.12645E-03   -0.12903E-03 10584   0.184E-02 0.284E-03
CGA:  13    -0.339623548512E+03   -0.15990E-03   -0.11578E-03 10584   0.749E-03-0.148E-02
CGA:  14    -0.339623553120E+03   -0.46072E-05   -0.23101E-04 10584   0.353E-03 0.379E-03
CGA:  15    -0.339623612936E+03   -0.59817E-04    0.13656E-03 10584   0.191E-03 0.209E-03
CGA:  16    -0.339623613112E+03   -0.17592E-06   -0.60210E-05 10584   0.121E-03 0.128E-03
CGA:  17    -0.339623636857E+03   -0.23745E-04    0.14775E-04 10584   0.818E-04 0.894E-04
CGA:  18    -0.339623638418E+03   -0.15614E-05   -0.35327E-05 10584   0.656E-04 0.623E-04
 121 F= -.33962364E+03 E0= -.33962120E+03  d E =-.565864E-02  mag=    14.0000
       N       E                     dE             d eps       ncg     rms          ort
SDA:   1    -0.339611792733E+03    0.11844E-01    0.00000E+00 10584   0.432E-01 0.000E+00
CGA:   2    -0.339615214125E+03   -0.34214E-02   -0.34564E-02 10584   0.723E-01-0.556E-02
CGA:   3    -0.339620613559E+03   -0.53994E-02   -0.53774E-02 10584   0.182E-01 0.190E-02
CGA:   4    -0.339621589631E+03   -0.97607E-03   -0.10237E-02 10584   0.164E-01 0.249E-02
CGA:   5    -0.339623196067E+03   -0.16064E-02   -0.16455E-02 10584   0.455E-02-0.260E-02
CGA:   6    -0.339623702489E+03   -0.50642E-03   -0.58828E-03 10584   0.595E-02-0.103E-02
CGA:   7    -0.339623832269E+03   -0.12978E-03   -0.14591E-03 10584   0.113E-02 0.368E-03
CGA:   8    -0.339623879289E+03   -0.47020E-04   -0.54927E-04 10584   0.113E-02 0.264E-03
CGA:   9    -0.339623993624E+03   -0.11434E-03   -0.11464E-03 10584   0.347E-03-0.366E-04
CGA:  10    -0.339624045534E+03   -0.51910E-04    0.33858E-03 10584   0.604E-03-0.120E-03
CGA:  11    -0.339624078375E+03   -0.32841E-04   -0.40372E-04 10584   0.600E-03-0.272E-03
CGA:  12    -0.339624076199E+03    0.21757E-05   -0.50976E-05 10584   0.380E-03 0.121E-03
 122 F= -.33962408E+03 E0= -.33962162E+03  d E =-.437781E-03  mag=    14.0000
       N       E                     dE             d eps       ncg     rms          ort
SDA:   1    -0.339617243881E+03    0.68345E-02    0.00000E+00 10584   0.709E-01 0.000E+00
CGA:   2    -0.339619572197E+03   -0.23283E-02   -0.24279E-02 10584   0.159E-01 0.457E-02
CGA:   3    -0.339621561480E+03   -0.19893E-02   -0.20509E-02 10584   0.181E-01-0.114E-02
CGA:   4    -0.339623185907E+03   -0.16244E-02   -0.16807E-02 10584   0.101E-01-0.196E-02
CGA:   5    -0.339623403653E+03   -0.21775E-03   -0.29717E-03 10584   0.346E-02 0.203E-02
CGA:   6    -0.339623657415E+03   -0.25376E-03   -0.26232E-03 10584   0.357E-02 0.118E-02
CGA:   7    -0.339624016560E+03   -0.35914E-03   -0.38305E-03 10584   0.227E-02-0.244E-02
CGA:   8    -0.339624033153E+03   -0.16593E-04   -0.57537E-04 10584   0.640E-03 0.903E-03
CGA:   9    -0.339624049802E+03   -0.16649E-04   -0.31107E-04 10584   0.469E-03 0.430E-03
CGA:  10    -0.339624140162E+03   -0.90361E-04    0.35194E-04 10584   0.530E-03-0.681E-04
CGA:  11    -0.339624156153E+03   -0.15991E-04   -0.20608E-04 10584   0.184E-03 0.218E-03
CGA:  12    -0.339624150402E+03    0.57508E-05   -0.32209E-05 10584   0.768E-04 0.168E-03
 123 F= -.33962415E+03 E0= -.33962170E+03  d E =-.742030E-04  mag=    14.0000
       N       E                     dE             d eps       ncg     rms          ort
SDA:   1    -0.339476436797E+03    0.14772E+00    0.00000E+00 10584   0.431E+00 0.000E+00
CGA:   2    -0.339558419916E+03   -0.81983E-01   -0.85004E-01 10584   0.572E+00-0.223E-01
CGA:   3    -0.339582113697E+03   -0.23694E-01   -0.24100E-01 10584   0.216E+00 0.227E-01
CGA:   4    -0.339610184969E+03   -0.28071E-01   -0.28181E-01 10584   0.786E-01-0.190E-02
CGA:   5    -0.339616434909E+03   -0.62499E-02   -0.63337E-02 10584   0.799E-01-0.744E-02
CGA:   6    -0.339620013973E+03   -0.35791E-02   -0.36680E-02 10584   0.169E-01 0.502E-02
CGA:   7    -0.339621114218E+03   -0.11002E-02   -0.11136E-02 10584   0.108E-01 0.208E-02
CGA:   8    -0.339621939355E+03   -0.82514E-03   -0.82422E-03 10584   0.874E-02-0.238E-02
CGA:   9    -0.339622385018E+03   -0.44566E-03   -0.44655E-03 10584   0.252E-02 0.320E-03
CGA:  10    -0.339622468207E+03   -0.83189E-04   -0.10149E-03 10584   0.149E-02 0.630E-03
CGA:  11    -0.339622688363E+03   -0.22016E-03   -0.23564E-03 10584   0.184E-02-0.258E-03
CGA:  12    -0.339622784059E+03   -0.95695E-04   -0.88780E-04 10584   0.107E-02-0.608E-03
CGA:  13    -0.339622791976E+03   -0.79172E-05   -0.18642E-04 10584   0.661E-03 0.250E-03
CGA:  14    -0.339622799347E+03   -0.73716E-05   -0.22254E-04 10584   0.523E-03 0.376E-03
CGA:  15    -0.339622873309E+03   -0.73962E-04    0.19399E-03 10584   0.299E-03 0.227E-03
CGA:  16    -0.339622899459E+03   -0.26150E-04   -0.26702E-04 10584   0.134E-03 0.204E-03
CGA:  17    -0.339622919990E+03   -0.20531E-04    0.23484E-04 10584   0.973E-04 0.574E-04
CGA:  18    -0.339622932207E+03   -0.12216E-04   -0.11021E-04 10584   0.797E-04 0.832E-04
CGA:  19    -0.339622947504E+03   -0.15298E-04    0.56335E-05 10584   0.553E-04 0.295E-04
CGA:  20    -0.339622967151E+03   -0.19647E-04   -0.31881E-06 10584   0.918E-03-0.455E-04
CGA:  21    -0.339623010815E+03   -0.43664E-04   -0.34468E-04 10584   0.142E-03-0.118E-03
CGA:  22    -0.339623012461E+03   -0.16460E-05   -0.42332E-05 10584   0.254E-04 0.320E-04
 124 F= -.33962301E+03 E0= -.33962058E+03  d E =0.113794E-02  mag=    14.0000
       N       E                     dE             d eps       ncg     rms          ort
SDA:   1    -0.339606858014E+03    0.16153E-01    0.00000E+00 10584   0.583E-01 0.000E+00
CGA:   2    -0.339612169931E+03   -0.53119E-02   -0.53629E-02 10584   0.774E-01 0.383E-02
CGA:   3    -0.339618624635E+03   -0.64547E-02   -0.63813E-02 10584   0.276E-01-0.319E-02
CGA:   4    -0.339621271931E+03   -0.26473E-02   -0.26510E-02 10584   0.183E-01 0.797E-03
CGA:   5    -0.339622465623E+03   -0.11937E-02   -0.11808E-02 10584   0.855E-02-0.416E-03
CGA:   6    -0.339623073267E+03   -0.60764E-03   -0.60124E-03 10584   0.356E-02-0.210E-03
CGA:   7    -0.339623259801E+03   -0.18653E-03   -0.21281E-03 10584   0.137E-02 0.659E-03
CGA:   8    -0.339623415730E+03   -0.15593E-03   -0.27307E-03 10584   0.633E-02-0.170E-02
CGA:   9    -0.339623480192E+03   -0.64461E-04   -0.15578E-03 10584   0.594E-03 0.119E-02
CGA:  10    -0.339623483374E+03   -0.31821E-05   -0.21652E-04 10584   0.278E-03 0.272E-03
CGA:  11    -0.339623515704E+03   -0.32330E-04   -0.30390E-04 10584   0.349E-03-0.946E-04
CGA:  12    -0.339623537461E+03   -0.21757E-04   -0.21211E-04 10584   0.578E-03-0.241E-03
CGA:  13    -0.339623542323E+03   -0.48622E-05   -0.18239E-04 10584   0.144E-03 0.214E-03
CGA:  14    -0.339623557821E+03   -0.15498E-04   -0.14881E-04 10584   0.145E-03-0.378E-04
CGA:  15    -0.339623585527E+03   -0.27706E-04    0.11404E-04 10584   0.207E-03-0.666E-04
CGA:  16    -0.339623584443E+03    0.10835E-05   -0.18175E-05 10584   0.137E-03 0.391E-04
 125 F= -.33962358E+03 E0= -.33962117E+03  d E =-.571983E-03  mag=    14.0000
       N       E                     dE             d eps       ncg     rms          ort
SDA:   1    -0.339610358336E+03    0.13227E-01    0.00000E+00 10584   0.544E-01 0.000E+00
CGA:   2    -0.339615695629E+03   -0.53373E-02   -0.54377E-02 10584   0.716E-01-0.635E-02
CGA:   3    -0.339619157232E+03   -0.34616E-02   -0.35843E-02 10584   0.266E-01 0.482E-02
CGA:   4    -0.339621211631E+03   -0.20544E-02   -0.20691E-02 10584   0.156E-01 0.164E-02
CGA:   5    -0.339622505023E+03   -0.12934E-02   -0.12747E-02 10584   0.202E-01-0.384E-02
CGA:   6    -0.339623311547E+03   -0.80652E-03   -0.82417E-03 10584   0.655E-02 0.675E-03
CGA:   7    -0.339623415424E+03   -0.10388E-03   -0.17191E-03 10584   0.215E-02 0.127E-02
CGA:   8    -0.339623534845E+03   -0.11942E-03   -0.13715E-03 10584   0.248E-02 0.730E-03
CGA:   9    -0.339623760871E+03   -0.22603E-03   -0.21537E-03 10584   0.592E-03-0.924E-03
CGA:  10    -0.339623775319E+03   -0.14448E-04   -0.18964E-04 10584   0.361E-03 0.182E-03
CGA:  11    -0.339623800820E+03   -0.25501E-04   -0.28339E-04 10584   0.198E-03 0.194E-03
CGA:  12    -0.339623849948E+03   -0.49128E-04    0.10800E-04 10584   0.201E-03-0.467E-05
CGA:  13    -0.339623852475E+03   -0.25273E-05   -0.68515E-05 10584   0.792E-04 0.111E-03
 126 F= -.33962385E+03 E0= -.33962143E+03  d E =-.268032E-03  mag=    14.0000
       N       E                     dE             d eps       ncg     rms          ort
SDA:   1    -0.339613627062E+03    0.10223E-01    0.00000E+00 10584   0.427E-01 0.000E+00
CGA:   2    -0.339617171423E+03   -0.35444E-02   -0.36219E-02 10584   0.551E-01-0.520E-02
CGA:   3    -0.339620368046E+03   -0.31966E-02   -0.32050E-02 10584   0.201E-01 0.252E-02
CGA:   4    -0.339621798391E+03   -0.14303E-02   -0.14330E-02 10584   0.111E-01 0.216E-02
CGA:   5    -0.339622710895E+03   -0.91250E-03   -0.93104E-03 10584   0.138E-01-0.318E-02
CGA:   6    -0.339623306326E+03   -0.59543E-03   -0.59616E-03 10584   0.525E-02 0.805E-04
CGA:   7    -0.339623397044E+03   -0.90718E-04   -0.13724E-03 10584   0.178E-02 0.110E-02
CGA:   8    -0.339623488118E+03   -0.91074E-04   -0.10286E-03 10584   0.172E-02 0.611E-03
CGA:   9    -0.339623652487E+03   -0.16437E-03   -0.17427E-03 10584   0.995E-03-0.106E-02
CGA:  10    -0.339623669462E+03   -0.16974E-04   -0.31108E-04 10584   0.300E-03 0.401E-03
CGA:  11    -0.339623686830E+03   -0.17368E-04   -0.19923E-04 10584   0.165E-03 0.145E-03
CGA:  12    -0.339623719247E+03   -0.32416E-04    0.24611E-03 10584   0.120E-03 0.146E-04
CGA:  13    -0.339623726048E+03   -0.68017E-05   -0.69103E-05 10584   0.467E-04 0.972E-05
 127 F= -.33962373E+03 E0= -.33962131E+03  d E =0.126427E-03  mag=    14.0000
       N       E                     dE             d eps       ncg     rms          ort
SDA:   1    -0.339620232775E+03    0.34865E-02    0.00000E+00 10584   0.136E-01 0.000E+00
CGA:   2    -0.339621357398E+03   -0.11246E-02   -0.11168E-02 10584   0.175E-01 0.377E-03
CGA:   3    -0.339622757764E+03   -0.14004E-02   -0.14063E-02 10584   0.581E-02-0.398E-03
CGA:   4    -0.339623391672E+03   -0.63391E-03   -0.68015E-03 10584   0.575E-02-0.816E-03
CGA:   5    -0.339623568325E+03   -0.17665E-03   -0.20520E-03 10584   0.180E-02 0.116E-02
CGA:   6    -0.339623719328E+03   -0.15100E-03   -0.15186E-03 10584   0.113E-02-0.167E-03
CGA:   7    -0.339623751417E+03   -0.32089E-04   -0.13457E-03 10584   0.575E-02-0.157E-02
CGA:   8    -0.339623833529E+03   -0.82112E-04   -0.13024E-03 10584   0.411E-03 0.107E-02
CGA:   9    -0.339623834571E+03   -0.10422E-05   -0.10802E-04 10584   0.180E-03 0.222E-03
CGA:  10    -0.339623695592E+03    0.13898E-03   -0.76198E-04 10584   0.541E-02-0.614E-03
CGA:  11    -0.339623823877E+03   -0.12828E-03   -0.16504E-03 10584   0.570E-03 0.498E-03
CGA:  12    -0.339623872135E+03   -0.48258E-04   -0.38017E-04 10584   0.169E-03-0.199E-03
CGA:  13    -0.339623884936E+03   -0.12801E-04   -0.12741E-04 10584   0.134E-04 0.105E-04
CGA:  14    -0.339623883870E+03    0.10658E-05   -0.15017E-06 10584   0.993E-05 0.122E-04
 128 F= -.33962388E+03 E0= -.33962148E+03  d E =-.157821E-03  mag=    14.0000
       N       E                     dE             d eps       ncg     rms          ort
SDA:   1    -0.339608597791E+03    0.15287E-01    0.00000E+00 10584   0.491E-01 0.000E+00
CGA:   2    -0.339615752979E+03   -0.71552E-02   -0.72929E-02 10584   0.816E-01-0.296E-02
CGA:   3    -0.339618994395E+03   -0.32414E-02   -0.33523E-02 10584   0.219E-01 0.295E-02
CGA:   4    -0.339621911760E+03   -0.29174E-02   -0.28912E-02 10584   0.162E-01 0.962E-03
CGA:   5    -0.339622835229E+03   -0.92347E-03   -0.84577E-03 10584   0.931E-02-0.171E-02
CGA:   6    -0.339623394790E+03   -0.55956E-03   -0.57055E-03 10584   0.279E-02 0.391E-03
CGA:   7    -0.339623595002E+03   -0.20021E-03   -0.21223E-03 10584   0.145E-02 0.496E-03
CGA:   8    -0.339623727843E+03   -0.13284E-03   -0.11501E-03 10584   0.161E-02-0.626E-03
CGA:   9    -0.339623771749E+03   -0.43905E-04   -0.47410E-04 10584   0.805E-03 0.817E-04
CGA:  10    -0.339623778066E+03   -0.63178E-05   -0.19760E-04 10584   0.263E-03 0.197E-03
CGA:  11    -0.339623788686E+03   -0.10619E-04   -0.14240E-04 10584   0.270E-03 0.801E-04
CGA:  12    -0.339623817907E+03   -0.29221E-04   -0.41684E-04 10584   0.845E-03-0.393E-03
CGA:  13    -0.339623829496E+03   -0.11589E-04   -0.25670E-04 10584   0.148E-03 0.244E-03
CGA:  14    -0.339623834498E+03   -0.50019E-05   -0.71608E-05 10584   0.443E-04 0.454E-04
CGA:  15    -0.339623844434E+03   -0.99367E-05    0.74239E-04 10584   0.795E-04-0.847E-06
 129 F= -.33962384E+03 E0= -.33962146E+03  d E =0.394354E-04  mag=    14.0000
       N       E                     dE             d eps       ncg     rms          ort
SDA:   1    -0.339621257539E+03    0.25770E-02    0.00000E+00 10584   0.396E-01 0.000E+00
CGA:   2    -0.339622660486E+03   -0.14029E-02   -0.13372E-02 10584   0.669E-02-0.223E-02
CGA:   3    -0.339623005649E+03   -0.34516E-03   -0.36568E-03 10584   0.251E-02 0.100E-02
CGA:   4    -0.339623608331E+03   -0.60268E-03   -0.74193E-03 10584   0.236E-02-0.775E-03
CGA:   5    -0.339623669448E+03   -0.61118E-04   -0.66512E-04 10584   0.118E-02 0.121E-03
CGA:   6    -0.339623755485E+03   -0.86036E-04   -0.88150E-04 10584   0.675E-03 0.162E-03
CGA:   7    -0.339623821488E+03   -0.66003E-04   -0.68127E-04 10584   0.110E-02-0.428E-03
CGA:   8    -0.339623840834E+03   -0.19346E-04   -0.28309E-04 10584   0.115E-03 0.157E-03
CGA:   9    -0.339623845090E+03   -0.42564E-05   -0.63601E-05 10584   0.100E-03 0.647E-04
CGA:  10    -0.339623861945E+03   -0.16855E-04    0.67308E-04 10584   0.191E-03-0.353E-04
CGA:  11    -0.339623874139E+03   -0.12194E-04   -0.12784E-04 10584   0.127E-03-0.249E-04
CGA:  12    -0.339623872056E+03    0.20824E-05   -0.14274E-05 10584   0.498E-04 0.518E-04
 130 F= -.33962387E+03 E0= -.33962149E+03  d E =-.276219E-04  mag=    14.0000
       N       E                     dE             d eps       ncg     rms          ort
SDA:   1    -0.339620673728E+03    0.32004E-02    0.00000E+00 10584   0.177E-01 0.000E+00
CGA:   2    -0.339621715761E+03   -0.10420E-02   -0.10100E-02 10584   0.152E-01-0.213E-02
CGA:   3    -0.339623033204E+03   -0.13174E-02   -0.12921E-02 10584   0.569E-02 0.107E-02
CGA:   4    -0.339623465064E+03   -0.43186E-03   -0.43458E-03 10584   0.313E-02 0.943E-03
CGA:   5    -0.339623746637E+03   -0.28157E-03   -0.49218E-03 10584   0.132E-01-0.347E-02
CGA:   6    -0.339623965650E+03   -0.21901E-03   -0.33022E-03 10584   0.943E-03 0.228E-02
CGA:   7    -0.339623977214E+03   -0.11563E-04   -0.31361E-04 10584   0.392E-03 0.432E-03
CGA:   8    -0.339624009120E+03   -0.31906E-04   -0.32244E-04 10584   0.282E-03 0.218E-04
CGA:   9    -0.339624053296E+03   -0.44177E-04    0.27179E-03 10584   0.338E-03-0.201E-04
CGA:  10    -0.339624061017E+03   -0.77202E-05   -0.10240E-04 10584   0.156E-03 0.654E-04
 131 F= -.33962406E+03 E0= -.33962167E+03  d E =-.188960E-03  mag=    14.0000
       N       E                     dE             d eps       ncg     rms          ort
SDA:   1    -0.339622556889E+03    0.14964E-02    0.00000E+00 10584   0.603E-02 0.000E+00
CGA:   2    -0.339623117136E+03   -0.56025E-03   -0.62707E-03 10584   0.144E-01-0.182E-02
CGA:   3    -0.339623691049E+03   -0.57391E-03   -0.57892E-03 10584   0.662E-02 0.453E-03
CGA:   4    -0.339623814318E+03   -0.12327E-03   -0.16402E-03 10584   0.186E-02 0.974E-03
CGA:   5    -0.339623908670E+03   -0.94352E-04   -0.10416E-03 10584   0.221E-02 0.573E-03
CGA:   6    -0.339624115243E+03   -0.20657E-03   -0.21284E-03 10584   0.113E-02-0.747E-03
CGA:   7    -0.339624158942E+03   -0.43699E-04   -0.70811E-04 10584   0.154E-02-0.929E-03
CGA:   8    -0.339624162842E+03   -0.39001E-05   -0.34622E-04 10584   0.452E-03 0.690E-03
CGA:   9    -0.339624165241E+03   -0.23982E-05   -0.16301E-04 10584   0.302E-03 0.348E-03
CGA:  10    -0.339624223764E+03   -0.58523E-04    0.17461E-04 10584   0.213E-03 0.814E-04
CGA:  11    -0.339624225727E+03   -0.19626E-05   -0.79354E-05 10584   0.768E-04 0.178E-03
 132 F= -.33962423E+03 E0= -.33962183E+03  d E =-.164710E-03  mag=    14.0000
       N       E                     dE             d eps       ncg     rms          ort
SDA:   1    -0.339621383303E+03    0.28405E-02    0.00000E+00 10584   0.213E-01 0.000E+00
CGA:   2    -0.339622471129E+03   -0.10878E-02   -0.10056E-02 10584   0.134E-01-0.733E-02
CGA:   3    -0.339623563417E+03   -0.10923E-02   -0.97875E-03 10584   0.262E-02 0.214E-02
CGA:   4    -0.339623690476E+03   -0.12706E-03   -0.14231E-03 10584   0.160E-02 0.111E-02
CGA:   5    -0.339623973792E+03   -0.28332E-03   -0.46945E-03 10584   0.358E-02-0.127E-02
CGA:   6    -0.339624082669E+03   -0.10888E-03   -0.13681E-03 10584   0.836E-03 0.968E-03
CGA:   7    -0.339624139530E+03   -0.56861E-04   -0.14975E-03 10584   0.204E-02-0.123E-02
CGA:   8    -0.339624174701E+03   -0.35171E-04   -0.62984E-04 10584   0.401E-03 0.722E-03
CGA:   9    -0.339624192186E+03   -0.17485E-04   -0.20897E-04 10584   0.104E-03 0.118E-03
CGA:  10    -0.339624217529E+03   -0.25343E-04    0.10428E-04 10584   0.843E-04 0.452E-05
CGA:  11    -0.339624217389E+03    0.13952E-06   -0.19915E-05 10584   0.426E-04 0.489E-04
 133 F= -.33962422E+03 E0= -.33962183E+03  d E =0.833751E-05  mag=    14.0000
