       N       E                     dE             d eps       ncg     rms          ort
DAV:   1     0.251077006438E+04    0.25108E+04   -0.14403E+05  6192   0.157E+03
DAV:   2    -0.155627214922E+03   -0.26664E+04   -0.24731E+04  6192   0.414E+02
DAV:   3    -0.441614984024E+03   -0.28599E+03   -0.28172E+03  6192   0.149E+02
DAV:   4    -0.451151181914E+03   -0.95362E+01   -0.94436E+01  6192   0.265E+01
DAV:   5    -0.451743812310E+03   -0.59263E+00   -0.59148E+00  6192   0.487E+00
SDA:   6    -0.367882759522E+03    0.83861E+02   -0.59148E+00  6192   0.139E+02 0.000E+00
CGA:   7    -0.370195712094E+03   -0.23130E+01   -0.23210E+01  6192   0.229E+01 0.164E+00
CGA:   8    -0.370596053592E+03   -0.40034E+00   -0.40171E+00  6192   0.676E+00 0.561E-01
CGA:   9    -0.370757744996E+03   -0.16169E+00   -0.16064E+00  6192   0.232E+00 0.298E-01
CGA:  10    -0.370812720586E+03   -0.54976E-01   -0.54986E-01  6192   0.103E+00-0.770E-03
CGA:  11    -0.370840967540E+03   -0.28247E-01   -0.29075E-01  6192   0.520E-01-0.102E-01
CGA:  12    -0.370852645959E+03   -0.11678E-01   -0.11686E-01  6192   0.186E-01-0.290E-03
CGA:  13    -0.370855858614E+03   -0.32127E-02   -0.33475E-02  6192   0.511E-02 0.527E-02
CGA:  14    -0.370856612582E+03   -0.75397E-03   -0.94049E-03  6192   0.215E-02 0.300E-02
CGA:  15    -0.370857100212E+03   -0.48763E-03   -0.47087E-03  6192   0.905E-03 0.102E-02
CGA:  16    -0.370857231284E+03   -0.13107E-03   -0.18849E-03  6192   0.537E-03 0.928E-03
CGA:  17    -0.370857282658E+03   -0.51373E-04   -0.76177E-04  6192   0.363E-03 0.426E-03
CGA:  18    -0.370857341380E+03   -0.58723E-04   -0.64548E-04  6192   0.254E-03 0.304E-03
CGA:  19    -0.370857379268E+03   -0.37888E-04   -0.43462E-04  6192   0.186E-03 0.220E-03
CGA:  20    -0.370857402708E+03   -0.23439E-04   -0.29425E-04  6192   0.140E-03 0.164E-03
CGA:  21    -0.370857418130E+03   -0.15423E-04   -0.20947E-04  6192   0.109E-03 0.126E-03
CGA:  22    -0.370857428225E+03   -0.10095E-04   -0.15171E-04  6192   0.859E-04 0.990E-04
CGA:  23    -0.370857434830E+03   -0.66046E-05   -0.11200E-04  6192   0.692E-04 0.793E-04
   1 F= -.37085743E+03 E0= -.37085743E+03  d E =-.370857E+03  mag=    20.0000
