 vasp.6.1.2 22Jul20 (build Apr 14 2021 21:39:43) complex                        
  
 executed on             LinuxIFC date 2022.04.19  21:35:03
 running on   64 total cores
 distrk:  each k-point on   64 cores,    1 groups
 distr:  one band on NCORE=  16 cores,    4 groups


--------------------------------------------------------------------------------------------------------


 INCAR:
 POTCAR:    PAW_PBE Ca_sv 06Sep2000               
 POTCAR:    PAW_PBE Mn_pv 02Aug2007               
 POTCAR:    PAW_PBE S 06Sep2000                   
 POTCAR:    PAW_PBE O 08Apr2002                   
 POTCAR:    PAW_PBE Ca_sv 06Sep2000               
   VRHFIN =Ca: 3s3p4s                                                                               
   LEXCH  = PE                                                                                      
   EATOM  =  1006.0909 eV,   73.9456 Ry                                                             
                                                                                                    
   TITEL  = PAW_PBE Ca_sv 06Sep2000                                                                 
   LULTRA =        F    use ultrasoft PP ?                                                          
   IUNSCR =        1    unscreen: 0-lin 1-nonlin 2-no                                               
   RPACOR =    2.000    partial core radius                                                         
   POMASS =   40.078; ZVAL   =   10.000    mass and valenz                                          
   RCORE  =    2.300    outmost cutoff radius                                                       
   RWIGS  =    2.500; RWIGS  =    1.323    wigner-seitz radius (au A)                               
   ENMAX  =  266.622; ENMIN  =  199.967 eV                                                          
   RCLOC  =    1.808    cutoff for local pot                                                        
   LCOR   =        T    correct aug charges                                                         
   LPAW   =        T    paw PP                                                                      
   EAUG   =  420.852                                                                                
   RMAX   =    2.359    core radius for proj-oper                                                   
   RAUG   =    1.300    factor for augmentation sphere                                              
   RDEP   =    2.392    radius for radial grids                                                     
   RDEPT  =    1.987    core radius for aug-charge                                                  
                                                                                                    
   Atomic configuration                                                                             
    7 entries                                                                                       
     n  l   j            E        occ.                                                              
     1  0  0.50     -3949.1705   2.0000                                                             
     2  0  0.50      -414.3434   2.0000                                                             
     2  1  1.50      -334.7047   6.0000                                                             
     3  0  0.50       -47.0896   2.0000                                                             
     4  0  0.50        -3.7663   2.0000                                                             
     3  1  1.50       -28.0061   6.0000                                                             
     3  2  1.50        -4.0817   0.0000                                                             
   Description                                                                                      
     l       E           TYP  RCUT    TYP  RCUT                                                     
     0    -47.0896403     23  2.300                                                                 
     0     -3.7663320     23  2.300                                                                 
     1    -28.0060855     23  2.300                                                                 
     1      6.8029130     23  2.300                                                                 
     2     -4.0817478     23  2.300                                                                 
     2      0.4464412     23  2.300                                                                 
  local pseudopotential read in
  partial core-charges read in
  partial kinetic energy density read in
  atomic valenz-charges read in
  non local Contribution for L=           0  read in
    real space projection operators read in
  non local Contribution for L=           0  read in
    real space projection operators read in
  non local Contribution for L=           1  read in
    real space projection operators read in
  non local Contribution for L=           1  read in
    real space projection operators read in
  non local Contribution for L=           2  read in
    real space projection operators read in
  non local Contribution for L=           2  read in
    real space projection operators read in
    PAW grid and wavefunctions read in
 
   number of l-projection  operators is LMAX  =           6
   number of lm-projection operators is LMMAX =          18
 
 POTCAR:    PAW_PBE Mn_pv 02Aug2007               
   VRHFIN =Mn: 3p4s3d                                                                               
   LEXCH  = PE                                                                                      
   EATOM  =  2025.2664 eV,  148.8529 Ry                                                             
                                                                                                    
   TITEL  = PAW_PBE Mn_pv 02Aug2007                                                                 
   LULTRA =        F    use ultrasoft PP ?                                                          
   IUNSCR =        1    unscreen: 0-lin 1-nonlin 2-no                                               
   RPACOR =    2.080    partial core radius                                                         
   POMASS =   54.938; ZVAL   =   13.000    mass and valenz                                          
   RCORE  =    2.300    outmost cutoff radius                                                       
   RWIGS  =    2.500; RWIGS  =    1.323    wigner-seitz radius (au A)                               
   ENMAX  =  269.864; ENMIN  =  202.398 eV                                                          
   ICORE  =        3    local potential                                                             
   LCOR   =        T    correct aug charges                                                         
   LPAW   =        T    paw PP                                                                      
   EAUG   =  569.085                                                                                
   DEXC   =    0.000                                                                                
   RMAX   =    2.343    core radius for proj-oper                                                   
   RAUG   =    1.300    factor for augmentation sphere                                              
   RDEP   =    2.338    radius for radial grids                                                     
   RDEPT  =    1.798    core radius for aug-charge                                                  
                                                                                                    
   Atomic configuration                                                                             
    8 entries                                                                                       
     n  l   j            E        occ.                                                              
     1  0  0.50     -6424.8287   2.0000                                                             
     2  0  0.50      -739.1154   2.0000                                                             
     2  1  1.50      -625.3949   6.0000                                                             
     3  0  0.50       -81.6100   2.0000                                                             
     3  1  1.50       -50.4667   6.0000                                                             
     3  2  2.50        -3.3745   6.0000                                                             
     4  0  0.50        -4.1331   1.0000                                                             
     4  3  2.50        -1.3606   0.0000                                                             
   Description                                                                                      
     l       E           TYP  RCUT    TYP  RCUT                                                     
     1    -50.4666628     23  2.000                                                                 
     1     -1.3605826     23  2.000                                                                 
     2     -3.3744729     23  2.300                                                                 
     2     -4.7350555     23  2.300                                                                 
     0     -4.1331431     23  2.300                                                                 
     0      7.6656591     23  2.300                                                                 
     3      9.5240782     23  2.300                                                                 
  local pseudopotential read in
  partial core-charges read in
  partial kinetic energy density read in
  atomic valenz-charges read in
  non local Contribution for L=           1  read in
    real space projection operators read in
  non local Contribution for L=           1  read in
    real space projection operators read in
  non local Contribution for L=           2  read in
    real space projection operators read in
  non local Contribution for L=           2  read in
    real space projection operators read in
  non local Contribution for L=           0  read in
    real space projection operators read in
  non local Contribution for L=           0  read in
    real space projection operators read in
    PAW grid and wavefunctions read in
 
   number of l-projection  operators is LMAX  =           6
   number of lm-projection operators is LMMAX =          18
 
 POTCAR:    PAW_PBE S 06Sep2000                   
   VRHFIN =S : s2p4                                                                                 
   LEXCH  = PE                                                                                      
   EATOM  =   276.8230 eV,   20.3459 Ry                                                             
                                                                                                    
   TITEL  = PAW_PBE S 06Sep2000                                                                     
   LULTRA =        F    use ultrasoft PP ?                                                          
   IUNSCR =        1    unscreen: 0-lin 1-nonlin 2-no                                               
   RPACOR =    1.500    partial core radius                                                         
   POMASS =   32.066; ZVAL   =    6.000    mass and valenz                                          
   RCORE  =    1.900    outmost cutoff radius                                                       
   RWIGS  =    2.200; RWIGS  =    1.164    wigner-seitz radius (au A)                               
   ENMAX  =  258.689; ENMIN  =  194.016 eV                                                          
   ICORE  =        2    local potential                                                             
   LCOR   =        T    correct aug charges                                                         
   LPAW   =        T    paw PP                                                                      
   EAUG   =  335.092                                                                                
   DEXC   =    0.000                                                                                
   RMAX   =    1.942    core radius for proj-oper                                                   
   RAUG   =    1.300    factor for augmentation sphere                                              
   RDEP   =    1.954    radius for radial grids                                                     
   RDEPT  =    1.744    core radius for aug-charge                                                  
                                                                                                    
   Atomic configuration                                                                             
    6 entries                                                                                       
     n  l   j            E        occ.                                                              
     1  0  0.50     -2405.8406   2.0000                                                             
     2  0  0.50      -211.7007   2.0000                                                             
     2  1  1.50      -156.4958   6.0000                                                             
     3  0  0.50       -17.2562   2.0000                                                             
     3  1  0.50        -7.0085   4.0000                                                             
     3  2  1.50        -6.8029   0.0000                                                             
   Description                                                                                      
     l       E           TYP  RCUT    TYP  RCUT                                                     
     0    -17.2561641     23  1.900                                                                 
     0    -15.8743224     23  1.900                                                                 
     1     -7.0085400     23  1.900                                                                 
     1     -2.7779785     23  1.900                                                                 
     2     -6.8029130     23  1.900                                                                 
  local pseudopotential read in
  partial core-charges read in
  partial kinetic energy density read in
  atomic valenz-charges read in
  non local Contribution for L=           0  read in
    real space projection operators read in
  non local Contribution for L=           0  read in
    real space projection operators read in
  non local Contribution for L=           1  read in
    real space projection operators read in
  non local Contribution for L=           1  read in
    real space projection operators read in
    PAW grid and wavefunctions read in
 
   number of l-projection  operators is LMAX  =           4
   number of lm-projection operators is LMMAX =           8
 
 POTCAR:    PAW_PBE O 08Apr2002                   
   VRHFIN =O: s2p4                                                                                  
   LEXCH  = PE                                                                                      
   EATOM  =   432.3788 eV,   31.7789 Ry                                                             
                                                                                                    
   TITEL  = PAW_PBE O 08Apr2002                                                                     
   LULTRA =        F    use ultrasoft PP ?                                                          
   IUNSCR =        1    unscreen: 0-lin 1-nonlin 2-no                                               
   RPACOR =    1.200    partial core radius                                                         
   POMASS =   16.000; ZVAL   =    6.000    mass and valenz                                          
   RCORE  =    1.520    outmost cutoff radius                                                       
   RWIGS  =    1.550; RWIGS  =    0.820    wigner-seitz radius (au A)                               
   ENMAX  =  400.000; ENMIN  =  300.000 eV                                                          
   ICORE  =        2    local potential                                                             
   LCOR   =        T    correct aug charges                                                         
   LPAW   =        T    paw PP                                                                      
   EAUG   =  605.392                                                                                
   DEXC   =    0.000                                                                                
   RMAX   =    1.553    core radius for proj-oper                                                   
   RAUG   =    1.300    factor for augmentation sphere                                              
   RDEP   =    1.550    radius for radial grids                                                     
   RDEPT  =    1.329    core radius for aug-charge                                                  
                                                                                                    
   Atomic configuration                                                                             
    4 entries                                                                                       
     n  l   j            E        occ.                                                              
     1  0  0.50      -514.6923   2.0000                                                             
     2  0  0.50       -23.9615   2.0000                                                             
     2  1  0.50        -9.0305   4.0000                                                             
     3  2  1.50        -9.5241   0.0000                                                             
   Description                                                                                      
     l       E           TYP  RCUT    TYP  RCUT                                                     
     0    -23.9615318     23  1.200                                                                 
     0     -9.5240782     23  1.200                                                                 
     1     -9.0304911     23  1.520                                                                 
     1      8.1634956     23  1.520                                                                 
     2     -9.5240782      7  1.500                                                                 
  local pseudopotential read in
  partial core-charges read in
  partial kinetic energy density read in
  kinetic energy density of atom read in
  atomic valenz-charges read in
  non local Contribution for L=           0  read in
    real space projection operators read in
  non local Contribution for L=           0  read in
    real space projection operators read in
  non local Contribution for L=           1  read in
    real space projection operators read in
  non local Contribution for L=           1  read in
    real space projection operators read in
    PAW grid and wavefunctions read in
 
   number of l-projection  operators is LMAX  =           4
   number of lm-projection operators is LMMAX =           8
 
 Optimization of the real space projectors (new method)

 maximal supplied QI-value         = 16.25
 optimisation between [QCUT,QGAM] = [ 11.54, 23.24] = [ 37.28,151.24] Ry 
 Optimized for a Real-space Cutoff    1.58 Angstroem

   l    n(q)    QCUT    max X(q) W(low)/X(q) W(high)/X(q)  e(spline) 
   0     11    11.539    11.817    0.25E-04    0.22E-05    0.26E-07
   0     11    11.539     8.461    0.39E-04    0.49E-05    0.55E-07
   1     11    11.539     3.957    0.21E-05    0.44E-05    0.32E-07
   1     11    11.539     4.314    0.56E-04    0.44E-04    0.19E-06
   2     10    11.539    14.565    0.25E-03    0.21E-04    0.75E-06
   2     10    11.539    14.552    0.23E-03    0.22E-04    0.72E-06
 Optimization of the real space projectors (new method)

 maximal supplied QI-value         = 16.25
 optimisation between [QCUT,QGAM] = [ 11.54, 23.24] = [ 37.28,151.24] Ry 
 Optimized for a Real-space Cutoff    1.45 Angstroem

   l    n(q)    QCUT    max X(q) W(low)/X(q) W(high)/X(q)  e(spline) 
   1     10    11.539     3.658    0.56E-04    0.12E-03    0.13E-06
   1     10    11.539     5.612    0.11E-03    0.23E-03    0.24E-06
   2      9    11.539    55.373    0.45E-04    0.92E-04    0.22E-06
   2      9    11.539    50.863    0.47E-04    0.95E-04    0.22E-06
   0     10    11.539    79.536    0.46E-04    0.27E-04    0.11E-06
   0     10    11.539    38.668    0.38E-04    0.25E-04    0.10E-06
 Optimization of the real space projectors (new method)

 maximal supplied QI-value         = 19.84
 optimisation between [QCUT,QGAM] = [ 11.51, 23.22] = [ 37.09,150.92] Ry 
 Optimized for a Real-space Cutoff    1.21 Angstroem

   l    n(q)    QCUT    max X(q) W(low)/X(q) W(high)/X(q)  e(spline) 
   0      8    11.508   187.594    0.96E-04    0.18E-03    0.54E-07
   0      8    11.508   164.243    0.96E-04    0.18E-03    0.54E-07
   1      8    11.508    67.533    0.18E-03    0.65E-04    0.94E-07
   1      8    11.508    50.729    0.18E-03    0.63E-04    0.92E-07
 Optimization of the real space projectors (new method)

 maximal supplied QI-value         = 24.76
 optimisation between [QCUT,QGAM] = [ 11.64, 23.27] = [ 37.91,151.63] Ry 
 Optimized for a Real-space Cutoff    1.14 Angstroem

   l    n(q)    QCUT    max X(q) W(low)/X(q) W(high)/X(q)  e(spline) 
   0      8    11.635    20.381    0.10E-03    0.33E-03    0.24E-06
   0      8    11.635    15.268    0.11E-03    0.35E-03    0.26E-06
   1      7    11.635     5.964    0.24E-03    0.31E-03    0.30E-06
   1      7    11.635     5.382    0.22E-03    0.25E-03    0.26E-06
  PAW_PBE Ca_sv 06Sep2000               :
 energy of atom  1       EATOM=-1006.0909
 kinetic energy error for atom=    0.0022 (will be added to EATOM!!)
  PAW_PBE Mn_pv 02Aug2007               :
 energy of atom  2       EATOM=-2025.2664
 kinetic energy error for atom=    0.0058 (will be added to EATOM!!)
  PAW_PBE S 06Sep2000                   :
 energy of atom  3       EATOM= -276.8230
 kinetic energy error for atom=    0.0016 (will be added to EATOM!!)
  PAW_PBE O 08Apr2002                   :
 energy of atom  4       EATOM= -432.3788
 kinetic energy error for atom=    0.0208 (will be added to EATOM!!)
 
 
 POSCAR: Ca2 Mn4 S6 O24
  positions in direct lattice
  velocities in cartesian coordinates

 METAGGA = SCAN     LMAXTAU =  6    LMIXTAU =  F

 exchange correlation table for  LEXCH =        8
   RHO(1)=    0.500       N(1)  =     2000
   RHO(2)=  100.500       N(2)  =     4000
 


--------------------------------------------------------------------------------------------------------


 ion  position               nearest neighbor table
   1  0.497  0.497  0.497-  20 2.38  24 2.38  22 2.38  13 2.38  17 2.38  15 2.38
   2  0.997  0.997  0.997-  23 2.38  19 2.38  21 2.38  16 2.38  18 2.38  14 2.38
   3  0.648  0.648  0.648-  30 2.09  26 2.09  28 2.09  13 2.22  17 2.22  15 2.22
   4  0.148  0.148  0.148-  25 2.09  27 2.09  29 2.09  16 2.22  18 2.22  14 2.22
   5  0.846  0.846  0.846-  36 2.09  32 2.09  34 2.09  19 2.22  23 2.22  21 2.22
   6  0.346  0.346  0.346-  35 2.09  31 2.09  33 2.09  20 2.22  22 2.22  24 2.22
   7  0.945  0.247  0.550-  25 1.46  31 1.46  23 1.48  15 1.48
   8  0.445  0.050  0.747-  26 1.46  32 1.46  22 1.48  18 1.48
   9  0.550  0.945  0.247-  27 1.46  33 1.46  19 1.48  17 1.48
  10  0.747  0.445  0.050-  28 1.46  34 1.46  24 1.48  14 1.48
  11  0.247  0.550  0.945-  29 1.46  35 1.46  21 1.48  13 1.48
  12  0.050  0.747  0.445-  30 1.46  36 1.46  20 1.48  16 1.48
  13  0.403  0.568  0.764-  11 1.48   3 2.22   1 2.38
  14  0.903  0.264  0.068-  10 1.48   4 2.22   2 2.38
  15  0.764  0.403  0.568-   7 1.48   3 2.22   1 2.38
  16  0.068  0.903  0.264-  12 1.48   4 2.22   2 2.38
  17  0.568  0.764  0.403-   9 1.48   3 2.22   1 2.38
  18  0.264  0.068  0.903-   8 1.48   4 2.22   2 2.38
  19  0.731  0.927  0.092-   9 1.48   5 2.22   2 2.38
  20  0.231  0.592  0.427-  12 1.48   6 2.22   1 2.38
  21  0.092  0.731  0.927-  11 1.48   5 2.22   2 2.38
  22  0.427  0.231  0.592-   8 1.48   6 2.22   1 2.38
  23  0.927  0.092  0.731-   7 1.48   5 2.22   2 2.38
  24  0.592  0.427  0.231-  10 1.48   6 2.22   1 2.38
  25  0.984  0.191  0.404-   7 1.46   4 2.09
  26  0.484  0.904  0.691-   8 1.46   3 2.09
  27  0.404  0.984  0.191-   9 1.46   4 2.09
  28  0.691  0.484  0.904-  10 1.46   3 2.09
  29  0.191  0.404  0.984-  11 1.46   4 2.09
  30  0.904  0.691  0.484-  12 1.46   3 2.09
  31  0.091  0.305  0.512-   7 1.46   6 2.09
  32  0.591  0.012  0.805-   8 1.46   5 2.09
  33  0.512  0.091  0.305-   9 1.46   6 2.09
  34  0.805  0.591  0.012-  10 1.46   5 2.09
  35  0.305  0.512  0.091-  11 1.46   6 2.09
  36  0.012  0.805  0.591-  12 1.46   5 2.09
 

IMPORTANT INFORMATION: All symmetrisations will be switched off!
NOSYMM: (Re-)initialisation of all symmetry stuff for point group C_1.


----------------------------------------------------------------------------------------

                                     Primitive cell                                     

  volume of cell :     489.7956

  direct lattice vectors                    reciprocal lattice vectors
     7.709428486  0.097809726  4.502202565     0.131186509 -0.046682170 -0.001511935
     2.630822697  7.247336831  4.502201283    -0.000883545  0.139241772 -0.001512055
     0.137686662  0.097810725  8.926718836    -0.065718474 -0.046682539  0.113548397

  length of vectors
     8.928307917  8.928322105  8.928316399     0.139253047  0.139252785  0.139253063

  position of ions in fractional coordinates (direct lattice)
     0.497448785  0.497448067  0.497448613
     0.997447781  0.997449026  0.997448109
     0.648235959  0.648238489  0.648234841
     0.148235735  0.148236349  0.148236703
     0.846339992  0.846340719  0.846340226
     0.346341332  0.346339657  0.346340204
     0.944994506  0.247491638  0.550310279
     0.444994210  0.050308879  0.747491399
     0.550308149  0.944994288  0.247490653
     0.747490792  0.444994395  0.050311535
     0.247491336  0.550309343  0.944992783
     0.050309708  0.747490269  0.444992884
     0.402545473  0.567885922  0.763856332
     0.902539311  0.263860713  0.067887095
     0.763859363  0.402542890  0.567885692
     0.067888028  0.902545391  0.263853973
     0.567887053  0.763857513  0.402542398
     0.263857231  0.067887458  0.902543270
     0.731350256  0.927029801  0.092435745
     0.231356641  0.592437837  0.427022824
     0.092438982  0.731352875  0.927025063
     0.427028531  0.231350939  0.592437449
     0.927025365  0.092438262  0.731354255
     0.592440731  0.427024493  0.231354087
     0.983789305  0.190540015  0.404166104
     0.483784111  0.904165297  0.690542357
     0.404164660  0.983784992  0.190541647
     0.690538675  0.483789311  0.904169314
     0.190542358  0.404166524  0.983781080
     0.904165432  0.690541371  0.483780604
     0.090630772  0.304662270  0.512493275
     0.590628526  0.012489443  0.804665167
     0.512488829  0.090626858  0.304666867
     0.804660500  0.590629072  0.012495068
     0.304663980  0.512487357  0.090629841
     0.012487599  0.804662277  0.590632264

  ion indices of the primitive-cell ions
   primitive index   ion index
                 1           1
                 2           2
                 3           3
                 4           4
                 5           5
                 6           6
                 7           7
                 8           8
                 9           9
                10          10
                11          11
                12          12
                13          13
                14          14
                15          15
                16          16
                17          17
                18          18
                19          19
                20          20
                21          21
                22          22
                23          23
                24          24
                25          25
                26          26
                27          27
                28          28
                29          29
                30          30
                31          31
                32          32
                33          33
                34          34
                35          35
                36          36

----------------------------------------------------------------------------------------

 
 
 KPOINTS: Fully automatic kpoint scheme           

Automatic generation of k-mesh.
 generate k-points for:    4    4    4
Space group operators:
 irot       det(A)        alpha          n_x          n_y          n_z        tau_x        tau_y        tau_z
    1     1.000000     0.000000     1.000000     0.000000     0.000000     0.000000     0.000000     0.000000
 
 Subroutine IBZKPT returns following result:
 ===========================================
 
 Found     36 irreducible k-points:
 
 Following reciprocal coordinates:
            Coordinates               Weight
  0.000000  0.000000  0.000000      1.000000
  0.250000  0.000000 -0.000000      2.000000
 -0.000000  0.250000 -0.000000      2.000000
  0.000000 -0.000000  0.250000      2.000000
  0.500000  0.000000 -0.000000      1.000000
 -0.000000  0.500000 -0.000000      1.000000
  0.000000 -0.000000  0.500000      1.000000
  0.250000  0.250000 -0.000000      2.000000
 -0.250000  0.000000 -0.250000      2.000000
  0.000000  0.250000  0.250000      2.000000
  0.500000  0.250000  0.000000      2.000000
  0.500000  0.000000 -0.250000      2.000000
  0.000000  0.500000  0.250000      2.000000
 -0.250000  0.500000 -0.000000      2.000000
  0.250000 -0.000000  0.500000      2.000000
  0.000000 -0.250000  0.500000      2.000000
 -0.250000  0.250000  0.000000      2.000000
  0.250000  0.000000 -0.250000      2.000000
  0.000000 -0.250000  0.250000      2.000000
  0.500000  0.500000 -0.000000      1.000000
  0.500000 -0.000000  0.500000      1.000000
 -0.000000  0.500000  0.500000      1.000000
  0.250000  0.250000  0.250000      2.000000
  0.500000  0.250000  0.250000      2.000000
  0.250000  0.500000  0.250000      2.000000
  0.250000  0.250000  0.500000      2.000000
 -0.250000  0.250000  0.250000      2.000000
  0.250000 -0.250000  0.250000      2.000000
  0.250000  0.250000 -0.250000      2.000000
  0.500000  0.500000  0.250000      2.000000
  0.500000 -0.250000  0.500000      2.000000
  0.250000  0.500000  0.500000      2.000000
 -0.250000  0.500000  0.250000      2.000000
  0.250000 -0.250000  0.500000      2.000000
  0.500000  0.250000 -0.250000      2.000000
  0.500000  0.500000  0.500000      1.000000
 
 Following cartesian coordinates:
            Coordinates               Weight
  0.000000  0.000000  0.000000      1.000000
  0.032797 -0.011671 -0.000378      2.000000
 -0.000221  0.034810 -0.000378      2.000000
 -0.016430 -0.011671  0.028387      2.000000
  0.065593 -0.023341 -0.000756      1.000000
 -0.000442  0.069621 -0.000756      1.000000
 -0.032859 -0.023341  0.056774      1.000000
  0.032576  0.023140 -0.000756      2.000000
 -0.016367  0.023341 -0.028009      2.000000
 -0.016651  0.023140  0.028009      2.000000
  0.065372  0.011469 -0.001134      2.000000
  0.082023 -0.011670 -0.029143      2.000000
 -0.016871  0.057950  0.027631      2.000000
 -0.033238  0.081291 -0.000378      2.000000
 -0.000063 -0.035012  0.056396      2.000000
 -0.032638 -0.058152  0.057152      2.000000
 -0.033018  0.046481 -0.000000      2.000000
  0.049226  0.000000 -0.028765      2.000000
 -0.016209 -0.046481  0.028765      2.000000
  0.065151  0.046280 -0.001512      1.000000
  0.032734 -0.046682  0.056018      1.000000
 -0.033301  0.046280  0.056018      1.000000
  0.016146  0.011469  0.027631      2.000000
  0.048943 -0.000201  0.027253      2.000000
  0.015925  0.046280  0.027253      2.000000
 -0.000283 -0.000201  0.056018      2.000000
 -0.049447  0.034810  0.028387      2.000000
  0.016588 -0.058152  0.028387      2.000000
  0.049005  0.034811 -0.029143      2.000000
  0.048722  0.034609  0.026875      2.000000
  0.032955 -0.081493  0.056396      2.000000
 -0.000504  0.034609  0.055640      2.000000
 -0.049668  0.069621  0.028009      2.000000
  0.000158 -0.069822  0.056774      2.000000
  0.081802  0.023140 -0.029521      2.000000
  0.032292  0.022939  0.055262      1.000000
 


--------------------------------------------------------------------------------------------------------




 Dimension of arrays:
   k-points           NKPTS =     36   k-points in BZ     NKDIM =     36   number of bands    NBANDS=    172
   number of dos      NEDOS =    301   number of ions     NIONS =     36
   non local maximal  LDIM  =      6   non local SUM 2l+1 LMDIM =     18
   total plane-waves  NPLWV = 343000
   max r-space proj   IRMAX =  11616   max aug-charges    IRDMAX=  33608
   dimension x,y,z NGX =    70 NGY =   70 NGZ =   70
   dimension x,y,z NGXF=   140 NGYF=  140 NGZF=  140
   support grid    NGXF=   140 NGYF=  140 NGZF=  140
   ions per type =               2   4   6  24
   NGX,Y,Z   is equivalent  to a cutoff of  13.03, 13.03, 13.03 a.u.
   NGXF,Y,Z  is equivalent  to a cutoff of  26.07, 26.07, 26.07 a.u.

 SYSTEM =  unknown system                          
 POSCAR =  Ca2 Mn4 S6 O24                          

 Startparameter for this run:
   NWRITE =      2    write-flag & timer
   PREC   = accura    normal or accurate (medium, high low for compatibility)
   ISTART =      0    job   : 0-new  1-cont  2-samecut
   ICHARG =      1    charge: 1-file 2-atom 10-const
   ISPIN  =      2    spin polarized calculation?
   LNONCOLLINEAR =      F non collinear calculations
   LSORBIT =      F    spin-orbit coupling
   INIWAV =      1    electr: 0-lowe 1-rand  2-diag
   LASPH  =      T    aspherical Exc in radial PAW
   METAGGA=      F    non-selfconsistent MetaGGA calc.

 Electronic Relaxation 1
   ENCUT  =  520.0 eV  38.22 Ry    6.18 a.u.  16.60 16.60 16.60*2*pi/ulx,y,z
   ENINI  =  520.0     initial cutoff
   ENAUG  =  605.4 eV  augmentation charge cutoff
   NELM   =    150;   NELMIN=  6; NELMDL= -5     # of ELM steps 
   EDIFF  = 0.1E-04   stopping-criterion for ELM
   LREAL  =      T    real-space projection
   NLSPLINE    = F    spline interpolate recip. space projectors
   LCOMPAT=      F    compatible to vasp.4.4
   GGA_COMPAT  = T    GGA compatible to vasp.4.4-vasp.4.6
   LMAXPAW     = -100 max onsite density
   LMAXMIX     =    2 max onsite mixed and CHGCAR
   VOSKOWN=      0    Vosko Wilk Nusair interpolation
   ROPT   =   -0.00025  -0.00025  -0.00025  -0.00025
 Ionic relaxation
   EDIFFG = -.3E-01   stopping-criterion for IOM
   NSW    =    199    number of steps for IOM
   NBLOCK =      1;   KBLOCK =    199    inner block; outer block 
   IBRION =      2    ionic relax: 0-MD 1-quasi-New 2-CG
   NFREE  =      1    steps in history (QN), initial steepest desc. (CG)
   ISIF   =      3    stress and relaxation
   IWAVPR =     11    prediction:  0-non 1-charg 2-wave 3-comb
   ISYM   =      0    0-nonsym 1-usesym 2-fastsym
   LCORR  =      T    Harris-Foulkes like correction to forces

   POTIM  = 0.5000    time-step for ionic-motion
   TEIN   =    0.0    initial temperature
   TEBEG  =    0.0;   TEEND  =   0.0 temperature during run
   SMASS  =  -3.00    Nose mass-parameter (am)
   estimated Nose-frequenzy (Omega)   =  0.10E-29 period in steps = 0.13E+47 mass=  -0.182E-26a.u.
   SCALEE = 1.0000    scale energy and forces
   NPACO  =    256;   APACO  = 16.0  distance and # of slots for P.C.
   PSTRESS=    0.0 pullay stress

  Mass of Ions in am
   POMASS =  40.08 54.94 32.07 16.00
  Ionic Valenz
   ZVAL   =  10.00 13.00  6.00  6.00
  Atomic Wigner-Seitz radii
   RWIGS  =  -1.00 -1.00 -1.00 -1.00
  virtual crystal weights 
   VCA    =   1.00  1.00  1.00  1.00
   NELECT =     252.0000    total number of electrons
   NUPDOWN=      -1.0000    fix difference up-down

 DOS related values:
   EMIN   =  10.00;   EMAX   =-10.00  energy-range for DOS
   EFERMI =   0.00
   ISMEAR =     0;   SIGMA  =   0.05  broadening in eV -4-tet -1-fermi 0-gaus

 Electronic relaxation 2 (details)
   IALGO  =     58    algorithm
   LDIAG  =      T    sub-space diagonalisation (order eigenvalues)
   LSUBROT=      F    optimize rotation matrix (better conditioning)
   TURBO    =      0    0=normal 1=particle mesh
   IRESTART =      0    0=no restart 2=restart with 2 vectors
   NREBOOT  =      0    no. of reboots
   NMIN     =      0    reboot dimension
   EREF     =   0.00    reference energy to select bands
   IMIX   =      4    mixing-type and parameters
     AMIX     =   0.40;   BMIX     =  1.00
     AMIX_MAG =   1.60;   BMIX_MAG =  1.00
     AMIN     =   0.10
     WC   =   100.;   INIMIX=   1;  MIXPRE=   1;  MAXMIX= -45

 Intra band minimization:
   WEIMIN = 0.0010     energy-eigenvalue tresh-hold
   EBREAK =  0.15E-07  absolut break condition
   DEPER  =   0.30     relativ break condition  

   TIME   =   0.40     timestep for ELM

  volume/ion in A,a.u.               =      13.61        91.81
  Fermi-wavevector in a.u.,A,eV,Ry     =   1.311807  2.478956 23.413429  1.720838
  Thomas-Fermi vector in A             =   2.442243
 
 Write flags
   LWAVE        =      F    write WAVECAR
   LDOWNSAMPLE  =      F    k-point downsampling of WAVECAR
   LCHARG       =      T    write CHGCAR
   LVTOT        =      F    write LOCPOT, total local potential
   LVHAR        =      F    write LOCPOT, Hartree potential only
   LELF         =      F    write electronic localiz. function (ELF)
   LORBIT       =     11    0 simple, 1 ext, 2 COOP (PROOUT), +10 PAW based schemes


 Dipole corrections
   LMONO  =      F    monopole corrections only (constant potential shift)
   LDIPOL =      F    correct potential (dipole corrections)
   IDIPOL =      0    1-x, 2-y, 3-z, 4-all directions 
   EPSILON=  1.0000000 bulk dielectric constant

 Exchange correlation treatment:
   GGA     =    --    GGA type
   LEXCH   =     8    internal setting for exchange type
   VOSKOWN=      0    Vosko Wilk Nusair interpolation
   LHFCALC =     F    Hartree Fock is set to
   LHFONE  =     F    Hartree Fock one center treatment
   AEXX    =    0.0000 exact exchange contribution

 Linear response parameters
   LEPSILON=     F    determine dielectric tensor
   LRPA    =     F    only Hartree local field effects (RPA)
   LNABLA  =     F    use nabla operator in PAW spheres
   LVEL    =     F    velocity operator in full k-point grid
   LINTERFAST=   F  fast interpolation
   KINTER  =     0    interpolate to denser k-point grid
   CSHIFT  =0.1000    complex shift for real part using Kramers Kronig
   OMEGAMAX=  -1.0    maximum frequency
   DEG_THRESHOLD= 0.2000000E-02 threshold for treating states as degnerate
   RTIME   =   -0.100 relaxation time in fs
  (WPLASMAI=    0.000 imaginary part of plasma frequency in eV, 0.658/RTIME)
   DFIELD  = 0.0000000 0.0000000 0.0000000 field for delta impulse in time
 
 Orbital magnetization related:
   ORBITALMAG=     F  switch on orbital magnetization
   LCHIMAG   =     F  perturbation theory with respect to B field
   DQ        =  0.001000  dq finite difference perturbation B field
   LLRAUG    =     F  two centre corrections for induced B field



--------------------------------------------------------------------------------------------------------


 conjugate gradient relaxation of ions
 charge density and potential will be updated during run
 spin polarized calculation
 Conjugate gradient for all bands (Freysoldt, et al. PRB 79, 241103 (2009))
 preconditioned conjugated gradient                                        
 perform sub-space diagonalisation
    before iterative eigenvector-optimisation
 modified Broyden-mixing scheme, WC =      100.0
 initial mixing is a Kerker type mixing with AMIX =  0.4000 and BMIX =      1.0000
 Hartree-type preconditioning will be used
 using additional bands           46
 real space projection scheme for non local part
 use partial core corrections
 no Harris-corrections to forces 
 use gradient corrections 
 use of overlap-Matrix (Vanderbilt PP)
 Gauss-broadening in eV      SIGMA  =   0.05


--------------------------------------------------------------------------------------------------------


  energy-cutoff  :      520.00
  volume of cell :      489.80
      direct lattice vectors                 reciprocal lattice vectors
     7.709428486  0.097809726  4.502202565     0.131186509 -0.046682170 -0.001511935
     2.630822697  7.247336831  4.502201283    -0.000883545  0.139241772 -0.001512055
     0.137686662  0.097810725  8.926718836    -0.065718474 -0.046682539  0.113548397

  length of vectors
     8.928307917  8.928322105  8.928316399     0.139253047  0.139252785  0.139253063


 
 k-points in units of 2pi/SCALE and weight: Fully automatic kpoint scheme           
   0.00000000  0.00000000  0.00000000       0.016
   0.03279663 -0.01167054 -0.00037798       0.031
  -0.00022089  0.03481044 -0.00037801       0.031
  -0.01642962 -0.01167063  0.02838710       0.031
   0.06559325 -0.02334109 -0.00075597       0.016
  -0.00044177  0.06962089 -0.00075603       0.016
  -0.03285924 -0.02334127  0.05677420       0.016
   0.03257574  0.02313990 -0.00075600       0.031
  -0.01636701  0.02334118 -0.02800912       0.031
  -0.01665050  0.02313981  0.02800909       0.031
   0.06537237  0.01146936 -0.00113398       0.031
   0.08202287 -0.01167045 -0.02914307       0.031
  -0.01687139  0.05795025  0.02763107       0.031
  -0.03323840  0.08129143 -0.00037804       0.031
  -0.00006261 -0.03501181  0.05639621       0.031
  -0.03263835 -0.05815171  0.05715221       0.031
  -0.03301751  0.04648099 -0.00000003       0.031
   0.04922625  0.00000009 -0.02876508       0.031
  -0.01620873 -0.04648108  0.02876511       0.031
   0.06515148  0.04627980 -0.00151199       0.016
   0.03273402 -0.04668235  0.05601823       0.016
  -0.03330101  0.04627962  0.05601817       0.016
   0.01614612  0.01146927  0.02763110       0.031
   0.04894275 -0.00020128  0.02725312       0.031
   0.01592524  0.04627971  0.02725309       0.031
  -0.00028350 -0.00020137  0.05601820       0.031
  -0.04944713  0.03481035  0.02838707       0.031
   0.01658789 -0.05815162  0.02838713       0.031
   0.04900536  0.03481054 -0.02914310       0.031
   0.04872186  0.03460917  0.02687510       0.031
   0.03295490 -0.08149280  0.05639624       0.031
  -0.00050438  0.03460907  0.05564019       0.031
  -0.04966802  0.06962079  0.02800906       0.031
   0.00015828 -0.06982225  0.05677423       0.031
   0.08180199  0.02313999 -0.02952108       0.031
   0.03229225  0.02293853  0.05526220       0.016
 
 k-points in reciprocal lattice and weights: Fully automatic kpoint scheme           
   0.00000000  0.00000000  0.00000000       0.016
   0.25000000  0.00000000 -0.00000000       0.031
  -0.00000000  0.25000000 -0.00000000       0.031
   0.00000000 -0.00000000  0.25000000       0.031
   0.50000000  0.00000000 -0.00000000       0.016
  -0.00000000  0.50000000 -0.00000000       0.016
   0.00000000 -0.00000000  0.50000000       0.016
   0.25000000  0.25000000 -0.00000000       0.031
  -0.25000000  0.00000000 -0.25000000       0.031
   0.00000000  0.25000000  0.25000000       0.031
   0.50000000  0.25000000  0.00000000       0.031
   0.50000000  0.00000000 -0.25000000       0.031
   0.00000000  0.50000000  0.25000000       0.031
  -0.25000000  0.50000000 -0.00000000       0.031
   0.25000000 -0.00000000  0.50000000       0.031
   0.00000000 -0.25000000  0.50000000       0.031
  -0.25000000  0.25000000  0.00000000       0.031
   0.25000000  0.00000000 -0.25000000       0.031
   0.00000000 -0.25000000  0.25000000       0.031
   0.50000000  0.50000000 -0.00000000       0.016
   0.50000000 -0.00000000  0.50000000       0.016
  -0.00000000  0.50000000  0.50000000       0.016
   0.25000000  0.25000000  0.25000000       0.031
   0.50000000  0.25000000  0.25000000       0.031
   0.25000000  0.50000000  0.25000000       0.031
   0.25000000  0.25000000  0.50000000       0.031
  -0.25000000  0.25000000  0.25000000       0.031
   0.25000000 -0.25000000  0.25000000       0.031
   0.25000000  0.25000000 -0.25000000       0.031
   0.50000000  0.50000000  0.25000000       0.031
   0.50000000 -0.25000000  0.50000000       0.031
   0.25000000  0.50000000  0.50000000       0.031
  -0.25000000  0.50000000  0.25000000       0.031
   0.25000000 -0.25000000  0.50000000       0.031
   0.50000000  0.25000000 -0.25000000       0.031
   0.50000000  0.50000000  0.50000000       0.016
 
 position of ions in fractional coordinates (direct lattice) 
   0.49744879  0.49744807  0.49744861
   0.99744778  0.99744903  0.99744811
   0.64823596  0.64823849  0.64823484
   0.14823574  0.14823635  0.14823670
   0.84633999  0.84634072  0.84634023
   0.34634133  0.34633966  0.34634020
   0.94499451  0.24749164  0.55031028
   0.44499421  0.05030888  0.74749140
   0.55030815  0.94499429  0.24749065
   0.74749079  0.44499440  0.05031154
   0.24749134  0.55030934  0.94499278
   0.05030971  0.74749027  0.44499288
   0.40254547  0.56788592  0.76385633
   0.90253931  0.26386071  0.06788709
   0.76385936  0.40254289  0.56788569
   0.06788803  0.90254539  0.26385397
   0.56788705  0.76385751  0.40254240
   0.26385723  0.06788746  0.90254327
   0.73135026  0.92702980  0.09243574
   0.23135664  0.59243784  0.42702282
   0.09243898  0.73135287  0.92702506
   0.42702853  0.23135094  0.59243745
   0.92702536  0.09243826  0.73135426
   0.59244073  0.42702449  0.23135409
   0.98378931  0.19054001  0.40416610
   0.48378411  0.90416530  0.69054236
   0.40416466  0.98378499  0.19054165
   0.69053867  0.48378931  0.90416931
   0.19054236  0.40416652  0.98378108
   0.90416543  0.69054137  0.48378060
   0.09063077  0.30466227  0.51249327
   0.59062853  0.01248944  0.80466517
   0.51248883  0.09062686  0.30466687
   0.80466050  0.59062907  0.01249507
   0.30466398  0.51248736  0.09062984
   0.01248760  0.80466228  0.59063226
 
 position of ions in cartesian coordinates  (Angst):
   5.21223554  3.70248484  8.91981042
  10.45119917  7.42397028 17.88536706
   6.79218259  4.82481078 11.62359992
   1.55320657  1.10331679  2.65804455
   8.86789978  6.29927770 15.17583159
   3.62893839  2.57779149  6.21027131
   8.01224457  1.93991116 10.28127900
   3.66592438  0.48124283  8.90260032
   6.76274990  6.92672464  8.94143273
   6.94035539  3.30305715  5.81792623
   3.48589597  4.10491466 12.02754444
   2.41564305  5.46575961  7.56418250
   4.70257554  4.22974676 11.18780869
   7.66158017  2.00720467  5.85737785
   7.02612839  3.04762210 10.32073460
   2.93414397  6.57349831  6.72443690
   6.44308302  5.63085053  9.58916563
   2.33705649  0.60608949  9.55033172
   8.08987071  6.79907160  8.29150966
   3.40102174  4.35799290  7.52080154
   2.76435045  5.40007505 11.98416897
   3.98235996  1.77639246  8.25267998
   7.49072216  0.83213761 11.11842544
   5.72265955  3.17536571  6.65507128
   8.14137857  1.51666361  8.89494541
   6.20347606  6.66765170 12.41310569
   5.73027747  7.18798946  7.94974093
   6.72091448  3.66216294 13.35832709
   2.66771668  3.04399218 11.45943644
   8.85390079  5.14034102 11.49826561
   1.57078736  2.26698200  6.35457233
   4.69705756  0.22698930  9.89837895
   4.23136774  0.73672945  5.43502434
   7.75903335  4.36041360  6.39341549
   3.70952705  3.75283217  4.48800729
   2.29451822  5.89065014  8.95138139
 


--------------------------------------------------------------------------------------------------------


 k-point   1 :   0.0000 0.0000 0.0000  plane waves:   13245
 k-point   2 :   0.2500 0.0000-0.0000  plane waves:   13205
 k-point   3 :  -0.0000 0.2500-0.0000  plane waves:   13205
 k-point   4 :   0.0000-0.0000 0.2500  plane waves:   13205
 k-point   5 :   0.5000 0.0000-0.0000  plane waves:   13210
 k-point   6 :  -0.0000 0.5000-0.0000  plane waves:   13210
 k-point   7 :   0.0000-0.0000 0.5000  plane waves:   13210
 k-point   8 :   0.2500 0.2500-0.0000  plane waves:   13207
 k-point   9 :  -0.2500 0.0000-0.2500  plane waves:   13207
 k-point  10 :   0.0000 0.2500 0.2500  plane waves:   13207
 k-point  11 :   0.5000 0.2500 0.0000  plane waves:   13180
 k-point  12 :   0.5000 0.0000-0.2500  plane waves:   13180
 k-point  13 :   0.0000 0.5000 0.2500  plane waves:   13180
 k-point  14 :  -0.2500 0.5000-0.0000  plane waves:   13180
 k-point  15 :   0.2500-0.0000 0.5000  plane waves:   13180
 k-point  16 :   0.0000-0.2500 0.5000  plane waves:   13180
 k-point  17 :  -0.2500 0.2500 0.0000  plane waves:   13194
 k-point  18 :   0.2500 0.0000-0.2500  plane waves:   13194
 k-point  19 :   0.0000-0.2500 0.2500  plane waves:   13194
 k-point  20 :   0.5000 0.5000-0.0000  plane waves:   13174
 k-point  21 :   0.5000-0.0000 0.5000  plane waves:   13174
 k-point  22 :  -0.0000 0.5000 0.5000  plane waves:   13174
 k-point  23 :   0.2500 0.2500 0.2500  plane waves:   13191
 k-point  24 :   0.5000 0.2500 0.2500  plane waves:   13158
 k-point  25 :   0.2500 0.5000 0.2500  plane waves:   13158
 k-point  26 :   0.2500 0.2500 0.5000  plane waves:   13158
 k-point  27 :  -0.2500 0.2500 0.2500  plane waves:   13180
 k-point  28 :   0.2500-0.2500 0.2500  plane waves:   13180
 k-point  29 :   0.2500 0.2500-0.2500  plane waves:   13180
 k-point  30 :   0.5000 0.5000 0.2500  plane waves:   13186
 k-point  31 :   0.5000-0.2500 0.5000  plane waves:   13186
 k-point  32 :   0.2500 0.5000 0.5000  plane waves:   13186
 k-point  33 :  -0.2500 0.5000 0.2500  plane waves:   13192
 k-point  34 :   0.2500-0.2500 0.5000  plane waves:   13192
 k-point  35 :   0.5000 0.2500-0.2500  plane waves:   13192
 k-point  36 :   0.5000 0.5000 0.5000  plane waves:   13156

 maximum and minimum number of plane-waves per node :       849      794

 maximum number of plane-waves:     13245
 maximum index in each direction: 
   IXMAX=   16   IYMAX=   16   IZMAX=   16
   IXMIN=  -17   IYMIN=  -17   IZMIN=  -17


 real space projection operators:
  total allocation   :      16253.91 KBytes
  max/ min on nodes  :       1196.17        906.80


 parallel 3D FFT for wavefunctions:
    minimum data exchange during FFTs selected (reduces bandwidth)
 parallel 3D FFT for charge:
    minimum data exchange during FFTs selected (reduces bandwidth)


 total amount of memory used by VASP MPI-rank0   183451. kBytes
=======================================================================

   base      :      30000. kBytes
   nonlr-proj:       8579. kBytes
   fftplans  :       2613. kBytes
   grid      :      10205. kBytes
   one-center:         93. kBytes
   wavefun   :     131961. kBytes
 
     INWAV:  cpu time    0.0001: real time    0.0001
 Broyden mixing: mesh for mixing (old mesh)
   NGX = 33   NGY = 33   NGZ = 33
  (NGX  =140   NGY  =140   NGZ  =140)
  gives a total of  35937 points

 initial charge density was supplied:
 number of electron     251.9999976 magnetization      20.0000004
 keeping initial charge density in first step


--------------------------------------------------------------------------------------------------------


 Maximum index for non-local projection operator         1027
 Maximum index for augmentation-charges         1905 (set IRDMAX)


--------------------------------------------------------------------------------------------------------


 First call to EWALD:  gamma=   0.225
 Maximum number of real-space cells 3x 3x 3
 Maximum number of reciprocal cells 3x 3x 3

    FEWALD:  cpu time    0.0155: real time    0.0159


--------------------------------------- Iteration      1(   1)  ---------------------------------------


    POTLOK:  cpu time    0.1506: real time    0.1570
    SETDIJ:  cpu time    0.9127: real time    0.9190
    TRIAL :  cpu time   38.9006: real time   38.9090
    CORREC:  cpu time    0.0079: real time    0.0082
    --------------------------------------------
      LOOP:  cpu time   40.0118: real time   40.0654

 eigenvalue-minimisations  : 26240
 total energy-change (2. order) : 0.2510770E+04  (-0.1440267E+05)
 number of electron     251.9999976 magnetization      20.0000004
 augmentation part      251.9999976 magnetization      20.0000004

 Free energy of the ion-electron system (eV)
  ---------------------------------------------------
  alpha Z        PSCENC =       685.15975439
  Ewald energy   TEWEN  =    -13061.61917235
  -Hartree energ DENC   =     -8235.05177888
  -exchange      EXHF   =         0.00000000
  -V(xc)+E(xc)   XCENC  =      1343.96875646
  PAW double counting   =     45978.36556428   -46335.64896139
  entropy T*S    EENTRO =        -0.01212491
  eigenvalues    EBANDS =       -15.13198992
  atomic energy  EATOM  =     22150.74001668
  ---------------------------------------------------
  free energy    TOTEN  =      2510.77006438 eV

  energy without entropy =     2510.78218928  energy(sigma->0) =     2510.77612683


--------------------------------------------------------------------------------------------------------




--------------------------------------- Iteration      1(   2)  ---------------------------------------


    TRIAL :  cpu time   39.6046: real time   39.6047
    CORREC:  cpu time    0.0019: real time    0.0021
    --------------------------------------------
      LOOP:  cpu time   39.6094: real time   39.6554

 eigenvalue-minimisations  : 27184
 total energy-change (2. order) :-0.2666397E+04  (-0.2473071E+04)
 number of electron     251.9999976 magnetization      20.0000004
 augmentation part      251.9999976 magnetization      20.0000004

 Free energy of the ion-electron system (eV)
  ---------------------------------------------------
  alpha Z        PSCENC =       685.15975439
  Ewald energy   TEWEN  =    -13061.61917235
  -Hartree energ DENC   =     -8235.05177888
  -exchange      EXHF   =         0.00000000
  -V(xc)+E(xc)   XCENC  =      1343.96875646
  PAW double counting   =     45978.36556428   -46335.64896139
  entropy T*S    EENTRO =        -0.00000000
  eigenvalues    EBANDS =     -2681.54139412
  atomic energy  EATOM  =     22150.74001668
  ---------------------------------------------------
  free energy    TOTEN  =      -155.62721492 eV

  energy without entropy =     -155.62721492  energy(sigma->0) =     -155.62721492


--------------------------------------------------------------------------------------------------------




--------------------------------------- Iteration      1(   3)  ---------------------------------------


    TRIAL :  cpu time   40.4641: real time   40.4638
    CORREC:  cpu time    0.0032: real time    0.0034
    --------------------------------------------
      LOOP:  cpu time   40.4746: real time   40.5145

 eigenvalue-minimisations  : 28920
 total energy-change (2. order) :-0.2859878E+03  (-0.2817177E+03)
 number of electron     251.9999976 magnetization      20.0000004
 augmentation part      251.9999976 magnetization      20.0000004

 Free energy of the ion-electron system (eV)
  ---------------------------------------------------
  alpha Z        PSCENC =       685.15975439
  Ewald energy   TEWEN  =    -13061.61917235
  -Hartree energ DENC   =     -8235.05177888
  -exchange      EXHF   =         0.00000000
  -V(xc)+E(xc)   XCENC  =      1343.96875646
  PAW double counting   =     45978.36556428   -46335.64896139
  entropy T*S    EENTRO =        -0.00000000
  eigenvalues    EBANDS =     -2967.52916323
  atomic energy  EATOM  =     22150.74001668
  ---------------------------------------------------
  free energy    TOTEN  =      -441.61498402 eV

  energy without entropy =     -441.61498402  energy(sigma->0) =     -441.61498402


--------------------------------------------------------------------------------------------------------




--------------------------------------- Iteration      1(   4)  ---------------------------------------


    TRIAL :  cpu time   42.0695: real time   42.1740
    CORREC:  cpu time    0.0021: real time    0.0023
    --------------------------------------------
      LOOP:  cpu time   42.0779: real time   42.2136

 eigenvalue-minimisations  : 32696
 total energy-change (2. order) :-0.9536198E+01  (-0.9443558E+01)
 number of electron     251.9999976 magnetization      20.0000004
 augmentation part      251.9999976 magnetization      20.0000004

 Free energy of the ion-electron system (eV)
  ---------------------------------------------------
  alpha Z        PSCENC =       685.15975439
  Ewald energy   TEWEN  =    -13061.61917235
  -Hartree energ DENC   =     -8235.05177888
  -exchange      EXHF   =         0.00000000
  -V(xc)+E(xc)   XCENC  =      1343.96875646
  PAW double counting   =     45978.36556428   -46335.64896139
  entropy T*S    EENTRO =        -0.00000000
  eigenvalues    EBANDS =     -2977.06536112
  atomic energy  EATOM  =     22150.74001668
  ---------------------------------------------------
  free energy    TOTEN  =      -451.15118191 eV

  energy without entropy =     -451.15118191  energy(sigma->0) =     -451.15118191


--------------------------------------------------------------------------------------------------------




--------------------------------------- Iteration      1(   5)  ---------------------------------------


    TRIAL :  cpu time   51.5303: real time   51.7532
    CORREC:  cpu time    0.0020: real time    0.0022
    CHARGE:  cpu time    5.3325: real time    5.3334
    --------------------------------------------
      LOOP:  cpu time   56.8684: real time   57.1200

 eigenvalue-minimisations  : 40904
 total energy-change (2. order) :-0.5926304E+00  (-0.5914813E+00)
 number of electron     251.9999977 magnetization      20.0000004
 augmentation part       45.1006779 magnetization      12.8333939

 Free energy of the ion-electron system (eV)
  ---------------------------------------------------
  alpha Z        PSCENC =       685.15975439
  Ewald energy   TEWEN  =    -13061.61917235
  -Hartree energ DENC   =     -8235.05177888
  -exchange      EXHF   =         0.00000000
  -V(xc)+E(xc)   XCENC  =      1343.96875646
  PAW double counting   =     45978.36556428   -46335.64896139
  entropy T*S    EENTRO =        -0.00000000
  eigenvalues    EBANDS =     -2977.65799151
  atomic energy  EATOM  =     22150.74001668
  ---------------------------------------------------
  free energy    TOTEN  =      -451.74381231 eV

  energy without entropy =     -451.74381231  energy(sigma->0) =     -451.74381231


--------------------------------------------------------------------------------------------------------




--------------------------------------- Iteration      1(   6)  ---------------------------------------


    POTLOK:  cpu time    0.1504: real time    0.1569
    SETDIJ:  cpu time    0.9193: real time    0.9254
    TRIAL :  cpu time   30.5903: real time   30.5911
    CORREC:  cpu time   14.6476: real time   14.6483
    CHARGE:  cpu time    5.3316: real time    5.3316
    --------------------------------------------
      LOOP:  cpu time   51.6423: real time   51.6877

 eigenvalue-minimisations  :     0
 total energy-change (2. order) : 0.8386105E+02  (-0.2320961E+01)
 number of electron     251.9999976 magnetization      20.0000004
 augmentation part       46.2186313 magnetization      13.0757984

 Free energy of the ion-electron system (eV)
  ---------------------------------------------------
  alpha Z        PSCENC =       685.15975439
  Ewald energy   TEWEN  =    -13061.61917235
  -Hartree energ DENC   =     -8052.55463520
  -exchange      EXHF   =         0.00000000
  -V(xc)+E(xc)   XCENC  =      1364.53416317
  PAW double counting   =     44839.31187211   -45186.34360337
  entropy T*S    EENTRO =        -0.00000000
  eigenvalues    EBANDS =     -3107.11115495
  atomic energy  EATOM  =     22150.74001668
  ---------------------------------------------------
  free energy    TOTEN  =      -367.88275952 eV

  energy without entropy =     -367.88275952  energy(sigma->0) =     -367.88275952


--------------------------------------------------------------------------------------------------------




--------------------------------------- Iteration      1(   7)  ---------------------------------------


    POTLOK:  cpu time    0.1479: real time    0.1481
    SETDIJ:  cpu time    0.9231: real time    0.9231
    TRIAL :  cpu time   30.5496: real time   30.5821
    CORREC:  cpu time   14.5496: real time   14.5516
    CHARGE:  cpu time    5.3679: real time    5.3678
    --------------------------------------------
      LOOP:  cpu time   51.5436: real time   51.6246

 eigenvalue-minimisations  :     0
 total energy-change (2. order) :-0.2312953E+01  (-0.4017056E+00)
 number of electron     251.9999976 magnetization      20.0000004
 augmentation part       46.3708568 magnetization      13.1410746

 Free energy of the ion-electron system (eV)
  ---------------------------------------------------
  alpha Z        PSCENC =       685.15975439
  Ewald energy   TEWEN  =    -13061.61917235
  -Hartree energ DENC   =     -8221.92083254
  -exchange      EXHF   =         0.00000000
  -V(xc)+E(xc)   XCENC  =      1376.43166300
  PAW double counting   =     45163.53792179   -45520.58558838
  entropy T*S    EENTRO =        -0.00000000
  eigenvalues    EBANDS =     -2941.93947469
  atomic energy  EATOM  =     22150.74001668
  ---------------------------------------------------
  free energy    TOTEN  =      -370.19571209 eV

  energy without entropy =     -370.19571209  energy(sigma->0) =     -370.19571209


--------------------------------------------------------------------------------------------------------




--------------------------------------- Iteration      1(   8)  ---------------------------------------


    POTLOK:  cpu time    0.1457: real time    0.1457
    SETDIJ:  cpu time    0.9222: real time    0.9222
    TRIAL :  cpu time   29.1522: real time   29.1831
    CORREC:  cpu time   14.6901: real time   14.6919
    CHARGE:  cpu time    5.3226: real time    5.3225
    --------------------------------------------
      LOOP:  cpu time   50.2400: real time   50.2912

 eigenvalue-minimisations  :     0
 total energy-change (2. order) :-0.4003415E+00  (-0.1606387E+00)
 number of electron     251.9999976 magnetization      20.0000004
 augmentation part       46.4919031 magnetization      13.2028621

 Free energy of the ion-electron system (eV)
  ---------------------------------------------------
  alpha Z        PSCENC =       685.15975439
  Ewald energy   TEWEN  =    -13061.61917235
  -Hartree energ DENC   =     -8236.86095010
  -exchange      EXHF   =         0.00000000
  -V(xc)+E(xc)   XCENC  =      1378.02358529
  PAW double counting   =     45607.89067607   -45963.18565235
  entropy T*S    EENTRO =        -0.00000000
  eigenvalues    EBANDS =     -2930.74431123
  atomic energy  EATOM  =     22150.74001668
  ---------------------------------------------------
  free energy    TOTEN  =      -370.59605359 eV

  energy without entropy =     -370.59605359  energy(sigma->0) =     -370.59605359


--------------------------------------------------------------------------------------------------------




--------------------------------------- Iteration      1(   9)  ---------------------------------------


    POTLOK:  cpu time    0.1502: real time    0.1502
    SETDIJ:  cpu time    0.9248: real time    0.9248
    TRIAL :  cpu time   30.4245: real time   30.4243
    CORREC:  cpu time   14.6822: real time   14.6830
    CHARGE:  cpu time    5.3632: real time    5.3631
    --------------------------------------------
      LOOP:  cpu time   51.5477: real time   51.6062

 eigenvalue-minimisations  :     0
 total energy-change (2. order) :-0.1616914E+00  (-0.5498552E-01)
 number of electron     251.9999976 magnetization      20.0000004
 augmentation part       46.5493758 magnetization      13.2117260

 Free energy of the ion-electron system (eV)
  ---------------------------------------------------
  alpha Z        PSCENC =       685.15975439
  Ewald energy   TEWEN  =    -13061.61917235
  -Hartree energ DENC   =     -8231.53053701
  -exchange      EXHF   =         0.00000000
  -V(xc)+E(xc)   XCENC  =      1377.61888356
  PAW double counting   =     46077.66602776   -46433.89430633
  entropy T*S    EENTRO =        -0.00000000
  eigenvalues    EBANDS =     -2934.89841170
  atomic energy  EATOM  =     22150.74001668
  ---------------------------------------------------
  free energy    TOTEN  =      -370.75774500 eV

  energy without entropy =     -370.75774500  energy(sigma->0) =     -370.75774500


--------------------------------------------------------------------------------------------------------




--------------------------------------- Iteration      1(  10)  ---------------------------------------


    POTLOK:  cpu time    0.1471: real time    0.1471
    SETDIJ:  cpu time    0.9238: real time    0.9238
    TRIAL :  cpu time   30.4453: real time   30.4459
    CORREC:  cpu time   14.6686: real time   14.6692
    CHARGE:  cpu time    5.3248: real time    5.3247
    --------------------------------------------
      LOOP:  cpu time   51.5134: real time   51.5513

 eigenvalue-minimisations  :     0
 total energy-change (2. order) :-0.5497559E-01  (-0.2907494E-01)
 number of electron     251.9999976 magnetization      20.0000004
 augmentation part       46.5637933 magnetization      13.2003988

 Free energy of the ion-electron system (eV)
  ---------------------------------------------------
  alpha Z        PSCENC =       685.15975439
  Ewald energy   TEWEN  =    -13061.61917235
  -Hartree energ DENC   =     -8230.67164958
  -exchange      EXHF   =         0.00000000
  -V(xc)+E(xc)   XCENC  =      1377.46442419
  PAW double counting   =     46187.54739916   -46544.60830974
  entropy T*S    EENTRO =        -0.00000000
  eigenvalues    EBANDS =     -2934.82518334
  atomic energy  EATOM  =     22150.74001668
  ---------------------------------------------------
  free energy    TOTEN  =      -370.81272059 eV

  energy without entropy =     -370.81272059  energy(sigma->0) =     -370.81272059


--------------------------------------------------------------------------------------------------------




--------------------------------------- Iteration      1(  11)  ---------------------------------------


    POTLOK:  cpu time    0.1484: real time    0.1484
    SETDIJ:  cpu time    0.9164: real time    0.9164
    TRIAL :  cpu time   28.6925: real time   28.6924
    CORREC:  cpu time   14.6606: real time   14.6638
    CHARGE:  cpu time    5.3212: real time    5.3210
    --------------------------------------------
      LOOP:  cpu time   49.7420: real time   49.7921

 eigenvalue-minimisations  :     0
 total energy-change (2. order) :-0.2824695E-01  (-0.1168601E-01)
 number of electron     251.9999976 magnetization      20.0000004
 augmentation part       46.5786039 magnetization      13.1996489

 Free energy of the ion-electron system (eV)
  ---------------------------------------------------
  alpha Z        PSCENC =       685.15975439
  Ewald energy   TEWEN  =    -13061.61917235
  -Hartree energ DENC   =     -8232.67474499
  -exchange      EXHF   =         0.00000000
  -V(xc)+E(xc)   XCENC  =      1377.65157713
  PAW double counting   =     46148.18312646   -46505.19299965
  entropy T*S    EENTRO =        -0.00000000
  eigenvalues    EBANDS =     -2933.08852521
  atomic energy  EATOM  =     22150.74001668
  ---------------------------------------------------
  free energy    TOTEN  =      -370.84096754 eV

  energy without entropy =     -370.84096754  energy(sigma->0) =     -370.84096754


--------------------------------------------------------------------------------------------------------




--------------------------------------- Iteration      1(  12)  ---------------------------------------


    POTLOK:  cpu time    0.1498: real time    0.1498
    SETDIJ:  cpu time    0.9248: real time    0.9248
    TRIAL :  cpu time   30.5412: real time   30.5410
    CORREC:  cpu time   14.6496: real time   14.6500
    CHARGE:  cpu time    5.3234: real time    5.3233
    --------------------------------------------
      LOOP:  cpu time   51.5946: real time   51.6333

 eigenvalue-minimisations  :     0
 total energy-change (2. order) :-0.1167842E-01  (-0.3347520E-02)
 number of electron     251.9999976 magnetization      20.0000004
 augmentation part       46.5889520 magnetization      13.2052334

 Free energy of the ion-electron system (eV)
  ---------------------------------------------------
  alpha Z        PSCENC =       685.15975439
  Ewald energy   TEWEN  =    -13061.61917235
  -Hartree energ DENC   =     -8234.77503140
  -exchange      EXHF   =         0.00000000
  -V(xc)+E(xc)   XCENC  =      1377.81996452
  PAW double counting   =     46118.98592824   -46476.08425171
  entropy T*S    EENTRO =        -0.00000000
  eigenvalues    EBANDS =     -2931.07985433
  atomic energy  EATOM  =     22150.74001668
  ---------------------------------------------------
  free energy    TOTEN  =      -370.85264596 eV

  energy without entropy =     -370.85264596  energy(sigma->0) =     -370.85264596


--------------------------------------------------------------------------------------------------------




--------------------------------------- Iteration      1(  13)  ---------------------------------------


    POTLOK:  cpu time    0.1494: real time    0.1494
    SETDIJ:  cpu time    0.9236: real time    0.9236
    TRIAL :  cpu time   30.5001: real time   30.4999
    CORREC:  cpu time   14.6526: real time   14.6530
    CHARGE:  cpu time    5.3256: real time    5.3255
    --------------------------------------------
      LOOP:  cpu time   51.5589: real time   51.6027

 eigenvalue-minimisations  :     0
 total energy-change (2. order) :-0.3212656E-02  (-0.9404897E-03)
 number of electron     251.9999976 magnetization      20.0000004
 augmentation part       46.5914582 magnetization      13.2076747

 Free energy of the ion-electron system (eV)
  ---------------------------------------------------
  alpha Z        PSCENC =       685.15975439
  Ewald energy   TEWEN  =    -13061.61917235
  -Hartree energ DENC   =     -8235.22737250
  -exchange      EXHF   =         0.00000000
  -V(xc)+E(xc)   XCENC  =      1377.84101681
  PAW double counting   =     46100.96150583   -46458.20070904
  entropy T*S    EENTRO =        -0.00000000
  eigenvalues    EBANDS =     -2930.51089844
  atomic energy  EATOM  =     22150.74001668
  ---------------------------------------------------
  free energy    TOTEN  =      -370.85585861 eV

  energy without entropy =     -370.85585861  energy(sigma->0) =     -370.85585861


--------------------------------------------------------------------------------------------------------




--------------------------------------- Iteration      1(  14)  ---------------------------------------


    POTLOK:  cpu time    0.1526: real time    0.1526
    SETDIJ:  cpu time    0.9262: real time    0.9262
    TRIAL :  cpu time   28.6190: real time   28.6188
    CORREC:  cpu time   14.6615: real time   14.6618
    CHARGE:  cpu time    5.3243: real time    5.3242
    --------------------------------------------
      LOOP:  cpu time   49.6882: real time   49.7215

 eigenvalue-minimisations  :     0
 total energy-change (2. order) :-0.7539676E-03  (-0.4708686E-03)
 number of electron     251.9999976 magnetization      20.0000004
 augmentation part       46.5905829 magnetization      13.2076477

 Free energy of the ion-electron system (eV)
  ---------------------------------------------------
  alpha Z        PSCENC =       685.15975439
  Ewald energy   TEWEN  =    -13061.61917235
  -Hartree energ DENC   =     -8235.17153212
  -exchange      EXHF   =         0.00000000
  -V(xc)+E(xc)   XCENC  =      1377.83799418
  PAW double counting   =     46079.43927241   -46436.69954327
  entropy T*S    EENTRO =        -0.00000000
  eigenvalues    EBANDS =     -2930.54340251
  atomic energy  EATOM  =     22150.74001668
  ---------------------------------------------------
  free energy    TOTEN  =      -370.85661258 eV

  energy without entropy =     -370.85661258  energy(sigma->0) =     -370.85661258


--------------------------------------------------------------------------------------------------------




--------------------------------------- Iteration      1(  15)  ---------------------------------------


    POTLOK:  cpu time    0.1523: real time    0.1523
    SETDIJ:  cpu time    0.9241: real time    0.9240
    TRIAL :  cpu time   30.4398: real time   30.4396
    CORREC:  cpu time   14.6602: real time   14.6606
    CHARGE:  cpu time    5.3283: real time    5.3282
    --------------------------------------------
      LOOP:  cpu time   51.5185: real time   51.5521

 eigenvalue-minimisations  :     0
 total energy-change (2. order) :-0.4876302E-03  (-0.1884904E-03)
 number of electron     251.9999976 magnetization      20.0000004
 augmentation part       46.5907435 magnetization      13.2080056

 Free energy of the ion-electron system (eV)
  ---------------------------------------------------
  alpha Z        PSCENC =       685.15975439
  Ewald energy   TEWEN  =    -13061.61917235
  -Hartree energ DENC   =     -8235.13346447
  -exchange      EXHF   =         0.00000000
  -V(xc)+E(xc)   XCENC  =      1377.84386180
  PAW double counting   =     46053.56792119   -46410.79814055
  entropy T*S    EENTRO =        -0.00000000
  eigenvalues    EBANDS =     -2930.61787689
  atomic energy  EATOM  =     22150.74001668
  ---------------------------------------------------
  free energy    TOTEN  =      -370.85710021 eV

  energy without entropy =     -370.85710021  energy(sigma->0) =     -370.85710021


--------------------------------------------------------------------------------------------------------




--------------------------------------- Iteration      1(  16)  ---------------------------------------


    POTLOK:  cpu time    0.1513: real time    0.1514
    SETDIJ:  cpu time    0.9263: real time    0.9263
    TRIAL :  cpu time   30.4072: real time   30.4083
    CORREC:  cpu time   14.6430: real time   14.6436
    CHARGE:  cpu time    5.3678: real time    5.3680
    --------------------------------------------
      LOOP:  cpu time   51.4986: real time   51.5315

 eigenvalue-minimisations  :     0
 total energy-change (2. order) :-0.1310718E-03  (-0.7617668E-04)
 number of electron     251.9999976 magnetization      20.0000004
 augmentation part       46.5911453 magnetization      13.2082231

 Free energy of the ion-electron system (eV)
  ---------------------------------------------------
  alpha Z        PSCENC =       685.15975439
  Ewald energy   TEWEN  =    -13061.61917235
  -Hartree energ DENC   =     -8235.12839475
  -exchange      EXHF   =         0.00000000
  -V(xc)+E(xc)   XCENC  =      1377.84509144
  PAW double counting   =     46035.53546602   -46392.76960164
  entropy T*S    EENTRO =        -0.00000000
  eigenvalues    EBANDS =     -2930.62039108
  atomic energy  EATOM  =     22150.74001668
  ---------------------------------------------------
  free energy    TOTEN  =      -370.85723128 eV

  energy without entropy =     -370.85723128  energy(sigma->0) =     -370.85723128


--------------------------------------------------------------------------------------------------------




--------------------------------------- Iteration      1(  17)  ---------------------------------------


    POTLOK:  cpu time    0.1497: real time    0.1498
    SETDIJ:  cpu time    0.9248: real time    0.9248
    TRIAL :  cpu time   28.8258: real time   28.8266
    CORREC:  cpu time   14.6474: real time   14.6479
    CHARGE:  cpu time    5.3306: real time    5.3305
    --------------------------------------------
      LOOP:  cpu time   49.8843: real time   49.9241

 eigenvalue-minimisations  :     0
 total energy-change (2. order) :-0.5137348E-04  (-0.6454781E-04)
 number of electron     251.9999976 magnetization      20.0000004
 augmentation part       46.5913259 magnetization      13.2082337

 Free energy of the ion-electron system (eV)
  ---------------------------------------------------
  alpha Z        PSCENC =       685.15975439
  Ewald energy   TEWEN  =    -13061.61917235
  -Hartree energ DENC   =     -8235.12516029
  -exchange      EXHF   =         0.00000000
  -V(xc)+E(xc)   XCENC  =      1377.84336502
  PAW double counting   =     46027.87625959   -46385.12322664
  entropy T*S    EENTRO =        -0.00000000
  eigenvalues    EBANDS =     -2930.60911905
  atomic energy  EATOM  =     22150.74001668
  ---------------------------------------------------
  free energy    TOTEN  =      -370.85728266 eV

  energy without entropy =     -370.85728266  energy(sigma->0) =     -370.85728266


--------------------------------------------------------------------------------------------------------




--------------------------------------- Iteration      1(  18)  ---------------------------------------


    POTLOK:  cpu time    0.1487: real time    0.1487
    SETDIJ:  cpu time    0.9291: real time    0.9291
    TRIAL :  cpu time   30.4915: real time   30.4914
    CORREC:  cpu time   14.6546: real time   14.6551
    CHARGE:  cpu time    5.3525: real time    5.3526
    --------------------------------------------
      LOOP:  cpu time   51.5803: real time   51.6177

 eigenvalue-minimisations  :     0
 total energy-change (2. order) :-0.5872250E-04  (-0.4346227E-04)
 number of electron     251.9999976 magnetization      20.0000004
 augmentation part       46.5915067 magnetization      13.2082346

 Free energy of the ion-electron system (eV)
  ---------------------------------------------------
  alpha Z        PSCENC =       685.15975439
  Ewald energy   TEWEN  =    -13061.61917235
  -Hartree energ DENC   =     -8235.10790970
  -exchange      EXHF   =         0.00000000
  -V(xc)+E(xc)   XCENC  =      1377.84202062
  PAW double counting   =     46019.20004466   -46376.45244964
  entropy T*S    EENTRO =        -0.00000000
  eigenvalues    EBANDS =     -2930.61964604
  atomic energy  EATOM  =     22150.74001668
  ---------------------------------------------------
  free energy    TOTEN  =      -370.85734138 eV

  energy without entropy =     -370.85734138  energy(sigma->0) =     -370.85734138


--------------------------------------------------------------------------------------------------------




--------------------------------------- Iteration      1(  19)  ---------------------------------------


    POTLOK:  cpu time    0.1491: real time    0.1491
    SETDIJ:  cpu time    0.9264: real time    0.9264
    TRIAL :  cpu time   30.4986: real time   30.4985
    CORREC:  cpu time   14.6548: real time   14.6553
    CHARGE:  cpu time    5.3230: real time    5.3229
    --------------------------------------------
      LOOP:  cpu time   51.5546: real time   51.5938

 eigenvalue-minimisations  :     0
 total energy-change (2. order) :-0.3788829E-04  (-0.2942480E-04)
 number of electron     251.9999976 magnetization      20.0000004
 augmentation part       46.5917034 magnetization      13.2082426

 Free energy of the ion-electron system (eV)
  ---------------------------------------------------
  alpha Z        PSCENC =       685.15975439
  Ewald energy   TEWEN  =    -13061.61917235
  -Hartree energ DENC   =     -8235.09499974
  -exchange      EXHF   =         0.00000000
  -V(xc)+E(xc)   XCENC  =      1377.84103888
  PAW double counting   =     46012.38272207   -46369.63929328
  entropy T*S    EENTRO =        -0.00000000
  eigenvalues    EBANDS =     -2930.62744591
[...]
 -0.000  -0.000   0.000   0.000   0.000  -0.000   0.000  -0.000  -0.000  -0.000   0.000  -0.000  -0.000   0.000  -0.000  -0.000
  0.000  -0.000   0.000   0.000  -0.000  -0.000  -0.000   0.000   0.000  -0.000  -0.000  -0.000   0.000  -0.000   0.000   0.000
  0.000  -0.000  -0.000   0.000  -0.000  -0.000  -0.000   0.000   0.001   0.000  -0.000   0.000   0.000  -0.000  -0.000  -0.000
  0.000  -0.001  -0.000   0.000   0.000   0.000  -0.000  -0.000   0.000   0.001   0.000   0.000  -0.000  -0.000  -0.000  -0.000
  0.000  -0.001   0.000  -0.000   0.000  -0.000   0.000  -0.000  -0.000   0.000   0.001   0.000  -0.000  -0.000  -0.000  -0.000
  0.000  -0.001   0.000   0.000  -0.000  -0.000  -0.000  -0.000   0.000   0.000   0.000   0.001   0.000  -0.000  -0.000  -0.000
  0.000  -0.000  -0.000   0.000  -0.000  -0.000  -0.000   0.000   0.000  -0.000  -0.000   0.000   0.000  -0.000   0.000   0.000
 -0.000   0.000   0.000  -0.000   0.000  -0.000   0.000  -0.000  -0.000  -0.000  -0.000  -0.000  -0.000  -0.000   0.000   0.000
 -0.000   0.000   0.000  -0.000  -0.000  -0.000  -0.000   0.000  -0.000  -0.000  -0.000  -0.000   0.000   0.000   0.000   0.000
 -0.000   0.000  -0.000   0.000  -0.000   0.000  -0.000   0.000  -0.000  -0.000  -0.000  -0.000   0.000   0.000   0.000   0.000
 -0.000   0.000  -0.000   0.000   0.000  -0.000  -0.000  -0.000  -0.000  -0.000  -0.000  -0.000  -0.000   0.000   0.000   0.000
 -0.000   0.000  -0.000   0.000   0.000   0.000   0.000  -0.000  -0.000   0.000   0.000  -0.000  -0.000   0.000  -0.000   0.000


------------------------ aborting loop because EDIFF is reached ----------------------------------------


 


 total charge     
 
# of ion       s       p       d       tot
------------------------------------------
    1        2.016   5.865   0.177   8.058
    2        2.016   5.865   0.177   8.058
    3        0.169   6.148   4.935  11.252
    4        0.169   6.148   4.935  11.252
    5        0.169   6.148   4.934  11.252
    6        0.169   6.148   4.934  11.252
    7        1.221   2.296   0.000   3.517
    8        1.221   2.296   0.000   3.517
    9        1.221   2.296   0.000   3.517
   10        1.221   2.296   0.000   3.517
   11        1.221   2.296   0.000   3.517
   12        1.221   2.296   0.000   3.517
   13        1.583   3.643   0.000   5.226
   14        1.583   3.643   0.000   5.226
   15        1.583   3.643   0.000   5.226
   16        1.583   3.643   0.000   5.226
   17        1.583   3.643   0.000   5.226
   18        1.583   3.643   0.000   5.226
   19        1.583   3.643   0.000   5.226
   20        1.583   3.643   0.000   5.226
   21        1.583   3.643   0.000   5.226
   22        1.583   3.643   0.000   5.226
   23        1.583   3.643   0.000   5.226
   24        1.583   3.643   0.000   5.226
   25        1.586   3.647   0.000   5.233
   26        1.586   3.647   0.000   5.233
   27        1.586   3.647   0.000   5.233
   28        1.586   3.647   0.000   5.233
   29        1.586   3.647   0.000   5.233
   30        1.586   3.647   0.000   5.233
   31        1.586   3.647   0.000   5.232
   32        1.586   3.647   0.000   5.232
   33        1.586   3.647   0.000   5.232
   34        1.586   3.647   0.000   5.232
   35        1.586   3.647   0.000   5.232
   36        1.586   3.647   0.000   5.232
--------------------------------------------------
tot         50.060 137.576  20.092 207.729
 


 magnetization (x)
 
# of ion       s       p       d       tot
------------------------------------------
    1        0.000   0.000   0.002   0.002
    2        0.000   0.000   0.002   0.002
    3        0.013   0.017   4.550   4.580
    4        0.013   0.017   4.550   4.580
    5        0.013   0.018   4.549   4.580
    6        0.013   0.018   4.549   4.580
    7        0.006   0.014   0.000   0.020
    8        0.006   0.014   0.000   0.020
    9        0.006   0.014   0.000   0.020
   10        0.006   0.014   0.000   0.020
   11        0.006   0.014   0.000   0.020
   12        0.006   0.014   0.000   0.020
   13        0.005   0.018   0.000   0.024
   14        0.005   0.018   0.000   0.024
   15        0.005   0.018   0.000   0.024
   16        0.005   0.018   0.000   0.024
   17        0.005   0.018   0.000   0.024
   18        0.005   0.018   0.000   0.024
   19        0.005   0.018   0.000   0.023
   20        0.005   0.018   0.000   0.023
   21        0.005   0.018   0.000   0.023
   22        0.005   0.018   0.000   0.023
   23        0.005   0.018   0.000   0.023
   24        0.005   0.018   0.000   0.023
   25        0.006   0.019   0.000   0.025
   26        0.006   0.019   0.000   0.025
   27        0.006   0.019   0.000   0.025
   28        0.006   0.019   0.000   0.025
   29        0.006   0.019   0.000   0.025
   30        0.006   0.019   0.000   0.025
   31        0.006   0.019   0.000   0.026
   32        0.006   0.019   0.000   0.026
   33        0.006   0.019   0.000   0.026
   34        0.006   0.019   0.000   0.026
   35        0.006   0.019   0.000   0.026
   36        0.006   0.019   0.000   0.026
--------------------------------------------------
tot          0.227   0.607  18.200  19.034
 
    FORLOC:  cpu time    0.0098: real time    0.0098
    FORNL :  cpu time    3.1306: real time    3.1306
    STRESS:  cpu time   99.3159: real time   99.3155
    FORCOR:  cpu time    0.1417: real time    0.1419
    OFIELD:  cpu time    0.0003: real time    0.0003

  FORCE on cell =-STRESS in cart. coord.  units (eV):
  Direction    XX          YY          ZZ          XY          YZ          ZX
  --------------------------------------------------------------------------------------
  Alpha Z   685.15975   685.15975   685.15975
  Ewald   -4504.15614 -4660.01920 -3897.50626   223.43277   382.37593   538.28785
  Hartree  2657.29647  2566.29512  3011.47356   130.45394   223.24296   314.27207
  E(xc)   -1345.44420 -1345.36159 -1345.76609    -0.11851    -0.20284    -0.28554
  Local   -2149.89908 -1907.09875 -3094.90221  -348.06051  -595.64503  -838.51974
  n-local  -435.34600  -436.12053  -432.33255     1.11005     1.89878     2.67378
  augment   558.50191   558.75122   557.53086    -0.35753    -0.61182    -0.86131
  Kinetic  4533.87826  4538.42290  4516.17866    -6.51660   -11.15497   -15.70297
  Fock        0.00000     0.00000     0.00000     0.00000     0.00000     0.00000
  -------------------------------------------------------------------------------------
  Total      -0.00903     0.02892    -0.16428    -0.05639    -0.09698    -0.13586
  in kB      -0.02953     0.09459    -0.53738    -0.18445    -0.31725    -0.44443
  external pressure =       -0.16 kB  Pullay stress =        0.00 kB


 VOLUME and BASIS-vectors are now :
 -----------------------------------------------------------------------------
  energy-cutoff  :      520.00
  volume of cell :      489.80
      direct lattice vectors                 reciprocal lattice vectors
     7.709428486  0.097809726  4.502202565     0.131186509 -0.046682170 -0.001511935
     2.630822697  7.247336831  4.502201283    -0.000883545  0.139241772 -0.001512055
     0.137686662  0.097810725  8.926718836    -0.065718474 -0.046682539  0.113548397

  length of vectors
     8.928307917  8.928322105  8.928316399     0.139253047  0.139252785  0.139253063


 FORCES acting on ions:
    Electron-Ion                     Ewald-Force                    Non-Local-Force
 -----------------------------------------------------------------------------------------------
   -.228E+00 -.163E+00 -.400E+00   0.208E+00 0.148E+00 0.365E+00   0.179E-01 0.126E-01 0.307E-01
   -.230E+00 -.164E+00 -.397E+00   0.210E+00 0.149E+00 0.362E+00   0.177E-01 0.127E-01 0.305E-01
   -.255E+02 -.181E+02 -.436E+02   0.260E+02 0.185E+02 0.446E+02   -.573E+00 -.408E+00 -.980E+00
   -.254E+02 -.181E+02 -.436E+02   0.260E+02 0.185E+02 0.446E+02   -.573E+00 -.407E+00 -.981E+00
   0.253E+02 0.180E+02 0.433E+02   -.259E+02 -.184E+02 -.443E+02   0.586E+00 0.416E+00 0.100E+01
   0.253E+02 0.180E+02 0.433E+02   -.259E+02 -.184E+02 -.443E+02   0.586E+00 0.416E+00 0.100E+01
   0.235E+01 0.104E+00 -.123E+01   -.199E+00 -.137E+00 -.399E-01   -.218E+01 0.332E-01 0.128E+01
   0.157E+01 -.214E+01 0.155E+00   -.114E+00 0.104E+00 -.191E+00   -.147E+01 0.206E+01 0.329E-01
   -.150E+01 0.218E+01 0.154E+00   0.625E-01 -.141E+00 -.190E+00   0.146E+01 -.207E+01 0.330E-01
   0.867E+00 0.218E+01 -.123E+01   -.191E+00 -.140E+00 -.455E-01   -.686E+00 -.207E+01 0.128E+01
   -.634E+00 -.214E+01 0.144E+01   -.110E+00 0.108E+00 -.189E+00   0.751E+00 0.206E+01 -.127E+01
   -.223E+01 0.105E+00 0.144E+01   0.639E-01 -.138E+00 -.188E+00   0.219E+01 0.331E-01 -.127E+01
   -.168E+02 0.119E+02 0.977E+02   0.496E+02 -.841E+01 -.121E+03   -.328E+02 -.352E+01 0.238E+02
   0.840E+01 0.843E+02 0.529E+02   0.106E+02 -.120E+03 -.523E+02   -.190E+02 0.359E+02 -.628E+00
   0.824E+02 -.198E+02 0.529E+02   -.110E+03 0.496E+02 -.523E+02   0.276E+02 -.298E+02 -.628E+00
   0.570E+01 -.198E+02 0.977E+02   0.839E+01 0.496E+02 -.121E+03   -.141E+02 -.298E+02 0.238E+02
   0.420E+02 0.843E+02 0.333E+02   -.508E+02 -.120E+03 -.164E+02   0.879E+01 0.359E+02 -.169E+02
   0.934E+02 0.119E+02 0.333E+02   -.130E+03 -.840E+01 -.164E+02   0.368E+02 -.352E+01 -.169E+02
   -.936E+02 -.111E+02 -.320E+02   0.130E+03 0.746E+01 0.150E+02   -.368E+02 0.364E+01 0.171E+02
   -.825E+02 0.207E+02 -.517E+02   0.110E+03 -.506E+02 0.509E+02   -.277E+02 0.299E+02 0.819E+00
   -.763E+01 -.848E+02 -.517E+02   -.115E+02 0.121E+03 0.509E+02   0.191E+02 -.360E+02 0.818E+00
   -.413E+02 -.848E+02 -.320E+02   0.500E+02 0.121E+03 0.150E+02   -.868E+01 -.360E+02 0.171E+02
   -.452E+01 0.207E+02 -.973E+02   -.975E+01 -.506E+02 0.121E+03   0.143E+02 0.299E+02 -.237E+02
   0.181E+02 -.111E+02 -.973E+02   -.510E+02 0.745E+01 0.121E+03   0.330E+02 0.365E+01 -.237E+02
   0.686E+02 0.198E+02 0.852E+02   -.698E+02 -.343E+02 -.127E+03   0.126E+01 0.145E+02 0.421E+02
   0.728E+02 0.318E+02 0.778E+02   -.792E+02 -.611E+02 -.111E+03   0.641E+01 0.293E+02 0.330E+02
   0.540E+02 0.582E+02 0.778E+02   -.838E+02 -.547E+02 -.111E+03   0.298E+02 -.359E+01 0.330E+02
   0.412E+02 0.582E+02 0.852E+02   -.554E+02 -.546E+02 -.127E+03   0.141E+02 -.359E+01 0.421E+02
   0.320E+02 0.318E+02 0.102E+03   -.576E+02 -.611E+02 -.123E+03   0.256E+02 0.293E+02 0.218E+02
   0.406E+02 0.198E+02 0.102E+03   -.767E+02 -.343E+02 -.123E+03   0.361E+02 0.145E+02 0.218E+02
   -.395E+02 -.199E+02 -.104E+03   0.753E+02 0.345E+02 0.126E+03   -.358E+02 -.146E+02 -.221E+02
   -.536E+02 -.604E+02 -.786E+02   0.832E+02 0.572E+02 0.112E+03   -.296E+02 0.319E+01 -.331E+02
   -.746E+02 -.308E+02 -.786E+02   0.814E+02 0.598E+02 0.112E+03   -.674E+01 -.290E+02 -.331E+02
   -.318E+02 -.308E+02 -.104E+03   0.573E+02 0.598E+02 0.126E+03   -.256E+02 -.290E+02 -.221E+02
   -.421E+02 -.604E+02 -.853E+02   0.564E+02 0.572E+02 0.127E+03   -.143E+02 0.319E+01 -.421E+02
   -.709E+02 -.199E+02 -.853E+02   0.726E+02 0.344E+02 0.127E+03   -.171E+01 -.146E+02 -.421E+02
 -----------------------------------------------------------------------------------------------
   -.144E+00 -.102E+00 -.239E+00   0.114E-12 0.121E-12 0.284E-12   0.103E+00 0.734E-01 0.171E+00
 
 
 POSITION                                       TOTAL-FORCE (eV/Angst)
 -----------------------------------------------------------------------------------
      5.21224      3.70248      8.91981        -0.001424     -0.001097     -0.002564
     10.45120      7.42397     17.88537        -0.001678     -0.001158     -0.002758
      6.79218      4.82481     11.62360         0.010892      0.007557      0.019154
      1.55321      1.10332      2.65804         0.011033      0.007934      0.018716
      8.86790      6.29928     15.17583         0.008558      0.005954      0.014789
      3.62894      2.57779      6.21027         0.008613      0.006112      0.014678
      8.01224      1.93991     10.28128         0.018784     -0.000009     -0.014435
      3.66592      0.48124      8.90260         0.011541     -0.020657     -0.001881
      6.76275      6.92672      8.94143        -0.015537      0.017848     -0.001490
      6.94036      3.30306      5.81793         0.006265      0.017968     -0.014492
      3.48590      4.10491     12.02754        -0.007174     -0.020558      0.009258
      2.41564      5.46576      7.56418        -0.021647      0.000012      0.009277
      4.70258      4.22975     11.18781         0.002330     -0.017989      0.011860
      7.66158      2.00720      5.85738         0.014332      0.013565     -0.008365
      7.02613      3.04762     10.32073         0.018296      0.008159     -0.008385
      2.93414      6.57350      6.72444        -0.016429      0.007487      0.012435
      6.44308      5.63085      9.58917        -0.014034      0.014591      0.007819
      2.33706      0.60609      9.55033         0.009179     -0.017728      0.007917
      8.08987      6.79907      8.29151        -0.012600      0.012860     -0.011462
      3.40102      4.35799      7.52080        -0.020553     -0.007258      0.001326
      2.76435      5.40008     11.98417        -0.014068     -0.016176      0.001175
      3.98236      1.77639      8.25268         0.007976     -0.016204     -0.011537
      7.49072      0.83214     11.11843         0.010873     -0.007865     -0.016785
      5.72266      3.17537      6.65507        -0.004858      0.012767     -0.016201
      8.14138      1.51666      8.89495         0.005252      0.005817     -0.015015
      6.20348      6.66765     12.41311        -0.002567     -0.016716     -0.000958
      5.73028      7.18799      7.94974        -0.016707      0.003126     -0.001135
      6.72091      3.66216     13.35833         0.007076      0.003286     -0.015970
      2.66772      3.04399     11.45944         0.000282     -0.016813     -0.002727
      8.85390      5.14034     11.49827        -0.014870      0.006075     -0.002426
      1.57079      2.26698      6.35457         0.015423     -0.008616     -0.000225
      4.69706      0.22699      9.89838         0.016934     -0.004524     -0.002711
      4.23137      0.73673      5.43502         0.001381      0.017433     -0.002853
      7.75903      4.36041      6.39342        -0.002568      0.018177      0.000022
      3.70953      3.75283      4.48801        -0.010634     -0.004548      0.013475
      2.29452      5.89065      8.95138        -0.007672     -0.008811      0.012475
 -----------------------------------------------------------------------------------
    total drift:                               -0.040804     -0.028234     -0.068643


--------------------------------------------------------------------------------------------------------



  FREE ENERGIE OF THE ION-ELECTRON SYSTEM (eV)
  ---------------------------------------------------
  free  energy   TOTEN  =      -370.85743483 eV

  energy  without entropy=     -370.85743483  energy(sigma->0) =     -370.85743483
 


--------------------------------------------------------------------------------------------------------


    POTLOK:  cpu time    1.0628: real time    1.0628


--------------------------------------------------------------------------------------------------------




--------------------------------------------------------------------------------------------------------


  
 reached required accuracy - stopping structural energy minimisation
     LOOP+:  cpu time 1251.6973: real time 1253.1380
    4ORBIT:  cpu time    0.0000: real time    0.0000
 


 total charge     
 
# of ion       s       p       d       tot
------------------------------------------
    1        2.016   5.865   0.177   8.058
    2        2.016   5.865   0.177   8.058
    3        0.169   6.148   4.935  11.252
    4        0.169   6.148   4.935  11.252
    5        0.169   6.148   4.934  11.252
    6        0.169   6.148   4.934  11.252
    7        1.221   2.296   0.000   3.517
    8        1.221   2.296   0.000   3.517
    9        1.221   2.296   0.000   3.517
   10        1.221   2.296   0.000   3.517
   11        1.221   2.296   0.000   3.517
   12        1.221   2.296   0.000   3.517
   13        1.583   3.643   0.000   5.226
   14        1.583   3.643   0.000   5.226
   15        1.583   3.643   0.000   5.226
   16        1.583   3.643   0.000   5.226
   17        1.583   3.643   0.000   5.226
   18        1.583   3.643   0.000   5.226
   19        1.583   3.643   0.000   5.226
   20        1.583   3.643   0.000   5.226
   21        1.583   3.643   0.000   5.226
   22        1.583   3.643   0.000   5.226
   23        1.583   3.643   0.000   5.226
   24        1.583   3.643   0.000   5.226
   25        1.586   3.647   0.000   5.233
   26        1.586   3.647   0.000   5.233
   27        1.586   3.647   0.000   5.233
   28        1.586   3.647   0.000   5.233
   29        1.586   3.647   0.000   5.233
   30        1.586   3.647   0.000   5.233
   31        1.586   3.647   0.000   5.232
   32        1.586   3.647   0.000   5.232
   33        1.586   3.647   0.000   5.232
   34        1.586   3.647   0.000   5.232
   35        1.586   3.647   0.000   5.232
   36        1.586   3.647   0.000   5.232
--------------------------------------------------
tot         50.060 137.576  20.092 207.729
 


 magnetization (x)
 
# of ion       s       p       d       tot
------------------------------------------
    1        0.000   0.000   0.002   0.002
    2        0.000   0.000   0.002   0.002
    3        0.013   0.017   4.550   4.580
    4        0.013   0.017   4.550   4.580
    5        0.013   0.018   4.549   4.580
    6        0.013   0.018   4.549   4.580
    7        0.006   0.014   0.000   0.020
    8        0.006   0.014   0.000   0.020
    9        0.006   0.014   0.000   0.020
   10        0.006   0.014   0.000   0.020
   11        0.006   0.014   0.000   0.020
   12        0.006   0.014   0.000   0.020
   13        0.005   0.018   0.000   0.024
   14        0.005   0.018   0.000   0.024
   15        0.005   0.018   0.000   0.024
   16        0.005   0.018   0.000   0.024
   17        0.005   0.018   0.000   0.024
   18        0.005   0.018   0.000   0.024
   19        0.005   0.018   0.000   0.023
   20        0.005   0.018   0.000   0.023
   21        0.005   0.018   0.000   0.023
   22        0.005   0.018   0.000   0.023
   23        0.005   0.018   0.000   0.023
   24        0.005   0.018   0.000   0.023
   25        0.006   0.019   0.000   0.025
   26        0.006   0.019   0.000   0.025
   27        0.006   0.019   0.000   0.025
   28        0.006   0.019   0.000   0.025
   29        0.006   0.019   0.000   0.025
   30        0.006   0.019   0.000   0.025
   31        0.006   0.019   0.000   0.026
   32        0.006   0.019   0.000   0.026
   33        0.006   0.019   0.000   0.026
   34        0.006   0.019   0.000   0.026
   35        0.006   0.019   0.000   0.026
   36        0.006   0.019   0.000   0.026
--------------------------------------------------
tot          0.227   0.607  18.200  19.034
 

 total amount of memory used by VASP MPI-rank0   183451. kBytes
=======================================================================

   base      :      30000. kBytes
   nonlr-proj:       8579. kBytes
   fftplans  :       2613. kBytes
   grid      :      10205. kBytes
   one-center:         93. kBytes
   wavefun   :     131961. kBytes
 
  
  
 General timing and accounting informations for this job:
 ========================================================
  
                  Total CPU time used (sec):     1279.945
                            User time (sec):     1266.393
                          System time (sec):       13.551
                         Elapsed time (sec):     1282.227
  
                   Maximum memory used (kb):      357680.
                   Average memory used (kb):           0.
  
                          Minor page faults:       181317
                          Major page faults:            0
                 Voluntary context switches:         2003
