 vasp.6.1.2 22Jul20 (build Mar 19 2021 09:51:12) complex                        
  
 executed on             LinuxIFC date 2021.07.23  22:51:46
 running on   12 total cores
 distrk:  each k-point on   12 cores,    1 groups
 distr:  one band on NCORE=   4 cores,    3 groups


--------------------------------------------------------------------------------------------------------


 INCAR:
 POTCAR:    PAW_PBE Ca_sv 06Sep2000               
 POTCAR:    PAW_PBE Ti_pv 07Sep2000               
 POTCAR:    PAW_PBE O 08Apr2002                   
 POTCAR:    PAW_PBE Ca_sv 06Sep2000               
   VRHFIN =Ca: 3s3p4s                                                                               
   LEXCH  = PE                                                                                      
   EATOM  =  1006.0909 eV,   73.9456 Ry                                                             
                                                                                                    
   TITEL  = PAW_PBE Ca_sv 06Sep2000                                                                 
   LULTRA =        F    use ultrasoft PP ?                                                          
   IUNSCR =        1    unscreen: 0-lin 1-nonlin 2-no                                               
   RPACOR =    2.000    partial core radius                                                         
   POMASS =   40.078; ZVAL   =   10.000    mass and valenz                                          
   RCORE  =    2.300    outmost cutoff radius                                                       
   RWIGS  =    2.500; RWIGS  =    1.323    wigner-seitz radius (au A)                               
   ENMAX  =  266.622; ENMIN  =  199.967 eV                                                          
   RCLOC  =    1.808    cutoff for local pot                                                        
   LCOR   =        T    correct aug charges                                                         
   LPAW   =        T    paw PP                                                                      
   EAUG   =  420.852                                                                                
   RMAX   =    2.359    core radius for proj-oper                                                   
   RAUG   =    1.300    factor for augmentation sphere                                              
   RDEP   =    2.392    radius for radial grids                                                     
   RDEPT  =    1.987    core radius for aug-charge                                                  
                                                                                                    
   Atomic configuration                                                                             
    7 entries                                                                                       
     n  l   j            E        occ.                                                              
     1  0  0.50     -3949.1705   2.0000                                                             
     2  0  0.50      -414.3434   2.0000                                                             
     2  1  1.50      -334.7047   6.0000                                                             
     3  0  0.50       -47.0896   2.0000                                                             
     4  0  0.50        -3.7663   2.0000                                                             
     3  1  1.50       -28.0061   6.0000                                                             
     3  2  1.50        -4.0817   0.0000                                                             
   Description                                                                                      
     l       E           TYP  RCUT    TYP  RCUT                                                     
     0    -47.0896403     23  2.300                                                                 
     0     -3.7663320     23  2.300                                                                 
     1    -28.0060855     23  2.300                                                                 
     1      6.8029130     23  2.300                                                                 
     2     -4.0817478     23  2.300                                                                 
     2      0.4464412     23  2.300                                                                 
  local pseudopotential read in
  partial core-charges read in
  partial kinetic energy density read in
  atomic valenz-charges read in
  non local Contribution for L=           0  read in
    real space projection operators read in
  non local Contribution for L=           0  read in
    real space projection operators read in
  non local Contribution for L=           1  read in
    real space projection operators read in
  non local Contribution for L=           1  read in
    real space projection operators read in
  non local Contribution for L=           2  read in
    real space projection operators read in
  non local Contribution for L=           2  read in
    real space projection operators read in
    PAW grid and wavefunctions read in
 
   number of l-projection  operators is LMAX  =           6
   number of lm-projection operators is LMMAX =          18
 
 POTCAR:    PAW_PBE Ti_pv 07Sep2000               
   VRHFIN =Ti: d3 s1                                                                                
   LEXCH  = PE                                                                                      
   EATOM  =  1042.5995 eV,   76.6289 Ry                                                             
                                                                                                    
   TITEL  = PAW_PBE Ti_pv 07Sep2000                                                                 
   LULTRA =        F    use ultrasoft PP ?                                                          
   IUNSCR =        1    unscreen: 0-lin 1-nonlin 2-no                                               
   RPACOR =    2.200    partial core radius                                                         
   POMASS =   47.880; ZVAL   =   10.000    mass and valenz                                          
   RCORE  =    2.500    outmost cutoff radius                                                       
   RWIGS  =    2.500; RWIGS  =    1.323    wigner-seitz radius (au A)                               
   ENMAX  =  222.335; ENMIN  =  166.751 eV                                                          
   RCLOC  =    1.701    cutoff for local pot                                                        
   LCOR   =        T    correct aug charges                                                         
   LPAW   =        T    paw PP                                                                      
   EAUG   =  482.848                                                                                
   DEXC   =    0.000                                                                                
   RMAX   =    2.564    core radius for proj-oper                                                   
   RAUG   =    1.300    factor for augmentation sphere                                              
   RDEP   =    2.538    radius for radial grids                                                     
   RDEPT  =    1.952    core radius for aug-charge                                                  
                                                                                                    
   Atomic configuration                                                                             
    8 entries                                                                                       
     n  l   j            E        occ.                                                              
     1  0  0.50     -4865.3608   2.0000                                                             
     2  0  0.50      -533.1368   2.0000                                                             
     2  1  1.50      -440.5031   6.0000                                                             
     3  0  0.50       -59.3186   2.0000                                                             
     3  1  1.50       -35.7012   6.0000                                                             
     3  2  2.50        -1.9157   3.0000                                                             
     4  0  0.50        -3.7291   1.0000                                                             
     4  3  2.50        -1.3606   0.0000                                                             
   Description                                                                                      
     l       E           TYP  RCUT    TYP  RCUT                                                     
     1    -35.7012140     23  2.300                                                                 
     1     -1.3605826     23  2.300                                                                 
     2     -1.9156996     23  2.500                                                                 
     2     -0.4063033     23  2.500                                                                 
     0     -3.7290856     23  2.500                                                                 
     0     20.4087390     23  2.500                                                                 
  local pseudopotential read in
  partial core-charges read in
  partial kinetic energy density read in
  atomic valenz-charges read in
  non local Contribution for L=           1  read in
    real space projection operators read in
  non local Contribution for L=           1  read in
    real space projection operators read in
  non local Contribution for L=           2  read in
    real space projection operators read in
  non local Contribution for L=           2  read in
    real space projection operators read in
  non local Contribution for L=           0  read in
    real space projection operators read in
  non local Contribution for L=           0  read in
    real space projection operators read in
    PAW grid and wavefunctions read in
 
   number of l-projection  operators is LMAX  =           6
   number of lm-projection operators is LMMAX =          18
 
 POTCAR:    PAW_PBE O 08Apr2002                   
   VRHFIN =O: s2p4                                                                                  
   LEXCH  = PE                                                                                      
   EATOM  =   432.3788 eV,   31.7789 Ry                                                             
                                                                                                    
   TITEL  = PAW_PBE O 08Apr2002                                                                     
   LULTRA =        F    use ultrasoft PP ?                                                          
   IUNSCR =        1    unscreen: 0-lin 1-nonlin 2-no                                               
   RPACOR =    1.200    partial core radius                                                         
   POMASS =   16.000; ZVAL   =    6.000    mass and valenz                                          
   RCORE  =    1.520    outmost cutoff radius                                                       
   RWIGS  =    1.550; RWIGS  =    0.820    wigner-seitz radius (au A)                               
   ENMAX  =  400.000; ENMIN  =  300.000 eV                                                          
   ICORE  =        2    local potential                                                             
   LCOR   =        T    correct aug charges                                                         
   LPAW   =        T    paw PP                                                                      
   EAUG   =  605.392                                                                                
   DEXC   =    0.000                                                                                
   RMAX   =    1.553    core radius for proj-oper                                                   
   RAUG   =    1.300    factor for augmentation sphere                                              
   RDEP   =    1.550    radius for radial grids                                                     
   RDEPT  =    1.329    core radius for aug-charge                                                  
                                                                                                    
   Atomic configuration                                                                             
    4 entries                                                                                       
     n  l   j            E        occ.                                                              
     1  0  0.50      -514.6923   2.0000                                                             
     2  0  0.50       -23.9615   2.0000                                                             
     2  1  0.50        -9.0305   4.0000                                                             
     3  2  1.50        -9.5241   0.0000                                                             
   Description                                                                                      
     l       E           TYP  RCUT    TYP  RCUT                                                     
     0    -23.9615318     23  1.200                                                                 
     0     -9.5240782     23  1.200                                                                 
     1     -9.0304911     23  1.520                                                                 
     1      8.1634956     23  1.520                                                                 
     2     -9.5240782      7  1.500                                                                 
  local pseudopotential read in
  partial core-charges read in
  partial kinetic energy density read in
  kinetic energy density of atom read in
  atomic valenz-charges read in
  non local Contribution for L=           0  read in
    real space projection operators read in
  non local Contribution for L=           0  read in
    real space projection operators read in
  non local Contribution for L=           1  read in
    real space projection operators read in
  non local Contribution for L=           1  read in
    real space projection operators read in
    PAW grid and wavefunctions read in
 
   number of l-projection  operators is LMAX  =           4
   number of lm-projection operators is LMMAX =           8
 
 Optimization of the real space projectors (new method)

 maximal supplied QI-value         = 16.25
 optimisation between [QCUT,QGAM] = [ 11.54, 23.24] = [ 37.28,151.24] Ry 
 Optimized for a Real-space Cutoff    1.58 Angstroem

   l    n(q)    QCUT    max X(q) W(low)/X(q) W(high)/X(q)  e(spline) 
   0     11    11.539    11.817    0.25E-04    0.22E-05    0.26E-07
   0     11    11.539     8.461    0.39E-04    0.49E-05    0.55E-07
   1     11    11.539     3.957    0.21E-05    0.44E-05    0.32E-07
   1     11    11.539     4.314    0.56E-04    0.44E-04    0.19E-06
   2     10    11.539    14.565    0.25E-03    0.21E-04    0.75E-06
   2     10    11.539    14.552    0.23E-03    0.22E-04    0.72E-06
 Optimization of the real space projectors (new method)

 maximal supplied QI-value         = 15.12
 optimisation between [QCUT,QGAM] = [ 11.64, 23.28] = [ 37.95,151.78] Ry 
 Optimized for a Real-space Cutoff    1.49 Angstroem

   l    n(q)    QCUT    max X(q) W(low)/X(q) W(high)/X(q)  e(spline) 
   1     10    11.641     4.216    0.17E-04    0.40E-04    0.50E-07
   1     10    11.641     5.422    0.66E-04    0.10E-03    0.13E-06
   2      9    11.641    72.084    0.68E-04    0.13E-03    0.50E-06
   2      9    11.641    65.965    0.66E-04    0.13E-03    0.50E-06
   0     10    11.641    41.531    0.10E-03    0.87E-04    0.31E-06
   0     10    11.641    16.290    0.75E-04    0.66E-04    0.24E-06
 Optimization of the real space projectors (new method)

 maximal supplied QI-value         = 24.76
 optimisation between [QCUT,QGAM] = [ 11.64, 23.27] = [ 37.91,151.63] Ry 
 Optimized for a Real-space Cutoff    1.14 Angstroem

   l    n(q)    QCUT    max X(q) W(low)/X(q) W(high)/X(q)  e(spline) 
   0      8    11.635    20.381    0.10E-03    0.33E-03    0.24E-06
   0      8    11.635    15.268    0.11E-03    0.35E-03    0.26E-06
   1      7    11.635     5.964    0.24E-03    0.31E-03    0.30E-06
   1      7    11.635     5.382    0.22E-03    0.25E-03    0.26E-06
  PAW_PBE Ca_sv 06Sep2000               :
 energy of atom  1       EATOM=-1006.0909
 kinetic energy error for atom=    0.0022 (will be added to EATOM!!)
  PAW_PBE Ti_pv 07Sep2000               :
 energy of atom  2       EATOM=-1042.5995
 kinetic energy error for atom=    0.0019 (will be added to EATOM!!)
  PAW_PBE O 08Apr2002                   :
 energy of atom  3       EATOM= -432.3788
 kinetic energy error for atom=    0.0208 (will be added to EATOM!!)
 
 
 POSCAR: Ca6 Ti4 O14
  positions in direct lattice
  velocities in cartesian coordinates

 METAGGA = SCAN     LMAXTAU =  6    LMIXTAU =  F

 exchange correlation table for  LEXCH =        8
   RHO(1)=    0.500       N(1)  =     2000
   RHO(2)=  100.500       N(2)  =     4000
 


--------------------------------------------------------------------------------------------------------


 ion  position               nearest neighbor table
   1  0.255  0.446  1.000-  11 2.36  20 2.40  19 2.40  12 2.45   7 3.17   8 3.17
   2  0.745  0.946  0.000-  12 2.36  18 2.40  17 2.40  11 2.45   9 3.17  10 3.17
   3  0.930  0.026  0.624-  15 2.28  24 2.33  16 2.35  13 2.44  17 2.48  10 3.07
   4  0.552  0.026  0.376-  16 2.28  23 2.33  15 2.34  14 2.45  18 2.48   9 3.07
   5  0.070  0.526  0.376-  13 2.28  22 2.33  14 2.35  15 2.44  19 2.48   8 3.07
   6  0.448  0.526  0.624-  14 2.28  21 2.33  13 2.34  16 2.45  20 2.48   7 3.07
   7  0.349  0.988  0.801-  16 1.95  21 1.96  24 1.97  17 1.97  12 1.98  20 1.99   6 3.07   1 3.17

   8  0.150  0.988  0.199-  15 1.96  22 1.96  23 1.97  18 1.97  12 1.98  19 1.99   5 3.07   1 3.17

   9  0.651  0.488  0.199-  14 1.95  23 1.96  22 1.97  19 1.97  11 1.98  18 1.99   4 3.07   2 3.17

  10  0.850  0.488  0.801-  13 1.96  24 1.96  21 1.97  20 1.97  11 1.98  17 1.99   3 3.07   2 3.17

  11  0.823  0.506  0.000-  10 1.98   9 1.98   1 2.36   2 2.45
  12  0.177  0.006  1.000-   8 1.98   7 1.98   2 2.36   1 2.45
  13  0.884  0.467  0.604-  10 1.96   5 2.28   6 2.34   3 2.44
  14  0.488  0.468  0.396-   9 1.95   6 2.28   5 2.35   4 2.45
  15  0.116  0.967  0.396-   8 1.96   3 2.28   4 2.34   5 2.44
  16  0.512  0.968  0.604-   7 1.95   4 2.28   3 2.35   6 2.45
  17  0.626  0.195  0.832-   7 1.97  10 1.99   2 2.40   3 2.48
  18  0.457  0.195  0.168-   8 1.97   9 1.99   2 2.40   4 2.48
  19  0.374  0.695  0.168-   9 1.97   8 1.99   1 2.40   5 2.48
  20  0.543  0.695  0.832-  10 1.97   7 1.99   1 2.40   6 2.48
  21  0.154  0.278  0.775-   7 1.96  10 1.97   6 2.33
  22  0.929  0.278  0.225-   8 1.96   9 1.97   5 2.33
  23  0.846  0.778  0.225-   9 1.96   8 1.97   4 2.33
  24  0.071  0.778  0.775-  10 1.96   7 1.97   3 2.33
 

IMPORTANT INFORMATION: All symmetrisations will be switched off!
NOSYMM: (Re-)initialisation of all symmetry stuff for point group C_1.


----------------------------------------------------------------------------------------

                                     Primitive cell                                     

  volume of cell :     289.7529

  direct lattice vectors                    reciprocal lattice vectors
     0.000000797 -5.425844155 -0.000530952    -0.000000024 -0.184308139  0.051296660
    -5.476821149  0.000000826  0.000000363    -0.182587668 -0.000000027 -0.000000012
     0.000001064 -2.713865429 -9.750878204    -0.000000007  0.000010036 -0.102557658

  length of vectors
     5.425844181  5.476821149 10.121496496     0.191313453  0.182587668  0.102557659

  position of ions in fractional coordinates (direct lattice)
     0.254876545  0.445757464  0.999767001
     0.745123768  0.945757721  0.000233024
     0.929628099  0.026024273  0.623979221
     0.552068471  0.025574842  0.376299165
     0.070371356  0.526024061  0.376021142
     0.447931136  0.525574537  0.623700990
     0.349018110  0.988437753  0.801156603
     0.149534080  0.988493777  0.198633187
     0.650981815  0.488437479  0.198843690
     0.850466281  0.488494297  0.801366469
     0.823392735  0.506003703  0.000028942
     0.176607373  0.006003226  0.999971107
     0.883550538  0.467455957  0.604474531
     0.487569679  0.467621844  0.395539185
     0.116449058  0.967456185  0.395525393
     0.512430371  0.967622169  0.604460829
     0.625692295  0.195044403  0.832350059
     0.457453923  0.195104235  0.167868733
     0.374308352  0.695044685  0.167649370
     0.542546111  0.695104915  0.832131279
     0.154487459  0.278067853  0.775233269
     0.929174242  0.277913112  0.224555377
     0.845512202  0.778068244  0.224766847
     0.070826002  0.777913264  0.775444586

  ion indices of the primitive-cell ions
   primitive index   ion index
                 1           1
                 2           2
                 3           3
                 4           4
                 5           5
                 6           6
                 7           7
                 8           8
                 9           9
                10          10
                11          11
                12          12
                13          13
                14          14
                15          15
                16          16
                17          17
                18          18
                19          19
                20          20
                21          21
                22          22
                23          23
                24          24

----------------------------------------------------------------------------------------

 
 
 KPOINTS: K-points file                           

Automatic generation of k-mesh.
Space group operators:
 irot       det(A)        alpha          n_x          n_y          n_z        tau_x        tau_y        tau_z
    1     1.000000     0.000000     1.000000     0.000000     0.000000     0.000000     0.000000     0.000000
 
 Subroutine IBZKPT returns following result:
 ===========================================
 
 Found     76 irreducible k-points:
 
 Following reciprocal coordinates:
            Coordinates               Weight
  0.000000  0.000000  0.000000      1.000000
  0.166667 -0.000000 -0.000000      2.000000
  0.333333 -0.000000  0.000000      2.000000
  0.500000 -0.000000 -0.000000      1.000000
 -0.000000  0.166667  0.000000      2.000000
  0.166667  0.166667 -0.000000      2.000000
 -0.166667  0.166667 -0.000000      2.000000
  0.333333  0.166667 -0.000000      2.000000
 -0.333333  0.166667  0.000000      2.000000
  0.500000  0.166667  0.000000      2.000000
  0.000000  0.333333 -0.000000      2.000000
  0.166667  0.333333  0.000000      2.000000
 -0.166667  0.333333 -0.000000      2.000000
  0.333333  0.333333 -0.000000      2.000000
 -0.333333  0.333333  0.000000      2.000000
  0.500000  0.333333 -0.000000      2.000000
 -0.000000  0.500000  0.000000      1.000000
  0.166667  0.500000 -0.000000      2.000000
  0.333333  0.500000  0.000000      2.000000
  0.500000  0.500000 -0.000000      1.000000
  0.000000  0.000000  0.250000      2.000000
  0.166667 -0.000000  0.250000      2.000000
  0.333333 -0.000000  0.250000      2.000000
  0.500000  0.000000  0.250000      2.000000
 -0.333333 -0.000000  0.250000      2.000000
 -0.166667  0.000000  0.250000      2.000000
 -0.000000  0.166667  0.250000      2.000000
 -0.000000  0.166667 -0.250000      2.000000
  0.166667  0.166667  0.250000      2.000000
 -0.166667  0.166667 -0.250000      2.000000
  0.333333  0.166667  0.250000      2.000000
 -0.333333  0.166667 -0.250000      2.000000
  0.500000  0.166667  0.250000      2.000000
  0.500000  0.166667 -0.250000      2.000000
 -0.333333  0.166667  0.250000      2.000000
  0.333333  0.166667 -0.250000      2.000000
 -0.166667  0.166667  0.250000      2.000000
  0.166667  0.166667 -0.250000      2.000000
 -0.000000  0.333333  0.250000      2.000000
 -0.000000  0.333333 -0.250000      2.000000
  0.166667  0.333333  0.250000      2.000000
 -0.166667  0.333333 -0.250000      2.000000
  0.333333  0.333333  0.250000      2.000000
 -0.333333  0.333333 -0.250000      2.000000
  0.500000  0.333333  0.250000      2.000000
  0.500000  0.333333 -0.250000      2.000000
 -0.333333  0.333333  0.250000      2.000000
  0.333333  0.333333 -0.250000      2.000000
 -0.166667  0.333333  0.250000      2.000000
  0.166667  0.333333 -0.250000      2.000000
  0.000000  0.500000  0.250000      2.000000
  0.166667  0.500000  0.250000      2.000000
  0.333333  0.500000  0.250000      2.000000
  0.500000  0.500000  0.250000      2.000000
 -0.333333  0.500000  0.250000      2.000000
 -0.166667  0.500000  0.250000      2.000000
  0.000000  0.000000  0.500000      1.000000
  0.166667 -0.000000  0.500000      2.000000
  0.333333 -0.000000  0.500000      2.000000
  0.500000 -0.000000  0.500000      1.000000
 -0.000000  0.166667  0.500000      2.000000
  0.166667  0.166667  0.500000      2.000000
 -0.166667  0.166667  0.500000      2.000000
  0.333333  0.166667  0.500000      2.000000
 -0.333333  0.166667  0.500000      2.000000
  0.500000  0.166667  0.500000      2.000000
  0.000000  0.333333  0.500000      2.000000
  0.166667  0.333333  0.500000      2.000000
 -0.166667  0.333333  0.500000      2.000000
  0.333333  0.333333  0.500000      2.000000
 -0.333333  0.333333  0.500000      2.000000
  0.500000  0.333333  0.500000      2.000000
 -0.000000  0.500000  0.500000      1.000000
  0.166667  0.500000  0.500000      2.000000
  0.333333  0.500000  0.500000      2.000000
  0.500000  0.500000  0.500000      1.000000
 
 Following cartesian coordinates:
            Coordinates               Weight
  0.000000  0.000000  0.000000      1.000000
 -0.000000 -0.030718  0.008549      2.000000
 -0.000000 -0.061436  0.017099      2.000000
 -0.000000 -0.092154  0.025648      1.000000
 -0.030431 -0.000000 -0.000000      2.000000
 -0.030431 -0.030718  0.008549      2.000000
 -0.030431  0.030718 -0.008549      2.000000
 -0.030431 -0.061436  0.017099      2.000000
 -0.030431  0.061436 -0.017099      2.000000
 -0.030431 -0.092154  0.025648      2.000000
 -0.060863 -0.000000 -0.000000      2.000000
 -0.060863 -0.030718  0.008549      2.000000
 -0.060863  0.030718 -0.008549      2.000000
 -0.060863 -0.061436  0.017099      2.000000
 -0.060863  0.061436 -0.017099      2.000000
 -0.060863 -0.092154  0.025648      2.000000
 -0.091294 -0.000000 -0.000000      1.000000
 -0.091294 -0.030718  0.008549      2.000000
 -0.091294 -0.061436  0.017099      2.000000
 -0.091294 -0.092154  0.025648      1.000000
 -0.000000  0.000003 -0.025639      2.000000
 -0.000000 -0.030716 -0.017090      2.000000
 -0.000000 -0.061434 -0.008541      2.000000
 -0.000000 -0.092152  0.000009      2.000000
  0.000000  0.061439 -0.042738      2.000000
  0.000000  0.030721 -0.034189      2.000000
 -0.030431  0.000003 -0.025639      2.000000
 -0.030431 -0.000003  0.025639      2.000000
 -0.030431 -0.030716 -0.017090      2.000000
 -0.030431  0.030716  0.017090      2.000000
 -0.030431 -0.061434 -0.008541      2.000000
 -0.030431  0.061434  0.008541      2.000000
 -0.030431 -0.092152  0.000009      2.000000
 -0.030431 -0.092157  0.051288      2.000000
 -0.030431  0.061439 -0.042738      2.000000
 -0.030431 -0.061439  0.042738      2.000000
 -0.030431  0.030721 -0.034189      2.000000
 -0.030431 -0.030721  0.034189      2.000000
 -0.060863  0.000003 -0.025639      2.000000
 -0.060863 -0.000003  0.025639      2.000000
 -0.060863 -0.030716 -0.017090      2.000000
 -0.060863  0.030716  0.017090      2.000000
 -0.060863 -0.061434 -0.008541      2.000000
 -0.060863  0.061434  0.008541      2.000000
 -0.060863 -0.092152  0.000009      2.000000
 -0.060863 -0.092157  0.051288      2.000000
 -0.060863  0.061439 -0.042738      2.000000
 -0.060863 -0.061439  0.042738      2.000000
 -0.060863  0.030721 -0.034189      2.000000
 -0.060863 -0.030721  0.034189      2.000000
 -0.091294  0.000002 -0.025639      2.000000
 -0.091294 -0.030716 -0.017090      2.000000
 -0.091294 -0.061434 -0.008541      2.000000
 -0.091294 -0.092152  0.000009      2.000000
 -0.091294  0.061439 -0.042738      2.000000
 -0.091294  0.030721 -0.034189      2.000000
 -0.000000  0.000005 -0.051279      1.000000
 -0.000000 -0.030713 -0.042729      2.000000
 -0.000000 -0.061431 -0.034180      2.000000
 -0.000000 -0.092149 -0.025630      1.000000
 -0.030431  0.000005 -0.051279      2.000000
 -0.030431 -0.030713 -0.042729      2.000000
 -0.030431  0.030723 -0.059828      2.000000
 -0.030431 -0.061431 -0.034180      2.000000
 -0.030431  0.061441 -0.068378      2.000000
 -0.030431 -0.092149 -0.025631      2.000000
 -0.060863  0.000005 -0.051279      2.000000
 -0.060863 -0.030713 -0.042729      2.000000
 -0.060863  0.030723 -0.059828      2.000000
 -0.060863 -0.061431 -0.034180      2.000000
 -0.060863  0.061441 -0.068378      2.000000
 -0.060863 -0.092149 -0.025631      2.000000
 -0.091294  0.000005 -0.051279      1.000000
 -0.091294 -0.030713 -0.042729      2.000000
 -0.091294 -0.061431 -0.034180      2.000000
 -0.091294 -0.092149 -0.025631      1.000000
 


--------------------------------------------------------------------------------------------------------




 Dimension of arrays:
   k-points           NKPTS =     76   k-points in BZ     NKDIM =     76   number of bands    NBANDS=    111
   number of dos      NEDOS =    301   number of ions     NIONS =     24
   non local maximal  LDIM  =      6   non local SUM 2l+1 LMDIM =     18
   total plane-waves  NPLWV = 134400
   max r-space proj   IRMAX =   7711   max aug-charges    IRDMAX=  22328
   dimension x,y,z NGX =    40 NGY =   42 NGZ =   80
   dimension x,y,z NGXF=    80 NGYF=   84 NGZF=  160
   support grid    NGXF=    80 NGYF=   84 NGZF=  160
   ions per type =               6   4  14
   NGX,Y,Z   is equivalent  to a cutoff of  12.26, 12.75, 13.14 a.u.
   NGXF,Y,Z  is equivalent  to a cutoff of  24.51, 25.50, 26.28 a.u.

 SYSTEM =  unknown system                          
 POSCAR =  Ca6 Ti4 O14                             

 Startparameter for this run:
   NWRITE =      2    write-flag & timer
   PREC   = accura    normal or accurate (medium, high low for compatibility)
   ISTART =      0    job   : 0-new  1-cont  2-samecut
   ICHARG =      1    charge: 1-file 2-atom 10-const
   ISPIN  =      2    spin polarized calculation?
   LNONCOLLINEAR =      F non collinear calculations
   LSORBIT =      F    spin-orbit coupling
   INIWAV =      1    electr: 0-lowe 1-rand  2-diag
   LASPH  =      T    aspherical Exc in radial PAW
   METAGGA=      F    non-selfconsistent MetaGGA calc.

 Electronic Relaxation 1
   ENCUT  =  520.0 eV  38.22 Ry    6.18 a.u.  10.09 10.18 18.82*2*pi/ulx,y,z
   ENINI  =  520.0     initial cutoff
   ENAUG  =  605.4 eV  augmentation charge cutoff
   NELM   =    100;   NELMIN=  6; NELMDL= -5     # of ELM steps 
   EDIFF  = 0.1E-04   stopping-criterion for ELM
   LREAL  =      T    real-space projection
   NLSPLINE    = F    spline interpolate recip. space projectors
   LCOMPAT=      F    compatible to vasp.4.4
   GGA_COMPAT  = T    GGA compatible to vasp.4.4-vasp.4.6
   LMAXPAW     = -100 max onsite density
   LMAXMIX     =    4 max onsite mixed and CHGCAR
   VOSKOWN=      0    Vosko Wilk Nusair interpolation
   ROPT   =   -0.00025  -0.00025  -0.00025
 Ionic relaxation
   EDIFFG = -.3E-01   stopping-criterion for IOM
   NSW    =     99    number of steps for IOM
   NBLOCK =      1;   KBLOCK =     99    inner block; outer block 
   IBRION =      2    ionic relax: 0-MD 1-quasi-New 2-CG
   NFREE  =      1    steps in history (QN), initial steepest desc. (CG)
   ISIF   =      3    stress and relaxation
   IWAVPR =     11    prediction:  0-non 1-charg 2-wave 3-comb
   ISYM   =      0    0-nonsym 1-usesym 2-fastsym
   LCORR  =      T    Harris-Foulkes like correction to forces

   POTIM  = 0.5000    time-step for ionic-motion
   TEIN   =    0.0    initial temperature
   TEBEG  =    0.0;   TEEND  =   0.0 temperature during run
   SMASS  =  -3.00    Nose mass-parameter (am)
   estimated Nose-frequenzy (Omega)   =  0.10E-29 period in steps = 0.13E+47 mass=  -0.673E-27a.u.
   SCALEE = 1.0000    scale energy and forces
   NPACO  =    256;   APACO  = 16.0  distance and # of slots for P.C.
   PSTRESS=    0.0 pullay stress

  Mass of Ions in am
   POMASS =  40.08 47.88 16.00
  Ionic Valenz
   ZVAL   =  10.00 10.00  6.00
  Atomic Wigner-Seitz radii
   RWIGS  =  -1.00 -1.00 -1.00
  virtual crystal weights 
   VCA    =   1.00  1.00  1.00
   NELECT =     184.0000    total number of electrons
   NUPDOWN=      -1.0000    fix difference up-down

 DOS related values:
   EMIN   =  10.00;   EMAX   =-10.00  energy-range for DOS
   EFERMI =   0.00
   ISMEAR =     0;   SIGMA  =   0.05  broadening in eV -4-tet -1-fermi 0-gaus

 Electronic relaxation 2 (details)
   IALGO  =     38    algorithm
   LDIAG  =      T    sub-space diagonalisation (order eigenvalues)
   LSUBROT=      F    optimize rotation matrix (better conditioning)
   TURBO    =      0    0=normal 1=particle mesh
   IRESTART =      0    0=no restart 2=restart with 2 vectors
   NREBOOT  =      0    no. of reboots
   NMIN     =      0    reboot dimension
   EREF     =   0.00    reference energy to select bands
   IMIX   =      4    mixing-type and parameters
     AMIX     =   0.40;   BMIX     =  1.00
     AMIX_MAG =   1.60;   BMIX_MAG =  1.00
     AMIN     =   0.10
     WC   =   100.;   INIMIX=   1;  MIXPRE=   1;  MAXMIX= -45

 Intra band minimization:
   WEIMIN = 0.0010     energy-eigenvalue tresh-hold
   EBREAK =  0.23E-07  absolut break condition
   DEPER  =   0.30     relativ break condition  

   TIME   =   0.40     timestep for ELM

  volume/ion in A,a.u.               =      12.07        81.47
  Fermi-wavevector in a.u.,A,eV,Ry     =   1.407143  2.659114 26.940228  1.980051
  Thomas-Fermi vector in A             =   2.529432
 
 Write flags
   LWAVE        =      F    write WAVECAR
   LDOWNSAMPLE  =      F    k-point downsampling of WAVECAR
   LCHARG       =      T    write CHGCAR
   LVTOT        =      F    write LOCPOT, total local potential
   LVHAR        =      F    write LOCPOT, Hartree potential only
   LELF         =      F    write electronic localiz. function (ELF)
   LORBIT       =     11    0 simple, 1 ext, 2 COOP (PROOUT), +10 PAW based schemes


 Dipole corrections
   LMONO  =      F    monopole corrections only (constant potential shift)
   LDIPOL =      F    correct potential (dipole corrections)
   IDIPOL =      0    1-x, 2-y, 3-z, 4-all directions 
   EPSILON=  1.0000000 bulk dielectric constant

 LDA+U is selected, type is set to LDAUTYPE =  2
   angular momentum for each species LDAUL =    -1    2   -1
   U (eV)           for each species LDAUU =   0.0  2.5  0.0
   J (eV)           for each species LDAUJ =   0.0  0.0  0.0
 Exchange correlation treatment:
   GGA     =    --    GGA type
   LEXCH   =     8    internal setting for exchange type
   VOSKOWN=      0    Vosko Wilk Nusair interpolation
   LHFCALC =     F    Hartree Fock is set to
   LHFONE  =     F    Hartree Fock one center treatment
   AEXX    =    0.0000 exact exchange contribution

 Linear response parameters
   LEPSILON=     F    determine dielectric tensor
   LRPA    =     F    only Hartree local field effects (RPA)
   LNABLA  =     F    use nabla operator in PAW spheres
   LVEL    =     F    velocity operator in full k-point grid
   LINTERFAST=   F  fast interpolation
   KINTER  =     0    interpolate to denser k-point grid
   CSHIFT  =0.1000    complex shift for real part using Kramers Kronig
   OMEGAMAX=  -1.0    maximum frequency
   DEG_THRESHOLD= 0.2000000E-02 threshold for treating states as degnerate
   RTIME   =   -0.100 relaxation time in fs
  (WPLASMAI=    0.000 imaginary part of plasma frequency in eV, 0.658/RTIME)
   DFIELD  = 0.0000000 0.0000000 0.0000000 field for delta impulse in time
 
 Orbital magnetization related:
   ORBITALMAG=     F  switch on orbital magnetization
   LCHIMAG   =     F  perturbation theory with respect to B field
   DQ        =  0.001000  dq finite difference perturbation B field
   LLRAUG    =     F  two centre corrections for induced B field



--------------------------------------------------------------------------------------------------------


 conjugate gradient relaxation of ions
 charge density and potential will be updated during run
 spin polarized calculation
 Variant of blocked Davidson
 Davidson routine will perform the subspace rotation
 perform sub-space diagonalisation
    after iterative eigenvector-optimisation
 modified Broyden-mixing scheme, WC =      100.0
 initial mixing is a Kerker type mixing with AMIX =  0.4000 and BMIX =      1.0000
 Hartree-type preconditioning will be used
 using additional bands           19
 real space projection scheme for non local part
 use partial core corrections
 calculate Harris-corrections to forces 
   (improved forces if not selfconsistent)
 use gradient corrections 
 use of overlap-Matrix (Vanderbilt PP)
 Gauss-broadening in eV      SIGMA  =   0.05


--------------------------------------------------------------------------------------------------------


  energy-cutoff  :      520.00
  volume of cell :      289.75
      direct lattice vectors                 reciprocal lattice vectors
     0.000000797 -5.425844155 -0.000530952    -0.000000024 -0.184308139  0.051296660
    -5.476821149  0.000000826  0.000000363    -0.182587668 -0.000000027 -0.000000012
     0.000001064 -2.713865429 -9.750878204    -0.000000007  0.000010036 -0.102557658

  length of vectors
     5.425844181  5.476821149 10.121496496     0.191313453  0.182587668  0.102557659


 
 k-points in units of 2pi/SCALE and weight: K-points file                           
   0.00000000  0.00000000  0.00000000       0.007
  -0.00000000 -0.03071802  0.00854944       0.014
  -0.00000001 -0.06143605  0.01709889       0.014
  -0.00000001 -0.09215407  0.02564833       0.007
  -0.03043128 -0.00000000 -0.00000000       0.014
  -0.03043128 -0.03071803  0.00854944       0.014
  -0.03043127  0.03071802 -0.00854945       0.014
  -0.03043129 -0.06143605  0.01709888       0.014
  -0.03043127  0.06143604 -0.01709889       0.014
  -0.03043129 -0.09215407  0.02564833       0.014
  -0.06086256 -0.00000001 -0.00000000       0.014
  -0.06086256 -0.03071803  0.00854944       0.014
  -0.06086255  0.03071801 -0.00854945       0.014
  -0.06086256 -0.06143606  0.01709888       0.014
  -0.06086255  0.06143604 -0.01709889       0.014
  -0.06086257 -0.09215408  0.02564833       0.014
  -0.09129383 -0.00000001 -0.00000001       0.007
  -0.09129384 -0.03071804  0.00854944       0.014
  -0.09129384 -0.06143606  0.01709888       0.014
  -0.09129385 -0.09215408  0.02564832       0.007
  -0.00000000  0.00000251 -0.02563941       0.014
  -0.00000001 -0.03071551 -0.01708997       0.014
  -0.00000001 -0.06143354 -0.00854053       0.014
  -0.00000001 -0.09215156  0.00000892       0.014
   0.00000001  0.06143856 -0.04273830       0.014
   0.00000000  0.03072053 -0.03418886       0.014
  -0.03043128  0.00000250 -0.02563942       0.014
  -0.03043128 -0.00000251  0.02563941       0.014
  -0.03043128 -0.03071552 -0.01708997       0.014
  -0.03043127  0.03071551  0.01708997       0.014
  -0.03043129 -0.06143354 -0.00854053       0.014
  -0.03043127  0.06143353  0.00854053       0.014
  -0.03043129 -0.09215156  0.00000891       0.014
  -0.03043129 -0.09215658  0.05128774       0.014
  -0.03043127  0.06143855 -0.04273830       0.014
  -0.03043128 -0.06143856  0.04273830       0.014
  -0.03043128  0.03072053 -0.03418886       0.014
  -0.03043128 -0.03072054  0.03418886       0.014
  -0.06086256  0.00000250 -0.02563942       0.014
  -0.06086255 -0.00000252  0.02563941       0.014
  -0.06086256 -0.03071552 -0.01708998       0.014
  -0.06086255  0.03071551  0.01708997       0.014
  -0.06086257 -0.06143355 -0.00854053       0.014
  -0.06086255  0.06143353  0.00854052       0.014
  -0.06086257 -0.09215157  0.00000891       0.014
  -0.06086257 -0.09215659  0.05128774       0.014
  -0.06086255  0.06143855 -0.04273831       0.014
  -0.06086256 -0.06143856  0.04273830       0.014
  -0.06086255  0.03072052 -0.03418886       0.014
  -0.06086256 -0.03072054  0.03418885       0.014
  -0.09129384  0.00000250 -0.02563942       0.014
  -0.09129384 -0.03071553 -0.01708998       0.014
  -0.09129384 -0.06143355 -0.00854053       0.014
  -0.09129385 -0.09215157  0.00000891       0.014
  -0.09129383  0.06143854 -0.04273831       0.014
  -0.09129383  0.03072052 -0.03418886       0.014
  -0.00000000  0.00000502 -0.05127883       0.007
  -0.00000001 -0.03071301 -0.04272939       0.014
  -0.00000001 -0.06143103 -0.03417994       0.014
  -0.00000002 -0.09214905 -0.02563050       0.007
  -0.03043128  0.00000501 -0.05127883       0.014
  -0.03043129 -0.03071301 -0.04272939       0.014
  -0.03043128  0.03072304 -0.05982827       0.014
  -0.03043129 -0.06143103 -0.03417994       0.014
  -0.03043127  0.06144106 -0.06837772       0.014
  -0.03043129 -0.09214906 -0.02563050       0.014
  -0.06086256  0.00000501 -0.05127883       0.014
  -0.06086256 -0.03071301 -0.04272939       0.014
  -0.06086256  0.03072303 -0.05982828       0.014
  -0.06086257 -0.06143104 -0.03417995       0.014
  -0.06086255  0.06144106 -0.06837772       0.014
  -0.06086257 -0.09214906 -0.02563050       0.014
  -0.09129384  0.00000500 -0.05127884       0.007
  -0.09129384 -0.03071302 -0.04272939       0.014
  -0.09129385 -0.06143104 -0.03417995       0.014
  -0.09129385 -0.09214906 -0.02563051       0.007
 
 k-points in reciprocal lattice and weights: K-points file                           
   0.00000000  0.00000000  0.00000000       0.007
   0.16666667 -0.00000000 -0.00000000       0.014
   0.33333333 -0.00000000  0.00000000       0.014
   0.50000000 -0.00000000 -0.00000000       0.007
  -0.00000000  0.16666667  0.00000000       0.014
   0.16666667  0.16666667 -0.00000000       0.014
  -0.16666667  0.16666667 -0.00000000       0.014
   0.33333333  0.16666667 -0.00000000       0.014
  -0.33333333  0.16666667  0.00000000       0.014
   0.50000000  0.16666667  0.00000000       0.014
   0.00000000  0.33333333 -0.00000000       0.014
   0.16666667  0.33333333  0.00000000       0.014
  -0.16666667  0.33333333 -0.00000000       0.014
   0.33333333  0.33333333 -0.00000000       0.014
  -0.33333333  0.33333333  0.00000000       0.014
   0.50000000  0.33333333 -0.00000000       0.014
  -0.00000000  0.50000000  0.00000000       0.007
   0.16666667  0.50000000 -0.00000000       0.014
   0.33333333  0.50000000  0.00000000       0.014
   0.50000000  0.50000000 -0.00000000       0.007
   0.00000000  0.00000000  0.25000000       0.014
   0.16666667 -0.00000000  0.25000000       0.014
   0.33333333 -0.00000000  0.25000000       0.014
   0.50000000  0.00000000  0.25000000       0.014
  -0.33333333 -0.00000000  0.25000000       0.014
  -0.16666667  0.00000000  0.25000000       0.014
  -0.00000000  0.16666667  0.25000000       0.014
  -0.00000000  0.16666667 -0.25000000       0.014
   0.16666667  0.16666667  0.25000000       0.014
  -0.16666667  0.16666667 -0.25000000       0.014
   0.33333333  0.16666667  0.25000000       0.014
  -0.33333333  0.16666667 -0.25000000       0.014
   0.50000000  0.16666667  0.25000000       0.014
   0.50000000  0.16666667 -0.25000000       0.014
  -0.33333333  0.16666667  0.25000000       0.014
   0.33333333  0.16666667 -0.25000000       0.014
  -0.16666667  0.16666667  0.25000000       0.014
   0.16666667  0.16666667 -0.25000000       0.014
  -0.00000000  0.33333333  0.25000000       0.014
  -0.00000000  0.33333333 -0.25000000       0.014
   0.16666667  0.33333333  0.25000000       0.014
  -0.16666667  0.33333333 -0.25000000       0.014
   0.33333333  0.33333333  0.25000000       0.014
  -0.33333333  0.33333333 -0.25000000       0.014
   0.50000000  0.33333333  0.25000000       0.014
   0.50000000  0.33333333 -0.25000000       0.014
  -0.33333333  0.33333333  0.25000000       0.014
   0.33333333  0.33333333 -0.25000000       0.014
  -0.16666667  0.33333333  0.25000000       0.014
   0.16666667  0.33333333 -0.25000000       0.014
   0.00000000  0.50000000  0.25000000       0.014
   0.16666667  0.50000000  0.25000000       0.014
   0.33333333  0.50000000  0.25000000       0.014
   0.50000000  0.50000000  0.25000000       0.014
  -0.33333333  0.50000000  0.25000000       0.014
  -0.16666667  0.50000000  0.25000000       0.014
   0.00000000  0.00000000  0.50000000       0.007
   0.16666667 -0.00000000  0.50000000       0.014
   0.33333333 -0.00000000  0.50000000       0.014
   0.50000000 -0.00000000  0.50000000       0.007
  -0.00000000  0.16666667  0.50000000       0.014
   0.16666667  0.16666667  0.50000000       0.014
  -0.16666667  0.16666667  0.50000000       0.014
   0.33333333  0.16666667  0.50000000       0.014
  -0.33333333  0.16666667  0.50000000       0.014
   0.50000000  0.16666667  0.50000000       0.014
   0.00000000  0.33333333  0.50000000       0.014
   0.16666667  0.33333333  0.50000000       0.014
  -0.16666667  0.33333333  0.50000000       0.014
   0.33333333  0.33333333  0.50000000       0.014
  -0.33333333  0.33333333  0.50000000       0.014
   0.50000000  0.33333333  0.50000000       0.014
  -0.00000000  0.50000000  0.50000000       0.007
   0.16666667  0.50000000  0.50000000       0.014
   0.33333333  0.50000000  0.50000000       0.014
   0.50000000  0.50000000  0.50000000       0.007
 
 position of ions in fractional coordinates (direct lattice) 
   0.25487655  0.44575746  0.99976700
   0.74512377  0.94575772  0.00023302
   0.92962810  0.02602427  0.62397922
   0.55206847  0.02557484  0.37629916
   0.07037136  0.52602406  0.37602114
   0.44793114  0.52557454  0.62370099
   0.34901811  0.98843775  0.80115660
   0.14953408  0.98849378  0.19863319
   0.65098182  0.48843748  0.19884369
   0.85046628  0.48849430  0.80136647
   0.82339273  0.50600370  0.00002894
   0.17660737  0.00600323  0.99997111
   0.88355054  0.46745596  0.60447453
   0.48756968  0.46762184  0.39553918
   0.11644906  0.96745618  0.39552539
   0.51243037  0.96762217  0.60446083
   0.62569229  0.19504440  0.83235006
   0.45745392  0.19510424  0.16786873
   0.37430835  0.69504468  0.16764937
   0.54254611  0.69510491  0.83213128
   0.15448746  0.27806785  0.77523327
   0.92917424  0.27791311  0.22455538
   0.84551220  0.77806824  0.22476685
   0.07082600  0.77791326  0.77544459
 
 position of ions in cartesian coordinates  (Angst):
  -2.44133264 -4.09615315 -9.74874143
  -5.17974530 -4.04355706 -0.00266747
  -0.14252889 -6.73741280 -6.08483896
  -0.14006800 -4.01666276 -3.66954044
  -2.88093925 -1.40229435 -3.66657353
  -2.87847672 -4.12304466 -6.08187003
  -5.41349566 -4.06794826 -7.81216541
  -5.41380330 -1.35041154 -1.93692705
  -2.67508398 -4.07176049 -1.93924607
  -2.67539437 -6.78929785 -7.81447822
  -2.77129113 -4.46767878 -0.00071920
  -0.03287739 -3.67203110 -9.75069024
  -2.56017132 -6.43446967 -5.89462648
  -2.56108039 -3.71891683 -3.85711312
  -5.29858398 -1.70523633 -3.85678141
  -5.29949251 -4.42079188 -5.89429564
  -1.06822193 -5.65379477 -8.11647619
  -1.06855046 -2.93764669 -1.63711039
  -3.80663495 -2.48591604 -1.63492708
  -3.80696398 -5.20206238 -8.11429856
  -1.52292695 -2.94210342 -7.55928711
  -1.52207943 -5.65096747 -2.19010538
  -4.26133970 -5.19760377 -2.19212279
  -4.26049094 -2.48874246 -7.56130304
 


--------------------------------------------------------------------------------------------------------


 k-point   1 :   0.0000 0.0000 0.0000  plane waves:    7831
 k-point   2 :   0.1667-0.0000-0.0000  plane waves:    7795
 k-point   3 :   0.3333-0.0000 0.0000  plane waves:    7785
 k-point   4 :   0.5000-0.0000-0.0000  plane waves:    7814
 k-point   5 :  -0.0000 0.1667 0.0000  plane waves:    7811
 k-point   6 :   0.1667 0.1667-0.0000  plane waves:    7797
 k-point   7 :  -0.1667 0.1667-0.0000  plane waves:    7797
 k-point   8 :   0.3333 0.1667-0.0000  plane waves:    7806
 k-point   9 :  -0.3333 0.1667 0.0000  plane waves:    7806
 k-point  10 :   0.5000 0.1667 0.0000  plane waves:    7798
 k-point  11 :   0.0000 0.3333-0.0000  plane waves:    7788
 k-point  12 :   0.1667 0.3333 0.0000  plane waves:    7789
 k-point  13 :  -0.1667 0.3333-0.0000  plane waves:    7789
 k-point  14 :   0.3333 0.3333-0.0000  plane waves:    7809
 k-point  15 :  -0.3333 0.3333 0.0000  plane waves:    7809
 k-point  16 :   0.5000 0.3333-0.0000  plane waves:    7814
 k-point  17 :  -0.0000 0.5000 0.0000  plane waves:    7772
 k-point  18 :   0.1667 0.5000-0.0000  plane waves:    7800
 k-point  19 :   0.3333 0.5000 0.0000  plane waves:    7824
 k-point  20 :   0.5000 0.5000-0.0000  plane waves:    7804
 k-point  21 :   0.0000 0.0000 0.2500  plane waves:    7792
 k-point  22 :   0.1667-0.0000 0.2500  plane waves:    7796
 k-point  23 :   0.3333-0.0000 0.2500  plane waves:    7793
 k-point  24 :   0.5000 0.0000 0.2500  plane waves:    7818
 k-point  25 :  -0.3333-0.0000 0.2500  plane waves:    7800
 k-point  26 :  -0.1667 0.0000 0.2500  plane waves:    7797
 k-point  27 :  -0.0000 0.1667 0.2500  plane waves:    7794
 k-point  28 :  -0.0000 0.1667-0.2500  plane waves:    7794
 k-point  29 :   0.1667 0.1667 0.2500  plane waves:    7800
 k-point  30 :  -0.1667 0.1667-0.2500  plane waves:    7800
 k-point  31 :   0.3333 0.1667 0.2500  plane waves:    7799
 k-point  32 :  -0.3333 0.1667-0.2500  plane waves:    7799
 k-point  33 :   0.5000 0.1667 0.2500  plane waves:    7800
 k-point  34 :   0.5000 0.1667-0.2500  plane waves:    7800
 k-point  35 :  -0.3333 0.1667 0.2500  plane waves:    7791
 k-point  36 :   0.3333 0.1667-0.2500  plane waves:    7791
 k-point  37 :  -0.1667 0.1667 0.2500  plane waves:    7794
 k-point  38 :   0.1667 0.1667-0.2500  plane waves:    7794
 k-point  39 :  -0.0000 0.3333 0.2500  plane waves:    7789
 k-point  40 :  -0.0000 0.3333-0.2500  plane waves:    7789
 k-point  41 :   0.1667 0.3333 0.2500  plane waves:    7798
 k-point  42 :  -0.1667 0.3333-0.2500  plane waves:    7798
 k-point  43 :   0.3333 0.3333 0.2500  plane waves:    7797
 k-point  44 :  -0.3333 0.3333-0.2500  plane waves:    7797
 k-point  45 :   0.5000 0.3333 0.2500  plane waves:    7820
 k-point  46 :   0.5000 0.3333-0.2500  plane waves:    7820
 k-point  47 :  -0.3333 0.3333 0.2500  plane waves:    7825
 k-point  48 :   0.3333 0.3333-0.2500  plane waves:    7825
 k-point  49 :  -0.1667 0.3333 0.2500  plane waves:    7804
 k-point  50 :   0.1667 0.3333-0.2500  plane waves:    7804
 k-point  51 :   0.0000 0.5000 0.2500  plane waves:    7794
 k-point  52 :   0.1667 0.5000 0.2500  plane waves:    7792
 k-point  53 :   0.3333 0.5000 0.2500  plane waves:    7826
 k-point  54 :   0.5000 0.5000 0.2500  plane waves:    7802
 k-point  55 :  -0.3333 0.5000 0.2500  plane waves:    7818
 k-point  56 :  -0.1667 0.5000 0.2500  plane waves:    7792
 k-point  57 :   0.0000 0.0000 0.5000  plane waves:    7806
 k-point  58 :   0.1667-0.0000 0.5000  plane waves:    7794
 k-point  59 :   0.3333-0.0000 0.5000  plane waves:    7795
 k-point  60 :   0.5000-0.0000 0.5000  plane waves:    7810
 k-point  61 :  -0.0000 0.1667 0.5000  plane waves:    7782
 k-point  62 :   0.1667 0.1667 0.5000  plane waves:    7793
 k-point  63 :  -0.1667 0.1667 0.5000  plane waves:    7793
 k-point  64 :   0.3333 0.1667 0.5000  plane waves:    7795
 k-point  65 :  -0.3333 0.1667 0.5000  plane waves:    7795
 k-point  66 :   0.5000 0.1667 0.5000  plane waves:    7798
 k-point  67 :   0.0000 0.3333 0.5000  plane waves:    7798
 k-point  68 :   0.1667 0.3333 0.5000  plane waves:    7801
 k-point  69 :  -0.1667 0.3333 0.5000  plane waves:    7801
 k-point  70 :   0.3333 0.3333 0.5000  plane waves:    7821
 k-point  71 :  -0.3333 0.3333 0.5000  plane waves:    7821
 k-point  72 :   0.5000 0.3333 0.5000  plane waves:    7810
 k-point  73 :  -0.0000 0.5000 0.5000  plane waves:    7816
 k-point  74 :   0.1667 0.5000 0.5000  plane waves:    7806
 k-point  75 :   0.3333 0.5000 0.5000  plane waves:    7814
 k-point  76 :   0.5000 0.5000 0.5000  plane waves:    7808

 maximum and minimum number of plane-waves per node :      1981     1921

 maximum number of plane-waves:      7831
 maximum index in each direction: 
   IXMAX=   10   IYMAX=   10   IZMAX=   19
   IXMIN=  -10   IYMIN=  -10   IZMIN=  -19


 real space projection operators:
  total allocation   :      12216.45 KBytes
  max/ min on nodes  :       3079.44       3027.31


 parallel 3D FFT for wavefunctions:
    minimum data exchange during FFTs selected (reduces bandwidth)
 parallel 3D FFT for charge:
    minimum data exchange during FFTs selected (reduces bandwidth)


 total amount of memory used by VASP MPI-rank0   241458. kBytes
=======================================================================

   base      :      30000. kBytes
   nonlr-proj:       6922. kBytes
   fftplans  :       4154. kBytes
   grid      :      14739. kBytes
   one-center:        186. kBytes
   wavefun   :     185457. kBytes
 
     INWAV:  cpu time    0.0000: real time    0.0000
 Broyden mixing: mesh for mixing (old mesh)
   NGX = 21   NGY = 21   NGZ = 37
  (NGX  = 80   NGY  = 84   NGZ  =160)
  gives a total of  16317 points

 initial charge density was supplied:
 charge density of overlapping atoms calculated
 number of electron     184.0000000 magnetization       1.4400000
 keeping initial charge density in first step


--------------------------------------------------------------------------------------------------------


 Maximum index for non-local projection operator         1886
 Maximum index for augmentation-charges         2035 (set IRDMAX)


--------------------------------------------------------------------------------------------------------


 First call to EWALD:  gamma=   0.268
 Maximum number of real-space cells 3x 3x 2
 Maximum number of reciprocal cells 2x 2x 4

    FEWALD:  cpu time    0.0011: real time    0.0011


--------------------------------------- Iteration      1(   1)  ---------------------------------------


    POTLOK:  cpu time    0.3515: real time    0.3516
    SETDIJ:  cpu time    1.5686: real time    1.5686
atom =   7  type =  2  l = 2
 
 onsite density matrix
 
spin component  1
 
  0.2308  0.0000  0.0000  0.0000  0.0000
  0.0000  0.2308  0.0000  0.0000  0.0000
  0.0000  0.0000  0.2308  0.0000  0.0000
  0.0000  0.0000  0.0000  0.2308  0.0000
  0.0000  0.0000  0.0000  0.0000  0.2308
 
spin component  2
 
  0.2280  0.0000  0.0000  0.0000  0.0000
  0.0000  0.2280  0.0000  0.0000  0.0000
  0.0000  0.0000  0.2280  0.0000  0.0000
  0.0000  0.0000  0.0000  0.2280  0.0000
  0.0000  0.0000  0.0000  0.0000  0.2280
 
 occupancies and eigenvectors
 
  o =  0.2280  v =  0.0000  0.0000  0.0000  0.0000  0.0000  0.0000  0.0000  0.0000  0.7071  0.7071      0.0000  0.0000  0.0000  0.0000  0.0000  0.0000  0.0000  0.0000  0.0000  0.0000
  o =  0.2280  v =  0.0000  0.0000  0.0000  0.0000  0.0000  1.0000  0.0000  0.0000  0.0000  0.0000      0.0000  0.0000  0.0000  0.0000  0.0000  0.0000  0.0000  0.0000  0.0000  0.0000
  o =  0.2280  v =  0.0000  0.0000  0.0000  0.0000  0.0000  0.0000  1.0000  0.0000  0.0000  0.0000      0.0000  0.0000  0.0000  0.0000  0.0000  0.0000  0.0000  0.0000  0.0000  0.0000
  o =  0.2280  v =  0.0000  0.0000  0.0000  0.0000  0.0000  0.0000  0.0000  1.0000  0.0000  0.0000      0.0000  0.0000  0.0000  0.0000  0.0000  0.0000  0.0000  0.0000  0.0000  0.0000
  o =  0.2280  v =  0.0000  0.0000  0.0000  0.0000  0.0000  0.0000  0.0000  0.0000 -0.7071  0.7071      0.0000  0.0000  0.0000  0.0000  0.0000  0.0000  0.0000  0.0000  0.0000  0.0000
  o =  0.2308  v =  0.0000  1.0000  0.0000  0.0000  0.0000  0.0000  0.0000  0.0000  0.0000  0.0000      0.0000  0.0000  0.0000  0.0000  0.0000  0.0000  0.0000  0.0000  0.0000  0.0000
  o =  0.2308  v =  0.0000  0.0000  1.0000  0.0000  0.0000  0.0000  0.0000  0.0000  0.0000  0.0000      0.0000  0.0000  0.0000  0.0000  0.0000  0.0000  0.0000  0.0000  0.0000  0.0000
  o =  0.2308  v =  0.0000  0.0000  0.0000  0.0000 -1.0000  0.0000  0.0000  0.0000  0.0000  0.0000      0.0000  0.0000  0.0000  0.0000  0.0000  0.0000  0.0000  0.0000  0.0000  0.0000
  o =  0.2308  v =  0.0000  0.0000  0.0000 -1.0000  0.0000  0.0000  0.0000  0.0000  0.0000  0.0000      0.0000  0.0000  0.0000  0.0000  0.0000  0.0000  0.0000  0.0000  0.0000  0.0000
  o =  0.2308  v =  1.0000  0.0000  0.0000  0.0000  0.0000  0.0000  0.0000  0.0000  0.0000  0.0000      0.0000  0.0000  0.0000  0.0000  0.0000  0.0000  0.0000  0.0000  0.0000  0.0000
atom =   8  type =  2  l = 2
 
 onsite density matrix
 
spin component  1
 
  0.2308  0.0000  0.0000  0.0000  0.0000
  0.0000  0.2308  0.0000  0.0000  0.0000
  0.0000  0.0000  0.2308  0.0000  0.0000
  0.0000  0.0000  0.0000  0.2308  0.0000
  0.0000  0.0000  0.0000  0.0000  0.2308
 
spin component  2
 
  0.2280  0.0000  0.0000  0.0000  0.0000
  0.0000  0.2280  0.0000  0.0000  0.0000
  0.0000  0.0000  0.2280  0.0000  0.0000
  0.0000  0.0000  0.0000  0.2280  0.0000
  0.0000  0.0000  0.0000  0.0000  0.2280
 
 occupancies and eigenvectors
 
  o =  0.2280  v =  0.0000  0.0000  0.0000  0.0000  0.0000  0.0000  0.0000  0.0000  0.7071  0.7071      0.0000  0.0000  0.0000  0.0000  0.0000  0.0000  0.0000  0.0000  0.0000  0.0000
  o =  0.2280  v =  0.0000  0.0000  0.0000  0.0000  0.0000  1.0000  0.0000  0.0000  0.0000  0.0000      0.0000  0.0000  0.0000  0.0000  0.0000  0.0000  0.0000  0.0000  0.0000  0.0000
  o =  0.2280  v =  0.0000  0.0000  0.0000  0.0000  0.0000  0.0000  1.0000  0.0000  0.0000  0.0000      0.0000  0.0000  0.0000  0.0000  0.0000  0.0000  0.0000  0.0000  0.0000  0.0000
  o =  0.2280  v =  0.0000  0.0000  0.0000  0.0000  0.0000  0.0000  0.0000  1.0000  0.0000  0.0000      0.0000  0.0000  0.0000  0.0000  0.0000  0.0000  0.0000  0.0000  0.0000  0.0000
  o =  0.2280  v =  0.0000  0.0000  0.0000  0.0000  0.0000  0.0000  0.0000  0.0000 -0.7071  0.7071      0.0000  0.0000  0.0000  0.0000  0.0000  0.0000  0.0000  0.0000  0.0000  0.0000
  o =  0.2308  v =  0.0000  1.0000  0.0000  0.0000  0.0000  0.0000  0.0000  0.0000  0.0000  0.0000      0.0000  0.0000  0.0000  0.0000  0.0000  0.0000  0.0000  0.0000  0.0000  0.0000
  o =  0.2308  v =  0.0000  0.0000  1.0000  0.0000  0.0000  0.0000  0.0000  0.0000  0.0000  0.0000      0.0000  0.0000  0.0000  0.0000  0.0000  0.0000  0.0000  0.0000  0.0000  0.0000
  o =  0.2308  v =  0.0000  0.0000  0.0000  0.0000 -1.0000  0.0000  0.0000  0.0000  0.0000  0.0000      0.0000  0.0000  0.0000  0.0000  0.0000  0.0000  0.0000  0.0000  0.0000  0.0000
  o =  0.2308  v =  0.0000  0.0000  0.0000 -1.0000  0.0000  0.0000  0.0000  0.0000  0.0000  0.0000      0.0000  0.0000  0.0000  0.0000  0.0000  0.0000  0.0000  0.0000  0.0000  0.0000
  o =  0.2308  v =  1.0000  0.0000  0.0000  0.0000  0.0000  0.0000  0.0000  0.0000  0.0000  0.0000      0.0000  0.0000  0.0000  0.0000  0.0000  0.0000  0.0000  0.0000  0.0000  0.0000
atom =   9  type =  2  l = 2
 
 onsite density matrix
 
spin component  1
 
  0.2308  0.0000  0.0000  0.0000  0.0000
  0.0000  0.2308  0.0000  0.0000  0.0000
  0.0000  0.0000  0.2308  0.0000  0.0000
  0.0000  0.0000  0.0000  0.2308  0.0000
  0.0000  0.0000  0.0000  0.0000  0.2308
 
spin component  2
 
  0.2280  0.0000  0.0000  0.0000  0.0000
  0.0000  0.2280  0.0000  0.0000  0.0000
  0.0000  0.0000  0.2280  0.0000  0.0000
  0.0000  0.0000  0.0000  0.2280  0.0000
  0.0000  0.0000  0.0000  0.0000  0.2280
 
 occupancies and eigenvectors
 
  o =  0.2280  v =  0.0000  0.0000  0.0000  0.0000  0.0000  0.0000  0.0000  0.0000  0.7071  0.7071      0.0000  0.0000  0.0000  0.0000  0.0000  0.0000  0.0000  0.0000  0.0000  0.0000
  o =  0.2280  v =  0.0000  0.0000  0.0000  0.0000  0.0000  1.0000  0.0000  0.0000  0.0000  0.0000      0.0000  0.0000  0.0000  0.0000  0.0000  0.0000  0.0000  0.0000  0.0000  0.0000
  o =  0.2280  v =  0.0000  0.0000  0.0000  0.0000  0.0000  0.0000  1.0000  0.0000  0.0000  0.0000      0.0000  0.0000  0.0000  0.0000  0.0000  0.0000  0.0000  0.0000  0.0000  0.0000
  o =  0.2280  v =  0.0000  0.0000  0.0000  0.0000  0.0000  0.0000  0.0000  1.0000  0.0000  0.0000      0.0000  0.0000  0.0000  0.0000  0.0000  0.0000  0.0000  0.0000  0.0000  0.0000
  o =  0.2280  v =  0.0000  0.0000  0.0000  0.0000  0.0000  0.0000  0.0000  0.0000 -0.7071  0.7071      0.0000  0.0000  0.0000  0.0000  0.0000  0.0000  0.0000  0.0000  0.0000  0.0000
  o =  0.2308  v =  0.0000  1.0000  0.0000  0.0000  0.0000  0.0000  0.0000  0.0000  0.0000  0.0000      0.0000  0.0000  0.0000  0.0000  0.0000  0.0000  0.0000  0.0000  0.0000  0.0000
  o =  0.2308  v =  0.0000  0.0000  1.0000  0.0000  0.0000  0.0000  0.0000  0.0000  0.0000  0.0000      0.0000  0.0000  0.0000  0.0000  0.0000  0.0000  0.0000  0.0000  0.0000  0.0000
  o =  0.2308  v =  0.0000  0.0000  0.0000  0.0000 -1.0000  0.0000  0.0000  0.0000  0.0000  0.0000      0.0000  0.0000  0.0000  0.0000  0.0000  0.0000  0.0000  0.0000  0.0000  0.0000
  o =  0.2308  v =  0.0000  0.0000  0.0000 -1.0000  0.0000  0.0000  0.0000  0.0000  0.0000  0.0000      0.0000  0.0000  0.0000  0.0000  0.0000  0.0000  0.0000  0.0000  0.0000  0.0000
  o =  0.2308  v =  1.0000  0.0000  0.0000  0.0000  0.0000  0.0000  0.0000  0.0000  0.0000  0.0000      0.0000  0.0000  0.0000  0.0000  0.0000  0.0000  0.0000  0.0000  0.0000  0.0000
atom =  10  type =  2  l = 2
 
 onsite density matrix
 
spin component  1
 
  0.2308  0.0000  0.0000  0.0000  0.0000
  0.0000  0.2308  0.0000  0.0000  0.0000
  0.0000  0.0000  0.2308  0.0000  0.0000
  0.0000  0.0000  0.0000  0.2308  0.0000
  0.0000  0.0000  0.0000  0.0000  0.2308
 
spin component  2
 
  0.2280  0.0000  0.0000  0.0000  0.0000
  0.0000  0.2280  0.0000  0.0000  0.0000
  0.0000  0.0000  0.2280  0.0000  0.0000
  0.0000  0.0000  0.0000  0.2280  0.0000
  0.0000  0.0000  0.0000  0.0000  0.2280
 
 occupancies and eigenvectors
 
  o =  0.2280  v =  0.0000  0.0000  0.0000  0.0000  0.0000  0.0000  0.0000  0.0000  0.7071  0.7071      0.0000  0.0000  0.0000  0.0000  0.0000  0.0000  0.0000  0.0000  0.0000  0.0000
  o =  0.2280  v =  0.0000  0.0000  0.0000  0.0000  0.0000  1.0000  0.0000  0.0000  0.0000  0.0000      0.0000  0.0000  0.0000  0.0000  0.0000  0.0000  0.0000  0.0000  0.0000  0.0000
  o =  0.2280  v =  0.0000  0.0000  0.0000  0.0000  0.0000  0.0000  1.0000  0.0000  0.0000  0.0000      0.0000  0.0000  0.0000  0.0000  0.0000  0.0000  0.0000  0.0000  0.0000  0.0000
  o =  0.2280  v =  0.0000  0.0000  0.0000  0.0000  0.0000  0.0000  0.0000  1.0000  0.0000  0.0000      0.0000  0.0000  0.0000  0.0000  0.0000  0.0000  0.0000  0.0000  0.0000  0.0000
  o =  0.2280  v =  0.0000  0.0000  0.0000  0.0000  0.0000  0.0000  0.0000  0.0000 -0.7071  0.7071      0.0000  0.0000  0.0000  0.0000  0.0000  0.0000  0.0000  0.0000  0.0000  0.0000
  o =  0.2308  v =  0.0000  1.0000  0.0000  0.0000  0.0000  0.0000  0.0000  0.0000  0.0000  0.0000      0.0000  0.0000  0.0000  0.0000  0.0000  0.0000  0.0000  0.0000  0.0000  0.0000
  o =  0.2308  v =  0.0000  0.0000  1.0000  0.0000  0.0000  0.0000  0.0000  0.0000  0.0000  0.0000      0.0000  0.0000  0.0000  0.0000  0.0000  0.0000  0.0000  0.0000  0.0000  0.0000
  o =  0.2308  v =  0.0000  0.0000  0.0000  0.0000 -1.0000  0.0000  0.0000  0.0000  0.0000  0.0000      0.0000  0.0000  0.0000  0.0000  0.0000  0.0000  0.0000  0.0000  0.0000  0.0000
  o =  0.2308  v =  0.0000  0.0000  0.0000 -1.0000  0.0000  0.0000  0.0000  0.0000  0.0000  0.0000      0.0000  0.0000  0.0000  0.0000  0.0000  0.0000  0.0000  0.0000  0.0000  0.0000
  o =  0.2308  v =  1.0000  0.0000  0.0000  0.0000  0.0000  0.0000  0.0000  0.0000  0.0000  0.0000      0.0000  0.0000  0.0000  0.0000  0.0000  0.0000  0.0000  0.0000  0.0000  0.0000
     EDDAV:  cpu time  211.3573: real time  211.3731
       DOS:  cpu time    0.0119: real time    0.0119
    --------------------------------------------
      LOOP:  cpu time  213.2894: real time  213.3052

 eigenvalue-minimisations  : 33744
 total energy-change (2. order) : 0.2538413E+04  (-0.9257116E+04)
 number of electron     184.0000000 magnetization       1.4400000
 augmentation part      184.0000000 magnetization       1.4400000

 Free energy of the ion-electron system (eV)
  ---------------------------------------------------
  alpha Z        PSCENC =       966.58954730
  Ewald energy   TEWEN  =    -12380.33322909
  -Hartree energ DENC   =     -3757.54839067
  -exchange      EXHF   =         0.00000000
  -V(xc)+E(xc)   XCENC  =       916.65689630
  PAW double counting   =     12459.71761835   -12506.83249871
  entropy T*S    EENTRO =        -0.00793450
  eigenvalues    EBANDS =       580.23723025
  atomic energy  EATOM  =     16259.93422758
  Solvation  Ediel_sol  =         0.00000000
  ---------------------------------------------------
  free energy    TOTEN  =      2538.41346680 eV

  energy without entropy =     2538.42140130  energy(sigma->0) =     2538.41743405


--------------------------------------------------------------------------------------------------------




--------------------------------------- Iteration      1(   2)  ---------------------------------------


     EDDAV:  cpu time  215.2041: real time  215.2205
       DOS:  cpu time    0.0123: real time    0.0123
    --------------------------------------------
      LOOP:  cpu time  215.2164: real time  215.2328

 eigenvalue-minimisations  : 33753
 total energy-change (2. order) :-0.2430305E+04  (-0.2351731E+04)
 number of electron     184.0000000 magnetization       1.4400000
 augmentation part      184.0000000 magnetization       1.4400000

 Free energy of the ion-electron system (eV)
  ---------------------------------------------------
  alpha Z        PSCENC =       966.58954730
  Ewald energy   TEWEN  =    -12380.33322909
  -Hartree energ DENC   =     -3757.54839067
  -exchange      EXHF   =         0.00000000
  -V(xc)+E(xc)   XCENC  =       916.65689630
  PAW double counting   =     12459.71761835   -12506.83249871
  entropy T*S    EENTRO =        -0.00849956
  eigenvalues    EBANDS =     -1850.06724356
  atomic energy  EATOM  =     16259.93422758
  Solvation  Ediel_sol  =         0.00000000
  ---------------------------------------------------
  free energy    TOTEN  =       108.10842793 eV

  energy without entropy =      108.11692750  energy(sigma->0) =      108.11267771


--------------------------------------------------------------------------------------------------------




--------------------------------------- Iteration      1(   3)  ---------------------------------------


     EDDAV:  cpu time  266.9068: real time  266.9205
       DOS:  cpu time    0.0040: real time    0.0040
    --------------------------------------------
      LOOP:  cpu time  266.9108: real time  266.9246

 eigenvalue-minimisations  : 46650
 total energy-change (2. order) :-0.4622230E+03  (-0.4531638E+03)
 number of electron     184.0000000 magnetization       1.4400000
 augmentation part      184.0000000 magnetization       1.4400000

 Free energy of the ion-electron system (eV)
  ---------------------------------------------------
  alpha Z        PSCENC =       966.58954730
  Ewald energy   TEWEN  =    -12380.33322909
  -Hartree energ DENC   =     -3757.54839067
  -exchange      EXHF   =         0.00000000
  -V(xc)+E(xc)   XCENC  =       916.65689630
  PAW double counting   =     12459.71761835   -12506.83249871
  entropy T*S    EENTRO =        -0.00000000
  eigenvalues    EBANDS =     -2312.29875114
  atomic energy  EATOM  =     16259.93422758
  Solvation  Ediel_sol  =         0.00000000
  ---------------------------------------------------
  free energy    TOTEN  =      -354.11458008 eV

  energy without entropy =     -354.11458008  energy(sigma->0) =     -354.11458008


--------------------------------------------------------------------------------------------------------




--------------------------------------- Iteration      1(   4)  ---------------------------------------


     EDDAV:  cpu time  263.6191: real time  263.6335
       DOS:  cpu time    0.0038: real time    0.0038
    --------------------------------------------
      LOOP:  cpu time  263.6229: real time  263.6373

 eigenvalue-minimisations  : 45735
 total energy-change (2. order) :-0.2573125E+02  (-0.2564320E+02)
 number of electron     184.0000000 magnetization       1.4400000
 augmentation part      184.0000000 magnetization       1.4400000

 Free energy of the ion-electron system (eV)
  ---------------------------------------------------
  alpha Z        PSCENC =       966.58954730
  Ewald energy   TEWEN  =    -12380.33322909
  -Hartree energ DENC   =     -3757.54839067
  -exchange      EXHF   =         0.00000000
  -V(xc)+E(xc)   XCENC  =       916.65689630
  PAW double counting   =     12459.71761835   -12506.83249871
  entropy T*S    EENTRO =        -0.00000000
  eigenvalues    EBANDS =     -2338.03000471
  atomic energy  EATOM  =     16259.93422758
  Solvation  Ediel_sol  =         0.00000000
  ---------------------------------------------------
  free energy    TOTEN  =      -379.84583365 eV

  energy without entropy =     -379.84583365  energy(sigma->0) =     -379.84583365


--------------------------------------------------------------------------------------------------------




--------------------------------------- Iteration      1(   5)  ---------------------------------------


     EDDAV:  cpu time  341.7910: real time  341.8116
       DOS:  cpu time    0.0040: real time    0.0040
    CHARGE:  cpu time   24.9448: real time   24.9458
    MIXING:  cpu time    0.0066: real time    0.0066
    --------------------------------------------
      LOOP:  cpu time  366.7463: real time  366.7680

 eigenvalue-minimisations  : 66327
 total energy-change (2. order) :-0.1795810E+01  (-0.1792094E+01)
 number of electron     183.9999964 magnetization       0.7639960
 augmentation part       41.7556520 magnetization       0.7965971

 Broyden mixing:
  rms(total) = 0.61489E+01    rms(broyden)= 0.61487E+01
  rms(prec ) = 0.72038E+01
  weight for this iteration     100.00

 Free energy of the ion-electron system (eV)
  ---------------------------------------------------
  alpha Z        PSCENC =       966.58954730
  Ewald energy   TEWEN  =    -12380.33322909
  -Hartree energ DENC   =     -3757.54839067
  -exchange      EXHF   =         0.00000000
  -V(xc)+E(xc)   XCENC  =       916.65689630
  PAW double counting   =     12459.71761835   -12506.83249871
  entropy T*S    EENTRO =        -0.00000000
  eigenvalues    EBANDS =     -2339.82581476
  atomic energy  EATOM  =     16259.93422758
  Solvation  Ediel_sol  =         0.00000000
  ---------------------------------------------------
  free energy    TOTEN  =      -381.64164371 eV

  energy without entropy =     -381.64164371  energy(sigma->0) =     -381.64164371


--------------------------------------------------------------------------------------------------------




--------------------------------------- Iteration      1(   6)  ---------------------------------------


    POTLOK:  cpu time    0.3636: real time    0.3638
    SETDIJ:  cpu time    1.7767: real time    1.7767
atom =   7  type =  2  l = 2
 
 onsite density matrix
 
spin component  1
 
  0.1906  0.0018 -0.0008  0.0079 -0.0133
  0.0018  0.1573 -0.0142 -0.0009 -0.0000
 -0.0008 -0.0142  0.1932  0.0036 -0.0009
  0.0079 -0.0009  0.0036  0.1543 -0.0023
 -0.0133 -0.0000 -0.0009 -0.0023  0.1564
 
spin component  2
 
  0.1935  0.0018 -0.0008  0.0081 -0.0135
  0.0018  0.1596 -0.0144 -0.0009 -0.0000
 -0.0008 -0.0144  0.1961  0.0036 -0.0010
  0.0081 -0.0009  0.0036  0.1566 -0.0023
 -0.0135 -0.0000 -0.0010 -0.0023  0.1587
 
 occupancies and eigenvectors
 
  o =  0.1515  v = -0.3698  0.1827 -0.0024  0.4688 -0.7811  0.0000  0.0000  0.0000  0.0000  0.0000      0.0000  0.0000  0.0000  0.0000  0.0000  0.0000  0.0000  0.0000  0.0000  0.0000
  o =  0.1523  v =  0.0313  0.8909  0.3364 -0.3032  0.0106  0.0000  0.0000  0.0000  0.0000  0.0000      0.0000  0.0000  0.0000  0.0000  0.0000  0.0000  0.0000  0.0000  0.0000  0.0000
  o =  0.1527  v =  0.0092  0.2549  0.0310  0.8033  0.5373  0.0000  0.0000  0.0000  0.0000  0.0000      0.0000  0.0000  0.0000  0.0000  0.0000  0.0000  0.0000  0.0000  0.0000  0.0000
  o =  0.1537  v =  0.0000  0.0000  0.0000  0.0000  0.0000 -0.3703  0.1732 -0.0069  0.4800 -0.7762      0.0000  0.0000  0.0000  0.0000  0.0000  0.0000  0.0000  0.0000  0.0000  0.0000
  o =  0.1546  v =  0.0000  0.0000  0.0000  0.0000  0.0000 -0.0260 -0.8824 -0.3344  0.3293  0.0221      0.0000  0.0000  0.0000  0.0000  0.0000  0.0000  0.0000  0.0000  0.0000  0.0000
  o =  0.1550  v =  0.0000  0.0000  0.0000  0.0000  0.0000  0.0130  0.2895  0.0449  0.7861  0.5441      0.0000  0.0000  0.0000  0.0000  0.0000  0.0000  0.0000  0.0000  0.0000  0.0000
  o =  0.1968  v = -0.9137  0.0185 -0.1552 -0.2012  0.3166  0.0000  0.0000  0.0000  0.0000  0.0000      0.0000  0.0000  0.0000  0.0000  0.0000  0.0000  0.0000  0.0000  0.0000  0.0000
  o =  0.1985  v =  0.1654  0.3278 -0.9283 -0.0506 -0.0291  0.0000  0.0000  0.0000  0.0000  0.0000      0.0000  0.0000  0.0000  0.0000  0.0000  0.0000  0.0000  0.0000  0.0000  0.0000
  o =  0.1998  v =  0.0000  0.0000  0.0000  0.0000  0.0000 -0.9129  0.0196 -0.1588 -0.2020  0.3164      0.0000  0.0000  0.0000  0.0000  0.0000  0.0000  0.0000  0.0000  0.0000  0.0000
  o =  0.2015  v =  0.0000  0.0000  0.0000  0.0000  0.0000  0.1690  0.3274 -0.9279 -0.0496 -0.0300      0.0000  0.0000  0.0000  0.0000  0.0000  0.0000  0.0000  0.0000  0.0000  0.0000
atom =   8  type =  2  l = 2
 
 onsite density matrix
 
spin component  1
 
  0.1906 -0.0018 -0.0008 -0.0079 -0.0133
 -0.0018  0.1572  0.0142 -0.0009  0.0000
 -0.0008  0.0142  0.1932 -0.0036 -0.0009
 -0.0079 -0.0009 -0.0036  0.1543  0.0023
 -0.0133  0.0000 -0.0009  0.0023  0.1564
 
spin component  2
 
  0.1935 -0.0018 -0.0008 -0.0081 -0.0136
 -0.0018  0.1596  0.0144 -0.0010  0.0000
 -0.0008  0.0144  0.1961 -0.0036 -0.0009
 -0.0081 -0.0010 -0.0036  0.1566  0.0023
 -0.0136  0.0000 -0.0009  0.0023  0.1588
 
 occupancies and eigenvectors
 
  o =  0.1515  v =  0.3695  0.1879  0.0002  0.4646  0.7825  0.0000  0.0000  0.0000  0.0000  0.0000      0.0000  0.0000  0.0000  0.0000  0.0000  0.0000  0.0000  0.0000  0.0000  0.0000
  o =  0.1522  v = -0.0337  0.8871 -0.3355 -0.3149 -0.0101  0.0000  0.0000  0.0000  0.0000  0.0000      0.0000  0.0000  0.0000  0.0000  0.0000  0.0000  0.0000  0.0000  0.0000  0.0000
  o =  0.1527  v =  0.0083 -0.2651  0.0342 -0.8012  0.5354  0.0000  0.0000  0.0000  0.0000  0.0000      0.0000  0.0000  0.0000  0.0000  0.0000  0.0000  0.0000  0.0000  0.0000  0.0000
  o =  0.1537  v =  0.0000  0.0000  0.0000  0.0000  0.0000  0.3695  0.1889  0.0019  0.4906  0.7662      0.0000  0.0000  0.0000  0.0000  0.0000  0.0000  0.0000  0.0000  0.0000  0.0000
  o =  0.1546  v =  0.0000  0.0000  0.0000  0.0000  0.0000  0.0311 -0.8901  0.3360  0.3062  0.0076      0.0000  0.0000  0.0000  0.0000  0.0000  0.0000  0.0000  0.0000  0.0000  0.0000
  o =  0.1550  v =  0.0000  0.0000  0.0000  0.0000  0.0000  0.0194 -0.2539  0.0322 -0.7890  0.5583      0.0000  0.0000  0.0000  0.0000  0.0000  0.0000  0.0000  0.0000  0.0000  0.0000
  o =  0.1968  v = -0.9122 -0.0213 -0.1636  0.2018  0.3161  0.0000  0.0000  0.0000  0.0000  0.0000      0.0000  0.0000  0.0000  0.0000  0.0000  0.0000  0.0000  0.0000  0.0000  0.0000
  o =  0.1985  v =  0.1735 -0.3270 -0.9271  0.0489 -0.0322  0.0000  0.0000  0.0000  0.0000  0.0000      0.0000  0.0000  0.0000  0.0000  0.0000  0.0000  0.0000  0.0000  0.0000  0.0000
  o =  0.1998  v =  0.0000  0.0000  0.0000  0.0000  0.0000 -0.9151 -0.0156 -0.1466  0.2008  0.3169      0.0000  0.0000  0.0000  0.0000  0.0000  0.0000  0.0000  0.0000  0.0000  0.0000
  o =  0.2014  v =  0.0000  0.0000  0.0000  0.0000  0.0000  0.1570 -0.3276 -0.9298  0.0527 -0.0264      0.0000  0.0000  0.0000  0.0000  0.0000  0.0000  0.0000  0.0000  0.0000  0.0000
atom =   9  type =  2  l = 2
 
 onsite density matrix
 
spin component  1
 
  0.1906 -0.0018  0.0008  0.0079  0.0133
 -0.0018  0.1573 -0.0142  0.0009 -0.0000
  0.0008 -0.0142  0.1932 -0.0036 -0.0009
  0.0079  0.0009 -0.0036  0.1543  0.0023
  0.0133 -0.0000 -0.0009  0.0023  0.1564
 
spin component  2
 
  0.1935 -0.0018  0.0008  0.0081  0.0135
 -0.0018  0.1596 -0.0144  0.0009 -0.0000
  0.0008 -0.0144  0.1961 -0.0036 -0.0010
  0.0081  0.0009 -0.0036  0.1566  0.0023
  0.0135 -0.0000 -0.0010  0.0023  0.1588
 
 occupancies and eigenvectors
 
  o =  0.1515  v = -0.3704 -0.1741  0.0051  0.4650  0.7850  0.0000  0.0000  0.0000  0.0000  0.0000      0.0000  0.0000  0.0000  0.0000  0.0000  0.0000  0.0000  0.0000  0.0000  0.0000
  o =  0.1523  v =  0.0283 -0.8817 -0.3350 -0.3308  0.0159  0.0000  0.0000  0.0000  0.0000  0.0000      0.0000  0.0000  0.0000  0.0000  0.0000  0.0000  0.0000  0.0000  0.0000  0.0000
  o =  0.1527  v = -0.0073  0.2908  0.0439 -0.7945  0.5313  0.0000  0.0000  0.0000  0.0000  0.0000      0.0000  0.0000  0.0000  0.0000  0.0000  0.0000  0.0000  0.0000  0.0000  0.0000
  o =  0.1537  v =  0.0000  0.0000  0.0000  0.0000  0.0000 -0.3698 -0.1810  0.0043  0.4835  0.7724      0.0000  0.0000  0.0000  0.0000  0.0000  0.0000  0.0000  0.0000  0.0000  0.0000
  o =  0.1546  v =  0.0000  0.0000  0.0000  0.0000  0.0000 -0.0292  0.8937  0.3364  0.2953  0.0087      0.0000  0.0000  0.0000  0.0000  0.0000  0.0000  0.0000  0.0000  0.0000  0.0000
  o =  0.1550  v =  0.0000  0.0000  0.0000  0.0000  0.0000 -0.0146  0.2466  0.0296 -0.7974  0.5498      0.0000  0.0000  0.0000  0.0000  0.0000  0.0000  0.0000  0.0000  0.0000  0.0000
  o =  0.1968  v = -0.9135 -0.0186  0.1558 -0.2016 -0.3167  0.0000  0.0000  0.0000  0.0000  0.0000      0.0000  0.0000  0.0000  0.0000  0.0000  0.0000  0.0000  0.0000  0.0000  0.0000
  o =  0.1985  v =  0.1659 -0.3278  0.9282 -0.0505  0.0295  0.0000  0.0000  0.0000  0.0000  0.0000      0.0000  0.0000  0.0000  0.0000  0.0000  0.0000  0.0000  0.0000  0.0000  0.0000
  o =  0.1998  v =  0.0000  0.0000  0.0000  0.0000  0.0000 -0.9126 -0.0206  0.1608 -0.2018 -0.3164      0.0000  0.0000  0.0000  0.0000  0.0000  0.0000  0.0000  0.0000  0.0000  0.0000
  o =  0.2015  v =  0.0000  0.0000  0.0000  0.0000  0.0000  0.1710 -0.3276  0.9274 -0.0490  0.0306      0.0000  0.0000  0.0000  0.0000  0.0000  0.0000  0.0000  0.0000  0.0000  0.0000
atom =  10  type =  2  l = 2
 
 onsite density matrix
 
spin component  1
 
  0.1906  0.0018  0.0008 -0.0079  0.0133
  0.0018  0.1572  0.0141  0.0009  0.0000
  0.0008  0.0141  0.1932  0.0036 -0.0009
 -0.0079  0.0009  0.0036  0.1543 -0.0023
  0.0133  0.0000 -0.0009 -0.0023  0.1564
 
spin component  2
 
  0.1934  0.0018  0.0008 -0.0081  0.0135
  0.0018  0.1596  0.0144  0.0009 -0.0000
  0.0008  0.0144  0.1960  0.0036 -0.0010
 -0.0081  0.0009  0.0036  0.1566 -0.0023
  0.0135 -0.0000 -0.0010 -0.0023  0.1588
 
 occupancies and eigenvectors
 
  o =  0.1515  v =  0.3695 -0.1829 -0.0016  0.4622 -0.7851  0.0000  0.0000  0.0000  0.0000  0.0000      0.0000  0.0000  0.0000  0.0000  0.0000  0.0000  0.0000  0.0000  0.0000  0.0000
  o =  0.1523  v = -0.0326 -0.8907  0.3354 -0.3047  0.0121  0.0000  0.0000  0.0000  0.0000  0.0000      0.0000  0.0000  0.0000  0.0000  0.0000  0.0000  0.0000  0.0000  0.0000  0.0000
  o =  0.1527  v = -0.0065 -0.2569  0.0307  0.8065  0.5315  0.0000  0.0000  0.0000  0.0000  0.0000      0.0000  0.0000  0.0000  0.0000  0.0000  0.0000  0.0000  0.0000  0.0000  0.0000
[...]
  0.000  -0.001   0.000  -0.000   2.007  -0.003  -0.000   0.000   0.007   0.000   0.006   0.000  -0.009  -0.003   0.000  -0.002
 -0.001   0.006  -0.001  -0.000  -0.003   0.029   0.000   0.004  -0.013   0.000  -0.026  -0.000  -0.032   0.007  -0.000   0.014
 -0.000  -0.000  -0.000   0.001  -0.000   0.000   0.026   0.000  -0.000  -0.022   0.000  -0.011  -0.000   0.000   0.012  -0.000
 -0.000   0.002  -0.003  -0.000   0.000   0.004   0.000   0.027  -0.014  -0.000  -0.014  -0.000   0.027   0.008   0.000   0.008
 -0.003   0.057   0.005   0.000   0.007  -0.013  -0.000  -0.014   0.231   0.000   0.033   0.000   0.079  -0.129  -0.000  -0.018
 -0.000   0.000  -0.000   0.010   0.000   0.000  -0.022  -0.000   0.000   0.284   0.000   0.101  -0.000  -0.000  -0.162  -0.000
  0.001  -0.019   0.012  -0.000   0.006  -0.026   0.000  -0.014   0.033   0.000   0.232   0.000   0.024  -0.018  -0.000  -0.129
 -0.000   0.000   0.000   0.007   0.000  -0.000  -0.011  -0.000   0.000   0.101   0.000   0.312   0.000  -0.000  -0.058  -0.000
  0.001  -0.018   0.017   0.000  -0.009  -0.032  -0.000   0.027   0.079  -0.000   0.024   0.000   0.326  -0.044   0.000  -0.014
  0.000  -0.032  -0.002   0.000  -0.003   0.007   0.000   0.008  -0.129  -0.000  -0.018  -0.000  -0.044   0.073   0.000   0.010
  0.000  -0.000   0.000  -0.004   0.000  -0.000   0.012   0.000  -0.000  -0.162  -0.000  -0.058   0.000   0.000   0.093   0.000
  0.000   0.010  -0.004   0.000  -0.002   0.014  -0.000   0.008  -0.018  -0.000  -0.129  -0.000  -0.014   0.010   0.000   0.072
  0.000  -0.000   0.000  -0.003   0.000   0.000   0.006   0.000  -0.000  -0.057  -0.000  -0.175  -0.000   0.000   0.033   0.000
 -0.000   0.010  -0.006   0.000   0.003   0.018   0.000  -0.015  -0.044   0.000  -0.014  -0.000  -0.184   0.025  -0.000   0.008
 total augmentation occupancy for first ion, spin component:           2
  0.000   0.000   0.000  -0.000   0.000  -0.000   0.000  -0.000  -0.000   0.000   0.000   0.000  -0.000   0.000  -0.000  -0.000
  0.000   0.000   0.000  -0.000   0.000  -0.000  -0.000  -0.000  -0.000  -0.000   0.000  -0.000  -0.000   0.000   0.000  -0.000
  0.000   0.000   0.000  -0.000   0.000   0.000  -0.000  -0.000   0.000  -0.000  -0.000  -0.000  -0.000  -0.000   0.000  -0.000
 -0.000  -0.000  -0.000   0.000  -0.000   0.000   0.000   0.000  -0.000   0.000  -0.000   0.000   0.000   0.000  -0.000   0.000
  0.000   0.000   0.000  -0.000   0.000  -0.000  -0.000   0.000   0.000  -0.000  -0.000  -0.000   0.000  -0.000   0.000   0.000
 -0.000  -0.000   0.000   0.000  -0.000   0.000  -0.000  -0.000  -0.000  -0.000  -0.000  -0.000   0.000  -0.000   0.000  -0.000
  0.000  -0.000  -0.000   0.000  -0.000  -0.000  -0.000   0.000  -0.000   0.000   0.000  -0.000   0.000   0.000  -0.000  -0.000
 -0.000  -0.000  -0.000   0.000   0.000  -0.000   0.000   0.000  -0.000   0.000   0.000  -0.000   0.000   0.000  -0.000  -0.000
 -0.000  -0.000   0.000  -0.000   0.000  -0.000  -0.000  -0.000   0.000  -0.000  -0.000  -0.000   0.000   0.000   0.000  -0.000
  0.000  -0.000  -0.000   0.000  -0.000  -0.000   0.000   0.000  -0.000  -0.000   0.000  -0.000   0.000   0.000  -0.000   0.000
  0.000   0.000  -0.000  -0.000  -0.000  -0.000   0.000   0.000  -0.000   0.000   0.000   0.000  -0.000  -0.000  -0.000   0.000
  0.000  -0.000  -0.000   0.000  -0.000  -0.000  -0.000  -0.000  -0.000  -0.000   0.000   0.000   0.000   0.000   0.000  -0.000
 -0.000  -0.000  -0.000   0.000   0.000   0.000   0.000   0.000   0.000   0.000  -0.000   0.000  -0.000   0.000  -0.000  -0.000
  0.000   0.000  -0.000   0.000  -0.000  -0.000   0.000   0.000   0.000   0.000  -0.000   0.000   0.000  -0.000  -0.000   0.000
 -0.000   0.000   0.000  -0.000   0.000   0.000  -0.000  -0.000   0.000  -0.000  -0.000   0.000  -0.000  -0.000   0.000  -0.000
 -0.000  -0.000  -0.000   0.000   0.000  -0.000  -0.000  -0.000  -0.000   0.000   0.000  -0.000  -0.000   0.000  -0.000  -0.000
 -0.000   0.000   0.000  -0.000   0.000   0.000  -0.000   0.000  -0.000   0.000  -0.000  -0.000  -0.000   0.000  -0.000   0.000
  0.000   0.000  -0.000  -0.000   0.000  -0.000  -0.000   0.000  -0.000   0.000   0.000   0.000   0.000   0.000  -0.000   0.000


------------------------ aborting loop because EDIFF is reached ----------------------------------------


 


 total charge     
 
# of ion       s       p       d       tot
------------------------------------------
    1        2.021   5.865   0.233   8.120
    2        2.021   5.865   0.233   8.120
    3        2.028   5.872   0.262   8.162
    4        2.028   5.872   0.263   8.163
    5        2.028   5.872   0.262   8.162
    6        2.028   5.872   0.263   8.163
    7        0.361   6.490   1.783   8.634
    8        0.361   6.490   1.783   8.634
    9        0.361   6.490   1.783   8.634
   10        0.361   6.490   1.783   8.634
   11        1.572   3.533   0.000   5.105
   12        1.572   3.533   0.000   5.105
   13        1.568   3.494   0.000   5.062
   14        1.568   3.494   0.000   5.062
   15        1.568   3.494   0.000   5.062
   16        1.568   3.494   0.000   5.062
   17        1.570   3.535   0.000   5.105
   18        1.570   3.535   0.000   5.105
   19        1.570   3.535   0.000   5.105
   20        1.570   3.535   0.000   5.105
   21        1.572   3.542   0.000   5.113
   22        1.572   3.542   0.000   5.114
   23        1.572   3.542   0.000   5.113
   24        1.572   3.542   0.000   5.114
--------------------------------------------------
tot         35.581 110.529   8.648 154.758
 


 magnetization (x)
 
# of ion       s       p       d       tot
------------------------------------------
    1        0.000   0.000   0.000   0.000
    2        0.000   0.000   0.000   0.000
    3        0.000   0.000  -0.000   0.000
    4        0.000  -0.000  -0.000   0.000
    5        0.000  -0.000  -0.000   0.000
    6        0.000   0.000  -0.000   0.000
    7       -0.000  -0.000   0.000   0.000
    8        0.000   0.000   0.000   0.000
    9       -0.000  -0.000  -0.000  -0.000
   10       -0.000   0.000   0.000  -0.000
   11        0.000   0.000   0.000   0.000
   12        0.000   0.000   0.000   0.000
   13        0.000   0.000   0.000   0.000
   14        0.000   0.000   0.000   0.000
   15        0.000  -0.000   0.000  -0.000
   16        0.000  -0.000   0.000  -0.000
   17       -0.000  -0.000   0.000  -0.000
   18       -0.000  -0.000   0.000  -0.000
   19        0.000  -0.000   0.000  -0.000
   20        0.000  -0.000   0.000  -0.000
   21        0.000   0.000   0.000   0.000
   22       -0.000   0.000   0.000   0.000
   23        0.000   0.000   0.000   0.000
   24        0.000   0.000   0.000   0.000
--------------------------------------------------
tot          0.000   0.000   0.000   0.000
 
    CHARGE:  cpu time    2.2541: real time    2.2542
    FORLOC:  cpu time    0.0133: real time    0.0134
    FORNL :  cpu time   32.3956: real time   32.3975
    STRESS:  cpu time  540.3336: real time  540.3568
    FORCOR:  cpu time    0.3160: real time    0.3160
    FORHAR:  cpu time    0.0326: real time    0.0326
    MIXING:  cpu time    0.0065: real time    0.0065
    OFIELD:  cpu time    0.0001: real time    0.0000

  FORCE on cell =-STRESS in cart. coord.  units (eV):
  Direction    XX          YY          ZZ          XY          YZ          ZX
  --------------------------------------------------------------------------------------
  Alpha Z   966.04895   966.04895   966.04895
  Ewald   -3991.04620 -3883.42775 -4503.47738    -0.00126     1.06821     0.00131
  Hartree  1425.12122  1480.40768   872.06930    -0.00065     0.63390     0.00064
  E(xc)    -934.70967  -934.37078  -933.79033    -0.00000     0.00195     0.00000
  Local    -298.99182  -464.54650   752.88272     0.00189    -1.73119    -0.00197
  n-local  -609.96051  -611.74949  -612.60478    -0.00002     0.00917     0.00002
  augment   487.99292   488.84808   491.64996    -0.00000     0.00051     0.00001
  Kinetic  2955.46224  2958.74909  2967.21910    -0.00003    -0.01029    -0.00004
  Fock        0.00000     0.00000     0.00000     0.00000     0.00000     0.00000
  -------------------------------------------------------------------------------------
  Total      -0.08286    -0.04073    -0.00246    -0.00006    -0.02775    -0.00003
  in kB      -0.45793    -0.22508    -0.01357    -0.00036    -0.15335    -0.00015
  external pressure =       -0.23 kB  Pullay stress =        0.00 kB


 VOLUME and BASIS-vectors are now :
 -----------------------------------------------------------------------------
  energy-cutoff  :      520.00
  volume of cell :      289.92
      direct lattice vectors                 reciprocal lattice vectors
    -0.000000711 -5.427877946 -0.000566599     0.000000019 -0.184239419  0.051322540
    -5.480452032 -0.000000701 -0.000000498    -0.182466701  0.000000024  0.000000016
    -0.000001227 -2.714954174 -9.746235825     0.000000009  0.000010711 -0.102606698

  length of vectors
     5.427877976  5.480452032 10.117316290     0.191254194  0.182466701  0.102606699


 FORCES acting on ions
    electron-ion (+dipol)            ewald-force                    non-local-force                 convergence-correction
 -----------------------------------------------------------------------------------------------
   0.396E+02 -.110E+01 -.320E-02   -.394E+02 0.162E+01 0.322E-03   -.153E+00 -.516E+00 0.420E-03   -.527E-03 0.330E-03 -.103E-02
   0.396E+02 0.110E+01 0.318E-02   -.394E+02 -.162E+01 -.289E-03   -.153E+00 0.516E+00 -.405E-03   -.521E-03 -.307E-03 0.102E-02
   -.263E+02 0.273E+02 -.226E+03   0.257E+02 -.259E+02 0.226E+03   0.529E+00 -.138E+01 -.305E+00   -.513E-03 0.919E-03 -.694E-03
   -.264E+02 0.276E+02 0.226E+03   0.259E+02 -.262E+02 -.227E+03   0.490E+00 -.138E+01 0.291E+00   -.148E-02 -.107E-03 0.221E-02
   -.263E+02 -.273E+02 0.226E+03   0.257E+02 0.259E+02 -.226E+03   0.529E+00 0.138E+01 0.305E+00   -.516E-03 -.917E-03 0.686E-03
   -.264E+02 -.276E+02 -.226E+03   0.259E+02 0.262E+02 0.227E+03   0.490E+00 0.138E+01 -.291E+00   -.148E-02 0.106E-03 -.221E-02
   -.790E+00 -.499E+01 -.125E+03   0.699E+00 0.510E+01 0.125E+03   0.709E-01 -.133E+00 -.449E-01   0.161E-02 0.211E-02 -.171E-02
   -.146E+01 -.435E+01 0.126E+03   0.139E+01 0.444E+01 -.126E+03   0.528E-01 -.988E-01 0.100E+00   0.237E-02 -.127E-02 -.921E-03
   -.789E+00 0.499E+01 0.125E+03   0.697E+00 -.510E+01 -.125E+03   0.708E-01 0.133E+00 0.449E-01   0.158E-02 -.210E-02 0.170E-02
   -.146E+01 0.435E+01 -.126E+03   0.140E+01 -.444E+01 0.126E+03   0.528E-01 0.987E-01 -.100E+00   0.235E-02 0.130E-02 0.902E-03
   -.177E+02 0.265E+02 0.767E+00   0.186E+02 -.284E+02 -.870E+00   -.977E+00 0.186E+01 0.104E+00   0.193E-02 -.652E-03 -.795E-03
   -.177E+02 -.265E+02 -.767E+00   0.186E+02 0.284E+02 0.870E+00   -.977E+00 -.186E+01 -.104E+00   0.195E-02 0.656E-03 0.799E-03
   0.117E+02 0.444E+01 -.195E+03   -.122E+02 -.463E+01 0.202E+03   0.572E+00 0.200E+00 -.763E+01   0.952E-03 0.671E-04 -.167E-02
   0.118E+02 0.396E+01 0.195E+03   -.124E+02 -.411E+01 -.203E+03   0.592E+00 0.160E+00 0.775E+01   0.171E-02 0.566E-03 0.425E-03
   0.117E+02 -.444E+01 0.195E+03   -.122E+02 0.463E+01 -.202E+03   0.572E+00 -.200E+00 0.763E+01   0.953E-03 -.617E-04 0.167E-02
   0.118E+02 -.396E+01 -.195E+03   -.124E+02 0.411E+01 0.203E+03   0.592E+00 -.160E+00 -.775E+01   0.171E-02 -.565E-03 -.428E-03
   -.697E+01 0.195E+02 -.305E+02   0.753E+01 -.212E+02 0.277E+02   -.551E+00 0.168E+01 0.284E+01   -.159E-03 -.755E-04 -.763E-03
   -.766E+01 0.190E+02 0.304E+02   0.834E+01 -.207E+02 -.276E+02   -.687E+00 0.163E+01 -.283E+01   -.344E-03 -.123E-03 0.752E-03
   -.697E+01 -.195E+02 0.305E+02   0.752E+01 0.212E+02 -.277E+02   -.551E+00 -.168E+01 -.284E+01   -.157E-03 0.695E-04 0.763E-03
   -.766E+01 -.190E+02 -.304E+02   0.834E+01 0.207E+02 0.276E+02   -.687E+00 -.163E+01 0.283E+01   -.347E-03 0.880E-04 -.757E-03
   0.105E+02 0.134E+02 -.108E+03   -.116E+02 -.144E+02 0.109E+03   0.104E+01 0.956E+00 -.970E+00   0.858E-03 0.854E-03 -.726E-04
   0.115E+02 0.132E+02 0.108E+03   -.126E+02 -.141E+02 -.109E+03   0.116E+01 0.925E+00 0.949E+00   -.303E-03 0.142E-02 -.771E-03
   0.105E+02 -.134E+02 0.108E+03   -.116E+02 0.144E+02 -.109E+03   0.104E+01 -.956E+00 0.970E+00   0.865E-03 -.855E-03 0.778E-04
   0.115E+02 -.132E+02 -.108E+03   -.126E+02 0.141E+02 0.109E+03   0.116E+01 -.925E+00 -.949E+00   -.306E-03 -.142E-02 0.776E-03
 -----------------------------------------------------------------------------------------------
   -.435E+01 0.292E-03 -.566E-04   -.266E-13 0.338E-13 -.114E-12   0.429E+01 -.336E-03 0.844E-04   0.122E-01 0.351E-04 -.405E-04
 
 
 POSITION                                       TOTAL-FORCE (eV/Angst)
 -----------------------------------------------------------------------------------
     -2.44250     -4.09518     -9.74594        -0.001939     -0.001252     -0.003485
     -5.18272     -4.04766     -0.00086        -0.001936      0.001244      0.003503
     -0.14278     -6.73866     -6.08055        -0.007408      0.001464     -0.000402
     -0.14286     -4.01900     -3.66571        -0.011130      0.004572      0.012586
     -2.88300     -1.40418     -3.66625        -0.007400     -0.001463      0.000382
     -2.88308     -4.12383     -6.08109        -0.011124     -0.004584     -0.012571
     -5.41805     -4.07078     -7.80760        -0.008302     -0.014168      0.004779
     -5.41925     -1.34890     -1.93503         0.006149     -0.010239     -0.004616
     -2.67783     -4.07205     -1.93920        -0.008313      0.014152     -0.004836
     -2.67903     -6.79394     -7.81177         0.006163      0.010237      0.004659
     -2.77112     -4.46951     -0.00129         0.002370     -0.007726      0.000551
     -0.03090     -3.67332     -9.74551         0.002364      0.007693     -0.000600
     -2.56050     -6.43621     -5.89267         0.005655      0.006596     -0.001489
     -2.56133     -3.71977     -3.85575         0.010052      0.008184     -0.009747
     -5.30072     -1.70662     -3.85413         0.005649     -0.006596      0.001495
     -5.30156     -4.42307     -5.89105         0.010055     -0.008197      0.009751
     -1.06974     -5.65605     -8.11321         0.002027      0.008882     -0.000978
     -1.06941     -2.93842     -1.63528        -0.005900      0.008373      0.006652
     -3.80997     -2.48678     -1.63359         0.002004     -0.008866      0.000982
     -3.80964     -5.20442     -8.11152        -0.005989     -0.008172     -0.006615
     -1.52285     -2.94239     -7.55529         0.004981     -0.000972      0.000841
     -1.52284     -5.65229     -2.19056         0.003533      0.004354     -0.006627
     -4.26307     -5.20044     -2.19152         0.004931      0.000920     -0.000837
     -4.26306     -2.49054     -7.55624         0.003508     -0.004434      0.006622
 -----------------------------------------------------------------------------------
    total drift:                               -0.044723     -0.000010     -0.000013


--------------------------------------------------------------------------------------------------------



  FREE ENERGIE OF THE ION-ELECTRON SYSTEM (eV)
  ---------------------------------------------------
  free  energy   TOTEN  =      -284.03664688 eV

  energy  without entropy=     -284.03664688  energy(sigma->0) =     -284.03664688
 
 d Force = 0.2726745E-03[ 0.186E-03, 0.360E-03]  d Energy = 0.3999686E-03-0.127E-03
 d Force =-0.3305354E+00[-0.332E+00,-0.329E+00]  d Ewald  = 0.3276129E+00-0.658E+00


--------------------------------------------------------------------------------------------------------


    POTLOK:  cpu time    2.1113: real time    2.1114


--------------------------------------------------------------------------------------------------------


 Conjugate gradient step on ions:
 trial-energy change:   -0.000400  1 .order   -0.000279   -0.000380   -0.000178
  (g-gl).g = 0.529E-03      g.g   = 0.532E-03  gl.gl    = 0.644E-03
 g(Force)  = 0.468E-03   g(Stress)= 0.640E-04 ortho     = 0.329E-05
 gamma     =   0.82096
 trial     =   0.71025
 opt step  =   0.83006  (harmonic =   1.33464) maximal distance =0.00170853
 next E    =  -284.036662   (d E  =  -0.00042)


--------------------------------------------------------------------------------------------------------


  
 reached required accuracy - stopping structural energy minimisation
     LOOP+:  cpu time 1977.5769: real time 1977.6810
    4ORBIT:  cpu time    0.0000: real time    0.0000
 


 total charge     
 
# of ion       s       p       d       tot
------------------------------------------
    1        2.021   5.865   0.233   8.120
    2        2.021   5.865   0.233   8.120
    3        2.028   5.872   0.262   8.162
    4        2.028   5.872   0.263   8.163
    5        2.028   5.872   0.262   8.162
    6        2.028   5.872   0.263   8.163
    7        0.361   6.490   1.783   8.634
    8        0.361   6.490   1.783   8.634
    9        0.361   6.490   1.783   8.634
   10        0.361   6.490   1.783   8.634
   11        1.572   3.533   0.000   5.105
   12        1.572   3.533   0.000   5.105
   13        1.568   3.494   0.000   5.062
   14        1.568   3.494   0.000   5.062
   15        1.568   3.494   0.000   5.062
   16        1.568   3.494   0.000   5.062
   17        1.570   3.535   0.000   5.105
   18        1.570   3.535   0.000   5.105
   19        1.570   3.535   0.000   5.105
   20        1.570   3.535   0.000   5.105
   21        1.572   3.542   0.000   5.113
   22        1.572   3.542   0.000   5.114
   23        1.572   3.542   0.000   5.113
   24        1.572   3.542   0.000   5.114
--------------------------------------------------
tot         35.581 110.529   8.648 154.758
 


 magnetization (x)
 
# of ion       s       p       d       tot
------------------------------------------
    1        0.000   0.000   0.000   0.000
    2        0.000   0.000   0.000   0.000
    3        0.000   0.000  -0.000   0.000
    4        0.000  -0.000  -0.000   0.000
    5        0.000  -0.000  -0.000   0.000
    6        0.000   0.000  -0.000   0.000
    7       -0.000  -0.000   0.000   0.000
    8        0.000   0.000   0.000   0.000
    9       -0.000  -0.000  -0.000  -0.000
   10       -0.000   0.000   0.000  -0.000
   11        0.000   0.000   0.000   0.000
   12        0.000   0.000   0.000   0.000
   13        0.000   0.000   0.000   0.000
   14        0.000   0.000   0.000   0.000
   15        0.000  -0.000   0.000  -0.000
   16        0.000  -0.000   0.000  -0.000
   17       -0.000  -0.000   0.000  -0.000
   18       -0.000  -0.000   0.000  -0.000
   19        0.000  -0.000   0.000  -0.000
   20        0.000  -0.000   0.000  -0.000
   21        0.000   0.000   0.000   0.000
   22       -0.000   0.000   0.000   0.000
   23        0.000   0.000   0.000   0.000
   24        0.000   0.000   0.000   0.000
--------------------------------------------------
tot          0.000   0.000   0.000   0.000
 

 total amount of memory used by VASP MPI-rank0   241458. kBytes
=======================================================================

   base      :      30000. kBytes
   nonlr-proj:       6922. kBytes
   fftplans  :       4154. kBytes
   grid      :      14739. kBytes
   one-center:        186. kBytes
   wavefun   :     185457. kBytes
 
  
  
 General timing and accounting informations for this job:
 ========================================================
  
                  Total CPU time used (sec):    11575.325
                            User time (sec):    11570.170
                          System time (sec):        5.156
                         Elapsed time (sec):    11576.392
  
                   Maximum memory used (kb):      468692.
                   Average memory used (kb):           0.
  
                          Minor page faults:        82006
                          Major page faults:            0
                 Voluntary context switches:           73
