       N       E                     dE             d eps       ncg     rms          rms(c)
DAV:   1     0.293312328546E+04    0.29331E+04   -0.13873E+05 26796   0.150E+03
DAV:   2     0.181588270567E+02   -0.29150E+04   -0.27288E+04 28008   0.427E+02
DAV:   3    -0.304816141367E+03   -0.32297E+03   -0.31798E+03 30072   0.153E+02
DAV:   4    -0.318436636685E+03   -0.13620E+02   -0.13423E+02 39204   0.282E+01
DAV:   5    -0.319061952052E+03   -0.62532E+00   -0.62442E+00 40056   0.478E+00    0.715E+01
DAV:   6    -0.279644580360E+03    0.39417E+02   -0.33960E+02 33852   0.539E+01    0.662E+01
DAV:   7    -0.276045591738E+03    0.35990E+01   -0.86003E+01 31944   0.598E+01    0.330E+01
DAV:   8    -0.277741002804E+03   -0.16954E+01   -0.36900E+01 34668   0.137E+01    0.295E+01
DAV:   9    -0.275808329025E+03    0.19327E+01   -0.12247E+01 33240   0.133E+01    0.185E+01
DAV:  10    -0.275920711867E+03   -0.11238E+00   -0.42907E+00 34992   0.688E+00    0.122E+01
DAV:  11    -0.276008571423E+03   -0.87860E-01   -0.41620E+00 32520   0.574E+00    0.144E+01
DAV:  12    -0.275833903238E+03    0.17467E+00   -0.97986E-01 32952   0.390E+00    0.318E+00
DAV:  13    -0.275875113818E+03   -0.41211E-01   -0.50731E-01 34668   0.198E+00    0.468E+00
DAV:  14    -0.275858157205E+03    0.16957E-01   -0.92410E-02 30972   0.132E+00    0.271E+00
DAV:  15    -0.275857345264E+03    0.81194E-03   -0.13187E-01 38172   0.658E-01    0.164E+00
DAV:  16    -0.275860494706E+03   -0.31494E-02   -0.29933E-02 31512   0.553E-01    0.136E+00
DAV:  17    -0.275859726281E+03    0.76843E-03   -0.23577E-02 33516   0.358E-01    0.603E-01
DAV:  18    -0.275860664535E+03   -0.93825E-03   -0.16595E-03 30408   0.171E-01    0.370E-01
DAV:  19    -0.275860837606E+03   -0.17307E-03   -0.76326E-04 30696   0.753E-02    0.227E-01
DAV:  20    -0.275860941876E+03   -0.10427E-03   -0.12331E-03 35076   0.616E-02    0.234E-01
DAV:  21    -0.275860940017E+03    0.18597E-05   -0.23958E-04 28680   0.465E-02    0.135E-01
DAV:  22    -0.275860941461E+03   -0.14445E-05   -0.94042E-05 24204   0.220E-02
   1 F= -.27586094E+03 E0= -.27585764E+03  d E =-.275861E+03  mag=    17.9995
       N       E                     dE             d eps       ncg     rms          rms(c)
DAV:   1    -0.275964489558E+03   -0.10355E+00   -0.44383E-02 28344   0.598E-01    0.903E-02
DAV:   2    -0.275964625998E+03   -0.13644E-03   -0.23766E-03 30588   0.132E-01    0.178E-01
DAV:   3    -0.275964615533E+03    0.10465E-04   -0.61117E-04 32496   0.640E-02    0.141E-01
DAV:   4    -0.275964593035E+03    0.22498E-04   -0.97470E-05 32316   0.428E-02    0.704E-02
DAV:   5    -0.275964596329E+03   -0.32938E-05   -0.14710E-04 26484   0.282E-02    0.990E-02
DAV:   6    -0.275964591453E+03    0.48751E-05   -0.79857E-05 20508   0.261E-02
   2 F= -.27596459E+03 E0= -.27596129E+03  d E =-.103650E+00  mag=    18.0000
       N       E                     dE             d eps       ncg     rms          rms(c)
DAV:   1    -0.278765462056E+03   -0.28009E+01   -0.70008E+01 26724   0.237E+01    0.390E+00
DAV:   2    -0.279032277745E+03   -0.26682E+00   -0.38735E+00 30564   0.513E+00    0.740E+00
DAV:   3    -0.279007536108E+03    0.24742E-01   -0.10082E+00 34632   0.263E+00    0.489E+00
DAV:   4    -0.278981178536E+03    0.26358E-01   -0.11890E-01 35532   0.155E+00    0.330E+00
DAV:   5    -0.278977251347E+03    0.39272E-02   -0.19284E-01 32808   0.103E+00    0.324E+00
DAV:   6    -0.278973726734E+03    0.35246E-02   -0.12182E-01 34872   0.925E-01    0.284E+00
DAV:   7    -0.278970885805E+03    0.28409E-02   -0.28884E-02 34752   0.548E-01    0.182E+00
DAV:   8    -0.278969702807E+03    0.11830E-02   -0.14978E-02 33612   0.243E-01    0.764E-01
DAV:   9    -0.278970611309E+03   -0.90850E-03   -0.11313E-02 36132   0.207E-01    0.519E-01
DAV:  10    -0.278970937374E+03   -0.32606E-03   -0.20937E-03 32976   0.139E-01    0.570E-01
DAV:  11    -0.278970705992E+03    0.23138E-03   -0.15172E-03 36084   0.881E-02    0.339E-01
DAV:  12    -0.278970742688E+03   -0.36696E-04   -0.61575E-04 34236   0.474E-02    0.261E-01
DAV:  13    -0.278970723740E+03    0.18948E-04   -0.30043E-04 25908   0.344E-02    0.118E-01
DAV:  14    -0.278970744882E+03   -0.21142E-04   -0.21768E-04 22104   0.251E-02    0.793E-02
DAV:  15    -0.278970748370E+03   -0.34878E-05   -0.20543E-05 18684   0.199E-02
   3 F= -.27897075E+03 E0= -.27896751E+03  d E =-.300616E+01  mag=    18.0000
       N       E                     dE             d eps       ncg     rms          rms(c)
DAV:   1    -0.280764296036E+03   -0.17936E+01   -0.16925E+02 26832   0.413E+01    0.518E+00
DAV:   2    -0.281838373072E+03   -0.10741E+01   -0.12530E+01 29340   0.937E+00    0.146E+01
DAV:   3    -0.281651730374E+03    0.18664E+00   -0.18052E+00 34284   0.429E+00    0.332E+00
DAV:   4    -0.281667269462E+03   -0.15539E-01   -0.28092E-01 35556   0.173E+00    0.490E+00
DAV:   5    -0.281644043084E+03    0.23226E-01   -0.27180E-01 35952   0.141E+00    0.334E+00
DAV:   6    -0.281646200147E+03   -0.21571E-02   -0.36158E-01 36108   0.146E+00    0.471E+00
DAV:   7    -0.281631206635E+03    0.14994E-01   -0.76607E-02 35460   0.104E+00    0.348E+00
DAV:   8    -0.281624328134E+03    0.68785E-02   -0.75983E-02 37944   0.614E-01    0.583E-01
DAV:   9    -0.281629447658E+03   -0.51195E-02   -0.15313E-02 34212   0.264E-01    0.727E-01
DAV:  10    -0.281629628997E+03   -0.18134E-03   -0.24488E-03 31176   0.174E-01    0.613E-01
DAV:  11    -0.281629336339E+03    0.29266E-03   -0.41288E-03 38592   0.133E-01    0.224E-01
DAV:  12    -0.281629488345E+03   -0.15201E-03   -0.57311E-04 30132   0.636E-02    0.233E-01
DAV:  13    -0.281629450928E+03    0.37418E-04   -0.16871E-04 31872   0.410E-02    0.122E-01
DAV:  14    -0.281629452006E+03   -0.10781E-05   -0.13842E-04 20400   0.205E-02    0.228E-02
DAV:  15    -0.281629461365E+03   -0.93598E-05   -0.13475E-05 16380   0.119E-02
   4 F= -.28162946E+03 E0= -.28162642E+03  d E =-.265871E+01  mag=    18.0000
       N       E                     dE             d eps       ncg     rms          rms(c)
DAV:   1    -0.281797299022E+03   -0.16785E+00   -0.13116E+02 27168   0.418E+01    0.479E+00
DAV:   2    -0.282876190520E+03   -0.10789E+01   -0.12153E+01 28836   0.933E+00    0.145E+01
DAV:   3    -0.282704232303E+03    0.17196E+00   -0.16750E+00 34440   0.407E+00    0.330E+00
DAV:   4    -0.282754199693E+03   -0.49967E-01   -0.54347E-01 37644   0.182E+00    0.652E+00
DAV:   5    -0.282711200091E+03    0.43000E-01   -0.20825E-01 33780   0.155E+00    0.306E+00
DAV:   6    -0.282721458081E+03   -0.10258E-01   -0.42359E-01 38256   0.127E+00    0.450E+00
DAV:   7    -0.282715652894E+03    0.58052E-02   -0.57482E-02 35784   0.102E+00    0.471E+00
DAV:   8    -0.282696711228E+03    0.18942E-01   -0.80544E-02 36036   0.678E-01    0.200E+00
DAV:   9    -0.282700772851E+03   -0.40616E-02   -0.49060E-02 36720   0.430E-01    0.565E-01
DAV:  10    -0.282703436452E+03   -0.26636E-02   -0.60263E-03 31200   0.241E-01    0.818E-01
DAV:  11    -0.282702825316E+03    0.61114E-03   -0.19327E-03 35940   0.135E-01    0.348E-01
DAV:  12    -0.282702956039E+03   -0.13072E-03   -0.27070E-03 36348   0.761E-02    0.245E-01
DAV:  13    -0.282703017847E+03   -0.61808E-04   -0.11512E-04 28212   0.498E-02    0.259E-01
DAV:  14    -0.282702955705E+03    0.62142E-04   -0.29847E-04 29532   0.353E-02    0.637E-02
DAV:  15    -0.282702980375E+03   -0.24670E-04   -0.86785E-05 17448   0.129E-02    0.398E-02
DAV:  16    -0.282702984070E+03   -0.36950E-05   -0.34225E-06 16512   0.988E-03
   5 F= -.28270298E+03 E0= -.28270004E+03  d E =-.107352E+01  mag=    18.0000
       N       E                     dE             d eps       ncg     rms          rms(c)
DAV:   1    -0.282371986521E+03    0.33099E+00   -0.98544E+01 26868   0.405E+01    0.446E+00
DAV:   2    -0.283219177864E+03   -0.84719E+00   -0.92624E+00 27612   0.847E+00    0.949E+00
DAV:   3    -0.283178564129E+03    0.40614E-01   -0.13761E+00 36168   0.331E+00    0.522E+00
DAV:   4    -0.283164160200E+03    0.14404E-01   -0.10218E-01 36036   0.153E+00    0.209E+00
DAV:   5    -0.283161353089E+03    0.28071E-02   -0.15309E-01 37920   0.105E+00    0.291E+00
DAV:   6    -0.283165361744E+03   -0.40087E-02   -0.15450E-01 37992   0.934E-01    0.402E+00
DAV:   7    -0.283151823348E+03    0.13538E-01   -0.38587E-02 35160   0.705E-01    0.174E+00
DAV:   8    -0.283153863264E+03   -0.20399E-02   -0.52775E-02 36708   0.310E-01    0.103E+00
DAV:   9    -0.283154908436E+03   -0.10452E-02   -0.38079E-03 30096   0.282E-01    0.603E-01
DAV:  10    -0.283154725311E+03    0.18313E-03   -0.50094E-03 35880   0.142E-01    0.288E-01
DAV:  11    -0.283154848811E+03   -0.12350E-03   -0.75967E-04 30636   0.839E-02    0.278E-01
DAV:  12    -0.283154781217E+03    0.67594E-04   -0.48125E-04 34308   0.595E-02    0.484E-02
DAV:  13    -0.283154819357E+03   -0.38140E-04   -0.21959E-04 27720   0.269E-02    0.114E-01
DAV:  14    -0.283154810306E+03    0.90510E-05   -0.20908E-05 18468   0.188E-02
   6 F= -.28315481E+03 E0= -.28315208E+03  d E =-.451826E+00  mag=    18.0000
       N       E                     dE             d eps       ncg     rms          rms(c)
DAV:   1    -0.281989791396E+03    0.11650E+01   -0.15514E+02 27684   0.548E+01    0.598E+00
DAV:   2    -0.283582124916E+03   -0.15923E+01   -0.17269E+01 27864   0.115E+01    0.133E+01
DAV:   3    -0.283468635235E+03    0.11349E+00   -0.22459E+00 33804   0.481E+00    0.467E+00
DAV:   4    -0.283494176585E+03   -0.25541E-01   -0.34657E-01 35556   0.192E+00    0.569E+00
DAV:   5    -0.283464483782E+03    0.29693E-01   -0.27054E-01 33924   0.147E+00    0.230E+00
DAV:   6    -0.283471207747E+03   -0.67240E-02   -0.18836E-01 35640   0.100E+00    0.368E+00
DAV:   7    -0.283456449717E+03    0.14758E-01   -0.10060E-01 35568   0.910E-01    0.133E+00
DAV:   8    -0.283459009907E+03   -0.25602E-02   -0.29661E-02 34548   0.442E-01    0.978E-01
DAV:   9    -0.283458782301E+03    0.22761E-03   -0.41990E-03 32880   0.223E-01    0.373E-01
DAV:  10    -0.283458927892E+03   -0.14559E-03   -0.27364E-03 36576   0.113E-01    0.202E-01
DAV:  11    -0.283459038456E+03   -0.11056E-03   -0.88508E-04 32736   0.899E-02    0.293E-01
DAV:  12    -0.283458966112E+03    0.72344E-04   -0.25414E-04 31836   0.639E-02    0.143E-01
DAV:  13    -0.283458988094E+03   -0.21982E-04   -0.52543E-04 30840   0.375E-02    0.128E-01
DAV:  14    -0.283458990661E+03   -0.25676E-05   -0.17090E-05 19272   0.237E-02
   7 F= -.28345899E+03 E0= -.28345614E+03  d E =-.304180E+00  mag=    18.0000
       N       E                     dE             d eps       ncg     rms          rms(c)
DAV:   1    -0.283127054984E+03    0.33193E+00   -0.80830E+01 26772   0.345E+01    0.428E+00
DAV:   2    -0.283644536482E+03   -0.51748E+00   -0.59465E+00 27852   0.710E+00    0.940E+00
DAV:   3    -0.283589322958E+03    0.55214E-01   -0.12063E+00 31836   0.339E+00    0.391E+00
DAV:   4    -0.283587857982E+03    0.14650E-02   -0.10079E-01 34380   0.125E+00    0.231E+00
DAV:   5    -0.283582481527E+03    0.53765E-02   -0.82247E-02 33924   0.842E-01    0.190E+00
DAV:   6    -0.283578557789E+03    0.39237E-02   -0.64455E-02 36120   0.729E-01    0.148E+00
DAV:   7    -0.283576934208E+03    0.16236E-02   -0.12496E-02 33084   0.469E-01    0.754E-01
DAV:   8    -0.283576933240E+03    0.96787E-06   -0.10494E-02 36648   0.206E-01    0.498E-01
DAV:   9    -0.283576935350E+03   -0.21095E-05   -0.23701E-03 33780   0.187E-01    0.180E-01
DAV:  10    -0.283576973305E+03   -0.37955E-04   -0.11409E-03 35388   0.889E-02    0.219E-01
DAV:  11    -0.283576930823E+03    0.42483E-04   -0.35879E-04 30720   0.604E-02    0.433E-02
DAV:  12    -0.283576946514E+03   -0.15691E-04   -0.11475E-04 26676   0.266E-02    0.728E-02
DAV:  13    -0.283576943662E+03    0.28519E-05   -0.22241E-05 18132   0.166E-02
   8 F= -.28357694E+03 E0= -.28357385E+03  d E =-.117953E+00  mag=    18.0000
       N       E                     dE             d eps       ncg     rms          rms(c)
DAV:   1    -0.283585235343E+03   -0.82888E-02   -0.21181E+01 26688   0.195E+01    0.241E+00
DAV:   2    -0.283753466736E+03   -0.16823E+00   -0.18313E+00 29760   0.388E+00    0.514E+00
DAV:   3    -0.283743965512E+03    0.95012E-02   -0.43456E-01 31992   0.171E+00    0.337E+00
DAV:   4    -0.283740723850E+03    0.32417E-02   -0.53737E-02 32184   0.939E-01    0.188E+00
DAV:   5    -0.283738299489E+03    0.24244E-02   -0.47850E-02 33648   0.581E-01    0.111E+00
DAV:   6    -0.283738334741E+03   -0.35252E-04   -0.30577E-02 32748   0.491E-01    0.139E+00
DAV:   7    -0.283737041263E+03    0.12935E-02   -0.57885E-03 30456   0.332E-01    0.115E+00
DAV:   8    -0.283736086968E+03    0.95430E-03   -0.16831E-02 36036   0.233E-01    0.423E-01
DAV:   9    -0.283736619585E+03   -0.53262E-03   -0.70878E-04 30792   0.132E-01    0.413E-01
DAV:  10    -0.283736445035E+03    0.17455E-03   -0.13380E-03 36648   0.729E-02    0.526E-02
DAV:  11    -0.283736522365E+03   -0.77330E-04   -0.18862E-04 29268   0.428E-02    0.112E-01
DAV:  12    -0.283736513527E+03    0.88386E-05   -0.51775E-05 22092   0.263E-02
   9 F= -.28373651E+03 E0= -.28373329E+03  d E =-.159570E+00  mag=    18.0000
       N       E                     dE             d eps       ncg     rms          rms(c)
DAV:   1    -0.283730605583E+03    0.59168E-02   -0.90127E+00 26784   0.123E+01    0.137E+00
DAV:   2    -0.283793945294E+03   -0.63340E-01   -0.67273E-01 27744   0.233E+00    0.245E+00
DAV:   3    -0.283794300892E+03   -0.35560E-03   -0.14117E-01 34764   0.101E+00    0.239E+00
DAV:   4    -0.283791485598E+03    0.28153E-02   -0.34406E-02 33204   0.589E-01    0.120E+00
DAV:   5    -0.283790895405E+03    0.59019E-03   -0.12448E-02 33612   0.337E-01    0.313E-01
DAV:   6    -0.283790885384E+03    0.10021E-04   -0.33519E-03 34044   0.208E-01    0.450E-01
DAV:   7    -0.283790658427E+03    0.22696E-03   -0.18117E-03 33348   0.172E-01    0.266E-01
DAV:   8    -0.283790651765E+03    0.66618E-05   -0.14098E-03 35280   0.857E-02    0.231E-01
DAV:   9    -0.283790624648E+03    0.27118E-04   -0.58352E-04 33216   0.654E-02    0.977E-02
DAV:  10    -0.283790630341E+03   -0.56934E-05   -0.12506E-04 26028   0.352E-02    0.398E-02
DAV:  11    -0.283790631188E+03   -0.84694E-06   -0.21727E-05 16920   0.159E-02
  10 F= -.28379063E+03 E0= -.28378731E+03  d E =-.541177E-01  mag=    18.0000
       N       E                     dE             d eps       ncg     rms          rms(c)
DAV:   1    -0.283698451326E+03    0.92179E-01   -0.29693E+01 26784   0.214E+01    0.237E+00
DAV:   2    -0.283891363366E+03   -0.19291E+00   -0.20959E+00 28416   0.422E+00    0.645E+00
DAV:   3    -0.283860840924E+03    0.30522E-01   -0.42800E-01 32568   0.206E+00    0.166E+00
DAV:   4    -0.283867192895E+03   -0.63520E-02   -0.32040E-02 32340   0.679E-01    0.151E+00
DAV:   5    -0.283864502135E+03    0.26908E-02   -0.23202E-02 33264   0.453E-01    0.110E+00
DAV:   6    -0.283863994898E+03    0.50724E-03   -0.39065E-02 33708   0.427E-01    0.137E+00
DAV:   7    -0.283862957157E+03    0.10377E-02   -0.72229E-03 32244   0.353E-01    0.118E+00
DAV:   8    -0.283861715534E+03    0.12416E-02   -0.84979E-03 37068   0.229E-01    0.241E-01
DAV:   9    -0.283862190924E+03   -0.47539E-03   -0.14726E-03 34860   0.106E-01    0.960E-02
DAV:  10    -0.283862227088E+03   -0.36164E-04   -0.16820E-04 31308   0.535E-02    0.789E-02
DAV:  11    -0.283862222040E+03    0.50477E-05   -0.11738E-04 26544   0.277E-02    0.498E-02
DAV:  12    -0.283862223305E+03   -0.12649E-05   -0.37608E-05 18132   0.189E-02
  11 F= -.28386222E+03 E0= -.28385872E+03  d E =-.715921E-01  mag=    18.0000
       N       E                     dE             d eps       ncg     rms          rms(c)
DAV:   1    -0.283287162514E+03    0.57506E+00   -0.10290E+02 26784   0.405E+01    0.412E+00
DAV:   2    -0.283966704877E+03   -0.67954E+00   -0.71324E+00 27720   0.780E+00    0.876E+00
DAV:   3    -0.283926481760E+03    0.40223E-01   -0.11896E+00 32652   0.330E+00    0.380E+00
DAV:   4    -0.283928903938E+03   -0.24222E-02   -0.11180E-01 34656   0.127E+00    0.255E+00
DAV:   5    -0.283922236666E+03    0.66673E-02   -0.65559E-02 33864   0.736E-01    0.154E+00
DAV:   6    -0.283917559015E+03    0.46777E-02   -0.51769E-02 33816   0.648E-01    0.135E+00
DAV:   7    -0.283915213811E+03    0.23452E-02   -0.33667E-02 32712   0.560E-01    0.655E-01
DAV:   8    -0.283915055419E+03    0.15839E-03   -0.58448E-03 34464   0.330E-01    0.285E-01
DAV:   9    -0.283915053520E+03    0.18995E-05   -0.13306E-03 36444   0.110E-01    0.128E-01
DAV:  10    -0.283915060145E+03   -0.66256E-05   -0.41777E-04 33000   0.754E-02    0.703E-02
DAV:  11    -0.283915057202E+03    0.29434E-05   -0.12481E-04 27612   0.421E-02    0.497E-02
DAV:  12    -0.283915057280E+03   -0.78613E-07   -0.56596E-05 20328   0.246E-02
  12 F= -.28391506E+03 E0= -.28391144E+03  d E =-.528340E-01  mag=    18.0000
       N       E                     dE             d eps       ncg     rms          rms(c)
DAV:   1    -0.283425038018E+03    0.49002E+00   -0.84812E+01 26808   0.379E+01    0.401E+00
DAV:   2    -0.284042080934E+03   -0.61704E+00   -0.64609E+00 28560   0.736E+00    0.794E+00
DAV:   3    -0.283999939876E+03    0.42141E-01   -0.94559E-01 32100   0.313E+00    0.398E+00
DAV:   4    -0.283999162164E+03    0.77771E-03   -0.11601E-01 33816   0.129E+00    0.211E+00
DAV:   5    -0.283995072909E+03    0.40893E-02   -0.59098E-02 34116   0.760E-01    0.115E+00
DAV:   6    -0.283990461248E+03    0.46117E-02   -0.18254E-02 31224   0.568E-01    0.792E-01
DAV:   7    -0.283989593381E+03    0.86787E-03   -0.13560E-02 33672   0.486E-01    0.597E-01
DAV:   8    -0.283989535198E+03    0.58183E-04   -0.43148E-03 34848   0.229E-01    0.314E-01
DAV:   9    -0.283989494935E+03    0.40263E-04   -0.26104E-03 34764   0.142E-01    0.237E-01
DAV:  10    -0.283989472173E+03    0.22762E-04   -0.46851E-04 33516   0.789E-02    0.605E-02
DAV:  11    -0.283989481151E+03   -0.89784E-05   -0.14536E-04 28824   0.375E-02    0.751E-02
DAV:  12    -0.283989478946E+03    0.22047E-05   -0.82231E-05 21696   0.279E-02
  13 F= -.28398948E+03 E0= -.28398582E+03  d E =-.744217E-01  mag=    18.0000
       N       E                     dE             d eps       ncg     rms          rms(c)
DAV:   1    -0.283819456433E+03    0.17002E+00   -0.32387E+01 26784   0.207E+01    0.311E+00
DAV:   2    -0.284003805633E+03   -0.18435E+00   -0.20819E+00 29616   0.427E+00    0.628E+00
DAV:   3    -0.283968480030E+03    0.35326E-01   -0.50203E-01 31908   0.232E+00    0.245E+00
DAV:   4    -0.283969265911E+03   -0.78588E-03   -0.65592E-02 30744   0.885E-01    0.209E+00
DAV:   5    -0.283964304639E+03    0.49613E-02   -0.40713E-02 33504   0.604E-01    0.893E-01
DAV:   6    -0.283963769589E+03    0.53505E-03   -0.20208E-02 30960   0.440E-01    0.105E+00
DAV:   7    -0.283962201349E+03    0.15682E-02   -0.77251E-03 33636   0.358E-01    0.366E-01
DAV:   8    -0.283962467180E+03   -0.26583E-03   -0.44820E-03 35304   0.152E-01    0.291E-01
DAV:   9    -0.283962399217E+03    0.67963E-04   -0.82508E-04 31788   0.982E-02    0.119E-01
DAV:  10    -0.283962402487E+03   -0.32699E-05   -0.40030E-04 33372   0.497E-02    0.995E-02
DAV:  11    -0.283962399018E+03    0.34688E-05   -0.11993E-04 28908   0.366E-02    0.476E-02
DAV:  12    -0.283962399528E+03   -0.50999E-06   -0.16688E-05 18264   0.178E-02
  14 F= -.28396240E+03 E0= -.28395867E+03  d E =0.270794E-01  mag=    18.0000
       N       E                     dE             d eps       ncg     rms          rms(c)
DAV:   1    -0.284005952577E+03   -0.43554E-01   -0.86136E+00 26556   0.996E+00    0.205E+00
DAV:   2    -0.284068815122E+03   -0.62863E-01   -0.70444E-01 30660   0.238E+00    0.569E+00
DAV:   3    -0.284038712816E+03    0.30102E-01   -0.25954E-01 30900   0.152E+00    0.179E+00
DAV:   4    -0.284048235436E+03   -0.95226E-02   -0.89105E-02 32256   0.826E-01    0.267E+00
DAV:   5    -0.284039754855E+03    0.84806E-02   -0.40609E-02 32148   0.630E-01    0.777E-01
DAV:   6    -0.284040975643E+03   -0.12208E-02   -0.23247E-02 31128   0.330E-01    0.961E-01
DAV:   7    -0.284040412290E+03    0.56335E-03   -0.29666E-03 32532   0.241E-01    0.824E-01
DAV:   8    -0.284039848922E+03    0.56337E-03   -0.42361E-03 35160   0.131E-01    0.128E-01
DAV:   9    -0.284040148168E+03   -0.29925E-03   -0.76152E-04 30420   0.617E-02    0.182E-01
DAV:  10    -0.284040132533E+03    0.15635E-04   -0.20943E-04 28932   0.472E-02    0.853E-02
DAV:  11    -0.284040133689E+03   -0.11561E-05   -0.16524E-04 27696   0.293E-02    0.525E-02
DAV:  12    -0.284040135960E+03   -0.22710E-05   -0.88571E-06 16764   0.132E-02
  15 F= -.28404014E+03 E0= -.28403648E+03  d E =-.777364E-01  mag=    18.0000
       N       E                     dE             d eps       ncg     rms          rms(c)
DAV:   1    -0.284044698530E+03   -0.45648E-02   -0.16399E+00 26772   0.464E+00    0.517E-01
DAV:   2    -0.284053259497E+03   -0.85610E-02   -0.89690E-02 29064   0.883E-01    0.120E+00
DAV:   3    -0.284052248294E+03    0.10112E-02   -0.17660E-02 32340   0.396E-01    0.525E-01
DAV:   4    -0.284052674378E+03   -0.42608E-03   -0.62199E-03 33396   0.208E-01    0.710E-01
DAV:   5    -0.284052135988E+03    0.53839E-03   -0.26356E-03 32724   0.159E-01    0.162E-01
DAV:   6    -0.284052238086E+03   -0.10210E-03   -0.20339E-03 34524   0.965E-02    0.324E-01
DAV:   7    -0.284052122900E+03    0.11519E-03   -0.55474E-04 31920   0.814E-02    0.146E-01
DAV:   8    -0.284052121941E+03    0.95881E-06   -0.24865E-04 28980   0.366E-02    0.560E-02
DAV:   9    -0.284052129746E+03   -0.78051E-05   -0.46337E-05 17940   0.199E-02
  16 F= -.28405213E+03 E0= -.28404847E+03  d E =-.119938E-01  mag=    18.0000
       N       E                     dE             d eps       ncg     rms          rms(c)
DAV:   1    -0.283913010465E+03    0.13911E+00   -0.46090E+01 26544   0.240E+01    0.210E+00
DAV:   2    -0.284119915099E+03   -0.20690E+00   -0.22189E+00 28032   0.443E+00    0.469E+00
DAV:   3    -0.284103620589E+03    0.16295E-01   -0.28704E-01 32172   0.174E+00    0.189E+00
DAV:   4    -0.284104746768E+03   -0.11262E-02   -0.43112E-02 34224   0.694E-01    0.158E+00
DAV:   5    -0.284101925434E+03    0.28213E-02   -0.23436E-02 33732   0.453E-01    0.624E-01
DAV:   6    -0.284101082705E+03    0.84273E-03   -0.10546E-02 32268   0.340E-01    0.870E-01
DAV:   7    -0.284099985779E+03    0.10969E-02   -0.73005E-03 34104   0.316E-01    0.264E-01
DAV:   8    -0.284100259625E+03   -0.27385E-03   -0.24086E-03 33984   0.125E-01    0.239E-01
DAV:   9    -0.284100181951E+03    0.77675E-04   -0.56721E-04 33948   0.821E-02    0.662E-02
DAV:  10    -0.284100196608E+03   -0.14657E-04   -0.15237E-04 30600   0.296E-02    0.537E-02
DAV:  11    -0.284100196740E+03   -0.13208E-06   -0.38211E-05 18240   0.209E-02
  17 F= -.28410020E+03 E0= -.28409648E+03  d E =-.480670E-01  mag=    18.0000
       N       E                     dE             d eps       ncg     rms          rms(c)
DAV:   1    -0.282416983384E+03    0.16832E+01   -0.13572E+02 26808   0.396E+01    0.996E+00
DAV:   2    -0.283288670146E+03   -0.87169E+00   -0.10534E+01 31068   0.918E+00    0.145E+01
DAV:   3    -0.283073283080E+03    0.21539E+00   -0.37635E+00 30756   0.643E+00    0.747E+00
DAV:   4    -0.283005750074E+03    0.67533E-01   -0.22374E-01 30312   0.232E+00    0.331E+00
DAV:   5    -0.282988010010E+03    0.17740E-01   -0.43653E-01 35676   0.173E+00    0.387E+00
DAV:   6    -0.282973014449E+03    0.14996E-01   -0.67951E-02 33540   0.111E+00    0.164E+00
DAV:   7    -0.282973907291E+03   -0.89284E-03   -0.59207E-02 36180   0.503E-01    0.138E+00
DAV:   8    -0.282973950334E+03   -0.43043E-04   -0.22415E-02 32352   0.492E-01    0.708E-01
DAV:   9    -0.282973595855E+03    0.35448E-03   -0.87082E-03 34452   0.287E-01    0.287E-01
DAV:  10    -0.282973586167E+03    0.96876E-05   -0.10147E-03 33840   0.145E-01    0.152E-01
DAV:  11    -0.282973595710E+03   -0.95429E-05   -0.44277E-04 31608   0.649E-02    0.184E-01
DAV:  12    -0.282973566399E+03    0.29311E-04   -0.23473E-04 35004   0.479E-02    0.504E-02
DAV:  13    -0.282973587770E+03   -0.21371E-04   -0.12118E-04 23484   0.206E-02    0.829E-02
DAV:  14    -0.282973584870E+03    0.28994E-05   -0.29656E-05 19512   0.197E-02
  18 F= -.28297358E+03 E0= -.28297039E+03  d E =0.112661E+01  mag=    18.0000
       N       E                     dE             d eps       ncg     rms          rms(c)
DAV:   1    -0.283666123864E+03   -0.69254E+00   -0.14848E+01 25932   0.110E+01    0.353E+00
DAV:   2    -0.283776947247E+03   -0.11082E+00   -0.13408E+00 31440   0.329E+00    0.740E+00
DAV:   3    -0.283708476642E+03    0.68471E-01   -0.47943E-01 31344   0.237E+00    0.208E+00
DAV:   4    -0.283712033488E+03   -0.35568E-02   -0.54833E-02 30420   0.811E-01    0.245E+00
DAV:   5    -0.283706165979E+03    0.58675E-02   -0.67077E-02 33240   0.726E-01    0.128E+00
DAV:   6    -0.283709446783E+03   -0.32808E-02   -0.49862E-02 33684   0.536E-01    0.225E+00
DAV:   7    -0.283703569139E+03    0.58776E-02   -0.24199E-02 35436   0.479E-01    0.350E-01
DAV:   8    -0.283705089755E+03   -0.15206E-02   -0.29892E-03 32772   0.170E-01    0.170E-01
DAV:   9    -0.283705213945E+03   -0.12419E-03   -0.60268E-04 32364   0.740E-02    0.275E-01
DAV:  10    -0.283705130587E+03    0.83358E-04   -0.63980E-04 34728   0.627E-02    0.637E-02
DAV:  11    -0.283705167183E+03   -0.36596E-04   -0.15827E-04 29880   0.318E-02    0.132E-01
DAV:  12    -0.283705148684E+03    0.18499E-04   -0.44201E-05 19728   0.230E-02    0.558E-02
DAV:  13    -0.283705155773E+03   -0.70893E-05   -0.10817E-04 22956   0.173E-02    0.627E-02
DAV:  14    -0.283705155325E+03    0.44826E-06   -0.49709E-06 16572   0.118E-02
  19 F= -.28370516E+03 E0= -.28370149E+03  d E =-.731570E+00  mag=    18.0000
       N       E                     dE             d eps       ncg     rms          rms(c)
DAV:   1    -0.283968912782E+03   -0.26376E+00   -0.52910E+00 26940   0.612E+00    0.206E+00
DAV:   2    -0.284006097841E+03   -0.37185E-01   -0.43597E-01 31584   0.175E+00    0.503E+00
DAV:   3    -0.283980568063E+03    0.25530E-01   -0.21072E-01 31356   0.135E+00    0.146E+00
DAV:   4    -0.283983317521E+03   -0.27495E-02   -0.15272E-02 29988   0.513E-01    0.153E+00
DAV:   5    -0.283981371506E+03    0.19460E-02   -0.24134E-02 34632   0.406E-01    0.979E-01
DAV:   6    -0.283981578611E+03   -0.20711E-03   -0.17270E-02 34860   0.319E-01    0.102E+00
DAV:   7    -0.283980667152E+03    0.91146E-03   -0.37015E-03 33852   0.215E-01    0.356E-01
DAV:   8    -0.283980817522E+03   -0.15037E-03   -0.17008E-03 34656   0.117E-01    0.113E-01
DAV:   9    -0.283980892784E+03   -0.75261E-04   -0.45872E-04 31140   0.481E-02    0.178E-01
DAV:  10    -0.283980864784E+03    0.28000E-04   -0.11398E-04 24192   0.347E-02    0.676E-02
DAV:  11    -0.283980871510E+03   -0.67255E-05   -0.13112E-04 26664   0.243E-02    0.548E-02
DAV:  12    -0.283980872020E+03   -0.51078E-06   -0.90969E-06 16728   0.144E-02
  20 F= -.28398087E+03 E0= -.28397710E+03  d E =-.275717E+00  mag=    18.0000
       N       E                     dE             d eps       ncg     rms          rms(c)
DAV:   1    -0.284100461327E+03   -0.11959E+00   -0.78943E+00 27000   0.762E+00    0.254E+00
DAV:   2    -0.284157846803E+03   -0.57385E-01   -0.69066E-01 31584   0.224E+00    0.616E+00
DAV:   3    -0.284118931700E+03    0.38915E-01   -0.32683E-01 31260   0.168E+00    0.173E+00
DAV:   4    -0.284126782545E+03   -0.78508E-02   -0.65894E-02 31128   0.772E-01    0.275E+00
DAV:   5    -0.284118759970E+03    0.80226E-02   -0.33459E-02 33156   0.599E-01    0.101E+00
DAV:   6    -0.284120207588E+03   -0.14476E-02   -0.33719E-02 34404   0.361E-01    0.124E+00
DAV:   7    -0.284119199829E+03    0.10078E-02   -0.49658E-03 32256   0.282E-01    0.622E-01
DAV:   8    -0.284119165647E+03    0.34182E-04   -0.47701E-03 36636   0.152E-01    0.192E-01
DAV:   9    -0.284119328663E+03   -0.16302E-03   -0.74187E-04 31404   0.808E-02    0.182E-01
DAV:  10    -0.284119299266E+03    0.29398E-04   -0.21308E-04 29208   0.430E-02    0.394E-02
DAV:  11    -0.284119309587E+03   -0.10321E-04   -0.54519E-05 27072   0.246E-02    0.203E-02
DAV:  12    -0.284119310648E+03   -0.10607E-05   -0.72199E-06 15564   0.107E-02
  21 F= -.28411931E+03 E0= -.28411551E+03  d E =-.138439E+00  mag=    18.0000
       N       E                     dE             d eps       ncg     rms          rms(c)
DAV:   1    -0.284124142120E+03   -0.48325E-02   -0.21347E-01 27420   0.154E+00    0.392E-01
DAV:   2    -0.284126669806E+03   -0.25277E-02   -0.28622E-02 31740   0.425E-01    0.164E+00
DAV:   3    -0.284124308400E+03    0.23614E-02   -0.11774E-02 30372   0.320E-01    0.184E-01
DAV:   4    -0.284125281050E+03   -0.97265E-03   -0.54169E-03 33660   0.114E-01    0.710E-01
DAV:   5    -0.284125101667E+03    0.17938E-03   -0.98720E-04 29760   0.108E-01    0.656E-01
DAV:   6    -0.284124756325E+03    0.34534E-03   -0.14717E-03 30252   0.735E-02    0.195E-01
DAV:   7    -0.284124921438E+03   -0.16511E-03   -0.10939E-03 34572   0.498E-02    0.192E-01
DAV:   8    -0.284124970439E+03   -0.49001E-04   -0.15847E-04 25896   0.360E-02    0.276E-01
DAV:   9    -0.284124919236E+03    0.51203E-04   -0.59163E-05 19944   0.218E-02    0.199E-01
DAV:  10    -0.284124901446E+03    0.17789E-04   -0.19361E-04 20148   0.225E-02    0.324E-02
DAV:  11    -0.284124923362E+03   -0.21915E-04   -0.59134E-05 18240   0.110E-02    0.533E-02
DAV:  12    -0.284124924870E+03   -0.15082E-05   -0.24053E-06 16332   0.648E-03
  22 F= -.28412492E+03 E0= -.28412112E+03  d E =-.561422E-02  mag=    18.0000
       N       E                     dE             d eps       ncg     rms          rms(c)
DAV:   1    -0.284129721706E+03   -0.47983E-02   -0.67989E-01 27024   0.326E+00    0.533E-01
DAV:   2    -0.284136365116E+03   -0.66434E-02   -0.71675E-02 30636   0.726E-01    0.206E+00
DAV:   3    -0.284132747269E+03    0.36178E-02   -0.21500E-02 30384   0.445E-01    0.215E-01
DAV:   4    -0.284134217876E+03   -0.14706E-02   -0.69544E-03 35328   0.153E-01    0.810E-01
DAV:   5    -0.284133913874E+03    0.30400E-03   -0.16419E-03 30324   0.138E-01    0.698E-01
DAV:   6    -0.284133518840E+03    0.39503E-03   -0.24023E-03 33816   0.914E-02    0.123E-01
DAV:   7    -0.284133800040E+03   -0.28120E-03   -0.18199E-03 34428   0.683E-02    0.373E-01
DAV:   8    -0.284133768168E+03    0.31872E-04   -0.16942E-04 28812   0.529E-02    0.375E-01
DAV:   9    -0.284133669679E+03    0.98488E-04   -0.26432E-04 23064   0.324E-02    0.193E-01
DAV:  10    -0.284133685807E+03   -0.16128E-04   -0.29050E-04 23892   0.249E-02    0.170E-02
DAV:  11    -0.284133711615E+03   -0.25808E-04   -0.32419E-05 18324   0.135E-02    0.642E-02
DAV:  12    -0.284133707987E+03    0.36282E-05   -0.15794E-05 16416   0.118E-02
  23 F= -.28413371E+03 E0= -.28412990E+03  d E =-.878312E-02  mag=    18.0000
       N       E                     dE             d eps       ncg     rms          rms(c)
DAV:   1    -0.284136011976E+03   -0.23004E-02   -0.40972E-02 27648   0.865E-01    0.132E-01
DAV:   2    -0.284136625152E+03   -0.61318E-03   -0.67394E-03 29016   0.211E-01    0.726E-01
DAV:   3    -0.284136188860E+03    0.43629E-03   -0.20720E-03 30216   0.138E-01    0.133E-01
DAV:   4    -0.284136335004E+03   -0.14614E-03   -0.79154E-04 27504   0.403E-02    0.190E-01
DAV:   5    -0.284136342171E+03   -0.71671E-05   -0.10596E-04 22380   0.360E-02    0.202E-01
DAV:   6    -0.284136307182E+03    0.34989E-04   -0.90256E-05 18468   0.221E-02    0.852E-02
DAV:   7    -0.284136321839E+03   -0.14656E-04   -0.24754E-04 21576   0.230E-02    0.108E-01
DAV:   8    -0.284136329232E+03   -0.73932E-05   -0.31279E-05 18360   0.168E-02
  24 F= -.28413633E+03 E0= -.28413250E+03  d E =-.262124E-02  mag=    18.0000
       N       E                     dE             d eps       ncg     rms          rms(c)
DAV:   1    -0.284137661299E+03   -0.13395E-02   -0.17653E+00 27432   0.559E+00    0.575E-01
DAV:   2    -0.284151052252E+03   -0.13391E-01   -0.13551E-01 28488   0.104E+00    0.101E+00
DAV:   3    -0.284151447056E+03   -0.39480E-03   -0.28094E-02 33324   0.435E-01    0.114E+00
DAV:   4    -0.284150696052E+03    0.75100E-03   -0.55804E-03 31848   0.256E-01    0.459E-01
DAV:   5    -0.284150677226E+03    0.18826E-04   -0.18208E-03 33576   0.118E-01    0.119E-01
DAV:   6    -0.284150657474E+03    0.19751E-04   -0.47362E-04 31776   0.709E-02    0.160E-01
DAV:   7    -0.284150630409E+03    0.27066E-04   -0.48954E-04 35052   0.705E-02    0.159E-01
DAV:   8    -0.284150615661E+03    0.14747E-04   -0.19389E-04 28680   0.387E-02    0.540E-02
DAV:   9    -0.284150621843E+03   -0.61818E-05   -0.70628E-05 17856   0.205E-02
  25 F= -.28415062E+03 E0= -.28414684E+03  d E =-.142926E-01  mag=    18.0000
       N       E                     dE             d eps       ncg     rms          rms(c)
DAV:   1    -0.284146734388E+03    0.38813E-02   -0.35561E+00 26736   0.733E+00    0.149E+00
DAV:   2    -0.284220078339E+03   -0.73344E-01   -0.88003E-01 30312   0.226E+00    0.795E+00
DAV:   3    -0.284156238655E+03    0.63840E-01   -0.23303E-01 29940   0.167E+00    0.245E+00
DAV:   4    -0.284162744428E+03   -0.65058E-02   -0.52217E-02 31680   0.468E-01    0.422E-01
DAV:   5    -0.284166507262E+03   -0.37628E-02   -0.83449E-03 30192   0.214E-01    0.861E-01
DAV:   6    -0.284165746246E+03    0.76102E-03   -0.29728E-03 32088   0.181E-01    0.291E-01
DAV:   7    -0.284166113863E+03   -0.36762E-03   -0.62349E-03 36312   0.133E-01    0.709E-01
DAV:   8    -0.284165990960E+03    0.12290E-03   -0.44483E-04 29016   0.958E-02    0.706E-01
DAV:   9    -0.284165644873E+03    0.34609E-03   -0.94608E-04 35136   0.658E-02    0.349E-01
DAV:  10    -0.284165717934E+03   -0.73062E-04   -0.72646E-04 32988   0.391E-02    0.351E-02
DAV:  11    -0.284165800994E+03   -0.83059E-04   -0.16892E-04 19536   0.193E-02    0.118E-01
DAV:  12    -0.284165793258E+03    0.77361E-05   -0.20183E-05 18372   0.193E-02
  26 F= -.28416579E+03 E0= -.28416207E+03  d E =-.151714E-01  mag=    18.0000
       N       E                     dE             d eps       ncg     rms          rms(c)
DAV:   1    -0.283880511065E+03    0.28529E+00   -0.67900E+01 26532   0.297E+01    0.326E+00
DAV:   2    -0.284323586359E+03   -0.44308E+00   -0.49117E+00 29088   0.619E+00    0.113E+01
DAV:   3    -0.284197097027E+03    0.12649E+00   -0.74306E-01 31188   0.317E+00    0.344E+00
DAV:   4    -0.284210319291E+03   -0.13222E-01   -0.29952E-01 34224   0.132E+00    0.255E+00
DAV:   5    -0.284207253828E+03    0.30655E-02   -0.34483E-02 32412   0.840E-01    0.161E+00
DAV:   6    -0.284203194949E+03    0.40589E-02   -0.55360E-02 34920   0.577E-01    0.137E+00
DAV:   7    -0.284204127683E+03   -0.93273E-03   -0.16904E-02 30648   0.427E-01    0.215E+00
DAV:   8    -0.284199912191E+03    0.42155E-02   -0.19271E-02 33696   0.338E-01    0.515E-01
DAV:   9    -0.284201426382E+03   -0.15142E-02   -0.63047E-03 33084   0.138E-01    0.424E-01
DAV:  10    -0.284201505842E+03   -0.79459E-04   -0.67624E-04 29868   0.108E-01    0.309E-01
DAV:  11    -0.284201421936E+03    0.83906E-04   -0.82250E-04 36444   0.618E-02    0.358E-02
DAV:  12    -0.284201482179E+03   -0.60243E-04   -0.17281E-04 26832   0.248E-02    0.147E-01
DAV:  13    -0.284201463680E+03    0.18499E-04   -0.55948E-05 19932   0.254E-02    0.595E-02
DAV:  14    -0.284201466722E+03   -0.30417E-05   -0.31558E-05 16236   0.995E-03
  27 F= -.28420147E+03 E0= -.28419787E+03  d E =-.356735E-01  mag=    18.0000
       N       E                     dE             d eps       ncg     rms          rms(c)
DAV:   1    -0.280577609096E+03    0.36239E+01   -0.21674E+02 26352   0.530E+01    0.171E+01
DAV:   2    -0.281890017015E+03   -0.13124E+01   -0.15896E+01 31212   0.118E+01    0.146E+01
DAV:   3    -0.281919031770E+03   -0.29015E-01   -0.67642E+00 30612   0.948E+00    0.106E+01
DAV:   4    -0.281733466582E+03    0.18557E+00   -0.41110E-01 31584   0.338E+00    0.464E+00
DAV:   5    -0.281646246223E+03    0.87220E-01   -0.22705E-01 35076   0.227E+00    0.207E+00
DAV:   6    -0.281653219338E+03   -0.69731E-02   -0.26479E-01 34632   0.127E+00    0.491E+00
DAV:   7    -0.281633480404E+03    0.19739E-01   -0.15287E-01 32016   0.116E+00    0.140E+00
DAV:   8    -0.281636907546E+03   -0.34271E-02   -0.56893E-02 37008   0.666E-01    0.972E-01
DAV:   9    -0.281637290732E+03   -0.38319E-03   -0.62076E-03 31440   0.291E-01    0.724E-01
DAV:  10    -0.281636397763E+03    0.89297E-03   -0.21527E-03 38160   0.180E-01    0.389E-01
DAV:  11    -0.281636271951E+03    0.12581E-03   -0.13212E-03 34872   0.105E-01    0.109E-01
DAV:  12    -0.281636341091E+03   -0.69141E-04   -0.29236E-04 30276   0.443E-02    0.772E-02
DAV:  13    -0.281636341594E+03   -0.50229E-06   -0.59426E-05 25356   0.319E-02
  28 F= -.28163634E+03 E0= -.28163491E+03  d E =0.256513E+01  mag=    18.0000
       N       E                     dE             d eps       ncg     rms          rms(c)
DAV:   1    -0.283634938872E+03   -0.19986E+01   -0.10265E+02 25920   0.241E+01    0.112E+01
DAV:   2    -0.284291925580E+03   -0.65699E+00   -0.98904E+00 31272   0.961E+00    0.132E+01
DAV:   3    -0.283988904807E+03    0.30302E+00   -0.11894E+00 31728   0.593E+00    0.407E+00
DAV:   4    -0.284050818736E+03   -0.61914E-01   -0.18290E+00 34404   0.261E+00    0.111E+01
DAV:   5    -0.283903865099E+03    0.14695E+00   -0.21558E+00 32676   0.365E+00    0.401E+00
DAV:   6    -0.283929230416E+03   -0.25365E-01   -0.10741E-01 29796   0.137E+00    0.392E+00
DAV:   7    -0.283905053498E+03    0.24177E-01   -0.88408E-02 35532   0.104E+00    0.171E+00
DAV:   8    -0.283905544840E+03   -0.49134E-03   -0.18534E-02 33432   0.412E-01    0.699E-01
DAV:   9    -0.283905590966E+03   -0.46126E-04   -0.54517E-03 30936   0.179E-01    0.162E-01
DAV:  10    -0.283905786203E+03   -0.19524E-03   -0.16448E-03 31872   0.134E-01    0.213E-01
DAV:  11    -0.283905739969E+03    0.46234E-04   -0.67918E-04 31776   0.950E-02    0.485E-02
DAV:  12    -0.283905753632E+03   -0.13663E-04   -0.80446E-05 29160   0.298E-02    0.378E-02
DAV:  13    -0.283905757822E+03   -0.41894E-05   -0.18768E-05 18996   0.182E-02
  29 F= -.28390576E+03 E0= -.28390409E+03  d E =-.226942E+01  mag=    18.0000
       N       E                     dE             d eps       ncg     rms          rms(c)
DAV:   1    -0.284051071384E+03   -0.14532E+00   -0.72160E+00 26340   0.801E+00    0.401E+00
DAV:   2    -0.284226301099E+03   -0.17523E+00   -0.24215E+00 33924   0.437E+00    0.988E+00
DAV:   3    -0.284075186728E+03    0.15111E+00   -0.42297E-01 31848   0.321E+00    0.307E+00
DAV:   4    -0.284080040338E+03   -0.48536E-02   -0.37335E-01 37116   0.113E+00    0.426E+00
DAV:   5    -0.284065680302E+03    0.14360E-01   -0.12869E-01 30444   0.104E+00    0.544E-01
DAV:   6    -0.284070604322E+03   -0.49240E-02   -0.17886E-02 31308   0.385E-01    0.112E+00
DAV:   7    -0.284069220470E+03    0.13839E-02   -0.70662E-03 35004   0.283E-01    0.279E-01
DAV:   8    -0.284069412086E+03   -0.19162E-03   -0.12007E-03 33372   0.161E-01    0.149E-01
DAV:   9    -0.284069425097E+03   -0.13011E-04   -0.20644E-04 31848   0.404E-02    0.128E-01
DAV:  10    -0.284069408308E+03    0.16789E-04   -0.74954E-05 27456   0.309E-02    0.733E-02
DAV:  11    -0.284069409604E+03   -0.12961E-05   -0.90021E-05 23268   0.245E-02
  30 F= -.28406941E+03 E0= -.28406675E+03  d E =-.163652E+00  mag=    18.0000
       N       E                     dE             d eps       ncg     rms          rms(c)
DAV:   1    -0.284133459029E+03   -0.64051E-01   -0.34912E+00 26340   0.595E+00    0.273E+00
DAV:   2    -0.284240933718E+03   -0.10747E+00   -0.13216E+00 34140   0.305E+00    0.852E+00
DAV:   3    -0.284138529465E+03    0.10240E+00   -0.32300E-01 31428   0.239E+00    0.221E+00
DAV:   4    -0.284152532006E+03   -0.14003E-01   -0.25715E-01 36504   0.773E-01    0.386E+00
DAV:   5    -0.284146172693E+03    0.63593E-02   -0.34051E-02 29556   0.683E-01    0.270E+00
DAV:   6    -0.284140885691E+03    0.52870E-02   -0.39849E-02 34044   0.395E-01    0.423E-01
DAV:   7    -0.284143847757E+03   -0.29621E-02   -0.51754E-03 30252   0.172E-01    0.364E-01
DAV:   8    -0.284144149828E+03   -0.30207E-03   -0.16014E-03 33564   0.115E-01    0.571E-01
DAV:   9    -0.284143926504E+03    0.22332E-03   -0.31993E-04 35268   0.636E-02    0.418E-01
DAV:  10    -0.284143829976E+03    0.96528E-04   -0.77229E-04 35088   0.537E-02    0.771E-02
DAV:  11    -0.284143923318E+03   -0.93342E-04   -0.34318E-04 24528   0.260E-02    0.153E-01
DAV:  12    -0.284143918186E+03    0.51320E-05   -0.15853E-05 19632   0.226E-02
  31 F= -.28414392E+03 E0= -.28414059E+03  d E =-.745086E-01  mag=    18.0000
       N       E                     dE             d eps       ncg     rms          rms(c)
DAV:   1    -0.284173577028E+03   -0.29654E-01   -0.98953E-01 25920   0.305E+00    0.804E-01
DAV:   2    -0.284178053565E+03   -0.44765E-02   -0.54365E-02 30864   0.674E-01    0.902E-01
DAV:   3    -0.284178667144E+03   -0.61358E-03   -0.32290E-02 32640   0.460E-01    0.150E+00
DAV:   4    -0.284177006889E+03    0.16603E-02   -0.16372E-02 32208   0.352E-01    0.743E-01
DAV:   5    -0.284176908505E+03    0.98384E-04   -0.63598E-03 33696   0.229E-01    0.257E-01
DAV:   6    -0.284176922658E+03   -0.14153E-04   -0.58059E-04 32304   0.968E-02    0.148E-01
DAV:   7    -0.284176903428E+03    0.19230E-04   -0.31580E-04 33396   0.642E-02    0.534E-02
DAV:   8    -0.284176908454E+03   -0.50262E-05   -0.39133E-05 25284   0.218E-02
  32 F= -.28417691E+03 E0= -.28417350E+03  d E =-.329903E-01  mag=    18.0000
       N       E                     dE             d eps       ncg     rms          rms(c)
DAV:   1    -0.284190200929E+03   -0.13298E-01   -0.15118E+00 26040   0.380E+00    0.114E+00
DAV:   2    -0.284207406728E+03   -0.17206E-01   -0.21184E-01 31644   0.113E+00    0.437E+00
DAV:   3    -0.284190717165E+03    0.16690E-01   -0.10144E-01 30660   0.879E-01    0.380E-01
DAV:   4    -0.284196930964E+03   -0.62138E-02   -0.24740E-02 30660   0.264E-01    0.152E+00
DAV:   5    -0.284195693374E+03    0.12376E-02   -0.52528E-03 29868   0.263E-01    0.112E+00
DAV:   6    -0.284194548791E+03    0.11446E-02   -0.61451E-03 35232   0.184E-01    0.288E-01
DAV:   7    -0.284195079143E+03   -0.53035E-03   -0.36074E-03 33936   0.109E-01    0.393E-01
DAV:   8    -0.284195092986E+03   -0.13843E-04   -0.20997E-04 29688   0.707E-02    0.363E-01
DAV:   9    -0.284194981656E+03    0.11133E-03   -0.53563E-04 33492   0.504E-02    0.151E-01
DAV:  10    -0.284195017423E+03   -0.35767E-04   -0.41925E-04 27708   0.336E-02    0.961E-02
DAV:  11    -0.284195029806E+03   -0.12384E-04   -0.14713E-05 18912   0.186E-02    0.110E-01
DAV:  12    -0.284195017049E+03    0.12757E-04   -0.55511E-05 16680   0.163E-02    0.255E-02
DAV:  13    -0.284195021874E+03   -0.48253E-05   -0.20149E-05 16416   0.858E-03
  33 F= -.28419502E+03 E0= -.28419158E+03  d E =-.181134E-01  mag=    18.0000
       N       E                     dE             d eps       ncg     rms          rms(c)
DAV:   1    -0.284198571058E+03   -0.35540E-02   -0.24857E-01 27084   0.192E+00    0.396E-01
DAV:   2    -0.284202728380E+03   -0.41573E-02   -0.47793E-02 31032   0.539E-01    0.218E+00
DAV:   3    -0.284198705387E+03    0.40230E-02   -0.18479E-02 30036   0.407E-01    0.386E-01
DAV:   4    -0.284200020719E+03   -0.13153E-02   -0.69846E-03 31656   0.106E-01    0.598E-01
DAV:   5    -0.284199978212E+03    0.42507E-04   -0.72541E-04 29028   0.110E-01    0.484E-01
DAV:   6    -0.284199792176E+03    0.18604E-03   -0.57845E-04 28812   0.577E-02    0.229E-01
DAV:   7    -0.284199836052E+03   -0.43876E-04   -0.98853E-04 34044   0.510E-02    0.148E-01
DAV:   8    -0.284199898368E+03   -0.62315E-04   -0.18393E-04 26208   0.315E-02    0.258E-01
DAV:   9    -0.284199844365E+03    0.54003E-04   -0.70597E-05 20520   0.269E-02    0.165E-01
DAV:  10    -0.284199836847E+03    0.75182E-05   -0.12239E-04 19200   0.179E-02    0.411E-02
DAV:  11    -0.284199849671E+03   -0.12824E-04   -0.44665E-05 16956   0.964E-03    0.352E-02
DAV:  12    -0.284199851038E+03   -0.13670E-05   -0.18207E-06 16068   0.692E-03
  34 F= -.28419985E+03 E0= -.28419647E+03  d E =-.482916E-02  mag=    18.0000
       N       E                     dE             d eps       ncg     rms          rms(c)
DAV:   1    -0.284198802383E+03    0.10473E-02   -0.23751E+00 27312   0.640E+00    0.108E+00
DAV:   2    -0.284239693846E+03   -0.40891E-01   -0.47338E-01 31056   0.169E+00    0.594E+00
DAV:   3    -0.284207651002E+03    0.32043E-01   -0.13196E-01 29616   0.119E+00    0.155E+00
DAV:   4    -0.284213821678E+03   -0.61707E-02   -0.42057E-02 33744   0.373E-01    0.905E-01
DAV:   5    -0.284215594621E+03   -0.17729E-02   -0.74869E-03 30636   0.257E-01    0.113E+00
DAV:   6    -0.284214211777E+03    0.13828E-02   -0.32392E-03 32664   0.171E-01    0.475E-01
DAV:   7    -0.284214415963E+03   -0.20419E-03   -0.57229E-03 35556   0.129E-01    0.434E-01
DAV:   8    -0.284214705480E+03   -0.28952E-03   -0.88518E-04 29976   0.768E-02    0.688E-01
DAV:   9    -0.284214351797E+03    0.35368E-03   -0.53154E-04 34584   0.640E-02    0.455E-01
DAV:  10    -0.284214288783E+03    0.63014E-04   -0.82708E-04 35592   0.464E-02    0.116E-01
DAV:  11    -0.284214378594E+03   -0.89810E-04   -0.23222E-04 19464   0.205E-02    0.621E-02
DAV:  12    -0.284214390184E+03   -0.11591E-04   -0.95115E-06 18588   0.176E-02    0.541E-02
DAV:  13    -0.284214387724E+03    0.24600E-05   -0.14502E-05 15564   0.875E-03
  35 F= -.28421439E+03 E0= -.28421110E+03  d E =-.145367E-01  mag=    18.0000
       N       E                     dE             d eps       ncg     rms          rms(c)
DAV:   1    -0.284209399849E+03    0.49903E-02   -0.21426E+00 27276   0.559E+00    0.695E-01
DAV:   2    -0.284229811558E+03   -0.20412E-01   -0.22236E-01 30060   0.121E+00    0.384E+00
DAV:   3    -0.284217872226E+03    0.11939E-01   -0.58456E-02 29520   0.760E-01    0.793E-01
DAV:   4    -0.284221252835E+03   -0.33806E-02   -0.18374E-02 33372   0.216E-01    0.814E-01
DAV:   5    -0.284221521954E+03   -0.26912E-03   -0.29066E-03 29976   0.190E-01    0.781E-01
DAV:   6    -0.284220861947E+03    0.66001E-03   -0.21974E-03 32652   0.115E-01    0.233E-01
DAV:   7    -0.284221154292E+03   -0.29234E-03   -0.37504E-03 34656   0.105E-01    0.496E-01
DAV:   8    -0.284221183402E+03   -0.29110E-04   -0.43918E-04 29496   0.723E-02    0.575E-01
DAV:   9    -0.284220925496E+03    0.25791E-03   -0.60496E-04 33624   0.566E-02    0.292E-01
DAV:  10    -0.284220954816E+03   -0.29320E-04   -0.48300E-04 29316   0.328E-02    0.415E-02
DAV:  11    -0.284221005666E+03   -0.50850E-04   -0.10334E-04 18504   0.159E-02    0.779E-02
DAV:  12    -0.284221002432E+03    0.32342E-05   -0.18693E-05 17376   0.173E-02
  36 F= -.28422100E+03 E0= -.28421780E+03  d E =-.661471E-02  mag=    18.0000
       N       E                     dE             d eps       ncg     rms          rms(c)
DAV:   1    -0.284179345446E+03    0.41660E-01   -0.12416E+01 27096   0.121E+01    0.153E+00
DAV:   2    -0.284267672056E+03   -0.88327E-01   -0.98716E-01 29808   0.260E+00    0.715E+00
DAV:   3    -0.284221809263E+03    0.45863E-01   -0.23261E-01 29724   0.160E+00    0.156E+00
DAV:   4    -0.284232108156E+03   -0.10299E-01   -0.72636E-02 32568   0.554E-01    0.145E+00
DAV:   5    -0.284232184757E+03   -0.76601E-04   -0.11297E-02 31524   0.399E-01    0.128E+00
DAV:   6    -0.284230013912E+03    0.21708E-02   -0.82081E-03 33696   0.248E-01    0.293E-01
DAV:   7    -0.284231005662E+03   -0.99175E-03   -0.11708E-02 34812   0.197E-01    0.103E+00
DAV:   8    -0.284230502752E+03    0.50291E-03   -0.91918E-04 29256   0.145E-01    0.871E-01
DAV:   9    -0.284229999602E+03    0.50315E-03   -0.23077E-03 37116   0.902E-02    0.332E-01
DAV:  10    -0.284230195418E+03   -0.19582E-03   -0.11162E-03 32760   0.533E-02    0.616E-02
DAV:  11    -0.284230284415E+03   -0.88996E-04   -0.12940E-04 21600   0.270E-02    0.160E-01
DAV:  12    -0.284230254352E+03    0.30063E-04   -0.13282E-04 22932   0.312E-02    0.257E-02
DAV:  13    -0.284230263315E+03   -0.89631E-05   -0.26233E-05 16476   0.107E-02
  37 F= -.28423026E+03 E0= -.28422728E+03  d E =-.926088E-02  mag=    18.0000
       N       E                     dE             d eps       ncg     rms          rms(c)
DAV:   1    -0.281698920300E+03    0.25313E+01   -0.22108E+02 27036   0.598E+01    0.105E+01
DAV:   2    -0.283639038113E+03   -0.19401E+01   -0.21560E+01 29508   0.136E+01    0.133E+01
DAV:   3    -0.283495730534E+03    0.14331E+00   -0.29348E+00 30636   0.694E+00    0.102E+01
DAV:   4    -0.283399617300E+03    0.96113E-01   -0.18512E+00 33000   0.351E+00    0.568E+00
DAV:   5    -0.283415704371E+03   -0.16087E-01   -0.63439E-01 33900   0.196E+00    0.781E+00
DAV:   6    -0.283360745980E+03    0.54958E-01   -0.90025E-01 32328   0.232E+00    0.342E+00
DAV:   7    -0.283361201967E+03   -0.45599E-03   -0.94255E-02 30636   0.111E+00    0.226E+00
DAV:   8    -0.283353783174E+03    0.74188E-02   -0.10637E-01 34548   0.868E-01    0.795E-01
DAV:   9    -0.283355119670E+03   -0.13365E-02   -0.92736E-03 31272   0.364E-01    0.358E-01
DAV:  10    -0.283355042485E+03    0.77185E-04   -0.14487E-03 34056   0.146E-01    0.226E-01
DAV:  11    -0.283354968915E+03    0.73570E-04   -0.12892E-03 36492   0.942E-02    0.116E-01
DAV:  12    -0.283354995044E+03   -0.26129E-04   -0.13754E-04 28908   0.407E-02    0.117E-01
DAV:  13    -0.283354981855E+03    0.13189E-04   -0.83584E-05 29496   0.281E-02    0.493E-02
DAV:  14    -0.283354983812E+03   -0.19570E-05   -0.32244E-05 16836   0.130E-02
  38 F= -.28335498E+03 E0= -.28335131E+03  d E =0.875280E+00  mag=    18.0000
       N       E                     dE             d eps       ncg     rms          rms(c)
DAV:   1    -0.283910462161E+03   -0.55548E+00   -0.39887E+01 26112   0.189E+01    0.487E+00
DAV:   2    -0.284118558342E+03   -0.20810E+00   -0.25046E+00 31548   0.445E+00    0.735E+00
DAV:   3    -0.284086051363E+03    0.32507E-01   -0.93644E-01 31584   0.278E+00    0.459E+00
DAV:   4    -0.284076735765E+03    0.93156E-02   -0.24525E-01 33516   0.161E+00    0.440E+00
DAV:   5    -0.284054669038E+03    0.22067E-01   -0.16963E-01 33504   0.127E+00    0.208E+00
DAV:   6    -0.284053058625E+03    0.16104E-02   -0.82689E-02 33612   0.840E-01    0.150E+00
DAV:   7    -0.284051374106E+03    0.16845E-02   -0.17032E-02 34536   0.509E-01    0.607E-01
DAV:   8    -0.284051410128E+03   -0.36022E-04   -0.60102E-03 33996   0.218E-01    0.285E-01
DAV:   9    -0.284051400941E+03    0.91875E-05   -0.10483E-03 34188   0.117E-01    0.794E-02
DAV:  10    -0.284051392870E+03    0.80703E-05   -0.30050E-04 30276   0.650E-02    0.981E-02
DAV:  11    -0.284051383774E+03    0.90960E-05   -0.19721E-04 31476   0.408E-02    0.514E-02
DAV:  12    -0.284051385942E+03   -0.21681E-05   -0.29272E-05 20220   0.210E-02
  39 F= -.28405139E+03 E0= -.28404850E+03  d E =-.696402E+00  mag=    18.0000
       N       E                     dE             d eps       ncg     rms          rms(c)
DAV:   1    -0.284076920237E+03   -0.25536E-01   -0.41622E-01 27024   0.230E+00    0.446E-01
DAV:   2    -0.284079277369E+03   -0.23571E-02   -0.27283E-02 30684   0.485E-01    0.952E-01
DAV:   3    -0.284078715495E+03    0.56187E-03   -0.11973E-02 31440   0.306E-01    0.497E-01
DAV:   4    -0.284078712179E+03    0.33166E-05   -0.14509E-03 32112   0.149E-01    0.323E-01
DAV:   5    -0.284078600807E+03    0.11137E-03   -0.91394E-04 34128   0.926E-02    0.125E-01
DAV:   6    -0.284078624375E+03   -0.23568E-04   -0.65311E-04 31188   0.517E-02    0.186E-01
DAV:   7    -0.284078596350E+03    0.28024E-04   -0.11802E-04 30756   0.411E-02    0.879E-02
DAV:   8    -0.284078595561E+03    0.78905E-06   -0.95314E-05 17628   0.188E-02
  40 F= -.28407860E+03 E0= -.28407574E+03  d E =-.272096E-01  mag=    18.0000
       N       E                     dE             d eps       ncg     rms          rms(c)
DAV:   1    -0.284117468279E+03   -0.38872E-01   -0.12103E+01 26964   0.133E+01    0.226E+00
DAV:   2    -0.284198468330E+03   -0.81000E-01   -0.90122E-01 30132   0.273E+00    0.499E+00
DAV:   3    -0.284181920081E+03    0.16548E-01   -0.31139E-01 31152   0.160E+00    0.212E+00
DAV:   4    -0.284182312856E+03   -0.39278E-03   -0.12787E-02 31152   0.597E-01    0.126E+00
DAV:   5    -0.284180361610E+03    0.19512E-02   -0.30810E-02 34812   0.396E-01    0.761E-01
DAV:   6    -0.284181079546E+03   -0.71794E-03   -0.55639E-03 32448   0.246E-01    0.107E+00
DAV:   7    -0.284180045916E+03    0.10336E-02   -0.36634E-03 34740   0.173E-01    0.520E-01
DAV:   8    -0.284180092010E+03   -0.46094E-04   -0.24183E-03 36996   0.101E-01    0.835E-02
DAV:   9    -0.284180249402E+03   -0.15739E-03   -0.27699E-04 28656   0.487E-02    0.145E-01
DAV:  10    -0.284180224008E+03    0.25394E-04   -0.95629E-05 27516   0.341E-02    0.499E-02
DAV:  11    -0.284180229009E+03   -0.50014E-05   -0.85512E-05 23904   0.201E-02
  41 F= -.28418023E+03 E0= -.28417749E+03  d E =-.101633E+00  mag=    18.0000
       N       E                     dE             d eps       ncg     rms          rms(c)
DAV:   1    -0.284173573478E+03    0.66505E-02   -0.32004E-01 26844   0.184E+00    0.429E-01
DAV:   2    -0.284175141440E+03   -0.15680E-02   -0.19124E-02 31332   0.404E-01    0.837E-01
DAV:   3    -0.284174665055E+03    0.47638E-03   -0.98295E-03 31476   0.282E-01    0.488E-01
DAV:   4    -0.284174639996E+03    0.25059E-04   -0.16944E-03 32676   0.148E-01    0.340E-01
DAV:   5    -0.284174524197E+03    0.11580E-03   -0.10183E-03 34356   0.953E-02    0.102E-01
DAV:   6    -0.284174550931E+03   -0.26734E-04   -0.40434E-04 29232   0.413E-02    0.143E-01
DAV:   7    -0.284174533156E+03    0.17775E-04   -0.98040E-05 28656   0.353E-02    0.561E-02
DAV:   8    -0.284174535649E+03   -0.24935E-05   -0.63349E-05 16704   0.162E-02
  42 F= -.28417454E+03 E0= -.28417180E+03  d E =0.569336E-02  mag=    18.0000
       N       E                     dE             d eps       ncg     rms          rms(c)
DAV:   1    -0.284185776344E+03   -0.11243E-01   -0.53982E-01 27396   0.313E+00    0.410E-01
DAV:   2    -0.284190034925E+03   -0.42586E-02   -0.44431E-02 29688   0.608E-01    0.937E-01
DAV:   3    -0.284189581774E+03    0.45315E-03   -0.11095E-02 31884   0.308E-01    0.448E-01
DAV:   4    -0.284189591726E+03   -0.99517E-05   -0.53126E-04 33132   0.122E-01    0.231E-01
DAV:   5    -0.284189542708E+03    0.49018E-04   -0.12899E-03 34728   0.747E-02    0.192E-01
DAV:   6    -0.284189561602E+03   -0.18894E-04   -0.24903E-04 31080   0.548E-02    0.235E-01
DAV:   7    -0.284189510461E+03    0.51142E-04   -0.15453E-04 26460   0.374E-02    0.116E-01
DAV:   8    -0.284189512837E+03   -0.23765E-05   -0.10906E-04 19356   0.183E-02    0.175E-02
DAV:   9    -0.284189520214E+03   -0.73767E-05   -0.17359E-05 16692   0.125E-02
  43 F= -.28418952E+03 E0= -.28418686E+03  d E =-.149846E-01  mag=    18.0000
       N       E                     dE             d eps       ncg     rms          rms(c)
DAV:   1    -0.284171150886E+03    0.18362E-01   -0.76799E+00 27624   0.128E+01    0.153E+00
DAV:   2    -0.284251606300E+03   -0.80455E-01   -0.83146E-01 29016   0.253E+00    0.470E+00
DAV:   3    -0.284236016603E+03    0.15590E-01   -0.18206E-01 31092   0.128E+00    0.917E-01
DAV:   4    -0.284241179805E+03   -0.51632E-02   -0.90205E-03 33720   0.359E-01    0.941E-01
DAV:   5    -0.284239704999E+03    0.14748E-02   -0.92743E-03 34764   0.259E-01    0.272E-01
DAV:   6    -0.284240145356E+03   -0.44036E-03   -0.44858E-03 31656   0.164E-01    0.800E-01
DAV:   7    -0.284239691270E+03    0.45409E-03   -0.18307E-03 33000   0.139E-01    0.559E-01
DAV:   8    -0.284239498076E+03    0.19319E-03   -0.23883E-03 34800   0.100E-01    0.668E-02
DAV:   9    -0.284239650143E+03   -0.15207E-03   -0.24961E-04 28248   0.427E-02    0.122E-01
DAV:  10    -0.284239635757E+03    0.14386E-04   -0.46815E-05 20712   0.273E-02    0.576E-02
DAV:  11    -0.284239638265E+03   -0.25086E-05   -0.96732E-05 24060   0.209E-02
  44 F= -.28423964E+03 E0= -.28423696E+03  d E =-.501181E-01  mag=    18.0000
       N       E                     dE             d eps       ncg     rms          rms(c)
DAV:   1    -0.284225773438E+03    0.13862E-01   -0.31087E+00 27648   0.837E+00    0.952E-01
DAV:   2    -0.284260939176E+03   -0.35166E-01   -0.34605E-01 28728   0.159E+00    0.264E+00
DAV:   3    -0.284256867755E+03    0.40714E-02   -0.67451E-02 31464   0.763E-01    0.772E-01
DAV:   4    -0.284258379601E+03   -0.15118E-02   -0.26291E-03 31008   0.256E-01    0.522E-01
DAV:   5    -0.284257916345E+03    0.46326E-03   -0.35702E-03 35232   0.146E-01    0.244E-01
DAV:   6    -0.284258010624E+03   -0.94280E-04   -0.14913E-03 32580   0.113E-01    0.488E-01
DAV:   7    -0.284257826825E+03    0.18380E-03   -0.80972E-04 33528   0.961E-02    0.299E-01
DAV:   8    -0.284257786607E+03    0.40218E-04   -0.66656E-04 34668   0.549E-02    0.335E-02
DAV:   9    -0.284257832968E+03   -0.46361E-04   -0.81043E-05 24804   0.284E-02    0.763E-02
DAV:  10    -0.284257826409E+03    0.65589E-05   -0.20701E-05 16932   0.166E-02
  45 F= -.28425783E+03 E0= -.28425524E+03  d E =-.181881E-01  mag=    18.0000
       N       E                     dE             d eps       ncg     rms          rms(c)
DAV:   1    -0.284249697226E+03    0.81357E-02   -0.12762E+00 27648   0.504E+00    0.782E-01
DAV:   2    -0.284268510784E+03   -0.18814E-01   -0.19517E-01 30180   0.113E+00    0.343E+00
DAV:   3    -0.284259067774E+03    0.94430E-02   -0.58340E-02 29928   0.746E-01    0.380E-01
DAV:   4    -0.284262170235E+03   -0.31025E-02   -0.97811E-03 31032   0.170E-01    0.723E-01
DAV:   5    -0.284261737162E+03    0.43307E-03   -0.19127E-03 30936   0.171E-01    0.325E-01
DAV:   6    -0.284261698920E+03    0.38242E-04   -0.14767E-03 35304   0.854E-02    0.171E-01
DAV:   7    -0.284261810101E+03   -0.11118E-03   -0.95362E-04 32400   0.775E-02    0.401E-01
DAV:   8    -0.284261652577E+03    0.15752E-03   -0.35210E-04 32892   0.616E-02    0.186E-01
DAV:   9    -0.284261662271E+03   -0.96940E-05   -0.32484E-04 29148   0.297E-02    0.214E-02
DAV:  10    -0.284261682839E+03   -0.20569E-04   -0.27100E-05 17868   0.148E-02    0.561E-02
DAV:  11    -0.284261679831E+03    0.30080E-05   -0.70047E-06 15984   0.106E-02
  46 F= -.28426168E+03 E0= -.28425918E+03  d E =-.385342E-02  mag=    18.0000
       N       E                     dE             d eps       ncg     rms          rms(c)
DAV:   1    -0.284260082686E+03    0.16002E-02   -0.15540E-01 26784   0.147E+00    0.185E-01
DAV:   2    -0.284260885449E+03   -0.80276E-03   -0.85214E-03 28284   0.275E-01    0.812E-02
DAV:   3    -0.284260877271E+03    0.81785E-05   -0.36020E-04 33432   0.604E-02    0.134E-01
DAV:   4    -0.284260862902E+03    0.14369E-04   -0.27367E-04 27252   0.477E-02    0.101E-01
DAV:   5    -0.284260853400E+03    0.95014E-05   -0.53688E-05 27372   0.319E-02
  47 F= -.28426085E+03 E0= -.28425827E+03  d E =0.826431E-03  mag=    18.0000
       N       E                     dE             d eps       ncg     rms          rms(c)
DAV:   1    -0.284249110281E+03    0.11753E-01   -0.14523E+00 26784   0.440E+00    0.409E-01
DAV:   2    -0.284256188260E+03   -0.70780E-02   -0.74021E-02 27900   0.813E-01    0.808E-01
DAV:   3    -0.284255980672E+03    0.20759E-03   -0.10137E-02 31956   0.296E-01    0.523E-01
DAV:   4    -0.284255815966E+03    0.16471E-03   -0.92866E-04 31692   0.142E-01    0.208E-01
DAV:   5    -0.284255782349E+03    0.33616E-04   -0.11008E-03 35376   0.822E-02    0.202E-01
DAV:   6    -0.284255799478E+03   -0.17129E-04   -0.70773E-04 34212   0.776E-02    0.311E-01
DAV:   7    -0.284255703911E+03    0.95567E-04   -0.36800E-04 30420   0.563E-02    0.914E-02
DAV:   8    -0.284255724537E+03   -0.20626E-04   -0.11093E-04 20556   0.188E-02    0.240E-02
DAV:   9    -0.284255729964E+03   -0.54265E-05   -0.11506E-05 16548   0.143E-02
  48 F= -.28425573E+03 E0= -.28425326E+03  d E =0.512344E-02  mag=    18.0000
       N       E                     dE             d eps       ncg     rms          rms(c)
DAV:   1    -0.284185535085E+03    0.70189E-01   -0.15108E+01 26628   0.131E+01    0.168E+00
DAV:   2    -0.284282773429E+03   -0.97238E-01   -0.11072E+00 28476   0.291E+00    0.757E+00
DAV:   3    -0.284232881669E+03    0.49892E-01   -0.28541E-01 30000   0.178E+00    0.935E-01
DAV:   4    -0.284244897843E+03   -0.12016E-01   -0.45050E-02 32328   0.375E-01    0.134E+00
DAV:   5    -0.284243260609E+03    0.16372E-02   -0.73298E-03 31320   0.375E-01    0.600E-01
DAV:   6    -0.284242963642E+03    0.29697E-03   -0.79352E-03 35400   0.213E-01    0.440E-01
DAV:   7    -0.284243378406E+03   -0.41476E-03   -0.37054E-03 31800   0.168E-01    0.829E-01
DAV:   8    -0.284242818827E+03    0.55958E-03   -0.10302E-03 33228   0.112E-01    0.510E-01
DAV:   9    -0.284242722245E+03    0.96582E-04   -0.15227E-03 36852   0.704E-02    0.836E-02
DAV:  10    -0.284242845072E+03   -0.12283E-03   -0.31631E-04 26940   0.300E-02    0.111E-01
DAV:  11    -0.284242839103E+03    0.59691E-05   -0.39832E-05 21528   0.275E-02
  49 F= -.28424284E+03 E0= -.28424070E+03  d E =0.128909E-01  mag=    18.0000
       N       E                     dE             d eps       ncg     rms          rms(c)
DAV:   1    -0.281657740115E+03    0.25851E+01   -0.15506E+02 26652   0.367E+01    0.138E+01
DAV:   2    -0.282477838271E+03   -0.82010E+00   -0.11179E+01 31572   0.990E+00    0.131E+01
DAV:   3    -0.282233027536E+03    0.24481E+00   -0.35688E+00 31236   0.744E+00    0.113E+01
DAV:   4    -0.282171745208E+03    0.61282E-01   -0.26580E+00 31776   0.435E+00    0.894E+00
DAV:   5    -0.282100828947E+03    0.70916E-01   -0.87661E-01 32700   0.277E+00    0.457E+00
DAV:   6    -0.282091392561E+03    0.94364E-02   -0.67192E-01 35772   0.212E+00    0.465E+00
DAV:   7    -0.282072926777E+03    0.18466E-01   -0.11501E-01 34392   0.140E+00    0.283E+00
DAV:   8    -0.282067503734E+03    0.54230E-02   -0.81857E-02 34980   0.750E-01    0.791E-01
DAV:   9    -0.282070156163E+03   -0.26524E-02   -0.18492E-02 34836   0.380E-01    0.660E-01
DAV:  10    -0.282069675589E+03    0.48057E-03   -0.46500E-03 33192   0.230E-01    0.211E-01
DAV:  11    -0.282069771852E+03   -0.96263E-04   -0.12624E-03 32316   0.846E-02    0.129E-01
DAV:  12    -0.282069790393E+03   -0.18541E-04   -0.22482E-04 34188   0.555E-02    0.762E-02
DAV:  13    -0.282069799126E+03   -0.87321E-05   -0.84791E-05 29796   0.266E-02
  50 F= -.28206980E+03 E0= -.28206692E+03  d E =0.217304E+01  mag=    18.0000
       N       E                     dE             d eps       ncg     rms          rms(c)
DAV:   1    -0.283655140655E+03   -0.15854E+01   -0.54807E+01 26220   0.216E+01    0.588E+00
DAV:   2    -0.283931690723E+03   -0.27655E+00   -0.35433E+00 30048   0.478E+00    0.736E+00
DAV:   3    -0.283915754456E+03    0.15936E-01   -0.13583E+00 33300   0.326E+00    0.676E+00
DAV:   4    -0.283857686137E+03    0.58068E-01   -0.10948E-01 31692   0.157E+00    0.337E+00
DAV:   5    -0.283882383719E+03   -0.24698E-01   -0.77956E-01 33972   0.179E+00    0.684E+00
DAV:   6    -0.283876712832E+03    0.56709E-02   -0.20596E-01 32892   0.126E+00    0.704E+00
DAV:   7    -0.283830712969E+03    0.46000E-01   -0.12677E-01 34908   0.946E-01    0.333E+00
DAV:   8    -0.283833476221E+03   -0.27633E-02   -0.13720E-01 36096   0.525E-01    0.802E-01
DAV:   9    -0.283840322902E+03   -0.68467E-02   -0.91134E-03 28056   0.349E-01    0.112E+00
DAV:  10    -0.283839308772E+03    0.10141E-02   -0.15053E-03 35376   0.148E-01    0.821E-01
DAV:  11    -0.283838762033E+03    0.54674E-03   -0.63106E-03 37644   0.150E-01    0.122E-01
DAV:  12    -0.283839074265E+03   -0.31223E-03   -0.44704E-04 29112   0.732E-02    0.168E-01
DAV:  13    -0.283839048866E+03    0.25399E-04   -0.26431E-04 35184   0.440E-02    0.192E-02
DAV:  14    -0.283839060205E+03   -0.11339E-04   -0.38041E-05 17808   0.153E-02    0.504E-02
DAV:  15    -0.283839058659E+03    0.15455E-05   -0.13251E-05 16296   0.120E-02
  51 F= -.28383906E+03 E0= -.28383632E+03  d E =-.176926E+01  mag=    18.0000
       N       E                     dE             d eps       ncg     rms          rms(c)
DAV:   1    -0.284143005387E+03   -0.30395E+00   -0.68339E+00 26376   0.743E+00    0.229E+00
DAV:   2    -0.284193469674E+03   -0.50464E-01   -0.63843E-01 31824   0.209E+00    0.593E+00
DAV:   3    -0.284160027008E+03    0.33443E-01   -0.27280E-01 30924   0.157E+00    0.128E+00
DAV:   4    -0.284164717308E+03   -0.46903E-02   -0.19080E-02 30828   0.441E-01    0.162E+00
DAV:   5    -0.284160609697E+03    0.41076E-02   -0.33867E-02 34176   0.496E-01    0.572E-01
DAV:   6    -0.284161439115E+03   -0.82942E-03   -0.42240E-03 32364   0.223E-01    0.852E-01
DAV:   7    -0.284160865301E+03    0.57381E-03   -0.21077E-03 34776   0.142E-01    0.501E-01
DAV:   8    -0.284160783295E+03    0.82007E-04   -0.19837E-03 36516   0.897E-02    0.107E-01
DAV:   9    -0.284160906803E+03   -0.12351E-03   -0.35593E-04 31500   0.522E-02    0.121E-01
DAV:  10    -0.284160895023E+03    0.11780E-04   -0.48564E-05 27132   0.290E-02    0.786E-02
DAV:  11    -0.284160892519E+03    0.25047E-05   -0.65941E-05 23808   0.212E-02
  52 F= -.28416089E+03 E0= -.28415826E+03  d E =-.321834E+00  mag=    18.0000
       N       E                     dE             d eps       ncg     rms          rms(c)
DAV:   1    -0.284271479733E+03   -0.11058E+00   -0.16474E+01 26436   0.112E+01    0.390E+00
DAV:   2    -0.284401406934E+03   -0.12993E+00   -0.16865E+00 32520   0.344E+00    0.970E+00
DAV:   3    -0.284310028134E+03    0.91379E-01   -0.74882E-01 31140   0.275E+00    0.216E+00
DAV:   4    -0.284319778041E+03   -0.97499E-02   -0.41517E-02 30408   0.764E-01    0.212E+00
DAV:   5    -0.284312175025E+03    0.76030E-02   -0.54793E-02 33588   0.704E-01    0.919E-01
DAV:   6    -0.284313810780E+03   -0.16358E-02   -0.30730E-02 35388   0.471E-01    0.159E+00
DAV:   7    -0.284311082440E+03    0.27283E-02   -0.97934E-03 35040   0.332E-01    0.496E-01
DAV:   8    -0.284311511488E+03   -0.42905E-03   -0.36998E-03 35700   0.121E-01    0.149E-01
DAV:   9    -0.284311676882E+03   -0.16539E-03   -0.58219E-04 31320   0.764E-02    0.215E-01
DAV:  10    -0.284311624275E+03    0.52607E-04   -0.19842E-04 29808   0.492E-02    0.812E-02
DAV:  11    -0.284311635911E+03   -0.11635E-04   -0.17617E-04 29436   0.313E-02    0.577E-02
DAV:  12    -0.284311638310E+03   -0.23991E-05   -0.19026E-05 18384   0.187E-02
  53 F= -.28431164E+03 E0= -.28430932E+03  d E =-.150746E+00  mag=    18.0000
       N       E                     dE             d eps       ncg     rms          rms(c)
DAV:   1    -0.284326372788E+03   -0.14737E-01   -0.51639E-01 26976   0.236E+00    0.549E-01
DAV:   2    -0.284329356015E+03   -0.29832E-02   -0.34713E-02 30384   0.536E-01    0.121E+00
DAV:   3    -0.284328276202E+03    0.10798E-02   -0.15410E-02 31860   0.366E-01    0.479E-01
DAV:   4    -0.284328287927E+03   -0.11725E-04   -0.67947E-04 30300   0.132E-01    0.338E-01
DAV:   5    -0.284328125217E+03    0.16271E-03   -0.13465E-03 33780   0.979E-02    0.122E-01
DAV:   6    -0.284328186035E+03   -0.60818E-04   -0.42268E-04 32316   0.564E-02    0.242E-01
DAV:   7    -0.284328131903E+03    0.54132E-04   -0.14800E-04 27408   0.437E-02    0.134E-01
DAV:   8    -0.284328123308E+03    0.85951E-05   -0.13563E-04 20964   0.225E-02    0.172E-02
DAV:   9    -0.284328133237E+03   -0.99295E-05   -0.22708E-05 17304   0.134E-02
  54 F= -.28432813E+03 E0= -.28432596E+03  d E =-.164949E-01  mag=    18.0000
       N       E                     dE             d eps       ncg     rms          rms(c)
DAV:   1    -0.284310057268E+03    0.18066E-01   -0.40077E+00 26412   0.674E+00    0.146E+00
DAV:   2    -0.284327308803E+03   -0.17252E-01   -0.20745E-01 29376   0.130E+00    0.109E+00
DAV:   3    -0.284331536991E+03   -0.42282E-02   -0.84024E-02 34428   0.829E-01    0.246E+00
DAV:   4    -0.284324410441E+03    0.71266E-02   -0.22095E-02 33180   0.581E-01    0.800E-01
DAV:   5    -0.284324322386E+03    0.88055E-04   -0.77894E-03 33612   0.241E-01    0.314E-01
DAV:   6    -0.284324615498E+03   -0.29311E-03   -0.26188E-03 32196   0.158E-01    0.574E-01
DAV:   7    -0.284324266570E+03    0.34893E-03   -0.11758E-03 33744   0.124E-01    0.209E-01
DAV:   8    -0.284324312458E+03   -0.45888E-04   -0.98946E-04 35640   0.562E-02    0.153E-01
DAV:   9    -0.284324317796E+03   -0.53378E-05   -0.85364E-05 29280   0.424E-02
  55 F= -.28432432E+03 E0= -.28432226E+03  d E =0.381544E-02  mag=    18.0000
       N       E                     dE             d eps       ncg     rms          rms(c)
DAV:   1    -0.284324837045E+03   -0.52459E-03   -0.21885E-01 26820   0.162E+00    0.356E-01
DAV:   2    -0.284325983119E+03   -0.11461E-02   -0.13853E-02 29160   0.339E-01    0.295E-01
DAV:   3    -0.284326168922E+03   -0.18580E-03   -0.48277E-03 33756   0.198E-01    0.653E-01
DAV:   4    -0.284325711782E+03    0.45714E-03   -0.18609E-03 32376   0.155E-01    0.209E-01
DAV:   5    -0.284325720207E+03   -0.84249E-05   -0.64701E-04 34476   0.803E-02    0.805E-02
DAV:   6    -0.284325722121E+03   -0.19140E-05   -0.11978E-04 29124   0.409E-02    0.894E-02
DAV:   7    -0.284325713340E+03    0.87803E-05   -0.88595E-05 26748   0.282E-02
  56 F= -.28432571E+03 E0= -.28432358E+03  d E =-.139554E-02  mag=    18.0000
       N       E                     dE             d eps       ncg     rms          rms(c)
DAV:   1    -0.284312480582E+03    0.13242E-01   -0.48119E-01 26808   0.289E+00    0.359E-01
DAV:   2    -0.284315954495E+03   -0.34739E-02   -0.39688E-02 27672   0.584E-01    0.369E-01
DAV:   3    -0.284316187736E+03   -0.23324E-03   -0.60256E-03 33996   0.230E-01    0.657E-01
DAV:   4    -0.284315750312E+03    0.43742E-03   -0.16714E-03 34236   0.157E-01    0.191E-01
DAV:   5    -0.284315779168E+03   -0.28856E-04   -0.83185E-04 34428   0.835E-02    0.149E-01
DAV:   6    -0.284315775245E+03    0.39235E-05   -0.28394E-04 30588   0.597E-02    0.156E-01
DAV:   7    -0.284315748232E+03    0.27012E-04   -0.23286E-04 26448   0.409E-02    0.287E-02
DAV:   8    -0.284315755726E+03   -0.74935E-05   -0.23096E-05 18732   0.194E-02
  57 F= -.28431576E+03 E0= -.28431360E+03  d E =0.995761E-02  mag=    18.0000
       N       E                     dE             d eps       ncg     rms          rms(c)
DAV:   1    -0.284293011246E+03    0.22737E-01   -0.10079E+00 26784   0.431E+00    0.431E-01
DAV:   2    -0.284301040706E+03   -0.80295E-02   -0.88695E-02 27480   0.872E-01    0.111E+00
DAV:   3    -0.284300260254E+03    0.78045E-03   -0.11778E-02 31260   0.350E-01    0.339E-01
DAV:   4    -0.284300422576E+03   -0.16232E-03   -0.72048E-04 34644   0.121E-01    0.268E-01
DAV:   5    -0.284300311056E+03    0.11152E-03   -0.95444E-04 33972   0.937E-02    0.149E-01
DAV:   6    -0.284300364980E+03   -0.53925E-04   -0.85553E-04 36012   0.761E-02    0.299E-01
DAV:   7    -0.284300272616E+03    0.92364E-04   -0.27776E-04 28620   0.579E-02    0.116E-01
DAV:   8    -0.284300280006E+03   -0.73903E-05   -0.15915E-04 20892   0.222E-02    0.313E-02
DAV:   9    -0.284300288399E+03   -0.83923E-05   -0.14455E-05 17088   0.157E-02
  58 F= -.28430029E+03 E0= -.28429816E+03  d E =0.154673E-01  mag=    18.0000
       N       E                     dE             d eps       ncg     rms          rms(c)
DAV:   1    -0.284232149343E+03    0.68131E-01   -0.55864E+00 26772   0.972E+00    0.979E-01
DAV:   2    -0.284274288322E+03   -0.42139E-01   -0.46262E-01 26916   0.198E+00    0.322E+00
DAV:   3    -0.284267127173E+03    0.71611E-02   -0.71586E-02 30792   0.849E-01    0.502E-01
DAV:   4    -0.284269227815E+03   -0.21006E-02   -0.53231E-03 33780   0.227E-01    0.647E-01
DAV:   5    -0.284268505908E+03    0.72191E-03   -0.58030E-03 34200   0.227E-01    0.300E-01
DAV:   6    -0.284268741223E+03   -0.23532E-03   -0.25779E-03 36348   0.156E-01    0.573E-01
DAV:   7    -0.284268445819E+03    0.29540E-03   -0.10504E-03 34968   0.115E-01    0.341E-01
DAV:   8    -0.284268392354E+03    0.53465E-04   -0.53274E-04 31536   0.569E-02    0.809E-02
DAV:   9    -0.284268441498E+03   -0.49145E-04   -0.17797E-04 27444   0.264E-02    0.645E-02
DAV:  10    -0.284268441889E+03   -0.39036E-06   -0.93754E-06 17916   0.160E-02
  59 F= -.28426844E+03 E0= -.28426634E+03  d E =0.318465E-01  mag=    18.0000
       N       E                     dE             d eps       ncg     rms          rms(c)
DAV:   1    -0.284099165622E+03    0.16928E+00   -0.22508E+01 26796   0.176E+01    0.192E+00
DAV:   2    -0.284229608622E+03   -0.13044E+00   -0.14372E+00 27648   0.348E+00    0.522E+00
DAV:   3    -0.284211923713E+03    0.17685E-01   -0.24440E-01 31656   0.152E+00    0.134E+00
DAV:   4    -0.284214981114E+03   -0.30574E-02   -0.12036E-02 32028   0.463E-01    0.115E+00
DAV:   5    -0.284212210317E+03    0.27708E-02   -0.21266E-02 34776   0.424E-01    0.550E-01
DAV:   6    -0.284212777150E+03   -0.56683E-03   -0.73268E-03 35592   0.281E-01    0.944E-01
DAV:   7    -0.284211894431E+03    0.88272E-03   -0.34329E-03 33084   0.195E-01    0.451E-01
DAV:   8    -0.284211892106E+03    0.23255E-05   -0.13042E-03 36324   0.922E-02    0.920E-02
DAV:   9    -0.284211992964E+03   -0.10086E-03   -0.29649E-04 30480   0.428E-02    0.105E-01
DAV:  10    -0.284211981119E+03    0.11845E-04   -0.40566E-05 22920   0.276E-02    0.529E-02
DAV:  11    -0.284211981928E+03   -0.80978E-06   -0.57987E-05 23460   0.198E-02
  60 F= -.28421198E+03 E0= -.28421006E+03  d E =0.564600E-01  mag=    18.0000
       N       E                     dE             d eps       ncg     rms          rms(c)
DAV:   1    -0.284216189944E+03   -0.42088E-02   -0.37579E+00 26784   0.648E+00    0.113E+00
DAV:   2    -0.284232827395E+03   -0.16637E-01   -0.18126E-01 29964   0.127E+00    0.117E+00
DAV:   3    -0.284233693953E+03   -0.86656E-03   -0.49561E-02 32316   0.682E-01    0.195E+00
DAV:   4    -0.284230167459E+03    0.35265E-02   -0.19302E-02 31764   0.467E-01    0.504E-01
DAV:   5    -0.284230507363E+03   -0.33990E-03   -0.44962E-03 34032   0.240E-01    0.287E-01
DAV:   6    -0.284230297284E+03    0.21008E-03   -0.12967E-03 32676   0.146E-01    0.146E-01
DAV:   7    -0.284230299880E+03   -0.25960E-05   -0.56388E-04 33564   0.868E-02    0.119E-01
DAV:   8    -0.284230290305E+03    0.95750E-05   -0.96865E-05 26916   0.362E-02
  61 F= -.28423029E+03 E0= -.28422819E+03  d E =-.183084E-01  mag=    18.0000
       N       E                     dE             d eps       ncg     rms          rms(c)
DAV:   1    -0.284238777570E+03   -0.84777E-02   -0.16677E+00 26784   0.514E+00    0.610E-01
DAV:   2    -0.284249357162E+03   -0.10580E-01   -0.11518E-01 28008   0.103E+00    0.143E+00
DAV:   3    -0.284248265634E+03    0.10915E-02   -0.21629E-02 31068   0.478E-01    0.536E-01
DAV:   4    -0.284248300265E+03   -0.34631E-04   -0.13795E-03 32652   0.178E-01    0.305E-01
DAV:   5    -0.284248157532E+03    0.14273E-03   -0.16019E-03 35196   0.120E-01    0.171E-01
DAV:   6    -0.284248195085E+03   -0.37553E-04   -0.82772E-04 33960   0.866E-02    0.295E-01
DAV:   7    -0.284248098814E+03    0.96271E-04   -0.34094E-04 31764   0.631E-02    0.928E-02
DAV:   8    -0.284248113674E+03   -0.14860E-04   -0.12886E-04 25800   0.222E-02    0.332E-02
DAV:   9    -0.284248117138E+03   -0.34636E-05   -0.12117E-05 17208   0.154E-02
  62 F= -.28424812E+03 E0= -.28424609E+03  d E =-.178268E-01  mag=    18.0000
       N       E                     dE             d eps       ncg     rms          rms(c)
DAV:   1    -0.284203743201E+03    0.44370E-01   -0.13309E+01 26784   0.124E+01    0.112E+00
DAV:   2    -0.284261359498E+03   -0.57616E-01   -0.60159E-01 27936   0.229E+00    0.310E+00
DAV:   3    -0.284256358461E+03    0.50010E-02   -0.92540E-02 31524   0.976E-01    0.929E-01
DAV:   4    -0.284257030461E+03   -0.67200E-03   -0.50744E-03 31296   0.331E-01    0.591E-01
DAV:   5    -0.284256256808E+03    0.77365E-03   -0.46758E-03 34332   0.218E-01    0.297E-01
DAV:   6    -0.284256354370E+03   -0.97562E-04   -0.41328E-03 32196   0.186E-01    0.682E-01
DAV:   7    -0.284255885315E+03    0.46905E-03   -0.16149E-03 33636   0.145E-01    0.279E-01
DAV:   8    -0.284255916680E+03   -0.31365E-04   -0.73530E-04 36132   0.545E-02    0.460E-02
DAV:   9    -0.284255954015E+03   -0.37335E-04   -0.59299E-05 27420   0.305E-02    0.455E-02
DAV:  10    -0.284255951497E+03    0.25174E-05   -0.19130E-05 17244   0.173E-02
  63 F= -.28425595E+03 E0= -.28425400E+03  d E =-.783436E-02  mag=    18.0000
       N       E                     dE             d eps       ncg     rms          rms(c)
DAV:   1    -0.282756371093E+03    0.14996E+01   -0.13437E+02 26556   0.413E+01    0.867E+00
DAV:   2    -0.283416144185E+03   -0.65977E+00   -0.75204E+00 29544   0.816E+00    0.331E+00
DAV:   3    -0.283393990324E+03    0.22154E-01   -0.67947E-01 32376   0.306E+00    0.502E+00
DAV:   4    -0.283357546735E+03    0.36444E-01   -0.25369E-01 33768   0.206E+00    0.159E+00
DAV:   5    -0.283349538719E+03    0.80080E-02   -0.33682E-02 30888   0.731E-01    0.940E-01
DAV:   6    -0.283348348690E+03    0.11900E-02   -0.21176E-02 33048   0.570E-01    0.764E-01
DAV:   7    -0.283348199107E+03    0.14958E-03   -0.10548E-02 34968   0.370E-01    0.527E-01
DAV:   8    -0.283347962458E+03    0.23665E-03   -0.34751E-03 35304   0.226E-01    0.208E-01
DAV:   9    -0.283347953890E+03    0.85675E-05   -0.62081E-04 30984   0.851E-02    0.992E-02
DAV:  10    -0.283347945457E+03    0.84330E-05   -0.37647E-04 34644   0.628E-02    0.912E-02
DAV:  11    -0.283347945489E+03   -0.31770E-07   -0.18699E-04 31668   0.484E-02    0.372E-02
DAV:  12    -0.283347951074E+03   -0.55848E-05   -0.42372E-05 21936   0.233E-02
  64 F= -.28334795E+03 E0= -.28334696E+03  d E =0.908000E+00  mag=    18.0000
       N       E                     dE             d eps       ncg     rms          rms(c)
DAV:   1    -0.284142908275E+03   -0.79496E+00   -0.36898E+01 25968   0.161E+01    0.500E+00
DAV:   2    -0.284285332450E+03   -0.14242E+00   -0.17991E+00 30468   0.358E+00    0.226E+00
DAV:   3    -0.284262938645E+03    0.22394E-01   -0.21932E-01 30708   0.179E+00    0.346E+00
DAV:   4    -0.284249972131E+03    0.12967E-01   -0.15956E-01 32964   0.130E+00    0.167E+00
DAV:   5    -0.284247014560E+03    0.29576E-02   -0.36293E-02 33660   0.723E-01    0.168E+00
DAV:   6    -0.284245231175E+03    0.17834E-02   -0.41344E-02 34644   0.667E-01    0.108E+00
DAV:   7    -0.284244546403E+03    0.68477E-03   -0.87235E-03 34524   0.364E-01    0.286E-01
DAV:   8    -0.284244615060E+03   -0.68657E-04   -0.13806E-03 32928   0.112E-01    0.254E-01
DAV:   9    -0.284244528425E+03    0.86635E-04   -0.10673E-03 33372   0.105E-01    0.938E-02
DAV:  10    -0.284244524271E+03    0.41540E-05   -0.18427E-04 30324   0.509E-02    0.329E-02
DAV:  11    -0.284244527126E+03   -0.28555E-05   -0.49192E-05 27672   0.249E-02
  65 F= -.28424453E+03 E0= -.28424301E+03  d E =-.896576E+00  mag=    18.0000
       N       E                     dE             d eps       ncg     rms          rms(c)
DAV:   1    -0.284310118585E+03   -0.65594E-01   -0.19840E+00 26052   0.373E+00    0.104E+00
DAV:   2    -0.284316430199E+03   -0.63116E-02   -0.81814E-02 31104   0.783E-01    0.397E-01
DAV:   3    -0.284315412934E+03    0.10173E-02   -0.81511E-03 31416   0.336E-01    0.636E-01
DAV:   4    -0.284315079324E+03    0.33361E-03   -0.59249E-03 34272   0.249E-01    0.443E-01
DAV:   5    -0.284314805949E+03    0.27338E-03   -0.13301E-03 34896   0.160E-01    0.190E-01
DAV:   6    -0.284314767256E+03    0.38693E-04   -0.68734E-04 35316   0.980E-02    0.156E-01
DAV:   7    -0.284314753578E+03    0.13678E-04   -0.36731E-04 34236   0.690E-02    0.934E-02
DAV:   8    -0.284314749399E+03    0.41790E-05   -0.83154E-05 23808   0.335E-02
  66 F= -.28431475E+03 E0= -.28431310E+03  d E =-.702223E-01  mag=    18.0000
       N       E                     dE             d eps       ncg     rms          rms(c)
[...]
DAV:   7    -0.284195815980E+03   -0.14967E-05   -0.77674E-05 28716   0.364E-02
 105 F= -.28419582E+03 E0= -.28419426E+03  d E =-.383568E-02  mag=    18.0000
       N       E                     dE             d eps       ncg     rms          rms(c)
DAV:   1    -0.284077997185E+03    0.11782E+00   -0.29381E+01 26472   0.184E+01    0.156E+00
DAV:   2    -0.284203584311E+03   -0.12559E+00   -0.12766E+00 27876   0.324E+00    0.111E+00
DAV:   3    -0.284205938307E+03   -0.23540E-02   -0.61081E-02 34260   0.846E-01    0.156E+00
DAV:   4    -0.284203154117E+03    0.27842E-02   -0.18102E-02 34428   0.492E-01    0.461E-01
DAV:   5    -0.284202315771E+03    0.83835E-03   -0.43419E-03 35340   0.273E-01    0.452E-01
DAV:   6    -0.284201739996E+03    0.57577E-03   -0.43576E-03 34020   0.270E-01    0.168E-01
DAV:   7    -0.284201731679E+03    0.83169E-05   -0.84781E-04 31308   0.119E-01    0.778E-02
DAV:   8    -0.284201744493E+03   -0.12814E-04   -0.38635E-04 33864   0.596E-02    0.735E-02
DAV:   9    -0.284201740303E+03    0.41897E-05   -0.58103E-05 24852   0.300E-02
 106 F= -.28420174E+03 E0= -.28420030E+03  d E =-.592432E-02  mag=    18.0000
       N       E                     dE             d eps       ncg     rms          rms(c)
DAV:   1    -0.284138285411E+03    0.63459E-01   -0.12166E+01 26352   0.118E+01    0.176E+00
DAV:   2    -0.284193453679E+03   -0.55168E-01   -0.58369E-01 30300   0.234E+00    0.220E+00
DAV:   3    -0.284189301541E+03    0.41521E-02   -0.80540E-02 31380   0.118E+00    0.117E+00
DAV:   4    -0.284187069559E+03    0.22320E-02   -0.13537E-02 31788   0.479E-01    0.454E-01
DAV:   5    -0.284186584440E+03    0.48512E-03   -0.50838E-03 34260   0.283E-01    0.420E-01
DAV:   6    -0.284186174800E+03    0.40964E-03   -0.26533E-03 34572   0.217E-01    0.163E-01
DAV:   7    -0.284186193728E+03   -0.18928E-04   -0.52642E-04 31728   0.781E-02    0.692E-02
DAV:   8    -0.284186183644E+03    0.10085E-04   -0.14345E-04 35868   0.431E-02    0.534E-02
DAV:   9    -0.284186180356E+03    0.32880E-05   -0.41790E-05 25680   0.275E-02
 107 F= -.28418618E+03 E0= -.28418461E+03  d E =0.155599E-01  mag=    18.0000
       N       E                     dE             d eps       ncg     rms          rms(c)
DAV:   1    -0.284105308685E+03    0.80875E-01   -0.25919E+01 26364   0.167E+01    0.177E+00
DAV:   2    -0.284208746679E+03   -0.10344E+00   -0.10651E+00 28980   0.296E+00    0.244E+00
DAV:   3    -0.284209027504E+03   -0.28083E-03   -0.10623E-01 31644   0.121E+00    0.164E+00
DAV:   4    -0.284205116720E+03    0.39108E-02   -0.13548E-02 33096   0.555E-01    0.632E-01
DAV:   5    -0.284203616840E+03    0.14999E-02   -0.71935E-03 35988   0.339E-01    0.408E-01
DAV:   6    -0.284203383637E+03    0.23320E-03   -0.32858E-03 30888   0.209E-01    0.433E-01
DAV:   7    -0.284203172680E+03    0.21096E-03   -0.19282E-03 34344   0.150E-01    0.181E-01
DAV:   8    -0.284203182946E+03   -0.10266E-04   -0.31112E-04 35460   0.728E-02    0.491E-02
DAV:   9    -0.284203188652E+03   -0.57062E-05   -0.87245E-05 29664   0.303E-02
 108 F= -.28420319E+03 E0= -.28420175E+03  d E =-.170083E-01  mag=    18.0000
       N       E                     dE             d eps       ncg     rms          rms(c)
DAV:   1    -0.284198667882E+03    0.45151E-02   -0.69696E-01 27504   0.283E+00    0.488E-01
DAV:   2    -0.284201533296E+03   -0.28654E-02   -0.31609E-02 30864   0.533E-01    0.482E-01
DAV:   3    -0.284201567996E+03   -0.34700E-04   -0.58477E-03 32304   0.288E-01    0.498E-01
DAV:   4    -0.284201186668E+03    0.38133E-03   -0.13565E-03 33720   0.162E-01    0.935E-02
DAV:   5    -0.284201184210E+03    0.24576E-05   -0.51247E-04 33096   0.688E-02    0.142E-01
DAV:   6    -0.284201161783E+03    0.22427E-04   -0.13911E-04 32520   0.477E-02    0.469E-02
DAV:   7    -0.284201162013E+03   -0.23051E-06   -0.30735E-05 18588   0.156E-02
 109 F= -.28420116E+03 E0= -.28419973E+03  d E =0.202664E-02  mag=    18.0000
       N       E                     dE             d eps       ncg     rms          rms(c)
DAV:   1    -0.284203996170E+03   -0.28344E-02   -0.15260E-01 27324   0.126E+00    0.274E-01
DAV:   2    -0.284204638699E+03   -0.64253E-03   -0.77726E-03 30492   0.264E-01    0.321E-01
DAV:   3    -0.284204572060E+03    0.66639E-04   -0.18251E-03 32316   0.164E-01    0.242E-01
DAV:   4    -0.284204470368E+03    0.10169E-03   -0.34149E-04 30660   0.838E-02    0.504E-02
DAV:   5    -0.284204467167E+03    0.32007E-05   -0.16059E-04 31164   0.417E-02    0.740E-02
DAV:   6    -0.284204461573E+03    0.55937E-05   -0.53848E-05 25296   0.302E-02
 110 F= -.28420446E+03 E0= -.28420307E+03  d E =-.329956E-02  mag=    18.0000
       N       E                     dE             d eps       ncg     rms          rms(c)
DAV:   1    -0.284205844653E+03   -0.13775E-02   -0.61904E-02 26772   0.981E-01    0.976E-02
DAV:   2    -0.284206211738E+03   -0.36709E-03   -0.39153E-03 27648   0.185E-01    0.105E-01
DAV:   3    -0.284206219294E+03   -0.75556E-05   -0.30449E-04 30912   0.647E-02    0.107E-01
DAV:   4    -0.284206205244E+03    0.14050E-04   -0.62743E-05 23124   0.348E-02    0.250E-02
DAV:   5    -0.284206204263E+03    0.98044E-06   -0.31482E-05 18324   0.191E-02
 111 F= -.28420620E+03 E0= -.28420477E+03  d E =-.174269E-02  mag=    18.0000
       N       E                     dE             d eps       ncg     rms          rms(c)
DAV:   1    -0.284111999717E+03    0.94206E-01   -0.23375E+01 26448   0.181E+01    0.158E+00
DAV:   2    -0.284230414717E+03   -0.11842E+00   -0.12481E+00 26964   0.335E+00    0.174E+00
DAV:   3    -0.284231375853E+03   -0.96114E-03   -0.80258E-02 32928   0.111E+00    0.166E+00
DAV:   4    -0.284228241117E+03    0.31347E-02   -0.19085E-02 36516   0.546E-01    0.439E-01
DAV:   5    -0.284227323628E+03    0.91749E-03   -0.59866E-03 34584   0.318E-01    0.241E-01
DAV:   6    -0.284227315326E+03    0.83023E-05   -0.17720E-03 32232   0.168E-01    0.142E-01
DAV:   7    -0.284227301872E+03    0.13454E-04   -0.41241E-04 36672   0.703E-02    0.649E-02
DAV:   8    -0.284227301776E+03    0.95126E-07   -0.12025E-04 31176   0.343E-02    0.339E-02
DAV:   9    -0.284227299824E+03    0.19520E-05   -0.13839E-05 18048   0.190E-02
 112 F= -.28422730E+03 E0= -.28422574E+03  d E =-.210956E-01  mag=    18.0000
       N       E                     dE             d eps       ncg     rms          rms(c)
DAV:   1    -0.281121528937E+03    0.31058E+01   -0.21652E+02 26352   0.415E+01    0.149E+01
DAV:   2    -0.281858726869E+03   -0.73720E+00   -0.97587E+00 31236   0.831E+00    0.114E+01
DAV:   3    -0.281931238858E+03   -0.72512E-01   -0.59595E+00 33024   0.792E+00    0.110E+01
DAV:   4    -0.281766051410E+03    0.16519E+00   -0.38152E-01 33948   0.353E+00    0.500E+00
DAV:   5    -0.281647761296E+03    0.11829E+00   -0.19697E-01 35532   0.256E+00    0.273E+00
DAV:   6    -0.281615278666E+03    0.32483E-01   -0.11250E-01 37404   0.165E+00    0.877E-01
DAV:   7    -0.281615902036E+03   -0.62337E-03   -0.35853E-02 31812   0.595E-01    0.980E-01
DAV:   8    -0.281615195002E+03    0.70703E-03   -0.12280E-02 36204   0.542E-01    0.628E-01
DAV:   9    -0.281615572922E+03   -0.37792E-03   -0.46069E-03 33264   0.229E-01    0.679E-01
DAV:  10    -0.281614868435E+03    0.70449E-03   -0.21602E-03 37776   0.182E-01    0.120E-01
DAV:  11    -0.281614984294E+03   -0.11586E-03   -0.55868E-04 35232   0.846E-02    0.547E-02
DAV:  12    -0.281615010315E+03   -0.26020E-04   -0.10066E-04 29772   0.299E-02    0.759E-02
DAV:  13    -0.281615011223E+03   -0.90806E-06   -0.26747E-05 21732   0.220E-02
 113 F= -.28161501E+03 E0= -.28161212E+03  d E =0.261229E+01  mag=    18.0000
       N       E                     dE             d eps       ncg     rms          rms(c)
DAV:   1    -0.283551501551E+03   -0.19365E+01   -0.66988E+01 27096   0.221E+01    0.623E+00
DAV:   2    -0.283800694962E+03   -0.24919E+00   -0.33453E+00 30168   0.499E+00    0.541E+00
DAV:   3    -0.283763954705E+03    0.36740E-01   -0.50475E-01 32556   0.286E+00    0.708E+00
DAV:   4    -0.283723205104E+03    0.40750E-01   -0.28202E-01 32664   0.181E+00    0.323E+00
DAV:   5    -0.283707540099E+03    0.15665E-01   -0.12507E-01 31716   0.175E+00    0.315E+00
DAV:   6    -0.283701387479E+03    0.61526E-02   -0.55208E-02 33780   0.109E+00    0.122E+00
DAV:   7    -0.283702927897E+03   -0.15404E-02   -0.27985E-02 34524   0.566E-01    0.772E-01
DAV:   8    -0.283702457714E+03    0.47018E-03   -0.35737E-03 32988   0.254E-01    0.468E-01
DAV:   9    -0.283702104010E+03    0.35370E-03   -0.23008E-03 33024   0.135E-01    0.152E-01
DAV:  10    -0.283702132949E+03   -0.28939E-04   -0.41206E-04 31260   0.820E-02    0.543E-02
DAV:  11    -0.283702134928E+03   -0.19791E-05   -0.12087E-04 33036   0.385E-02    0.336E-02
DAV:  12    -0.283702140798E+03   -0.58706E-05   -0.35120E-05 22932   0.210E-02
 114 F= -.28370214E+03 E0= -.28369981E+03  d E =-.208713E+01  mag=    18.0000
       N       E                     dE             d eps       ncg     rms          rms(c)
DAV:   1    -0.284072518029E+03   -0.37038E+00   -0.15991E+01 27216   0.114E+01    0.308E+00
DAV:   2    -0.284129505310E+03   -0.56987E-01   -0.72975E-01 31116   0.248E+00    0.247E+00
DAV:   3    -0.284127108112E+03    0.23972E-02   -0.20141E-01 33072   0.170E+00    0.430E+00
DAV:   4    -0.284108735583E+03    0.18373E-01   -0.10975E-01 35292   0.117E+00    0.966E-01
DAV:   5    -0.284109542844E+03   -0.80726E-03   -0.16077E-02 33576   0.548E-01    0.840E-01
DAV:   6    -0.284108620329E+03    0.92251E-03   -0.72568E-03 35460   0.385E-01    0.338E-01
DAV:   7    -0.284108662083E+03   -0.41753E-04   -0.24298E-03 34932   0.228E-01    0.269E-01
DAV:   8    -0.284108602310E+03    0.59772E-04   -0.78291E-04 37200   0.944E-02    0.102E-01
DAV:   9    -0.284108587590E+03    0.14721E-04   -0.19517E-04 31164   0.457E-02    0.669E-02
DAV:  10    -0.284108583939E+03    0.36508E-05   -0.47143E-05 28560   0.233E-02
 115 F= -.28410858E+03 E0= -.28410700E+03  d E =-.406443E+00  mag=    18.0000
       N       E                     dE             d eps       ncg     rms          rms(c)
DAV:   1    -0.284213956528E+03   -0.10537E+00   -0.75949E+00 26352   0.773E+00    0.226E+00
DAV:   2    -0.284237132023E+03   -0.23175E-01   -0.30725E-01 31656   0.161E+00    0.152E+00
DAV:   3    -0.284238808564E+03   -0.16765E-02   -0.10378E-01 33048   0.120E+00    0.321E+00
DAV:   4    -0.284228863729E+03    0.99448E-02   -0.57701E-02 34980   0.854E-01    0.549E-01
DAV:   5    -0.284230156477E+03   -0.12927E-02   -0.64413E-03 33012   0.316E-01    0.552E-01
DAV:   6    -0.284229595510E+03    0.56097E-03   -0.25593E-03 33732   0.233E-01    0.183E-01
DAV:   7    -0.284229617057E+03   -0.21548E-04   -0.98053E-04 34116   0.114E-01    0.157E-01
DAV:   8    -0.284229599069E+03    0.17988E-04   -0.21234E-04 33300   0.562E-02    0.584E-02
DAV:   9    -0.284229597296E+03    0.17728E-05   -0.75360E-05 29340   0.283E-02
 116 F= -.28422960E+03 E0= -.28422842E+03  d E =-.121013E+00  mag=    18.0000
       N       E                     dE             d eps       ncg     rms          rms(c)
DAV:   1    -0.284257852777E+03   -0.28254E-01   -0.21069E+00 26424   0.424E+00    0.116E+00
DAV:   2    -0.284263834030E+03   -0.59813E-02   -0.79579E-02 31476   0.822E-01    0.696E-01
DAV:   3    -0.284264563729E+03   -0.72970E-03   -0.23604E-02 33612   0.580E-01    0.149E+00
DAV:   4    -0.284262253518E+03    0.23102E-02   -0.12551E-02 35088   0.420E-01    0.225E-01
DAV:   5    -0.284262552684E+03   -0.29917E-03   -0.13524E-03 32940   0.134E-01    0.255E-01
DAV:   6    -0.284262462458E+03    0.90226E-04   -0.54776E-04 33804   0.103E-01    0.950E-02
DAV:   7    -0.284262464550E+03   -0.20925E-05   -0.21085E-04 30936   0.463E-02    0.712E-02
DAV:   8    -0.284262461335E+03    0.32152E-05   -0.46453E-05 20724   0.268E-02
 117 F= -.28426246E+03 E0= -.28426118E+03  d E =-.328640E-01  mag=    18.0000
       N       E                     dE             d eps       ncg     rms          rms(c)
DAV:   1    -0.284267060843E+03   -0.45963E-02   -0.18954E+00 26364   0.423E+00    0.105E+00
DAV:   2    -0.284273008843E+03   -0.59480E-02   -0.78258E-02 30312   0.816E-01    0.573E-01
DAV:   3    -0.284273473581E+03   -0.46474E-03   -0.15396E-02 33900   0.493E-01    0.129E+00
DAV:   4    -0.284271762083E+03    0.17115E-02   -0.91543E-03 34620   0.374E-01    0.248E-01
DAV:   5    -0.284271948881E+03   -0.18680E-03   -0.11233E-03 32316   0.128E-01    0.235E-01
DAV:   6    -0.284271870336E+03    0.78545E-04   -0.52534E-04 35304   0.102E-01    0.927E-02
DAV:   7    -0.284271869829E+03    0.50711E-06   -0.14458E-04 31308   0.404E-02    0.563E-02
DAV:   8    -0.284271867966E+03    0.18630E-05   -0.37442E-05 21636   0.228E-02
 118 F= -.28427187E+03 E0= -.28427045E+03  d E =-.940663E-02  mag=    18.0000
       N       E                     dE             d eps       ncg     rms          rms(c)
DAV:   1    -0.284267822034E+03    0.40478E-02   -0.12084E-01 27036   0.147E+00    0.215E-01
DAV:   2    -0.284268695485E+03   -0.87345E-03   -0.99187E-03 28212   0.291E-01    0.106E-01
DAV:   3    -0.284268701017E+03   -0.55318E-05   -0.44536E-04 33252   0.907E-02    0.141E-01
DAV:   4    -0.284268682734E+03    0.18282E-04   -0.18914E-04 31716   0.585E-02    0.790E-02
DAV:   5    -0.284268676187E+03    0.65469E-05   -0.88545E-05 25188   0.348E-02
 119 F= -.28426868E+03 E0= -.28426718E+03  d E =0.319178E-02  mag=    18.0000
       N       E                     dE             d eps       ncg     rms          rms(c)
DAV:   1    -0.284250359369E+03    0.18323E-01   -0.84647E-01 28212   0.419E+00    0.478E-01
DAV:   2    -0.284257400034E+03   -0.70407E-02   -0.78641E-02 27792   0.798E-01    0.307E-01
DAV:   3    -0.284257559334E+03   -0.15930E-03   -0.34309E-03 33324   0.249E-01    0.364E-01
DAV:   4    -0.284257421662E+03    0.13767E-03   -0.99804E-04 34596   0.143E-01    0.170E-01
DAV:   5    -0.284257409613E+03    0.12049E-04   -0.70470E-04 36012   0.889E-02    0.195E-01
DAV:   6    -0.284257363173E+03    0.46441E-04   -0.35320E-04 35784   0.693E-02    0.476E-02
DAV:   7    -0.284257366753E+03   -0.35807E-05   -0.34926E-05 23184   0.224E-02
 120 F= -.28425737E+03 E0= -.28425582E+03  d E =0.113094E-01  mag=    18.0000
       N       E                     dE             d eps       ncg     rms          rms(c)
DAV:   1    -0.284242979458E+03    0.14384E-01   -0.57314E-01 28452   0.346E+00    0.382E-01
DAV:   2    -0.284248079696E+03   -0.51002E-02   -0.56500E-02 27600   0.681E-01    0.582E-01
DAV:   3    -0.284248057023E+03    0.22673E-04   -0.55475E-03 31260   0.274E-01    0.345E-01
DAV:   4    -0.284247936534E+03    0.12049E-03   -0.72659E-04 34896   0.126E-01    0.110E-01
DAV:   5    -0.284247928348E+03    0.81856E-05   -0.44312E-04 37056   0.674E-02    0.135E-01
DAV:   6    -0.284247913957E+03    0.14391E-04   -0.16181E-04 33012   0.558E-02    0.904E-02
DAV:   7    -0.284247905404E+03    0.85530E-05   -0.44435E-05 22140   0.315E-02
 121 F= -.28424791E+03 E0= -.28424639E+03  d E =0.946135E-02  mag=    18.0000
       N       E                     dE             d eps       ncg     rms          rms(c)
DAV:   1    -0.284236723288E+03    0.11191E-01   -0.51757E-01 26772   0.286E+00    0.362E-01
DAV:   2    -0.284240050714E+03   -0.33274E-02   -0.37623E-02 27660   0.544E-01    0.196E-01
DAV:   3    -0.284240148078E+03   -0.97364E-04   -0.22430E-03 34764   0.175E-01    0.378E-01
DAV:   4    -0.284239960906E+03    0.18717E-03   -0.95260E-04 35700   0.122E-01    0.748E-02
DAV:   5    -0.284239958571E+03    0.23347E-05   -0.21139E-04 32940   0.474E-02    0.113E-01
DAV:   6    -0.284239943121E+03    0.15450E-04   -0.12165E-04 31056   0.424E-02    0.224E-02
DAV:   7    -0.284239945079E+03   -0.19580E-05   -0.13128E-05 16800   0.142E-02
 122 F= -.28423995E+03 E0= -.28423843E+03  d E =0.796032E-02  mag=    18.0000
       N       E                     dE             d eps       ncg     rms          rms(c)
DAV:   1    -0.284238614704E+03    0.13284E-02   -0.77597E-02 26832   0.107E+00    0.158E-01
DAV:   2    -0.284239073728E+03   -0.45902E-03   -0.49789E-03 28344   0.206E-01    0.643E-02
DAV:   3    -0.284239057677E+03    0.16051E-04   -0.16658E-04 33552   0.464E-02    0.421E-02
DAV:   4    -0.284239049635E+03    0.80421E-05   -0.33840E-05 27072   0.274E-02
 123 F= -.28423905E+03 E0= -.28423762E+03  d E =0.895444E-03  mag=    18.0000
       N       E                     dE             d eps       ncg     rms          rms(c)
DAV:   1    -0.284240269103E+03   -0.12114E-02   -0.41315E-02 28296   0.920E-01    0.110E-01
DAV:   2    -0.284240589188E+03   -0.32009E-03   -0.35906E-03 28068   0.176E-01    0.625E-02
DAV:   3    -0.284240594826E+03   -0.56375E-05   -0.17432E-04 32784   0.480E-02    0.701E-02
DAV:   4    -0.284240588587E+03    0.62393E-05   -0.73327E-05 22092   0.307E-02
 124 F= -.28424059E+03 E0= -.28423913E+03  d E =-.153895E-02  mag=    18.0000
       N       E                     dE             d eps       ncg     rms          rms(c)
DAV:   1    -0.284241328500E+03   -0.73367E-03   -0.58729E-02 26532   0.933E-01    0.125E-01
DAV:   2    -0.284241664146E+03   -0.33565E-03   -0.38081E-03 27792   0.183E-01    0.112E-01
DAV:   3    -0.284241668215E+03   -0.40692E-05   -0.27998E-04 34284   0.751E-02    0.106E-01
DAV:   4    -0.284241651004E+03    0.17211E-04   -0.89310E-05 24288   0.415E-02    0.541E-02
DAV:   5    -0.284241647773E+03    0.32313E-05   -0.53075E-05 18708   0.269E-02
 125 F= -.28424165E+03 E0= -.28424021E+03  d E =-.105919E-02  mag=    18.0000
       N       E                     dE             d eps       ncg     rms          rms(c)
DAV:   1    -0.284241597254E+03    0.53750E-04   -0.21254E-01 26388   0.165E+00    0.210E-01
DAV:   2    -0.284242601950E+03   -0.10047E-02   -0.10791E-02 28848   0.315E-01    0.153E-01
DAV:   3    -0.284242620133E+03   -0.18182E-04   -0.79994E-04 33432   0.108E-01    0.201E-01
DAV:   4    -0.284242568975E+03    0.51158E-04   -0.35084E-04 29844   0.738E-02    0.688E-02
DAV:   5    -0.284242560532E+03    0.84427E-05   -0.46108E-05 27240   0.305E-02
 126 F= -.28424256E+03 E0= -.28424118E+03  d E =-.912759E-03  mag=    18.0000
       N       E                     dE             d eps       ncg     rms          rms(c)
DAV:   1    -0.284241444506E+03    0.11245E-02   -0.18458E-01 26724   0.156E+00    0.225E-01
DAV:   2    -0.284242302548E+03   -0.85804E-03   -0.92537E-03 30252   0.290E-01    0.155E-01
DAV:   3    -0.284242343951E+03   -0.41403E-04   -0.10295E-03 33408   0.120E-01    0.244E-01
DAV:   4    -0.284242272692E+03    0.71259E-04   -0.40997E-04 31140   0.793E-02    0.460E-02
DAV:   5    -0.284242272328E+03    0.36474E-06   -0.48936E-05 27144   0.259E-02
 127 F= -.28424227E+03 E0= -.28424093E+03  d E =0.288205E-03  mag=    18.0000
       N       E                     dE             d eps       ncg     rms          rms(c)
DAV:   1    -0.284241728685E+03    0.54401E-03   -0.10188E-01 26316   0.101E+00    0.211E-01
DAV:   2    -0.284242098419E+03   -0.36973E-03   -0.47440E-03 30660   0.218E-01    0.206E-01
DAV:   3    -0.284242094672E+03    0.37476E-05   -0.10132E-03 32844   0.115E-01    0.204E-01
DAV:   4    -0.284242031752E+03    0.62920E-04   -0.34450E-04 31800   0.774E-02    0.531E-02
DAV:   5    -0.284242030523E+03    0.12290E-05   -0.49153E-05 29208   0.269E-02
 128 F= -.28424203E+03 E0= -.28424061E+03  d E =0.241805E-03  mag=    18.0000
       N       E                     dE             d eps       ncg     rms          rms(c)
DAV:   1    -0.284242431709E+03   -0.39996E-03   -0.63664E-03 26976   0.316E-01    0.567E-02
DAV:   2    -0.284242471039E+03   -0.39330E-04   -0.43483E-04 29268   0.635E-02    0.381E-02
DAV:   3    -0.284242471397E+03   -0.35761E-06   -0.37723E-05 23688   0.293E-02    0.426E-02
DAV:   4    -0.284242469254E+03    0.21426E-05   -0.11688E-05 16416   0.173E-02
 129 F= -.28424247E+03 E0= -.28424109E+03  d E =-.438731E-03  mag=    18.0000
