       N       E                     dE             d eps       ncg     rms          ort
DAV:   1     0.264898733350E+04    0.26490E+04   -0.14533E+05  6048   0.161E+03
DAV:   2    -0.155625304853E+03   -0.28046E+04   -0.26265E+04  6048   0.429E+02
DAV:   3    -0.459009853518E+03   -0.30338E+03   -0.29926E+03  6048   0.157E+02
DAV:   4    -0.468779472240E+03   -0.97696E+01   -0.96020E+01  6048   0.274E+01
DAV:   5    -0.469408469076E+03   -0.62900E+00   -0.62651E+00  6048   0.513E+00
SDA:   6    -0.308718916288E+03    0.16069E+03   -0.62651E+00  6048   0.361E+03 0.000E+00
CGA:   7    -0.357424853747E+03   -0.48706E+02   -0.50963E+02  6048   0.499E+02 0.567E+01
CGA:   8    -0.365904892151E+03   -0.84800E+01   -0.84702E+01  6048   0.122E+02 0.570E-01
CGA:   9    -0.368689246679E+03   -0.27844E+01   -0.27832E+01  6048   0.486E+01 0.277E-01
CGA:  10    -0.369715602880E+03   -0.10264E+01   -0.10262E+01  6048   0.194E+01-0.145E-01
CGA:  11    -0.370172512986E+03   -0.45691E+00   -0.45860E+00  6048   0.659E+00-0.459E-01
CGA:  12    -0.370330512641E+03   -0.15800E+00   -0.15883E+00  6048   0.239E+00-0.181E-01
CGA:  13    -0.370387205281E+03   -0.56693E-01   -0.56358E-01  6048   0.631E-01 0.805E-02
CGA:  14    -0.370404697144E+03   -0.17492E-01   -0.17242E-01  6048   0.217E-01 0.412E-02
CGA:  15    -0.370412507256E+03   -0.78101E-02   -0.83511E-02  6048   0.110E-01-0.353E-02
CGA:  16    -0.370415187887E+03   -0.26806E-02   -0.26758E-02  6048   0.406E-02 0.572E-04
CGA:  17    -0.370416499941E+03   -0.13121E-02   -0.13610E-02  6048   0.173E-02-0.428E-03
CGA:  18    -0.370417043990E+03   -0.54405E-03   -0.76139E-03  6048   0.140E-02-0.812E-03
CGA:  19    -0.370417149395E+03   -0.10541E-03   -0.12350E-03  6048   0.790E-03 0.252E-03
CGA:  20    -0.370417258618E+03   -0.10922E-03   -0.13480E-03  6048   0.278E-03 0.285E-03
CGA:  21    -0.370417350353E+03   -0.91734E-04   -0.91775E-04  6048   0.146E-03-0.332E-05
CGA:  22    -0.370417277834E+03    0.72518E-04   -0.12005E-03  6048   0.605E-03-0.320E-03
CGA:  23    -0.370417299029E+03   -0.21194E-04   -0.73281E-04  6048   0.244E-03 0.374E-03
CGA:  24    -0.370417342733E+03   -0.43704E-04   -0.49718E-04  6048   0.689E-04 0.121E-03
CGA:  25    -0.370417377773E+03   -0.35040E-04   -0.53392E-04  6048   0.561E-04-0.688E-04
CGA:  26    -0.370417157320E+03    0.22045E-03   -0.11947E-03  6048   0.951E-03-0.224E-03
CGA:  27    -0.370417350157E+03   -0.19284E-03   -0.23651E-03  6048   0.656E-04 0.187E-03
CGA:  28    -0.370417437487E+03   -0.87330E-04    0.10159E-03  6048   0.280E-04-0.402E-04
CGA:  29    -0.370417428767E+03    0.87197E-05   -0.12769E-05  6048   0.191E-04 0.235E-04
   1 F= -.37041743E+03 E0= -.37041743E+03  d E =-.370417E+03  mag=    20.0000
       N       E                     dE             d eps       ncg     rms          ort
SDA:   1    -0.370418911157E+03   -0.14737E-02    0.00000E+00  6048   0.413E-03 0.000E+00
CGA:   2    -0.370418979834E+03   -0.68677E-04   -0.78906E-04  6048   0.176E-03 0.428E-04
CGA:   3    -0.370419006717E+03   -0.26882E-04   -0.31763E-04  6048   0.580E-04 0.192E-04
CGA:   4    -0.370419026082E+03   -0.19365E-04   -0.16881E-04  6048   0.295E-04-0.175E-04
CGA:   5    -0.370419027942E+03   -0.18597E-05   -0.25176E-05  6048   0.775E-05 0.239E-05
   2 F= -.37041903E+03 E0= -.37041903E+03  d E =-.159917E-02  mag=    20.0000
       N       E                     dE             d eps       ncg     rms          ort
SDA:   1    -0.370140462825E+03    0.27856E+00    0.00000E+00  6048   0.937E+00 0.000E+00
CGA:   2    -0.370369979741E+03   -0.22952E+00   -0.22968E+00  6048   0.392E+00 0.994E-03
CGA:   3    -0.370444743403E+03   -0.74764E-01   -0.74744E-01  6048   0.133E+00-0.365E-03
CGA:   4    -0.370468941691E+03   -0.24198E-01   -0.24132E-01  6048   0.276E-01-0.411E-03
CGA:   5    -0.370474355315E+03   -0.54136E-02   -0.54159E-02  6048   0.833E-02 0.896E-05
CGA:   6    -0.370476139973E+03   -0.17847E-02   -0.18078E-02  6048   0.298E-02 0.190E-03
CGA:   7    -0.370476982158E+03   -0.84218E-03   -0.84628E-03  6048   0.128E-02 0.734E-04
CGA:   8    -0.370477392139E+03   -0.40998E-03   -0.40866E-03  6048   0.654E-03-0.697E-04
CGA:   9    -0.370477578599E+03   -0.18646E-03   -0.18607E-03  6048   0.238E-03-0.140E-04
CGA:  10    -0.370477638983E+03   -0.60384E-04   -0.62219E-04  6048   0.792E-04 0.305E-04
CGA:  11    -0.370477660742E+03   -0.21759E-04   -0.23103E-04  6048   0.308E-04 0.204E-04
CGA:  12    -0.370477672257E+03   -0.11515E-04   -0.11677E-04  6048   0.150E-04 0.839E-05
CGA:  13    -0.370477680974E+03   -0.87175E-05   -0.97502E-05  6048   0.133E-04-0.543E-05
   3 F= -.37047768E+03 E0= -.37047768E+03  d E =-.586530E-01  mag=    20.0000
       N       E                     dE             d eps       ncg     rms          ort
SDA:   1    -0.369734458060E+03    0.74321E+00    0.00000E+00  6048   0.231E+01 0.000E+00
CGA:   2    -0.370287496562E+03   -0.55304E+00   -0.55318E+00  6048   0.916E+00-0.159E-03
CGA:   3    -0.370462484527E+03   -0.17499E+00   -0.17497E+00  6048   0.306E+00-0.654E-03
CGA:   4    -0.370516711208E+03   -0.54227E-01   -0.54207E-01  6048   0.599E-01-0.207E-03
CGA:   5    -0.370528402601E+03   -0.11691E-01   -0.11689E-01  6048   0.178E-01-0.407E-04
CGA:   6    -0.370532319236E+03   -0.39166E-02   -0.39295E-02  6048   0.666E-02 0.152E-03
CGA:   7    -0.370534253726E+03   -0.19345E-02   -0.19356E-02  6048   0.325E-02 0.902E-04
CGA:   8    -0.370535292052E+03   -0.10383E-02   -0.10386E-02  6048   0.170E-02-0.174E-04
CGA:   9    -0.370535818461E+03   -0.52641E-03   -0.52636E-03  6048   0.653E-03 0.389E-05
CGA:  10    -0.370536012005E+03   -0.19354E-03   -0.19370E-03  6048   0.225E-03 0.296E-04
CGA:  11    -0.370536081673E+03   -0.69667E-04   -0.69788E-04  6048   0.843E-04 0.275E-04
CGA:  12    -0.370536115817E+03   -0.34145E-04   -0.33778E-04  6048   0.392E-04 0.651E-05
CGA:  13    -0.370536134289E+03   -0.18472E-04   -0.23364E-04  6048   0.353E-04-0.197E-04
CGA:  14    -0.370536141413E+03   -0.71235E-05   -0.76621E-05  6048   0.382E-05 0.542E-05
   4 F= -.37053614E+03 E0= -.37053614E+03  d E =-.584604E-01  mag=    20.0000
       N       E                     dE             d eps       ncg     rms          ort
SDA:   1    -0.369673092245E+03    0.86304E+00    0.00000E+00  6048   0.261E+01 0.000E+00
CGA:   2    -0.370305255245E+03   -0.63216E+00   -0.63214E+00  6048   0.101E+01-0.166E-02
CGA:   3    -0.370500239575E+03   -0.19498E+00   -0.19503E+00  6048   0.337E+00-0.184E-03
CGA:   4    -0.370558438868E+03   -0.58199E-01   -0.58259E-01  6048   0.648E-01 0.266E-03
CGA:   5    -0.370571271900E+03   -0.12833E-01   -0.12824E-01  6048   0.193E-01-0.953E-04
CGA:   6    -0.370575552360E+03   -0.42805E-02   -0.42829E-02  6048   0.750E-02 0.164E-04
CGA:   7    -0.370577761615E+03   -0.22093E-02   -0.22109E-02  6048   0.385E-02 0.595E-04
CGA:   8    -0.370579002007E+03   -0.12404E-02   -0.12404E-02  6048   0.207E-02 0.348E-04
CGA:   9    -0.370579656293E+03   -0.65429E-03   -0.65440E-03  6048   0.803E-03 0.163E-04
CGA:  10    -0.370579905699E+03   -0.24941E-03   -0.24942E-03  6048   0.284E-03 0.117E-05
CGA:  11    -0.370579993139E+03   -0.87439E-04   -0.87614E-04  6048   0.104E-03 0.159E-04
CGA:  12    -0.370580032493E+03   -0.39355E-04   -0.39190E-04  6048   0.446E-04 0.437E-05
CGA:  13    -0.370580052699E+03   -0.20206E-04   -0.22673E-04  6048   0.289E-04-0.148E-04
CGA:  14    -0.370580058157E+03   -0.54580E-05   -0.54757E-05  6048   0.964E-05 0.387E-06
   5 F= -.37058006E+03 E0= -.37058006E+03  d E =-.439167E-01  mag=    20.0000
       N       E                     dE             d eps       ncg     rms          ort
SDA:   1    -0.368570618274E+03    0.20094E+01    0.00000E+00  6048   0.568E+01 0.000E+00
CGA:   2    -0.370012817716E+03   -0.14422E+01   -0.14422E+01  6048   0.232E+01-0.356E-02
CGA:   3    -0.370451736729E+03   -0.43892E+00   -0.43903E+00  6048   0.725E+00-0.313E-03
CGA:   4    -0.370574873010E+03   -0.12314E+00   -0.12325E+00  6048   0.135E+00 0.588E-03
CGA:   5    -0.370601311085E+03   -0.26438E-01   -0.26438E-01  6048   0.398E-01-0.640E-04
CGA:   6    -0.370609989103E+03   -0.86780E-02   -0.86811E-02  6048   0.146E-01 0.180E-04
CGA:   7    -0.370614187188E+03   -0.41981E-02   -0.41986E-02  6048   0.736E-02 0.574E-04
CGA:   8    -0.370616560215E+03   -0.23730E-02   -0.23716E-02  6048   0.407E-02 0.535E-04
CGA:   9    -0.370617870674E+03   -0.13105E-02   -0.13099E-02  6048   0.164E-02 0.196E-04
CGA:  10    -0.370618385942E+03   -0.51527E-03   -0.51553E-03  6048   0.591E-03-0.178E-04
CGA:  11    -0.370618568130E+03   -0.18219E-03   -0.18195E-03  6048   0.218E-03 0.192E-04
CGA:  12    -0.370618649866E+03   -0.81736E-04   -0.81572E-04  6048   0.959E-04 0.252E-05
CGA:  13    -0.370618690368E+03   -0.40501E-04   -0.43509E-04  6048   0.503E-04-0.207E-04
CGA:  14    -0.370618701715E+03   -0.11347E-04   -0.11422E-04  6048   0.143E-04 0.362E-05
CGA:  15    -0.370618706396E+03   -0.46816E-05   -0.46785E-05  6048   0.474E-05-0.919E-06
   6 F= -.37061871E+03 E0= -.37061871E+03  d E =-.386482E-01  mag=    20.0000
       N       E                     dE             d eps       ncg     rms          ort
SDA:   1    -0.369686985970E+03    0.93172E+00    0.00000E+00  6048   0.249E+01 0.000E+00
CGA:   2    -0.370376298263E+03   -0.68931E+00   -0.68927E+00  6048   0.109E+01-0.230E-02
CGA:   3    -0.370570200975E+03   -0.19390E+00   -0.19400E+00  6048   0.303E+00 0.737E-04
CGA:   4    -0.370620901221E+03   -0.50700E-01   -0.50770E-01  6048   0.556E-01 0.419E-03
CGA:   5    -0.370631755610E+03   -0.10854E-01   -0.10848E-01  6048   0.161E-01-0.852E-04
CGA:   6    -0.370635147481E+03   -0.33919E-02   -0.33903E-02  6048   0.519E-02-0.278E-04
CGA:   7    -0.370636561581E+03   -0.14141E-02   -0.14143E-02  6048   0.238E-02 0.140E-04
CGA:   8    -0.370637312636E+03   -0.75106E-03   -0.75025E-03  6048   0.129E-02 0.283E-04
CGA:   9    -0.370637733952E+03   -0.42132E-03   -0.42050E-03  6048   0.539E-03 0.222E-04
CGA:  10    -0.370637910383E+03   -0.17643E-03   -0.17677E-03  6048   0.205E-03-0.106E-04
CGA:  11    -0.370637973444E+03   -0.63061E-04   -0.62933E-04  6048   0.768E-04 0.582E-05
CGA:  12    -0.370638002254E+03   -0.28811E-04   -0.28684E-04  6048   0.352E-04 0.177E-05
CGA:  13    -0.370638017940E+03   -0.15686E-04   -0.17326E-04  6048   0.222E-04-0.891E-05
CGA:  14    -0.370638021422E+03   -0.34822E-05   -0.38125E-05  6048   0.780E-05 0.441E-05
   7 F= -.37063802E+03 E0= -.37063802E+03  d E =-.193150E-01  mag=    20.0000
       N       E                     dE             d eps       ncg     rms          ort
SDA:   1    -0.369662220077E+03    0.97580E+00    0.00000E+00  6048   0.252E+01 0.000E+00
CGA:   2    -0.370394436296E+03   -0.73222E+00   -0.73221E+00  6048   0.114E+01-0.147E-02
CGA:   3    -0.370588337579E+03   -0.19390E+00   -0.19406E+00  6048   0.291E+00 0.411E-03
CGA:   4    -0.370637788341E+03   -0.49451E-01   -0.49506E-01  6048   0.555E-01 0.371E-03
CGA:   5    -0.370648597392E+03   -0.10809E-01   -0.10799E-01  6048   0.156E-01-0.130E-03
CGA:   6    -0.370651788968E+03   -0.31916E-02   -0.31893E-02  6048   0.447E-02-0.387E-04
CGA:   7    -0.370652937237E+03   -0.11483E-02   -0.11486E-02  6048   0.177E-02 0.181E-04
CGA:   8    -0.370653458969E+03   -0.52173E-03   -0.52099E-03  6048   0.836E-03 0.397E-04
CGA:   9    -0.370653732075E+03   -0.27311E-03   -0.27218E-03  6048   0.345E-03 0.212E-04
CGA:  10    -0.370653848498E+03   -0.11642E-03   -0.11696E-03  6048   0.136E-03-0.103E-04
CGA:  11    -0.370653889589E+03   -0.41091E-04   -0.40938E-04  6048   0.513E-04 0.511E-05
CGA:  12    -0.370653910414E+03   -0.20825E-04   -0.21088E-04  6048   0.291E-04-0.231E-05
CGA:  13    -0.370653922368E+03   -0.11954E-04   -0.12486E-04  6048   0.162E-04-0.330E-05
CGA:  14    -0.370653925489E+03   -0.31207E-05   -0.33991E-05  6048   0.549E-05 0.470E-05
   8 F= -.37065393E+03 E0= -.37065393E+03  d E =-.159041E-01  mag=    20.0000
       N       E                     dE             d eps       ncg     rms          ort
SDA:   1    -0.368260270842E+03    0.23937E+01    0.00000E+00  6048   0.607E+01 0.000E+00
CGA:   2    -0.370034295971E+03   -0.17740E+01   -0.17740E+01  6048   0.292E+01-0.722E-03
CGA:   3    -0.370519024788E+03   -0.48473E+00   -0.48501E+00  6048   0.690E+00 0.126E-03
CGA:   4    -0.370636695218E+03   -0.11767E+00   -0.11769E+00  6048   0.132E+00-0.522E-04
CGA:   5    -0.370661975655E+03   -0.25280E-01   -0.25276E-01  6048   0.365E-01-0.106E-03
CGA:   6    -0.370669382809E+03   -0.74072E-02   -0.74136E-02  6048   0.981E-02 0.733E-04
CGA:   7    -0.370671861133E+03   -0.24783E-02   -0.24788E-02  6048   0.374E-02 0.252E-04
CGA:   8    -0.370672951839E+03   -0.10907E-02   -0.10898E-02  6048   0.171E-02 0.403E-04
CGA:   9    -0.370673503418E+03   -0.55158E-03   -0.55048E-03  6048   0.699E-03 0.216E-04
CGA:  10    -0.370673731761E+03   -0.22834E-03   -0.22947E-03  6048   0.261E-03-0.217E-04
CGA:  11    -0.370673807851E+03   -0.76089E-04   -0.75714E-04  6048   0.925E-04 0.144E-04
CGA:  12    -0.370673846758E+03   -0.38908E-04   -0.39740E-04  6048   0.578E-04-0.632E-05
CGA:  13    -0.370673870070E+03   -0.23311E-04   -0.23956E-04  6048   0.338E-04-0.401E-05
CGA:  14    -0.370673878386E+03   -0.83159E-05   -0.84810E-05  6048   0.114E-04 0.819E-05
   9 F= -.37067388E+03 E0= -.37067388E+03  d E =-.199529E-01  mag=    20.0000
       N       E                     dE             d eps       ncg     rms          ort
SDA:   1    -0.365227012646E+03    0.54469E+01    0.00000E+00  6048   0.136E+02 0.000E+00
CGA:   2    -0.369316570964E+03   -0.40896E+01   -0.40894E+01  6048   0.614E+01 0.395E-02
CGA:   3    -0.370360095612E+03   -0.10435E+01   -0.10441E+01  6048   0.149E+01 0.158E-03
CGA:   4    -0.370607027340E+03   -0.24693E+00   -0.24689E+00  6048   0.281E+00-0.102E-02
CGA:   5    -0.370662568144E+03   -0.55541E-01   -0.55539E-01  6048   0.798E-01-0.136E-03
CGA:   6    -0.370678509723E+03   -0.15942E-01   -0.15965E-01  6048   0.215E-01 0.274E-03
CGA:   7    -0.370684045914E+03   -0.55362E-02   -0.55367E-02  6048   0.835E-02 0.354E-04
CGA:   8    -0.370686510293E+03   -0.24644E-02   -0.24645E-02  6048   0.388E-02-0.702E-05
CGA:   9    -0.370687744411E+03   -0.12341E-02   -0.12332E-02  6048   0.154E-02 0.182E-04
CGA:  10    -0.370688235282E+03   -0.49087E-03   -0.49328E-03  6048   0.546E-03-0.527E-04
CGA:  11    -0.370688403548E+03   -0.16827E-03   -0.16852E-03  6048   0.208E-03-0.565E-05
CGA:  12    -0.370688486349E+03   -0.82801E-04   -0.85089E-04  6048   0.125E-03-0.169E-04
CGA:  13    -0.370688536062E+03   -0.49713E-04   -0.50310E-04  6048   0.678E-04-0.402E-05
CGA:  14    -0.370688556008E+03   -0.19946E-04   -0.19805E-04  6048   0.213E-04 0.134E-04
CGA:  15    -0.370688565453E+03   -0.94444E-05   -0.96814E-05  6048   0.897E-05-0.271E-05
  10 F= -.37068857E+03 E0= -.37068857E+03  d E =-.146871E-01  mag=    20.0000
       N       E                     dE             d eps       ncg     rms          ort
SDA:   1    -0.370348499753E+03    0.34006E+00    0.00000E+00  6048   0.908E+00 0.000E+00
CGA:   2    -0.370602417414E+03   -0.25392E+00   -0.25393E+00  6048   0.435E+00 0.889E-04
CGA:   3    -0.370678178316E+03   -0.75761E-01   -0.75848E-01  6048   0.113E+00 0.413E-03
CGA:   4    -0.370697155207E+03   -0.18977E-01   -0.18996E-01  6048   0.216E-01 0.113E-03
CGA:   5    -0.370701421323E+03   -0.42661E-02   -0.42624E-02  6048   0.635E-02-0.474E-04
CGA:   6    -0.370702749559E+03   -0.13282E-02   -0.13243E-02  6048   0.193E-02-0.555E-04
CGA:   7    -0.370703249289E+03   -0.49973E-03   -0.50014E-03  6048   0.771E-03 0.191E-04
CGA:   8    -0.370703465234E+03   -0.21594E-03   -0.21609E-03  6048   0.328E-03 0.494E-04
CGA:   9    -0.370703577638E+03   -0.11240E-03   -0.11212E-03  6048   0.138E-03 0.677E-05
CGA:  10    -0.370703627200E+03   -0.49561E-04   -0.50919E-04  6048   0.682E-04-0.175E-04
CGA:  11    -0.370703647153E+03   -0.19954E-04   -0.20227E-04  6048   0.300E-04-0.516E-05
CGA:  12    -0.370703657258E+03   -0.10105E-04   -0.10163E-04  6048   0.143E-04-0.756E-06
CGA:  13    -0.370703660991E+03   -0.37331E-05   -0.38111E-05  6048   0.531E-05 0.399E-05
  11 F= -.37070366E+03 E0= -.37070366E+03  d E =-.150955E-01  mag=    20.0000
       N       E                     dE             d eps       ncg     rms          ort
SDA:   1    -0.370666076727E+03    0.37581E-01    0.00000E+00  6048   0.116E+00 0.000E+00
CGA:   2    -0.370694115099E+03   -0.28038E-01   -0.28032E-01  6048   0.559E-01-0.206E-03
CGA:   3    -0.370703866069E+03   -0.97510E-02   -0.97729E-02  6048   0.154E-01 0.157E-03
CGA:   4    -0.370706629723E+03   -0.27637E-02   -0.27803E-02  6048   0.316E-02 0.159E-03
CGA:   5    -0.370707206949E+03   -0.57723E-03   -0.58076E-03  6048   0.830E-03 0.358E-04
CGA:   6    -0.370707400499E+03   -0.19355E-03   -0.19200E-03  6048   0.300E-03-0.363E-04
CGA:   7    -0.370707475302E+03   -0.74802E-04   -0.74786E-04  6048   0.126E-03-0.208E-05
CGA:   8    -0.370707507157E+03   -0.31855E-04   -0.32118E-04  6048   0.518E-04 0.195E-04
CGA:   9    -0.370707526723E+03   -0.19567E-04   -0.19385E-04  6048   0.255E-04 0.321E-05
CGA:  10    -0.370707536986E+03   -0.10263E-04   -0.13089E-04  6048   0.280E-04-0.134E-04
CGA:  11    -0.370707541321E+03   -0.43349E-05   -0.48100E-05  6048   0.378E-05 0.430E-05
  12 F= -.37070754E+03 E0= -.37070754E+03  d E =-.388033E-02  mag=    20.0000
       N       E                     dE             d eps       ncg     rms          ort
SDA:   1    -0.370419030053E+03    0.28851E+00    0.00000E+00  6048   0.788E+00 0.000E+00
CGA:   2    -0.370625023140E+03   -0.20599E+00   -0.20601E+00  6048   0.391E+00 0.114E-03
CGA:   3    -0.370693098943E+03   -0.68076E-01   -0.68127E-01  6048   0.101E+00 0.250E-03
CGA:   4    -0.370710088639E+03   -0.16990E-01   -0.17008E-01  6048   0.188E-01 0.148E-03
CGA:   5    -0.370713637631E+03   -0.35490E-02   -0.35545E-02  6048   0.519E-02 0.636E-04
CGA:   6    -0.370714724313E+03   -0.10867E-02   -0.10858E-02  6048   0.149E-02-0.192E-04
CGA:   7    -0.370715104758E+03   -0.38045E-03   -0.38046E-03  6048   0.600E-03 0.212E-05
CGA:   8    -0.370715274983E+03   -0.17022E-03   -0.16935E-03  6048   0.269E-03 0.412E-04
CGA:   9    -0.370715369453E+03   -0.94470E-04   -0.93489E-04  6048   0.122E-03 0.154E-04
CGA:  10    -0.370715415240E+03   -0.45787E-04   -0.46899E-04  6048   0.620E-04-0.114E-04
CGA:  11    -0.370715433351E+03   -0.18111E-04   -0.18206E-04  6048   0.252E-04-0.177E-05
CGA:  12    -0.370715442634E+03   -0.92833E-05   -0.96247E-05  6048   0.137E-04-0.285E-05
  13 F= -.37071544E+03 E0= -.37071544E+03  d E =-.790131E-02  mag=    20.0000
       N       E                     dE             d eps       ncg     rms          ort
SDA:   1    -0.367341319191E+03    0.33741E+01    0.00000E+00  6048   0.900E+01 0.000E+00
CGA:   2    -0.369719958840E+03   -0.23786E+01   -0.23790E+01  6048   0.434E+01 0.132E-01
CGA:   3    -0.370481132636E+03   -0.76117E+00   -0.76143E+00  6048   0.114E+01 0.114E-03
CGA:   4    -0.370672579145E+03   -0.19145E+00   -0.19132E+00  6048   0.212E+00-0.158E-02
CGA:   5    -0.370712928139E+03   -0.40349E-01   -0.40360E-01  6048   0.592E-01 0.443E-04
CGA:   6    -0.370725099066E+03   -0.12171E-01   -0.12183E-01  6048   0.167E-01 0.163E-03
CGA:   7    -0.370729403966E+03   -0.43049E-02   -0.43051E-02  6048   0.673E-02 0.309E-04
CGA:   8    -0.370731409226E+03   -0.20053E-02   -0.20016E-02  6048   0.323E-02 0.102E-03
CGA:   9    -0.370732491794E+03   -0.10826E-02   -0.10821E-02  6048   0.143E-02 0.550E-05
CGA:  10    -0.370732961221E+03   -0.46943E-03   -0.47271E-03  6048   0.583E-03-0.524E-04
CGA:  11    -0.370733143296E+03   -0.18207E-03   -0.18187E-03  6048   0.236E-03 0.361E-05
CGA:  12    -0.370733239150E+03   -0.95855E-04   -0.99104E-04  6048   0.142E-03-0.225E-04
CGA:  13    -0.370733282448E+03   -0.43298E-04   -0.42333E-04  6048   0.546E-04 0.193E-04
CGA:  14    -0.370733299088E+03   -0.16640E-04   -0.16803E-04  6048   0.175E-04 0.144E-04
CGA:  15    -0.370733306953E+03   -0.78645E-05   -0.78964E-05  6048   0.692E-05-0.426E-06
  14 F= -.37073331E+03 E0= -.37073331E+03  d E =-.178643E-01  mag=    20.0000
       N       E                     dE             d eps       ncg     rms          ort
SDA:   1    -0.367321992315E+03    0.34113E+01    0.00000E+00  6048   0.815E+01 0.000E+00
CGA:   2    -0.369542715484E+03   -0.22207E+01   -0.22208E+01  6048   0.392E+01-0.118E-02
CGA:   3    -0.370220206768E+03   -0.67749E+00   -0.67789E+00  6048   0.110E+01-0.620E-03
CGA:   4    -0.370425298982E+03   -0.20509E+00   -0.20512E+00  6048   0.262E+00-0.393E-03
CGA:   5    -0.370477290312E+03   -0.51991E-01   -0.52005E-01  6048   0.801E-01 0.108E-03
CGA:   6    -0.370494800640E+03   -0.17510E-01   -0.17519E-01  6048   0.281E-01 0.144E-03
CGA:   7    -0.370502467176E+03   -0.76665E-02   -0.76666E-02  6048   0.112E-01-0.429E-04
CGA:   8    -0.370505474973E+03   -0.30078E-02   -0.30079E-02  6048   0.427E-02 0.439E-04
CGA:   9    -0.370506744516E+03   -0.12695E-02   -0.12703E-02  6048   0.140E-02-0.291E-04
CGA:  10    -0.370507178266E+03   -0.43375E-03   -0.43620E-03  6048   0.520E-03-0.585E-04
CGA:  11    -0.370507314927E+03   -0.13666E-03   -0.13662E-03  6048   0.167E-03 0.448E-04
CGA:  12    -0.370507381089E+03   -0.66161E-04   -0.66435E-04  6048   0.904E-04-0.309E-05
CGA:  13    -0.370507418807E+03   -0.37719E-04   -0.40846E-04  6048   0.630E-04-0.173E-04
CGA:  14    -0.370507427862E+03   -0.90541E-05   -0.10572E-04  6048   0.280E-04 0.190E-04
  15 F= -.37050743E+03 E0= -.37050743E+03  d E =0.225879E+00  mag=    20.0000
       N       E                     dE             d eps       ncg     rms          ort
SDA:   1    -0.370213903903E+03    0.29351E+00    0.00000E+00  6048   0.111E+01 0.000E+00
CGA:   2    -0.370578226883E+03   -0.36432E+00   -0.36429E+00  6048   0.320E+00 0.385E-03
CGA:   3    -0.370658515644E+03   -0.80289E-01   -0.80296E-01  6048   0.747E-01 0.119E-03
CGA:   4    -0.370673233168E+03   -0.14718E-01   -0.14733E-01  6048   0.263E-01 0.153E-03
CGA:   5    -0.370678303757E+03   -0.50706E-02   -0.50798E-02  6048   0.725E-02 0.109E-03
CGA:   6    -0.370680293359E+03   -0.19896E-02   -0.19896E-02  6048   0.353E-02-0.133E-04
CGA:   7    -0.370681128312E+03   -0.83495E-03   -0.83356E-03  6048   0.126E-02-0.414E-04
CGA:   8    -0.370681489764E+03   -0.36145E-03   -0.36086E-03  6048   0.429E-03 0.273E-04
CGA:   9    -0.370681602713E+03   -0.11295E-03   -0.11327E-03  6048   0.137E-03 0.272E-04
CGA:  10    -0.370681648411E+03   -0.45698E-04   -0.46023E-04  6048   0.494E-04-0.718E-05
CGA:  11    -0.370681664288E+03   -0.15877E-04   -0.16108E-04  6048   0.208E-04-0.325E-05
CGA:  12    -0.370681669598E+03   -0.53109E-05   -0.53186E-05  6048   0.794E-05 0.390E-05
  16 F= -.37068167E+03 E0= -.37068167E+03  d E =-.174242E+00  mag=    20.0000
       N       E                     dE             d eps       ncg     rms          ort
SDA:   1    -0.370519709854E+03    0.16195E+00    0.00000E+00  6048   0.513E+00 0.000E+00
CGA:   2    -0.370688345260E+03   -0.16864E+00   -0.16861E+00  6048   0.151E+00 0.365E-03
CGA:   3    -0.370725551010E+03   -0.37206E-01   -0.37213E-01  6048   0.368E-01 0.130E-03
CGA:   4    -0.370732447617E+03   -0.68966E-02   -0.69093E-02  6048   0.126E-01 0.105E-03
CGA:   5    -0.370734918486E+03   -0.24709E-02   -0.24747E-02  6048   0.353E-02 0.424E-04
CGA:   6    -0.370735837631E+03   -0.91915E-03   -0.91886E-03  6048   0.172E-02-0.161E-04
CGA:   7    -0.370736258275E+03   -0.42064E-03   -0.41994E-03  6048   0.590E-03-0.219E-04
CGA:   8    -0.370736427863E+03   -0.16959E-03   -0.16930E-03  6048   0.212E-03 0.193E-04
CGA:   9    -0.370736483510E+03   -0.55647E-04   -0.55944E-04  6048   0.669E-04 0.141E-04
CGA:  10    -0.370736506332E+03   -0.22822E-04   -0.22998E-04  6048   0.250E-04-0.382E-05
CGA:  11    -0.370736514084E+03   -0.77518E-05   -0.78097E-05  6048   0.102E-04-0.109E-05
  17 F= -.37073651E+03 E0= -.37073651E+03  d E =-.548445E-01  mag=    20.0000
       N       E                     dE             d eps       ncg     rms          ort
SDA:   1    -0.370644822631E+03    0.91684E-01    0.00000E+00  6048   0.242E+00 0.000E+00
CGA:   2    -0.370723785080E+03   -0.78962E-01   -0.78946E-01  6048   0.777E-01 0.285E-03
CGA:   3    -0.370741083133E+03   -0.17298E-01   -0.17303E-01  6048   0.239E-01 0.385E-04
CGA:   4    -0.370745056309E+03   -0.39732E-02   -0.39848E-02  6048   0.609E-02 0.840E-04
CGA:   5    -0.370746393409E+03   -0.13371E-02   -0.13387E-02  6048   0.185E-02 0.262E-04
CGA:   6    -0.370746829613E+03   -0.43620E-03   -0.43491E-03  6048   0.878E-03-0.323E-04
CGA:   7    -0.370747053619E+03   -0.22401E-03   -0.22374E-03  6048   0.305E-03-0.191E-04
CGA:   8    -0.370747133371E+03   -0.79752E-04   -0.79865E-04  6048   0.109E-03 0.212E-04
CGA:   9    -0.370747164048E+03   -0.30677E-04   -0.30729E-04  6048   0.341E-04 0.663E-05
CGA:  10    -0.370747176009E+03   -0.11961E-04   -0.12185E-04  6048   0.139E-04-0.349E-05
CGA:  11    -0.370747179449E+03   -0.34402E-05   -0.34400E-05  6048   0.461E-05 0.524E-06
  18 F= -.37074718E+03 E0= -.37074718E+03  d E =-.106654E-01  mag=    20.0000
       N       E                     dE             d eps       ncg     rms          ort
SDA:   1    -0.370744900092E+03    0.22759E-02    0.00000E+00  6048   0.107E-01 0.000E+00
CGA:   2    -0.370747502318E+03   -0.26022E-02   -0.26072E-02  6048   0.478E-02 0.569E-04
CGA:   3    -0.370748400224E+03   -0.89791E-03   -0.89553E-03  6048   0.154E-02-0.215E-04
CGA:   4    -0.370748670707E+03   -0.27048E-03   -0.26989E-03  6048   0.302E-03-0.513E-05
CGA:   5    -0.370748727451E+03   -0.56744E-04   -0.56701E-04  6048   0.100E-03-0.495E-06
CGA:   6    -0.370748750864E+03   -0.23413E-04   -0.22566E-04  6048   0.368E-04-0.124E-04
CGA:   7    -0.370748761461E+03   -0.10597E-04   -0.11103E-04  6048   0.226E-04-0.962E-05
CGA:   8    -0.370748763892E+03   -0.24311E-05   -0.29477E-05  6048   0.753E-05 0.439E-05
  19 F= -.37074876E+03 E0= -.37074876E+03  d E =-.158444E-02  mag=    20.0000
       N       E                     dE             d eps       ncg     rms          ort
SDA:   1    -0.370739524417E+03    0.92370E-02    0.00000E+00  6048   0.353E-01 0.000E+00
CGA:   2    -0.370747532712E+03   -0.80083E-02   -0.80183E-02  6048   0.144E-01 0.145E-03
CGA:   3    -0.370750353955E+03   -0.28212E-02   -0.28164E-02  6048   0.488E-02-0.663E-04
CGA:   4    -0.370751206204E+03   -0.85225E-03   -0.85025E-03  6048   0.950E-03-0.220E-04
CGA:   5    -0.370751394543E+03   -0.18834E-03   -0.18819E-03  6048   0.281E-03-0.243E-05
CGA:   6    -0.370751461312E+03   -0.66769E-04   -0.65884E-04  6048   0.112E-03-0.293E-04
CGA:   7    -0.370751490463E+03   -0.29151E-04   -0.29515E-04  6048   0.545E-04-0.119E-04
CGA:   8    -0.370751500552E+03   -0.10089E-04   -0.10555E-04  6048   0.181E-04 0.951E-05
CGA:   9    -0.370751505551E+03   -0.49992E-05   -0.51069E-05  6048   0.744E-05 0.459E-05
  20 F= -.37075151E+03 E0= -.37075151E+03  d E =-.274166E-02  mag=    20.0000
       N       E                     dE             d eps       ncg     rms          ort
SDA:   1    -0.370750848857E+03    0.65169E-03    0.00000E+00  6048   0.503E-02 0.000E+00
CGA:   2    -0.370751997103E+03   -0.11482E-02   -0.11508E-02  6048   0.194E-02 0.486E-04
CGA:   3    -0.370752386350E+03   -0.38925E-03   -0.38726E-03  6048   0.744E-03-0.269E-04
CGA:   4    -0.370752504360E+03   -0.11801E-03   -0.11744E-03  6048   0.148E-03-0.536E-05
CGA:   5    -0.370752529113E+03   -0.24754E-04   -0.25067E-04  6048   0.378E-04 0.330E-05
CGA:   6    -0.370752539797E+03   -0.10684E-04   -0.10907E-04  6048   0.197E-04-0.986E-05
CGA:   7    -0.370752544473E+03   -0.46756E-05   -0.61248E-05  6048   0.202E-04-0.909E-05
  21 F= -.37075254E+03 E0= -.37075254E+03  d E =-.103892E-02  mag=    20.0000
       N       E                     dE             d eps       ncg     rms          ort
SDA:   1    -0.370419987638E+03    0.33255E+00    0.00000E+00  6048   0.104E+01 0.000E+00
CGA:   2    -0.370647716372E+03   -0.22773E+00   -0.22792E+00  6048   0.434E+00 0.287E-02
CGA:   3    -0.370731759847E+03   -0.84043E-01   -0.84027E-01  6048   0.145E+00-0.522E-03
CGA:   4    -0.370756893743E+03   -0.25134E-01   -0.25099E-01  6048   0.270E-01-0.481E-03
CGA:   5    -0.370761938504E+03   -0.50448E-02   -0.50443E-02  6048   0.742E-02-0.168E-04
CGA:   6    -0.370763512319E+03   -0.15738E-02   -0.15708E-02  6048   0.229E-02-0.812E-04
CGA:   7    -0.370764136735E+03   -0.62442E-03   -0.62635E-03  6048   0.105E-02-0.702E-04
CGA:   8    -0.370764427492E+03   -0.29076E-03   -0.28934E-03  6048   0.479E-03 0.421E-04
CGA:   9    -0.370764589926E+03   -0.16243E-03   -0.16122E-03  6048   0.213E-03 0.164E-04
CGA:  10    -0.370764671405E+03   -0.81480E-04   -0.86756E-04  6048   0.131E-03-0.385E-04
CGA:  11    -0.370764703312E+03   -0.31907E-04   -0.31824E-04  6048   0.505E-04 0.236E-05
CGA:  12    -0.370764719427E+03   -0.16115E-04   -0.16027E-04  6048   0.224E-04 0.184E-05
CGA:  13    -0.370764726257E+03   -0.68295E-05   -0.67416E-05  6048   0.856E-05 0.361E-05
  22 F= -.37076473E+03 E0= -.37076473E+03  d E =-.121818E-01  mag=    20.0000
       N       E                     dE             d eps       ncg     rms          ort
SDA:   1    -0.370752852780E+03    0.11867E-01    0.00000E+00  6048   0.381E-01 0.000E+00
CGA:   2    -0.370759465810E+03   -0.66130E-02   -0.66099E-02  6048   0.164E-01-0.813E-04
CGA:   3    -0.370762902237E+03   -0.34364E-02   -0.34402E-02  6048   0.572E-02 0.676E-04
CGA:   4    -0.370763942437E+03   -0.10402E-02   -0.10439E-02  6048   0.125E-02 0.486E-04
CGA:   5    -0.370764168001E+03   -0.22556E-03   -0.22658E-03  6048   0.316E-03 0.138E-04
CGA:   6    -0.370764229607E+03   -0.61606E-04   -0.63033E-04  6048   0.853E-04 0.281E-04
CGA:   7    -0.370764249837E+03   -0.20230E-04   -0.20543E-04  6048   0.283E-04 0.129E-04
CGA:   8    -0.370764260761E+03   -0.10924E-04   -0.11890E-04  6048   0.213E-04-0.803E-05
CGA:   9    -0.370764264519E+03   -0.37578E-05   -0.37533E-05  6048   0.914E-05-0.998E-06
  23 F= -.37076426E+03 E0= -.37076426E+03  d E =0.461738E-03  mag=    20.0000
       N       E                     dE             d eps       ncg     rms          ort
SDA:   1    -0.370754216965E+03    0.10044E-01    0.00000E+00  6048   0.289E-01 0.000E+00
CGA:   2    -0.370762863905E+03   -0.86469E-02   -0.86454E-02  6048   0.122E-01 0.150E-04
CGA:   3    -0.370764954829E+03   -0.20909E-02   -0.20922E-02  6048   0.312E-02 0.927E-05
CGA:   4    -0.370765498792E+03   -0.54396E-03   -0.54355E-03  6048   0.589E-03-0.722E-05
CGA:   5    -0.370765612145E+03   -0.11335E-03   -0.11349E-03  6048   0.159E-03 0.270E-05
CGA:   6    -0.370765643141E+03   -0.30996E-04   -0.31259E-04  6048   0.429E-04 0.603E-05
CGA:   7    -0.370765656741E+03   -0.13599E-04   -0.14429E-04  6048   0.263E-04-0.947E-05
CGA:   8    -0.370765662167E+03   -0.54261E-05   -0.54600E-05  6048   0.114E-04-0.130E-05
  24 F= -.37076566E+03 E0= -.37076566E+03  d E =-.139765E-02  mag=    20.0000
       N       E                     dE             d eps       ncg     rms          ort
SDA:   1    -0.370570207896E+03    0.19545E+00    0.00000E+00  6048   0.505E+00 0.000E+00
CGA:   2    -0.370725280178E+03   -0.15507E+00   -0.15502E+00  6048   0.190E+00 0.522E-03
CGA:   3    -0.370759850730E+03   -0.34571E-01   -0.34561E-01  6048   0.529E-01-0.281E-03
CGA:   4    -0.370768481410E+03   -0.86307E-02   -0.86283E-02  6048   0.100E-01-0.575E-04
CGA:   5    -0.370770462154E+03   -0.19807E-02   -0.19824E-02  6048   0.264E-02 0.420E-04
CGA:   6    -0.370771003792E+03   -0.54164E-03   -0.54157E-03  6048   0.803E-03-0.405E-05
CGA:   7    -0.370771225263E+03   -0.22147E-03   -0.22372E-03  6048   0.350E-03-0.483E-04
CGA:   8    -0.370771319795E+03   -0.94533E-04   -0.94198E-04  6048   0.159E-03 0.637E-05
CGA:   9    -0.370771366703E+03   -0.46908E-04   -0.46234E-04  6048   0.548E-04 0.137E-04
CGA:  10    -0.370771388445E+03   -0.21741E-04   -0.23990E-04  6048   0.343E-04-0.138E-04
CGA:  11    -0.370771395451E+03   -0.70067E-05   -0.69951E-05  6048   0.134E-04 0.475E-06
  25 F= -.37077140E+03 E0= -.37077140E+03  d E =-.573328E-02  mag=    20.0000
       N       E                     dE             d eps       ncg     rms          ort
SDA:   1    -0.368534364198E+03    0.22370E+01    0.00000E+00  6048   0.547E+01 0.000E+00
CGA:   2    -0.370314825621E+03   -0.17805E+01   -0.17804E+01  6048   0.199E+01-0.127E-03
CGA:   3    -0.370658594714E+03   -0.34377E+00   -0.34388E+00  6048   0.550E+00-0.157E-03
CGA:   4    -0.370750440008E+03   -0.91845E-01   -0.91878E-01  6048   0.105E+00 0.189E-03
CGA:   5    -0.370771129203E+03   -0.20689E-01   -0.20691E-01  6048   0.287E-01-0.681E-05
CGA:   6    -0.370777033486E+03   -0.59043E-02   -0.59001E-02  6048   0.851E-02-0.124E-03
CGA:   7    -0.370779222503E+03   -0.21890E-02   -0.21906E-02  6048   0.324E-02-0.988E-04
CGA:   8    -0.370780157884E+03   -0.93538E-03   -0.93310E-03  6048   0.145E-02 0.461E-04
CGA:   9    -0.370780603210E+03   -0.44533E-03   -0.44459E-03  6048   0.506E-03 0.121E-04
CGA:  10    -0.370780768559E+03   -0.16535E-03   -0.16972E-03  6048   0.178E-03-0.516E-04
CGA:  11    -0.370780816421E+03   -0.47862E-04   -0.48236E-04  6048   0.571E-04-0.761E-05
CGA:  12    -0.370780837049E+03   -0.20628E-04   -0.21985E-04  6048   0.322E-04-0.922E-05
CGA:  13    -0.370780845807E+03   -0.87582E-05   -0.84484E-05  6048   0.139E-04 0.603E-05
  26 F= -.37078085E+03 E0= -.37078085E+03  d E =-.945036E-02  mag=    20.0000
       N       E                     dE             d eps       ncg     rms          ort
SDA:   1    -0.363841413793E+03    0.69394E+01    0.00000E+00  6048   0.167E+02 0.000E+00
CGA:   2    -0.369410943056E+03   -0.55695E+01   -0.55695E+01  6048   0.587E+01-0.400E-02
CGA:   3    -0.370424537184E+03   -0.10136E+01   -0.10143E+01  6048   0.160E+01 0.145E-02
CGA:   4    -0.370692466911E+03   -0.26793E+00   -0.26809E+00  6048   0.310E+00 0.993E-03
CGA:   5    -0.370753941196E+03   -0.61474E-01   -0.61473E-01  6048   0.866E-01-0.103E-03
CGA:   6    -0.370771994643E+03   -0.18053E-01   -0.18044E-01  6048   0.262E-01-0.252E-03
CGA:   7    -0.370778763522E+03   -0.67689E-02   -0.67700E-02  6048   0.102E-01-0.156E-03
CGA:   8    -0.370781742840E+03   -0.29793E-02   -0.29764E-02  6048   0.454E-02 0.648E-04
CGA:   9    -0.370783099556E+03   -0.13567E-02   -0.13553E-02  6048   0.150E-02 0.307E-04
CGA:  10    -0.370783567971E+03   -0.46842E-03   -0.47391E-03  6048   0.458E-03-0.972E-04
CGA:  11    -0.370783701810E+03   -0.13384E-03   -0.13649E-03  6048   0.153E-03-0.445E-04
CGA:  12    -0.370783750822E+03   -0.49012E-04   -0.50319E-04  6048   0.666E-04-0.129E-04
CGA:  13    -0.370783773536E+03   -0.22714E-04   -0.22094E-04  6048   0.294E-04 0.648E-05
CGA:  14    -0.370783782631E+03   -0.90949E-05   -0.90136E-05  6048   0.119E-04 0.113E-04
  27 F= -.37078378E+03 E0= -.37078378E+03  d E =-.293682E-02  mag=    20.0000
       N       E                     dE             d eps       ncg     rms          ort
SDA:   1    -0.370238955272E+03    0.54482E+00    0.00000E+00  6048   0.132E+01 0.000E+00
CGA:   2    -0.370642646452E+03   -0.40369E+00   -0.40366E+00  6048   0.602E+00 0.429E-03
CGA:   3    -0.370743291236E+03   -0.10064E+00   -0.10065E+00  6048   0.153E+00-0.445E-03
CGA:   4    -0.370769781646E+03   -0.26490E-01   -0.26476E-01  6048   0.313E-01-0.208E-03
CGA:   5    -0.370775904884E+03   -0.61232E-02   -0.61324E-02  6048   0.914E-02 0.124E-03
CGA:   6    -0.370777817752E+03   -0.19129E-02   -0.19177E-02  6048   0.281E-02 0.911E-04
CGA:   7    -0.370778584705E+03   -0.76695E-03   -0.76770E-03  6048   0.117E-02-0.590E-04
CGA:   8    -0.370778911782E+03   -0.32708E-03   -0.32737E-03  6048   0.498E-03-0.108E-04
CGA:   9    -0.370779051553E+03   -0.13977E-03   -0.13919E-03  6048   0.158E-03 0.255E-04
CGA:  10    -0.370779103237E+03   -0.51684E-04   -0.51868E-04  6048   0.566E-04-0.370E-05
CGA:  11    -0.370779118175E+03   -0.14939E-04   -0.14895E-04  6048   0.192E-04 0.725E-05
CGA:  12    -0.370779125947E+03   -0.77714E-05   -0.77049E-05  6048   0.113E-04 0.709E-06
  28 F= -.37077913E+03 E0= -.37077913E+03  d E =0.465668E-02  mag=    20.0000
       N       E                     dE             d eps       ncg     rms          ort
SDA:   1    -0.368781076233E+03    0.19980E+01    0.00000E+00  6048   0.480E+01 0.000E+00
CGA:   2    -0.370392426648E+03   -0.16114E+01   -0.16112E+01  6048   0.164E+01 0.181E-02
CGA:   3    -0.370687153939E+03   -0.29473E+00   -0.29485E+00  6048   0.445E+00-0.196E-03
CGA:   4    -0.370760253737E+03   -0.73100E-01   -0.73094E-01  6048   0.868E-01-0.221E-03
CGA:   5    -0.370777850429E+03   -0.17597E-01   -0.17589E-01  6048   0.238E-01-0.126E-03
CGA:   6    -0.370782706430E+03   -0.48560E-02   -0.48621E-02  6048   0.725E-02 0.744E-04
CGA:   7    -0.370784559913E+03   -0.18535E-02   -0.18553E-02  6048   0.268E-02 0.106E-03
CGA:   8    -0.370785396092E+03   -0.83618E-03   -0.83828E-03  6048   0.133E-02-0.585E-04
CGA:   9    -0.370785791808E+03   -0.39572E-03   -0.39734E-03  6048   0.470E-03-0.497E-04
CGA:  10    -0.370785922468E+03   -0.13066E-03   -0.13066E-03  6048   0.127E-03 0.206E-06
CGA:  11    -0.370785961405E+03   -0.38937E-04   -0.39083E-04  6048   0.438E-04-0.453E-05
CGA:  12    -0.370785974864E+03   -0.13459E-04   -0.13271E-04  6048   0.178E-04 0.507E-05
CGA:  13    -0.370785983220E+03   -0.83561E-05   -0.13993E-04  6048   0.354E-04-0.132E-04
  29 F= -.37078598E+03 E0= -.37078598E+03  d E =-.685727E-02  mag=    20.0000
       N       E                     dE             d eps       ncg     rms          ort
SDA:   1    -0.370773888949E+03    0.12086E-01    0.00000E+00  6048   0.401E-01 0.000E+00
CGA:   2    -0.370781809414E+03   -0.79205E-02   -0.79467E-02  6048   0.188E-01 0.219E-03
CGA:   3    -0.370785447715E+03   -0.36383E-02   -0.36353E-02  6048   0.577E-02-0.421E-04
CGA:   4    -0.370786513194E+03   -0.10655E-02   -0.10507E-02  6048   0.126E-02-0.142E-03
CGA:   5    -0.370786738787E+03   -0.22559E-03   -0.22279E-03  6048   0.329E-03-0.280E-04
CGA:   6    -0.370786798737E+03   -0.59949E-04   -0.62063E-04  6048   0.837E-04 0.249E-04
CGA:   7    -0.370786817731E+03   -0.18994E-04   -0.19701E-04  6048   0.281E-04 0.130E-04
CGA:   8    -0.370786828908E+03   -0.11176E-04   -0.11845E-04  6048   0.227E-04-0.713E-05
CGA:   9    -0.370786833949E+03   -0.50417E-05   -0.51800E-05  6048   0.124E-04-0.451E-05
  30 F= -.37078683E+03 E0= -.37078683E+03  d E =-.850729E-03  mag=    20.0000
       N       E                     dE             d eps       ncg     rms          ort
SDA:   1    -0.370553918451E+03    0.23291E+00    0.00000E+00  6048   0.589E+00 0.000E+00
CGA:   2    -0.370724071379E+03   -0.17015E+00   -0.17014E+00  6048   0.305E+00 0.525E-03
CGA:   3    -0.370773239774E+03   -0.49168E-01   -0.49163E-01  6048   0.685E-01-0.286E-03
CGA:   4    -0.370785156323E+03   -0.11917E-01   -0.11898E-01  6048   0.138E-01-0.222E-03
CGA:   5    -0.370787701502E+03   -0.25452E-02   -0.25460E-02  6048   0.366E-02 0.542E-05
CGA:   6    -0.370788451584E+03   -0.75008E-03   -0.75163E-03  6048   0.987E-03 0.268E-04
CGA:   7    -0.370788704536E+03   -0.25295E-03   -0.25287E-03  6048   0.378E-03-0.265E-04
CGA:   8    -0.370788811402E+03   -0.10687E-03   -0.10701E-03  6048   0.168E-03-0.456E-05
CGA:   9    -0.370788861663E+03   -0.50261E-04   -0.50038E-04  6048   0.614E-04 0.528E-05
CGA:  10    -0.370788883504E+03   -0.21841E-04   -0.22806E-04  6048   0.279E-04-0.978E-05
CGA:  11    -0.370788889590E+03   -0.60859E-05   -0.61006E-05  6048   0.884E-05 0.245E-05
  31 F= -.37078889E+03 E0= -.37078889E+03  d E =-.205564E-02  mag=    20.0000
       N       E                     dE             d eps       ncg     rms          ort
SDA:   1    -0.359562451079E+03    0.11226E+02    0.00000E+00  6048   0.285E+02 0.000E+00
CGA:   2    -0.367558033205E+03   -0.79956E+01   -0.79947E+01  6048   0.152E+02 0.429E-01
CGA:   3    -0.370016495697E+03   -0.24585E+01   -0.24627E+01  6048   0.332E+01 0.159E-01
CGA:   4    -0.370595248973E+03   -0.57875E+00   -0.57840E+00  6048   0.696E+00-0.460E-02
CGA:   5    -0.370725002793E+03   -0.12975E+00   -0.12977E+00  6048   0.189E+00-0.170E-03
CGA:   6    -0.370764926563E+03   -0.39924E-01   -0.39955E-01  6048   0.550E-01 0.555E-03
CGA:   7    -0.370778742345E+03   -0.13816E-01   -0.13815E-01  6048   0.209E-01-0.126E-03
CGA:   8    -0.370784832451E+03   -0.60901E-02   -0.60878E-02  6048   0.915E-02 0.531E-04
CGA:   9    -0.370787666535E+03   -0.28341E-02   -0.28379E-02  6048   0.340E-02-0.778E-04
CGA:  10    -0.370788717508E+03   -0.10510E-02   -0.10613E-02  6048   0.115E-02-0.189E-03
CGA:  11    -0.370789026301E+03   -0.30879E-03   -0.30745E-03  6048   0.361E-03 0.654E-04
CGA:  12    -0.370789175617E+03   -0.14932E-03   -0.15545E-03  6048   0.231E-03-0.426E-04
CGA:  13    -0.370789252303E+03   -0.76685E-04   -0.75178E-04  6048   0.118E-03 0.150E-04
CGA:  14    -0.370789286410E+03   -0.34107E-04   -0.34203E-04  6048   0.449E-04 0.350E-04
CGA:  15    -0.370789305110E+03   -0.18700E-04   -0.18465E-04  6048   0.174E-04 0.566E-05
CGA:  16    -0.370789312239E+03   -0.71291E-05   -0.13060E-04  6048   0.246E-04-0.152E-04
  32 F= -.37078931E+03 E0= -.37078931E+03  d E =-.422649E-03  mag=    20.0000
       N       E                     dE             d eps       ncg     rms          ort
SDA:   1    -0.369896168095E+03    0.89314E+00    0.00000E+00  6048   0.223E+01 0.000E+00
CGA:   2    -0.370582348448E+03   -0.68618E+00   -0.68615E+00  6048   0.926E+00 0.936E-03
CGA:   3    -0.370736659811E+03   -0.15431E+00   -0.15437E+00  6048   0.240E+00-0.226E-03
CGA:   4    -0.370778528845E+03   -0.41869E-01   -0.41864E-01  6048   0.471E-01-0.804E-04
CGA:   5    -0.370787504609E+03   -0.89758E-02   -0.89888E-02  6048   0.127E-01 0.126E-03
CGA:   6    -0.370790103151E+03   -0.25985E-02   -0.26057E-02  6048   0.356E-02 0.932E-04
CGA:   7    -0.370791005114E+03   -0.90196E-03   -0.90321E-03  6048   0.130E-02 0.585E-04
CGA:   8    -0.370791400239E+03   -0.39513E-03   -0.39611E-03  6048   0.624E-03-0.356E-04
CGA:   9    -0.370791594544E+03   -0.19431E-03   -0.19643E-03  6048   0.241E-03-0.425E-04
CGA:  10    -0.370791651475E+03   -0.56931E-04   -0.57399E-04  6048   0.613E-04 0.236E-04
CGA:  11    -0.370791668193E+03   -0.16718E-04   -0.16950E-04  6048   0.188E-04 0.101E-04
CGA:  12    -0.370791676772E+03   -0.85791E-05   -0.90756E-05  6048   0.135E-04-0.355E-05
  33 F= -.37079168E+03 E0= -.37079168E+03  d E =-.236453E-02  mag=    20.0000
       N       E                     dE             d eps       ncg     rms          ort
SDA:   1    -0.369924015907E+03    0.86765E+00    0.00000E+00  6048   0.221E+01 0.000E+00
CGA:   2    -0.370532313365E+03   -0.60830E+00   -0.60831E+00  6048   0.124E+01-0.324E-03
CGA:   3    -0.370733890711E+03   -0.20158E+00   -0.20176E+00  6048   0.266E+00 0.908E-03
CGA:   4    -0.370779900476E+03   -0.46010E-01   -0.46055E-01  6048   0.546E-01 0.348E-03
CGA:   5    -0.370789944387E+03   -0.10044E-01   -0.10057E-01  6048   0.143E-01 0.124E-03
CGA:   6    -0.370792948276E+03   -0.30039E-02   -0.30082E-02  6048   0.398E-02 0.659E-04
CGA:   7    -0.370793909977E+03   -0.96170E-03   -0.96267E-03  6048   0.138E-02 0.354E-04
CGA:   8    -0.370794307566E+03   -0.39759E-03   -0.39726E-03  6048   0.593E-03 0.163E-04
CGA:   9    -0.370794496537E+03   -0.18897E-03   -0.18914E-03  6048   0.233E-03-0.370E-05
CGA:  10    -0.370794565519E+03   -0.68983E-04   -0.68836E-04  6048   0.743E-04 0.515E-05
CGA:  11    -0.370794587338E+03   -0.21819E-04   -0.21732E-04  6048   0.239E-04 0.552E-05
CGA:  12    -0.370794596451E+03   -0.91130E-05   -0.90109E-05  6048   0.120E-04 0.128E-05
  34 F= -.37079460E+03 E0= -.37079460E+03  d E =-.291968E-02  mag=    20.0000
       N       E                     dE             d eps       ncg     rms          ort
SDA:   1    -0.370718006279E+03    0.76581E-01    0.00000E+00  6048   0.207E+00 0.000E+00
CGA:   2    -0.370775079370E+03   -0.57073E-01   -0.57075E-01  6048   0.929E-01 0.881E-04
CGA:   3    -0.370791363356E+03   -0.16284E-01   -0.16290E-01  6048   0.255E-01-0.843E-05
CGA:   4    -0.370795727011E+03   -0.43637E-02   -0.43633E-02  6048   0.473E-02-0.166E-04
CGA:   5    -0.370796622727E+03   -0.89572E-03   -0.89721E-03  6048   0.129E-02 0.163E-04
CGA:   6    -0.370796888540E+03   -0.26581E-03   -0.26648E-03  6048   0.371E-03 0.995E-05
CGA:   7    -0.370796989001E+03   -0.10046E-03   -0.10050E-03  6048   0.157E-03-0.105E-04
CGA:   8    -0.370797034369E+03   -0.45368E-04   -0.45471E-04  6048   0.747E-04-0.328E-05
CGA:   9    -0.370797055320E+03   -0.20951E-04   -0.20844E-04  6048   0.260E-04 0.588E-05
CGA:  10    -0.370797063849E+03   -0.85294E-05   -0.84637E-05  6048   0.990E-05 0.191E-05
  35 F= -.37079706E+03 E0= -.37079706E+03  d E =-.246740E-02  mag=    20.0000
       N       E                     dE             d eps       ncg     rms          ort
SDA:   1    -0.370783145871E+03    0.13909E-01    0.00000E+00  6048   0.382E-01 0.000E+00
CGA:   2    -0.370792481354E+03   -0.93355E-02   -0.93468E-02  6048   0.194E-01 0.302E-03
CGA:   3    -0.370795881160E+03   -0.33998E-02   -0.33930E-02  6048   0.503E-02-0.783E-04
CGA:   4    -0.370796801440E+03   -0.92028E-03   -0.90890E-03  6048   0.111E-02-0.127E-03
CGA:   5    -0.370797003987E+03   -0.20255E-03   -0.19937E-03  6048   0.294E-03-0.383E-04
CGA:   6    -0.370797062650E+03   -0.58662E-04   -0.58561E-04  6048   0.825E-04-0.188E-05
CGA:   7    -0.370797081233E+03   -0.18584E-04   -0.18790E-04  6048   0.268E-04 0.647E-05
CGA:   8    -0.370797090213E+03   -0.89792E-05   -0.90710E-05  6048   0.146E-04-0.167E-05
  36 F= -.37079709E+03 E0= -.37079709E+03  d E =-.263631E-04  mag=    20.0000
       N       E                     dE             d eps       ncg     rms          ort
SDA:   1    -0.370762814695E+03    0.34267E-01    0.00000E+00  6048   0.934E-01 0.000E+00
CGA:   2    -0.370787420203E+03   -0.24606E-01   -0.24612E-01  6048   0.455E-01 0.329E-03
CGA:   3    -0.370795471351E+03   -0.80511E-02   -0.80412E-02  6048   0.118E-01-0.128E-03
CGA:   4    -0.370797508560E+03   -0.20372E-02   -0.20276E-02  6048   0.217E-02-0.101E-03
CGA:   5    -0.370797919230E+03   -0.41067E-03   -0.41005E-03  6048   0.614E-03-0.878E-05
CGA:   6    -0.370798043218E+03   -0.12399E-03   -0.12407E-03  6048   0.173E-03 0.104E-05
CGA:   7    -0.370798088746E+03   -0.45527E-04   -0.45533E-04  6048   0.731E-04-0.417E-05
CGA:   8    -0.370798110544E+03   -0.21798E-04   -0.21938E-04  6048   0.372E-04-0.304E-05
CGA:   9    -0.370798122711E+03   -0.12167E-04   -0.12461E-04  6048   0.178E-04-0.344E-05
CGA:  10    -0.370798127794E+03   -0.50835E-05   -0.51123E-05  6048   0.651E-05-0.609E-06
  37 F= -.37079813E+03 E0= -.37079813E+03  d E =-.103758E-02  mag=    20.0000
       N       E                     dE             d eps       ncg     rms          ort
SDA:   1    -0.369645935432E+03    0.11522E+01    0.00000E+00  6048   0.312E+01 0.000E+00
CGA:   2    -0.370464176187E+03   -0.81824E+00   -0.81832E+00  6048   0.138E+01 0.576E-02
CGA:   3    -0.370718722167E+03   -0.25455E+00   -0.25457E+00  6048   0.390E+00-0.677E-03
CGA:   4    -0.370784108026E+03   -0.65386E-01   -0.65303E-01  6048   0.694E-01-0.105E-02
CGA:   5    -0.370797643053E+03   -0.13535E-01   -0.13522E-01  6048   0.198E-01-0.226E-03
CGA:   6    -0.370801682245E+03   -0.40392E-02   -0.40421E-02  6048   0.573E-02 0.419E-04
CGA:   7    -0.370803202101E+03   -0.15199E-02   -0.15193E-02  6048   0.244E-02 0.602E-04
CGA:   8    -0.370803962306E+03   -0.76021E-03   -0.76138E-03  6048   0.130E-02-0.231E-04
CGA:   9    -0.370804393601E+03   -0.43129E-03   -0.43549E-03  6048   0.598E-03-0.528E-04
CGA:  10    -0.370804574321E+03   -0.18072E-03   -0.18064E-03  6048   0.221E-03 0.120E-05
CGA:  11    -0.370804646521E+03   -0.72199E-04   -0.72025E-04  6048   0.940E-04 0.293E-05
CGA:  12    -0.370804686087E+03   -0.39566E-04   -0.41708E-04  6048   0.613E-04-0.126E-04
CGA:  13    -0.370804704777E+03   -0.18691E-04   -0.18520E-04  6048   0.240E-04 0.230E-05
CGA:  14    -0.370804712715E+03   -0.79375E-05   -0.78863E-05  6048   0.751E-05 0.140E-05
  38 F= -.37080471E+03 E0= -.37080471E+03  d E =-.658492E-02  mag=    20.0000
       N       E                     dE             d eps       ncg     rms          ort
SDA:   1    -0.369470955141E+03    0.13337E+01    0.00000E+00  6048   0.349E+01 0.000E+00
CGA:   2    -0.370455262943E+03   -0.98431E+00   -0.98436E+00  6048   0.144E+01 0.526E-02
CGA:   3    -0.370721081389E+03   -0.26582E+00   -0.26581E+00  6048   0.396E+00-0.112E-02
CGA:   4    -0.370786181400E+03   -0.65100E-01   -0.65015E-01  6048   0.721E-01-0.932E-03
CGA:   5    -0.370800600435E+03   -0.14419E-01   -0.14419E-01  6048   0.204E-01-0.154E-04
CGA:   6    -0.370804655899E+03   -0.40555E-02   -0.40694E-02  6048   0.588E-02 0.177E-03
CGA:   7    -0.370806242302E+03   -0.15864E-02   -0.15864E-02  6048   0.247E-02 0.185E-04
CGA:   8    -0.370807026116E+03   -0.78381E-03   -0.78925E-03  6048   0.138E-02-0.111E-03
CGA:   9    -0.370807443369E+03   -0.41725E-03   -0.41818E-03  6048   0.559E-03-0.209E-04
CGA:  10    -0.370807606021E+03   -0.16265E-03   -0.16200E-03  6048   0.189E-03 0.316E-04
CGA:  11    -0.370807673712E+03   -0.67692E-04   -0.67899E-04  6048   0.914E-04-0.318E-05
CGA:  12    -0.370807711161E+03   -0.37449E-04   -0.39420E-04  6048   0.607E-04-0.123E-04
CGA:  13    -0.370807733141E+03   -0.21980E-04   -0.24454E-04  6048   0.355E-04-0.138E-04
CGA:  14    -0.370807742039E+03   -0.88979E-05   -0.89292E-05  6048   0.109E-04-0.104E-05
  39 F= -.37080774E+03 E0= -.37080774E+03  d E =-.302932E-02  mag=    20.0000
       N       E                     dE             d eps       ncg     rms          ort
SDA:   1    -0.370251391183E+03    0.55634E+00    0.00000E+00  6048   0.148E+01 0.000E+00
CGA:   2    -0.370645621427E+03   -0.39423E+00   -0.39426E+00  6048   0.699E+00-0.418E-04
CGA:   3    -0.370767293014E+03   -0.12167E+00   -0.12166E+00  6048   0.184E+00-0.595E-03
CGA:   4    -0.370799219302E+03   -0.31926E-01   -0.31932E-01  6048   0.352E-01-0.239E-04
CGA:   5    -0.370805844169E+03   -0.66249E-02   -0.66503E-02  6048   0.968E-02 0.257E-03
CGA:   6    -0.370807847711E+03   -0.20035E-02   -0.20112E-02  6048   0.275E-02 0.101E-03
CGA:   7    -0.370808598269E+03   -0.75056E-03   -0.75022E-03  6048   0.117E-02-0.795E-04
CGA:   8    -0.370808921079E+03   -0.32281E-03   -0.32274E-03  6048   0.525E-03 0.622E-05
CGA:   9    -0.370809075588E+03   -0.15451E-03   -0.15372E-03  6048   0.190E-03 0.474E-04
CGA:  10    -0.370809142630E+03   -0.67042E-04   -0.67025E-04  6048   0.805E-04 0.190E-06
CGA:  11    -0.370809167534E+03   -0.24904E-04   -0.24733E-04  6048   0.326E-04 0.589E-05
CGA:  12    -0.370809179440E+03   -0.11906E-04   -0.11678E-04  6048   0.162E-04 0.416E-05
CGA:  13    -0.370809187411E+03   -0.79711E-05   -0.82621E-05  6048   0.111E-04-0.173E-05
  40 F= -.37080919E+03 E0= -.37080919E+03  d E =-.144537E-02  mag=    20.0000
       N       E                     dE             d eps       ncg     rms          ort
SDA:   1    -0.370301342100E+03    0.50784E+00    0.00000E+00  6048   0.127E+01 0.000E+00
CGA:   2    -0.370674002288E+03   -0.37266E+00   -0.37265E+00  6048   0.639E+00 0.365E-03
CGA:   3    -0.370775810304E+03   -0.10181E+00   -0.10183E+00  6048   0.145E+00-0.317E-03
CGA:   4    -0.370801203247E+03   -0.25393E-01   -0.25387E-01  6048   0.295E-01-0.108E-03
CGA:   5    -0.370806666745E+03   -0.54635E-02   -0.54594E-02  6048   0.776E-02-0.573E-04
CGA:   6    -0.370808308870E+03   -0.16421E-02   -0.16354E-02  6048   0.220E-02-0.115E-03
CGA:   7    -0.370808849353E+03   -0.54048E-03   -0.53945E-03  6048   0.798E-03-0.544E-04
CGA:   8    -0.370809057020E+03   -0.20767E-03   -0.20768E-03  6048   0.309E-03 0.471E-04
CGA:   9    -0.370809156076E+03   -0.99056E-04   -0.98388E-04  6048   0.114E-03 0.197E-04
CGA:  10    -0.370809201342E+03   -0.45266E-04   -0.53024E-04  6048   0.852E-04-0.465E-04
CGA:  11    -0.370809213801E+03   -0.12459E-04   -0.12323E-04  6048   0.336E-04-0.408E-05
CGA:  12    -0.370809220244E+03   -0.64426E-05   -0.66826E-05  6048   0.142E-04 0.359E-05
  41 F= -.37080922E+03 E0= -.37080922E+03  d E =-.328325E-04  mag=    20.0000
       N       E                     dE             d eps       ncg     rms          ort
SDA:   1    -0.370352878566E+03    0.45634E+00    0.00000E+00  6048   0.119E+01 0.000E+00
CGA:   2    -0.370688807314E+03   -0.33593E+00   -0.33589E+00  6048   0.515E+00 0.227E-02
CGA:   3    -0.370781268399E+03   -0.92461E-01   -0.92480E-01  6048   0.137E+00-0.158E-03
CGA:   4    -0.370804312386E+03   -0.23044E-01   -0.23005E-01  6048   0.252E-01-0.452E-03
CGA:   5    -0.370809337940E+03   -0.50256E-02   -0.50138E-02  6048   0.721E-02-0.197E-03
CGA:   6    -0.370810781997E+03   -0.14441E-02   -0.14436E-02  6048   0.205E-02-0.121E-04
CGA:   7    -0.370811309227E+03   -0.52723E-03   -0.52717E-03  6048   0.800E-03 0.609E-04
CGA:   8    -0.370811563476E+03   -0.25425E-03   -0.25523E-03  6048   0.432E-03-0.187E-04
CGA:   9    -0.370811710290E+03   -0.14681E-03   -0.15225E-03  6048   0.216E-03-0.536E-04
CGA:  10    -0.370811764354E+03   -0.54064E-04   -0.53962E-04  6048   0.694E-04 0.488E-05
CGA:  11    -0.370811786344E+03   -0.21990E-04   -0.21904E-04  6048   0.294E-04 0.197E-05
CGA:  12    -0.370811799164E+03   -0.12820E-04   -0.14637E-04  6048   0.260E-04-0.837E-05
CGA:  13    -0.370811804712E+03   -0.55478E-05   -0.55213E-05  6048   0.125E-04 0.136E-05
  42 F= -.37081180E+03 E0= -.37081180E+03  d E =-.258447E-02  mag=    20.0000
       N       E                     dE             d eps       ncg     rms          ort
SDA:   1    -0.369881994653E+03    0.92980E+00    0.00000E+00  6048   0.227E+01 0.000E+00
CGA:   2    -0.370603650334E+03   -0.72166E+00   -0.72155E+00  6048   0.917E+00 0.161E-02
CGA:   3    -0.370762742915E+03   -0.15909E+00   -0.15909E+00  6048   0.228E+00-0.693E-03
CGA:   4    -0.370800367212E+03   -0.37624E-01   -0.37596E-01  6048   0.433E-01-0.343E-03
CGA:   5    -0.370809062300E+03   -0.86951E-02   -0.87104E-02  6048   0.119E-01 0.208E-03
CGA:   6    -0.370811419109E+03   -0.23568E-02   -0.23680E-02  6048   0.329E-02 0.158E-03
CGA:   7    -0.370812298324E+03   -0.87921E-03   -0.87920E-03  6048   0.131E-02 0.119E-04
CGA:   8    -0.370812713070E+03   -0.41475E-03   -0.42013E-03  6048   0.734E-03-0.949E-04
CGA:   9    -0.370812923822E+03   -0.21075E-03   -0.21164E-03  6048   0.279E-03-0.199E-04
CGA:  10    -0.370812992607E+03   -0.68784E-04   -0.69270E-04  6048   0.808E-04 0.385E-04
CGA:  11    -0.370813018756E+03   -0.26150E-04   -0.25982E-04  6048   0.335E-04 0.112E-04
CGA:  12    -0.370813034725E+03   -0.15969E-04   -0.17118E-04  6048   0.281E-04-0.635E-05
CGA:  13    -0.370813043956E+03   -0.92304E-05   -0.10991E-04  6048   0.217E-04-0.861E-05
CGA:  14    -0.370813005535E+03    0.38420E-04   -0.20142E-04  6048   0.152E-03-0.557E-04
CGA:  15    -0.370813041213E+03   -0.35677E-04   -0.37370E-04  6048   0.187E-04 0.179E-04
CGA:  16    -0.370813050252E+03   -0.90397E-05   -0.87412E-05  6048   0.101E-04 0.363E-05
  43 F= -.37081305E+03 E0= -.37081305E+03  d E =-.124554E-02  mag=    20.0000
       N       E                     dE             d eps       ncg     rms          ort
SDA:   1    -0.370519231463E+03    0.29381E+00    0.00000E+00  6048   0.734E+00 0.000E+00
CGA:   2    -0.370742097191E+03   -0.22287E+00   -0.22286E+00  6048   0.324E+00-0.441E-03
CGA:   3    -0.370796249944E+03   -0.54153E-01   -0.54178E-01  6048   0.815E-01-0.661E-04
CGA:   4    -0.370810155256E+03   -0.13905E-01   -0.13940E-01  6048   0.156E-01 0.198E-03
CGA:   5    -0.370813122877E+03   -0.29676E-02   -0.29806E-02  6048   0.427E-02 0.989E-04
CGA:   6    -0.370814019547E+03   -0.89667E-03   -0.89372E-03  6048   0.124E-02-0.317E-04
CGA:   7    -0.370814351852E+03   -0.33230E-03   -0.33036E-03  6048   0.514E-03-0.566E-04
CGA:   8    -0.370814482205E+03   -0.13035E-03   -0.13132E-03  6048   0.209E-03 0.288E-04
CGA:   9    -0.370814542839E+03   -0.60634E-04   -0.61296E-04  6048   0.724E-04 0.309E-04
CGA:  10    -0.370814572797E+03   -0.29958E-04   -0.30720E-04  6048   0.408E-04-0.108E-04
CGA:  11    -0.370814583650E+03   -0.10852E-04   -0.10884E-04  6048   0.171E-04-0.284E-05
CGA:  12    -0.370814589226E+03   -0.55768E-05   -0.56609E-05  6048   0.917E-05-0.161E-05
  44 F= -.37081459E+03 E0= -.37081459E+03  d E =-.153897E-02  mag=    20.0000
       N       E                     dE             d eps       ncg     rms          ort
SDA:   1    -0.370710139479E+03    0.10444E+00    0.00000E+00  6048   0.258E+00 0.000E+00
CGA:   2    -0.370790443841E+03   -0.80304E-01   -0.80303E-01  6048   0.110E+00 0.165E-03
CGA:   3    -0.370808467669E+03   -0.18024E-01   -0.18054E-01  6048   0.283E-01 0.128E-03
CGA:   4    -0.370813383935E+03   -0.49163E-02   -0.49243E-02  6048   0.558E-02 0.550E-04
CGA:   5    -0.370814484669E+03   -0.11007E-02   -0.10857E-02  6048   0.160E-02-0.155E-03
CGA:   6    -0.370814841638E+03   -0.35697E-03   -0.34662E-03  6048   0.536E-03-0.161E-03
CGA:   7    -0.370814953838E+03   -0.11220E-03   -0.11243E-03  6048   0.170E-03 0.440E-05
CGA:   8    -0.370814985187E+03   -0.31349E-04   -0.35100E-04  6048   0.563E-04 0.483E-04
CGA:   9    -0.370815002854E+03   -0.17667E-04   -0.18096E-04  6048   0.256E-04 0.155E-04
CGA:  10    -0.370814998500E+03    0.43536E-05   -0.27789E-04  6048   0.146E-03-0.561E-04
CGA:  11    -0.370815020199E+03   -0.21699E-04   -0.24570E-04  6048   0.175E-04 0.208E-04
CGA:  12    -0.370815027335E+03   -0.71365E-05   -0.74106E-05  6048   0.728E-05-0.380E-05
  45 F= -.37081503E+03 E0= -.37081503E+03  d E =-.438109E-03  mag=    20.0000
       N       E                     dE             d eps       ncg     rms          ort
SDA:   1    -0.370733671350E+03    0.81349E-01    0.00000E+00  6048   0.197E+00 0.000E+00
CGA:   2    -0.370798401799E+03   -0.64730E-01   -0.64724E-01  6048   0.782E-01 0.169E-03
CGA:   3    -0.370811667937E+03   -0.13266E-01   -0.13269E-01  6048   0.191E-01-0.371E-04
CGA:   4    -0.370814843970E+03   -0.31760E-02   -0.31766E-02  6048   0.376E-02-0.438E-05
CGA:   5    -0.370815599047E+03   -0.75508E-03   -0.75575E-03  6048   0.104E-02 0.617E-05
CGA:   6    -0.370815810406E+03   -0.21136E-03   -0.21007E-03  6048   0.297E-03-0.159E-04
CGA:   7    -0.370815884921E+03   -0.74515E-04   -0.74610E-04  6048   0.111E-03 0.328E-05
CGA:   8    -0.370815918339E+03   -0.33418E-04   -0.33414E-04  6048   0.534E-04 0.169E-06
CGA:   9    -0.370815937607E+03   -0.19268E-04   -0.20287E-04  6048   0.294E-04-0.106E-04
CGA:  10    -0.370815942544E+03   -0.49375E-05   -0.52221E-05  6048   0.858E-05 0.432E-05
  46 F= -.37081594E+03 E0= -.37081594E+03  d E =-.915209E-03  mag=    20.0000
       N       E                     dE             d eps       ncg     rms          ort
SDA:   1    -0.370372291483E+03    0.44365E+00    0.00000E+00  6048   0.106E+01 0.000E+00
CGA:   2    -0.370727545135E+03   -0.35525E+00   -0.35529E+00  6048   0.412E+00-0.902E-03
CGA:   3    -0.370794911889E+03   -0.67367E-01   -0.67411E-01  6048   0.982E-01 0.941E-04
CGA:   4    -0.370811742501E+03   -0.16831E-01   -0.16876E-01  6048   0.198E-01 0.400E-03
CGA:   5    -0.370815647762E+03   -0.39053E-02   -0.39284E-02  6048   0.536E-02 0.301E-03
CGA:   6    -0.370816757829E+03   -0.11101E-02   -0.11107E-02  6048   0.152E-02 0.680E-05
CGA:   7    -0.370817169897E+03   -0.41207E-03   -0.41244E-03  6048   0.629E-03-0.612E-04
CGA:   8    -0.370817344140E+03   -0.17424E-03   -0.17437E-03  6048   0.279E-03-0.572E-05
CGA:   9    -0.370817422888E+03   -0.78748E-04   -0.78445E-04  6048   0.906E-04 0.177E-04
CGA:  10    -0.370817446586E+03   -0.23698E-04   -0.24029E-04  6048   0.253E-04 0.182E-04
CGA:  11    -0.370817455609E+03   -0.90228E-05   -0.89547E-05  6048   0.104E-04 0.240E-05
CGA:  12    -0.370817447173E+03    0.84360E-05   -0.13318E-04  6048   0.803E-04-0.240E-04
CGA:  13    -0.370817461008E+03   -0.13835E-04   -0.15562E-04  6048   0.984E-05 0.144E-04
CGA:  14    -0.370817450905E+03    0.10103E-04   -0.13471E-04  6048   0.731E-04-0.276E-04
CGA:  15    -0.370817463384E+03   -0.12479E-04   -0.15451E-04  6048   0.901E-05 0.214E-04
CGA:  16    -0.370817344344E+03    0.11904E-03   -0.64304E-04  6048   0.419E-03-0.769E-04
CGA:  17    -0.370817429451E+03   -0.85107E-04   -0.11321E-03  6048   0.330E-04 0.789E-04
CGA:  18    -0.370817509340E+03   -0.79889E-04    0.17698E-04  6048   0.426E-04-0.335E-04
CGA:  19    -0.370817494541E+03    0.14800E-04   -0.25268E-05  6048   0.231E-04 0.316E-04
CGA:  20    -0.370817486098E+03    0.84424E-05   -0.12458E-05  6048   0.144E-04 0.184E-04
  47 F= -.37081749E+03 E0= -.37081749E+03  d E =-.154355E-02  mag=    20.0000
       N       E                     dE             d eps       ncg     rms          ort
SDA:   1    -0.368643405853E+03    0.21741E+01    0.00000E+00  6048   0.518E+01 0.000E+00
CGA:   2    -0.370337233025E+03   -0.16938E+01   -0.16940E+01  6048   0.232E+01-0.146E-02
CGA:   3    -0.370699958889E+03   -0.36273E+00   -0.36308E+00  6048   0.504E+00 0.429E-02
CGA:   4    -0.370788991410E+03   -0.89033E-01   -0.89229E-01  6048   0.105E+00 0.676E-03
CGA:   5    -0.370809113362E+03   -0.20122E-01   -0.20216E-01  6048   0.287E-01 0.275E-03
CGA:   6    -0.370815019749E+03   -0.59064E-02   -0.58872E-02  6048   0.779E-02-0.832E-04
CGA:   7    -0.370817015279E+03   -0.19955E-02   -0.19791E-02  6048   0.296E-02-0.841E-04
CGA:   8    -0.370817840724E+03   -0.82545E-03   -0.83210E-03  6048   0.126E-02 0.399E-04
CGA:   9    -0.370818233312E+03   -0.39259E-03   -0.39408E-03  6048   0.456E-03 0.111E-04
CGA:  10    -0.370818371842E+03   -0.13853E-03   -0.13816E-03  6048   0.135E-03-0.292E-05
CGA:  11    -0.370818412235E+03   -0.40392E-04   -0.40284E-04  6048   0.417E-04-0.897E-06
CGA:  12    -0.370818431155E+03   -0.18921E-04   -0.19789E-04  6048   0.341E-04-0.147E-04
CGA:  13    -0.370818435733E+03   -0.45779E-05   -0.55596E-05  6048   0.173E-04 0.577E-05
  48 F= -.37081844E+03 E0= -.37081844E+03  d E =-.949635E-03  mag=    20.0000
       N       E                     dE             d eps       ncg     rms          ort
SDA:   1    -0.359953652291E+03    0.10865E+02    0.00000E+00  6048   0.274E+02 0.000E+00
CGA:   2    -0.367198590240E+03   -0.72449E+01   -0.72685E+01  6048   0.122E+02 0.102E-01
CGA:   3    -0.369327334802E+03   -0.21287E+01   -0.21323E+01  6048   0.391E+01 0.296E-01
CGA:   4    -0.370089158516E+03   -0.76182E+00   -0.76260E+00  6048   0.895E+00 0.343E-02
CGA:   5    -0.370255695954E+03   -0.16654E+00   -0.16632E+00  6048   0.262E+00-0.330E-02
CGA:   6    -0.370317184175E+03   -0.61488E-01   -0.61159E-01  6048   0.101E+00-0.282E-02
CGA:   7    -0.370343412954E+03   -0.26229E-01   -0.26268E-01  6048   0.390E-01 0.339E-03
CGA:   8    -0.370353689279E+03   -0.10276E-01   -0.10406E-01  6048   0.140E-01 0.142E-02
CGA:   9    -0.370357939138E+03   -0.42499E-02   -0.42477E-02  6048   0.436E-02-0.429E-04
CGA:  10    -0.370359369211E+03   -0.14301E-02   -0.14163E-02  6048   0.162E-02-0.590E-03
CGA:  11    -0.370359805741E+03   -0.43653E-03   -0.43028E-03  6048   0.498E-03-0.151E-03
CGA:  12    -0.370359970432E+03   -0.16469E-03   -0.16597E-03  6048   0.220E-03-0.600E-04
CGA:  13    -0.370360001108E+03   -0.30676E-04   -0.41305E-04  6048   0.865E-04 0.796E-04
CGA:  14    -0.370360009816E+03   -0.87088E-05   -0.18873E-04  6048   0.388E-04 0.564E-04
CGA:  15    -0.370360022480E+03   -0.12664E-04   -0.12719E-04  6048   0.178E-04 0.171E-04
CGA:  16    -0.370360023669E+03   -0.11890E-05   -0.43546E-05  6048   0.126E-04 0.197E-04
  49 F= -.37036002E+03 E0= -.37036002E+03  d E =0.458412E+00  mag=    20.0000
       N       E                     dE             d eps       ncg     rms          ort
SDA:   1    -0.369787691225E+03    0.57233E+00    0.00000E+00  6048   0.207E+01 0.000E+00
CGA:   2    -0.370438140723E+03   -0.65045E+00   -0.65042E+00  6048   0.585E+00-0.511E-02
CGA:   3    -0.370581706874E+03   -0.14357E+00   -0.14346E+00  6048   0.195E+00-0.204E-02
CGA:   4    -0.370612950412E+03   -0.31244E-01   -0.31345E-01  6048   0.471E-01 0.633E-03
CGA:   5    -0.370622697009E+03   -0.97466E-02   -0.99138E-02  6048   0.134E-01 0.172E-02
CGA:   6    -0.370625884181E+03   -0.31872E-02   -0.32360E-02  6048   0.584E-02 0.702E-03
CGA:   7    -0.370627620025E+03   -0.17358E-02   -0.17301E-02  6048   0.247E-02-0.325E-03
CGA:   8    -0.370628350648E+03   -0.73062E-03   -0.73487E-03  6048   0.105E-02-0.253E-03
CGA:   9    -0.370628543747E+03   -0.19310E-03   -0.20240E-03  6048   0.251E-03 0.110E-03
CGA:  10    -0.370628589693E+03   -0.45946E-04   -0.54159E-04  6048   0.810E-04 0.825E-04
CGA:  11    -0.370628603106E+03   -0.13413E-04   -0.18373E-04  6048   0.301E-04 0.416E-04
CGA:  12    -0.370628610887E+03   -0.77806E-05   -0.80043E-05  6048   0.118E-04 0.122E-04
  50 F= -.37062861E+03 E0= -.37062861E+03  d E =-.268587E+00  mag=    20.0000
       N       E                     dE             d eps       ncg     rms          ort
SDA:   1    -0.370354101198E+03    0.27450E+00    0.00000E+00  6048   0.947E+00 0.000E+00
CGA:   2    -0.370650387428E+03   -0.29629E+00   -0.29638E+00  6048   0.263E+00-0.343E-02
CGA:   3    -0.370714451363E+03   -0.64064E-01   -0.64014E-01  6048   0.938E-01-0.132E-02
CGA:   4    -0.370729168594E+03   -0.14717E-01   -0.14786E-01  6048   0.208E-01 0.502E-03
CGA:   5    -0.370733388217E+03   -0.42196E-02   -0.43182E-02  6048   0.588E-02 0.133E-02
CGA:   6    -0.370734759368E+03   -0.13712E-02   -0.14017E-02  6048   0.245E-02 0.582E-03
CGA:   7    -0.370735574074E+03   -0.81471E-03   -0.82190E-03  6048   0.121E-02-0.227E-03
CGA:   8    -0.370735917413E+03   -0.34334E-03   -0.35113E-03  6048   0.540E-03-0.176E-03
CGA:   9    -0.370736002642E+03   -0.85229E-04   -0.91240E-04  6048   0.142E-03 0.750E-04
CGA:  10    -0.370736022499E+03   -0.19857E-04   -0.26372E-04  6048   0.546E-04 0.592E-04
CGA:  11    -0.370736029227E+03   -0.67281E-05   -0.11142E-04  6048   0.235E-04 0.355E-04
  51 F= -.37073603E+03 E0= -.37073603E+03  d E =-.107418E+00  mag=    20.0000
       N       E                     dE             d eps       ncg     rms          ort
SDA:   1    -0.370248992344E+03    0.48703E+00    0.00000E+00  6048   0.139E+01 0.000E+00
CGA:   2    -0.370679497125E+03   -0.43050E+00   -0.43080E+00  6048   0.381E+00-0.579E-02
CGA:   3    -0.370770393922E+03   -0.90897E-01   -0.90868E-01  6048   0.147E+00-0.152E-02
CGA:   4    -0.370793404807E+03   -0.23011E-01   -0.23095E-01  6048   0.296E-01 0.745E-03
CGA:   5    -0.370799439146E+03   -0.60343E-02   -0.61298E-02  6048   0.867E-02 0.186E-02
CGA:   6    -0.370801445751E+03   -0.20066E-02   -0.20357E-02  6048   0.342E-02 0.849E-03
CGA:   7    -0.370802591489E+03   -0.11457E-02   -0.11624E-02  6048   0.174E-02-0.296E-03
CGA:   8    -0.370803074704E+03   -0.48321E-03   -0.49681E-03  6048   0.767E-03-0.238E-03
CGA:   9    -0.370803204404E+03   -0.12970E-03   -0.13488E-03  6048   0.195E-03 0.939E-04
CGA:  10    -0.370803234922E+03   -0.30519E-04   -0.37157E-04  6048   0.723E-04 0.768E-04
CGA:  11    -0.370803244551E+03   -0.96290E-05   -0.14618E-04  6048   0.306E-04 0.467E-04
  52 F= -.37080324E+03 E0= -.37080324E+03  d E =-.672153E-01  mag=    20.0000
       N       E                     dE             d eps       ncg     rms          ort
SDA:   1    -0.370726985784E+03    0.76249E-01    0.00000E+00  6048   0.225E+00 0.000E+00
CGA:   2    -0.370795558461E+03   -0.68573E-01   -0.68695E-01  6048   0.652E-01-0.204E-02
CGA:   3    -0.370809729730E+03   -0.14171E-01   -0.14159E-01  6048   0.274E-01-0.467E-03
CGA:   4    -0.370814124886E+03   -0.43952E-02   -0.44241E-02  6048   0.482E-02 0.327E-03
CGA:   5    -0.370814977665E+03   -0.85278E-03   -0.89534E-03  6048   0.136E-02 0.712E-03
CGA:   6    -0.370815251129E+03   -0.27346E-03   -0.29417E-03  6048   0.478E-03 0.396E-03
CGA:   7    -0.370815438037E+03   -0.18691E-03   -0.18595E-03  6048   0.289E-03 0.150E-04
CGA:   8    -0.370815531466E+03   -0.93430E-04   -0.12237E-03  6048   0.296E-03-0.170E-03
CGA:   9    -0.370815562610E+03   -0.31144E-04   -0.40191E-04  6048   0.505E-04 0.797E-04
CGA:  10    -0.370815568036E+03   -0.54261E-05   -0.87517E-05  6048   0.218E-04 0.310E-04
CGA:  11    -0.370815577169E+03   -0.91323E-05   -0.11463E-04  6048   0.232E-04-0.811E-05
  53 F= -.37081558E+03 E0= -.37081558E+03  d E =-.123326E-01  mag=    20.0000
       N       E                     dE             d eps       ncg     rms          ort
SDA:   1    -0.370705686850E+03    0.10988E+00    0.00000E+00  6048   0.297E+00 0.000E+00
CGA:   2    -0.370792881006E+03   -0.87194E-01   -0.87305E-01  6048   0.101E+00-0.218E-02
CGA:   3    -0.370811773719E+03   -0.18893E-01   -0.18871E-01  6048   0.404E-01-0.443E-03
CGA:   4    -0.370818954322E+03   -0.71806E-02   -0.72053E-02  6048   0.773E-02 0.365E-03
CGA:   5    -0.370820265978E+03   -0.13117E-02   -0.13618E-02  6048   0.212E-02 0.764E-03
CGA:   6    -0.370820694499E+03   -0.42852E-03   -0.45026E-03  6048   0.696E-03 0.505E-03
CGA:   7    -0.370820937669E+03   -0.24317E-03   -0.24102E-03  6048   0.378E-03 0.476E-04
CGA:   8    -0.370821068483E+03   -0.13081E-03   -0.16316E-03  6048   0.374E-03-0.194E-03
CGA:   9    -0.370821113102E+03   -0.44619E-04   -0.53029E-04  6048   0.567E-04 0.813E-04
CGA:  10    -0.370821120667E+03   -0.75650E-05   -0.10397E-04  6048   0.223E-04 0.317E-04
CGA:  11    -0.370821129918E+03   -0.92515E-05   -0.10988E-04  6048   0.228E-04-0.677E-05
  54 F= -.37082113E+03 E0= -.37082113E+03  d E =-.555275E-02  mag=    20.0000
       N       E                     dE             d eps       ncg     rms          ort
SDA:   1    -0.370820463489E+03    0.65718E-03    0.00000E+00  6048   0.283E-02 0.000E+00
CGA:   2    -0.370820986213E+03   -0.52272E-03   -0.52058E-03  6048   0.149E-02-0.413E-04
CGA:   3    -0.370821257738E+03   -0.27153E-03   -0.27427E-03  6048   0.448E-03 0.539E-04
CGA:   4    -0.370821322498E+03   -0.64760E-04   -0.69993E-04  6048   0.871E-04 0.624E-04
CGA:   5    -0.370821336596E+03   -0.14098E-04   -0.15670E-04  6048   0.221E-04 0.218E-04
CGA:   6    -0.370821344015E+03   -0.74198E-05   -0.76701E-05  6048   0.139E-04-0.493E-05
  55 F= -.37082134E+03 E0= -.37082134E+03  d E =-.214097E-03  mag=    20.0000
       N       E                     dE             d eps       ncg     rms          ort
SDA:   1    -0.370801299185E+03    0.20037E-01    0.00000E+00  6048   0.707E-01 0.000E+00
CGA:   2    -0.370813158819E+03   -0.11860E-01   -0.11852E-01  6048   0.309E-01-0.193E-03
CGA:   3    -0.370819814591E+03   -0.66558E-02   -0.66575E-02  6048   0.105E-01 0.795E-04
CGA:   4    -0.370821613792E+03   -0.17992E-02   -0.18165E-02  6048   0.223E-02 0.285E-03
CGA:   5    -0.370821994917E+03   -0.38112E-03   -0.39164E-03  6048   0.518E-03 0.177E-03
CGA:   6    -0.370822104978E+03   -0.11006E-03   -0.11165E-03  6048   0.148E-03 0.585E-04
CGA:   7    -0.370822146655E+03   -0.41677E-04   -0.41672E-04  6048   0.555E-04 0.435E-07
CGA:   8    -0.370822162266E+03   -0.15610E-04   -0.15888E-04  6048   0.242E-04-0.472E-05
CGA:   9    -0.370822166988E+03   -0.47223E-05   -0.47844E-05  6048   0.715E-05 0.454E-05
  56 F= -.37082217E+03 E0= -.37082217E+03  d E =-.822973E-03  mag=    20.0000
       N       E                     dE             d eps       ncg     rms          ort
SDA:   1    -0.370813814467E+03    0.83478E-02    0.00000E+00  6048   0.316E-01 0.000E+00
CGA:   2    -0.370818761803E+03   -0.49473E-02   -0.49450E-02  6048   0.125E-01-0.731E-04
CGA:   3    -0.370821540269E+03   -0.27785E-02   -0.27781E-02  6048   0.477E-02 0.133E-03
CGA:   4    -0.370822352348E+03   -0.81208E-03   -0.82260E-03  6048   0.964E-03 0.207E-03
CGA:   5    -0.370822518611E+03   -0.16626E-03   -0.17016E-03  6048   0.224E-03 0.790E-04
CGA:   6    -0.370822575477E+03   -0.56866E-04   -0.57088E-04  6048   0.798E-04-0.116E-04
CGA:   7    -0.370822594803E+03   -0.19325E-04   -0.19867E-04  6048   0.314E-04-0.120E-04
CGA:   8    -0.370822598800E+03   -0.39976E-05   -0.44141E-05  6048   0.931E-05 0.770E-05
  57 F= -.37082260E+03 E0= -.37082260E+03  d E =-.431812E-03  mag=    20.0000
       N       E                     dE             d eps       ncg     rms          ort
SDA:   1    -0.370401902392E+03    0.42069E+00    0.00000E+00  6048   0.149E+01 0.000E+00
CGA:   2    -0.370634619894E+03   -0.23272E+00   -0.23299E+00  6048   0.593E+00 0.252E-02
CGA:   3    -0.370769099722E+03   -0.13448E+00   -0.13446E+00  6048   0.232E+00 0.592E-03
CGA:   4    -0.370809831477E+03   -0.40732E-01   -0.40749E-01  6048   0.485E-01 0.412E-03
CGA:   5    -0.370818290610E+03   -0.84591E-02   -0.84754E-02  6048   0.115E-01 0.463E-03
CGA:   6    -0.370820750162E+03   -0.24596E-02   -0.24592E-02  6048   0.336E-02 0.560E-04
CGA:   7    -0.370821540951E+03   -0.79079E-03   -0.79186E-03  6048   0.101E-02-0.415E-04
CGA:   8    -0.370821784480E+03   -0.24353E-03   -0.24208E-03  6048   0.318E-03 0.420E-04
CGA:   9    -0.370821873857E+03   -0.89377E-04   -0.87442E-04  6048   0.971E-04 0.354E-04
CGA:  10    -0.370821904488E+03   -0.30631E-04   -0.29804E-04  6048   0.334E-04 0.129E-04
CGA:  11    -0.370821916451E+03   -0.11963E-04   -0.11626E-04  6048   0.124E-04 0.367E-05
CGA:  12    -0.370821920115E+03   -0.36638E-05   -0.35458E-05  6048   0.387E-05 0.309E-05
  58 F= -.37082192E+03 E0= -.37082192E+03  d E =0.678685E-03  mag=    20.0000
       N       E                     dE             d eps       ncg     rms          ort
SDA:   1    -0.370800881541E+03    0.21035E-01    0.00000E+00  6048   0.708E-01 0.000E+00
CGA:   2    -0.370813012782E+03   -0.12131E-01   -0.12147E-01  6048   0.322E-01 0.249E-03
CGA:   3    -0.370820048640E+03   -0.70359E-02   -0.70359E-02  6048   0.117E-01-0.182E-04
CGA:   4    -0.370822150325E+03   -0.21017E-02   -0.20946E-02  6048   0.257E-02-0.194E-03
CGA:   5    -0.370822619326E+03   -0.46900E-03   -0.46654E-03  6048   0.698E-03-0.848E-04
CGA:   6    -0.370822758037E+03   -0.13871E-03   -0.13882E-03  6048   0.198E-03 0.158E-04
CGA:   7    -0.370822803456E+03   -0.45419E-04   -0.45227E-04  6048   0.609E-04 0.166E-04
CGA:   8    -0.370822821813E+03   -0.18357E-04   -0.18491E-04  6048   0.252E-04-0.202E-05
CGA:   9    -0.370822829478E+03   -0.76654E-05   -0.81380E-05  6048   0.117E-04-0.401E-05
  59 F= -.37082283E+03 E0= -.37082283E+03  d E =-.909363E-03  mag=    20.0000
       N       E                     dE             d eps       ncg     rms          ort
SDA:   1    -0.370805141358E+03    0.17680E-01    0.00000E+00  6048   0.620E-01 0.000E+00
CGA:   2    -0.370815251459E+03   -0.10110E-01   -0.10134E-01  6048   0.263E-01 0.300E-03
CGA:   3    -0.370821054557E+03   -0.58031E-02   -0.58032E-02  6048   0.960E-02 0.205E-04
CGA:   4    -0.370822789554E+03   -0.17350E-02   -0.17243E-02  6048   0.218E-02-0.248E-03
CGA:   5    -0.370823188495E+03   -0.39894E-03   -0.39405E-03  6048   0.590E-03-0.138E-03
CGA:   6    -0.370823300868E+03   -0.11237E-03   -0.11236E-03  6048   0.160E-03-0.136E-05
CGA:   7    -0.370823333314E+03   -0.32447E-04   -0.32717E-04  6048   0.414E-04 0.189E-04
CGA:   8    -0.370823344613E+03   -0.11298E-04   -0.11190E-04  6048   0.144E-04 0.454E-05
CGA:   9    -0.370823349775E+03   -0.51623E-05   -0.54305E-05  6048   0.786E-05-0.222E-05
  60 F= -.37082335E+03 E0= -.37082335E+03  d E =-.520297E-03  mag=    20.0000
       N       E                     dE             d eps       ncg     rms          ort
SDA:   1    -0.370820095212E+03    0.32494E-02    0.00000E+00  6048   0.892E-02 0.000E+00
CGA:   2    -0.370822239868E+03   -0.21447E-02   -0.21440E-02  6048   0.522E-02 0.115E-03
CGA:   3    -0.370823159222E+03   -0.91935E-03   -0.91801E-03  6048   0.119E-02-0.249E-04
CGA:   4    -0.370823375994E+03   -0.21677E-03   -0.21232E-03  6048   0.293E-03-0.844E-04
CGA:   5    -0.370823431745E+03   -0.55751E-04   -0.54148E-04  6048   0.996E-04-0.527E-04
CGA:   6    -0.370823447663E+03   -0.15918E-04   -0.15822E-04  6048   0.234E-04-0.282E-05
CGA:   7    -0.370823450475E+03   -0.28125E-05   -0.34054E-05  6048   0.667E-05 0.775E-05
  61 F= -.37082345E+03 E0= -.37082345E+03  d E =-.100700E-03  mag=    20.0000
       N       E                     dE             d eps       ncg     rms          ort
SDA:   1    -0.352888735177E+03    0.17935E+02    0.00000E+00  6048   0.500E+02 0.000E+00
CGA:   2    -0.363953021035E+03   -0.11064E+02   -0.11063E+02  6048   0.285E+02 0.240E+00
CGA:   3    -0.369235086985E+03   -0.52821E+01   -0.52856E+01  6048   0.668E+01 0.430E-01
CGA:   4    -0.370375763417E+03   -0.11407E+01   -0.11397E+01  6048   0.140E+01-0.208E-01
CGA:   5    -0.370632057549E+03   -0.25629E+00   -0.25619E+00  6048   0.374E+00-0.444E-02
CGA:   6    -0.370711664873E+03   -0.79607E-01   -0.79605E-01  6048   0.109E+00 0.216E-02
CGA:   7    -0.370737866592E+03   -0.26202E-01   -0.26178E-01  6048   0.368E-01 0.844E-03
CGA:   8    -0.370748343931E+03   -0.10477E-01   -0.10475E-01  6048   0.151E-01 0.151E-04
CGA:   9    -0.370752927246E+03   -0.45833E-02   -0.46189E-02  6048   0.557E-02-0.408E-03
CGA:  10    -0.370754611649E+03   -0.16844E-02   -0.17221E-02  6048   0.193E-02-0.396E-03
CGA:  11    -0.370755070512E+03   -0.45886E-03   -0.45282E-03  6048   0.524E-03 0.237E-03
CGA:  12    -0.370755237291E+03   -0.16678E-03   -0.16257E-03  6048   0.201E-03 0.868E-04
CGA:  13    -0.370755321610E+03   -0.84319E-04   -0.82130E-04  6048   0.113E-03 0.181E-04
CGA:  14    -0.370755345641E+03   -0.24031E-04   -0.25682E-04  6048   0.577E-04 0.608E-04
CGA:  15    -0.370755361099E+03   -0.15459E-04   -0.14891E-04  6048   0.207E-04 0.244E-04
CGA:  16    -0.370755374723E+03   -0.13623E-04   -0.12549E-04  6048   0.140E-04 0.562E-05
CGA:  17    -0.370755383334E+03   -0.86110E-05   -0.90425E-05  6048   0.116E-04-0.167E-05
  62 F= -.37075538E+03 E0= -.37075538E+03  d E =0.680671E-01  mag=    20.0000
       N       E                     dE             d eps       ncg     rms          ort
SDA:   1    -0.360086167747E+03    0.10669E+02    0.00000E+00  6048   0.307E+02 0.000E+00
CGA:   2    -0.366582141993E+03   -0.64960E+01   -0.65044E+01  6048   0.173E+02 0.806E-01
CGA:   3    -0.369863919012E+03   -0.32818E+01   -0.32851E+01  6048   0.421E+01 0.311E-01
CGA:   4    -0.370579664883E+03   -0.71575E+00   -0.71594E+00  6048   0.886E+00 0.288E-02
CGA:   5    -0.370741871671E+03   -0.16221E+00   -0.16242E+00  6048   0.233E+00 0.269E-02
CGA:   6    -0.370791692526E+03   -0.49821E-01   -0.49853E-01  6048   0.686E-01 0.106E-02
CGA:   7    -0.370808158230E+03   -0.16466E-01   -0.16466E-01  6048   0.230E-01-0.492E-05
CGA:   8    -0.370814339307E+03   -0.61811E-02   -0.61644E-02  6048   0.869E-02 0.550E-03
CGA:   9    -0.370816944946E+03   -0.26056E-02   -0.25904E-02  6048   0.297E-02 0.293E-03
CGA:  10    -0.370817881816E+03   -0.93687E-03   -0.93664E-03  6048   0.102E-02 0.276E-05
CGA:  11    -0.370818166569E+03   -0.28475E-03   -0.28196E-03  6048   0.300E-03 0.934E-04
CGA:  12    -0.370818287368E+03   -0.12080E-03   -0.12933E-03  6048   0.170E-03-0.577E-04
CGA:  13    -0.370818324887E+03   -0.37519E-04   -0.37064E-04  6048   0.742E-04 0.304E-04
CGA:  14    -0.370818342598E+03   -0.17711E-04   -0.18890E-04  6048   0.317E-04 0.299E-04
CGA:  15    -0.370818356949E+03   -0.14351E-04   -0.14151E-04  6048   0.166E-04 0.307E-05
CGA:  16    -0.370818368294E+03   -0.11345E-04    0.10913E-04  6048   0.877E-05 0.502E-05
CGA:  17    -0.370818375155E+03   -0.68611E-05    0.86447E-05  6048   0.362E-05 0.194E-05
  63 F= -.37081838E+03 E0= -.37081838E+03  d E =-.629918E-01  mag=    20.0000
       N       E                     dE             d eps       ncg     rms          ort
SDA:   1    -0.365476241527E+03    0.53421E+01    0.00000E+00  6048   0.161E+02 0.000E+00
CGA:   2    -0.368517969582E+03   -0.30417E+01   -0.30479E+01  6048   0.812E+01 0.300E-01
CGA:   3    -0.370162531342E+03   -0.16446E+01   -0.16455E+01  6048   0.241E+01 0.814E-02
CGA:   4    -0.370580750141E+03   -0.41822E+00   -0.41817E+00  6048   0.514E+00-0.111E-02
CGA:   5    -0.370674138061E+03   -0.93388E-01   -0.93463E-01  6048   0.135E+00 0.801E-03
[...]
CGA:   9    -0.370810099048E+03   -0.54719E-03   -0.54865E-03  6048   0.722E-03-0.172E-04
CGA:  10    -0.370810324008E+03   -0.22496E-03   -0.22511E-03  6048   0.262E-03-0.247E-05
CGA:  11    -0.370810411770E+03   -0.87762E-04   -0.88791E-04  6048   0.119E-03-0.114E-04
CGA:  12    -0.370810453445E+03   -0.41675E-04   -0.40857E-04  6048   0.566E-04 0.771E-05
CGA:  13    -0.370810478743E+03   -0.25298E-04   -0.25561E-04  6048   0.313E-04-0.166E-05
CGA:  14    -0.370810491262E+03   -0.12519E-04   -0.17211E-04  6048   0.244E-04-0.157E-04
CGA:  15    -0.370810496387E+03   -0.51251E-05   -0.53753E-05  6048   0.264E-05 0.406E-05
  68 F= -.37081050E+03 E0= -.37081050E+03  d E =0.114547E-01  mag=    20.0000
       N       E                     dE             d eps       ncg     rms          ort
SDA:   1    -0.370677711413E+03    0.13278E+00    0.00000E+00  6048   0.345E+00 0.000E+00
CGA:   2    -0.370772178142E+03   -0.94467E-01   -0.94467E-01  6048   0.177E+00-0.256E-03
CGA:   3    -0.370802124838E+03   -0.29947E-01   -0.29957E-01  6048   0.456E-01-0.375E-04
CGA:   4    -0.370810317385E+03   -0.81925E-02   -0.82088E-02  6048   0.100E-01 0.156E-03
CGA:   5    -0.370812214813E+03   -0.18974E-02   -0.19137E-02  6048   0.288E-02 0.204E-03
CGA:   6    -0.370812827790E+03   -0.61298E-03   -0.61972E-03  6048   0.918E-03 0.124E-03
CGA:   7    -0.370813092165E+03   -0.26438E-03   -0.26455E-03  6048   0.395E-03-0.128E-04
CGA:   8    -0.370813207982E+03   -0.11582E-03   -0.11723E-03  6048   0.183E-03-0.374E-04
CGA:   9    -0.370813249414E+03   -0.41431E-04   -0.41638E-04  6048   0.510E-04 0.153E-04
CGA:  10    -0.370813259135E+03   -0.97213E-05   -0.10900E-04  6048   0.170E-04 0.177E-04
  69 F= -.37081326E+03 E0= -.37081326E+03  d E =-.276275E-02  mag=    20.0000
       N       E                     dE             d eps       ncg     rms          ort
SDA:   1    -0.370707198769E+03    0.10605E+00    0.00000E+00  6048   0.261E+00 0.000E+00
CGA:   2    -0.370785618558E+03   -0.78420E-01   -0.78389E-01  6048   0.131E+00 0.571E-03
CGA:   3    -0.370806633068E+03   -0.21015E-01   -0.21015E-01  6048   0.289E-01-0.977E-04
CGA:   4    -0.370811689733E+03   -0.50567E-02   -0.50330E-02  6048   0.588E-02-0.307E-03
CGA:   5    -0.370812841019E+03   -0.11513E-02   -0.11410E-02  6048   0.173E-02-0.191E-03
CGA:   6    -0.370813180330E+03   -0.33931E-03   -0.33880E-03  6048   0.461E-03-0.121E-04
CGA:   7    -0.370813284391E+03   -0.10406E-03   -0.10466E-03  6048   0.152E-03 0.355E-04
CGA:   8    -0.370813331597E+03   -0.47206E-04   -0.46831E-04  6048   0.703E-04 0.885E-05
CGA:   9    -0.370813358902E+03   -0.27305E-04   -0.30698E-04  6048   0.511E-04-0.204E-04
CGA:  10    -0.370813369038E+03   -0.10135E-04   -0.16339E-04  6048   0.428E-04-0.317E-04
CGA:  11    -0.370813374773E+03   -0.57354E-05   -0.69599E-05  6048   0.877E-05 0.120E-04
  70 F= -.37081337E+03 E0= -.37081337E+03  d E =-.115638E-03  mag=    20.0000
       N       E                     dE             d eps       ncg     rms          ort
SDA:   1    -0.370379568559E+03    0.43380E+00    0.00000E+00  6048   0.103E+01 0.000E+00
CGA:   2    -0.370722125047E+03   -0.34256E+00   -0.34243E+00  6048   0.370E+00 0.120E-02
CGA:   3    -0.370790014940E+03   -0.67890E-01   -0.67917E-01  6048   0.891E-01 0.144E-03
CGA:   4    -0.370804123109E+03   -0.14108E-01   -0.14086E-01  6048   0.183E-01-0.280E-03
CGA:   5    -0.370808012914E+03   -0.38898E-02   -0.38766E-02  6048   0.504E-02-0.358E-03
CGA:   6    -0.370808991043E+03   -0.97813E-03   -0.97633E-03  6048   0.149E-02-0.388E-04
CGA:   7    -0.370809353869E+03   -0.36283E-03   -0.36284E-03  6048   0.529E-03 0.736E-04
CGA:   8    -0.370809517937E+03   -0.16407E-03   -0.16214E-03  6048   0.256E-03 0.415E-04
CGA:   9    -0.370809616060E+03   -0.98123E-04   -0.10203E-03  6048   0.143E-03-0.324E-04
CGA:  10    -0.370809658962E+03   -0.42902E-04   -0.50337E-04  6048   0.823E-04-0.503E-04
CGA:  11    -0.370809670993E+03   -0.12031E-04   -0.12179E-04  6048   0.305E-04 0.438E-05
CGA:  12    -0.370809676638E+03   -0.56452E-05   -0.62553E-05  6048   0.146E-04 0.938E-05
  71 F= -.37080968E+03 E0= -.37080968E+03  d E =0.369813E-02  mag=    20.0000
       N       E                     dE             d eps       ncg     rms          ort
SDA:   1    -0.349727744803E+03    0.21082E+02    0.00000E+00  6048   0.500E+02 0.000E+00
CGA:   2    -0.364329267954E+03   -0.14602E+02   -0.14604E+02  6048   0.209E+02-0.703E-01
CGA:   3    -0.368055889083E+03   -0.37266E+01   -0.37295E+01  6048   0.630E+01 0.872E-02
CGA:   4    -0.369205390762E+03   -0.11495E+01   -0.11499E+01  6048   0.134E+01 0.239E-02
CGA:   5    -0.369467408008E+03   -0.26202E+00   -0.26237E+00  6048   0.409E+00 0.732E-02
CGA:   6    -0.369558955414E+03   -0.91547E-01   -0.91690E-01  6048   0.150E+00 0.597E-02
CGA:   7    -0.369599387773E+03   -0.40432E-01   -0.40445E-01  6048   0.573E-01-0.650E-03
CGA:   8    -0.369616063107E+03   -0.16675E-01   -0.16781E-01  6048   0.251E-01-0.223E-02
CGA:   9    -0.369622562339E+03   -0.64992E-02   -0.64917E-02  6048   0.696E-02 0.368E-03
CGA:  10    -0.369624477392E+03   -0.19151E-02   -0.19030E-02  6048   0.200E-02 0.620E-03
CGA:  11    -0.369625069567E+03   -0.59218E-03   -0.58798E-03  6048   0.641E-03 0.220E-03
CGA:  12    -0.369625309138E+03   -0.23957E-03   -0.23625E-03  6048   0.288E-03 0.411E-04
CGA:  13    -0.369624398817E+03    0.91032E-03   -0.49776E-03  6048   0.443E-02-0.999E-03
CGA:  14    -0.369625341680E+03   -0.94286E-03   -0.10182E-02  6048   0.472E-03 0.317E-03
CGA:  15    -0.369625586029E+03   -0.24435E-03   -0.24847E-03  6048   0.249E-03-0.111E-03
CGA:  16    -0.369625580208E+03    0.58215E-05   -0.27801E-04  6048   0.121E-03 0.108E-03
CGA:  17    -0.369625580392E+03   -0.18450E-06   -0.22905E-04  6048   0.380E-04 0.734E-04
  72 F= -.36962558E+03 E0= -.36962558E+03  d E =0.118410E+01  mag=    20.0000
       N       E                     dE             d eps       ncg     rms          ort
SDA:   1    -0.365588730632E+03    0.40368E+01    0.00000E+00  6048   0.120E+02 0.000E+00
CGA:   2    -0.369445488618E+03   -0.38568E+01   -0.38564E+01  6048   0.370E+01-0.149E-02
CGA:   3    -0.370301281273E+03   -0.85579E+00   -0.85736E+00  6048   0.104E+01 0.131E-02
CGA:   4    -0.370477444696E+03   -0.17616E+00   -0.17621E+00  6048   0.296E+00-0.952E-03
CGA:   5    -0.370540377161E+03   -0.62932E-01   -0.62675E-01  6048   0.822E-01-0.132E-02
CGA:   6    -0.370560690524E+03   -0.20313E-01   -0.20230E-01  6048   0.392E-01-0.625E-03
CGA:   7    -0.370570136264E+03   -0.94457E-02   -0.94704E-02  6048   0.132E-01 0.160E-03
CGA:   8    -0.370573945296E+03   -0.38090E-02   -0.38457E-02  6048   0.509E-02 0.422E-03
CGA:   9    -0.370575399176E+03   -0.14539E-02   -0.14480E-02  6048   0.165E-02-0.634E-04
CGA:  10    -0.370575936079E+03   -0.53690E-03   -0.52857E-03  6048   0.554E-03-0.196E-03
CGA:  11    -0.370576075044E+03   -0.13897E-03   -0.13933E-03  6048   0.167E-03 0.445E-05
CGA:  12    -0.370576129618E+03   -0.54574E-04   -0.54674E-04  6048   0.711E-04 0.279E-05
CGA:  13    -0.370576147044E+03   -0.17426E-04   -0.19336E-04  6048   0.296E-04 0.210E-04
CGA:  14    -0.370576152623E+03   -0.55793E-05   -0.80218E-05  6048   0.135E-04 0.169E-04
  73 F= -.37057615E+03 E0= -.37057615E+03  d E =-.950572E+00  mag=    20.0000
       N       E                     dE             d eps       ncg     rms          ort
SDA:   1    -0.369887942501E+03    0.68820E+00    0.00000E+00  6048   0.205E+01 0.000E+00
CGA:   2    -0.370533823513E+03   -0.64588E+00   -0.64612E+00  6048   0.594E+00 0.471E-02
CGA:   3    -0.370683070131E+03   -0.14925E+00   -0.14941E+00  6048   0.169E+00 0.156E-02
CGA:   4    -0.370711922073E+03   -0.28852E-01   -0.28739E-01  6048   0.477E-01-0.849E-03
CGA:   5    -0.370722082794E+03   -0.10161E-01   -0.99937E-02  6048   0.142E-01-0.141E-02
CGA:   6    -0.370725744016E+03   -0.36612E-02   -0.36213E-02  6048   0.699E-02-0.639E-03
CGA:   7    -0.370727194603E+03   -0.14506E-02   -0.14765E-02  6048   0.220E-02 0.255E-03
CGA:   8    -0.370727763778E+03   -0.56917E-03   -0.58905E-03  6048   0.742E-03 0.338E-03
CGA:   9    -0.370728023623E+03   -0.25984E-03   -0.25914E-03  6048   0.349E-03-0.642E-04
CGA:  10    -0.370728131147E+03   -0.10752E-03   -0.11091E-03  6048   0.159E-03-0.971E-04
CGA:  11    -0.370728170865E+03   -0.39718E-04   -0.48683E-04  6048   0.121E-03-0.831E-04
CGA:  12    -0.370728194585E+03   -0.23720E-04   -0.25106E-04  6048   0.223E-04 0.123E-04
CGA:  13    -0.370728193550E+03    0.10347E-05   -0.27031E-05  6048   0.142E-04 0.182E-04
  74 F= -.37072819E+03 E0= -.37072819E+03  d E =-.152041E+00  mag=    20.0000
       N       E                     dE             d eps       ncg     rms          ort
SDA:   1    -0.370146690970E+03    0.58150E+00    0.00000E+00  6048   0.159E+01 0.000E+00
CGA:   2    -0.370635331114E+03   -0.48864E+00   -0.48855E+00  6048   0.431E+00 0.478E-02
CGA:   3    -0.370746815154E+03   -0.11148E+00   -0.11158E+00  6048   0.141E+00 0.254E-02
CGA:   4    -0.370769481625E+03   -0.22666E-01   -0.22557E-01  6048   0.338E-01-0.990E-03
CGA:   5    -0.370777164070E+03   -0.76824E-02   -0.75549E-02  6048   0.118E-01-0.208E-02
CGA:   6    -0.370779937478E+03   -0.27734E-02   -0.27453E-02  6048   0.548E-02-0.812E-03
CGA:   7    -0.370781017570E+03   -0.10801E-02   -0.11046E-02  6048   0.161E-02 0.374E-03
CGA:   8    -0.370781399833E+03   -0.38226E-03   -0.40005E-03  6048   0.546E-03 0.381E-03
CGA:   9    -0.370781593708E+03   -0.19388E-03   -0.19405E-03  6048   0.252E-03-0.158E-04
CGA:  10    -0.370781677207E+03   -0.83499E-04   -0.10258E-03  6048   0.201E-03-0.134E-03
CGA:  11    -0.370781729161E+03   -0.51954E-04   -0.50349E-04  6048   0.613E-04-0.483E-04
CGA:  12    -0.370781744897E+03   -0.15736E-04   -0.16811E-04  6048   0.191E-04-0.137E-04
CGA:  13    -0.370781748806E+03   -0.39092E-05   -0.39694E-05  6048   0.425E-05 0.313E-05
  75 F= -.37078175E+03 E0= -.37078175E+03  d E =-.535553E-01  mag=    20.0000
       N       E                     dE             d eps       ncg     rms          ort
SDA:   1    -0.370602747806E+03    0.17900E+00    0.00000E+00  6048   0.496E+00 0.000E+00
CGA:   2    -0.370751478290E+03   -0.14873E+00   -0.14867E+00  6048   0.140E+00 0.220E-02
CGA:   3    -0.370784275782E+03   -0.32797E-01   -0.32868E-01  6048   0.550E-01 0.159E-02
CGA:   4    -0.370793250948E+03   -0.89752E-02   -0.89356E-02  6048   0.110E-01-0.402E-03
CGA:   5    -0.370795889732E+03   -0.26388E-02   -0.25977E-02  6048   0.467E-02-0.142E-02
CGA:   6    -0.370796880675E+03   -0.99094E-03   -0.97402E-03  6048   0.208E-02-0.637E-03
CGA:   7    -0.370797223387E+03   -0.34271E-03   -0.35909E-03  6048   0.567E-03 0.252E-03
CGA:   8    -0.370797307525E+03   -0.84139E-04   -0.10652E-03  6048   0.215E-03 0.238E-03
CGA:   9    -0.370797356514E+03   -0.48988E-04   -0.55972E-04  6048   0.813E-04 0.946E-04
CGA:  10    -0.370797389451E+03   -0.32937E-04   -0.65351E-04  6048   0.183E-03-0.106E-03
CGA:  11    -0.370797418763E+03   -0.29312E-04   -0.32283E-04  6048   0.220E-04 0.320E-04
CGA:  12    -0.370797445496E+03   -0.26733E-04    0.35444E-05  6048   0.550E-05 0.392E-05
CGA:  13    -0.370797450681E+03   -0.51847E-05    0.16635E-05  6048   0.183E-05 0.119E-05
  76 F= -.37079745E+03 E0= -.37079745E+03  d E =-.157019E-01  mag=    20.0000
       N       E                     dE             d eps       ncg     rms          ort
SDA:   1    -0.370763843521E+03    0.33602E-01    0.00000E+00  6048   0.965E-01 0.000E+00
CGA:   2    -0.370791225795E+03   -0.27382E-01   -0.27361E-01  6048   0.378E-01 0.629E-03
CGA:   3    -0.370798255253E+03   -0.70295E-02   -0.70697E-02  6048   0.124E-01 0.564E-03
CGA:   4    -0.370800472865E+03   -0.22176E-02   -0.22178E-02  6048   0.264E-02-0.298E-05
CGA:   5    -0.370801093971E+03   -0.62111E-03   -0.61580E-03  6048   0.111E-02-0.399E-03
CGA:   6    -0.370801324693E+03   -0.23072E-03   -0.23004E-03  6048   0.528E-03-0.249E-03
CGA:   7    -0.370801400104E+03   -0.75411E-04   -0.78607E-04  6048   0.147E-03 0.588E-04
CGA:   8    -0.370801412837E+03   -0.12732E-04   -0.21195E-04  6048   0.610E-04 0.744E-04
CGA:   9    -0.370801423395E+03   -0.10559E-04   -0.11766E-04  6048   0.240E-04 0.269E-04
CGA:  10    -0.370801428710E+03   -0.53144E-05   -0.62630E-05  6048   0.113E-04 0.174E-04
  77 F= -.37080143E+03 E0= -.37080143E+03  d E =-.397803E-02  mag=    20.0000
       N       E                     dE             d eps       ncg     rms          ort
SDA:   1    -0.370787165942E+03    0.14257E-01    0.00000E+00  6048   0.428E-01 0.000E+00
CGA:   2    -0.370797597054E+03   -0.10431E-01   -0.10429E-01  6048   0.213E-01 0.129E-03
CGA:   3    -0.370801299644E+03   -0.37026E-02   -0.37222E-02  6048   0.575E-02 0.318E-03
CGA:   4    -0.370802307905E+03   -0.10083E-02   -0.10140E-02  6048   0.117E-02 0.987E-04
CGA:   5    -0.370802550540E+03   -0.24264E-03   -0.24062E-03  6048   0.386E-03-0.814E-04
CGA:   6    -0.370802639346E+03   -0.88806E-04   -0.91299E-04  6048   0.179E-03-0.894E-04
CGA:   7    -0.370802665850E+03   -0.26504E-04   -0.26963E-04  6048   0.541E-04 0.144E-04
CGA:   8    -0.370802672146E+03   -0.62962E-05   -0.83995E-05  6048   0.222E-04 0.255E-04
  78 F= -.37080267E+03 E0= -.37080267E+03  d E =-.124344E-02  mag=    20.0000
       N       E                     dE             d eps       ncg     rms          ort
SDA:   1    -0.370688366090E+03    0.11430E+00    0.00000E+00  6048   0.331E+00 0.000E+00
CGA:   2    -0.370765060605E+03   -0.76695E-01   -0.76686E-01  6048   0.173E+00 0.291E-03
CGA:   3    -0.370795791053E+03   -0.30730E-01   -0.30757E-01  6048   0.452E-01 0.541E-03
CGA:   4    -0.370803579187E+03   -0.77881E-02   -0.78010E-02  6048   0.886E-02 0.272E-03
CGA:   5    -0.370805204866E+03   -0.16257E-02   -0.16278E-02  6048   0.234E-02 0.635E-04
CGA:   6    -0.370805710919E+03   -0.50605E-03   -0.50607E-03  6048   0.695E-03-0.980E-05
CGA:   7    -0.370805879330E+03   -0.16841E-03   -0.16812E-03  6048   0.256E-03 0.894E-05
CGA:   8    -0.370805952483E+03   -0.73154E-04   -0.72033E-04  6048   0.112E-03 0.174E-04
CGA:   9    -0.370805990358E+03   -0.37875E-04   -0.37089E-04  6048   0.485E-04 0.833E-05
CGA:  10    -0.370806006780E+03   -0.16423E-04   -0.16000E-04  6048   0.203E-04 0.496E-05
CGA:  11    -0.370806015284E+03   -0.85031E-05   -0.96927E-05  6048   0.154E-04-0.574E-05
  79 F= -.37080602E+03 E0= -.37080602E+03  d E =-.334314E-02  mag=    20.0000
       N       E                     dE             d eps       ncg     rms          ort
SDA:   1    -0.370671844684E+03    0.13416E+00    0.00000E+00  6048   0.369E+00 0.000E+00
CGA:   2    -0.370768349793E+03   -0.96505E-01   -0.96502E-01  6048   0.175E+00 0.387E-03
CGA:   3    -0.370798907631E+03   -0.30558E-01   -0.30584E-01  6048   0.468E-01 0.204E-03
CGA:   4    -0.370806771068E+03   -0.78634E-02   -0.78744E-02  6048   0.866E-02 0.103E-03
CGA:   5    -0.370808387134E+03   -0.16161E-02   -0.16217E-02  6048   0.242E-02 0.857E-04
CGA:   6    -0.370808880287E+03   -0.49315E-03   -0.49438E-03  6048   0.667E-03 0.267E-04
CGA:   7    -0.370809054761E+03   -0.17447E-03   -0.17452E-03  6048   0.272E-03-0.369E-05
CGA:   8    -0.370809137967E+03   -0.83206E-04   -0.83525E-04  6048   0.140E-03-0.514E-05
CGA:   9    -0.370809180726E+03   -0.42759E-04   -0.42397E-04  6048   0.565E-04 0.587E-05
CGA:  10    -0.370809196613E+03   -0.15887E-04   -0.15720E-04  6048   0.197E-04 0.107E-04
CGA:  11    -0.370809205114E+03   -0.85009E-05   -0.87312E-05  6048   0.124E-04-0.189E-05
CGA:  12    -0.370809197811E+03    0.73033E-05   -0.12325E-04  6048   0.698E-04-0.234E-04
CGA:  13    -0.370809210076E+03   -0.12266E-04   -0.13503E-04  6048   0.875E-05 0.116E-04
CGA:  14    -0.370809214295E+03   -0.42182E-05   -0.45513E-05  6048   0.433E-05-0.221E-05
  80 F= -.37080921E+03 E0= -.37080921E+03  d E =-.319901E-02  mag=    20.0000
       N       E                     dE             d eps       ncg     rms          ort
SDA:   1    -0.370193470456E+03    0.61574E+00    0.00000E+00  6048   0.166E+01 0.000E+00
CGA:   2    -0.370624032080E+03   -0.43056E+00   -0.43070E+00  6048   0.812E+00 0.158E-02
CGA:   3    -0.370766181810E+03   -0.14215E+00   -0.14221E+00  6048   0.214E+00 0.287E-04
CGA:   4    -0.370802404860E+03   -0.36223E-01   -0.36225E-01  6048   0.397E-01-0.107E-03
CGA:   5    -0.370809879514E+03   -0.74747E-02   -0.74888E-02  6048   0.111E-01 0.124E-03
CGA:   6    -0.370812179213E+03   -0.22997E-02   -0.23053E-02  6048   0.315E-02 0.688E-04
CGA:   7    -0.370812994734E+03   -0.81552E-03   -0.81554E-03  6048   0.128E-02-0.168E-05
CGA:   8    -0.370813382629E+03   -0.38789E-03   -0.38822E-03  6048   0.636E-03-0.136E-04
CGA:   9    -0.370813584053E+03   -0.20142E-03   -0.20116E-03  6048   0.269E-03 0.628E-05
CGA:  10    -0.370813665468E+03   -0.81415E-04   -0.81061E-04  6048   0.974E-04 0.193E-04
CGA:  11    -0.370813701626E+03   -0.36158E-04   -0.36336E-04  6048   0.481E-04-0.268E-05
CGA:  12    -0.370813721695E+03   -0.20069E-04   -0.22219E-04  6048   0.366E-04-0.114E-04
CGA:  13    -0.370813730579E+03   -0.88845E-05   -0.88509E-05  6048   0.145E-04 0.149E-05
  81 F= -.37081373E+03 E0= -.37081373E+03  d E =-.451628E-02  mag=    20.0000
       N       E                     dE             d eps       ncg     rms          ort
SDA:   1    -0.370795901252E+03    0.17820E-01    0.00000E+00  6048   0.485E-01 0.000E+00
CGA:   2    -0.370809006714E+03   -0.13105E-01   -0.13104E-01  6048   0.227E-01-0.995E-04
CGA:   3    -0.370813059826E+03   -0.40531E-02   -0.40579E-02  6048   0.684E-02 0.252E-04
CGA:   4    -0.370814241661E+03   -0.11818E-02   -0.11892E-02  6048   0.144E-02 0.589E-04
CGA:   5    -0.370814522089E+03   -0.28043E-03   -0.28490E-03  6048   0.425E-03 0.496E-04
CGA:   6    -0.370814612367E+03   -0.90278E-04   -0.92021E-04  6048   0.141E-03 0.242E-04
CGA:   7    -0.370814654735E+03   -0.42367E-04   -0.42358E-04  6048   0.631E-04 0.141E-05
CGA:   8    -0.370814674786E+03   -0.20051E-04   -0.20514E-04  6048   0.336E-04-0.105E-04
CGA:   9    -0.370814682182E+03   -0.73961E-05   -0.73958E-05  6048   0.103E-04-0.250E-07
  82 F= -.37081468E+03 E0= -.37081468E+03  d E =-.951602E-03  mag=    20.0000
       N       E                     dE             d eps       ncg     rms          ort
SDA:   1    -0.370804324999E+03    0.10350E-01    0.00000E+00  6048   0.282E-01 0.000E+00
CGA:   2    -0.370811086708E+03   -0.67617E-02   -0.67661E-02  6048   0.135E-01 0.102E-03
CGA:   3    -0.370813520530E+03   -0.24338E-02   -0.24354E-02  6048   0.385E-02 0.806E-05
CGA:   4    -0.370814197475E+03   -0.67695E-03   -0.67335E-03  6048   0.754E-03-0.403E-04
CGA:   5    -0.370814350006E+03   -0.15253E-03   -0.14891E-03  6048   0.241E-03-0.574E-04
CGA:   6    -0.370814402112E+03   -0.52106E-04   -0.51145E-04  6048   0.870E-04-0.318E-04
CGA:   7    -0.370814418316E+03   -0.16204E-04   -0.16427E-04  6048   0.272E-04 0.541E-05
CGA:   8    -0.370814422978E+03   -0.46628E-05   -0.53834E-05  6048   0.102E-04 0.103E-04
  83 F= -.37081442E+03 E0= -.37081442E+03  d E =0.259204E-03  mag=    20.0000
       N       E                     dE             d eps       ncg     rms          ort
SDA:   1    -0.370807164834E+03    0.72535E-02    0.00000E+00  6048   0.223E-01 0.000E+00
CGA:   2    -0.370811600069E+03   -0.44352E-02   -0.44460E-02  6048   0.105E-01 0.183E-03
CGA:   3    -0.370813607100E+03   -0.20070E-02   -0.20118E-02  6048   0.322E-02 0.751E-04
CGA:   4    -0.370814200482E+03   -0.59338E-03   -0.59127E-03  6048   0.694E-03-0.344E-04
CGA:   5    -0.370814340953E+03   -0.14047E-03   -0.13738E-03  6048   0.217E-03-0.728E-04
CGA:   6    -0.370814391460E+03   -0.50507E-04   -0.52405E-04  6048   0.117E-03-0.663E-04
CGA:   7    -0.370814406383E+03   -0.14923E-04   -0.15195E-04  6048   0.345E-04 0.492E-05
CGA:   8    -0.370814408981E+03   -0.25981E-05   -0.44841E-05  6048   0.145E-04 0.165E-04
  84 F= -.37081441E+03 E0= -.37081441E+03  d E =0.139974E-04  mag=    20.0000
