       N       E                     dE             d eps       ncg     rms          rms(c)
DAV:   1     0.258404852584E+04    0.25840E+04   -0.12904E+05 35496   0.148E+03
DAV:   2     0.111238035765E+02   -0.25729E+04   -0.23995E+04 37060   0.409E+02
DAV:   3    -0.259734320035E+03   -0.27086E+03   -0.26716E+03 38956   0.148E+02
DAV:   4    -0.268082119914E+03   -0.83478E+01   -0.82436E+01 46632   0.251E+01
DAV:   5    -0.268392561343E+03   -0.31044E+00   -0.30969E+00 50576   0.411E+00    0.118E+02
DAV:   6    -0.226601684158E+03    0.41791E+02   -0.18194E+02 43320   0.438E+01    0.729E+01
DAV:   7    -0.270455846664E+03   -0.43854E+02   -0.13841E+02 41820   0.679E+01    0.963E+01
DAV:   8    -0.240427367258E+03    0.30028E+02   -0.74379E+01 38612   0.680E+01    0.589E+01
DAV:   9    -0.241823068547E+03   -0.13957E+01   -0.61835E+01 41280   0.364E+01    0.551E+01
DAV:  10    -0.228873211152E+03    0.12950E+02   -0.55439E+01 40880   0.241E+01    0.433E+01
DAV:  11    -0.226091606791E+03    0.27816E+01   -0.28376E+01 41104   0.124E+01    0.249E+01
DAV:  12    -0.226717409382E+03   -0.62580E+00   -0.18532E+00 42104   0.563E+00    0.194E+01
DAV:  13    -0.226852965257E+03   -0.13556E+00   -0.16256E-01 38928   0.191E+00    0.179E+01
DAV:  14    -0.228598196292E+03   -0.17452E+01   -0.12816E+01 44480   0.486E+00    0.258E+01
DAV:  15    -0.228987337781E+03   -0.38914E+00   -0.23528E-01 37152   0.174E+00    0.256E+01
DAV:  16    -0.229582787514E+03   -0.59545E+00   -0.61845E-02 47760   0.145E+00    0.226E+01
DAV:  17    -0.229890307244E+03   -0.30752E+00   -0.32852E-01 46904   0.319E+00    0.155E+01
DAV:  18    -0.230491511718E+03   -0.60120E+00   -0.29262E-01 47136   0.287E+00    0.152E+01
DAV:  19    -0.230530308593E+03   -0.38797E-01   -0.71799E-02 36104   0.975E-01    0.153E+01
DAV:  20    -0.230514355756E+03    0.15953E-01   -0.22117E-03 40600   0.153E-01    0.153E+01
DAV:  21    -0.230508369491E+03    0.59863E-02   -0.12370E-03 47080   0.256E-01    0.155E+01
DAV:  22    -0.230593480922E+03   -0.85111E-01   -0.32386E-02 49136   0.159E+00    0.137E+01
DAV:  23    -0.230980678734E+03   -0.38720E+00   -0.39895E-01 48080   0.522E+00    0.842E+00
DAV:  24    -0.231034699219E+03   -0.54020E-01   -0.19769E-01 44984   0.188E+00    0.775E+00
DAV:  25    -0.231032532672E+03    0.21665E-02   -0.40605E-02 43392   0.748E-01    0.706E+00
DAV:  26    -0.231038481189E+03   -0.59485E-02   -0.28046E-02 45952   0.801E-01    0.582E+00
DAV:  27    -0.231028562736E+03    0.99185E-02   -0.49146E-02 43984   0.105E+00    0.420E+00
DAV:  28    -0.231007813264E+03    0.20749E-01   -0.31716E-02 46848   0.104E+00    0.299E+00
DAV:  29    -0.230995101763E+03    0.12712E-01   -0.14318E-02 45464   0.490E-01    0.254E+00
DAV:  30    -0.230984648679E+03    0.10453E-01   -0.93519E-03 43776   0.585E-01    0.175E+00
DAV:  31    -0.230978799874E+03    0.58488E-02   -0.87521E-03 47696   0.390E-01    0.147E+00
DAV:  32    -0.230979020594E+03   -0.22072E-03   -0.14857E-03 37232   0.119E-01    0.151E+00
DAV:  33    -0.230978977333E+03    0.43261E-04   -0.18994E-04 46992   0.739E-02    0.160E+00
DAV:  34    -0.230978933523E+03    0.43810E-04   -0.57143E-05 34984   0.432E-02    0.158E+00
DAV:  35    -0.230980062502E+03   -0.11290E-02   -0.12950E-03 47016   0.177E-01    0.144E+00
DAV:  36    -0.230983203637E+03   -0.31411E-02   -0.18037E-02 44496   0.646E-01    0.124E+00
DAV:  37    -0.230988757937E+03   -0.55543E-02   -0.74668E-03 45640   0.354E-01    0.183E+00
DAV:  38    -0.230988469292E+03    0.28864E-03   -0.19192E-03 41256   0.214E-01    0.183E+00
DAV:  39    -0.230988987796E+03   -0.51850E-03   -0.80427E-04 48616   0.142E-01    0.186E+00
DAV:  40    -0.230990325101E+03   -0.13373E-02   -0.65178E-04 48512   0.153E-01    0.187E+00
DAV:  41    -0.230989563706E+03    0.76140E-03   -0.16578E-03 45928   0.142E-01    0.164E+00
DAV:  42    -0.230989509128E+03    0.54578E-04   -0.38332E-04 37704   0.684E-02    0.156E+00
DAV:  43    -0.230989554774E+03   -0.45646E-04   -0.52090E-05 31000   0.207E-02    0.157E+00
DAV:  44    -0.230989459669E+03    0.95106E-04   -0.18836E-04 39072   0.599E-02    0.151E+00
DAV:  45    -0.230988810062E+03    0.64961E-03   -0.24379E-04 47696   0.956E-02    0.136E+00
DAV:  46    -0.230988205300E+03    0.60476E-03   -0.54032E-04 47304   0.119E-01    0.123E+00
DAV:  47    -0.230988082263E+03    0.12304E-03   -0.14786E-04 38456   0.479E-02    0.116E+00
DAV:  48    -0.230988361170E+03   -0.27891E-03   -0.12433E-04 42432   0.453E-02    0.110E+00
DAV:  49    -0.230988195627E+03    0.16554E-03   -0.56451E-04 39256   0.822E-02    0.957E-01
DAV:  50    -0.230987862161E+03    0.33347E-03   -0.17148E-04 36944   0.583E-02    0.914E-01
DAV:  51    -0.230986504869E+03    0.13573E-02   -0.17195E-03 46528   0.195E-01    0.595E-01
DAV:  52    -0.230986373685E+03    0.13118E-03   -0.36512E-04 45320   0.975E-02    0.415E-01
DAV:  53    -0.230986313475E+03    0.60210E-04   -0.17433E-04 47912   0.655E-02    0.229E-01
DAV:  54    -0.230986392600E+03   -0.79125E-04   -0.85032E-05 37576   0.417E-02    0.308E-01
DAV:  55    -0.230986367311E+03    0.25289E-04   -0.14306E-05 23840   0.171E-02    0.313E-01
DAV:  56    -0.230986305492E+03    0.61819E-04   -0.55068E-05 29288   0.397E-02    0.269E-01
DAV:  57    -0.230986246196E+03    0.59296E-04   -0.10640E-04 39384   0.628E-02    0.732E-02
DAV:  58    -0.230986264472E+03   -0.18276E-04   -0.21728E-05 26792   0.216E-02    0.410E-02
DAV:  59    -0.230986266932E+03   -0.24597E-05   -0.92886E-06 20832   0.176E-02
   1 F= -.23098627E+03 E0= -.23098187E+03  d E =-.230986E+03  mag=     0.0491
       N       E                     dE             d eps       ncg     rms          rms(c)
DAV:   1    -0.231039459073E+03   -0.53195E-01   -0.24151E-02 34424   0.467E-01    0.899E-02
DAV:   2    -0.231039548175E+03   -0.89102E-04   -0.11882E-03 36752   0.103E-01    0.129E-01
DAV:   3    -0.231039541161E+03    0.70144E-05   -0.12139E-04 45376   0.657E-02    0.898E-02
DAV:   4    -0.231039542477E+03   -0.13166E-05   -0.99633E-05 31968   0.361E-02
   2 F= -.23103954E+03 E0= -.23103494E+03  d E =-.532755E-01  mag=     0.0481
       N       E                     dE             d eps       ncg     rms          rms(c)
DAV:   1    -0.232404346696E+03   -0.13648E+01   -0.31096E+01 34304   0.168E+01    0.353E+00
DAV:   2    -0.232555702967E+03   -0.15136E+00   -0.18869E+00 36440   0.337E+00    0.793E+00
DAV:   3    -0.232536330104E+03    0.19373E-01   -0.51120E-01 48240   0.210E+00    0.323E+00
DAV:   4    -0.232544298543E+03   -0.79684E-02   -0.25602E-02 42728   0.104E+00    0.245E+00
DAV:   5    -0.232534975292E+03    0.93233E-02   -0.18200E-02 45904   0.778E-01    0.208E+00
DAV:   6    -0.232526656867E+03    0.83184E-02   -0.27184E-02 46808   0.647E-01    0.903E-01
DAV:   7    -0.232528059283E+03   -0.14024E-02   -0.69491E-03 45936   0.380E-01    0.106E+00
DAV:   8    -0.232527733783E+03    0.32550E-03   -0.19242E-03 40160   0.279E-01    0.114E+00
DAV:   9    -0.232526566453E+03    0.11673E-02   -0.79213E-03 48840   0.190E-01    0.277E-01
DAV:  10    -0.232527542278E+03   -0.97583E-03   -0.10384E-03 37584   0.101E-01    0.518E-01
DAV:  11    -0.232527207362E+03    0.33492E-03   -0.42703E-04 41688   0.728E-02    0.239E-01
DAV:  12    -0.232527231605E+03   -0.24244E-04   -0.46899E-04 41104   0.388E-02    0.757E-02
DAV:  13    -0.232527267902E+03   -0.36297E-04   -0.27496E-05 27056   0.311E-02    0.411E-02
DAV:  14    -0.232527266972E+03    0.93015E-06   -0.14797E-05 21744   0.107E-02
   3 F= -.23252727E+03 E0= -.23252338E+03  d E =-.148772E+01  mag=     0.0493
       N       E                     dE             d eps       ncg     rms          rms(c)
DAV:   1    -0.233312660531E+03   -0.78539E+00   -0.70785E+01 36216   0.283E+01    0.444E+00
DAV:   2    -0.233737344801E+03   -0.42468E+00   -0.48644E+00 36668   0.589E+00    0.552E+00
DAV:   3    -0.233750915539E+03   -0.13571E-01   -0.74032E-01 49600   0.296E+00    0.395E+00
DAV:   4    -0.233728368412E+03    0.22547E-01   -0.51847E-02 44768   0.148E+00    0.296E+00
DAV:   5    -0.233721219846E+03    0.71486E-02   -0.29527E-02 45816   0.100E+00    0.216E+00
DAV:   6    -0.233723011005E+03   -0.17912E-02   -0.11585E-01 45840   0.976E-01    0.440E+00
DAV:   7    -0.233707633305E+03    0.15378E-01   -0.20846E-02 42472   0.744E-01    0.262E+00
DAV:   8    -0.233707424551E+03    0.20875E-03   -0.49058E-02 45056   0.568E-01    0.694E-01
DAV:   9    -0.233711099430E+03   -0.36749E-02   -0.26563E-03 37880   0.271E-01    0.443E-01
DAV:  10    -0.233710994914E+03    0.10452E-03   -0.31223E-04 46872   0.807E-02    0.346E-01
DAV:  11    -0.233710851920E+03    0.14299E-03   -0.62821E-04 45880   0.730E-02    0.735E-02
DAV:  12    -0.233710918382E+03   -0.66462E-04   -0.18063E-04 37568   0.318E-02    0.999E-02
DAV:  13    -0.233710916351E+03    0.20310E-05   -0.17547E-05 26264   0.218E-02
   4 F= -.23371092E+03 E0= -.23370747E+03  d E =-.118365E+01  mag=     0.0560
       N       E                     dE             d eps       ncg     rms          rms(c)
DAV:   1    -0.233868736371E+03   -0.15782E+00   -0.39586E+01 36720   0.249E+01    0.284E+00
DAV:   2    -0.234162776855E+03   -0.29404E+00   -0.31381E+00 35600   0.516E+00    0.383E+00
DAV:   3    -0.234150128092E+03    0.12649E-01   -0.21207E-01 47648   0.219E+00    0.294E+00
DAV:   4    -0.234146497436E+03    0.36307E-02   -0.66556E-02 45192   0.941E-01    0.185E+00
DAV:   5    -0.234142720978E+03    0.37765E-02   -0.17074E-02 46000   0.621E-01    0.122E+00
DAV:   6    -0.234144833262E+03   -0.21123E-02   -0.15832E-02 46056   0.716E-01    0.308E+00
DAV:   7    -0.234139094102E+03    0.57392E-02   -0.11484E-02 43496   0.585E-01    0.195E+00
DAV:   8    -0.234137734563E+03    0.13595E-02   -0.13916E-02 45056   0.324E-01    0.292E-01
DAV:   9    -0.234140320031E+03   -0.25855E-02   -0.17071E-03 37296   0.178E-01    0.477E-01
DAV:  10    -0.234140073010E+03    0.24702E-03   -0.37358E-04 40880   0.829E-02    0.310E-01
DAV:  11    -0.234139993656E+03    0.79354E-04   -0.27580E-04 45152   0.556E-02    0.269E-02
DAV:  12    -0.234140057326E+03   -0.63670E-04   -0.50502E-05 31976   0.242E-02    0.811E-02
DAV:  13    -0.234140052799E+03    0.45269E-05   -0.13974E-05 24848   0.168E-02
   5 F= -.23414005E+03 E0= -.23413630E+03  d E =-.429136E+00  mag=     0.0921
       N       E                     dE             d eps       ncg     rms          rms(c)
DAV:   1    -0.233892124073E+03    0.24793E+00   -0.53776E+01 36312   0.336E+01    0.408E+00
DAV:   2    -0.234512925111E+03   -0.62080E+00   -0.63809E+00 34672   0.759E+00    0.622E+00
DAV:   3    -0.234460431060E+03    0.52494E-01   -0.38272E-01 42928   0.341E+00    0.213E+00
DAV:   4    -0.234465143350E+03   -0.47123E-02   -0.72675E-02 49400   0.105E+00    0.557E+00
DAV:   5    -0.234443534275E+03    0.21609E-01   -0.35880E-02 39312   0.110E+00    0.156E+00
DAV:   6    -0.234455600758E+03   -0.12066E-01   -0.46287E-02 46440   0.715E-01    0.210E+00
DAV:   7    -0.234448934982E+03    0.66658E-02   -0.12065E-02 45160   0.653E-01    0.123E+00
DAV:   8    -0.234447593055E+03    0.13419E-02   -0.10466E-02 45808   0.385E-01    0.322E-01
DAV:   9    -0.234448279420E+03   -0.68636E-03   -0.18089E-03 39768   0.171E-01    0.188E-01
DAV:  10    -0.234448267972E+03    0.11448E-04   -0.33727E-04 43016   0.797E-02    0.138E-01
DAV:  11    -0.234448252513E+03    0.15459E-04   -0.11719E-04 39896   0.425E-02    0.454E-02
DAV:  12    -0.234448265281E+03   -0.12768E-04   -0.19227E-05 26464   0.202E-02    0.775E-02
DAV:  13    -0.234448258652E+03    0.66291E-05   -0.91572E-06 21704   0.143E-02
   6 F= -.23444826E+03 E0= -.23444423E+03  d E =-.308206E+00  mag=     0.1216
       N       E                     dE             d eps       ncg     rms          rms(c)
DAV:   1    -0.233024103251E+03    0.14242E+01   -0.12530E+02 35464   0.529E+01    0.108E+01
DAV:   2    -0.235071803410E+03   -0.20477E+01   -0.18785E+01 35768   0.159E+01    0.159E+01
DAV:   3    -0.234712134933E+03    0.35967E+00   -0.16147E+00 38720   0.815E+00    0.560E+00
DAV:   4    -0.234582675955E+03    0.12946E+00   -0.36637E-01 48936   0.317E+00    0.313E+00
DAV:   5    -0.234579883716E+03    0.27922E-02   -0.38799E-01 42304   0.200E+00    0.380E+00
DAV:   6    -0.234584612195E+03   -0.47285E-02   -0.42706E-02 42872   0.129E+00    0.480E+00
DAV:   7    -0.234564740998E+03    0.19871E-01   -0.38191E-02 41296   0.140E+00    0.290E+00
DAV:   8    -0.234581118841E+03   -0.16378E-01   -0.99316E-02 43456   0.127E+00    0.698E+00
DAV:   9    -0.234543504894E+03    0.37614E-01   -0.47468E-02 39496   0.845E-01    0.267E+00
DAV:  10    -0.234559710409E+03   -0.16206E-01   -0.30062E-02 47392   0.430E-01    0.189E+00
DAV:  11    -0.234564314968E+03   -0.46046E-02   -0.48651E-03 36096   0.376E-01    0.183E+00
DAV:  12    -0.234560956882E+03    0.33581E-02   -0.27434E-03 47208   0.203E-01    0.112E+00
DAV:  13    -0.234560769149E+03    0.18773E-03   -0.18876E-03 48032   0.127E-01    0.152E-01
DAV:  14    -0.234561610394E+03   -0.84124E-03   -0.48192E-04 35344   0.942E-02    0.322E-01
DAV:  15    -0.234561594507E+03    0.15887E-04   -0.76426E-05 36888   0.452E-02    0.278E-01
DAV:  16    -0.234561536140E+03    0.58367E-04   -0.52381E-05 27912   0.250E-02    0.441E-02
DAV:  17    -0.234561593624E+03   -0.57484E-04   -0.69734E-05 26432   0.192E-02    0.141E-01
DAV:  18    -0.234561591537E+03    0.20867E-05   -0.84742E-06 23632   0.158E-02
   7 F= -.23456159E+03 E0= -.23455582E+03  d E =-.113333E+00  mag=     0.2108
       N       E                     dE             d eps       ncg     rms          rms(c)
DAV:   1    -0.234617982750E+03   -0.56389E-01   -0.74384E+00 36704   0.111E+01    0.284E+00
DAV:   2    -0.234693277057E+03   -0.75294E-01   -0.56402E-01 38688   0.235E+00    0.968E+00
DAV:   3    -0.234632872189E+03    0.60405E-01   -0.10551E-01 39592   0.177E+00    0.191E+00
DAV:   4    -0.234666610710E+03   -0.33739E-01   -0.25870E-02 37464   0.661E-01    0.223E+00
DAV:   5    -0.234660781681E+03    0.58290E-02   -0.18118E-02 43256   0.541E-01    0.152E+00
DAV:   6    -0.234657655123E+03    0.31266E-02   -0.95296E-03 44312   0.377E-01    0.622E-01
DAV:   7    -0.234658422854E+03   -0.76773E-03   -0.21516E-03 44336   0.247E-01    0.428E-01
DAV:   8    -0.234658588849E+03   -0.16599E-03   -0.12249E-03 41224   0.158E-01    0.556E-01
DAV:   9    -0.234658243083E+03    0.34577E-03   -0.64176E-04 43704   0.926E-02    0.602E-02
DAV:  10    -0.234658426989E+03   -0.18391E-03   -0.16662E-04 35344   0.377E-02    0.208E-01
DAV:  11    -0.234658388233E+03    0.38756E-04   -0.33032E-05 27504   0.315E-02    0.120E-01
DAV:  12    -0.234658385673E+03    0.25605E-05   -0.29361E-05 27072   0.204E-02
   8 F= -.23465839E+03 E0= -.23465334E+03  d E =-.967941E-01  mag=     0.1599
       N       E                     dE             d eps       ncg     rms          rms(c)
DAV:   1    -0.234668391065E+03   -0.10003E-01   -0.17149E+00 35600   0.570E+00    0.756E-01
DAV:   2    -0.234686020077E+03   -0.17629E-01   -0.14550E-01 34600   0.117E+00    0.375E+00
DAV:   3    -0.234675599001E+03    0.10421E-01   -0.17066E-02 39104   0.668E-01    0.424E-01
DAV:   4    -0.234680900876E+03   -0.53019E-02   -0.75970E-03 42328   0.236E-01    0.959E-01
DAV:   5    -0.234680628173E+03    0.27270E-03   -0.18939E-03 39824   0.208E-01    0.790E-01
DAV:   6    -0.234679956268E+03    0.67190E-03   -0.14279E-03 48680   0.131E-01    0.179E-01
DAV:   7    -0.234680357947E+03   -0.40168E-03   -0.39257E-04 43832   0.103E-01    0.474E-01
DAV:   8    -0.234680304769E+03    0.53178E-04   -0.19992E-04 36440   0.747E-02    0.498E-01
DAV:   9    -0.234680090266E+03    0.21450E-03   -0.16954E-04 33792   0.498E-02    0.150E-01
DAV:  10    -0.234680204491E+03   -0.11423E-03   -0.19591E-04 32592   0.328E-02    0.897E-02
DAV:  11    -0.234680231007E+03   -0.26516E-04   -0.15402E-05 25360   0.218E-02    0.110E-01
DAV:  12    -0.234680217604E+03    0.13403E-04   -0.11384E-05 21304   0.153E-02    0.343E-02
DAV:  13    -0.234680221825E+03   -0.42204E-05   -0.70723E-06 18684   0.647E-03
   9 F= -.23468022E+03 E0= -.23467538E+03  d E =-.218362E-01  mag=     0.1520
       N       E                     dE             d eps       ncg     rms          rms(c)
DAV:   1    -0.234621156587E+03    0.59061E-01   -0.16382E+01 36032   0.175E+01    0.174E+00
DAV:   2    -0.234729664521E+03   -0.10851E+00   -0.10671E+00 35884   0.305E+00    0.176E+00
DAV:   3    -0.234739838783E+03   -0.10174E-01   -0.64008E-02 45912   0.115E+00    0.260E+00
DAV:   4    -0.234730930348E+03    0.89084E-02   -0.16517E-02 41880   0.712E-01    0.115E+00
DAV:   5    -0.234729680981E+03    0.12494E-02   -0.45813E-03 45808   0.313E-01    0.557E-01
DAV:   6    -0.234730210179E+03   -0.52920E-03   -0.37333E-03 39616   0.219E-01    0.922E-01
DAV:   7    -0.234729265595E+03    0.94458E-03   -0.20951E-03 41000   0.229E-01    0.187E-01
DAV:   8    -0.234729710862E+03   -0.44527E-03   -0.88089E-04 43200   0.926E-02    0.380E-01
DAV:   9    -0.234729595497E+03    0.11537E-03   -0.23706E-04 37440   0.779E-02    0.184E-01
DAV:  10    -0.234729593859E+03    0.16383E-05   -0.10771E-04 31320   0.315E-02    0.236E-02
DAV:  11    -0.234729617986E+03   -0.24127E-04   -0.22905E-05 25848   0.218E-02    0.644E-02
DAV:  12    -0.234729615313E+03    0.26723E-05   -0.62495E-06 21872   0.148E-02
  10 F= -.23472962E+03 E0= -.23472493E+03  d E =-.493935E-01  mag=     0.1436
       N       E                     dE             d eps       ncg     rms          rms(c)
DAV:   1    -0.234601595543E+03    0.12802E+00   -0.26284E+01 35904   0.220E+01    0.206E+00
DAV:   2    -0.234767907951E+03   -0.16631E+00   -0.16082E+00 35696   0.385E+00    0.200E+00
DAV:   3    -0.234784811743E+03   -0.16904E-01   -0.10292E-01 44048   0.135E+00    0.659E+00
DAV:   4    -0.234753904777E+03    0.30907E-01   -0.27380E-02 37620   0.101E+00    0.840E-01
DAV:   5    -0.234768291377E+03   -0.14387E-01   -0.18537E-02 39080   0.419E-01    0.127E+00
DAV:   6    -0.234767759677E+03    0.53170E-03   -0.34244E-03 38656   0.329E-01    0.985E-01
DAV:   7    -0.234766560237E+03    0.11994E-02   -0.29592E-03 47064   0.198E-01    0.213E-01
DAV:   8    -0.234767064761E+03   -0.50452E-03   -0.58233E-04 39256   0.971E-02    0.356E-01
DAV:   9    -0.234766963626E+03    0.10114E-03   -0.22376E-04 37840   0.829E-02    0.680E-02
DAV:  10    -0.234767009962E+03   -0.46336E-04   -0.14003E-04 39808   0.332E-02    0.115E-01
DAV:  11    -0.234767009654E+03    0.30812E-06   -0.22871E-05 25264   0.235E-02
  11 F= -.23476701E+03 E0= -.23476282E+03  d E =-.373943E-01  mag=     0.1394
       N       E                     dE             d eps       ncg     rms          rms(c)
DAV:   1    -0.234451479208E+03    0.31553E+00   -0.63502E+01 35128   0.320E+01    0.295E+00
DAV:   2    -0.234797464455E+03   -0.34599E+00   -0.34397E+00 36016   0.560E+00    0.160E+00
DAV:   3    -0.234813328564E+03   -0.15864E-01   -0.11972E-01 44960   0.128E+00    0.499E+00
DAV:   4    -0.234794366967E+03    0.18962E-01   -0.25432E-02 39712   0.848E-01    0.779E-01
DAV:   5    -0.234801227692E+03   -0.68607E-02   -0.15371E-02 40912   0.437E-01    0.119E+00
DAV:   6    -0.234799698430E+03    0.15293E-02   -0.68205E-03 41400   0.420E-01    0.805E-01
DAV:   7    -0.234798900753E+03    0.79768E-03   -0.27668E-03 41768   0.213E-01    0.237E-01
DAV:   8    -0.234799222207E+03   -0.32145E-03   -0.65018E-04 42760   0.110E-01    0.224E-01
DAV:   9    -0.234799211910E+03    0.10297E-04   -0.25927E-04 37088   0.792E-02    0.106E-01
DAV:  10    -0.234799212758E+03   -0.84721E-06   -0.11033E-04 35968   0.412E-02    0.702E-02
DAV:  11    -0.234799210001E+03    0.27562E-05   -0.25043E-05 25232   0.240E-02
  12 F= -.23479921E+03 E0= -.23479549E+03  d E =-.322003E-01  mag=     0.1129
       N       E                     dE             d eps       ncg     rms          rms(c)
DAV:   1    -0.234769080850E+03    0.30132E-01   -0.17749E+01 34584   0.141E+01    0.185E+00
DAV:   2    -0.234831398566E+03   -0.62318E-01   -0.63513E-01 37140   0.248E+00    0.220E+00
DAV:   3    -0.234834933125E+03   -0.35346E-02   -0.67802E-02 41232   0.123E+00    0.454E+00
DAV:   4    -0.234820456941E+03    0.14476E-01   -0.15027E-02 39608   0.828E-01    0.107E+00
DAV:   5    -0.234826255145E+03   -0.57982E-02   -0.23604E-02 42864   0.434E-01    0.103E+00
DAV:   6    -0.234825036613E+03    0.12185E-02   -0.28253E-03 42312   0.317E-01    0.418E-01
DAV:   7    -0.234825062442E+03   -0.25829E-04   -0.24132E-03 42448   0.173E-01    0.316E-01
DAV:   8    -0.234825111869E+03   -0.49427E-04   -0.48817E-04 38024   0.104E-01    0.240E-01
DAV:   9    -0.234825059529E+03    0.52340E-04   -0.23532E-04 43016   0.592E-02    0.519E-02
DAV:  10    -0.234825095884E+03   -0.36355E-04   -0.53201E-05 35760   0.289E-02    0.118E-01
DAV:  11    -0.234825078550E+03    0.17334E-04   -0.15104E-05 25176   0.211E-02    0.500E-02
DAV:  12    -0.234825080966E+03   -0.24165E-05   -0.11943E-05 21744   0.125E-02
  13 F= -.23482508E+03 E0= -.23482059E+03  d E =-.258710E-01  mag=     0.1360
       N       E                     dE             d eps       ncg     rms          rms(c)
DAV:   1    -0.234803923475E+03    0.21155E-01   -0.44615E+00 35528   0.898E+00    0.115E+00
DAV:   2    -0.234834162792E+03   -0.30239E-01   -0.28252E-01 36168   0.163E+00    0.241E+00
DAV:   3    -0.234832056899E+03    0.21059E-02   -0.25668E-02 40280   0.782E-01    0.131E+00
DAV:   4    -0.234832517512E+03   -0.46061E-03   -0.32201E-03 39136   0.348E-01    0.838E-01
DAV:   5    -0.234831470576E+03    0.10469E-02   -0.25616E-03 46592   0.210E-01    0.249E-01
DAV:   6    -0.234831809916E+03   -0.33934E-03   -0.11035E-03 38544   0.125E-01    0.424E-01
DAV:   7    -0.234831653173E+03    0.15674E-03   -0.39011E-04 40208   0.906E-02    0.255E-01
DAV:   8    -0.234831635275E+03    0.17898E-04   -0.15284E-04 39400   0.470E-02    0.499E-02
DAV:   9    -0.234831679630E+03   -0.44355E-04   -0.32995E-05 30360   0.286E-02    0.590E-02
DAV:  10    -0.234831675367E+03    0.42637E-05   -0.11741E-05 23192   0.165E-02
  14 F= -.23483168E+03 E0= -.23482761E+03  d E =-.659440E-02  mag=     0.1232
       N       E                     dE             d eps       ncg     rms          rms(c)
DAV:   1    -0.234831802417E+03   -0.12279E-03   -0.33704E+00 35632   0.626E+00    0.587E-01
DAV:   2    -0.234844758063E+03   -0.12956E-01   -0.12306E-01 36772   0.106E+00    0.149E+00
DAV:   3    -0.234843507605E+03    0.12505E-02   -0.84659E-03 39936   0.460E-01    0.636E-01
DAV:   4    -0.234843794796E+03   -0.28719E-03   -0.11573E-03 37916   0.196E-01    0.383E-01
DAV:   5    -0.234843549176E+03    0.24562E-03   -0.60086E-04 44760   0.106E-01    0.148E-01
DAV:   6    -0.234843641040E+03   -0.91864E-04   -0.46756E-04 39976   0.781E-02    0.331E-01
DAV:   7    -0.234843539993E+03    0.10105E-03   -0.15138E-04 38336   0.654E-02    0.171E-01
DAV:   8    -0.234843542516E+03   -0.25234E-05   -0.70348E-05 30816   0.284E-02
  15 F= -.23484354E+03 E0= -.23483968E+03  d E =-.118671E-01  mag=     0.1140
       N       E                     dE             d eps       ncg     rms          rms(c)
DAV:   1    -0.233480305507E+03    0.13632E+01   -0.37323E+02 35176   0.652E+01    0.612E+00
DAV:   2    -0.234923512876E+03   -0.14432E+01   -0.14851E+01 36256   0.113E+01    0.434E+00
DAV:   3    -0.234949130714E+03   -0.25618E-01   -0.57422E-01 43600   0.329E+00    0.106E+01
DAV:   4    -0.234872035351E+03    0.77095E-01   -0.12015E-01 41188   0.189E+00    0.245E+00
DAV:   5    -0.234899184912E+03   -0.27150E-01   -0.54574E-02 40560   0.894E-01    0.219E+00
DAV:   6    -0.234886829768E+03    0.12355E-01   -0.31241E-02 42808   0.825E-01    0.123E+00
DAV:   7    -0.234884756784E+03    0.20730E-02   -0.20987E-02 38288   0.617E-01    0.831E-01
DAV:   8    -0.234884749488E+03    0.72962E-05   -0.60660E-03 41048   0.366E-01    0.520E-01
DAV:   9    -0.234884610423E+03    0.13907E-03   -0.11984E-03 44736   0.172E-01    0.150E-01
DAV:  10    -0.234884721678E+03   -0.11126E-03   -0.33390E-04 38232   0.782E-02    0.117E-01
DAV:  11    -0.234884694521E+03    0.27157E-04   -0.15604E-04 39496   0.537E-02    0.702E-02
DAV:  12    -0.234884692571E+03    0.19500E-05   -0.84923E-05 31672   0.332E-02
  16 F= -.23488469E+03 E0= -.23488164E+03  d E =-.411501E-01  mag=     0.0753
       N       E                     dE             d eps       ncg     rms          rms(c)
DAV:   1    -0.233247241864E+03    0.16375E+01   -0.36531E+02 35168   0.679E+01    0.777E+00
DAV:   2    -0.234853317451E+03   -0.16061E+01   -0.16432E+01 36160   0.120E+01    0.397E+00
DAV:   3    -0.234879844942E+03   -0.26527E-01   -0.59336E-01 44104   0.311E+00    0.825E+00
DAV:   4    -0.234836849343E+03    0.42996E-01   -0.28188E-01 41984   0.205E+00    0.259E+00
DAV:   5    -0.234843948951E+03   -0.70996E-02   -0.32291E-02 39240   0.929E-01    0.193E+00
DAV:   6    -0.234834723264E+03    0.92257E-02   -0.24081E-02 43072   0.782E-01    0.123E+00
DAV:   7    -0.234833101750E+03    0.16215E-02   -0.10648E-02 43296   0.485E-01    0.412E-01
DAV:   8    -0.234833623765E+03   -0.52202E-03   -0.20274E-03 38592   0.172E-01    0.265E-01
DAV:   9    -0.234833631025E+03   -0.72603E-05   -0.23272E-04 42680   0.636E-02    0.185E-01
DAV:  10    -0.234833580867E+03    0.50158E-04   -0.10830E-04 39624   0.442E-02    0.712E-02
DAV:  11    -0.234833587002E+03   -0.61349E-05   -0.57361E-05 38160   0.264E-02
  17 F= -.23483359E+03 E0= -.23483129E+03  d E =0.511056E-01  mag=     0.0387
       N       E                     dE             d eps       ncg     rms          rms(c)
DAV:   1    -0.233841826393E+03    0.99175E+00   -0.28168E+02 34976   0.577E+01    0.652E+00
DAV:   2    -0.234900511691E+03   -0.10587E+01   -0.10915E+01 35680   0.974E+00    0.263E+00
DAV:   3    -0.234891133033E+03    0.93787E-02   -0.28641E-01 42232   0.186E+00    0.156E+00
DAV:   4    -0.234885075433E+03    0.60576E-02   -0.62769E-02 45744   0.116E+00    0.278E+00
DAV:   5    -0.234878701229E+03    0.63742E-02   -0.43907E-02 44928   0.105E+00    0.107E+00
DAV:   6    -0.234878210458E+03    0.49077E-03   -0.76111E-03 39016   0.459E-01    0.531E-01
DAV:   7    -0.234877762341E+03    0.44812E-03   -0.38220E-03 46320   0.255E-01    0.296E-01
DAV:   8    -0.234877821326E+03   -0.58985E-04   -0.80227E-04 41160   0.132E-01    0.109E-01
DAV:   9    -0.234877837427E+03   -0.16101E-04   -0.14473E-04 39880   0.646E-02    0.710E-02
DAV:  10    -0.234877835039E+03    0.23878E-05   -0.56109E-05 37232   0.346E-02
  18 F= -.23487784E+03 E0= -.23487643E+03  d E =-.442480E-01  mag=     0.0286
       N       E                     dE             d eps       ncg     rms          rms(c)
DAV:   1    -0.234188970914E+03    0.68887E+00   -0.14823E+02 34784   0.448E+01    0.616E+00
DAV:   2    -0.234891348039E+03   -0.70238E+00   -0.70718E+00 37608   0.851E+00    0.564E+00
DAV:   3    -0.234876263407E+03    0.15085E-01   -0.56052E-01 40368   0.383E+00    0.569E+00
DAV:   4    -0.234861757981E+03    0.14505E-01   -0.40274E-01 43152   0.189E+00    0.270E+00
DAV:   5    -0.234857857595E+03    0.39004E-02   -0.27512E-02 41848   0.981E-01    0.159E+00
DAV:   6    -0.234851887082E+03    0.59705E-02   -0.36568E-02 45688   0.823E-01    0.101E+00
DAV:   7    -0.234853170513E+03   -0.12834E-02   -0.13346E-02 39088   0.482E-01    0.153E+00
DAV:   8    -0.234850655579E+03    0.25149E-02   -0.13999E-02 39912   0.432E-01    0.434E-01
DAV:   9    -0.234851665071E+03   -0.10095E-02   -0.31558E-03 43520   0.242E-01    0.388E-01
DAV:  10    -0.234851382734E+03    0.28234E-03   -0.89839E-04 42192   0.138E-01    0.168E-01
DAV:  11    -0.234851402962E+03   -0.20228E-04   -0.10950E-04 37120   0.509E-02    0.136E-01
DAV:  12    -0.234851391946E+03    0.11016E-04   -0.17163E-04 43024   0.529E-02    0.934E-02
DAV:  13    -0.234851389586E+03    0.23606E-05   -0.29494E-05 27736   0.291E-02
  19 F= -.23485139E+03 E0= -.23484766E+03  d E =0.264455E-01  mag=     0.1031
       N       E                     dE             d eps       ncg     rms          rms(c)
DAV:   1    -0.234294711677E+03    0.55668E+00   -0.15763E+02 34688   0.445E+01    0.454E+00
DAV:   2    -0.234929072829E+03   -0.63436E+00   -0.65414E+00 35696   0.767E+00    0.246E+00
DAV:   3    -0.234937884726E+03   -0.88119E-02   -0.19515E-01 45480   0.197E+00    0.236E+00
DAV:   4    -0.234928642661E+03    0.92421E-02   -0.49193E-02 43632   0.113E+00    0.159E+00
DAV:   5    -0.234926035640E+03    0.26070E-02   -0.45541E-02 44816   0.759E-01    0.131E+00
DAV:   6    -0.234925665249E+03    0.37039E-03   -0.80519E-03 41712   0.484E-01    0.150E+00
DAV:   7    -0.234922733430E+03    0.29318E-02   -0.13593E-02 43848   0.603E-01    0.937E-01
DAV:   8    -0.234922322114E+03    0.41132E-03   -0.38879E-03 41040   0.337E-01    0.461E-01
DAV:   9    -0.234922193791E+03    0.12832E-03   -0.11865E-03 46688   0.146E-01    0.130E-01
DAV:  10    -0.234922257060E+03   -0.63269E-04   -0.23426E-04 38728   0.659E-02    0.543E-02
DAV:  11    -0.234922259154E+03   -0.20937E-05   -0.43533E-05 36136   0.274E-02
  20 F= -.23492226E+03 E0= -.23491957E+03  d E =-.708696E-01  mag=     0.0639
       N       E                     dE             d eps       ncg     rms          rms(c)
DAV:   1    -0.234780003715E+03    0.14225E+00   -0.26298E+01 35200   0.186E+01    0.309E+00
DAV:   2    -0.234896825532E+03   -0.11682E+00   -0.12114E+00 38752   0.328E+00    0.151E+00
DAV:   3    -0.234899961265E+03   -0.31357E-02   -0.72968E-02 42856   0.133E+00    0.187E+00
DAV:   4    -0.234893573231E+03    0.63880E-02   -0.21118E-02 42832   0.830E-01    0.508E-01
DAV:   5    -0.234893455978E+03    0.11725E-03   -0.62049E-03 40336   0.315E-01    0.613E-01
DAV:   6    -0.234893064502E+03    0.39148E-03   -0.26642E-03 45408   0.255E-01    0.236E-01
DAV:   7    -0.234893141185E+03   -0.76682E-04   -0.88581E-04 45280   0.113E-01    0.197E-01
DAV:   8    -0.234893097119E+03    0.44066E-04   -0.29969E-04 40600   0.840E-02    0.596E-02
DAV:   9    -0.234893101486E+03   -0.43670E-05   -0.48940E-05 35384   0.371E-02
  21 F= -.23489310E+03 E0= -.23489154E+03  d E =0.291577E-01  mag=     0.0241
       N       E                     dE             d eps       ncg     rms          rms(c)
DAV:   1    -0.234841559257E+03    0.51538E-01   -0.21454E+01 34664   0.165E+01    0.237E+00
DAV:   2    -0.234929483392E+03   -0.87924E-01   -0.91323E-01 37992   0.289E+00    0.133E+00
DAV:   3    -0.234934883201E+03   -0.53998E-02   -0.54535E-02 42976   0.107E+00    0.359E+00
DAV:   4    -0.234924318103E+03    0.10565E-01   -0.26260E-02 40552   0.807E-01    0.687E-01
DAV:   5    -0.234927310732E+03   -0.29926E-02   -0.55851E-03 40728   0.365E-01    0.606E-01
DAV:   6    -0.234926749918E+03    0.56081E-03   -0.33055E-03 43456   0.262E-01    0.245E-01
DAV:   7    -0.234926830024E+03   -0.80105E-04   -0.64960E-04 39976   0.109E-01    0.108E-01
DAV:   8    -0.234926838152E+03   -0.81288E-05   -0.17632E-04 40120   0.602E-02    0.598E-02
DAV:   9    -0.234926838132E+03    0.20671E-07   -0.48472E-05 30872   0.326E-02
  22 F= -.23492684E+03 E0= -.23492450E+03  d E =-.337366E-01  mag=     0.0571
       N       E                     dE             d eps       ncg     rms          rms(c)
DAV:   1    -0.234927228357E+03   -0.39020E-03   -0.16936E-01 35096   0.153E+00    0.206E-01
DAV:   2    -0.234928156386E+03   -0.92803E-03   -0.88598E-03 38048   0.276E-01    0.284E-01
DAV:   3    -0.234928137804E+03    0.18582E-04   -0.75598E-04 39608   0.138E-01    0.208E-01
DAV:   4    -0.234928105282E+03    0.32522E-04   -0.17768E-04 36584   0.706E-02    0.720E-02
DAV:   5    -0.234928099986E+03    0.52959E-05   -0.61724E-05 30112   0.346E-02
  23 F= -.23492810E+03 E0= -.23492564E+03  d E =-.126185E-02  mag=     0.0551
       N       E                     dE             d eps       ncg     rms          rms(c)
DAV:   1    -0.234804063867E+03    0.12404E+00   -0.33550E+01 36312   0.206E+01    0.171E+00
DAV:   2    -0.234939529414E+03   -0.13547E+00   -0.13461E+00 36572   0.339E+00    0.111E+00
DAV:   3    -0.234943230049E+03   -0.37006E-02   -0.49490E-02 43440   0.884E-01    0.137E+00
DAV:   4    -0.234940293491E+03    0.29366E-02   -0.10886E-02 40904   0.536E-01    0.411E-01
DAV:   5    -0.234939586186E+03    0.70730E-03   -0.29085E-03 39864   0.217E-01    0.436E-01
DAV:   6    -0.234939389288E+03    0.19690E-03   -0.20846E-03 45400   0.221E-01    0.339E-01
DAV:   7    -0.234939352645E+03    0.36643E-04   -0.13558E-03 44360   0.141E-01    0.212E-01
DAV:   8    -0.234939318289E+03    0.34355E-04   -0.33703E-04 42632   0.896E-02    0.539E-02
DAV:   9    -0.234939332337E+03   -0.14048E-04   -0.55319E-05 37384   0.321E-02    0.361E-02
DAV:  10    -0.234939330878E+03    0.14585E-05   -0.10005E-05 22144   0.176E-02
  24 F= -.23493933E+03 E0= -.23493703E+03  d E =-.112309E-01  mag=     0.0461
       N       E                     dE             d eps       ncg     rms          rms(c)
DAV:   1    -0.234041309520E+03    0.89802E+00   -0.21232E+02 35088   0.511E+01    0.534E+00
DAV:   2    -0.234911815802E+03   -0.87051E+00   -0.88698E+00 37820   0.899E+00    0.338E+00
DAV:   3    -0.234924284354E+03   -0.12469E-01   -0.24897E-01 44008   0.260E+00    0.317E+00
DAV:   4    -0.234905657362E+03    0.18627E-01   -0.64442E-02 43144   0.147E+00    0.138E+00
DAV:   5    -0.234899565670E+03    0.60917E-02   -0.20474E-02 45192   0.729E-01    0.140E+00
DAV:   6    -0.234896985704E+03    0.25800E-02   -0.13522E-02 42976   0.610E-01    0.765E-01
DAV:   7    -0.234896921793E+03    0.63911E-04   -0.55333E-03 39928   0.403E-01    0.299E-01
DAV:   8    -0.234897056005E+03   -0.13421E-03   -0.11687E-03 39832   0.153E-01    0.122E-01
DAV:   9    -0.234897051503E+03    0.45021E-05   -0.15202E-04 39760   0.511E-02    0.623E-02
DAV:  10    -0.234897036055E+03    0.15448E-04   -0.63739E-05 37344   0.378E-02    0.429E-02
DAV:  11    -0.234897037126E+03   -0.10707E-05   -0.32363E-05 28016   0.297E-02
  25 F= -.23489704E+03 E0= -.23489501E+03  d E =0.422938E-01  mag=     0.0539
       N       E                     dE             d eps       ncg     rms          rms(c)
DAV:   1    -0.234680051701E+03    0.21698E+00   -0.61318E+01 35840   0.279E+01    0.382E+00
DAV:   2    -0.234955092633E+03   -0.27504E+00   -0.27589E+00 38572   0.501E+00    0.262E+00
DAV:   3    -0.234959820659E+03   -0.47280E-02   -0.17514E-01 39800   0.198E+00    0.435E+00
DAV:   4    -0.234947331783E+03    0.12489E-01   -0.15367E-01 42552   0.130E+00    0.144E+00
DAV:   5    -0.234949282972E+03   -0.19512E-02   -0.80400E-03 41192   0.481E-01    0.944E-01
DAV:   6    -0.234946153639E+03    0.31293E-02   -0.86699E-03 47384   0.402E-01    0.315E-01
DAV:   7    -0.234946402622E+03   -0.24898E-03   -0.31690E-03 40912   0.205E-01    0.303E-01
DAV:   8    -0.234946343799E+03    0.58823E-04   -0.13429E-03 39760   0.171E-01    0.190E-01
DAV:   9    -0.234946300533E+03    0.43266E-04   -0.28338E-04 45336   0.862E-02    0.981E-02
DAV:  10    -0.234946301370E+03   -0.83663E-06   -0.55476E-05 38480   0.393E-02
  26 F= -.23494630E+03 E0= -.23494428E+03  d E =-.492642E-01  mag=     0.0349
       N       E                     dE             d eps       ncg     rms          rms(c)
DAV:   1    -0.234907395689E+03    0.38905E-01   -0.10809E+01 35272   0.112E+01    0.177E+00
DAV:   2    -0.234945550225E+03   -0.38155E-01   -0.40349E-01 39128   0.194E+00    0.859E-01
DAV:   3    -0.234946475940E+03   -0.92572E-03   -0.17870E-02 45816   0.650E-01    0.179E+00
DAV:   4    -0.234943878675E+03    0.25973E-02   -0.10117E-02 43104   0.554E-01    0.638E-01
DAV:   5    -0.234944323167E+03   -0.44449E-03   -0.28400E-03 41352   0.275E-01    0.432E-01
DAV:   6    -0.234944099359E+03    0.22381E-03   -0.12542E-03 45024   0.159E-01    0.225E-01
DAV:   7    -0.234944082868E+03    0.16491E-04   -0.29741E-04 43312   0.796E-02    0.613E-02
DAV:   8    -0.234944102211E+03   -0.19343E-04   -0.58364E-05 37488   0.328E-02    0.368E-02
DAV:   9    -0.234944100982E+03    0.12296E-05   -0.11250E-05 22696   0.169E-02
  27 F= -.23494410E+03 E0= -.23494187E+03  d E =0.220039E-02  mag=     0.0524
       N       E                     dE             d eps       ncg     rms          rms(c)
DAV:   1    -0.234942073669E+03    0.20285E-02   -0.22392E+00 35072   0.521E+00    0.991E-01
DAV:   2    -0.234950998854E+03   -0.89252E-02   -0.95083E-02 39120   0.943E-01    0.572E-01
DAV:   3    -0.234951716059E+03   -0.71721E-03   -0.85510E-03 42352   0.477E-01    0.905E-01
DAV:   4    -0.234950430716E+03    0.12853E-02   -0.38288E-03 43008   0.336E-01    0.213E-01
DAV:   5    -0.234950486563E+03   -0.55847E-04   -0.86779E-04 44048   0.138E-01    0.230E-01
DAV:   6    -0.234950436757E+03    0.49806E-04   -0.34261E-04 43784   0.826E-02    0.103E-01
DAV:   7    -0.234950431816E+03    0.49409E-05   -0.62996E-05 37920   0.437E-02
  28 F= -.23495043E+03 E0= -.23494840E+03  d E =-.633083E-02  mag=     0.0409
       N       E                     dE             d eps       ncg     rms          rms(c)
DAV:   1    -0.234948878650E+03    0.15581E-02   -0.69813E-01 35072   0.292E+00    0.297E-01
DAV:   2    -0.234951601496E+03   -0.27228E-02   -0.27847E-02 38776   0.509E-01    0.216E-01
DAV:   3    -0.234951688641E+03   -0.87146E-04   -0.12735E-03 43400   0.159E-01    0.298E-01
DAV:   4    -0.234951568578E+03    0.12006E-03   -0.42839E-04 41896   0.108E-01    0.805E-02
DAV:   5    -0.234951567820E+03    0.75870E-06   -0.11829E-04 39776   0.475E-02    0.809E-02
DAV:   6    -0.234951561516E+03    0.63038E-05   -0.68820E-05 33184   0.374E-02
  29 F= -.23495156E+03 E0= -.23494941E+03  d E =-.112970E-02  mag=     0.0430
       N       E                     dE             d eps       ncg     rms          rms(c)
DAV:   1    -0.234740067576E+03    0.21150E+00   -0.52203E+01 34288   0.256E+01    0.206E+00
DAV:   2    -0.234952909523E+03   -0.21284E+00   -0.21524E+00 36660   0.447E+00    0.126E+00
DAV:   3    -0.234956507857E+03   -0.35983E-02   -0.64957E-02 42584   0.993E-01    0.137E+00
DAV:   4    -0.234953411496E+03    0.30964E-02   -0.15103E-02 41048   0.607E-01    0.572E-01
DAV:   5    -0.234952129058E+03    0.12824E-02   -0.53172E-03 41224   0.326E-01    0.576E-01
DAV:   6    -0.234951419732E+03    0.70933E-03   -0.35770E-03 44376   0.273E-01    0.257E-01
DAV:   7    -0.234951461781E+03   -0.42049E-04   -0.88458E-04 37552   0.130E-01    0.949E-02
DAV:   8    -0.234951489945E+03   -0.28163E-04   -0.20646E-04 41168   0.617E-02    0.644E-02
DAV:   9    -0.234951488942E+03    0.10027E-05   -0.32412E-05 30848   0.344E-02
  30 F= -.23495149E+03 E0= -.23494944E+03  d E =0.725736E-04  mag=     0.0367
       N       E                     dE             d eps       ncg     rms          rms(c)
DAV:   1    -0.231021300100E+03    0.39302E+01   -0.22567E+02 36168   0.495E+01    0.276E+01
DAV:   2    -0.232198655945E+03   -0.11774E+01   -0.13838E+01 40704   0.120E+01    0.121E+01
DAV:   3    -0.232328908323E+03   -0.13025E+00   -0.26711E+00 40368   0.108E+01    0.227E+01
DAV:   4    -0.231871551575E+03    0.45736E+00   -0.12261E+00 41656   0.773E+00    0.638E+00
DAV:   5    -0.231806525951E+03    0.65026E-01   -0.22060E-01 42504   0.340E+00    0.380E+00
DAV:   6    -0.231845678497E+03   -0.39153E-01   -0.16210E-01 47256   0.176E+00    0.122E+01
DAV:   7    -0.231736185019E+03    0.10949E+00   -0.72109E-02 37648   0.184E+00    0.241E+00
DAV:   8    -0.231786557659E+03   -0.50373E-01   -0.41229E-02 42344   0.811E-01    0.273E+00
DAV:   9    -0.231794470857E+03   -0.79132E-02   -0.67375E-03 35976   0.491E-01    0.272E+00
DAV:  10    -0.231784874495E+03    0.95964E-02   -0.55606E-03 47088   0.407E-01    0.576E-01
DAV:  11    -0.231789454100E+03   -0.45796E-02   -0.22542E-03 39816   0.193E-01    0.191E+00
DAV:  12    -0.231787004571E+03    0.24495E-02   -0.15628E-03 37040   0.278E-01    0.597E-01
DAV:  13    -0.231788153125E+03   -0.11486E-02   -0.72292E-04 44232   0.914E-02    0.607E-01
DAV:  14    -0.231788448680E+03   -0.29555E-03   -0.24276E-04 35424   0.994E-02    0.667E-01
DAV:  15    -0.231788065894E+03    0.38279E-03   -0.15606E-04 43440   0.693E-02    0.117E-01
DAV:  16    -0.231788293884E+03   -0.22799E-03   -0.53516E-05 32856   0.305E-02    0.193E-01
DAV:  17    -0.231788322924E+03   -0.29039E-04   -0.15226E-05 24744   0.240E-02    0.261E-01
DAV:  18    -0.231788275708E+03    0.47216E-04   -0.68637E-06 24752   0.162E-02    0.168E-01
DAV:  19    -0.231788280027E+03   -0.43189E-05   -0.77268E-06 22432   0.133E-02
  31 F= -.23178828E+03 E0= -.23178021E+03  d E =0.316321E+01  mag=     0.3284
       N       E                     dE             d eps       ncg     rms          rms(c)
DAV:   1    -0.234078782604E+03   -0.22905E+01   -0.58479E+01 34272   0.212E+01    0.135E+01
DAV:   2    -0.234406504190E+03   -0.32772E+00   -0.39583E+00 40528   0.524E+00    0.139E+01
DAV:   3    -0.234522344268E+03   -0.11584E+00   -0.72241E-01 41048   0.636E+00    0.124E+01
DAV:   4    -0.234391111854E+03    0.13123E+00   -0.18442E-01 41512   0.367E+00    0.830E+00
DAV:   5    -0.234360661091E+03    0.30451E-01   -0.21711E-01 42520   0.308E+00    0.135E+01
DAV:   6    -0.234232238262E+03    0.12842E+00   -0.13452E-01 40112   0.210E+00    0.212E+00
DAV:   7    -0.234293816609E+03   -0.61578E-01   -0.95177E-02 38200   0.124E+00    0.267E+00
DAV:   8    -0.234294369757E+03   -0.55315E-03   -0.89773E-03 39496   0.503E-01    0.243E+00
DAV:   9    -0.234286142815E+03    0.82269E-02   -0.31366E-03 45960   0.285E-01    0.189E+00
DAV:  10    -0.234282979134E+03    0.31637E-02   -0.47449E-03 46008   0.374E-01    0.901E-01
DAV:  11    -0.234284558255E+03   -0.15791E-02   -0.22184E-03 36712   0.250E-01    0.567E-01
DAV:  12    -0.234284347574E+03    0.21068E-03   -0.20000E-04 44584   0.801E-02    0.517E-02
DAV:  13    -0.234284527617E+03   -0.18004E-03   -0.86075E-05 35896   0.439E-02    0.800E-02
DAV:  14    -0.234284529629E+03   -0.20112E-05   -0.95043E-06 26552   0.190E-02
  32 F= -.23428453E+03 E0= -.23427823E+03  d E =-.249625E+01  mag=     0.2263
       N       E                     dE             d eps       ncg     rms          rms(c)
DAV:   1    -0.234712563411E+03   -0.42804E+00   -0.10923E+01 35904   0.985E+00    0.430E+00
DAV:   2    -0.234778615819E+03   -0.66052E-01   -0.65436E-01 40312   0.243E+00    0.853E+00
DAV:   3    -0.234746800014E+03    0.31816E-01   -0.10724E-01 40376   0.207E+00    0.352E+00
DAV:   4    -0.234761205633E+03   -0.14406E-01   -0.22879E-02 38520   0.798E-01    0.241E+00
DAV:   5    -0.234744091079E+03    0.17115E-01   -0.23597E-02 44560   0.814E-01    0.127E+00
DAV:   6    -0.234744894173E+03   -0.80309E-03   -0.89080E-03 46376   0.507E-01    0.143E+00
DAV:   7    -0.234743897005E+03    0.99717E-03   -0.25459E-03 38160   0.312E-01    0.817E-01
DAV:   8    -0.234743860045E+03    0.36959E-04   -0.15913E-03 48448   0.161E-01    0.444E-01
DAV:   9    -0.234744225165E+03   -0.36512E-03   -0.46165E-04 36224   0.971E-02    0.433E-01
DAV:  10    -0.234744042987E+03    0.18218E-03   -0.10089E-04 38280   0.531E-02    0.241E-01
DAV:  11    -0.234744049843E+03   -0.68560E-05   -0.80449E-05 37080   0.351E-02
  33 F= -.23474405E+03 E0= -.23473920E+03  d E =-.459520E+00  mag=     0.1522
       N       E                     dE             d eps       ncg     rms          rms(c)
DAV:   1    -0.234884686749E+03   -0.14064E+00   -0.11447E+01 34704   0.106E+01    0.444E+00
DAV:   2    -0.234940631231E+03   -0.55944E-01   -0.67371E-01 39664   0.243E+00    0.509E+00
DAV:   3    -0.234946440849E+03   -0.58096E-02   -0.18488E-01 40896   0.234E+00    0.356E+00
DAV:   4    -0.234934930795E+03    0.11510E-01   -0.32159E-02 43136   0.107E+00    0.187E+00
DAV:   5    -0.234923086570E+03    0.11844E-01   -0.17808E-02 45264   0.728E-01    0.118E+00
DAV:   6    -0.234923456235E+03   -0.36967E-03   -0.15813E-02 47520   0.582E-01    0.162E+00
DAV:   7    -0.234921532206E+03    0.19240E-02   -0.15133E-02 44040   0.497E-01    0.109E+00
DAV:   8    -0.234920886536E+03    0.64567E-03   -0.80619E-03 42616   0.263E-01    0.346E-01
DAV:   9    -0.234921322318E+03   -0.43578E-03   -0.59809E-04 40424   0.107E-01    0.285E-01
DAV:  10    -0.234921247666E+03    0.74652E-04   -0.21973E-04 39264   0.622E-02    0.130E-01
DAV:  11    -0.234921235160E+03    0.12506E-04   -0.20915E-04 37896   0.520E-02    0.300E-02
DAV:  12    -0.234921243097E+03   -0.79371E-05   -0.19179E-05 24504   0.169E-02
  34 F= -.23492124E+03 E0= -.23491831E+03  d E =-.177193E+00  mag=     0.0658
       N       E                     dE             d eps       ncg     rms          rms(c)
DAV:   1    -0.234938081683E+03   -0.16847E-01   -0.77285E-01 35528   0.306E+00    0.104E+00
DAV:   2    -0.234941599561E+03   -0.35179E-02   -0.41624E-02 39864   0.642E-01    0.872E-01
DAV:   3    -0.234942455125E+03   -0.85556E-03   -0.98703E-03 41768   0.545E-01    0.105E+00
DAV:   4    -0.234941352000E+03    0.11031E-02   -0.64302E-03 44384   0.369E-01    0.649E-01
DAV:   5    -0.234940800723E+03    0.55128E-03   -0.28762E-03 45328   0.213E-01    0.289E-01
DAV:   6    -0.234940896875E+03   -0.96152E-04   -0.54467E-04 45248   0.113E-01    0.215E-01
DAV:   7    -0.234940819324E+03    0.77551E-04   -0.23196E-04 40168   0.775E-02    0.511E-02
DAV:   8    -0.234940829921E+03   -0.10597E-04   -0.40624E-05 30096   0.251E-02    0.549E-02
DAV:   9    -0.234940825353E+03    0.45681E-05   -0.18601E-05 22152   0.195E-02
  35 F= -.23494083E+03 E0= -.23493828E+03  d E =-.195823E-01  mag=     0.0534
       N       E                     dE             d eps       ncg     rms          rms(c)
DAV:   1    -0.234949119786E+03   -0.82899E-02   -0.13045E+00 35416   0.406E+00    0.137E+00
DAV:   2    -0.234955055079E+03   -0.59353E-02   -0.71551E-02 40216   0.818E-01    0.967E-01
DAV:   3    -0.234956897750E+03   -0.18427E-02   -0.18132E-02 41984   0.717E-01    0.133E+00
DAV:   4    -0.234954458890E+03    0.24389E-02   -0.78411E-03 44584   0.458E-01    0.540E-01
DAV:   5    -0.234954001382E+03    0.45751E-03   -0.24835E-03 45320   0.220E-01    0.331E-01
DAV:   6    -0.234954126966E+03   -0.12558E-03   -0.73368E-04 46072   0.129E-01    0.304E-01
DAV:   7    -0.234953982316E+03    0.14465E-03   -0.35954E-04 40984   0.109E-01    0.645E-02
DAV:   8    -0.234954011019E+03   -0.28702E-04   -0.68200E-05 36280   0.331E-02    0.795E-02
DAV:   9    -0.234953998759E+03    0.12259E-04   -0.27529E-05 25416   0.252E-02    0.224E-02
DAV:  10    -0.234954000404E+03   -0.16443E-05   -0.68124E-06 20768   0.920E-03
  36 F= -.23495400E+03 E0= -.23495166E+03  d E =-.131751E-01  mag=     0.0495
       N       E                     dE             d eps       ncg     rms          rms(c)
DAV:   1    -0.234954584874E+03   -0.58611E-03   -0.23671E-02 35780   0.665E-01    0.153E-01
DAV:   2    -0.234954751983E+03   -0.16711E-03   -0.18546E-03 39584   0.130E-01    0.716E-02
DAV:   3    -0.234954757022E+03   -0.50397E-05   -0.16937E-04 39832   0.570E-02    0.101E-01
DAV:   4    -0.234954747782E+03    0.92405E-05   -0.90806E-05 30568   0.428E-02
  37 F= -.23495475E+03 E0= -.23495228E+03  d E =-.747378E-03  mag=     0.0510
       N       E                     dE             d eps       ncg     rms          rms(c)
DAV:   1    -0.234954034289E+03    0.72273E-03   -0.22103E-01 35612   0.219E+00    0.435E-01
DAV:   2    -0.234955816953E+03   -0.17827E-02   -0.18929E-02 39608   0.409E-01    0.192E-01
DAV:   3    -0.234955877428E+03   -0.60475E-04   -0.11628E-03 41256   0.152E-01    0.230E-01
DAV:   4    -0.234955844427E+03    0.33001E-04   -0.44964E-04 43224   0.110E-01    0.183E-01
DAV:   5    -0.234955822682E+03    0.21745E-04   -0.20849E-04 37024   0.717E-02    0.885E-02
DAV:   6    -0.234955818817E+03    0.38654E-05   -0.78111E-05 33504   0.429E-02
  38 F= -.23495582E+03 E0= -.23495351E+03  d E =-.107104E-02  mag=     0.0518
       N       E                     dE             d eps       ncg     rms          rms(c)
DAV:   1    -0.234955533641E+03    0.28904E-03   -0.52567E-02 36476   0.125E+00    0.163E-01
DAV:   2    -0.234956177242E+03   -0.64360E-03   -0.64644E-03 38920   0.227E-01    0.628E-02
DAV:   3    -0.234956208152E+03   -0.30910E-04   -0.27017E-04 40608   0.535E-02    0.381E-02
DAV:   4    -0.234956208637E+03   -0.48490E-06   -0.34103E-05 30416   0.262E-02
  39 F= -.23495621E+03 E0= -.23495398E+03  d E =-.389820E-03  mag=     0.0515
       N       E                     dE             d eps       ncg     rms          rms(c)
DAV:   1    -0.234953933579E+03    0.22746E-02   -0.25718E-01 35628   0.254E+00    0.320E-01
DAV:   2    -0.234956414494E+03   -0.24809E-02   -0.24881E-02 38640   0.469E-01    0.134E-01
DAV:   3    -0.234956495648E+03   -0.81153E-04   -0.10080E-03 39888   0.114E-01    0.870E-02
DAV:   4    -0.234956487478E+03    0.81697E-05   -0.13892E-04 40704   0.536E-02    0.875E-02
DAV:   5    -0.234956478817E+03    0.86611E-05   -0.59925E-05 32944   0.430E-02
  40 F= -.23495648E+03 E0= -.23495404E+03  d E =-.270180E-03  mag=     0.0500
       N       E                     dE             d eps       ncg     rms          rms(c)
DAV:   1    -0.234950952120E+03    0.55354E-02   -0.48401E-01 35424   0.344E+00    0.460E-01
DAV:   2    -0.234955794827E+03   -0.48427E-02   -0.47410E-02 37268   0.647E-01    0.239E-01
DAV:   3    -0.234956099424E+03   -0.30460E-03   -0.24320E-03 42112   0.219E-01    0.485E-01
DAV:   4    -0.234955850185E+03    0.24924E-03   -0.75067E-04 40936   0.145E-01    0.895E-02
DAV:   5    -0.234955880732E+03   -0.30548E-04   -0.12629E-04 39736   0.554E-02    0.819E-02
DAV:   6    -0.234955869969E+03    0.10763E-04   -0.82230E-05 33760   0.424E-02    0.467E-02
DAV:   7    -0.234955870716E+03   -0.74657E-06   -0.30433E-05 25120   0.237E-02
  41 F= -.23495587E+03 E0= -.23495352E+03  d E =0.608101E-03  mag=     0.0498
       N       E                     dE             d eps       ncg     rms          rms(c)
DAV:   1    -0.234955700264E+03    0.16971E-03   -0.83832E-02 36200   0.121E+00    0.248E-01
DAV:   2    -0.234956225415E+03   -0.52515E-03   -0.53075E-03 38616   0.236E-01    0.276E-01
DAV:   3    -0.234956230442E+03   -0.50274E-05   -0.99547E-04 39600   0.157E-01    0.278E-01
DAV:   4    -0.234956145305E+03    0.85137E-04   -0.23679E-04 36920   0.873E-02    0.397E-02
DAV:   5    -0.234956157142E+03   -0.11837E-04   -0.49746E-05 33088   0.275E-02    0.449E-02
DAV:   6    -0.234956155154E+03    0.19882E-05   -0.21445E-05 23488   0.226E-02
  42 F= -.23495616E+03 E0= -.23495378E+03  d E =-.284438E-03  mag=     0.0538
       N       E                     dE             d eps       ncg     rms          rms(c)
DAV:   1    -0.234955597451E+03    0.55969E-03   -0.10846E-01 35912   0.145E+00    0.229E-01
DAV:   2    -0.234956326491E+03   -0.72904E-03   -0.76427E-03 38768   0.270E-01    0.127E-01
DAV:   3    -0.234956409772E+03   -0.83281E-04   -0.64283E-04 41400   0.118E-01    0.304E-01
DAV:   4    -0.234956302294E+03    0.10748E-03   -0.26074E-04 37040   0.860E-02    0.369E-02
DAV:   5    -0.234956321161E+03   -0.18867E-04   -0.39751E-05 30720   0.226E-02    0.490E-02
DAV:   6    -0.234956318176E+03    0.29845E-05   -0.17315E-05 22176   0.205E-02
  43 F= -.23495632E+03 E0= -.23495391E+03  d E =-.163022E-03  mag=     0.0535
       N       E                     dE             d eps       ncg     rms          rms(c)
DAV:   1    -0.234948993066E+03    0.73281E-02   -0.10990E+00 35064   0.432E+00    0.476E-01
DAV:   2    -0.234955303439E+03   -0.63104E-02   -0.63432E-02 36612   0.775E-01    0.261E-01
DAV:   3    -0.234955640550E+03   -0.33711E-03   -0.28940E-03 43016   0.237E-01    0.550E-01
DAV:   4    -0.234955313081E+03    0.32747E-03   -0.91300E-04 39584   0.158E-01    0.968E-02
DAV:   5    -0.234955347572E+03   -0.34491E-04   -0.15828E-04 39240   0.544E-02    0.969E-02
DAV:   6    -0.234955336113E+03    0.11459E-04   -0.90708E-05 39256   0.439E-02    0.479E-02
DAV:   7    -0.234955338263E+03   -0.21506E-05   -0.37559E-05 26696   0.260E-02
  44 F= -.23495534E+03 E0= -.23495290E+03  d E =0.979913E-03  mag=     0.0533
       N       E                     dE             d eps       ncg     rms          rms(c)
DAV:   1    -0.234760171973E+03    0.19516E+00   -0.33534E+01 34656   0.232E+01    0.217E+00
DAV:   2    -0.234945831816E+03   -0.18566E+00   -0.18356E+00 36152   0.424E+00    0.236E+00
DAV:   3    -0.234946748102E+03   -0.91629E-03   -0.11589E-01 40144   0.160E+00    0.232E+00
DAV:   4    -0.234943111699E+03    0.36364E-02   -0.34839E-02 39648   0.748E-01    0.766E-01
DAV:   5    -0.234942477957E+03    0.63374E-03   -0.49884E-03 42512   0.380E-01    0.375E-01
DAV:   6    -0.234942350826E+03    0.12713E-03   -0.45148E-03 43240   0.256E-01    0.567E-01
DAV:   7    -0.234942006144E+03    0.34468E-03   -0.16847E-03 40216   0.185E-01    0.143E-01
DAV:   8    -0.234942113019E+03   -0.10688E-03   -0.83159E-04 47176   0.877E-02    0.117E-01
DAV:   9    -0.234942119470E+03   -0.64512E-05   -0.15644E-04 37840   0.557E-02    0.117E-01
DAV:  10    -0.234942102211E+03    0.17259E-04   -0.19823E-05 26984   0.276E-02    0.402E-02
DAV:  11    -0.234942105137E+03   -0.29260E-05   -0.20862E-05 24632   0.163E-02
  45 F= -.23494211E+03 E0= -.23493917E+03  d E =0.132331E-01  mag=     0.0684
       N       E                     dE             d eps       ncg     rms          rms(c)
DAV:   1    -0.234874093462E+03    0.68009E-01   -0.53705E+00 35904   0.104E+01    0.245E+00
DAV:   2    -0.234918462937E+03   -0.44369E-01   -0.47147E-01 39272   0.208E+00    0.151E+00
DAV:   3    -0.234931113838E+03   -0.12651E-01   -0.11411E-01 41384   0.120E+00    0.600E+00
DAV:   4    -0.234905104251E+03    0.26010E-01   -0.78972E-02 39368   0.109E+00    0.811E-01
DAV:   5    -0.234917176500E+03   -0.12072E-01   -0.14258E-02 40144   0.414E-01    0.986E-01
DAV:   6    -0.234916029966E+03    0.11465E-02   -0.26731E-03 41248   0.259E-01    0.637E-01
DAV:   7    -0.234915623215E+03    0.40675E-03   -0.20311E-03 47400   0.148E-01    0.262E-01
DAV:   8    -0.234915717889E+03   -0.94674E-04   -0.30010E-04 41584   0.831E-02    0.109E-01
DAV:   9    -0.234915746963E+03   -0.29073E-04   -0.12129E-04 35112   0.559E-02    0.621E-02
DAV:  10    -0.234915747124E+03   -0.16146E-06   -0.98726E-05 33352   0.386E-02
  46 F= -.23491575E+03 E0= -.23491224E+03  d E =0.263580E-01  mag=     0.0839
       N       E                     dE             d eps       ncg     rms          rms(c)
DAV:   1    -0.234904793577E+03    0.10953E-01   -0.98329E+00 34272   0.121E+01    0.226E+00
DAV:   2    -0.234958646181E+03   -0.53853E-01   -0.55123E-01 38816   0.235E+00    0.314E+00
DAV:   3    -0.234958736740E+03   -0.90559E-04   -0.87870E-02 39952   0.139E+00    0.199E+00
DAV:   4    -0.234955484261E+03    0.32525E-02   -0.10769E-02 40360   0.624E-01    0.107E+00
DAV:   5    -0.234952752208E+03    0.27321E-02   -0.61623E-03 45960   0.374E-01    0.449E-01
DAV:   6    -0.234953102238E+03   -0.35003E-03   -0.32587E-03 43936   0.201E-01    0.475E-01
DAV:   7    -0.234952925068E+03    0.17717E-03   -0.70525E-04 39624   0.145E-01    0.200E-01
DAV:   8    -0.234952924032E+03    0.10358E-05   -0.35379E-04 45936   0.670E-02    0.700E-02
DAV:   9    -0.234952942599E+03   -0.18567E-04   -0.52023E-05 36368   0.298E-02    0.622E-02
DAV:  10    -0.234952936072E+03    0.65273E-05   -0.28024E-05 25896   0.218E-02
  47 F= -.23495294E+03 E0= -.23495033E+03  d E =-.371889E-01  mag=     0.0603
       N       E                     dE             d eps       ncg     rms          rms(c)
DAV:   1    -0.234951341126E+03    0.16015E-02   -0.13941E-01 35656   0.182E+00    0.372E-01
DAV:   2    -0.234952651938E+03   -0.13108E-02   -0.13644E-02 38760   0.365E-01    0.370E-01
DAV:   3    -0.234952774905E+03   -0.12297E-03   -0.22632E-03 39488   0.223E-01    0.420E-01
DAV:   4    -0.234952549216E+03    0.22569E-03   -0.55224E-04 41080   0.134E-01    0.871E-02
DAV:   5    -0.234952572363E+03   -0.23147E-04   -0.14974E-04 39568   0.418E-02    0.696E-02
DAV:   6    -0.234952570706E+03    0.16562E-05   -0.39717E-05 28640   0.295E-02
  48 F= -.23495257E+03 E0= -.23495015E+03  d E =0.365365E-03  mag=     0.0531
       N       E                     dE             d eps       ncg     rms          rms(c)
DAV:   1    -0.234952488467E+03    0.83896E-04   -0.30078E-02 34288   0.641E-01    0.156E-01
DAV:   2    -0.234952637937E+03   -0.14947E-03   -0.17390E-03 39008   0.129E-01    0.818E-02
DAV:   3    -0.234952649049E+03   -0.11112E-04   -0.22157E-04 39660   0.650E-02    0.162E-01
DAV:   4    -0.234952621971E+03    0.27078E-04   -0.13282E-04 32408   0.550E-02    0.567E-02
DAV:   5    -0.234952622396E+03   -0.42467E-06   -0.17283E-05 26328   0.256E-02
  49 F= -.23495262E+03 E0= -.23495015E+03  d E =-.516890E-04  mag=     0.0561
       N       E                     dE             d eps       ncg     rms          rms(c)
DAV:   1    -0.234951899365E+03    0.72261E-03   -0.60921E-02 34272   0.101E+00    0.163E-01
DAV:   2    -0.234952283757E+03   -0.38439E-03   -0.38650E-03 36832   0.207E-01    0.255E-01
DAV:   3    -0.234952249407E+03    0.34349E-04   -0.57135E-04 39992   0.119E-01    0.155E-01
DAV:   4    -0.234952230787E+03    0.18620E-04   -0.70935E-05 33736   0.492E-02    0.353E-02
DAV:   5    -0.234952231525E+03   -0.73793E-06   -0.26719E-05 27040   0.179E-02
  50 F= -.23495223E+03 E0= -.23494969E+03  d E =0.390871E-03  mag=     0.0597
