       N       E                     dE             d eps       ncg     rms          rms(c)
DAV:   1     0.301029041175E+04    0.30103E+04   -0.13383E+05 25515   0.174E+03
DAV:   2     0.246850587980E+02   -0.29856E+04   -0.27753E+04 25803   0.470E+02
DAV:   3    -0.413627121717E+03   -0.43831E+03   -0.42386E+03 27234   0.195E+02
DAV:   4    -0.435141987194E+03   -0.21515E+02   -0.21315E+02 30393   0.427E+01
DAV:   5    -0.436156803908E+03   -0.10148E+01   -0.10115E+01 40581   0.717E+00    0.629E+00
DAV:   6    -0.359933751679E+03    0.76223E+02   -0.18205E+01 27351   0.146E+01    0.638E+00
DAV:   7    -0.356690794903E+03    0.32430E+01   -0.23716E+00 29295   0.687E+00    0.291E+00
DAV:   8    -0.356704689812E+03   -0.13895E-01   -0.19434E-01 34884   0.153E+00    0.217E+00
DAV:   9    -0.356656091878E+03    0.48598E-01   -0.10189E-01 28143   0.992E-01    0.126E+00
DAV:  10    -0.356648135449E+03    0.79564E-02   -0.15707E-02 29547   0.403E-01    0.548E-01
DAV:  11    -0.356642518479E+03    0.56170E-02   -0.14857E-02 28962   0.352E-01    0.188E-01
DAV:  12    -0.356642028478E+03    0.49000E-03   -0.78858E-04 32877   0.830E-02    0.109E-01
DAV:  13    -0.356641475642E+03    0.55284E-03   -0.34094E-04 29916   0.659E-02    0.530E-02
DAV:  14    -0.356641673022E+03   -0.19738E-03   -0.33865E-05 23310   0.253E-02    0.232E-02
DAV:  15    -0.356641567495E+03    0.10553E-03   -0.10205E-05 17019   0.135E-02    0.136E-02
DAV:  16    -0.356641554265E+03    0.13231E-04   -0.72391E-06 15444   0.814E-03    0.116E-02
DAV:  17    -0.356641563050E+03   -0.87851E-05   -0.12739E-06 15336   0.538E-03
   1 F= -.35664156E+03 E0= -.35664156E+03  d E =-.356642E+03  mag=    12.0000
