       N       E                     dE             d eps       ncg     rms          ort
DAV:   1     0.293635016304E+04    0.29364E+04   -0.13758E+05 10584   0.176E+03
DAV:   2    -0.249503436247E+02   -0.29613E+04   -0.27163E+04 10584   0.455E+02
DAV:   3    -0.428133519687E+03   -0.40318E+03   -0.39462E+03 10584   0.191E+02
DAV:   4    -0.445116291208E+03   -0.16983E+02   -0.16612E+02 10584   0.384E+01
DAV:   5    -0.445697100547E+03   -0.58081E+00   -0.57535E+00 10584   0.581E+00
SDA:   6    -0.233973131706E+03    0.21172E+03   -0.57535E+00 10584   0.137E+04 0.000E+00
CGA:   7    -0.218893090260E+03    0.15080E+02   -0.11911E+03 10584   0.587E+03-0.818E+02
CGA:   8    -0.297915435780E+03   -0.79022E+02   -0.14176E+02 10584   0.297E+04-0.553E+04
CGA:   9    -0.218859067322E+03    0.79056E+02   -0.20993E+03 10584   0.542E+03-0.177E+03
CGA:  10    -0.270477878051E+03   -0.51619E+02   -0.11054E+02 10584   0.432E+04 0.695E+04
CGA:  11    -0.239371636838E+03    0.31106E+02   -0.26209E+03 10584   0.428E+03-0.308E+03
CGA:  12    -0.251469269839E+03   -0.12098E+02   -0.62761E+01 10584   0.384E+03 0.392E+03
CGA:  13    -0.264633682356E+03   -0.13164E+02   -0.53428E+01 10584   0.987E+03 0.110E+04
CGA:  14    -0.245851362957E+03    0.18782E+02   -0.25946E+02 10584   0.862E+03-0.750E+03
CGA:  15    -0.264407008225E+03   -0.18556E+02   -0.20299E+02 10584   0.570E+03-0.625E+03
CGA:  16    -0.309694555434E+03   -0.45288E+02   -0.90035E+01 10584   0.227E+04-0.360E+04
CGA:  17    -0.259539361284E+03    0.50155E+02   -0.11940E+03 10584   0.708E+03-0.228E+03
CGA:  18    -0.271994717526E+03   -0.12455E+02   -0.10477E+02 10584   0.211E+04-0.127E+04
CGA:  19    -0.249058294641E+03    0.22936E+02   -0.83845E+02 10584   0.427E+03-0.344E+03
CGA:  20    -0.289264665697E+03   -0.40206E+02   -0.58501E+01 10584   0.344E+04 0.552E+04
CGA:  21    -0.249920579721E+03    0.39344E+02   -0.17347E+03 10584   0.390E+03-0.265E+03
CGA:  22    -0.306885271027E+03   -0.56965E+02   -0.91604E+01 10584   0.265E+04 0.516E+04
CGA:  23    -0.251956216266E+03    0.54929E+02   -0.12377E+03 10584   0.467E+03-0.221E+03
CGA:  24    -0.277673523053E+03   -0.25717E+02   -0.10423E+02 10584   0.255E+04 0.130E+04
CGA:  25    -0.237660815244E+03    0.40013E+02   -0.11013E+03 10584   0.458E+03-0.331E+03
CGA:  26    -0.265169647327E+03   -0.27509E+02   -0.15720E+02 10584   0.418E+03-0.458E+03
CGA:  27    -0.254638247346E+03    0.10531E+02   -0.10539E+02 10584   0.122E+04-0.111E+04
CGA:  28    -0.254676696901E+03   -0.38450E-01   -0.46356E+02 10584   0.380E+03-0.364E+03
CGA:  29    -0.322411989208E+03   -0.67735E+02   -0.73713E+01 10584   0.160E+04 0.275E+04
CGA:  30    -0.291938483755E+03    0.30474E+02   -0.56892E+02 10584   0.663E+03-0.220E+03
CGA:  31    -0.279800349317E+03    0.12138E+02   -0.16025E+02 10584   0.321E+04-0.993E+03
CGA:  32    -0.243106414787E+03    0.36694E+02   -0.11290E+03 10584   0.457E+03-0.338E+03
CGA:  33    -0.265873721771E+03   -0.22767E+02   -0.13169E+02 10584   0.407E+03-0.434E+03
CGA:  34    -0.265765756356E+03    0.10797E+00   -0.80742E+01 10584   0.409E+04-0.407E+04
CGA:  35    -0.256182120896E+03    0.95836E+01   -0.13940E+03 10584   0.390E+03-0.349E+03
CGA:  36    -0.297292691985E+03   -0.41111E+02   -0.78638E+01 10584   0.416E+04 0.640E+04
CGA:  37    -0.247341998492E+03    0.49951E+02   -0.12604E+03 10584   0.479E+03-0.297E+03
CGA:  38    -0.266989764698E+03   -0.19648E+02   -0.12453E+02 10584   0.421E+03-0.447E+03
CGA:  39    -0.280742619892E+03   -0.13753E+02   -0.72877E+01 10584   0.566E+04-0.652E+04
CGA:  40    -0.260877997254E+03    0.19865E+02   -0.16576E+03 10584   0.393E+03-0.320E+03
CGA:  41    -0.308092019007E+03   -0.47214E+02   -0.66438E+01 10584   0.340E+04 0.616E+04
CGA:  42    -0.253763559338E+03    0.54328E+02   -0.83886E+02 10584   0.672E+03-0.344E+03
CGA:  43    -0.267482978478E+03   -0.13719E+02   -0.14896E+02 10584   0.419E+03-0.418E+03
CGA:  44    -0.316589366365E+03   -0.49106E+02   -0.62163E+01 10584   0.320E+04-0.236E+04
CGA:  45    -0.283415589357E+03    0.33174E+02   -0.71392E+02 10584   0.455E+04-0.111E+04
CGA:  46    -0.268817940219E+03    0.14598E+02   -0.71526E+02 10584   0.487E+03-0.189E+03
CGA:  47    -0.302522471290E+03   -0.33705E+02   -0.63234E+01 10584   0.199E+04-0.416E+04
CGA:  48    -0.276670873997E+03    0.25852E+02   -0.38742E+02 10584   0.275E+04-0.114E+04
CGA:  49    -0.253042353293E+03    0.23629E+02   -0.55180E+02 10584   0.598E+03-0.488E+03
CGA:  50    -0.267283611295E+03   -0.14241E+02   -0.10658E+02 10584   0.364E+03-0.357E+03
CGA:  51    -0.335023151986E+03   -0.67740E+02   -0.39834E+01 10584   0.719E+03 0.387E+04
CGA:  52    -0.326442573750E+03    0.85806E+01   -0.69056E+01 10584   0.326E+04-0.140E+04
CGA:  53    -0.295535681373E+03    0.30907E+02   -0.54477E+02 10584   0.272E+04-0.102E+04
CGA:  54    -0.286532363429E+03    0.90033E+01   -0.28643E+02 10584   0.562E+04-0.305E+04
CGA:  55    -0.266062320525E+03    0.20470E+02   -0.10049E+03 10584   0.424E+03-0.346E+03
CGA:  56    -0.326479690291E+03   -0.60417E+02   -0.42037E+01 10584   0.300E+04 0.639E+04
CGA:  57    -0.301353817131E+03    0.25126E+02   -0.42543E+02 10584   0.247E+04-0.854E+03
CGA:  58    -0.302299795292E+03   -0.94598E+00   -0.24781E+02 10584   0.135E+04-0.868E+03
CGA:  59    -0.324632735676E+03   -0.22333E+02   -0.10782E+02 10584   0.308E+04-0.269E+04
CGA:  60    -0.303803368208E+03    0.20829E+02   -0.44659E+02 10584   0.905E+03-0.563E+03
CGA:  61    -0.303374625077E+03    0.42874E+00   -0.94057E+01 10584   0.188E+04-0.166E+04
CGA:  62    -0.300311522610E+03    0.30631E+01   -0.26640E+02 10584   0.293E+03-0.259E+03
CGA:  63    -0.331678601209E+03   -0.31367E+02   -0.20189E+01 10584   0.180E+04 0.423E+04
CGA:  64    -0.312230434018E+03    0.19448E+02   -0.19699E+02 10584   0.329E+04-0.157E+04
CGA:  65    -0.301176014261E+03    0.11054E+02   -0.41132E+02 10584   0.701E+03-0.513E+03
CGA:  66    -0.310321336702E+03   -0.91453E+01   -0.67319E+01 10584   0.315E+04-0.340E+04
CGA:  67    -0.300795493782E+03    0.95258E+01   -0.38321E+02 10584   0.318E+03-0.266E+03
CGA:  68    -0.316254025166E+03   -0.15459E+02   -0.29120E+01 10584   0.396E+04-0.504E+04
CGA:  69    -0.301258503020E+03    0.14996E+02   -0.45067E+02 10584   0.421E+03-0.312E+03
CGA:  70    -0.313192955187E+03   -0.11934E+02   -0.37964E+01 10584   0.363E+04-0.408E+04
CGA:  71    -0.301619952922E+03    0.11573E+02   -0.39079E+02 10584   0.484E+03-0.388E+03
CGA:  72    -0.316126380598E+03   -0.14506E+02   -0.41624E+01 10584   0.383E+04-0.439E+04
CGA:  73    -0.302863588390E+03    0.13263E+02   -0.38542E+02 10584   0.827E+03-0.640E+03
CGA:  74    -0.315814257033E+03   -0.12951E+02   -0.66247E+01 10584   0.371E+04-0.386E+04
CGA:  75    -0.304091627434E+03    0.11723E+02   -0.35128E+02 10584   0.119E+04-0.951E+03
CGA:  76    -0.323577075804E+03   -0.19485E+02   -0.83029E+01 10584   0.353E+04-0.398E+04
CGA:  77    -0.310014389606E+03    0.13563E+02   -0.30054E+02 10584   0.282E+04-0.200E+04
CGA:  78    -0.306542083417E+03    0.34723E+01   -0.24827E+02 10584   0.156E+04-0.144E+04
CGA:  79    -0.310687099695E+03   -0.41450E+01   -0.12892E+02 10584   0.287E+04-0.306E+04
CGA:  80    -0.308886965609E+03    0.18001E+01   -0.23858E+02 10584   0.215E+04-0.206E+04
CGA:  81    -0.312007536270E+03   -0.31206E+01   -0.16926E+02 10584   0.305E+04-0.321E+04
CGA:  82    -0.311732497754E+03    0.27504E+00   -0.23852E+02 10584   0.273E+04-0.269E+04
CGA:  83    -0.314521479288E+03   -0.27890E+01   -0.20282E+02 10584   0.333E+04-0.350E+04
CGA:  84    -0.315366843931E+03   -0.84536E+00   -0.24315E+02 10584   0.321E+04-0.324E+04
CGA:  85    -0.318328117023E+03   -0.29613E+01   -0.22284E+02 10584   0.350E+04-0.373E+04
CGA:  86    -0.320335337076E+03   -0.20072E+01   -0.23615E+02 10584   0.340E+04-0.356E+04
CGA:  87    -0.323978739114E+03   -0.36434E+01   -0.21548E+02 10584   0.323E+04-0.360E+04
CGA:  88    -0.327541946803E+03   -0.35632E+01   -0.19437E+02 10584   0.275E+04-0.315E+04
CGA:  89    -0.332314253359E+03   -0.47723E+01   -0.14909E+02 10584   0.176E+04-0.235E+04
CGA:  90    -0.336538014023E+03   -0.42238E+01   -0.81565E+01 10584   0.573E+03-0.106E+04
CGA:  91    -0.338200095595E+03   -0.16621E+01   -0.20130E+01 10584   0.236E+02-0.114E+03
CGA:  92    -0.338274461860E+03   -0.74366E-01   -0.76300E-01 10584   0.118E+01-0.479E+00
CGA:  93    -0.338359001475E+03   -0.84540E-01   -0.15832E-02 10584   0.260E+02-0.199E+00
CGA:  94    -0.338587462033E+03   -0.22846E+00   -0.31823E+00 10584   0.318E+02 0.963E+00
CGA:  95    -0.338681094637E+03   -0.93633E-01   -0.53492E-01 10584   0.199E+02 0.242E+02
CGA:  96    -0.338823847687E+03   -0.14275E+00   -0.13189E+00 10584   0.710E+00 0.133E+01
CGA:  97    -0.338846744347E+03   -0.22897E-01   -0.23911E-01 10584   0.214E+01-0.928E-01
CGA:  98    -0.338909065458E+03   -0.62321E-01   -0.63160E-01 10584   0.357E+01-0.785E-01
CGA:  99    -0.339015871014E+03   -0.10681E+00   -0.11397E+00 10584   0.138E+01-0.766E+00
CGA: 100    -0.339032864392E+03   -0.16993E-01   -0.16338E-01 10584   0.855E+00-0.727E-01
CGA: 101    -0.339062031096E+03   -0.29167E-01   -0.34946E-01 10584   0.261E+01-0.266E+00
CGA: 102    -0.339110254524E+03   -0.48223E-01   -0.48568E-01 10584   0.298E+01-0.213E+00
CGA: 103    -0.339165925630E+03   -0.55671E-01   -0.55864E-01 10584   0.693E+00-0.141E+00
CGA: 104    -0.339181424511E+03   -0.15499E-01   -0.15518E-01 10584   0.346E+00-0.374E-01
CGA: 105    -0.339201858709E+03   -0.20434E-01   -0.22157E-01 10584   0.865E+00-0.344E-01
CGA: 106    -0.339234232974E+03   -0.32374E-01   -0.33885E-01 10584   0.273E+00-0.902E-01
CGA: 107    -0.339242778672E+03   -0.85457E-02   -0.92257E-02 10584   0.137E+00-0.610E-01
CGA: 108    -0.339249506885E+03   -0.67282E-02   -0.10541E-02 10584   0.987E+00-0.920E-01
CGA: 109    -0.339269723971E+03   -0.20217E-01   -0.19843E-01 10584   0.789E-01 0.488E-01
CGA: 110    -0.339272683391E+03   -0.29594E-02   -0.30379E-02 10584   0.281E-01 0.545E-02
CGA: 111    -0.339277533596E+03   -0.48502E-02   -0.53483E-02 10584   0.175E+00-0.321E-02
CGA: 112    -0.339284868707E+03   -0.73351E-02   -0.72607E-02 10584   0.722E-01-0.691E-02
CGA: 113    -0.339287633072E+03   -0.27644E-02   -0.26811E-02 10584   0.417E-01-0.716E-02
CGA: 114    -0.339290089918E+03   -0.24568E-02   -0.26871E-02 10584   0.115E+00-0.126E-01
CGA: 115    -0.339297932546E+03   -0.78426E-02   -0.96854E-02 10584   0.104E+00-0.276E-01
CGA: 116    -0.339299366817E+03   -0.14343E-02   -0.14575E-02 10584   0.336E-01 0.620E-03
CGA: 117    -0.339300746944E+03   -0.13801E-02   -0.13530E-02 10584   0.511E-01-0.189E-02
CGA: 118    -0.339303810716E+03   -0.30638E-02   -0.33310E-02 10584   0.985E-01-0.190E-01
CGA: 119    -0.339306335380E+03   -0.25247E-02   -0.20350E-02 10584   0.748E-01-0.243E-01
CGA: 120    -0.339307898867E+03   -0.15635E-02   -0.12757E-02 10584   0.321E-01-0.100E-01
CGA: 121    -0.339308639176E+03   -0.74031E-03   -0.70560E-03 10584   0.285E-01-0.913E-03
CGA: 122    -0.339310151246E+03   -0.15121E-02   -0.15175E-02 10584   0.655E-01-0.996E-03
CGA: 123    -0.339312803970E+03   -0.26527E-02   -0.25735E-02 10584   0.705E-01-0.750E-02
CGA: 124    -0.339314945293E+03   -0.21413E-02   -0.19718E-02 10584   0.510E-01-0.116E-01
CGA: 125    -0.339316353136E+03   -0.14078E-02   -0.12346E-02 10584   0.276E-01-0.796E-02
CGA: 126    -0.339317230649E+03   -0.87751E-03   -0.78541E-03 10584   0.273E-01-0.609E-02
CGA: 127    -0.339317859139E+03   -0.62849E-03   -0.21633E-02 10584   0.115E+00-0.282E-01
CGA: 128    -0.339322430163E+03   -0.45710E-02   -0.45581E-02 10584   0.181E-01-0.276E-03
CGA: 129    -0.339322919461E+03   -0.48930E-03   -0.57125E-03 10584   0.684E-02 0.461E-02
CGA: 130    -0.339323924551E+03   -0.10051E-02   -0.95276E-03 10584   0.159E-01 0.844E-03
CGA: 131    -0.339325111978E+03   -0.11874E-02   -0.13321E-02 10584   0.201E-01-0.648E-02
CGA: 132    -0.339325359974E+03   -0.24800E-03   -0.28900E-03 10584   0.110E-01 0.152E-02
CGA: 133    -0.339325497102E+03   -0.13713E-03   -0.22732E-03 10584   0.631E-02 0.288E-02
CGA: 134    -0.339325766619E+03   -0.26952E-03   -0.30758E-03 10584   0.122E-01 0.334E-02
CGA: 135    -0.339326421020E+03   -0.65440E-03   -0.70618E-03 10584   0.193E-01-0.648E-02
CGA: 136    -0.339326690859E+03   -0.26984E-03   -0.39444E-03 10584   0.299E-02 0.427E-02
CGA: 137    -0.339326785946E+03   -0.95087E-04   -0.12430E-03 10584   0.346E-02 0.203E-02
CGA: 138    -0.339324089914E+03    0.26960E-02   -0.14760E-02 10584   0.202E+00-0.142E-01
CGA: 139    -0.339327823389E+03   -0.37335E-02   -0.41461E-02 10584   0.191E-02 0.139E-01
CGA: 140    -0.339327825109E+03   -0.17199E-05   -0.49260E-04 10584   0.108E-02 0.798E-03
CGA: 141    -0.339327919717E+03   -0.94608E-04   -0.10581E-03 10584   0.285E-02 0.966E-03
CGA: 142    -0.339328148291E+03   -0.22857E-03   -0.19577E-03 10584   0.902E-02-0.290E-02
CGA: 143    -0.339328220993E+03   -0.72702E-04   -0.17664E-03 10584   0.103E-02 0.176E-02
CGA: 144    -0.339328229482E+03   -0.84890E-05   -0.38657E-04 10584   0.126E-02 0.666E-03
CGA: 145    -0.339328430113E+03   -0.20063E-03    0.64384E-03 10584   0.295E-02 0.535E-04
CGA: 146    -0.339330800052E+03   -0.23699E-02   -0.13921E-02 10584   0.258E-02 0.188E-02
CGA: 147    -0.339330989405E+03   -0.18935E-03   -0.11258E-03 10584   0.239E-02-0.894E-03
CGA: 148    -0.339331332067E+03   -0.34266E-03   -0.32715E-03 10584   0.679E-02 0.204E-03
CGA: 149    -0.339332343411E+03   -0.10113E-02   -0.10204E-02 10584   0.155E-01-0.258E-02
CGA: 150    -0.339334132239E+03   -0.17888E-02   -0.28087E-02 10584   0.910E-01-0.637E-02
CGA: 151    -0.339334846758E+03   -0.71452E-03   -0.42383E-03 10584   0.546E-01 0.280E-01
CGA: 152    -0.339335557356E+03   -0.71060E-03   -0.67657E-03 10584   0.179E-01 0.157E-01
CGA: 153    -0.339335809992E+03   -0.25264E-03   -0.34535E-03 10584   0.179E-01 0.261E-02
CGA: 154    -0.339336283307E+03   -0.47331E-03   -0.53119E-03 10584   0.469E-01 0.200E-02
CGA: 155    -0.339337683430E+03   -0.14001E-02   -0.11932E-02 10584   0.999E-01 0.525E-02
CGA: 156    -0.339339955769E+03   -0.22723E-02   -0.17316E-02 10584   0.956E-01 0.529E-02
CGA: 157    -0.339341789819E+03   -0.18341E-02   -0.15803E-02 10584   0.314E-01-0.305E-01
CGA: 158    -0.339342347880E+03   -0.55806E-03   -0.29232E-03 10584   0.164E-01-0.651E-02
CGA: 159    -0.339342925440E+03   -0.57756E-03   -0.31672E-03 10584   0.225E-01-0.433E-02
CGA: 160    -0.339343845884E+03   -0.92044E-03   -0.59827E-03 10584   0.496E-01-0.519E-02
CGA: 161    -0.339345074383E+03   -0.12285E-02   -0.77333E-03 10584   0.602E-01 0.303E-02
CGA: 162    -0.339346567380E+03   -0.14930E-02   -0.10651E-02 10584   0.493E-01 0.110E-01
CGA: 163    -0.339347766261E+03   -0.11989E-02   -0.95647E-03 10584   0.315E-01 0.331E-02
CGA: 164    -0.339348519215E+03   -0.75295E-03   -0.59985E-03 10584   0.204E-01-0.482E-02
CGA: 165    -0.339349169862E+03   -0.65065E-03   -0.44498E-03 10584   0.294E-01-0.629E-02
CGA: 166    -0.339350460981E+03   -0.12911E-02   -0.11053E-02 10584   0.962E-01-0.130E-01
CGA: 167    -0.339352134683E+03   -0.16737E-02   -0.79604E-03 10584   0.765E-01 0.128E-01
CGA: 168    -0.339353441600E+03   -0.13069E-02   -0.87971E-03 10584   0.271E-01 0.209E-01
CGA: 169    -0.339353888114E+03   -0.44651E-03   -0.42624E-03 10584   0.136E-01 0.246E-02
CGA: 170    -0.339354178437E+03   -0.29032E-03   -0.29946E-03 10584   0.210E-01 0.690E-03
CGA: 171    -0.339354833345E+03   -0.65491E-03   -0.58676E-03 10584   0.436E-01-0.110E-02
CGA: 172    -0.339355861945E+03   -0.10286E-02   -0.81294E-03 10584   0.508E-01-0.714E-02
CGA: 173    -0.339356830223E+03   -0.96828E-03   -0.68008E-03 10584   0.340E-01-0.141E-01
CGA: 174    -0.339357520211E+03   -0.68999E-03   -0.40097E-03 10584   0.260E-01-0.957E-02
CGA: 175    -0.339358102361E+03   -0.58215E-03   -0.35347E-03 10584   0.224E-01-0.671E-02
CGA: 176    -0.339358440498E+03   -0.33814E-03   -0.23528E-03 10584   0.152E-01-0.184E-02
SDA: 177    -0.339358631355E+03   -0.19086E-03   -0.19126E-03 10584   0.121E-01 0.533E-03
CGA: 178    -0.339359630513E+03   -0.99916E-03   -0.87907E-03 10584   0.622E-02 0.537E-02
CGA: 179    -0.339360706097E+03   -0.10756E-02   -0.89543E-03 10584   0.377E-02 0.371E-02
CGA: 180    -0.339360788699E+03   -0.82602E-04   -0.11841E-03 10584   0.172E-02 0.161E-02
CGA: 181    -0.339360901150E+03   -0.11245E-03   -0.11864E-03 10584   0.175E-02 0.143E-02
CGA: 182    -0.339361047157E+03   -0.14601E-03   -0.14988E-03 10584   0.361E-02-0.125E-03
CGA: 183    -0.339361116830E+03   -0.69673E-04   -0.11683E-03 10584   0.255E-02 0.247E-02
CGA: 184    -0.339361136277E+03   -0.19447E-04   -0.55159E-04 10584   0.878E-03 0.114E-02
CGA: 185    -0.339361142311E+03   -0.60344E-05   -0.28756E-04 10584   0.795E-03 0.788E-03
CGA: 186    -0.339361247107E+03   -0.10480E-03   -0.11705E-03 10584   0.415E-02-0.136E-03
CGA: 187    -0.339361313864E+03   -0.66757E-04   -0.12007E-03 10584   0.413E-02 0.268E-02
CGA: 188    -0.339361332225E+03   -0.18361E-04   -0.71306E-04 10584   0.719E-03 0.145E-02
CGA: 189    -0.339361321120E+03    0.11105E-04   -0.11883E-04 10584   0.425E-03 0.577E-03
CGA: 190    -0.339361322805E+03   -0.16852E-05   -0.11079E-04 10584   0.377E-03 0.391E-03
CGA: 191    -0.339361330635E+03   -0.78300E-05   -0.13064E-04 10584   0.360E-03 0.365E-03
CGA: 192    -0.339361339011E+03   -0.83759E-05   -0.12825E-04 10584   0.350E-03 0.354E-03
CGA: 193    -0.339361348139E+03   -0.91276E-05   -0.12865E-04 10584   0.341E-03 0.345E-03
CGA: 194    -0.339361356789E+03   -0.86502E-05   -0.12324E-04 10584   0.333E-03 0.336E-03
CGA: 195    -0.339361365387E+03   -0.85977E-05   -0.12013E-04 10584   0.325E-03 0.328E-03
CGA: 196    -0.339361373632E+03   -0.82449E-05   -0.11568E-04 10584   0.317E-03 0.320E-03
CGA: 197    -0.339361381701E+03   -0.80692E-05   -0.11225E-04 10584   0.310E-03 0.313E-03
CGA: 198    -0.339361389517E+03   -0.78160E-05   -0.10856E-04 10584   0.303E-03 0.306E-03
CGA: 199    -0.339361397143E+03   -0.76263E-05   -0.10529E-04 10584   0.296E-03 0.299E-03
CGA: 200    -0.339361404567E+03   -0.74242E-05   -0.10208E-04 10584   0.290E-03 0.292E-03
   1 F= -.33936140E+03 E0= -.33935756E+03  d E =-.339361E+03  mag=    14.0000
       N       E                     dE             d eps       ncg     rms          ort
SDA:   1    -0.339378413274E+03   -0.17016E-01    0.00000E+00 10584   0.214E-01 0.000E+00
CGA:   2    -0.339380296897E+03   -0.18836E-02   -0.31219E-02 10584   0.127E+00-0.120E-01
CGA:   3    -0.339382774969E+03   -0.24781E-02   -0.27076E-02 10584   0.667E-02 0.104E-01
CGA:   4    -0.339383355458E+03   -0.58049E-03   -0.51025E-03 10584   0.115E-01 0.294E-02
CGA:   5    -0.339385248395E+03   -0.18929E-02   -0.22242E-02 10584   0.207E-01-0.386E-02
CGA:   6    -0.339385504556E+03   -0.25616E-03   -0.31433E-03 10584   0.695E-02 0.199E-02
CGA:   7    -0.339385576791E+03   -0.72235E-04   -0.12098E-03 10584   0.203E-02 0.142E-02
CGA:   8    -0.339385627240E+03   -0.50449E-04   -0.62300E-04 10584   0.175E-02 0.505E-03
CGA:   9    -0.339385747445E+03   -0.12021E-03   -0.13463E-03 10584   0.334E-02-0.105E-02
CGA:  10    -0.339385899675E+03   -0.15223E-03   -0.15290E-03 10584   0.468E-03 0.250E-03
CGA:  11    -0.339385909227E+03   -0.95522E-05   -0.15868E-04 10584   0.372E-03 0.374E-03
CGA:  12    -0.339385951018E+03   -0.41791E-04    0.49326E-04 10584   0.283E-03 0.295E-03
CGA:  13    -0.339385976423E+03   -0.25405E-04   -0.20043E-04 10584   0.252E-03 0.232E-03
CGA:  14    -0.339386013232E+03   -0.36809E-04    0.12395E-04 10584   0.242E-03 0.169E-03
CGA:  15    -0.339386013462E+03   -0.23061E-06   -0.53190E-05 10584   0.185E-03 0.190E-03
CGA:  16    -0.339386109090E+03   -0.95627E-04   -0.99334E-04 10584   0.110E-03 0.125E-03
CGA:  17    -0.339386138900E+03   -0.29811E-04   -0.20160E-04 10584   0.119E-03 0.996E-04
CGA:  18    -0.339386178989E+03   -0.40089E-04    0.64424E-05 10584   0.239E-03 0.446E-04
CGA:  19    -0.339386209858E+03   -0.30868E-04   -0.30473E-04 10584   0.165E-03 0.250E-03
CGA:  20    -0.339386151211E+03    0.58647E-04   -0.41801E-04 10584   0.665E-02-0.619E-03
CGA:  21    -0.339386247952E+03   -0.96741E-04   -0.14430E-03 10584   0.253E-03 0.687E-03
CGA:  22    -0.339386268003E+03   -0.20051E-04   -0.14746E-04 10584   0.288E-03-0.124E-03
CGA:  23    -0.339386312920E+03   -0.44917E-04    0.10683E-04 10584   0.770E-03 0.455E-04
CGA:  24    -0.339386380275E+03   -0.67355E-04   -0.71161E-04 10584   0.427E-03 0.282E-03
CGA:  25    -0.339386403817E+03   -0.23542E-04   -0.31369E-04 10584   0.304E-03 0.200E-03
CGA:  26    -0.339386513183E+03   -0.10937E-03    0.58037E-04 10584   0.804E-03-0.210E-05
CGA:  27    -0.339386673336E+03   -0.16015E-03    0.35084E-03 10584   0.139E-02 0.666E-03
CGA:  28    -0.339386662806E+03    0.10530E-04   -0.23239E-04 10584   0.192E-03 0.458E-03
CGA:  29    -0.339386655466E+03    0.73393E-05   -0.28998E-05 10584   0.804E-04 0.135E-03
   2 F= -.33938666E+03 E0= -.33938271E+03  d E =-.252509E-01  mag=    14.0000
       N       E                     dE             d eps       ncg     rms          ort
SDA:   1    -0.339272568948E+03    0.11409E+00    0.00000E+00 10584   0.653E+00 0.000E+00
CGA:   2    -0.339321367159E+03   -0.48798E-01   -0.48865E-01 10584   0.118E+01-0.901E-02
CGA:   3    -0.339426898344E+03   -0.10553E+00   -0.10550E+00 10584   0.329E+00 0.738E-02
CGA:   4    -0.339449483788E+03   -0.22585E-01   -0.22542E-01 10584   0.130E+00 0.360E-03
CGA:   5    -0.339465986591E+03   -0.16503E-01   -0.16444E-01 10584   0.123E+00 0.133E-02
CGA:   6    -0.339471588742E+03   -0.56022E-02   -0.55990E-02 10584   0.242E-01-0.932E-03
CGA:   7    -0.339473627271E+03   -0.20385E-02   -0.20627E-02 10584   0.458E-01-0.455E-02
CGA:   8    -0.339475385802E+03   -0.17585E-02   -0.18586E-02 10584   0.941E-02 0.334E-02
CGA:   9    -0.339475601019E+03   -0.21522E-03   -0.29818E-03 10584   0.516E-02 0.171E-02
CGA:  10    -0.339476208853E+03   -0.60783E-03   -0.61541E-03 10584   0.758E-02-0.312E-03
CGA:  11    -0.339476617186E+03   -0.40833E-03   -0.34980E-03 10584   0.587E-02-0.207E-02
CGA:  12    -0.339476730456E+03   -0.11327E-03   -0.13242E-03 10584   0.293E-02 0.448E-03
CGA:  13    -0.339476768458E+03   -0.38002E-04   -0.82027E-04 10584   0.209E-02 0.920E-03
CGA:  14    -0.339476896081E+03   -0.12762E-03   -0.14311E-03 10584   0.285E-02 0.782E-03
CGA:  15    -0.339477150934E+03   -0.25485E-03   -0.24353E-03 10584   0.253E-02-0.132E-02
CGA:  16    -0.339477184389E+03   -0.33455E-04   -0.27214E-04 10584   0.125E-02-0.128E-03
CGA:  17    -0.339477196301E+03   -0.11912E-04   -0.19733E-04 10584   0.668E-03 0.152E-03
CGA:  18    -0.339477214185E+03   -0.17885E-04   -0.24205E-04 10584   0.119E-02 0.190E-03
CGA:  19    -0.339477336678E+03   -0.12249E-03   -0.12677E-03 10584   0.243E-02-0.225E-03
CGA:  20    -0.339477398305E+03   -0.61626E-04   -0.38199E-04 10584   0.753E-03-0.513E-03
CGA:  21    -0.339477419721E+03   -0.21417E-04   -0.11809E-04 10584   0.411E-03-0.228E-03
CGA:  22    -0.339477425687E+03   -0.59659E-05   -0.74820E-05 10584   0.556E-03 0.444E-04
CGA:  23    -0.339477436853E+03   -0.11166E-04   -0.19150E-04 10584   0.635E-03 0.289E-03
CGA:  24    -0.339477473050E+03   -0.36197E-04   -0.57643E-04 10584   0.173E-02-0.639E-03
CGA:  25    -0.339477508717E+03   -0.35667E-04   -0.45716E-04 10584   0.146E-03 0.311E-03
CGA:  26    -0.339477509352E+03   -0.63518E-06   -0.41886E-05 10584   0.106E-03 0.108E-03
CGA:  27    -0.339477523515E+03   -0.14163E-04    0.14974E-04 10584   0.880E-04 0.900E-04
CGA:  28    -0.339477533820E+03   -0.10305E-04    0.45669E-04 10584   0.763E-04 0.759E-04
CGA:  29    -0.339477554365E+03   -0.20545E-04   -0.15439E-04 10584   0.207E-03 0.346E-04
CGA:  30    -0.339477602181E+03   -0.47816E-04    0.36362E-04 10584   0.142E-03 0.718E-04
CGA:  31    -0.339477603916E+03   -0.17354E-05   -0.60069E-05 10584   0.523E-04 0.135E-03
   3 F= -.33947760E+03 E0= -.33947350E+03  d E =-.909484E-01  mag=    14.0000
       N       E                     dE             d eps       ncg     rms          ort
SDA:   1    -0.339064807151E+03    0.41280E+00    0.00000E+00 10584   0.148E+01 0.000E+00
CGA:   2    -0.339176251271E+03   -0.11144E+00   -0.11049E+00 10584   0.250E+01 0.342E-01
CGA:   3    -0.339388675236E+03   -0.21242E+00   -0.21270E+00 10584   0.926E+00-0.234E-02
CGA:   4    -0.339447836425E+03   -0.59161E-01   -0.59122E-01 10584   0.344E+00 0.920E-02
CGA:   5    -0.339480002468E+03   -0.32166E-01   -0.31842E-01 10584   0.396E+00 0.122E-01
CGA:   6    -0.339500193898E+03   -0.20191E-01   -0.20075E-01 10584   0.952E-01-0.137E-01
CGA:   7    -0.339505321713E+03   -0.51278E-02   -0.51403E-02 10584   0.633E-01 0.223E-02
CGA:   8    -0.339510842518E+03   -0.55208E-02   -0.55201E-02 10584   0.243E-01 0.123E-05
CGA:   9    -0.339512211077E+03   -0.13686E-02   -0.13848E-02 10584   0.146E-01 0.233E-02
CGA:  10    -0.339513518260E+03   -0.13072E-02   -0.14343E-02 10584   0.259E-01-0.487E-02
CGA:  11    -0.339514329857E+03   -0.81160E-03   -0.83813E-03 10584   0.924E-02 0.162E-02
CGA:  12    -0.339514521690E+03   -0.19183E-03   -0.25794E-03 10584   0.407E-02 0.181E-02
CGA:  13    -0.339514801074E+03   -0.27938E-03   -0.28197E-03 10584   0.523E-02 0.618E-03
CGA:  14    -0.339515275746E+03   -0.47467E-03   -0.53676E-03 10584   0.124E-01-0.229E-02
CGA:  15    -0.339515403448E+03   -0.12770E-03   -0.12613E-03 10584   0.819E-02-0.417E-04
CGA:  16    -0.339515482679E+03   -0.79231E-04   -0.11320E-03 10584   0.270E-02 0.734E-03
CGA:  17    -0.339515508346E+03   -0.25667E-04   -0.49124E-04 10584   0.199E-02 0.562E-03
CGA:  18    -0.339515570031E+03   -0.61685E-04   -0.72382E-04 10584   0.300E-02 0.405E-03
CGA:  19    -0.339515723621E+03   -0.15359E-03   -0.14671E-03 10584   0.477E-02-0.470E-03
CGA:  20    -0.339515847160E+03   -0.12354E-03   -0.10048E-03 10584   0.490E-02-0.780E-03
CGA:  21    -0.339515919585E+03   -0.72425E-04   -0.65061E-04 10584   0.262E-02-0.191E-03
CGA:  22    -0.339515940498E+03   -0.20913E-04   -0.30348E-04 10584   0.117E-02 0.259E-03
CGA:  23    -0.339515945684E+03   -0.51855E-05   -0.16312E-04 10584   0.851E-03 0.309E-03
CGA:  24    -0.339515956375E+03   -0.10692E-04   -0.20211E-04 10584   0.115E-02 0.335E-03
CGA:  25    -0.339516006367E+03   -0.49992E-04   -0.52955E-04 10584   0.222E-02 0.230E-03
CGA:  26    -0.339516095778E+03   -0.89410E-04   -0.79557E-04 10584   0.292E-02-0.634E-03
CGA:  27    -0.339516151099E+03   -0.55321E-04   -0.32727E-04 10584   0.248E-02-0.779E-03
CGA:  28    -0.339516191400E+03   -0.40301E-04   -0.23336E-04 10584   0.149E-02-0.568E-03
CGA:  29    -0.339516208818E+03   -0.17418E-04   -0.12615E-04 10584   0.891E-03-0.164E-03
CGA:  30    -0.339516216820E+03   -0.80024E-05   -0.93478E-05 10584   0.768E-03 0.441E-04
CGA:  31    -0.339516226085E+03   -0.92651E-05   -0.13116E-04 10584   0.110E-02 0.169E-03
SDA:  32    -0.339516255775E+03   -0.29690E-04   -0.33646E-04 10584   0.206E-02 0.315E-03
CGA:  33    -0.339516351777E+03   -0.96002E-04   -0.10890E-03 10584   0.161E-02-0.817E-03
CGA:  34    -0.339516364534E+03   -0.12757E-04   -0.20987E-04 10584   0.910E-03 0.510E-03
CGA:  35    -0.339516376361E+03   -0.11828E-04   -0.21001E-04 10584   0.405E-03 0.471E-03
CGA:  36    -0.339516412668E+03   -0.36307E-04    0.29255E-04 10584   0.177E-03 0.192E-03
CGA:  37    -0.339516426444E+03   -0.13775E-04   -0.55357E-05 10584   0.192E-02-0.260E-03
CGA:  38    -0.339516501935E+03   -0.75492E-04   -0.77268E-04 10584   0.118E-03 0.770E-04
CGA:  39    -0.339516501217E+03    0.71839E-06   -0.25141E-05 10584   0.654E-04 0.737E-04
CGA:  40    -0.339516510529E+03   -0.93124E-05    0.13836E-04 10584   0.619E-04 0.585E-04
   4 F= -.33951651E+03 E0= -.33951204E+03  d E =-.389066E-01  mag=    14.0000
       N       E                     dE             d eps       ncg     rms          ort
SDA:   1    -0.339433224562E+03    0.83277E-01    0.00000E+00 10584   0.388E+00 0.000E+00
CGA:   2    -0.339451724111E+03   -0.18500E-01   -0.18480E-01 10584   0.376E+00-0.100E-01
CGA:   3    -0.339488202193E+03   -0.36478E-01   -0.36124E-01 10584   0.172E+00 0.935E-02
CGA:   4    -0.339500590943E+03   -0.12389E-01   -0.12395E-01 10584   0.921E-01-0.252E-02
CGA:   5    -0.339508850099E+03   -0.82592E-02   -0.81499E-02 10584   0.557E-01 0.431E-02
CGA:   6    -0.339512476355E+03   -0.36263E-02   -0.36207E-02 10584   0.183E-01-0.258E-02
CGA:   7    -0.339514341362E+03   -0.18650E-02   -0.18733E-02 10584   0.123E-01-0.216E-03
CGA:   8    -0.339514658392E+03   -0.31703E-03   -0.37403E-03 10584   0.319E-02 0.157E-02
CGA:   9    -0.339515045531E+03   -0.38714E-03   -0.44553E-03 10584   0.605E-02-0.999E-03
CGA:  10    -0.339515230898E+03   -0.18537E-03   -0.18542E-03 10584   0.356E-02-0.390E-05
CGA:  11    -0.339515299585E+03   -0.68687E-04   -0.94123E-04 10584   0.112E-02 0.650E-03
CGA:  12    -0.339515336050E+03   -0.36465E-04   -0.45017E-04 10584   0.914E-03 0.279E-03
CGA:  13    -0.339515431282E+03   -0.95232E-04   -0.14924E-03 10584   0.399E-02-0.802E-03
CGA:  14    -0.339515547131E+03   -0.11585E-03   -0.13073E-03 10584   0.282E-03 0.452E-03
CGA:  15    -0.339515570790E+03   -0.23659E-04   -0.23998E-04 10584   0.355E-03-0.301E-04
CGA:  16    -0.339515509789E+03    0.61001E-04   -0.46285E-04 10584   0.333E-02-0.570E-03
CGA:  17    -0.339515554118E+03   -0.44330E-04   -0.92989E-04 10584   0.889E-03 0.540E-03
CGA:  18    -0.339515658708E+03   -0.10459E-03   -0.10356E-03 10584   0.122E-02-0.707E-04
CGA:  19    -0.339515770148E+03   -0.11144E-03   -0.84668E-04 10584   0.721E-03-0.691E-03
CGA:  20    -0.339515764342E+03    0.58059E-05   -0.17463E-04 10584   0.218E-03 0.264E-03
CGA:  21    -0.339515763044E+03    0.12973E-05   -0.10020E-04 10584   0.176E-03 0.152E-03
CGA:  22    -0.339515802199E+03   -0.39154E-04    0.12951E-03 10584   0.692E-03-0.116E-03
CGA:  23    -0.339515794528E+03    0.76707E-05   -0.11668E-04 10584   0.102E-03 0.221E-03
   5 F= -.33951579E+03 E0= -.33951121E+03  d E =0.716001E-03  mag=    14.0000
       N       E                     dE             d eps       ncg     rms          ort
SDA:   1    -0.339028668415E+03    0.48713E+00    0.00000E+00 10584   0.159E+01 0.000E+00
CGA:   2    -0.339248695883E+03   -0.22003E+00   -0.21857E+00 10584   0.303E+01 0.243E-01
CGA:   3    -0.339370220337E+03   -0.12152E+00   -0.12009E+00 10584   0.788E+00 0.402E-01
CGA:   4    -0.339452271037E+03   -0.82051E-01   -0.82240E-01 10584   0.599E+00-0.152E-01
CGA:   5    -0.339498666305E+03   -0.46395E-01   -0.46627E-01 10584   0.136E+00 0.379E-02
CGA:   6    -0.339515759505E+03   -0.17093E-01   -0.17013E-01 10584   0.956E-01 0.271E-02
CGA:   7    -0.339520376918E+03   -0.46174E-02   -0.45720E-02 10584   0.247E-01-0.324E-02
CGA:   8    -0.339523547905E+03   -0.31710E-02   -0.31536E-02 10584   0.155E-01 0.428E-03
CGA:   9    -0.339524092818E+03   -0.54491E-03   -0.60142E-03 10584   0.681E-02 0.103E-02
CGA:  10    -0.339524862770E+03   -0.76995E-03   -0.79985E-03 10584   0.119E-01-0.172E-02
CGA:  11    -0.339525234554E+03   -0.37178E-03   -0.41158E-03 10584   0.359E-02 0.861E-03
CGA:  12    -0.339525340498E+03   -0.10594E-03   -0.13631E-03 10584   0.204E-02 0.565E-03
CGA:  13    -0.339525557404E+03   -0.21691E-03   -0.21890E-03 10584   0.449E-02-0.429E-03
CGA:  14    -0.339525748196E+03   -0.19079E-03   -0.18543E-03 10584   0.399E-02-0.152E-03
CGA:  15    -0.339525829018E+03   -0.80822E-04   -0.98321E-04 10584   0.131E-02 0.316E-03
CGA:  16    -0.339525864992E+03   -0.35974E-04   -0.43751E-04 10584   0.947E-03 0.154E-03
CGA:  17    -0.339525955185E+03   -0.90193E-04   -0.91209E-04 10584   0.296E-02-0.197E-03
CGA:  18    -0.339526055853E+03   -0.10067E-03   -0.87141E-04 10584   0.300E-02-0.312E-03
CGA:  19    -0.339526116407E+03   -0.60554E-04   -0.52758E-04 10584   0.104E-02-0.154E-03
CGA:  20    -0.339526141435E+03   -0.25028E-04   -0.21700E-04 10584   0.609E-03-0.710E-04
CGA:  21    -0.339526168117E+03   -0.26682E-04   -0.23549E-04 10584   0.102E-02-0.102E-03
CGA:  22    -0.339526206353E+03   -0.38236E-04   -0.37178E-04 10584   0.192E-02-0.406E-04
CGA:  23    -0.339526258426E+03   -0.52073E-04   -0.58231E-04 10584   0.147E-02 0.154E-03
CGA:  24    -0.339526287753E+03   -0.29327E-04   -0.33997E-04 10584   0.496E-03 0.103E-03
CGA:  25    -0.339526312985E+03   -0.25231E-04   -0.19512E-04 10584   0.493E-03-0.196E-03
CGA:  26    -0.339526368613E+03   -0.55629E-04    0.21612E-04 10584   0.142E-02-0.230E-03
CGA:  27    -0.339522388969E+03    0.39796E-02   -0.21324E-02 10584   0.514E-01-0.124E-01
CGA:  28    -0.339523803947E+03   -0.14150E-02   -0.16463E-02 10584   0.211E-01 0.289E-02
CGA:  29    -0.339525710047E+03   -0.19061E-02   -0.19563E-02 10584   0.888E-02 0.188E-02
CGA:  30    -0.339526258352E+03   -0.54831E-03   -0.56980E-03 10584   0.222E-02 0.404E-03
CGA:  31    -0.339526386236E+03   -0.12788E-03   -0.15493E-03 10584   0.251E-02 0.633E-03
CGA:  32    -0.339526750319E+03   -0.36408E-03   -0.37061E-03 10584   0.420E-02-0.870E-03
CGA:  33    -0.339526817207E+03   -0.66888E-04   -0.71728E-04 10584   0.133E-02 0.588E-04
CGA:  34    -0.339526831952E+03   -0.14745E-04   -0.28387E-04 10584   0.674E-03 0.166E-03
CGA:  35    -0.339526858574E+03   -0.26622E-04   -0.32775E-04 10584   0.898E-03 0.109E-03
CGA:  36    -0.339526907547E+03   -0.48973E-04   -0.46801E-04 10584   0.108E-02-0.455E-04
CGA:  37    -0.339526936900E+03   -0.29353E-04   -0.38094E-04 10584   0.106E-02 0.152E-03
CGA:  38    -0.339526946647E+03   -0.97477E-05   -0.26790E-04 10584   0.388E-03 0.241E-03
CGA:  39    -0.339526955242E+03   -0.85946E-05   -0.13793E-04 10584   0.392E-03 0.858E-04
CGA:  40    -0.339526995420E+03   -0.40178E-04   -0.68968E-04 10584   0.304E-02-0.492E-03
CGA:  41    -0.339527087084E+03   -0.91665E-04   -0.94901E-04 10584   0.257E-03 0.597E-04
CGA:  42    -0.339527086090E+03    0.99411E-06   -0.58605E-05 10584   0.843E-04 0.109E-03
   6 F= -.33952709E+03 E0= -.33952254E+03  d E =-.112916E-01  mag=    14.0000
       N       E                     dE             d eps       ncg     rms          ort
SDA:   1    -0.338465828470E+03    0.10613E+01    0.00000E+00 10584   0.314E+01 0.000E+00
CGA:   2    -0.339091770648E+03   -0.62594E+00   -0.61777E+00 10584   0.310E+01 0.752E-01
CGA:   3    -0.339256825440E+03   -0.16505E+00   -0.15963E+00 10584   0.215E+01 0.400E-01
CGA:   4    -0.339391803061E+03   -0.13498E+00   -0.13533E+00 10584   0.149E+01-0.178E-01
CGA:   5    -0.339477884738E+03   -0.86082E-01   -0.87029E-01 10584   0.494E+00-0.281E-02
CGA:   6    -0.339504717510E+03   -0.26833E-01   -0.26462E-01 10584   0.319E+00 0.112E-01
CGA:   7    -0.339524097446E+03   -0.19380E-01   -0.19336E-01 10584   0.231E+00-0.604E-02
CGA:   8    -0.339533604928E+03   -0.95075E-02   -0.95383E-02 10584   0.383E-01 0.124E-02
CGA:   9    -0.339537805671E+03   -0.42007E-02   -0.40950E-02 10584   0.543E-01 0.363E-02
CGA:  10    -0.339540353219E+03   -0.25475E-02   -0.24473E-02 10584   0.185E-01-0.336E-02
CGA:  11    -0.339541465373E+03   -0.11122E-02   -0.11211E-02 10584   0.801E-02 0.794E-03
CGA:  12    -0.339542609552E+03   -0.11442E-02   -0.11861E-02 10584   0.122E-01-0.655E-03
CGA:  13    -0.339543007243E+03   -0.39769E-03   -0.42971E-03 10584   0.301E-02 0.779E-03
CGA:  14    -0.339543325955E+03   -0.31871E-03   -0.37522E-03 10584   0.104E-01-0.143E-02
CGA:  15    -0.339543548135E+03   -0.22218E-03   -0.22148E-03 10584   0.115E-01-0.198E-04
CGA:  16    -0.339543752357E+03   -0.20422E-03   -0.25326E-03 10584   0.270E-02 0.102E-02
CGA:  17    -0.339543813554E+03   -0.61197E-04   -0.77098E-04 10584   0.158E-02 0.347E-03
CGA:  18    -0.339543929193E+03   -0.11564E-03   -0.11256E-03 10584   0.327E-02-0.340E-03
CGA:  19    -0.339544078097E+03   -0.14890E-03   -0.13135E-03 10584   0.556E-02-0.860E-03
CGA:  20    -0.339544198926E+03   -0.12083E-03   -0.10090E-03 10584   0.359E-02-0.427E-03
CGA:  21    -0.339544259196E+03   -0.60270E-04   -0.59707E-04 10584   0.132E-02 0.220E-04
CGA:  22    -0.339544280484E+03   -0.21288E-04   -0.24706E-04 10584   0.722E-03 0.744E-04
CGA:  23    -0.339544300941E+03   -0.20457E-04   -0.23256E-04 10584   0.108E-02 0.815E-04
CGA:  24    -0.339544352289E+03   -0.51348E-04   -0.54678E-04 10584   0.208E-02 0.199E-03
CGA:  25    -0.339544415081E+03   -0.62792E-04   -0.70889E-04 10584   0.978E-03 0.251E-03
CGA:  26    -0.339544440719E+03   -0.25638E-04   -0.24831E-04 10584   0.390E-03-0.262E-04
CGA:  27    -0.339544484573E+03   -0.43854E-04    0.29665E-02 10584   0.880E-03-0.111E-03
CGA:  28    -0.339544565904E+03   -0.81330E-04    0.14746E-03 10584   0.165E-02-0.464E-03
CGA:  29    -0.339544607736E+03   -0.41833E-04   -0.50870E-04 10584   0.236E-03 0.335E-03
CGA:  30    -0.339544628740E+03   -0.21003E-04   -0.20736E-04 10584   0.328E-03 0.152E-04
CGA:  31    -0.339544647915E+03   -0.19175E-04   -0.19401E-04 10584   0.270E-03 0.153E-03
CGA:  32    -0.339544659993E+03   -0.12078E-04   -0.14564E-04 10584   0.678E-04 0.122E-03
CGA:  33    -0.339544667100E+03   -0.71073E-05   -0.13924E-04 10584   0.505E-03-0.801E-04
CGA:  34    -0.339544680982E+03   -0.13882E-04   -0.15351E-04 10584   0.605E-04 0.491E-04
CGA:  35    -0.339544696043E+03   -0.15061E-04    0.21028E-05 10584   0.741E-04-0.405E-05
CGA:  36    -0.339544702816E+03   -0.67736E-05   -0.57763E-05 10584   0.104E-03 0.402E-04
   7 F= -.33954470E+03 E0= -.33954009E+03  d E =-.176167E-01  mag=    14.0000
       N       E                     dE             d eps       ncg     rms          ort
SDA:   1    -0.338932507536E+03    0.61219E+00    0.00000E+00 10584   0.171E+01 0.000E+00
CGA:   2    -0.339336214858E+03   -0.40371E+00   -0.40245E+00 10584   0.109E+01 0.653E-02
CGA:   3    -0.339444638731E+03   -0.10842E+00   -0.10835E+00 10584   0.141E+01-0.416E-02
CGA:   4    -0.339502267956E+03   -0.57629E-01   -0.57470E-01 10584   0.342E+00 0.240E-01
CGA:   5    -0.339524234221E+03   -0.21966E-01   -0.21959E-01 10584   0.279E+00-0.171E-02
CGA:   6    -0.339543994989E+03   -0.19761E-01   -0.19760E-01 10584   0.411E-01-0.692E-03
CGA:   7    -0.339548233522E+03   -0.42385E-02   -0.40802E-02 10584   0.514E-01 0.493E-02
CGA:   8    -0.339550877763E+03   -0.26442E-02   -0.25561E-02 10584   0.169E-01-0.404E-02
CGA:   9    -0.339551722794E+03   -0.84503E-03   -0.86636E-03 10584   0.822E-02 0.172E-02
CGA:  10    -0.339552761518E+03   -0.10387E-02   -0.10926E-02 10584   0.102E-01-0.103E-02
CGA:  11    -0.339553030470E+03   -0.26895E-03   -0.30682E-03 10584   0.222E-02 0.107E-02
CGA:  12    -0.339553260022E+03   -0.22955E-03   -0.24544E-03 10584   0.589E-02-0.508E-03
CGA:  13    -0.339553543285E+03   -0.28326E-03   -0.28052E-03 10584   0.518E-02-0.346E-03
CGA:  14    -0.339553617205E+03   -0.73921E-04   -0.10341E-03 10584   0.124E-02 0.635E-03
CGA:  15    -0.339553629372E+03   -0.12167E-04   -0.31324E-04 10584   0.912E-03 0.431E-03
CGA:  16    -0.339553692876E+03   -0.63504E-04   -0.67783E-04 10584   0.191E-02 0.444E-03
CGA:  17    -0.339553891019E+03   -0.19814E-03   -0.20267E-03 10584   0.571E-03-0.651E-03
CGA:  18    -0.339553907261E+03   -0.16242E-04   -0.14508E-04 10584   0.418E-03-0.680E-04
CGA:  19    -0.339553957719E+03   -0.50458E-04   -0.48828E-04 10584   0.936E-03 0.234E-04
CGA:  20    -0.339554001368E+03   -0.43649E-04   -0.42214E-04 10584   0.174E-03-0.629E-04
CGA:  21    -0.339554001998E+03   -0.63036E-06   -0.47517E-05 10584   0.137E-03 0.113E-03
CGA:  22    -0.339554020964E+03   -0.18965E-04    0.50451E-04 10584   0.107E-03 0.953E-04
CGA:  23    -0.339554027044E+03   -0.60804E-05   -0.63507E-05 10584   0.884E-04 0.641E-04
CGA:  24    -0.339554040554E+03   -0.13510E-04    0.13918E-04 10584   0.825E-04 0.411E-04
CGA:  25    -0.339554066112E+03   -0.25557E-04   -0.21160E-04 10584   0.284E-04 0.394E-04
CGA:  26    -0.339554072213E+03   -0.61015E-05    0.27126E-04 10584   0.270E-04 0.262E-04
   8 F= -.33955407E+03 E0= -.33954960E+03  d E =-.936940E-02  mag=    14.0000
       N       E                     dE             d eps       ncg     rms          ort
SDA:   1    -0.339242486023E+03    0.31158E+00    0.00000E+00 10584   0.121E+01 0.000E+00
CGA:   2    -0.339305151460E+03   -0.62665E-01   -0.62431E-01 10584   0.150E+01 0.148E-01
CGA:   3    -0.339475771274E+03   -0.17062E+00   -0.17114E+00 10584   0.566E+00-0.128E-01
CGA:   4    -0.339516311566E+03   -0.40540E-01   -0.40483E-01 10584   0.318E+00 0.141E-01
CGA:   5    -0.339543854003E+03   -0.27542E-01   -0.27484E-01 10584   0.158E+00 0.515E-02
CGA:   6    -0.339552562823E+03   -0.87088E-02   -0.86613E-02 10584   0.747E-01-0.688E-02
CGA:   7    -0.339556573647E+03   -0.40108E-02   -0.40657E-02 10584   0.549E-01 0.419E-02
CGA:   8    -0.339559736991E+03   -0.31633E-02   -0.31476E-02 10584   0.123E-01-0.133E-02
CGA:   9    -0.339561026020E+03   -0.12890E-02   -0.12998E-02 10584   0.105E-01-0.280E-03
CGA:  10    -0.339561707974E+03   -0.68195E-03   -0.67913E-03 10584   0.609E-02-0.617E-03
CGA:  11    -0.339561916478E+03   -0.20850E-03   -0.24020E-03 10584   0.255E-02 0.110E-02
CGA:  12    -0.339562194295E+03   -0.27782E-03   -0.41295E-03 10584   0.104E-01-0.199E-02
CGA:  13    -0.339562415479E+03   -0.22118E-03   -0.27522E-03 10584   0.672E-03 0.128E-02
CGA:  14    -0.339562466821E+03   -0.51343E-04   -0.51264E-04 10584   0.114E-02-0.363E-04
CGA:  15    -0.339562586616E+03   -0.11979E-03   -0.12321E-03 10584   0.141E-02-0.779E-04
CGA:  16    -0.339562649006E+03   -0.62390E-04   -0.55306E-04 10584   0.541E-03-0.246E-03
CGA:  17    -0.339562680989E+03   -0.31983E-04   -0.32147E-04 10584   0.755E-03-0.131E-03
CGA:  18    -0.339562697196E+03   -0.16207E-04   -0.24009E-04 10584   0.662E-03 0.270E-03
CGA:  19    -0.339562730143E+03   -0.32947E-04   -0.38303E-04 10584   0.231E-03 0.202E-03
CGA:  20    -0.339562777672E+03   -0.47529E-04    0.65618E-04 10584   0.516E-03-0.136E-03
CGA:  21    -0.339562773251E+03    0.44208E-05   -0.80390E-05 10584   0.137E-03 0.237E-03
   9 F= -.33956277E+03 E0= -.33955851E+03  d E =-.870104E-02  mag=    14.0000
       N       E                     dE             d eps       ncg     rms          ort
SDA:   1    -0.339412430709E+03    0.15035E+00    0.00000E+00 10584   0.478E+00 0.000E+00
CGA:   2    -0.339456796049E+03   -0.44365E-01   -0.44404E-01 10584   0.874E+00-0.987E-03
CGA:   3    -0.339524525867E+03   -0.67730E-01   -0.67800E-01 10584   0.545E+00-0.968E-02
CGA:   4    -0.339544919536E+03   -0.20394E-01   -0.20134E-01 10584   0.124E+00 0.208E-01
CGA:   5    -0.339557102363E+03   -0.12183E-01   -0.12180E-01 10584   0.961E-01-0.556E-03
CGA:   6    -0.339563768672E+03   -0.66663E-02   -0.66708E-02 10584   0.225E-01-0.762E-03
CGA:   7    -0.339564679424E+03   -0.91075E-03   -0.97708E-03 10584   0.170E-01 0.310E-02
CGA:   8    -0.339566447881E+03   -0.17685E-02   -0.18282E-02 10584   0.406E-02-0.201E-02
CGA:   9    -0.339566647892E+03   -0.20001E-03   -0.20854E-03 10584   0.275E-02 0.113E-02
CGA:  10    -0.339566990047E+03   -0.34215E-03   -0.49627E-03 10584   0.878E-02-0.204E-02
CGA:  11    -0.339567100828E+03   -0.11078E-03   -0.17623E-03 10584   0.837E-03 0.135E-02
CGA:  12    -0.339567129164E+03   -0.28336E-04   -0.37256E-04 10584   0.666E-03 0.315E-03
CGA:  13    -0.339567180227E+03   -0.51062E-04   -0.12658E-03 10584   0.400E-02-0.104E-02
CGA:  14    -0.339567241178E+03   -0.60951E-04   -0.94927E-04 10584   0.572E-03 0.776E-03
CGA:  15    -0.339567272218E+03   -0.31040E-04   -0.30328E-04 10584   0.260E-03-0.306E-04
CGA:  16    -0.339567311721E+03   -0.39502E-04    0.35930E-04 10584   0.387E-03 0.574E-04
CGA:  17    -0.339567327667E+03   -0.15946E-04   -0.20126E-04 10584   0.887E-04 0.182E-03
CGA:  18    -0.339567326263E+03    0.14039E-05   -0.27024E-05 10584   0.709E-04 0.938E-04
  10 F= -.33956733E+03 E0= -.33956310E+03  d E =-.455301E-02  mag=    14.0000
       N       E                     dE             d eps       ncg     rms          ort
SDA:   1    -0.338247346202E+03    0.13200E+01    0.00000E+00 10584   0.348E+01 0.000E+00
CGA:   2    -0.338778423292E+03   -0.53108E+00   -0.50916E+00 10584   0.871E+01 0.287E+00
CGA:   3    -0.339315096593E+03   -0.53667E+00   -0.53014E+00 10584   0.282E+01-0.174E+00
CGA:   4    -0.339424126448E+03   -0.10903E+00   -0.11155E+00 10584   0.919E+00-0.367E-01
CGA:   5    -0.339525440307E+03   -0.10131E+00   -0.10057E+00 10584   0.492E+00 0.138E-01
CGA:   6    -0.339551981832E+03   -0.26542E-01   -0.26416E-01 10584   0.141E+00 0.409E-02
CGA:   7    -0.339565552687E+03   -0.13571E-01   -0.13796E-01 10584   0.160E+00-0.805E-02
CGA:   8    -0.339571034156E+03   -0.54815E-02   -0.56795E-02 10584   0.355E-01 0.776E-02
CGA:   9    -0.339573095005E+03   -0.20608E-02   -0.20636E-02 10584   0.253E-01 0.291E-03
CGA:  10    -0.339576097190E+03   -0.30022E-02   -0.32218E-02 10584   0.281E-01-0.366E-02
CGA:  11    -0.339576599390E+03   -0.50220E-03   -0.60474E-03 10584   0.596E-02 0.243E-02
CGA:  12    -0.339576830253E+03   -0.23086E-03   -0.26475E-03 10584   0.627E-02 0.130E-02
CGA:  13    -0.339577479622E+03   -0.64937E-03   -0.67619E-03 10584   0.132E-01-0.118E-02
CGA:  14    -0.339577859077E+03   -0.37945E-03   -0.36806E-03 10584   0.612E-02-0.379E-03
CGA:  15    -0.339577947211E+03   -0.88134E-04   -0.11233E-03 10584   0.212E-02 0.519E-03
CGA:  16    -0.339578018674E+03   -0.71463E-04   -0.85017E-04 10584   0.348E-02 0.525E-03
CGA:  17    -0.339578389687E+03   -0.37101E-03   -0.37383E-03 10584   0.444E-02-0.117E-03
CGA:  18    -0.339578527757E+03   -0.13807E-03   -0.10848E-03 10584   0.107E-02-0.822E-03
CGA:  19    -0.339578566389E+03   -0.38632E-04   -0.38704E-04 10584   0.126E-02-0.401E-06
CGA:  20    -0.339578614028E+03   -0.47639E-04   -0.55560E-04 10584   0.134E-02 0.498E-03
CGA:  21    -0.339578715579E+03   -0.10155E-03   -0.10260E-03 10584   0.909E-03 0.255E-03
CGA:  22    -0.339578783772E+03   -0.68193E-04   -0.73996E-04 10584   0.148E-02-0.619E-03
CGA:  23    -0.339578791466E+03   -0.76938E-05   -0.27363E-04 10584   0.290E-03 0.481E-03
  11 F= -.33957879E+03 E0= -.33957446E+03  d E =-.114652E-01  mag=    14.0000
       N       E                     dE             d eps       ncg     rms          ort
SDA:   1    -0.333513816854E+03    0.60650E+01    0.00000E+00 10584   0.146E+02 0.000E+00
CGA:   2    -0.337362461598E+03   -0.38486E+01   -0.39461E+01 10584   0.396E+02-0.478E+00
CGA:   3    -0.338608110255E+03   -0.12456E+01   -0.13809E+01 10584   0.802E+01-0.337E+01
CGA:   4    -0.338956804564E+03   -0.34869E+00   -0.33121E+00 10584   0.454E+01-0.524E-01
CGA:   5    -0.339380044078E+03   -0.42324E+00   -0.41990E+00 10584   0.211E+01 0.934E-01
CGA:   6    -0.339467790124E+03   -0.87746E-01   -0.89704E-01 10584   0.968E+00-0.441E-01
CGA:   7    -0.339515936679E+03   -0.48147E-01   -0.47879E-01 10584   0.578E+00 0.701E-02
CGA:   8    -0.339557450843E+03   -0.41514E-01   -0.41489E-01 10584   0.237E+00 0.923E-03
CGA:   9    -0.339568225017E+03   -0.10774E-01   -0.10724E-01 10584   0.157E+00-0.891E-02
CGA:  10    -0.339577844266E+03   -0.96192E-02   -0.96137E-02 10584   0.119E+00 0.656E-02
CGA:  11    -0.339585134775E+03   -0.72905E-02   -0.72947E-02 10584   0.437E-01-0.396E-03
CGA:  12    -0.339587763742E+03   -0.26290E-02   -0.26184E-02 10584   0.488E-01-0.459E-02
CGA:  13    -0.339589961707E+03   -0.21980E-02   -0.22409E-02 10584   0.228E-01 0.384E-02
CGA:  14    -0.339591344038E+03   -0.13823E-02   -0.13885E-02 10584   0.191E-01 0.102E-02
CGA:  15    -0.339592671948E+03   -0.13279E-02   -0.13624E-02 10584   0.299E-01-0.528E-02
CGA:  16    -0.339593833072E+03   -0.11611E-02   -0.11610E-02 10584   0.151E-01-0.703E-05
CGA:  17    -0.339594108852E+03   -0.27578E-03   -0.35159E-03 10584   0.529E-02 0.201E-02
CGA:  18    -0.339594411698E+03   -0.30285E-03   -0.31060E-03 10584   0.782E-02 0.961E-03
CGA:  19    -0.339595106002E+03   -0.69430E-03   -0.73891E-03 10584   0.176E-01-0.220E-02
CGA:  20    -0.339595497905E+03   -0.39190E-03   -0.38503E-03 10584   0.121E-01-0.213E-03
CGA:  21    -0.339595649316E+03   -0.15141E-03   -0.19250E-03 10584   0.299E-02 0.104E-02
CGA:  22    -0.339595684734E+03   -0.35418E-04   -0.59541E-04 10584   0.209E-02 0.633E-03
CGA:  23    -0.339595783074E+03   -0.98340E-04   -0.10470E-03 10584   0.451E-02 0.473E-03
CGA:  24    -0.339596079646E+03   -0.29657E-03   -0.29598E-03 10584   0.748E-02-0.807E-03
CGA:  25    -0.339596236973E+03   -0.15733E-03   -0.13498E-03 10584   0.586E-02-0.683E-03
CGA:  26    -0.339596322033E+03   -0.85060E-04   -0.91172E-04 10584   0.329E-02 0.141E-03
CGA:  27    -0.339596344635E+03   -0.22602E-04   -0.47194E-04 10584   0.189E-02 0.659E-03
CGA:  28    -0.339596352308E+03   -0.76736E-05   -0.34047E-04 10584   0.175E-02 0.774E-03
CGA:  29    -0.339596381675E+03   -0.29366E-04   -0.56096E-04 10584   0.287E-02 0.108E-02
CGA:  30    -0.339596498541E+03   -0.11687E-03   -0.27604E-03 10584   0.112E-01-0.318E-02
CGA:  31    -0.339596658123E+03   -0.15958E-03   -0.22394E-03 10584   0.112E-02 0.230E-02
CGA:  32    -0.339596672665E+03   -0.14541E-04   -0.29568E-04 10584   0.607E-03 0.598E-03
CGA:  33    -0.339596728412E+03   -0.55747E-04    0.95588E-02 10584   0.508E-03 0.317E-03
CGA:  34    -0.339596733158E+03   -0.47463E-05   -0.12431E-04 10584   0.365E-03 0.360E-03
CGA:  35    -0.339596875795E+03   -0.14264E-03   -0.49317E-04 10584   0.595E-03 0.156E-03
CGA:  36    -0.339596877247E+03   -0.14514E-05   -0.23745E-04 10584   0.203E-03 0.414E-03
CGA:  37    -0.339596909654E+03   -0.32407E-04    0.73603E-03 10584   0.231E-03 0.157E-03
CGA:  38    -0.339596907431E+03    0.22226E-05   -0.60746E-05 10584   0.171E-03 0.158E-03
CGA:  39    -0.339597025251E+03   -0.11782E-03   -0.36597E-04 10584   0.166E-02 0.640E-04
CGA:  40    -0.339597071619E+03   -0.46368E-04   -0.11958E-03 10584   0.413E-03 0.817E-03
CGA:  41    -0.339597155536E+03   -0.83917E-04   -0.83949E-04 10584   0.210E-02-0.243E-04
CGA:  42    -0.339597208908E+03   -0.53372E-04   -0.12426E-03 10584   0.383E-02 0.957E-03
CGA:  43    -0.339597228969E+03   -0.20061E-04   -0.17909E-03 10584   0.984E-03 0.126E-02
CGA:  44    -0.339597288175E+03   -0.59206E-04   -0.76614E-04 10584   0.596E-03 0.255E-03
CGA:  45    -0.339597379108E+03   -0.90933E-04   -0.91290E-04 10584   0.167E-02 0.247E-03
CGA:  46    -0.339597402296E+03   -0.23188E-04   -0.10666E-03 10584   0.299E-03 0.996E-03
CGA:  47    -0.339597408308E+03   -0.60124E-05   -0.15486E-04 10584   0.219E-03 0.141E-03
CGA:  48    -0.339597450354E+03   -0.42046E-04   -0.40795E-04 10584   0.378E-03 0.117E-03
CGA:  49    -0.339597445537E+03    0.48170E-05   -0.93035E-05 10584   0.136E-03 0.155E-03
  12 F= -.33959745E+03 E0= -.33959279E+03  d E =-.186541E-01  mag=    14.0000
       N       E                     dE             d eps       ncg     rms          ort
SDA:   1    -0.338799330644E+03    0.79812E+00    0.00000E+00 10584   0.225E+01 0.000E+00
CGA:   2    -0.339128602449E+03   -0.32927E+00   -0.33149E+00 10584   0.539E+01-0.364E-01
CGA:   3    -0.339352498275E+03   -0.22390E+00   -0.24040E+00 10584   0.141E+01-0.309E+00
CGA:   4    -0.339458685364E+03   -0.10619E+00   -0.10417E+00 10584   0.953E+00-0.477E-02
CGA:   5    -0.339531914251E+03   -0.73229E-01   -0.73679E-01 10584   0.364E+00-0.574E-02
CGA:   6    -0.339548894951E+03   -0.16981E-01   -0.16937E-01 10584   0.223E+00 0.147E-01
CGA:   7    -0.339570878911E+03   -0.21984E-01   -0.21949E-01 10584   0.770E-01-0.686E-02
CGA:   8    -0.339574387161E+03   -0.35083E-02   -0.36462E-02 10584   0.367E-01 0.321E-02
CGA:   9    -0.339578818794E+03   -0.44316E-02   -0.44859E-02 10584   0.422E-01-0.298E-02
CGA:  10    -0.339580085905E+03   -0.12671E-02   -0.13839E-02 10584   0.882E-02 0.242E-02
CGA:  11    -0.339581214944E+03   -0.11290E-02   -0.11307E-02 10584   0.158E-01-0.572E-04
CGA:  12    -0.339582264707E+03   -0.10498E-02   -0.99525E-03 10584   0.107E-01-0.173E-02
CGA:  13    -0.339582495780E+03   -0.23107E-03   -0.29481E-03 10584   0.270E-02 0.105E-02
CGA:  14    -0.339582621754E+03   -0.12597E-03   -0.15801E-03 10584   0.416E-02 0.823E-03
CGA:  15    -0.339583204766E+03   -0.58301E-03   -0.59511E-03 10584   0.152E-02-0.638E-03
CGA:  16    -0.339583262893E+03   -0.58127E-04   -0.63337E-04 10584   0.983E-03 0.122E-03
CGA:  17    -0.339583367994E+03   -0.10510E-03   -0.10167E-03 10584   0.915E-03 0.519E-03
CGA:  18    -0.339583438018E+03   -0.70023E-04   -0.59522E-04 10584   0.136E-02-0.438E-03
CGA:  19    -0.339583454956E+03   -0.16939E-04   -0.32092E-04 10584   0.137E-02 0.353E-03
CGA:  20    -0.339583475327E+03   -0.20371E-04   -0.49584E-04 10584   0.330E-03 0.508E-03
CGA:  21    -0.339583504760E+03   -0.29433E-04   -0.26043E-04 10584   0.565E-03-0.135E-03
CGA:  22    -0.339583517131E+03   -0.12372E-04   -0.17077E-04 10584   0.129E-02 0.150E-03
CGA:  23    -0.339583545393E+03   -0.28261E-04   -0.62909E-04 10584   0.217E-03 0.823E-03
CGA:  24    -0.339583547886E+03   -0.24929E-05   -0.76461E-05 10584   0.134E-03 0.119E-03
  13 F= -.33958355E+03 E0= -.33957886E+03  d E =0.138977E-01  mag=    14.0000
       N       E                     dE             d eps       ncg     rms          ort
SDA:   1    -0.339139696014E+03    0.44385E+00    0.00000E+00 10584   0.108E+02 0.000E+00
CGA:   2    -0.339205275124E+03   -0.65579E-01   -0.46687E+00 10584   0.819E+01-0.707E+01
CGA:   3    -0.339418282285E+03   -0.21301E+00   -0.20391E+00 10584   0.512E+00-0.400E+00
CGA:   4    -0.339523762810E+03   -0.10548E+00   -0.10521E+00 10584   0.113E+01 0.138E-02
CGA:   5    -0.339573583594E+03   -0.49821E-01   -0.48970E-01 10584   0.159E+00 0.350E-01
CGA:   6    -0.339582678901E+03   -0.90953E-02   -0.91289E-02 10584   0.153E+00-0.726E-02
CGA:   7    -0.339599173104E+03   -0.16494E-01   -0.16549E-01 10584   0.300E-01 0.504E-02
CGA:   8    -0.339601087959E+03   -0.19149E-02   -0.18088E-02 10584   0.226E-01-0.227E-02
CGA:   9    -0.339602473619E+03   -0.13857E-02   -0.14791E-02 10584   0.182E-01 0.193E-02
CGA:  10    -0.339603652380E+03   -0.11788E-02   -0.11777E-02 10584   0.442E-02-0.240E-03
CGA:  11    -0.339604207752E+03   -0.55537E-03   -0.54883E-03 10584   0.391E-02 0.647E-03
CGA:  12    -0.339604577098E+03   -0.36935E-03   -0.35065E-03 10584   0.550E-02-0.522E-03
CGA:  13    -0.339604702463E+03   -0.12536E-03   -0.19852E-03 10584   0.163E-02 0.102E-02
CGA:  14    -0.339604741677E+03   -0.39215E-04   -0.71833E-04 10584   0.116E-02 0.450E-03
CGA:  15    -0.339604864172E+03   -0.12249E-03   -0.11662E-03 10584   0.205E-02-0.212E-03
CGA:  16    -0.339604941250E+03   -0.77078E-04   -0.91367E-04 10584   0.201E-02 0.281E-03
CGA:  17    -0.339604951347E+03   -0.10097E-04   -0.52005E-04 10584   0.421E-03 0.532E-03
CGA:  18    -0.339604947414E+03    0.39334E-05   -0.12288E-04 10584   0.275E-03 0.214E-03
CGA:  19    -0.339605002677E+03   -0.55263E-04    0.23529E-03 10584   0.456E-03 0.603E-04
CGA:  20    -0.339605011338E+03   -0.86605E-05   -0.22341E-04 10584   0.947E-04 0.249E-03
  14 F= -.33960501E+03 E0= -.33960016E+03  d E =-.214635E-01  mag=    14.0000
       N       E                     dE             d eps       ncg     rms          ort
SDA:   1    -0.339045729872E+03    0.55927E+00    0.00000E+00 10584   0.144E+01 0.000E+00
CGA:   2    -0.339318580755E+03   -0.27285E+00   -0.26691E+00 10584   0.347E+01 0.641E-01
CGA:   3    -0.339517799590E+03   -0.19922E+00   -0.19446E+00 10584   0.858E+00 0.419E-01
CGA:   4    -0.339551273437E+03   -0.33474E-01   -0.35106E-01 10584   0.401E+00-0.463E-01
CGA:   5    -0.339594004165E+03   -0.42731E-01   -0.42603E-01 10584   0.148E+00 0.623E-02
CGA:   6    -0.339602604578E+03   -0.86004E-02   -0.85070E-02 10584   0.512E-01-0.310E-02
CGA:   7    -0.339607656321E+03   -0.50517E-02   -0.50197E-02 10584   0.313E-01 0.306E-02
CGA:   8    -0.339609268841E+03   -0.16125E-02   -0.15015E-02 10584   0.174E-01-0.311E-02
CGA:   9    -0.339610321538E+03   -0.10527E-02   -0.10825E-02 10584   0.755E-02 0.159E-02
CGA:  10    -0.339610963714E+03   -0.64218E-03   -0.63952E-03 10584   0.521E-02-0.324E-03
CGA:  11    -0.339611368736E+03   -0.40502E-03   -0.40788E-03 10584   0.137E-02 0.608E-03
CGA:  12    -0.339611570081E+03   -0.20135E-03   -0.32516E-03 10584   0.109E-01-0.988E-03
CGA:  13    -0.339611721488E+03   -0.15141E-03   -0.23205E-03 10584   0.652E-03 0.115E-02
CGA:  14    -0.339611742508E+03   -0.21021E-04   -0.30127E-04 10584   0.532E-03 0.192E-03
CGA:  15    -0.339611840134E+03   -0.97626E-04   -0.12231E-03 10584   0.364E-02-0.274E-03
CGA:  16    -0.339611889906E+03   -0.49772E-04   -0.84497E-04 10584   0.336E-03 0.519E-03
CGA:  17    -0.339611909477E+03   -0.19571E-04   -0.19257E-04 10584   0.321E-03-0.103E-04
CGA:  18    -0.339611960367E+03   -0.50890E-04   -0.77272E-04 10584   0.318E-02-0.164E-03
CGA:  19    -0.339611986090E+03   -0.25723E-04   -0.69431E-04 10584   0.334E-03 0.616E-03
CGA:  20    -0.339611988969E+03   -0.28796E-05   -0.10871E-04 10584   0.144E-03 0.127E-03
CGA:  21    -0.339612005108E+03   -0.16139E-04   -0.15882E-04 10584   0.480E-03-0.350E-04
CGA:  22    -0.339612012262E+03   -0.71534E-05   -0.11512E-04 10584   0.931E-03 0.782E-04
CGA:  23    -0.339612024073E+03   -0.11811E-04   -0.30194E-04 10584   0.560E-03 0.324E-03
CGA:  24    -0.339612028378E+03   -0.43054E-05   -0.16933E-04 10584   0.298E-03 0.214E-03
CGA:  25    -0.339612036957E+03   -0.85793E-05   -0.14382E-04 10584   0.404E-03 0.133E-03
CGA:  26    -0.339612053638E+03   -0.16680E-04   -0.25866E-04 10584   0.756E-03 0.286E-03
CGA:  27    -0.339612061644E+03   -0.80058E-05   -0.20650E-04 10584   0.162E-03 0.268E-03
  15 F= -.33961206E+03 E0= -.33960696E+03  d E =-.705031E-02  mag=    14.0000
       N       E                     dE             d eps       ncg     rms          ort
SDA:   1    -0.321503325242E+03    0.18109E+02    0.00000E+00 10584   0.541E+02 0.000E+00
CGA:   2    -0.328069819360E+03   -0.65665E+01   -0.65140E+01 10584   0.899E+02 0.276E+01
CGA:   3    -0.334949076432E+03   -0.68793E+01   -0.68799E+01 10584   0.474E+02-0.247E+01
CGA:   4    -0.336565427139E+03   -0.16164E+01   -0.16592E+01 10584   0.338E+02-0.290E+01
CGA:   5    -0.337289634426E+03   -0.72421E+00   -0.83956E+00 10584   0.377E+02-0.653E+01
CGA:   6    -0.338006076695E+03   -0.71644E+00   -0.85379E+00 10584   0.414E+02-0.507E+01
CGA:   7    -0.338490388311E+03   -0.48431E+00   -0.70071E+00 10584   0.231E+02-0.120E+02
CGA:   8    -0.338827632771E+03   -0.33724E+00   -0.31301E+00 10584   0.130E+02 0.583E+00
CGA:   9    -0.339026677416E+03   -0.19904E+00   -0.22154E+00 10584   0.545E+01-0.127E+01
CGA:  10    -0.339109536860E+03   -0.82859E-01   -0.78035E-01 10584   0.411E+01 0.270E+00
CGA:  11    -0.339213023360E+03   -0.10349E+00   -0.10813E+00 10584   0.576E+01-0.137E+00
CGA:  12    -0.339324800684E+03   -0.11178E+00   -0.11744E+00 10584   0.479E+01-0.295E+00
CGA:  13    -0.339405591486E+03   -0.80791E-01   -0.92824E-01 10584   0.357E+01-0.499E+00
CGA:  14    -0.339457294169E+03   -0.51703E-01   -0.51231E-01 10584   0.161E+01 0.181E-01
CGA:  15    -0.339479986516E+03   -0.22692E-01   -0.23225E-01 10584   0.728E+00 0.286E-01
CGA:  16    -0.339494999806E+03   -0.15013E-01   -0.15805E-01 10584   0.864E+00 0.133E-02
CGA:  17    -0.339524366255E+03   -0.29366E-01   -0.30417E-01 10584   0.133E+01 0.940E-02
CGA:  18    -0.339558586901E+03   -0.34221E-01   -0.35098E-01 10584   0.978E+00-0.454E-01
CGA:  19    -0.339579508354E+03   -0.20921E-01   -0.20882E-01 10584   0.360E+00-0.109E-01
CGA:  20    -0.339585355334E+03   -0.58470E-02   -0.61592E-02 10584   0.132E+00 0.474E-02
CGA:  21    -0.339589108865E+03   -0.37535E-02   -0.39131E-02 10584   0.171E+00 0.878E-02
CGA:  22    -0.339598671134E+03   -0.95623E-02   -0.93927E-02 10584   0.267E+00 0.129E-01
CGA:  23    -0.339608463239E+03   -0.97921E-02   -0.97238E-02 10584   0.155E+00-0.130E-01
CGA:  24    -0.339612336624E+03   -0.38734E-02   -0.38230E-02 10584   0.426E-01-0.383E-02
CGA:  25    -0.339613271226E+03   -0.93460E-03   -0.99768E-03 10584   0.264E-01 0.322E-02
CGA:  26    -0.339615015121E+03   -0.17439E-02   -0.16497E-02 10584   0.534E-01 0.522E-02
CGA:  27    -0.339618348888E+03   -0.33338E-02   -0.33571E-02 10584   0.407E-01-0.272E-02
CGA:  28    -0.339619981382E+03   -0.16325E-02   -0.16331E-02 10584   0.178E-01-0.552E-02
CGA:  29    -0.339620379833E+03   -0.39845E-03   -0.41704E-03 10584   0.982E-02 0.113E-02
CGA:  30    -0.339620987480E+03   -0.60765E-03   -0.57148E-03 10584   0.173E-01 0.266E-02
CGA:  31    -0.339622400290E+03   -0.14128E-02   -0.14302E-02 10584   0.164E-01-0.883E-03
SDA:  32    -0.339623228353E+03   -0.82806E-03   -0.87155E-03 10584   0.940E-02-0.347E-02
CGA:  33    -0.339623450680E+03   -0.22233E-03   -0.25784E-03 10584   0.340E-02 0.215E-02
CGA:  34    -0.339623952691E+03   -0.50201E-03   -0.39578E-03 10584   0.452E-02 0.205E-02
CGA:  35    -0.339624168460E+03   -0.21577E-03   -0.22546E-03 10584   0.557E-02-0.237E-02
CGA:  36    -0.339624252909E+03   -0.84448E-04   -0.11836E-03 10584   0.117E-02 0.137E-02
CGA:  37    -0.339624302971E+03   -0.50063E-04   -0.55659E-04 10584   0.169E-02 0.877E-03
CGA:  38    -0.339624263212E+03    0.39759E-04   -0.25119E-03 10584   0.218E-01-0.279E-02
CGA:  39    -0.339624635711E+03   -0.37250E-03   -0.44413E-03 10584   0.975E-03 0.249E-02
CGA:  40    -0.339624654972E+03   -0.19261E-04   -0.31257E-04 10584   0.927E-03 0.619E-03
CGA:  41    -0.339624664711E+03   -0.97385E-05   -0.43597E-04 10584   0.238E-01-0.114E-02
CGA:  42    -0.339625072010E+03   -0.40730E-03   -0.49842E-03 10584   0.614E-03 0.152E-02
CGA:  43    -0.339625095667E+03   -0.23657E-04   -0.34898E-04 10584   0.911E-03 0.382E-03
CGA:  44    -0.339625173529E+03   -0.77862E-04   -0.87040E-04 10584   0.458E-02-0.652E-03
CGA:  45    -0.339625229966E+03   -0.56437E-04   -0.96249E-04 10584   0.534E-03 0.652E-03
CGA:  46    -0.339625253067E+03   -0.23101E-04   -0.32707E-04 10584   0.970E-03 0.378E-03
CGA:  47    -0.339625327409E+03   -0.74342E-04   -0.72648E-04 10584   0.329E-02-0.624E-03
CGA:  48    -0.339625363950E+03   -0.36541E-04   -0.68798E-04 10584   0.495E-03 0.567E-03
CGA:  49    -0.339625384043E+03   -0.20093E-04   -0.29085E-04 10584   0.901E-03 0.364E-03
CGA:  50    -0.339625451336E+03   -0.67293E-04   -0.69813E-04 10584   0.337E-02-0.637E-03
CGA:  51    -0.339625488882E+03   -0.37545E-04   -0.68820E-04 10584   0.465E-03 0.584E-03
CGA:  52    -0.339625504152E+03   -0.15270E-04   -0.24283E-04 10584   0.779E-03 0.339E-03
CGA:  53    -0.339625560989E+03   -0.56837E-04   -0.72459E-04 10584   0.421E-02-0.675E-03
CGA:  54    -0.339625610956E+03   -0.49967E-04   -0.83763E-04 10584   0.444E-03 0.660E-03
CGA:  55    -0.339625622120E+03   -0.11164E-04   -0.20221E-04 10584   0.659E-03 0.313E-03
CGA:  56    -0.339625662087E+03   -0.39967E-04   -0.81383E-04 10584   0.598E-02-0.736E-03
CGA:  57    -0.339625739937E+03   -0.77850E-04   -0.11739E-03 10584   0.428E-03 0.787E-03
CGA:  58    -0.339625748467E+03   -0.85290E-05   -0.17528E-04 10584   0.565E-03 0.290E-03
CGA:  59    -0.339625762141E+03   -0.13674E-04   -0.95136E-04 10584   0.867E-02-0.797E-03
CGA:  60    -0.339625884576E+03   -0.12244E-03   -0.17000E-03 10584   0.411E-03 0.932E-03
CGA:  61    -0.339625891648E+03   -0.70720E-05   -0.16021E-04 10584   0.501E-03 0.270E-03
CGA:  62    -0.339625884459E+03    0.71888E-05   -0.10366E-03 10584   0.106E-01-0.794E-03
CGA:  63    -0.339626039598E+03   -0.15514E-03   -0.20829E-03 10584   0.391E-03 0.994E-03
CGA:  64    -0.339626045895E+03   -0.62972E-05   -0.15245E-04 10584   0.466E-03 0.253E-03
CGA:  65    -0.339626041974E+03    0.39213E-05   -0.98544E-04 10584   0.100E-01-0.724E-03
CGA:  66    -0.339626186866E+03   -0.14489E-03   -0.19716E-03 10584   0.371E-03 0.932E-03
CGA:  67    -0.339626192671E+03   -0.58046E-05   -0.14736E-04 10584   0.449E-03 0.240E-03
CGA:  68    -0.339626199233E+03   -0.65621E-05   -0.88690E-04 10584   0.861E-02-0.657E-03
CGA:  69    -0.339626319684E+03   -0.12045E-03   -0.16919E-03 10584   0.355E-03 0.842E-03
CGA:  70    -0.339626325076E+03   -0.53921E-05   -0.14273E-04 10584   0.439E-03 0.231E-03
CGA:  71    -0.339626337008E+03   -0.11932E-04   -0.81981E-04 10584   0.773E-02-0.620E-03
CGA:  72    -0.339626442381E+03   -0.10537E-03   -0.15166E-03 10584   0.343E-03 0.786E-03
CGA:  73    -0.339626447394E+03   -0.50127E-05   -0.13835E-04 10584   0.429E-03 0.225E-03
CGA:  74    -0.339626460055E+03   -0.12661E-04   -0.78925E-04 10584   0.742E-02-0.605E-03
CGA:  75    -0.339626560123E+03   -0.10007E-03   -0.14549E-03 10584   0.334E-03 0.762E-03
CGA:  76    -0.339626564798E+03   -0.46751E-05   -0.13446E-04 10584   0.418E-03 0.220E-03
CGA:  77    -0.339626575952E+03   -0.11154E-04   -0.77936E-04 10584   0.742E-02-0.599E-03
CGA:  78    -0.339626675908E+03   -0.99956E-04   -0.14546E-03 10584   0.327E-03 0.756E-03
CGA:  79    -0.339626680296E+03   -0.43877E-05   -0.13122E-04 10584   0.407E-03 0.215E-03
CGA:  80    -0.339626689583E+03   -0.92870E-05   -0.77558E-04 10584   0.749E-02-0.594E-03
CGA:  81    -0.339626790703E+03   -0.10112E-03   -0.14698E-03 10584   0.321E-03 0.752E-03
CGA:  82    -0.339626794847E+03   -0.41433E-05   -0.12853E-04 10584   0.398E-03 0.210E-03
CGA:  83    -0.339626802917E+03   -0.80704E-05   -0.76974E-04 10584   0.751E-02-0.588E-03
CGA:  84    -0.339626904295E+03   -0.10138E-03   -0.14744E-03 10584   0.316E-03 0.746E-03
CGA:  85    -0.339626908216E+03   -0.39217E-05   -0.12615E-04 10584   0.390E-03 0.206E-03
CGA:  86    -0.339626915755E+03   -0.75390E-05   -0.76064E-04 10584   0.746E-02-0.579E-03
CGA:  87    -0.339627016250E+03   -0.10049E-03   -0.14655E-03 10584   0.310E-03 0.737E-03
CGA:  88    -0.339627019956E+03   -0.37066E-05   -0.12388E-04 10584   0.382E-03 0.203E-03
CGA:  89    -0.339627027233E+03   -0.72764E-05   -0.75055E-04 10584   0.739E-02-0.571E-03
CGA:  90    -0.339627126420E+03   -0.99187E-04   -0.14516E-03 10584   0.305E-03 0.727E-03
CGA:  91    -0.339627129913E+03   -0.34934E-05   -0.12167E-04 10584   0.375E-03 0.199E-03
CGA:  92    -0.339627136918E+03   -0.70051E-05   -0.74132E-04 10584   0.732E-02-0.562E-03
CGA:  93    -0.339627234914E+03   -0.97996E-04   -0.14391E-03 10584   0.300E-03 0.718E-03
CGA:  94    -0.339627238199E+03   -0.32852E-05   -0.11955E-04 10584   0.368E-03 0.196E-03
CGA:  95    -0.339627244908E+03   -0.67081E-05   -0.73324E-04 10584   0.727E-02-0.554E-03
CGA:  96    -0.339627341900E+03   -0.96992E-04   -0.14289E-03 10584   0.296E-03 0.711E-03
CGA:  97    -0.339627344988E+03   -0.30882E-05   -0.11758E-04 10584   0.362E-03 0.193E-03
CGA:  98    -0.339627351476E+03   -0.64877E-05   -0.72578E-04 10584   0.722E-02-0.546E-03
CGA:  99    -0.339627447478E+03   -0.96002E-04   -0.14188E-03 10584   0.292E-03 0.703E-03
CGA: 100    -0.339627450382E+03   -0.29039E-05   -0.11579E-04 10584   0.356E-03 0.191E-03
CGA: 101    -0.339627456770E+03   -0.63881E-05   -0.71856E-04 10584   0.716E-02-0.539E-03
CGA: 102    -0.339627551695E+03   -0.94925E-04   -0.14077E-03 10584   0.288E-03 0.696E-03
CGA: 103    -0.339627554423E+03   -0.27280E-05   -0.11412E-04 10584   0.351E-03 0.188E-03
CGA: 104    -0.339627560807E+03   -0.63840E-05   -0.71165E-04 10584   0.710E-02-0.531E-03
CGA: 105    -0.339627654587E+03   -0.93781E-04   -0.13960E-03 10584   0.284E-03 0.690E-03
CGA: 106    -0.339627657141E+03   -0.25535E-05   -0.11253E-04 10584   0.346E-03 0.186E-03
CGA: 107    -0.339627663604E+03   -0.64630E-05   -0.70517E-04 10584   0.703E-02-0.523E-03
CGA: 108    -0.339627756194E+03   -0.92590E-04   -0.13837E-03 10584   0.281E-03 0.684E-03
CGA: 109    -0.339627758571E+03   -0.23777E-05   -0.11098E-04 10584   0.342E-03 0.184E-03
CGA: 110    -0.339627765218E+03   -0.66468E-05   -0.69898E-04 10584   0.697E-02-0.514E-03
CGA: 111    -0.339627856526E+03   -0.91307E-04   -0.13704E-03 10584   0.278E-03 0.678E-03
CGA: 112    -0.339627858727E+03   -0.22009E-05   -0.10948E-04 10584   0.337E-03 0.183E-03
CGA: 113    -0.339627865657E+03   -0.69302E-05   -0.69289E-04 10584   0.689E-02-0.505E-03
CGA: 114    -0.339627955576E+03   -0.89919E-04   -0.13557E-03 10584   0.276E-03 0.672E-03
CGA: 115    -0.339627957601E+03   -0.20258E-05   -0.10800E-04 10584   0.333E-03 0.181E-03
CGA: 116    -0.339627964885E+03   -0.72835E-05   -0.68680E-04 10584   0.681E-02-0.496E-03
CGA: 117    -0.339628053325E+03   -0.88440E-04   -0.13399E-03 10584   0.273E-03 0.665E-03
CGA: 118    -0.339628055175E+03   -0.18500E-05   -0.10650E-04 10584   0.329E-03 0.180E-03
CGA: 119    -0.339628062829E+03   -0.76542E-05   -0.68071E-04 10584   0.673E-02-0.486E-03
CGA: 120    -0.339628149732E+03   -0.86903E-04   -0.13233E-03 10584   0.270E-03 0.660E-03
CGA: 121    -0.339628151390E+03   -0.16583E-05   -0.10483E-04 10584   0.324E-03 0.178E-03
CGA: 122    -0.339628159387E+03   -0.79968E-05   -0.67469E-04 10584   0.665E-02-0.475E-03
CGA: 123    -0.339628244722E+03   -0.85335E-04   -0.13063E-03 10584   0.267E-03 0.654E-03
CGA: 124    -0.339628246162E+03   -0.14397E-05   -0.10289E-04 10584   0.319E-03 0.176E-03
CGA: 125    -0.339628254483E+03   -0.83215E-05   -0.66868E-04 10584   0.656E-02-0.463E-03
CGA: 126    -0.339628338202E+03   -0.83719E-04   -0.12888E-03 10584   0.264E-03 0.648E-03
CGA: 127    -0.339628339404E+03   -0.12013E-05   -0.10075E-04 10584   0.313E-03 0.174E-03
CGA: 128    -0.339628348143E+03   -0.87394E-05   -0.66210E-04 10584   0.647E-02-0.449E-03
CGA: 129    -0.339628430046E+03   -0.81903E-04   -0.12689E-03 10584   0.261E-03 0.641E-03
CGA: 130    -0.339628431006E+03   -0.96046E-06   -0.98563E-05 10584   0.306E-03 0.172E-03
CGA: 131    -0.339628440366E+03   -0.93600E-05   -0.65424E-04 10584   0.635E-02-0.433E-03
CGA: 132    -0.339628520088E+03   -0.79722E-04   -0.12445E-03 10584   0.257E-03 0.633E-03
CGA: 133    -0.339628520821E+03   -0.73246E-06   -0.96464E-05 10584   0.301E-03 0.170E-03
CGA: 134    -0.339628531000E+03   -0.10179E-04   -0.64505E-04 10584   0.620E-02-0.418E-03
CGA: 135    -0.339628608206E+03   -0.77206E-04   -0.12156E-03 10584   0.254E-03 0.623E-03
CGA: 136    -0.339628608735E+03   -0.52839E-06   -0.94555E-05 10584   0.296E-03 0.169E-03
CGA: 137    -0.339628619851E+03   -0.11116E-04   -0.63507E-04 10584   0.605E-02-0.403E-03
CGA: 138    -0.339628694372E+03   -0.74521E-04   -0.11842E-03 10584   0.251E-03 0.613E-03
CGA: 139    -0.339628694724E+03   -0.35228E-06   -0.92874E-05 10584   0.291E-03 0.167E-03
CGA: 140    -0.339628706807E+03   -0.12083E-04   -0.62497E-04 10584   0.589E-02-0.389E-03
CGA: 141    -0.339628778652E+03   -0.71844E-04   -0.11525E-03 10584   0.248E-03 0.603E-03
CGA: 142    -0.339628778853E+03   -0.20193E-06   -0.91403E-05 10584   0.287E-03 0.165E-03
CGA: 143    -0.339628791865E+03   -0.13012E-04   -0.61532E-04 10584   0.574E-02-0.377E-03
CGA: 144    -0.339628861176E+03   -0.69311E-04   -0.11220E-03 10584   0.246E-03 0.594E-03
CGA: 145    -0.339628861249E+03   -0.73724E-07   -0.90102E-05 10584   0.284E-03 0.164E-03
CGA: 146    -0.339628875115E+03   -0.13866E-04   -0.60643E-04 10584   0.560E-02-0.366E-03
CGA: 147    -0.339628942107E+03   -0.66992E-04   -0.10938E-03 10584   0.244E-03 0.585E-03
CGA: 148    -0.339628942070E+03    0.36514E-07   -0.88942E-05 10584   0.281E-03 0.163E-03
CGA: 149    -0.339628956695E+03   -0.14625E-04   -0.59850E-04 10584   0.547E-02-0.356E-03
CGA: 150    -0.339629021625E+03   -0.64929E-04   -0.10684E-03 10584   0.242E-03 0.578E-03
CGA: 151    -0.339629021494E+03    0.13059E-06   -0.87910E-05 10584   0.279E-03 0.162E-03
CGA: 152    -0.339629036802E+03   -0.15308E-04   -0.59144E-04 10584   0.536E-02-0.347E-03
CGA: 153    -0.339629099894E+03   -0.63092E-04   -0.10455E-03 10584   0.240E-03 0.571E-03
CGA: 154    -0.339629099684E+03    0.21042E-06   -0.86999E-05 10584   0.277E-03 0.162E-03
CGA: 155    -0.339629115597E+03   -0.15914E-04   -0.58520E-04 10584   0.525E-02-0.339E-03
CGA: 156    -0.339629177071E+03   -0.61474E-04   -0.10251E-03 10584   0.239E-03 0.565E-03
CGA: 157    -0.339629176796E+03    0.27558E-06   -0.86215E-05 10584   0.275E-03 0.161E-03
CGA: 158    -0.339629193220E+03   -0.16425E-04   -0.57985E-04 10584   0.517E-02-0.332E-03
CGA: 159    -0.339629253331E+03   -0.60111E-04   -0.10077E-03 10584   0.238E-03 0.560E-03
CGA: 160    -0.339629253009E+03    0.32224E-06   -0.85587E-05 10584   0.273E-03 0.160E-03
CGA: 161    -0.339629269837E+03   -0.16828E-04   -0.57544E-04 10584   0.510E-02-0.326E-03
CGA: 162    -0.339629328865E+03   -0.59028E-04   -0.99359E-04 10584   0.237E-03 0.555E-03
CGA: 163    -0.339629328515E+03    0.35029E-06   -0.85120E-05 10584   0.272E-03 0.160E-03
CGA: 164    -0.339629345620E+03   -0.17105E-04   -0.57203E-04 10584   0.504E-02-0.323E-03
CGA: 165    -0.339629403866E+03   -0.58246E-04   -0.98309E-04 10584   0.236E-03 0.552E-03
CGA: 166    -0.339629403504E+03    0.36233E-06   -0.84785E-05 10584   0.272E-03 0.160E-03
CGA: 167    -0.339629420773E+03   -0.17269E-04   -0.56950E-04 10584   0.501E-02-0.320E-03
CGA: 168    -0.339629478500E+03   -0.57727E-04   -0.97577E-04 10584   0.236E-03 0.550E-03
CGA: 169    -0.339629478138E+03    0.36152E-06   -0.84546E-05 10584   0.271E-03 0.160E-03
CGA: 170    -0.339629495468E+03   -0.17330E-04   -0.56771E-04 10584   0.499E-02-0.318E-03
CGA: 171    -0.339629552904E+03   -0.57436E-04   -0.97121E-04 10584   0.235E-03 0.548E-03
CGA: 172    -0.339629552553E+03    0.35135E-06   -0.84380E-05 10584   0.271E-03 0.159E-03
CGA: 173    -0.339629569846E+03   -0.17294E-04   -0.56656E-04 10584   0.497E-02-0.318E-03
CGA: 174    -0.339629627194E+03   -0.57347E-04   -0.96915E-04 10584   0.235E-03 0.547E-03
CGA: 175    -0.339629626862E+03    0.33193E-06   -0.84273E-05 10584   0.270E-03 0.159E-03
CGA: 176    -0.339629644027E+03   -0.17165E-04   -0.56589E-04 10584   0.498E-02-0.318E-03
CGA: 177    -0.339629701461E+03   -0.57434E-04   -0.96923E-04 10584   0.235E-03 0.546E-03
CGA: 178    -0.339629701156E+03    0.30480E-06   -0.84211E-05 10584   0.270E-03 0.159E-03
CGA: 179    -0.339629718089E+03   -0.16933E-04   -0.56564E-04 10584   0.499E-02-0.319E-03
CGA: 180    -0.339629775782E+03   -0.57693E-04   -0.97139E-04 10584   0.234E-03 0.546E-03
CGA: 181    -0.339629775510E+03    0.27231E-06   -0.84160E-05 10584   0.270E-03 0.158E-03
CGA: 182    -0.339629792127E+03   -0.16617E-04   -0.56559E-04 10584   0.500E-02-0.321E-03
CGA: 183    -0.339629850191E+03   -0.58064E-04   -0.97492E-04 10584   0.234E-03 0.546E-03
CGA: 184    -0.339629849948E+03    0.24250E-06   -0.84046E-05 10584   0.269E-03 0.158E-03
CGA: 185    -0.339629866226E+03   -0.16278E-04   -0.56526E-04 10584   0.502E-02-0.323E-03
CGA: 186    -0.339629924617E+03   -0.58391E-04   -0.97796E-04 10584   0.233E-03 0.545E-03
CGA: 187    -0.339629924387E+03    0.22993E-06   -0.83744E-05 10584   0.268E-03 0.157E-03
CGA: 188    -0.339629940377E+03   -0.15989E-04   -0.56422E-04 10584   0.502E-02-0.323E-03
CGA: 189    -0.339629998891E+03   -0.58515E-04   -0.97860E-04 10584   0.231E-03 0.544E-03
CGA: 190    -0.339629998647E+03    0.24481E-06   -0.83171E-05 10584   0.266E-03 0.156E-03
CGA: 191    -0.339630014430E+03   -0.15783E-04   -0.56231E-04 10584   0.501E-02-0.321E-03
CGA: 192    -0.339630072808E+03   -0.58378E-04   -0.97621E-04 10584   0.230E-03 0.542E-03
CGA: 193    -0.339630072522E+03    0.28562E-06   -0.82346E-05 10584   0.263E-03 0.155E-03
CGA: 194    -0.339630088164E+03   -0.15642E-04   -0.55966E-04 10584   0.499E-02-0.317E-03
CGA: 195    -0.339630146200E+03   -0.58035E-04   -0.97141E-04 10584   0.228E-03 0.539E-03
CGA: 196    -0.339630145855E+03    0.34417E-06   -0.81356E-05 10584   0.260E-03 0.154E-03
CGA: 197    -0.339630161377E+03   -0.15521E-04   -0.55654E-04 10584   0.496E-02-0.313E-03
CGA: 198    -0.339630218970E+03   -0.57594E-04   -0.96550E-04 10584   0.226E-03 0.536E-03
CGA: 199    -0.339630218561E+03    0.40865E-06   -0.80302E-05 10584   0.257E-03 0.152E-03
CGA: 200    -0.339630233951E+03   -0.15390E-04   -0.55314E-04 10584   0.493E-02-0.308E-03
  16 F= -.33963023E+03 E0= -.33962423E+03  d E =-.181723E-01  mag=    14.0000
       N       E                     dE             d eps       ncg     rms          ort
SDA:   1    -0.327660040800E+03    0.11970E+02    0.00000E+00 10584   0.487E+02 0.000E+00
CGA:   2    -0.330987891987E+03   -0.33279E+01   -0.36984E+01 10584   0.281E+02 0.126E+02
CGA:   3    -0.334269870713E+03   -0.32820E+01   -0.35054E+01 10584   0.535E+02-0.114E+02
CGA:   4    -0.335210790023E+03   -0.94092E+00   -0.10124E+01 10584   0.922E+02-0.243E+01
CGA:   5    -0.336505443639E+03   -0.12947E+01   -0.21816E+01 10584   0.289E+02-0.483E+02
CGA:   6    -0.337543021802E+03   -0.10376E+01   -0.90429E+00 10584   0.662E+01 0.234E+01
CGA:   7    -0.338173197259E+03   -0.63018E+00   -0.62499E+00 10584   0.846E+01 0.384E+00
CGA:   8    -0.338564974814E+03   -0.39178E+00   -0.40588E+00 10584   0.181E+01-0.427E-01
CGA:   9    -0.338614702082E+03   -0.49727E-01   -0.46291E-01 10584   0.678E+00 0.102E+00
CGA:  10    -0.338692152724E+03   -0.77451E-01   -0.74064E-01 10584   0.102E+01 0.780E-01
CGA:  11    -0.338749971986E+03   -0.57819E-01   -0.59435E-01 10584   0.741E+00-0.172E-01
CGA:  12    -0.338779422028E+03   -0.29450E-01   -0.28022E-01 10584   0.162E+00 0.535E-01
CGA:  13    -0.338802846674E+03   -0.23425E-01   -0.22824E-01 10584   0.576E+00 0.105E-01
CGA:  14    -0.338833018808E+03   -0.30172E-01   -0.30962E-01 10584   0.645E-01-0.164E-01
CGA:  15    -0.338837826214E+03   -0.48074E-02   -0.48259E-02 10584   0.142E+00-0.122E-01
CGA:  16    -0.338847766891E+03   -0.99407E-02   -0.10113E-01 10584   0.678E-01-0.125E-01
CGA:  17    -0.338849549654E+03   -0.17828E-02   -0.20050E-02 10584   0.317E-01 0.630E-02
CGA:  18    -0.338851142007E+03   -0.15924E-02   -0.16947E-02 10584   0.216E-01 0.458E-02
CGA:  19    -0.338853093024E+03   -0.19510E-02   -0.19734E-02 10584   0.485E-01-0.347E-02
CGA:  20    -0.338855551498E+03   -0.24585E-02   -0.23849E-02 10584   0.358E-01-0.510E-02
CGA:  21    -0.338856380177E+03   -0.82868E-03   -0.78796E-03 10584   0.147E-01-0.302E-03
CGA:  22    -0.338857281205E+03   -0.90103E-03   -0.86963E-03 10584   0.290E-01-0.296E-02
CGA:  23    -0.338858648336E+03   -0.13671E-02   -0.12060E-02 10584   0.370E-01-0.936E-02
CGA:  24    -0.338859604565E+03   -0.95623E-03   -0.73249E-03 10584   0.304E-01-0.654E-02
CGA:  25    -0.338860341735E+03   -0.73717E-03   -0.70398E-03 10584   0.200E-01-0.136E-02
CGA:  26    -0.338860681397E+03   -0.33966E-03   -0.44198E-03 10584   0.134E-01 0.266E-02
CGA:  27    -0.338861038390E+03   -0.35699E-03   -0.47415E-03 10584   0.158E-01 0.379E-02
CGA:  28    -0.338861856365E+03   -0.81798E-03   -0.87149E-03 10584   0.162E-01 0.307E-02
CGA:  29    -0.338862710886E+03   -0.85452E-03   -0.79325E-03 10584   0.129E-01-0.337E-02
CGA:  30    -0.338863307190E+03   -0.59630E-03   -0.58260E-03 10584   0.146E-01-0.660E-02
CGA:  31    -0.338863956189E+03   -0.64900E-03   -0.68632E-03 10584   0.879E-02 0.310E-02
CGA:  32    -0.338865025301E+03   -0.10691E-02   -0.11670E-02 10584   0.420E-02-0.191E-02
CGA:  33    -0.338865302151E+03   -0.27685E-03   -0.29103E-03 10584   0.448E-02-0.510E-03
CGA:  34    -0.338862308592E+03    0.29936E-02   -0.16771E-02 10584   0.137E+00-0.131E-01
CGA:  35    -0.338865592491E+03   -0.32839E-02   -0.37586E-02 10584   0.132E-01 0.908E-02
CGA:  36    -0.338866082838E+03   -0.49035E-03   -0.65542E-03 10584   0.247E-02 0.311E-02
CGA:  37    -0.338866224273E+03   -0.14144E-03   -0.15455E-03 10584   0.233E-02 0.219E-03
CGA:  38    -0.338866426200E+03   -0.20193E-03   -0.21903E-03 10584   0.198E-02 0.100E-02
CGA:  39    -0.338866591584E+03   -0.16538E-03   -0.17041E-03 10584   0.162E-02 0.122E-03
CGA:  40    -0.338866709570E+03   -0.11799E-03   -0.24716E-03 10584   0.751E-02-0.300E-02
CGA:  41    -0.338866805596E+03   -0.96026E-04   -0.22639E-03 10584   0.177E-02 0.188E-02
CGA:  42    -0.338866829982E+03   -0.24386E-04   -0.81182E-04 10584   0.768E-03 0.932E-03
CGA:  43    -0.338866777287E+03    0.52695E-04   -0.19678E-03 10584   0.170E-01-0.156E-02
CGA:  44    -0.338867058628E+03   -0.28134E-03   -0.39249E-03 10584   0.346E-03 0.145E-02
CGA:  45    -0.338867067538E+03   -0.89099E-05   -0.15551E-04 10584   0.327E-03 0.114E-03
CGA:  46    -0.338867174007E+03   -0.10647E-03    0.80681E-04 10584   0.482E-03 0.296E-03
CGA:  47    -0.338867203072E+03   -0.29065E-04   -0.28160E-04 10584   0.492E-03-0.247E-04
CGA:  48    -0.338867199419E+03    0.36530E-05   -0.16949E-04 10584   0.354E-03 0.351E-03
CGA:  49    -0.338867209272E+03   -0.98527E-05   -0.15234E-04 10584   0.257E-03 0.110E-03
[...]
CGA:  16    -0.339781439631E+03   -0.85511E-06   -0.89277E-05 10584   0.279E-03 0.174E-03
 117 F= -.33978144E+03 E0= -.33977684E+03  d E =-.176573E-02  mag=    14.0000
       N       E                     dE             d eps       ncg     rms          ort
SDA:   1    -0.339755772604E+03    0.25666E-01    0.00000E+00 10584   0.223E+00 0.000E+00
CGA:   2    -0.339764501849E+03   -0.87292E-02   -0.85657E-02 10584   0.791E-01-0.133E-01
CGA:   3    -0.339772675870E+03   -0.81740E-02   -0.82704E-02 10584   0.102E+00-0.196E-02
CGA:   4    -0.339779538172E+03   -0.68623E-02   -0.68400E-02 10584   0.200E-01 0.205E-02
CGA:   5    -0.339781402875E+03   -0.18647E-02   -0.17964E-02 10584   0.141E-01 0.239E-02
CGA:   6    -0.339782826043E+03   -0.14232E-02   -0.15385E-02 10584   0.109E-01-0.322E-02
CGA:   7    -0.339783081849E+03   -0.25581E-03   -0.29404E-03 10584   0.333E-02 0.135E-02
CGA:   8    -0.339783223366E+03   -0.14152E-03   -0.16223E-03 10584   0.223E-02 0.112E-02
CGA:   9    -0.339783404842E+03   -0.18148E-03   -0.18147E-03 10584   0.177E-02-0.919E-04
CGA:  10    -0.339783509378E+03   -0.10454E-03   -0.10463E-03 10584   0.577E-03-0.170E-03
CGA:  11    -0.339783528054E+03   -0.18676E-04   -0.20833E-04 10584   0.442E-03 0.101E-03
CGA:  12    -0.339783593554E+03   -0.65499E-04   -0.73859E-04 10584   0.660E-03-0.102E-03
CGA:  13    -0.339783602824E+03   -0.92708E-05   -0.12797E-04 10584   0.269E-03 0.899E-04
 118 F= -.33978360E+03 E0= -.33977900E+03  d E =-.216319E-02  mag=    14.0000
       N       E                     dE             d eps       ncg     rms          ort
SDA:   1    -0.339780839934E+03    0.27536E-02    0.00000E+00 10584   0.472E-01 0.000E+00
CGA:   2    -0.339782474734E+03   -0.16348E-02   -0.15075E-02 10584   0.733E-02-0.490E-02
CGA:   3    -0.339783027695E+03   -0.55296E-03   -0.54918E-03 10584   0.625E-02 0.135E-03
CGA:   4    -0.339783600183E+03   -0.57249E-03   -0.58594E-03 10584   0.343E-02-0.437E-03
CGA:   5    -0.339783764735E+03   -0.16455E-03   -0.16972E-03 10584   0.104E-02 0.637E-03
CGA:   6    -0.339782905265E+03    0.85947E-03   -0.47295E-03 10584   0.366E-01-0.407E-02
CGA:   7    -0.339783743118E+03   -0.83785E-03   -0.10053E-02 10584   0.280E-02 0.217E-02
CGA:   8    -0.339783876624E+03   -0.13351E-03   -0.15489E-03 10584   0.109E-02 0.385E-03
CGA:   9    -0.339783994473E+03   -0.11785E-03   -0.11409E-03 10584   0.558E-03-0.310E-03
CGA:  10    -0.339783999193E+03   -0.47202E-05   -0.10947E-04 10584   0.200E-03 0.800E-04
 119 F= -.33978400E+03 E0= -.33977939E+03  d E =-.396369E-03  mag=    14.0000
       N       E                     dE             d eps       ncg     rms          ort
SDA:   1    -0.339225994881E+03    0.55800E+00    0.00000E+00 10584   0.205E+01 0.000E+00
CGA:   2    -0.339410423415E+03   -0.18443E+00   -0.18491E+00 10584   0.294E+01 0.356E-01
CGA:   3    -0.339597400318E+03   -0.18698E+00   -0.18706E+00 10584   0.835E+00-0.173E-01
CGA:   4    -0.339702948833E+03   -0.10555E+00   -0.10560E+00 10584   0.653E+00 0.141E-02
CGA:   5    -0.339743097673E+03   -0.40149E-01   -0.40319E-01 10584   0.240E+00-0.117E-01
CGA:   6    -0.339759938397E+03   -0.16841E-01   -0.16874E-01 10584   0.175E+00 0.158E-02
CGA:   7    -0.339771099108E+03   -0.11161E-01   -0.11078E-01 10584   0.451E-01-0.118E-02
CGA:   8    -0.339774139175E+03   -0.30401E-02   -0.31081E-02 10584   0.232E-01 0.309E-02
CGA:   9    -0.339776827988E+03   -0.26888E-02   -0.27463E-02 10584   0.148E-01-0.291E-02
CGA:  10    -0.339777292077E+03   -0.46409E-03   -0.53371E-03 10584   0.494E-02 0.137E-02
CGA:  11    -0.339777762677E+03   -0.47060E-03   -0.47216E-03 10584   0.414E-02 0.970E-03
CGA:  12    -0.339778275227E+03   -0.51255E-03   -0.54888E-03 10584   0.628E-02-0.167E-02
CGA:  13    -0.339778369240E+03   -0.94012E-04   -0.10277E-03 10584   0.282E-02 0.124E-03
CGA:  14    -0.339778406317E+03   -0.37077E-04   -0.67913E-04 10584   0.157E-02 0.469E-03
CGA:  15    -0.339778458191E+03   -0.51874E-04   -0.73183E-04 10584   0.185E-02 0.483E-03
CGA:  16    -0.339778579792E+03   -0.12160E-03   -0.12349E-03 10584   0.182E-02 0.543E-04
CGA:  17    -0.339778675544E+03   -0.95752E-04   -0.83753E-04 10584   0.106E-02-0.343E-03
CGA:  18    -0.339778703973E+03   -0.28429E-04   -0.23860E-04 10584   0.527E-03-0.920E-04
CGA:  19    -0.339778735916E+03   -0.31943E-04   -0.29367E-04 10584   0.109E-02-0.178E-03
CGA:  20    -0.339778790022E+03   -0.54106E-04   -0.50433E-04 10584   0.199E-02-0.753E-03
CGA:  21    -0.339778844756E+03   -0.54734E-04   -0.64331E-04 10584   0.187E-03 0.219E-03
CGA:  22    -0.339778841670E+03    0.30861E-05   -0.44826E-05 10584   0.123E-03 0.148E-03
 120 F= -.33977884E+03 E0= -.33977425E+03  d E =0.515752E-02  mag=    14.0000
       N       E                     dE             d eps       ncg     rms          ort
SDA:   1    -0.339624896014E+03    0.15395E+00    0.00000E+00 10584   0.595E+00 0.000E+00
CGA:   2    -0.339673887359E+03   -0.48991E-01   -0.48715E-01 10584   0.706E+00 0.143E-01
CGA:   3    -0.339735167242E+03   -0.61280E-01   -0.61544E-01 10584   0.378E+00-0.162E-01
CGA:   4    -0.339756315837E+03   -0.21149E-01   -0.21185E-01 10584   0.169E+00 0.984E-02
CGA:   5    -0.339774334261E+03   -0.18018E-01   -0.18010E-01 10584   0.689E-01 0.146E-04
CGA:   6    -0.339779343897E+03   -0.50096E-02   -0.50161E-02 10584   0.358E-01-0.369E-02
CGA:   7    -0.339782498189E+03   -0.31543E-02   -0.31633E-02 10584   0.212E-01-0.482E-03
CGA:   8    -0.339783169542E+03   -0.67135E-03   -0.76038E-03 10584   0.432E-02 0.254E-02
CGA:   9    -0.339783930486E+03   -0.76094E-03   -0.76445E-03 10584   0.501E-02-0.447E-04
CGA:  10    -0.339784170785E+03   -0.24030E-03   -0.22070E-03 10584   0.193E-02-0.683E-03
CGA:  11    -0.339784251745E+03   -0.80959E-04   -0.90936E-04 10584   0.116E-02 0.528E-03
CGA:  12    -0.339784380777E+03   -0.12903E-03   -0.12600E-03 10584   0.114E-02 0.232E-03
CGA:  13    -0.339784486445E+03   -0.10567E-03   -0.12443E-03 10584   0.264E-02-0.105E-02
CGA:  14    -0.339784517700E+03   -0.31255E-04   -0.58989E-04 10584   0.278E-03 0.526E-03
CGA:  15    -0.339784520741E+03   -0.30409E-05   -0.99763E-05 10584   0.219E-03 0.167E-03
CGA:  16    -0.339784554567E+03   -0.33826E-04    0.66212E-04 10584   0.258E-03 0.451E-04
CGA:  17    -0.339784571589E+03   -0.17023E-04   -0.18476E-04 10584   0.511E-04 0.144E-03
CGA:  18    -0.339784572829E+03   -0.12399E-05   -0.22579E-05 10584   0.438E-04 0.413E-04
 121 F= -.33978457E+03 E0= -.33977999E+03  d E =-.573116E-02  mag=    14.0000
       N       E                     dE             d eps       ncg     rms          ort
SDA:   1    -0.339754810057E+03    0.29762E-01    0.00000E+00 10584   0.104E+00 0.000E+00
CGA:   2    -0.339770088801E+03   -0.15279E-01   -0.15549E-01 10584   0.931E-01-0.333E-02
CGA:   3    -0.339776605518E+03   -0.65167E-02   -0.65154E-02 10584   0.495E-01 0.216E-02
CGA:   4    -0.339780924172E+03   -0.43187E-02   -0.42650E-02 10584   0.360E-01 0.421E-02
CGA:   5    -0.339783347110E+03   -0.24229E-02   -0.23767E-02 10584   0.165E-01-0.444E-02
CGA:   6    -0.339784308572E+03   -0.96146E-03   -0.96511E-03 10584   0.704E-02 0.694E-03
CGA:   7    -0.339784816599E+03   -0.50803E-03   -0.50985E-03 10584   0.197E-02 0.882E-03
CGA:   8    -0.339785047787E+03   -0.23119E-03   -0.23456E-03 10584   0.173E-02-0.102E-03
CGA:   9    -0.339785166795E+03   -0.11901E-03   -0.11783E-03 10584   0.153E-02-0.799E-03
CGA:  10    -0.339785174172E+03   -0.73769E-05   -0.22281E-04 10584   0.735E-03 0.324E-03
CGA:  11    -0.339785173698E+03    0.47365E-06   -0.16861E-04 10584   0.296E-03 0.333E-03
CGA:  12    -0.339785177458E+03   -0.37597E-05   -0.12095E-04 10584   0.299E-03 0.207E-03
CGA:  13    -0.339785224269E+03   -0.46812E-04    0.53603E-04 10584   0.430E-03-0.680E-04
CGA:  14    -0.339785252975E+03   -0.28706E-04   -0.28099E-04 10584   0.150E-03 0.328E-04
CGA:  15    -0.339785249257E+03    0.37181E-05   -0.19491E-05 10584   0.697E-04 0.103E-03
 122 F= -.33978525E+03 E0= -.33978065E+03  d E =-.676428E-03  mag=    14.0000
       N       E                     dE             d eps       ncg     rms          ort
SDA:   1    -0.339783414752E+03    0.18382E-02    0.00000E+00 10584   0.226E-01 0.000E+00
CGA:   2    -0.339784434876E+03   -0.10201E-02   -0.93025E-03 10584   0.646E-02-0.476E-02
CGA:   3    -0.339784711740E+03   -0.27686E-03   -0.27898E-03 10584   0.309E-02 0.345E-03
CGA:   4    -0.339784935109E+03   -0.22337E-03   -0.21761E-03 10584   0.108E-02 0.887E-03
CGA:   5    -0.339784992080E+03   -0.56972E-04   -0.28396E-03 10584   0.112E-01-0.159E-02
CGA:   6    -0.339785217103E+03   -0.22502E-03   -0.27197E-03 10584   0.389E-03 0.971E-03
CGA:   7    -0.339785236333E+03   -0.19231E-04   -0.18915E-04 10584   0.186E-03-0.159E-04
CGA:   8    -0.339785264421E+03   -0.28087E-04    0.26459E-04 10584   0.152E-03 0.761E-04
CGA:   9    -0.339785270714E+03   -0.62938E-05   -0.83960E-05 10584   0.359E-04 0.824E-04
 123 F= -.33978527E+03 E0= -.33978067E+03  d E =-.214572E-04  mag=    14.0000
       N       E                     dE             d eps       ncg     rms          ort
SDA:   1    -0.339772141201E+03    0.13123E-01    0.00000E+00 10584   0.530E-01 0.000E+00
CGA:   2    -0.339776383073E+03   -0.42419E-02   -0.43173E-02 10584   0.756E-01-0.374E-02
CGA:   3    -0.339781066984E+03   -0.46839E-02   -0.46673E-02 10584   0.228E-01 0.361E-02
CGA:   4    -0.339782723991E+03   -0.16570E-02   -0.16650E-02 10584   0.181E-01-0.103E-02
CGA:   5    -0.339784311144E+03   -0.15872E-02   -0.16730E-02 10584   0.129E-01-0.253E-02
CGA:   6    -0.339784611330E+03   -0.30019E-03   -0.35064E-03 10584   0.361E-02 0.158E-02
CGA:   7    -0.339784796500E+03   -0.18517E-03   -0.20096E-03 10584   0.311E-02 0.120E-02
CGA:   8    -0.339785061275E+03   -0.26477E-03   -0.26594E-03 10584   0.162E-02-0.563E-03
CGA:   9    -0.339785150029E+03   -0.88753E-04   -0.94176E-04 10584   0.869E-03-0.616E-03
CGA:  10    -0.339785190989E+03   -0.40960E-04   -0.39020E-04 10584   0.451E-03 0.196E-03
CGA:  11    -0.339785216765E+03   -0.25777E-04   -0.27694E-04 10584   0.228E-03 0.147E-03
CGA:  12    -0.339785235870E+03   -0.19105E-04   -0.19044E-04 10584   0.101E-03 0.113E-03
CGA:  13    -0.339785259779E+03   -0.23909E-04    0.17792E-04 10584   0.642E-04 0.535E-04
CGA:  14    -0.339785260936E+03   -0.11575E-05   -0.23217E-05 10584   0.412E-04 0.443E-04
 124 F= -.33978526E+03 E0= -.33978066E+03  d E =0.977801E-05  mag=    14.0000
       N       E                     dE             d eps       ncg     rms          ort
SDA:   1    -0.339780875701E+03    0.43841E-02    0.00000E+00 10584   0.205E-01 0.000E+00
CGA:   2    -0.339781767576E+03   -0.89187E-03   -0.92041E-03 10584   0.145E-01 0.172E-02
CGA:   3    -0.339784411904E+03   -0.26443E-02   -0.29831E-02 10584   0.891E-02-0.262E-02
CGA:   4    -0.339784713351E+03   -0.30145E-03   -0.33992E-03 10584   0.329E-02 0.195E-02
CGA:   5    -0.339785057529E+03   -0.34418E-03   -0.32996E-03 10584   0.231E-02 0.843E-03
CGA:   6    -0.339785283760E+03   -0.22623E-03   -0.34307E-03 10584   0.288E-02-0.226E-02
CGA:   7    -0.339785334474E+03   -0.50715E-04   -0.88923E-04 10584   0.677E-03 0.101E-02
CGA:   8    -0.339785356467E+03   -0.21993E-04   -0.33864E-04 10584   0.349E-03 0.394E-03
CGA:   9    -0.339785416985E+03   -0.60518E-04    0.35605E-04 10584   0.201E-03 0.102E-03
CGA:  10    -0.339785426870E+03   -0.98849E-05   -0.12218E-04 10584   0.721E-04 0.126E-03
 125 F= -.33978543E+03 E0= -.33978083E+03  d E =-.165933E-03  mag=    14.0000
       N       E                     dE             d eps       ncg     rms          ort
SDA:   1    -0.339781993771E+03    0.34232E-02    0.00000E+00 10584   0.133E-01 0.000E+00
CGA:   2    -0.339783555431E+03   -0.15617E-02   -0.18304E-02 10584   0.198E-01-0.360E-02
CGA:   3    -0.339784473976E+03   -0.91854E-03   -0.92163E-03 10584   0.723E-02 0.107E-02
CGA:   4    -0.339784772322E+03   -0.29835E-03   -0.33879E-03 10584   0.356E-02 0.185E-02
CGA:   5    -0.339785160212E+03   -0.38789E-03   -0.37793E-03 10584   0.214E-02 0.522E-03
CGA:   6    -0.339785322889E+03   -0.16268E-03   -0.26283E-03 10584   0.433E-02-0.247E-02
CGA:   7    -0.339785403353E+03   -0.80464E-04   -0.13004E-03 10584   0.800E-03 0.131E-02
CGA:   8    -0.339785423773E+03   -0.20419E-04   -0.34541E-04 10584   0.345E-03 0.423E-03
CGA:   9    -0.339785479985E+03   -0.56212E-04    0.43854E-04 10584   0.184E-03 0.132E-03
CGA:  10    -0.339785487983E+03   -0.79981E-05   -0.10810E-04 10584   0.624E-04 0.126E-03
 126 F= -.33978549E+03 E0= -.33978089E+03  d E =-.611135E-04  mag=    14.0000
       N       E                     dE             d eps       ncg     rms          ort
SDA:   1    -0.339783197096E+03    0.22829E-02    0.00000E+00 10584   0.663E-02 0.000E+00
CGA:   2    -0.339783973836E+03   -0.77674E-03   -0.99078E-03 10584   0.285E-01-0.249E-02
CGA:   3    -0.339784698513E+03   -0.72468E-03   -0.73633E-03 10584   0.185E-01 0.456E-03
CGA:   4    -0.339785013078E+03   -0.31457E-03   -0.37377E-03 10584   0.370E-02 0.113E-02
CGA:   5    -0.339785130104E+03   -0.11703E-03   -0.13040E-03 10584   0.317E-02 0.430E-03
CGA:   6    -0.339785346909E+03   -0.21681E-03   -0.21647E-03 10584   0.332E-02-0.573E-03
CGA:   7    -0.339785445371E+03   -0.98462E-04   -0.87453E-04 10584   0.156E-02-0.377E-03
CGA:   8    -0.339785467138E+03   -0.21767E-04   -0.29542E-04 10584   0.674E-03 0.194E-03
CGA:   9    -0.339785471997E+03   -0.48585E-05   -0.15535E-04 10584   0.475E-03 0.282E-03
CGA:  10    -0.339785483089E+03   -0.11093E-04   -0.19374E-04 10584   0.456E-03 0.299E-03
CGA:  11    -0.339784655352E+03    0.82774E-03   -0.45090E-03 10584   0.376E-01-0.328E-02
CGA:  12    -0.339785512974E+03   -0.85762E-03   -0.95732E-03 10584   0.958E-03 0.232E-02
CGA:  13    -0.339785535384E+03   -0.22411E-04   -0.31219E-04 10584   0.914E-04 0.128E-03
CGA:  14    -0.339785539137E+03   -0.37524E-05   -0.49659E-05 10584   0.665E-04 0.265E-04
 127 F= -.33978554E+03 E0= -.33978093E+03  d E =-.511537E-04  mag=    14.0000
       N       E                     dE             d eps       ncg     rms          ort
SDA:   1    -0.339784727142E+03    0.80824E-03    0.00000E+00 10584   0.206E-01 0.000E+00
CGA:   2    -0.339785351997E+03   -0.62485E-03   -0.62993E-03 10584   0.198E-02 0.146E-03
CGA:   3    -0.339785379399E+03   -0.27402E-04   -0.64709E-04 10584   0.590E-03 0.709E-03
CGA:   4    -0.339785407154E+03   -0.27755E-04   -0.40177E-04 10584   0.659E-03 0.377E-03
CGA:   5    -0.339784660252E+03    0.74690E-03   -0.22706E-03 10584   0.446E-01-0.370E-02
CGA:   6    -0.339785572439E+03   -0.91219E-03   -0.10659E-02 10584   0.112E-02 0.330E-02
CGA:   7    -0.339785572046E+03    0.39301E-06   -0.28311E-04 10584   0.217E-03 0.431E-03
 128 F= -.33978557E+03 E0= -.33978096E+03  d E =-.329093E-04  mag=    14.0000
       N       E                     dE             d eps       ncg     rms          ort
SDA:   1    -0.339783652436E+03    0.19200E-02    0.00000E+00 10584   0.213E-01 0.000E+00
CGA:   2    -0.339784458233E+03   -0.80580E-03   -0.80145E-03 10584   0.544E-02-0.342E-03
CGA:   3    -0.339784983501E+03   -0.52527E-03   -0.61282E-03 10584   0.125E-01-0.270E-02
CGA:   4    -0.339785216018E+03   -0.23252E-03   -0.25352E-03 10584   0.775E-02 0.483E-03
CGA:   5    -0.339785312129E+03   -0.96111E-04   -0.17149E-03 10584   0.191E-02 0.135E-02
CGA:   6    -0.339785330853E+03   -0.18724E-04   -0.56370E-04 10584   0.114E-02 0.717E-03
CGA:   7    -0.339785376380E+03   -0.45527E-04   -0.60481E-04 10584   0.105E-02 0.399E-03
CGA:   8    -0.339785478457E+03   -0.10208E-03   -0.10124E-03 10584   0.133E-02-0.374E-03
CGA:   9    -0.339785500888E+03   -0.22431E-04   -0.16368E-04 10584   0.609E-03-0.113E-03
CGA:  10    -0.339785510615E+03   -0.97266E-05   -0.90888E-05 10584   0.259E-03-0.137E-04
 129 F= -.33978551E+03 E0= -.33978090E+03  d E =0.614314E-04  mag=    14.0000
       N       E                     dE             d eps       ncg     rms          ort
SDA:   1    -0.339775235364E+03    0.10266E-01    0.00000E+00 10584   0.365E+00 0.000E+00
CGA:   2    -0.339784050310E+03   -0.88149E-02   -0.89463E-02 10584   0.673E-02 0.804E-02
CGA:   3    -0.339784619486E+03   -0.56918E-03   -0.71071E-03 10584   0.121E-01-0.365E-02
CGA:   4    -0.339785007432E+03   -0.38795E-03   -0.44010E-03 10584   0.162E-02 0.174E-02
CGA:   5    -0.339785093719E+03   -0.86287E-04   -0.97212E-04 10584   0.149E-02 0.889E-03
CGA:   6    -0.339785294668E+03   -0.20095E-03    0.90325E-03 10584   0.110E-02 0.534E-03
CGA:   7    -0.339785544272E+03   -0.24960E-03   -0.22853E-03 10584   0.158E-02 0.236E-03
CGA:   8    -0.339785635321E+03   -0.91049E-04   -0.89393E-04 10584   0.176E-03-0.804E-04
CGA:   9    -0.339785634413E+03    0.90828E-06   -0.35767E-05 10584   0.659E-04 0.973E-04
 130 F= -.33978563E+03 E0= -.33978102E+03  d E =-.123798E-03  mag=    14.0000
       N       E                     dE             d eps       ncg     rms          ort
SDA:   1    -0.339784777425E+03    0.85790E-03    0.00000E+00 10584   0.272E-01 0.000E+00
CGA:   2    -0.339785345401E+03   -0.56798E-03   -0.64015E-03 10584   0.985E-03 0.190E-02
CGA:   3    -0.339785438531E+03   -0.93130E-04   -0.88659E-04 10584   0.154E-02 0.200E-03
CGA:   4    -0.339785591920E+03   -0.15339E-03   -0.18735E-03 10584   0.150E-02-0.897E-03
CGA:   5    -0.339785602978E+03   -0.11058E-04   -0.31695E-04 10584   0.272E-03 0.467E-03
CGA:   6    -0.339785602923E+03    0.55097E-07   -0.79634E-05 10584   0.189E-03 0.197E-03
CGA:   7    -0.339785627522E+03   -0.24599E-04    0.83754E-04 10584   0.141E-03 0.767E-04
CGA:   8    -0.339785634808E+03   -0.72856E-05   -0.89319E-05 10584   0.369E-04 0.105E-03
CGA:   9    -0.339785639260E+03   -0.44520E-05    0.21527E-03 10584   0.263E-04 0.299E-04
 131 F= -.33978564E+03 E0= -.33978103E+03  d E =-.484681E-05  mag=    14.0000
       N       E                     dE             d eps       ncg     rms          ort
SDA:   1    -0.339784339157E+03    0.12957E-02    0.00000E+00 10584   0.612E-02 0.000E+00
CGA:   2    -0.339784697715E+03   -0.35856E-03   -0.35389E-03 10584   0.799E-02-0.214E-02
CGA:   3    -0.339785333721E+03   -0.63601E-03   -0.65697E-03 10584   0.489E-02-0.318E-03
CGA:   4    -0.339785400278E+03   -0.66557E-04   -0.10834E-03 10584   0.121E-02 0.105E-02
CGA:   5    -0.339785422916E+03   -0.22638E-04   -0.43113E-04 10584   0.855E-03 0.641E-03
CGA:   6    -0.339785436844E+03   -0.13929E-04   -0.12582E-03 10584   0.716E-02-0.129E-02
CGA:   7    -0.339785548434E+03   -0.11159E-03   -0.15295E-03 10584   0.197E-03 0.964E-03
CGA:   8    -0.339785546534E+03    0.19002E-05   -0.34918E-05 10584   0.851E-04 0.116E-03
 132 F= -.33978555E+03 E0= -.33978093E+03  d E =0.927256E-04  mag=    14.0000
       N       E                     dE             d eps       ncg     rms          ort
SDA:   1    -0.339784778460E+03    0.76997E-03    0.00000E+00 10584   0.613E-02 0.000E+00
CGA:   2    -0.339784929984E+03   -0.15152E-03   -0.18566E-03 10584   0.210E-02 0.120E-02
CGA:   3    -0.339785283442E+03   -0.35346E-03   -0.30075E-03 10584   0.261E-02 0.839E-03
CGA:   4    -0.339785507905E+03   -0.22446E-03   -0.22670E-03 10584   0.282E-02-0.134E-02
CGA:   5    -0.339785550122E+03   -0.42217E-04   -0.63198E-04 10584   0.334E-03 0.546E-03
CGA:   6    -0.339785566654E+03   -0.16532E-04   -0.18441E-04 10584   0.411E-03 0.154E-03
CGA:   7    -0.339785296630E+03    0.27002E-03   -0.15435E-03 10584   0.329E-02-0.158E-02
CGA:   8    -0.339785421099E+03   -0.12447E-03   -0.16539E-03 10584   0.205E-02 0.738E-03
CGA:   9    -0.339785645792E+03   -0.22469E-03   -0.22393E-03 10584   0.473E-03-0.609E-04
CGA:  10    -0.339785663553E+03   -0.17762E-04   -0.18991E-04 10584   0.117E-03 0.190E-04
CGA:  11    -0.339785696084E+03   -0.32531E-04    0.17128E-04 10584   0.926E-04 0.110E-04
CGA:  12    -0.339785693134E+03    0.29502E-05   -0.22671E-05 10584   0.408E-04 0.681E-04
 133 F= -.33978569E+03 E0= -.33978108E+03  d E =-.146600E-03  mag=    14.0000
