       N       E                     dE             d eps       ncg     rms          ort
DAV:   1     0.879435700294E+04    0.87944E+04   -0.53133E+05   624   0.154E+03
DAV:   2    -0.957704239838E+03   -0.97521E+04   -0.93013E+04   624   0.410E+02
DAV:   3    -0.190524596835E+04   -0.94754E+03   -0.92770E+03   624   0.147E+02
DAV:   4    -0.194576676665E+04   -0.40521E+02   -0.39906E+02   624   0.338E+01
DAV:   5    -0.194800417875E+04   -0.22374E+01   -0.22282E+01   624   0.581E+00
SDA:   6    -0.107103455440E+04    0.87697E+03   -0.22282E+01   624   0.323E+04 0.000E+00
CGA:   7    -0.126776777003E+04   -0.19673E+03   -0.34345E+03   624   0.303E+04 0.445E+02
CGA:   8    -0.134370312954E+04   -0.75935E+02   -0.22004E+03   624   0.158E+04-0.471E+03
CGA:   9    -0.134579848963E+04   -0.20954E+01   -0.90454E+02   624   0.170E+04-0.825E+03
CGA:  10    -0.138696752191E+04   -0.41169E+02   -0.12601E+03   624   0.171E+04-0.833E+03
CGA:  11    -0.140414195755E+04   -0.17174E+02   -0.52555E+02   624   0.252E+04-0.130E+04
CGA:  12    -0.137323357316E+04    0.30908E+02   -0.17733E+03   624   0.287E+04-0.109E+04
CGA:  13    -0.139002401682E+04   -0.16790E+02   -0.12589E+03   624   0.222E+04-0.932E+03
CGA:  14    -0.143670246835E+04   -0.46678E+02   -0.10289E+03   624   0.110E+04-0.692E+03
CGA:  15    -0.148041707409E+04   -0.43715E+02   -0.34420E+02   624   0.132E+04-0.443E+03
CGA:  16    -0.144464399242E+04    0.35773E+02   -0.37143E+02   624   0.228E+04-0.686E+03
CGA:  17    -0.142217156671E+04    0.22472E+02   -0.14023E+03   624   0.152E+04-0.938E+03
CGA:  18    -0.145649681530E+04   -0.34325E+02   -0.51994E+02   624   0.788E+03-0.617E+03
CGA:  19    -0.147626678454E+04   -0.19770E+02   -0.17726E+02   624   0.875E+03 0.195E+03
CGA:  20    -0.142725213398E+04    0.49015E+02   -0.49571E+02   624   0.177E+04-0.782E+03
CGA:  21    -0.143808582101E+04   -0.10834E+02   -0.95344E+02   624   0.106E+04-0.839E+03
CGA:  22    -0.148579340322E+04   -0.47708E+02   -0.23358E+02   624   0.740E+03-0.915E+03
CGA:  23    -0.146983246204E+04    0.15961E+02   -0.27168E+02   624   0.150E+04-0.116E+04
CGA:  24    -0.146284490256E+04    0.69876E+01   -0.70436E+02   624   0.826E+03-0.609E+03
CGA:  25    -0.148463381776E+04   -0.21789E+02   -0.18223E+02   624   0.999E+03-0.444E+03
CGA:  26    -0.145000980124E+04    0.34624E+02   -0.38188E+02   624   0.682E+03-0.446E+03
CGA:  27    -0.147853606527E+04   -0.28526E+02   -0.11202E+02   624   0.423E+03-0.383E+03
CGA:  28    -0.145760293163E+04    0.20933E+02   -0.12807E+02   624   0.186E+04-0.124E+04
CGA:  29    -0.145640282455E+04    0.12001E+01   -0.80330E+02   624   0.978E+03-0.630E+03
CGA:  30    -0.147808454191E+04   -0.21682E+02   -0.26637E+02   624   0.204E+04-0.255E+03
CGA:  31    -0.146316073822E+04    0.14924E+02   -0.56908E+02   624   0.751E+03-0.598E+03
CGA:  32    -0.149587066677E+04   -0.32710E+02   -0.18084E+02   624   0.580E+03 0.430E+03
CGA:  33    -0.150269031526E+04   -0.68196E+01   -0.15465E+02   624   0.116E+04-0.104E+02
CGA:  34    -0.147703298933E+04    0.25657E+02   -0.34596E+02   624   0.111E+04-0.619E+03
CGA:  35    -0.149456145993E+04   -0.17528E+02   -0.36587E+02   624   0.125E+04-0.983E+03
CGA:  36    -0.148561215641E+04    0.89493E+01   -0.40666E+02   624   0.108E+04-0.876E+03
CGA:  37    -0.148337914940E+04    0.22330E+01   -0.34146E+02   624   0.122E+04-0.957E+03
CGA:  38    -0.148425746118E+04   -0.87831E+00   -0.37570E+02   624   0.119E+04-0.114E+04
CGA:  39    -0.149262821907E+04   -0.83708E+01   -0.35726E+02   624   0.799E+03-0.980E+03
CGA:  40    -0.150075835085E+04   -0.81301E+01   -0.20510E+02   624   0.127E+04-0.155E+04
CGA:  41    -0.149505117572E+04    0.57072E+01   -0.34995E+02   624   0.958E+03-0.738E+03
CGA:  42    -0.150064413933E+04   -0.55930E+01   -0.24910E+02   624   0.956E+03-0.104E+04
CGA:  43    -0.150354041017E+04   -0.28963E+01   -0.24234E+02   624   0.448E+03-0.573E+03
CGA:  44    -0.151055223867E+04   -0.70118E+01   -0.96648E+01   624   0.942E+03-0.124E+04
CGA:  45    -0.150445811417E+04    0.60941E+01   -0.22738E+02   624   0.592E+03-0.468E+03
CGA:  46    -0.151495866647E+04   -0.10501E+02   -0.64954E+01   624   0.881E+03-0.104E+04
CGA:  47    -0.150640452135E+04    0.85541E+01   -0.21574E+02   624   0.223E+03-0.111E+03
CGA:  48    -0.151858268203E+04   -0.12178E+02   -0.29797E+01   624   0.393E+03-0.911E+03
CGA:  49    -0.151229283958E+04    0.62898E+01   -0.73517E+01   624   0.802E+03-0.391E+03
CGA:  50    -0.150164529001E+04    0.10648E+02   -0.16592E+02   624   0.388E+03-0.248E+03
CGA:  51    -0.150984371704E+04   -0.81984E+01   -0.52235E+01   624   0.459E+03-0.434E+03
CGA:  52    -0.150340144610E+04    0.64423E+01   -0.79427E+01   624   0.844E+03-0.650E+03
CGA:  53    -0.150622085298E+04   -0.28194E+01   -0.17528E+02   624   0.245E+03-0.199E+03
CGA:  54    -0.151757290135E+04   -0.11352E+02   -0.25045E+01   624   0.514E+03 0.946E+03
CGA:  55    -0.151113877099E+04    0.64341E+01   -0.80156E+01   624   0.138E+04-0.790E+03
CGA:  56    -0.150772002495E+04    0.34187E+01   -0.27190E+02   624   0.180E+03-0.122E+03
CGA:  57    -0.151934572489E+04   -0.11626E+02   -0.17582E+01   624   0.316E+03 0.778E+03
CGA:  58    -0.151893682784E+04    0.40890E+00   -0.36670E+01   624   0.441E+03-0.385E+03
CGA:  59    -0.151622483572E+04    0.27120E+01   -0.63423E+01   624   0.650E+03-0.435E+03
CGA:  60    -0.151272731271E+04    0.34975E+01   -0.89388E+01   624   0.123E+04-0.925E+03
CGA:  61    -0.150986198061E+04    0.28653E+01   -0.20504E+02   624   0.286E+03-0.230E+03
CGA:  62    -0.152132588988E+04   -0.11464E+02   -0.24639E+01   624   0.312E+02 0.202E+03
CGA:  63    -0.152151570771E+04   -0.18982E+00   -0.19439E+00   624   0.224E+01-0.104E+01
CGA:  64    -0.152164352418E+04   -0.12782E+00   -0.12567E+00   624   0.660E+01 0.611E-01
CGA:  65    -0.152213476426E+04   -0.49124E+00   -0.42232E+00   624   0.170E+02 0.216E+01
CGA:  66    -0.152257257617E+04   -0.43781E+00   -0.49089E+00   624   0.102E+02-0.892E+00
CGA:  67    -0.152294096000E+04   -0.36838E+00   -0.37091E+00   624   0.404E+01-0.532E+00
CGA:  68    -0.152309908096E+04   -0.15812E+00   -0.15617E+00   624   0.200E+01 0.130E+00
CGA:  69    -0.152318399560E+04   -0.84915E-01   -0.86404E-01   624   0.219E+01-0.213E+00
CGA:  70    -0.152334657690E+04   -0.16258E+00   -0.21113E+00   624   0.411E+01-0.567E+00
CGA:  71    -0.152350426406E+04   -0.15769E+00   -0.15661E+00   624   0.115E+01-0.611E-01
CGA:  72    -0.152360991417E+04   -0.10565E+00   -0.14723E+00   624   0.952E+00-0.501E+00
CGA:  73    -0.152365743753E+04   -0.47523E-01    0.51172E+01   624   0.738E+00 0.377E+00
CGA:  74    -0.152378761401E+04   -0.13018E+00   -0.12896E+00   624   0.376E+00 0.562E-01
CGA:  75    -0.152382663954E+04   -0.39026E-01    0.39621E+01   624   0.251E+00 0.317E+00
CGA:  76    -0.152386113577E+04   -0.34496E-01   -0.22865E-02   624   0.704E+00-0.149E+00
CGA:  77    -0.152393018303E+04   -0.69047E-01   -0.68759E-01   624   0.902E-01 0.177E-01
CGA:  78    -0.152398285296E+04   -0.52670E-01   -0.20525E-02   624   0.345E+00-0.807E-02
CGA:  79    -0.152407957272E+04   -0.96720E-01   -0.11233E+00   624   0.200E+00-0.693E-01
CGA:  80    -0.152410480105E+04   -0.25228E-01   -0.24994E-01   624   0.897E-01-0.163E-01
CGA:  81    -0.152413340592E+04   -0.28605E-01   -0.46767E-01   624   0.322E+00-0.456E-01
CGA:  82    -0.152418555659E+04   -0.52151E-01   -0.52144E-01   624   0.579E-01-0.103E-02
CGA:  83    -0.152420463367E+04   -0.19077E-01   -0.18224E-01   624   0.580E-01 0.722E-02
CGA:  84    -0.152423049168E+04   -0.25858E-01   -0.24990E-01   624   0.515E-01 0.563E-02
CGA:  85    -0.152424350740E+04   -0.13016E-01   -0.12877E-01   624   0.192E-01 0.689E-02
CGA:  86    -0.152425172537E+04   -0.82180E-02   -0.83023E-02   624   0.278E-01-0.516E-03
CGA:  87    -0.152426534204E+04   -0.13617E-01   -0.12400E-01   624   0.357E-01 0.442E-02
CGA:  88    -0.152428576726E+04   -0.20425E-01   -0.21181E-01   624   0.583E-01-0.382E-02
CGA:  89    -0.152430332035E+04   -0.17553E-01   -0.17891E-01   624   0.500E-01-0.399E-02
CGA:  90    -0.152431739348E+04   -0.14073E-01   -0.14341E-01   624   0.490E-01-0.569E-02
CGA:  91    -0.152433267853E+04   -0.15285E-01   -0.17956E-01   624   0.849E-01-0.182E-01
CGA:  92    -0.152434186052E+04   -0.91820E-02   -0.86345E-02   624   0.716E-01-0.992E-02
CGA:  93    -0.152435252455E+04   -0.10664E-01   -0.10042E-01   624   0.585E-01-0.815E-02
CGA:  94    -0.152436401768E+04   -0.11493E-01   -0.11173E-01   624   0.679E-01-0.103E-01
CGA:  95    -0.152437490975E+04   -0.10892E-01   -0.10262E-01   624   0.667E-01-0.893E-02
CGA:  96    -0.152438469557E+04   -0.97858E-02   -0.93412E-02   624   0.653E-01-0.254E-02
CGA:  97    -0.152439404439E+04   -0.93488E-02   -0.95224E-02   624   0.664E-01 0.276E-02
CGA:  98    -0.152440353094E+04   -0.94865E-02   -0.98606E-02   624   0.599E-01 0.451E-02
CGA:  99    -0.152441167075E+04   -0.81398E-02   -0.86559E-02   624   0.559E-01 0.419E-02
CGA: 100    -0.152442066045E+04   -0.89897E-02   -0.94214E-02   624   0.676E-01 0.548E-02
CGA: 101    -0.152443040993E+04   -0.97495E-02   -0.10453E-01   624   0.608E-01 0.741E-02
CGA: 102    -0.152443762284E+04   -0.72129E-02   -0.78097E-02   624   0.505E-01 0.809E-02
CGA: 103    -0.152444463473E+04   -0.70119E-02   -0.74581E-02   624   0.608E-01 0.784E-02
CGA: 104    -0.152445424429E+04   -0.96096E-02   -0.99214E-02   624   0.715E-01 0.483E-02
CGA: 105    -0.152446339432E+04   -0.91500E-02   -0.91495E-02   624   0.657E-01-0.153E-02
CGA: 106    -0.152447068001E+04   -0.72857E-02   -0.71240E-02   624   0.615E-01-0.280E-02
CGA: 107    -0.152447704042E+04   -0.63604E-02   -0.61051E-02   624   0.647E-01-0.671E-03
CGA: 108    -0.152448580662E+04   -0.87662E-02   -0.84494E-02   624   0.913E-01-0.563E-02
CGA: 109    -0.152449468227E+04   -0.88757E-02   -0.75435E-02   624   0.808E-01-0.117E-01
CGA: 110    -0.152450165779E+04   -0.69755E-02   -0.59888E-02   624   0.812E-01-0.116E-01
CGA: 111    -0.152450794105E+04   -0.62833E-02   -0.54624E-02   624   0.822E-01-0.685E-02
SDA: 112    -0.152451420852E+04   -0.62675E-02   -0.56736E-02   624   0.849E-01-0.408E-02
CGA: 113    -0.152454510562E+04   -0.30897E-01   -0.29224E-01   624   0.762E-01 0.110E-01
CGA: 114    -0.152457938831E+04   -0.34283E-01   -0.30160E-01   624   0.302E-01 0.243E-01
CGA: 115    -0.152459708394E+04   -0.17696E-01   -0.15789E-01   624   0.270E-01 0.896E-02
CGA: 116    -0.152461038229E+04   -0.13298E-01   -0.11873E-01   624   0.208E-01 0.963E-02
CGA: 117    -0.152462118869E+04   -0.10806E-01   -0.10410E-01   624   0.320E-01 0.180E-02
CGA: 118    -0.152463670626E+04   -0.15518E-01   -0.14522E-01   624   0.246E-01 0.290E-02
CGA: 119    -0.152464768325E+04   -0.10977E-01   -0.14970E-01   624   0.443E-01-0.135E-01
CGA: 120    -0.152465678233E+04   -0.90991E-02   -0.91043E-02   624   0.122E-01 0.400E-03
CGA: 121    -0.152466159228E+04   -0.48100E-02   -0.46425E-02   624   0.152E-01 0.126E-02
CGA: 122    -0.152466704492E+04   -0.54526E-02   -0.56121E-02   624   0.859E-02-0.181E-02
CGA: 123    -0.152466814143E+04   -0.10965E-02   -0.12431E-02   624   0.252E-02 0.181E-02
CGA: 124    -0.152466881362E+04   -0.67218E-03   -0.69045E-03   624   0.177E-02 0.983E-03
CGA: 125    -0.152466961517E+04   -0.80156E-03   -0.91464E-03   624   0.354E-02-0.888E-03
CGA: 126    -0.152467001193E+04   -0.39676E-03   -0.45772E-03   624   0.834E-03 0.572E-03
CGA: 127    -0.152466738396E+04    0.26280E-02   -0.14399E-02   624   0.215E-01-0.309E-02
CGA: 128    -0.152467121965E+04   -0.38357E-02   -0.40740E-02   624   0.230E-02 0.107E-02
CGA: 129    -0.152467176171E+04   -0.54206E-03   -0.56723E-03   624   0.786E-03 0.134E-03
CGA: 130    -0.152467190624E+04   -0.14454E-03   -0.16991E-03   624   0.307E-03 0.124E-03
CGA: 131    -0.152467227179E+04   -0.36555E-03    0.29563E-03   624   0.470E-03 0.144E-03
CGA: 132    -0.152467284273E+04   -0.57094E-03    0.40383E-01   624   0.344E-03 0.390E-03
CGA: 133    -0.152467285576E+04   -0.13030E-04   -0.56012E-04   624   0.191E-03 0.174E-03
CGA: 134    -0.152467281446E+04    0.41294E-04   -0.29613E-03   624   0.414E-02-0.294E-03
CGA: 135    -0.152467312286E+04   -0.30840E-03   -0.40534E-03   624   0.306E-03 0.596E-03
CGA: 136    -0.152467322438E+04   -0.10152E-03   -0.97522E-04   624   0.436E-03-0.227E-04
CGA: 137    -0.152467314528E+04    0.79102E-04   -0.30774E-03   624   0.336E-02-0.116E-02
CGA: 138    -0.152467346876E+04   -0.32348E-03   -0.52574E-03   624   0.972E-03 0.780E-03
CGA: 139    -0.152467366108E+04   -0.19232E-03   -0.24345E-03   624   0.139E-03 0.224E-03
CGA: 140    -0.152467365863E+04    0.24501E-05   -0.17398E-03   624   0.158E-02-0.296E-03
CGA: 141    -0.152467374570E+04   -0.87072E-04   -0.17150E-03   624   0.260E-03 0.312E-03
CGA: 142    -0.152467382280E+04   -0.77094E-04   -0.84033E-04   624   0.233E-03 0.424E-04
CGA: 143    -0.152467391890E+04   -0.96105E-04   -0.13793E-03   624   0.123E-02-0.505E-03
CGA: 144    -0.152467396156E+04   -0.42657E-04   -0.12914E-03   624   0.235E-03 0.308E-03
CGA: 145    -0.152467397942E+04   -0.17860E-04   -0.47729E-04   624   0.160E-03 0.119E-03
CGA: 146    -0.152467336612E+04    0.61330E-03   -0.21331E-03   624   0.960E-02-0.868E-03
CGA: 147    -0.152467409731E+04   -0.73119E-03   -0.86735E-03   624   0.366E-03 0.160E-02
CGA: 148    -0.152467409617E+04    0.11352E-05   -0.37466E-04   624   0.109E-03 0.122E-03
CGA: 149    -0.152467411468E+04   -0.18509E-04   -0.27199E-04   624   0.125E-03 0.387E-04
CGA: 150    -0.152467412703E+04   -0.12348E-04   -0.11107E-03   624   0.825E-03-0.388E-03
CGA: 151    -0.152467418696E+04   -0.59933E-04   -0.12657E-03   624   0.288E-03 0.266E-03
CGA: 152    -0.152467427296E+04   -0.85995E-04   -0.94471E-04   624   0.459E-04 0.552E-04
CGA: 153    -0.152467434157E+04   -0.68609E-04    0.18153E-04   624   0.116E-03-0.111E-04
CGA: 154    -0.152467437769E+04   -0.36123E-04   -0.39416E-04   624   0.244E-03-0.639E-04
CGA: 155    -0.152467439619E+04   -0.18502E-04   -0.42749E-04   624   0.979E-04 0.110E-03
CGA: 156    -0.152467443238E+04   -0.36187E-04   -0.39021E-04   624   0.287E-04 0.254E-04
CGA: 157    -0.152467423564E+04    0.19674E-03   -0.10684E-03   624   0.172E-02-0.143E-03
CGA: 158    -0.152467451198E+04   -0.27635E-03   -0.28906E-03   624   0.300E-03 0.303E-04
CGA: 159    -0.152467460249E+04   -0.90506E-04   -0.99626E-04   624   0.560E-04 0.274E-04
CGA: 160    -0.152467461084E+04   -0.83509E-05   -0.13060E-04   624   0.235E-04 0.110E-04
CGA: 161    -0.152467467115E+04   -0.60312E-04    0.12521E-04   624   0.951E-04-0.784E-05
CGA: 162    -0.152467470117E+04   -0.30020E-04   -0.27270E-04   624   0.266E-03-0.188E-04
CGA: 163    -0.152467471134E+04   -0.10166E-04   -0.37217E-04   624   0.278E-03 0.398E-04
CGA: 164    -0.152467480354E+04   -0.92206E-04   -0.10533E-03   624   0.490E-03-0.106E-04
CGA: 165    -0.152467359043E+04    0.12131E-02   -0.65813E-03   624   0.109E-01-0.289E-02
CGA: 166    -0.152467515873E+04   -0.15683E-02   -0.17145E-02   624   0.207E-02 0.108E-02
CGA: 167    -0.152467575417E+04   -0.59543E-03   -0.53486E-03   624   0.401E-03-0.166E-03
CGA: 168    -0.152467579529E+04   -0.41120E-04   -0.95694E-04   624   0.196E-03 0.171E-03
CGA: 169    -0.152467580075E+04   -0.54648E-05   -0.61397E-04   624   0.105E-03 0.163E-03
CGA: 170    -0.152467581399E+04   -0.13238E-04   -0.30420E-04   624   0.839E-04 0.667E-04
CGA: 171    -0.152467579925E+04    0.14742E-04   -0.11738E-04   624   0.683E-04 0.675E-04
CGA: 172    -0.152467580110E+04   -0.18569E-05   -0.17728E-04   624   0.615E-04 0.623E-04
CGA: 173    -0.152467579271E+04    0.83973E-05   -0.10542E-04   624   0.571E-04 0.573E-04
CGA: 174    -0.152467579723E+04   -0.45271E-05   -0.15681E-04   624   0.525E-04 0.529E-04
   1 F= -.15246758E+04 E0= -.15246758E+04  d E =-.152468E+04  mag=    16.0000
       N       E                     dE             d eps       ncg     rms          ort
SDA:   1    -0.152468511462E+04   -0.93219E-02    0.00000E+00   624   0.179E-02 0.000E+00
CGA:   2    -0.152468543547E+04   -0.32085E-03   -0.37210E-03   624   0.487E-03 0.203E-03
CGA:   3    -0.152468559933E+04   -0.16386E-03   -0.15587E-03   624   0.290E-03-0.500E-04
CGA:   4    -0.152468561341E+04   -0.14089E-04   -0.34288E-04   624   0.866E-04 0.665E-04
CGA:   5    -0.152468562958E+04   -0.16166E-04   -0.20877E-04   624   0.720E-04 0.205E-04
CGA:   6    -0.152468564366E+04   -0.14081E-04   -0.69199E-04   624   0.762E-03-0.152E-03
CGA:   7    -0.152468567015E+04   -0.26488E-04   -0.84841E-04   624   0.153E-03 0.193E-03
CGA:   8    -0.152468568474E+04   -0.14594E-04   -0.29981E-04   624   0.508E-04 0.593E-04
CGA:   9    -0.152468570522E+04   -0.20477E-04   -0.17724E-04   624   0.659E-04-0.183E-04
CGA:  10    -0.152468570031E+04    0.49111E-05   -0.31539E-05   624   0.655E-04 0.251E-04
   2 F= -.15246857E+04 E0= -.15246857E+04  d E =-.990308E-02  mag=    16.0000
       N       E                     dE             d eps       ncg     rms          ort
SDA:   1    -0.152347144205E+04    0.12143E+01    0.00000E+00   624   0.515E+01 0.000E+00
CGA:   2    -0.152467528443E+04   -0.12038E+01   -0.12054E+01   624   0.144E+01 0.106E-01
CGA:   3    -0.152503211110E+04   -0.35683E+00   -0.35629E+00   624   0.410E+00-0.516E-02
CGA:   4    -0.152511153988E+04   -0.79429E-01   -0.79103E-01   624   0.857E-01-0.196E-02
CGA:   5    -0.152512978710E+04   -0.18247E-01   -0.18118E-01   624   0.238E-01-0.101E-02
CGA:   6    -0.152513610784E+04   -0.63207E-02   -0.63125E-02   624   0.966E-02-0.134E-03
CGA:   7    -0.152513916884E+04   -0.30610E-02   -0.30594E-02   624   0.448E-02-0.108E-03
CGA:   8    -0.152514066503E+04   -0.14962E-02   -0.14966E-02   624   0.195E-02-0.765E-04
CGA:   9    -0.152514129835E+04   -0.63332E-03   -0.63294E-03   624   0.820E-03-0.132E-03
CGA:  10    -0.152514154672E+04   -0.24837E-03   -0.24713E-03   624   0.479E-03-0.127E-03
CGA:  11    -0.152514166307E+04   -0.11636E-03   -0.11312E-03   624   0.249E-03-0.599E-04
CGA:  12    -0.152514171306E+04   -0.49987E-04   -0.53430E-04   624   0.882E-04 0.409E-04
CGA:  13    -0.152514174817E+04   -0.35112E-04   -0.34999E-04   624   0.613E-04 0.691E-05
CGA:  14    -0.152514175835E+04   -0.10180E-04   -0.13140E-04   624   0.320E-04 0.232E-04
CGA:  15    -0.152514176378E+04   -0.54317E-05   -0.85468E-05   624   0.232E-04 0.245E-04
   3 F= -.15251418E+04 E0= -.15251418E+04  d E =-.456063E+00  mag=    16.0000
       N       E                     dE             d eps       ncg     rms          ort
SDA:   1    -0.152125184713E+04    0.38899E+01    0.00000E+00   624   0.140E+02 0.000E+00
CGA:   2    -0.152442478074E+04   -0.31729E+01   -0.31776E+01   624   0.363E+01 0.228E-01
CGA:   3    -0.152534477979E+04   -0.92000E+00   -0.91903E+00   624   0.104E+01-0.148E-01
CGA:   4    -0.152554828615E+04   -0.20351E+00   -0.20300E+00   624   0.228E+00-0.466E-02
CGA:   5    -0.152559639056E+04   -0.48104E-01   -0.48033E-01   624   0.642E-01-0.709E-03
CGA:   6    -0.152561392104E+04   -0.17530E-01   -0.17543E-01   624   0.274E-01 0.458E-03
CGA:   7    -0.152562296167E+04   -0.90406E-02   -0.90417E-02   624   0.132E-01-0.366E-04
CGA:   8    -0.152562753754E+04   -0.45759E-02   -0.46009E-02   624   0.564E-02-0.521E-03
CGA:   9    -0.152562921915E+04   -0.16816E-02   -0.16821E-02   624   0.183E-02-0.709E-04
CGA:  10    -0.152562985402E+04   -0.63487E-03   -0.65110E-03   624   0.926E-03-0.286E-03
CGA:  11    -0.152563000236E+04   -0.14834E-03   -0.16527E-03   624   0.346E-03 0.180E-03
CGA:  12    -0.152563012236E+04   -0.12000E-03   -0.12025E-03   624   0.159E-03 0.234E-04
CGA:  13    -0.152563018466E+04   -0.62306E-04   -0.10550E-03   624   0.385E-03-0.135E-03
CGA:  14    -0.152563020570E+04   -0.21036E-04   -0.45027E-04   624   0.781E-04 0.122E-03
CGA:  15    -0.152563021478E+04   -0.90874E-05   -0.15438E-04   624   0.432E-04 0.405E-04
CGA:  16    -0.152563024958E+04   -0.34793E-04    0.18535E-04   624   0.457E-04-0.742E-06
CGA:  17    -0.152563025318E+04   -0.35998E-05   -0.75695E-05   624   0.248E-04 0.302E-04
   4 F= -.15256303E+04 E0= -.15256303E+04  d E =-.488489E+00  mag=    16.0000
       N       E                     dE             d eps       ncg     rms          ort
SDA:   1    -0.152266320887E+04    0.29670E+01    0.00000E+00   624   0.101E+02 0.000E+00
CGA:   2    -0.152499302405E+04   -0.23298E+01   -0.23312E+01   624   0.255E+01 0.106E-01
CGA:   3    -0.152566728902E+04   -0.67426E+00   -0.67411E+00   624   0.679E+00-0.968E-02
CGA:   4    -0.152580163025E+04   -0.13434E+00   -0.13421E+00   624   0.156E+00-0.173E-02
CGA:   5    -0.152583438258E+04   -0.32752E-01   -0.32687E-01   624   0.452E-01-0.978E-03
CGA:   6    -0.152584722356E+04   -0.12841E-01   -0.12839E-01   624   0.204E-01 0.135E-03
CGA:   7    -0.152585404632E+04   -0.68228E-02   -0.68219E-02   624   0.102E-01 0.173E-04
CGA:   8    -0.152585746610E+04   -0.34198E-02   -0.34272E-02   624   0.397E-02-0.120E-03
CGA:   9    -0.152585874702E+04   -0.12809E-02   -0.12955E-02   624   0.137E-02-0.274E-03
CGA:  10    -0.152585913205E+04   -0.38504E-03   -0.38577E-03   624   0.468E-03-0.321E-04
CGA:  11    -0.152585927963E+04   -0.14757E-03   -0.15042E-03   624   0.286E-03-0.587E-04
CGA:  12    -0.152585933353E+04   -0.53897E-04   -0.55867E-04   624   0.106E-03 0.333E-04
CGA:  13    -0.152585938208E+04   -0.48549E-04   -0.62265E-04   624   0.138E-03-0.563E-04
CGA:  14    -0.152585941493E+04   -0.32857E-04   -0.32373E-04   624   0.443E-04-0.791E-05
CGA:  15    -0.152585942715E+04   -0.12217E-04   -0.12220E-04   624   0.282E-04-0.125E-05
CGA:  16    -0.152585944379E+04   -0.16643E-04    0.86728E-04   624   0.164E-04 0.180E-04
CGA:  17    -0.152585940275E+04    0.41046E-04   -0.23071E-04   624   0.510E-03-0.451E-04
CGA:  18    -0.152585947938E+04   -0.76636E-04   -0.76769E-04   624   0.463E-04 0.273E-05
CGA:  19    -0.152585949427E+04   -0.14891E-04   -0.14918E-04   624   0.104E-04 0.185E-06
CGA:  20    -0.152585950037E+04   -0.60998E-05   -0.71874E-05   624   0.453E-04-0.577E-05
   5 F= -.15258595E+04 E0= -.15258595E+04  d E =-.229247E+00  mag=    16.0000
       N       E                     dE             d eps       ncg     rms          ort
SDA:   1    -0.152297065614E+04    0.28888E+01    0.00000E+00   624   0.896E+01 0.000E+00
CGA:   2    -0.152514701946E+04   -0.21764E+01   -0.21799E+01   624   0.250E+01 0.252E-02
CGA:   3    -0.152578716340E+04   -0.64014E+00   -0.63939E+00   624   0.643E+00 0.596E-03
CGA:   4    -0.152590777598E+04   -0.12061E+00   -0.12086E+00   624   0.143E+00 0.227E-02
CGA:   5    -0.152593825688E+04   -0.30481E-01   -0.30344E-01   624   0.402E-01-0.623E-03
CGA:   6    -0.152595012595E+04   -0.11869E-01   -0.11831E-01   624   0.187E-01-0.223E-03
CGA:   7    -0.152595643172E+04   -0.63058E-02   -0.62915E-02   624   0.984E-02-0.140E-03
CGA:   8    -0.152595970031E+04   -0.32686E-02   -0.32575E-02   624   0.399E-02-0.113E-03
CGA:   9    -0.152596082696E+04   -0.11267E-02   -0.11385E-02   624   0.121E-02 0.896E-04
CGA:  10    -0.152596126851E+04   -0.44155E-03   -0.42261E-03   624   0.652E-03-0.243E-03
CGA:  11    -0.152596137057E+04   -0.10206E-03   -0.11307E-03   624   0.232E-03 0.574E-04
CGA:  12    -0.152596146119E+04   -0.90615E-04   -0.89570E-04   624   0.148E-03-0.214E-04
CGA:  13    -0.152596151413E+04   -0.52940E-04   -0.81173E-04   624   0.472E-03-0.139E-03
CGA:  14    -0.152596155670E+04   -0.42572E-04   -0.62747E-04   624   0.725E-04 0.749E-04
CGA:  15    -0.152596159381E+04   -0.37110E-04   -0.38335E-04   624   0.779E-04-0.214E-04
CGA:  16    -0.152596142614E+04    0.16767E-03   -0.68479E-04   624   0.192E-02-0.279E-03
CGA:  17    -0.152596163327E+04   -0.20713E-03   -0.25531E-03   624   0.202E-03 0.172E-03
CGA:  18    -0.152596171472E+04   -0.81455E-04   -0.81637E-04   624   0.666E-04 0.313E-05
CGA:  19    -0.152596174354E+04   -0.28812E-04   -0.23818E-04   624   0.136E-03-0.673E-04
CGA:  20    -0.152596174972E+04   -0.61832E-05   -0.15331E-04   624   0.164E-04 0.304E-04
   6 F= -.15259617E+04 E0= -.15259617E+04  d E =-.102249E+00  mag=    16.0000
       N       E                     dE             d eps       ncg     rms          ort
SDA:   1    -0.152003539438E+04    0.59263E+01    0.00000E+00   624   0.157E+02 0.000E+00
CGA:   2    -0.152449362099E+04   -0.44582E+01   -0.44591E+01   624   0.529E+01-0.822E-02
CGA:   3    -0.152571604753E+04   -0.12224E+01   -0.12226E+01   624   0.112E+01 0.109E-02
CGA:   4    -0.152591973056E+04   -0.20368E+00   -0.20414E+00   624   0.234E+00 0.324E-02
CGA:   5    -0.152596975344E+04   -0.50023E-01   -0.50000E-01   624   0.629E-01-0.122E-03
CGA:   6    -0.152598730276E+04   -0.17549E-01   -0.17489E-01   624   0.250E-01-0.693E-03
CGA:   7    -0.152599542978E+04   -0.81270E-02   -0.81102E-02   624   0.128E-01-0.516E-03
CGA:   8    -0.152599983154E+04   -0.44018E-02   -0.43982E-02   624   0.592E-02-0.411E-03
CGA:   9    -0.152600155006E+04   -0.17185E-02   -0.17192E-02   624   0.196E-02 0.149E-04
CGA:  10    -0.152600220045E+04   -0.65040E-03   -0.64096E-03   624   0.111E-02-0.329E-03
CGA:  11    -0.152600241948E+04   -0.21902E-03   -0.21815E-03   624   0.461E-03-0.357E-05
CGA:  12    -0.152600260058E+04   -0.18110E-03   -0.18417E-03   624   0.297E-03-0.576E-04
CGA:  13    -0.152600267370E+04   -0.73123E-04   -0.23036E-03   624   0.110E-02-0.294E-03
CGA:  14    -0.152600282178E+04   -0.14808E-03   -0.17821E-03   624   0.224E-03 0.146E-03
CGA:  15    -0.152600293083E+04   -0.10906E-03   -0.12239E-03   624   0.251E-03-0.114E-03
CGA:  16    -0.152600297499E+04   -0.44155E-04   -0.51600E-04   624   0.655E-04 0.451E-04
CGA:  17    -0.152600300984E+04   -0.34850E-04   -0.46343E-04   624   0.225E-03-0.484E-04
CGA:  18    -0.152600304080E+04   -0.30958E-04   -0.36927E-04   624   0.574E-04 0.294E-04
CGA:  19    -0.152600297668E+04    0.64117E-04   -0.86276E-04   624   0.806E-03-0.156E-03
CGA:  20    -0.152600313466E+04   -0.15799E-03   -0.17277E-03   624   0.155E-03 0.768E-04
CGA:  21    -0.152600317489E+04   -0.40229E-04   -0.37084E-04   624   0.390E-04-0.162E-04
CGA:  22    -0.152600319615E+04   -0.21255E-04   -0.22540E-04   624   0.828E-04-0.475E-05
CGA:  23    -0.152600325851E+04   -0.62358E-04    0.27365E-03   624   0.667E-04 0.278E-04
CGA:  24    -0.152600333455E+04   -0.76039E-04    0.36642E-03   624   0.252E-04 0.552E-04
CGA:  25    -0.152600333982E+04   -0.52722E-05   -0.65574E-05   624   0.168E-04 0.882E-05
CGA:  26    -0.152600335876E+04   -0.18939E-04    0.10095E-03   624   0.147E-04 0.853E-05
CGA:  27    -0.152600336911E+04   -0.10357E-04   -0.12104E-04   624   0.506E-04-0.422E-05
CGA:  28    -0.152600296504E+04    0.40408E-03   -0.21707E-03   624   0.285E-02-0.223E-03
CGA:  29    -0.152600340802E+04   -0.44298E-03   -0.47006E-03   624   0.552E-03 0.658E-04
CGA:  30    -0.152600357316E+04   -0.16514E-03   -0.16362E-03   624   0.403E-04-0.221E-05
CGA:  31    -0.152600359257E+04   -0.19414E-04   -0.17436E-04   624   0.117E-04-0.710E-05
CGA:  32    -0.152600359254E+04    0.28347E-07   -0.22409E-05   624   0.527E-05 0.485E-05
   7 F= -.15260036E+04 E0= -.15260036E+04  d E =-.418428E-01  mag=    16.0000
       N       E                     dE             d eps       ncg     rms          ort
SDA:   1    -0.152422785318E+04    0.17757E+01    0.00000E+00   624   0.438E+01 0.000E+00
CGA:   2    -0.152566672477E+04   -0.14389E+01   -0.14392E+01   624   0.150E+01 0.299E-02
CGA:   3    -0.152596602089E+04   -0.29930E+00   -0.29896E+00   624   0.295E+00-0.155E-02
CGA:   4    -0.152602090242E+04   -0.54882E-01   -0.54940E-01   624   0.601E-01 0.405E-03
CGA:   5    -0.152603344815E+04   -0.12546E-01   -0.12598E-01   624   0.147E-01 0.140E-03
CGA:   6    -0.152603705424E+04   -0.36061E-02   -0.35958E-02   624   0.435E-02-0.299E-04
CGA:   7    -0.152603833456E+04   -0.12803E-02   -0.12514E-02   624   0.180E-02-0.102E-03
CGA:   8    -0.152603897276E+04   -0.63820E-03   -0.61422E-03   624   0.914E-03-0.115E-03
CGA:   9    -0.152603920579E+04   -0.23302E-03   -0.24213E-03   624   0.342E-03 0.363E-04
CGA:  10    -0.152603933136E+04   -0.12557E-03   -0.11556E-03   624   0.204E-03-0.480E-04
CGA:  11    -0.152603939048E+04   -0.59122E-04   -0.57070E-04   624   0.129E-03-0.103E-04
CGA:  12    -0.152603946040E+04   -0.69917E-04   -0.75634E-04   624   0.226E-03-0.528E-04
CGA:  13    -0.152603952470E+04   -0.64299E-04   -0.61838E-04   624   0.264E-03-0.485E-04
CGA:  14    -0.152603960760E+04   -0.82901E-04   -0.78863E-04   624   0.166E-03-0.317E-04
CGA:  15    -0.152603968678E+04   -0.79176E-04   -0.86248E-04   624   0.220E-03-0.847E-04
CGA:  16    -0.152603972644E+04   -0.39662E-04   -0.50808E-04   624   0.704E-04 0.403E-04
CGA:  17    -0.152603975917E+04   -0.32729E-04   -0.31286E-04   624   0.733E-04-0.116E-04
CGA:  18    -0.152603977176E+04   -0.12592E-04   -0.16456E-04   624   0.459E-04 0.175E-04
CGA:  19    -0.152603978180E+04   -0.10041E-04   -0.14096E-04   624   0.278E-04 0.175E-04
CGA:  20    -0.152603979519E+04   -0.13393E-04   -0.12224E-04   624   0.191E-04-0.778E-05
CGA:  21    -0.152603979641E+04   -0.12171E-05   -0.26558E-05   624   0.125E-04 0.536E-05
   8 F= -.15260398E+04 E0= -.15260398E+04  d E =-.362039E-01  mag=    16.0000
       N       E                     dE             d eps       ncg     rms          ort
SDA:   1    -0.152444693721E+04    0.15929E+01    0.00000E+00   624   0.398E+01 0.000E+00
CGA:   2    -0.152573053139E+04   -0.12836E+01   -0.12835E+01   624   0.135E+01-0.784E-03
CGA:   3    -0.152600338632E+04   -0.27285E+00   -0.27277E+00   624   0.273E+00-0.982E-04
CGA:   4    -0.152605412586E+04   -0.50740E-01   -0.50960E-01   624   0.535E-01 0.103E-02
CGA:   5    -0.152606530827E+04   -0.11182E-01   -0.11226E-01   624   0.131E-01 0.240E-03
CGA:   6    -0.152606856099E+04   -0.32527E-02   -0.32368E-02   624   0.384E-02-0.105E-03
CGA:   7    -0.152606969859E+04   -0.11376E-02   -0.11198E-02   624   0.164E-02-0.190E-03
CGA:   8    -0.152607021324E+04   -0.51465E-03   -0.51055E-03   624   0.747E-03-0.733E-04
CGA:   9    -0.152607039234E+04   -0.17909E-03   -0.18759E-03   624   0.249E-03 0.733E-04
CGA:  10    -0.152607048166E+04   -0.89324E-04   -0.87891E-04   624   0.133E-03-0.266E-04
CGA:  11    -0.152607052035E+04   -0.38689E-04   -0.38493E-04   624   0.777E-04-0.403E-05
CGA:  12    -0.152607054537E+04   -0.25024E-04   -0.65157E-04   624   0.323E-03-0.814E-04
CGA:  13    -0.152607059125E+04   -0.45874E-04   -0.55453E-04   624   0.681E-04 0.442E-04
CGA:  14    -0.152607061252E+04   -0.21276E-04   -0.21347E-04   624   0.286E-04 0.761E-06
CGA:  15    -0.152607063139E+04   -0.18866E-04   -0.20479E-04   624   0.377E-04-0.506E-05
CGA:  16    -0.152607064516E+04   -0.13770E-04   -0.27912E-04   624   0.121E-03-0.287E-04
CGA:  17    -0.152607067483E+04   -0.29665E-04   -0.28485E-04   624   0.555E-04-0.587E-05
CGA:  18    -0.152607069108E+04   -0.16257E-04   -0.16626E-04   624   0.179E-04 0.404E-05
CGA:  19    -0.152607070015E+04   -0.90684E-05   -0.98623E-05   624   0.270E-04-0.740E-05
   9 F= -.15260707E+04 E0= -.15260707E+04  d E =-.309037E-01  mag=    16.0000
       N       E                     dE             d eps       ncg     rms          ort
SDA:   1    -0.152322515297E+04    0.28455E+01    0.00000E+00   624   0.690E+01 0.000E+00
CGA:   2    -0.152552292196E+04   -0.22978E+01   -0.22975E+01   624   0.231E+01-0.282E-02
CGA:   3    -0.152598388416E+04   -0.46096E+00   -0.46086E+00   624   0.445E+00-0.100E-03
CGA:   4    -0.152606671656E+04   -0.82832E-01   -0.83058E-01   624   0.902E-01 0.120E-02
CGA:   5    -0.152608555712E+04   -0.18841E-01   -0.18900E-01   624   0.219E-01 0.339E-03
CGA:   6    -0.152609095439E+04   -0.53973E-02   -0.53629E-02   624   0.620E-02-0.245E-03
CGA:   7    -0.152609278549E+04   -0.18311E-02   -0.18060E-02   624   0.258E-02-0.304E-03
CGA:   8    -0.152609358454E+04   -0.79905E-03   -0.79555E-03   624   0.110E-02-0.697E-04
CGA:   9    -0.152609390803E+04   -0.32349E-03   -0.32437E-03   624   0.397E-03 0.141E-04
CGA:  10    -0.152609403309E+04   -0.12507E-03   -0.12319E-03   624   0.193E-03-0.303E-04
CGA:  11    -0.152609409695E+04   -0.63856E-04   -0.63605E-04   624   0.149E-03-0.354E-04
CGA:  12    -0.152609415225E+04   -0.55304E-04   -0.65438E-04   624   0.225E-03-0.579E-04
CGA:  13    -0.152609419526E+04   -0.43007E-04   -0.43782E-04   624   0.154E-03 0.130E-04
CGA:  14    -0.152609425378E+04   -0.58520E-04   -0.58686E-04   624   0.106E-03 0.161E-04
CGA:  15    -0.152609428925E+04   -0.35466E-04   -0.35531E-04   624   0.890E-04 0.348E-06
CGA:  16    -0.152609431051E+04   -0.21267E-04   -0.23497E-04   624   0.401E-04 0.209E-04
CGA:  17    -0.152609432160E+04   -0.11082E-04   -0.12781E-04   624   0.316E-04 0.162E-04
CGA:  18    -0.152609433110E+04   -0.94994E-05   -0.11005E-04   624   0.162E-04 0.137E-04
  10 F= -.15260943E+04 E0= -.15260943E+04  d E =-.236309E-01  mag=    16.0000
       N       E                     dE             d eps       ncg     rms          ort
SDA:   1    -0.151431120643E+04    0.11783E+02    0.00000E+00   624   0.284E+02 0.000E+00
CGA:   2    -0.152374150790E+04   -0.94303E+01   -0.94302E+01   624   0.948E+01-0.513E-02
CGA:   3    -0.152564774636E+04   -0.19062E+01   -0.19055E+01   624   0.181E+01-0.113E-02
CGA:   4    -0.152598496413E+04   -0.33722E+00   -0.33768E+00   624   0.372E+00 0.379E-02
CGA:   5    -0.152606418948E+04   -0.79225E-01   -0.79315E-01   624   0.940E-01 0.857E-03
CGA:   6    -0.152608732642E+04   -0.23137E-01   -0.23076E-01   624   0.276E-01-0.790E-03
CGA:   7    -0.152609545427E+04   -0.81278E-02   -0.81086E-02   624   0.117E-01-0.836E-03
CGA:   8    -0.152609922961E+04   -0.37753E-02   -0.37827E-02   624   0.531E-02-0.491E-03
CGA:   9    -0.152610079650E+04   -0.15669E-02   -0.15653E-02   624   0.208E-02-0.146E-03
CGA:  10    -0.152610140387E+04   -0.60737E-03   -0.60348E-03   624   0.101E-02-0.196E-03
CGA:  11    -0.152610171316E+04   -0.30929E-03   -0.31228E-03   624   0.664E-03-0.121E-03
CGA:  12    -0.152610199158E+04   -0.27842E-03   -0.33735E-03   624   0.992E-03-0.234E-03
CGA:  13    -0.152610225590E+04   -0.26432E-03   -0.27708E-03   624   0.877E-03-0.146E-03
CGA:  14    -0.152610256859E+04   -0.31269E-03   -0.33288E-03   624   0.576E-03-0.203E-03
CGA:  15    -0.152610273828E+04   -0.16969E-03   -0.17056E-03   624   0.310E-03-0.275E-04
CGA:  16    -0.152610285989E+04   -0.12161E-03   -0.12511E-03   624   0.236E-03-0.463E-04
CGA:  17    -0.152610290479E+04   -0.44895E-04   -0.50690E-04   624   0.127E-03 0.601E-04
CGA:  18    -0.152610295536E+04   -0.50572E-04   -0.51191E-04   624   0.686E-04 0.269E-04
CGA:  19    -0.152610299133E+04   -0.35971E-04   -0.40450E-04   624   0.112E-03-0.311E-04
CGA:  20    -0.152610299329E+04   -0.19613E-05   -0.61423E-05   624   0.772E-04 0.168E-04
  11 F= -.15261030E+04 E0= -.15261030E+04  d E =-.866220E-02  mag=    16.0000
       N       E                     dE             d eps       ncg     rms          ort
SDA:   1    -0.152396311378E+04    0.21399E+01    0.00000E+00   624   0.548E+01 0.000E+00
CGA:   2    -0.152562200369E+04   -0.16589E+01   -0.16587E+01   624   0.195E+01-0.858E-02
CGA:   3    -0.152603086169E+04   -0.40886E+00   -0.40909E+00   624   0.409E+00 0.330E-02
CGA:   4    -0.152610618510E+04   -0.75323E-01   -0.75471E-01   624   0.812E-01 0.118E-02
CGA:   5    -0.152612320813E+04   -0.17023E-01   -0.17037E-01   624   0.203E-01 0.139E-03
CGA:   6    -0.152612831087E+04   -0.51027E-02   -0.50904E-02   624   0.663E-02-0.221E-03
CGA:   7    -0.152613026120E+04   -0.19503E-02   -0.19487E-02   624   0.292E-02-0.281E-03
CGA:   8    -0.152613116858E+04   -0.90738E-03   -0.90806E-03   624   0.128E-02-0.288E-04
CGA:   9    -0.152613161574E+04   -0.44717E-03   -0.45975E-03   624   0.668E-03-0.207E-03
CGA:  10    -0.152613175257E+04   -0.13683E-03   -0.13846E-03   624   0.230E-03 0.287E-04
CGA:  11    -0.152613183937E+04   -0.86796E-04   -0.89940E-04   624   0.156E-03-0.443E-04
CGA:  12    -0.152613189342E+04   -0.54049E-04   -0.79390E-04   624   0.237E-03-0.784E-04
CGA:  13    -0.152613194172E+04   -0.48308E-04   -0.51494E-04   624   0.598E-04 0.305E-04
CGA:  14    -0.152613196733E+04   -0.25605E-04   -0.28714E-04   624   0.776E-04-0.287E-04
CGA:  15    -0.152613197223E+04   -0.48978E-05   -0.64154E-05   624   0.539E-04 0.931E-05
  12 F= -.15261320E+04 E0= -.15261320E+04  d E =-.289789E-01  mag=    16.0000
       N       E                     dE             d eps       ncg     rms          ort
SDA:   1    -0.152452053171E+04    0.16114E+01    0.00000E+00   624   0.389E+01 0.000E+00
CGA:   2    -0.152582521701E+04   -0.13047E+01   -0.13046E+01   624   0.127E+01 0.183E-02
CGA:   3    -0.152608357956E+04   -0.25836E+00   -0.25817E+00   624   0.251E+00-0.178E-02
CGA:   4    -0.152613045299E+04   -0.46873E-01   -0.46851E-01   624   0.512E-01-0.142E-03
CGA:   5    -0.152614139029E+04   -0.10937E-01   -0.10908E-01   624   0.130E-01-0.337E-03
CGA:   6    -0.152614450719E+04   -0.31169E-02   -0.31110E-02   624   0.377E-02-0.114E-03
CGA:   7    -0.152614552948E+04   -0.10223E-02   -0.10236E-02   624   0.141E-02 0.822E-04
CGA:   8    -0.152614603231E+04   -0.50283E-03   -0.51021E-03   624   0.729E-03-0.113E-03
CGA:   9    -0.152614624711E+04   -0.21480E-03   -0.21725E-03   624   0.310E-03-0.788E-04
CGA:  10    -0.152614633406E+04   -0.86954E-04   -0.89208E-04   624   0.170E-03-0.806E-04
CGA:  11    -0.152614635856E+04   -0.24496E-04   -0.26161E-04   624   0.600E-04 0.192E-04
CGA:  12    -0.152614637058E+04   -0.12027E-04   -0.13991E-04   624   0.334E-04 0.239E-04
CGA:  13    -0.152614638362E+04   -0.13031E-04   -0.13083E-04   624   0.268E-04 0.725E-05
CGA:  14    -0.152614639395E+04   -0.10331E-04   -0.10103E-04   624   0.197E-04 0.100E-04
CGA:  15    -0.152614639692E+04   -0.29719E-05   -0.46695E-05   624   0.122E-04 0.146E-04
  13 F= -.15261464E+04 E0= -.15261464E+04  d E =-.144247E-01  mag=    16.0000
       N       E                     dE             d eps       ncg     rms          ort
SDA:   1    -0.152587516156E+04    0.27123E+00    0.00000E+00   624   0.699E+00 0.000E+00
CGA:   2    -0.152609407149E+04   -0.21891E+00   -0.21901E+00   624   0.238E+00-0.324E-02
CGA:   3    -0.152614466278E+04   -0.50591E-01   -0.50649E-01   624   0.468E-01 0.828E-03
CGA:   4    -0.152615325764E+04   -0.85949E-02   -0.86345E-02   624   0.953E-02 0.428E-03
CGA:   5    -0.152615529290E+04   -0.20353E-02   -0.20353E-02   624   0.238E-02 0.832E-06
CGA:   6    -0.152615588720E+04   -0.59431E-03   -0.59378E-03   624   0.754E-03-0.244E-04
CGA:   7    -0.152615609226E+04   -0.20505E-03   -0.20490E-03   624   0.287E-03 0.385E-04
CGA:   8    -0.152615619290E+04   -0.10065E-03   -0.99665E-04   624   0.131E-03 0.165E-04
CGA:   9    -0.152615624708E+04   -0.54176E-04   -0.58827E-04   624   0.898E-04-0.310E-04
CGA:  10    -0.152615625656E+04   -0.94821E-05   -0.11954E-04   624   0.364E-04 0.231E-04
  14 F= -.15261563E+04 E0= -.15261563E+04  d E =-.985964E-02  mag=    16.0000
       N       E                     dE             d eps       ncg     rms          ort
SDA:   1    -0.152334298243E+04    0.28133E+01    0.00000E+00   624   0.699E+01 0.000E+00
CGA:   2    -0.152557719818E+04   -0.22342E+01   -0.22348E+01   624   0.230E+01-0.113E-01
CGA:   3    -0.152606971386E+04   -0.49252E+00   -0.49260E+00   624   0.425E+00 0.195E-02
CGA:   4    -0.152614790476E+04   -0.78191E-01   -0.78311E-01   624   0.896E-01 0.150E-02
CGA:   5    -0.152616672025E+04   -0.18815E-01   -0.18826E-01   624   0.216E-01 0.196E-03
CGA:   6    -0.152617207173E+04   -0.53515E-02   -0.53479E-02   624   0.661E-02-0.254E-03
CGA:   7    -0.152617402160E+04   -0.19499E-02   -0.19563E-02   624   0.296E-02-0.166E-03
CGA:   8    -0.152617499942E+04   -0.97782E-03   -0.98267E-03   624   0.142E-02-0.611E-04
CGA:   9    -0.152617549303E+04   -0.49361E-03   -0.51492E-03   624   0.731E-03-0.205E-03
CGA:  10    -0.152617563432E+04   -0.14129E-03   -0.14460E-03   624   0.247E-03 0.823E-04
CGA:  11    -0.152617571146E+04   -0.77139E-04   -0.76802E-04   624   0.114E-03 0.368E-04
CGA:  12    -0.152617577525E+04   -0.63784E-04   -0.67418E-04   624   0.146E-03-0.156E-04
CGA:  13    -0.152617580248E+04   -0.27234E-04   -0.29076E-04   624   0.102E-03 0.353E-04
CGA:  14    -0.152617583739E+04   -0.34910E-04   -0.34996E-04   624   0.644E-04 0.277E-04
CGA:  15    -0.152617586504E+04   -0.27647E-04   -0.28085E-04   624   0.762E-04-0.750E-05
CGA:  16    -0.152617587203E+04   -0.69898E-05   -0.10968E-04   624   0.588E-04 0.325E-04
CGA:  17    -0.152617587737E+04   -0.53429E-05   -0.11063E-04   624   0.349E-04 0.391E-04
CGA:  18    -0.152617580921E+04    0.68159E-04   -0.39471E-04   624   0.589E-03-0.897E-04
CGA:  19    -0.152617587633E+04   -0.67125E-04   -0.90448E-04   624   0.104E-03 0.724E-04
CGA:  20    -0.152617590575E+04   -0.29421E-04   -0.31796E-04   624   0.142E-04 0.117E-04
CGA:  21    -0.152617592130E+04   -0.15547E-04    0.62912E-04   624   0.370E-04-0.103E-04
CGA:  22    -0.152617591892E+04    0.23832E-05   -0.32632E-05   624   0.820E-05 0.152E-04
  15 F= -.15261759E+04 E0= -.15261759E+04  d E =-.196624E-01  mag=    16.0000
       N       E                     dE             d eps       ncg     rms          ort
SDA:   1    -0.150939146155E+04    0.16784E+02    0.00000E+00   624   0.445E+02 0.000E+00
CGA:   2    -0.152066725276E+04   -0.11276E+02   -0.11171E+02   624   0.186E+02 0.325E+00
CGA:   3    -0.152470109862E+04   -0.40338E+01   -0.40611E+01   624   0.415E+01 0.381E-02
CGA:   4    -0.152546689712E+04   -0.76580E+00   -0.76194E+00   624   0.794E+00 0.356E-01
CGA:   5    -0.152563430508E+04   -0.16741E+00   -0.16779E+00   624   0.195E+00 0.231E-02
CGA:   6    -0.152568302194E+04   -0.48717E-01   -0.48669E-01   624   0.620E-01-0.290E-03
CGA:   7    -0.152570041405E+04   -0.17392E-01   -0.17330E-01   624   0.228E-01-0.594E-03
CGA:   8    -0.152570766459E+04   -0.72505E-02   -0.72248E-02   624   0.105E-01-0.451E-03
CGA:   9    -0.152571043747E+04   -0.27729E-02   -0.28274E-02   624   0.422E-02 0.588E-03
CGA:  10    -0.152571177524E+04   -0.13378E-02   -0.13287E-02   624   0.213E-02-0.128E-03
CGA:  11    -0.152571237737E+04   -0.60213E-03   -0.61659E-03   624   0.110E-02 0.220E-03
CGA:  12    -0.152571292276E+04   -0.54539E-03   -0.53871E-03   624   0.956E-03 0.706E-04
CGA:  13    -0.152571336862E+04   -0.44586E-03   -0.43113E-03   624   0.810E-03 0.234E-03
CGA:  14    -0.152571378382E+04   -0.41519E-03   -0.40596E-03   624   0.540E-03 0.245E-03
CGA:  15    -0.152571405848E+04   -0.27466E-03   -0.27118E-03   624   0.354E-03 0.200E-03
CGA:  16    -0.152571427264E+04   -0.21416E-03   -0.20650E-03   624   0.269E-03 0.122E-03
CGA:  17    -0.152571443556E+04   -0.16292E-03   -0.15685E-03   624   0.234E-03 0.861E-04
CGA:  18    -0.152571458088E+04   -0.14532E-03   -0.14100E-03   624   0.213E-03 0.379E-04
CGA:  19    -0.152571466503E+04   -0.84149E-04   -0.86375E-04   624   0.127E-03 0.598E-04
CGA:  20    -0.152571474922E+04   -0.84194E-04   -0.82198E-04   624   0.908E-04 0.677E-05
CGA:  21    -0.152571480345E+04   -0.54222E-04   -0.54130E-04   624   0.114E-03-0.554E-05
CGA:  22    -0.152571475546E+04    0.47989E-04   -0.11756E-03   624   0.125E-02-0.249E-03
CGA:  23    -0.152571489221E+04   -0.13675E-03   -0.16853E-03   624   0.176E-03 0.123E-03
CGA:  24    -0.152571495772E+04   -0.65506E-04   -0.67116E-04   624   0.786E-04 0.236E-04
CGA:  25    -0.152571499434E+04   -0.36622E-04   -0.36522E-04   624   0.177E-03-0.493E-04
CGA:  26    -0.152571500684E+04   -0.12504E-04   -0.21463E-04   624   0.247E-04 0.324E-04
CGA:  27    -0.152571501530E+04   -0.84584E-05   -0.89692E-05   624   0.299E-04 0.564E-05
CGA:  28    -0.152571495933E+04    0.55970E-04   -0.48514E-04   624   0.635E-03-0.114E-03
CGA:  29    -0.152571503906E+04   -0.79730E-04   -0.99066E-04   624   0.124E-03 0.738E-04
CGA:  30    -0.152571508409E+04   -0.45025E-04   -0.43805E-04   624   0.151E-04-0.112E-04
CGA:  31    -0.152571509649E+04   -0.12408E-04    0.38625E-04   624   0.203E-04-0.288E-05
CGA:  32    -0.152571501650E+04    0.79991E-04   -0.29775E-04   624   0.569E-03-0.789E-04
CGA:  33    -0.152571512934E+04   -0.11284E-03   -0.10458E-03   624   0.121E-03-0.227E-04
CGA:  34    -0.152571515512E+04   -0.25779E-04   -0.28491E-04   624   0.115E-04 0.122E-04
CGA:  35    -0.152571515796E+04   -0.28387E-05   -0.36377E-05   624   0.667E-05 0.455E-05
  16 F= -.15257152E+04 E0= -.15257152E+04  d E =0.460761E+00  mag=    16.0000
       N       E                     dE             d eps       ncg     rms          ort
SDA:   1    -0.152349172947E+04    0.22234E+01    0.00000E+00   624   0.676E+01 0.000E+00
CGA:   2    -0.152534465290E+04   -0.18529E+01   -0.18536E+01   624   0.280E+01 0.186E-02
CGA:   3    -0.152593247414E+04   -0.58782E+00   -0.58734E+00   624   0.658E+00-0.168E-02
CGA:   4    -0.152606208896E+04   -0.12961E+00   -0.12918E+00   624   0.139E+00-0.186E-02
CGA:   5    -0.152609074444E+04   -0.28655E-01   -0.28617E-01   624   0.352E-01-0.161E-03
CGA:   6    -0.152609957459E+04   -0.88302E-02   -0.88598E-02   624   0.122E-01 0.188E-03
CGA:   7    -0.152610295886E+04   -0.33843E-02   -0.34013E-02   624   0.431E-02 0.134E-03
CGA:   8    -0.152610434810E+04   -0.13892E-02   -0.13786E-02   624   0.189E-02-0.128E-03
CGA:   9    -0.152610495000E+04   -0.60190E-03   -0.58486E-03   624   0.936E-03-0.225E-03
CGA:  10    -0.152610516679E+04   -0.21680E-03   -0.21450E-03   624   0.373E-03-0.169E-04
CGA:  11    -0.152610531228E+04   -0.14549E-03   -0.14620E-03   624   0.288E-03-0.479E-04
CGA:  12    -0.152610543009E+04   -0.11781E-03   -0.11610E-03   624   0.262E-03 0.180E-04
CGA:  13    -0.152610547441E+04   -0.44324E-04   -0.38148E-03   624   0.219E-02-0.364E-03
CGA:  14    -0.152610580421E+04   -0.32980E-03   -0.38762E-03   624   0.431E-03 0.234E-03
CGA:  15    -0.152610593521E+04   -0.13100E-03   -0.12834E-03   624   0.132E-03-0.165E-04
CGA:  16    -0.152610596766E+04   -0.32452E-04   -0.38238E-04   624   0.627E-04 0.502E-04
CGA:  17    -0.152610598688E+04   -0.19224E-04   -0.24371E-04   624   0.367E-04 0.392E-04
CGA:  18    -0.152610601282E+04   -0.25939E-04   -0.29082E-04   624   0.127E-03-0.869E-05
CGA:  19    -0.152610601740E+04   -0.45787E-05   -0.17716E-04   624   0.101E-03 0.530E-04
CGA:  20    -0.152610602483E+04   -0.74287E-05   -0.23088E-04   624   0.661E-04 0.613E-04
CGA:  21    -0.152610500270E+04    0.10221E-02   -0.55616E-03   624   0.805E-02-0.540E-03
CGA:  22    -0.152610596510E+04   -0.96240E-03   -0.10829E-02   624   0.492E-03 0.444E-03
CGA:  23    -0.152610611708E+04   -0.15198E-03   -0.15806E-03   624   0.732E-04 0.156E-04
CGA:  24    -0.152610615145E+04   -0.34370E-04   -0.22212E-04   624   0.689E-04-0.312E-04
CGA:  25    -0.152610615574E+04   -0.42924E-05   -0.87965E-05   624   0.379E-04 0.103E-04
  17 F= -.15261062E+04 E0= -.15261062E+04  d E =-.390998E+00  mag=    16.0000
       N       E                     dE             d eps       ncg     rms          ort
SDA:   1    -0.152595401955E+04    0.15213E+00    0.00000E+00   624   0.543E+00 0.000E+00
CGA:   2    -0.152608904387E+04   -0.13502E+00   -0.13510E+00   624   0.226E+00 0.207E-03
CGA:   3    -0.152613872207E+04   -0.49678E-01   -0.49649E-01   624   0.537E-01-0.162E-03
CGA:   4    -0.152614892876E+04   -0.10207E-01   -0.10130E-01   624   0.111E-01-0.179E-03
CGA:   5    -0.152615122301E+04   -0.22943E-02   -0.22768E-02   624   0.274E-02-0.499E-04
CGA:   6    -0.152615190129E+04   -0.67828E-03   -0.68036E-03   624   0.920E-03 0.726E-05
CGA:   7    -0.152615215266E+04   -0.25137E-03   -0.25659E-03   624   0.330E-03 0.210E-04
CGA:   8    -0.152615226451E+04   -0.11185E-03   -0.11160E-03   624   0.160E-03-0.145E-05
CGA:   9    -0.152615233685E+04   -0.72334E-04   -0.69250E-04   624   0.145E-03-0.459E-04
CGA:  10    -0.152615236577E+04   -0.28927E-04   -0.27917E-04   624   0.809E-04-0.457E-05
CGA:  11    -0.152615239888E+04   -0.33107E-04   -0.32234E-04   624   0.783E-04-0.120E-04
CGA:  12    -0.152615243468E+04   -0.35800E-04   -0.36634E-04   624   0.109E-03-0.140E-04
CGA:  13    -0.152615247661E+04   -0.41927E-04   -0.41041E-04   624   0.141E-03-0.320E-04
CGA:  14    -0.152615252048E+04   -0.43873E-04   -0.36836E-04   624   0.100E-03-0.635E-04
CGA:  15    -0.152615253465E+04   -0.14170E-04   -0.13583E-04   624   0.494E-04-0.361E-05
CGA:  16    -0.152615254386E+04   -0.92139E-05   -0.10238E-04   624   0.247E-04 0.377E-05
  18 F= -.15261525E+04 E0= -.15261525E+04  d E =-.463881E-01  mag=    16.0000
       N       E                     dE             d eps       ncg     rms          ort
SDA:   1    -0.152549327564E+04    0.65926E+00    0.00000E+00   624   0.200E+01 0.000E+00
CGA:   2    -0.152596071018E+04   -0.46743E+00   -0.46750E+00   624   0.818E+00 0.161E-03
CGA:   3    -0.152614700360E+04   -0.18629E+00   -0.18631E+00   624   0.196E+00-0.344E-03
CGA:   4    -0.152618298125E+04   -0.35978E-01   -0.35896E-01   624   0.381E-01-0.260E-03
CGA:   5    -0.152619081120E+04   -0.78300E-02   -0.78209E-02   624   0.926E-02-0.443E-04
CGA:   6    -0.152619307989E+04   -0.22687E-02   -0.22648E-02   624   0.293E-02-0.246E-04
CGA:   7    -0.152619389312E+04   -0.81323E-03   -0.81165E-03   624   0.101E-02-0.135E-04
CGA:   8    -0.152619420316E+04   -0.31004E-03   -0.31025E-03   624   0.406E-03 0.289E-05
CGA:   9    -0.152619436231E+04   -0.15915E-03   -0.15984E-03   624   0.254E-03-0.899E-04
CGA:  10    -0.152619441535E+04   -0.53042E-04   -0.52233E-04   624   0.109E-03-0.638E-05
CGA:  11    -0.152619445949E+04   -0.44136E-04   -0.47976E-04   624   0.131E-03-0.534E-04
CGA:  12    -0.152619448088E+04   -0.21390E-04   -0.20519E-04   624   0.105E-03-0.118E-04
CGA:  13    -0.152619451962E+04   -0.38742E-04   -0.40158E-04   624   0.123E-03-0.345E-04
CGA:  14    -0.152619454093E+04   -0.21304E-04   -0.49785E-04   624   0.349E-03-0.131E-03
CGA:  15    -0.152619458297E+04   -0.42044E-04   -0.55324E-04   624   0.739E-04 0.586E-04
CGA:  16    -0.152619460697E+04   -0.23995E-04   -0.23964E-04   624   0.149E-04-0.255E-06
CGA:  17    -0.152619461545E+04   -0.84895E-05   -0.11158E-04   624   0.329E-04-0.715E-05
  19 F= -.15261946E+04 E0= -.15261946E+04  d E =-.420716E-01  mag=    16.0000
       N       E                     dE             d eps       ncg     rms          ort
SDA:   1    -0.152613393196E+04    0.60675E-01    0.00000E+00   624   0.202E+00 0.000E+00
CGA:   2    -0.152617930801E+04   -0.45376E-01   -0.45329E-01   624   0.818E-01-0.287E-03
CGA:   3    -0.152619811878E+04   -0.18811E-01   -0.18830E-01   624   0.193E-01 0.994E-04
CGA:   4    -0.152620155187E+04   -0.34331E-02   -0.34344E-02   624   0.354E-02 0.129E-04
CGA:   5    -0.152620226675E+04   -0.71489E-03   -0.71863E-03   624   0.839E-03 0.248E-04
CGA:   6    -0.152620247998E+04   -0.21323E-03   -0.21072E-03   624   0.260E-03-0.259E-04
CGA:   7    -0.152620256018E+04   -0.80196E-04   -0.79063E-04   624   0.118E-03-0.407E-04
CGA:   8    -0.152620258502E+04   -0.24843E-04   -0.25469E-04   624   0.397E-04 0.742E-05
CGA:   9    -0.152620260170E+04   -0.16677E-04   -0.22862E-04   624   0.640E-04-0.301E-04
CGA:  10    -0.152620260999E+04   -0.82862E-05   -0.10327E-04   624   0.953E-05 0.111E-04
CGA:  11    -0.152620261819E+04   -0.82029E-05    0.21743E-04   624   0.775E-05-0.268E-05
  20 F= -.15262026E+04 E0= -.15262026E+04  d E =-.800273E-02  mag=    16.0000
       N       E                     dE             d eps       ncg     rms          ort
SDA:   1    -0.152593542480E+04    0.26719E+00    0.00000E+00   624   0.792E+00 0.000E+00
CGA:   2    -0.152612086327E+04   -0.18544E+00   -0.18540E+00   624   0.322E+00-0.335E-03
CGA:   3    -0.152619361221E+04   -0.72749E-01   -0.72751E-01   624   0.728E-01-0.190E-03
CGA:   4    -0.152620674330E+04   -0.13131E-01   -0.13145E-01   624   0.138E-01 0.113E-03
CGA:   5    -0.152620954602E+04   -0.28027E-02   -0.28078E-02   624   0.328E-02 0.408E-04
CGA:   6    -0.152621037196E+04   -0.82594E-03   -0.82054E-03   624   0.102E-02-0.772E-04
CGA:   7    -0.152621066484E+04   -0.29288E-03   -0.29135E-03   624   0.400E-03-0.684E-04
CGA:   8    -0.152621078668E+04   -0.12184E-03   -0.12208E-03   624   0.175E-03-0.203E-04
CGA:   9    -0.152621085419E+04   -0.67515E-04   -0.80222E-04   624   0.155E-03-0.758E-04
CGA:  10    -0.152621088267E+04   -0.28474E-04   -0.28501E-04   624   0.786E-04-0.246E-04
CGA:  11    -0.152621090071E+04   -0.18046E-04   -0.42915E-04   624   0.194E-03-0.769E-04
CGA:  12    -0.152621093030E+04   -0.29585E-04   -0.34829E-04   624   0.355E-04 0.329E-04
CGA:  13    -0.152621094221E+04   -0.11911E-04   -0.25606E-04   624   0.131E-03-0.479E-04
CGA:  14    -0.152621095044E+04   -0.82260E-05   -0.16432E-04   624   0.230E-04 0.377E-04
  21 F= -.15262110E+04 E0= -.15262110E+04  d E =-.833225E-02  mag=    16.0000
       N       E                     dE             d eps       ncg     rms          ort
SDA:   1    -0.152616310916E+04    0.47833E-01    0.00000E+00   624   0.132E+00 0.000E+00
CGA:   2    -0.152619877991E+04   -0.35671E-01   -0.35678E-01   624   0.548E-01 0.119E-03
CGA:   3    -0.152621036179E+04   -0.11582E-01   -0.11563E-01   624   0.113E-01-0.181E-03
CGA:   4    -0.152621236351E+04   -0.20017E-02   -0.20198E-02   624   0.209E-02 0.134E-03
CGA:   5    -0.152621279508E+04   -0.43157E-03   -0.43218E-03   624   0.502E-03 0.563E-05
CGA:   6    -0.152621291701E+04   -0.12193E-03   -0.12210E-03   624   0.144E-03 0.262E-05
CGA:   7    -0.152621295031E+04   -0.33295E-04   -0.34647E-04   624   0.453E-04 0.211E-04
CGA:   8    -0.152621296917E+04   -0.18864E-04   -0.18885E-04   624   0.278E-04-0.371E-06
CGA:   9    -0.152621297844E+04   -0.92673E-05   -0.92253E-05   624   0.136E-04 0.134E-05
CGA:  10    -0.152621295944E+04    0.18994E-04   -0.18152E-04   624   0.166E-03-0.386E-04
CGA:  11    -0.152621297674E+04   -0.17292E-04   -0.25327E-04   624   0.276E-04 0.403E-04
CGA:  12    -0.152621298748E+04   -0.10747E-04   -0.10482E-04   624   0.138E-04-0.690E-05
CGA:  13    -0.152621299217E+04   -0.46868E-05   -0.56744E-05   624   0.156E-04-0.483E-05
  22 F= -.15262130E+04 E0= -.15262130E+04  d E =-.204173E-02  mag=    16.0000
       N       E                     dE             d eps       ncg     rms          ort
SDA:   1    -0.152551824571E+04    0.69474E+00    0.00000E+00   624   0.173E+01 0.000E+00
CGA:   2    -0.152605153009E+04   -0.53328E+00   -0.53323E+00   624   0.643E+00-0.129E-02
CGA:   3    -0.152618170998E+04   -0.13018E+00   -0.13018E+00   624   0.129E+00 0.457E-03
CGA:   4    -0.152620553031E+04   -0.23820E-01   -0.23788E-01   624   0.253E-01-0.171E-03
CGA:   5    -0.152621079485E+04   -0.52645E-02   -0.52677E-02   624   0.610E-02 0.288E-04
CGA:   6    -0.152621224759E+04   -0.14527E-02   -0.14513E-02   624   0.176E-02-0.166E-04
CGA:   7    -0.152621274095E+04   -0.49335E-03   -0.49228E-03   624   0.686E-03-0.259E-04
CGA:   8    -0.152621295521E+04   -0.21426E-03   -0.21430E-03   624   0.301E-03 0.156E-04
CGA:   9    -0.152621307533E+04   -0.12012E-03   -0.14981E-03   624   0.394E-03-0.177E-03
CGA:  10    -0.152621311338E+04   -0.38051E-04   -0.52058E-04   624   0.563E-04 0.731E-04
CGA:  11    -0.152621312861E+04   -0.15234E-04   -0.15885E-04   624   0.237E-04 0.807E-05
CGA:  12    -0.152621295023E+04    0.17838E-03   -0.96068E-04   624   0.126E-02-0.137E-03
CGA:  13    -0.152621309773E+04   -0.14750E-03   -0.17801E-03   624   0.179E-03 0.816E-04
CGA:  14    -0.152621317059E+04   -0.72862E-04   -0.68073E-04   624   0.461E-04-0.246E-04
CGA:  15    -0.152621318100E+04   -0.10405E-04   -0.10970E-04   624   0.138E-04 0.213E-05
CGA:  16    -0.152621318177E+04   -0.77048E-06   -0.26790E-05   624   0.579E-05 0.558E-05
  23 F= -.15262132E+04 E0= -.15262132E+04  d E =-.189595E-03  mag=    16.0000
       N       E                     dE             d eps       ncg     rms          ort
SDA:   1    -0.152596201004E+04    0.25117E+00    0.00000E+00   624   0.596E+00 0.000E+00
CGA:   2    -0.152616034436E+04   -0.19833E+00   -0.19847E+00   624   0.206E+00 0.108E-02
CGA:   3    -0.152620102977E+04   -0.40685E-01   -0.40529E-01   624   0.412E-01-0.521E-03
CGA:   4    -0.152620860889E+04   -0.75791E-02   -0.76026E-02   624   0.816E-02 0.205E-03
CGA:   5    -0.152621038806E+04   -0.17792E-02   -0.17750E-02   624   0.200E-02-0.151E-04
CGA:   6    -0.152621083546E+04   -0.44741E-03   -0.46329E-03   624   0.553E-03 0.731E-04
CGA:   7    -0.152621096013E+04   -0.12467E-03   -0.14059E-03   624   0.191E-03 0.828E-04
CGA:   8    -0.152621102192E+04   -0.61794E-04   -0.65756E-04   624   0.900E-04 0.307E-04
CGA:   9    -0.152621103689E+04   -0.14967E-04   -0.22665E-04   624   0.338E-04 0.376E-04
CGA:  10    -0.152621104134E+04   -0.44478E-05   -0.93446E-05   624   0.150E-04 0.225E-04
  24 F= -.15262110E+04 E0= -.15262110E+04  d E =0.214043E-02  mag=    16.0000
       N       E                     dE             d eps       ncg     rms          ort
SDA:   1    -0.152612748088E+04    0.83556E-01    0.00000E+00   624   0.201E+00 0.000E+00
CGA:   2    -0.152619219948E+04   -0.64719E-01   -0.64772E-01   624   0.688E-01 0.790E-03
CGA:   3    -0.152620675765E+04   -0.14558E-01   -0.14439E-01   624   0.144E-01-0.657E-03
CGA:   4    -0.152620940244E+04   -0.26448E-02   -0.26321E-02   624   0.279E-02-0.588E-04
CGA:   5    -0.152620999075E+04   -0.58831E-03   -0.58784E-03   624   0.706E-03-0.264E-05
CGA:   6    -0.152621015231E+04   -0.16157E-03   -0.16486E-03   624   0.206E-03 0.259E-04
CGA:   7    -0.152621021152E+04   -0.59210E-04   -0.59831E-04   624   0.820E-04 0.834E-05
CGA:   8    -0.152621023913E+04   -0.27606E-04   -0.27758E-04   624   0.374E-04 0.582E-05
CGA:   9    -0.152621024418E+04   -0.50513E-05   -0.77430E-05   624   0.138E-04 0.171E-04
  25 F= -.15262102E+04 E0= -.15262102E+04  d E =0.797160E-03  mag=    16.0000
       N       E                     dE             d eps       ncg     rms          ort
SDA:   1    -0.152587331889E+04    0.33692E+00    0.00000E+00   624   0.785E+00 0.000E+00
CGA:   2    -0.152614445492E+04   -0.27114E+00   -0.27113E+00   624   0.251E+00 0.882E-03
CGA:   3    -0.152619494056E+04   -0.50486E-01   -0.50336E-01   624   0.467E-01-0.103E-02
CGA:   4    -0.152620363881E+04   -0.86982E-02   -0.86659E-02   624   0.100E-01-0.220E-03
CGA:   5    -0.152620573064E+04   -0.20918E-02   -0.20945E-02   624   0.236E-02 0.243E-04
CGA:   6    -0.152620627751E+04   -0.54687E-03   -0.54855E-03   624   0.656E-03 0.198E-04
CGA:   7    -0.152620646439E+04   -0.18688E-03   -0.18703E-03   624   0.255E-03 0.526E-05
CGA:   8    -0.152620654638E+04   -0.81989E-04   -0.81865E-04   624   0.104E-03 0.171E-04
CGA:   9    -0.152620658844E+04   -0.42059E-04   -0.43170E-04   624   0.569E-04-0.142E-04
CGA:  10    -0.152620659990E+04   -0.11460E-04   -0.11976E-04   624   0.205E-04 0.715E-05
CGA:  11    -0.152620660557E+04   -0.56708E-05   -0.59406E-05   624   0.101E-04 0.485E-05
  26 F= -.15262066E+04 E0= -.15262066E+04  d E =0.363861E-02  mag=    16.0000
       N       E                     dE             d eps       ncg     rms          ort
SDA:   1    -0.150788421518E+04    0.18322E+02    0.00000E+00   624   0.457E+02 0.000E+00
CGA:   2    -0.152086245744E+04   -0.12978E+02   -0.12979E+02   624   0.193E+02 0.315E-01
CGA:   3    -0.152475240973E+04   -0.38900E+01   -0.38875E+01   624   0.376E+01 0.729E-02
CGA:   4    -0.152546415993E+04   -0.71175E+00   -0.71247E+00   624   0.792E+00 0.242E-02
CGA:   5    -0.152562782839E+04   -0.16367E+00   -0.16378E+00   624   0.190E+00 0.121E-02
CGA:   6    -0.152567424620E+04   -0.46418E-01   -0.46381E-01   624   0.582E-01-0.663E-03
CGA:   7    -0.152569060882E+04   -0.16363E-01   -0.16353E-01   624   0.217E-01-0.109E-02
CGA:   8    -0.152569724586E+04   -0.66370E-02   -0.66445E-02   624   0.902E-02-0.318E-03
CGA:   9    -0.152569983722E+04   -0.25914E-02   -0.25914E-02   624   0.345E-02-0.114E-03
CGA:  10    -0.152570083189E+04   -0.99467E-03   -0.99479E-03   624   0.144E-02-0.334E-03
CGA:  11    -0.152570123003E+04   -0.39814E-03   -0.40020E-03   624   0.690E-03-0.125E-03
CGA:  12    -0.152570149478E+04   -0.26475E-03   -0.30776E-03   624   0.835E-03-0.221E-03
CGA:  13    -0.152570169080E+04   -0.19602E-03   -0.19611E-03   624   0.644E-03-0.752E-05
CGA:  14    -0.152570201826E+04   -0.32746E-03   -0.39991E-03   624   0.857E-03-0.240E-03
CGA:  15    -0.152570222881E+04   -0.21054E-03   -0.21471E-03   624   0.736E-03-0.699E-04
CGA:  16    -0.152570243661E+04   -0.20780E-03   -0.20788E-03   624   0.408E-03-0.501E-05
CGA:  17    -0.152570259464E+04   -0.15803E-03   -0.16027E-03   624   0.297E-03-0.366E-04
CGA:  18    -0.152570266751E+04   -0.72873E-04   -0.76320E-04   624   0.183E-03 0.752E-04
CGA:  19    -0.152570273376E+04   -0.66246E-04   -0.68009E-04   624   0.976E-04 0.598E-04
CGA:  20    -0.152570276861E+04   -0.34850E-04   -0.36680E-04   624   0.635E-04 0.445E-04
CGA:  21    -0.152570278037E+04   -0.11764E-04   -0.18371E-04   624   0.390E-04 0.534E-04
CGA:  22    -0.152570279805E+04   -0.17681E-04   -0.16398E-04   624   0.237E-04 0.120E-04
CGA:  23    -0.152570282033E+04   -0.22284E-04   -0.21535E-04   624   0.702E-04 0.158E-05
CGA:  24    -0.152570284048E+04   -0.20143E-04   -0.21746E-04   624   0.525E-04 0.314E-04
CGA:  25    -0.152570285838E+04   -0.17901E-04   -0.19903E-04   624   0.551E-04 0.255E-04
CGA:  26    -0.152570289683E+04   -0.38451E-04   -0.37743E-04   624   0.663E-04 0.269E-05
CGA:  27    -0.152570292050E+04   -0.23675E-04   -0.23669E-04   624   0.763E-04 0.223E-05
CGA:  28    -0.152570294779E+04   -0.27291E-04   -0.27237E-04   624   0.905E-04 0.445E-05
CGA:  29    -0.152570298158E+04   -0.33786E-04   -0.34063E-04   624   0.783E-04-0.237E-04
CGA:  30    -0.152570299833E+04   -0.16748E-04   -0.16310E-04   624   0.730E-04-0.113E-04
CGA:  31    -0.152570301128E+04   -0.12953E-04   -0.13833E-04   624   0.543E-04 0.499E-05
CGA:  32    -0.152570302251E+04   -0.11226E-04   -0.12503E-04   624   0.392E-04 0.912E-05
CGA:  33    -0.152570303094E+04   -0.84334E-05   -0.97468E-05   624   0.308E-04 0.103E-04
  27 F= -.15257030E+04 E0= -.15257030E+04  d E =0.503575E+00  mag=    16.0000
       N       E                     dE             d eps       ncg     rms          ort
SDA:   1    -0.151955204279E+04    0.61510E+01    0.00000E+00   624   0.169E+02 0.000E+00
CGA:   2    -0.152429875454E+04   -0.47467E+01   -0.47469E+01   624   0.701E+01 0.555E-02
CGA:   3    -0.152573806860E+04   -0.14393E+01   -0.14390E+01   624   0.157E+01-0.286E-02
CGA:   4    -0.152604965807E+04   -0.31159E+00   -0.31186E+00   624   0.339E+00 0.273E-02
CGA:   5    -0.152611953109E+04   -0.69873E-01   -0.69888E-01   624   0.845E-01 0.227E-03
CGA:   6    -0.152614103915E+04   -0.21508E-01   -0.21508E-01   624   0.291E-01 0.100E-04
CGA:   7    -0.152614904850E+04   -0.80093E-02   -0.80104E-02   624   0.104E-01 0.588E-04
CGA:   8    -0.152615229826E+04   -0.32498E-02   -0.32623E-02   624   0.435E-02-0.602E-03
CGA:   9    -0.152615337514E+04   -0.10769E-02   -0.10799E-02   624   0.136E-02 0.104E-03
CGA:  10    -0.152615382179E+04   -0.44665E-03   -0.45732E-03   624   0.618E-03-0.303E-03
CGA:  11    -0.152615391435E+04   -0.92559E-04   -0.99536E-04   624   0.191E-03 0.808E-04
CGA:  12    -0.152615398547E+04   -0.71120E-04   -0.72781E-04   624   0.125E-03-0.359E-04
CGA:  13    -0.152615321133E+04    0.77415E-03   -0.41757E-03   624   0.503E-02-0.606E-03
CGA:  14    -0.152615385778E+04   -0.64645E-03   -0.74470E-03   624   0.697E-03 0.327E-03
CGA:  15    -0.152615409664E+04   -0.23886E-03   -0.23138E-03   624   0.163E-03-0.359E-04
CGA:  16    -0.152615413636E+04   -0.39720E-04   -0.43929E-04   624   0.525E-04 0.192E-04
CGA:  17    -0.152615414926E+04   -0.12901E-04   -0.15377E-04   624   0.234E-04 0.109E-04
CGA:  18    -0.152615415684E+04   -0.75851E-05   -0.84878E-05   624   0.853E-05 0.499E-05
  28 F= -.15261542E+04 E0= -.15261542E+04  d E =-.451126E+00  mag=    16.0000
       N       E                     dE             d eps       ncg     rms          ort
SDA:   1    -0.152609398554E+04    0.60164E-01    0.00000E+00   624   0.202E+00 0.000E+00
CGA:   2    -0.152615232744E+04   -0.58342E-01   -0.58248E-01   624   0.854E-01-0.519E-03
CGA:   3    -0.152616914702E+04   -0.16820E-01   -0.16920E-01   624   0.178E-01 0.393E-03
CGA:   4    -0.152617263412E+04   -0.34871E-02   -0.34889E-02   624   0.369E-02 0.227E-04
CGA:   5    -0.152617337881E+04   -0.74469E-03   -0.75153E-03   624   0.887E-03 0.309E-04
CGA:   6    -0.152617361882E+04   -0.24002E-03   -0.23359E-03   624   0.327E-03-0.419E-04
CGA:   7    -0.152617371760E+04   -0.98778E-04   -0.94348E-04   624   0.142E-03-0.428E-04
CGA:   8    -0.152617374574E+04   -0.28140E-04   -0.30264E-04   624   0.431E-04 0.137E-04
CGA:   9    -0.152617376444E+04   -0.18698E-04   -0.18755E-04   624   0.313E-04-0.155E-04
CGA:  10    -0.152617376649E+04   -0.20478E-05   -0.32985E-05   624   0.143E-04 0.545E-05
  29 F= -.15261738E+04 E0= -.15261738E+04  d E =-.196096E-01  mag=    16.0000
       N       E                     dE             d eps       ncg     rms          ort
SDA:   1    -0.152583905033E+04    0.33471E+00    0.00000E+00   624   0.928E+00 0.000E+00
CGA:   2    -0.152609225686E+04   -0.25321E+00   -0.25313E+00   624   0.399E+00-0.673E-03
CGA:   3    -0.152617380221E+04   -0.81545E-01   -0.81649E-01   624   0.817E-01 0.438E-03
CGA:   4    -0.152618916499E+04   -0.15363E-01   -0.15385E-01   624   0.168E-01 0.185E-03
CGA:   5    -0.152619253097E+04   -0.33660E-02   -0.33815E-02   624   0.382E-02 0.102E-03
CGA:   6    -0.152619349944E+04   -0.96847E-03   -0.96077E-03   624   0.123E-02-0.820E-04
CGA:   7    -0.152619385738E+04   -0.35794E-03   -0.35414E-03   624   0.483E-03-0.866E-04
CGA:   8    -0.152619398763E+04   -0.13025E-03   -0.13080E-03   624   0.175E-03 0.126E-04
CGA:   9    -0.152619405360E+04   -0.65974E-04   -0.67394E-04   624   0.102E-03-0.335E-04
CGA:  10    -0.152619407051E+04   -0.16909E-04   -0.18421E-04   624   0.372E-04 0.136E-04
CGA:  11    -0.152619408690E+04   -0.16387E-04   -0.22974E-04   624   0.741E-04-0.309E-04
CGA:  12    -0.152619410278E+04   -0.15878E-04   -0.16550E-04   624   0.119E-04 0.572E-05
CGA:  13    -0.152619409622E+04    0.65591E-05   -0.19234E-04   624   0.158E-03-0.223E-04
CGA:  14    -0.152619411577E+04   -0.19551E-04   -0.24811E-04   624   0.265E-04 0.229E-04
CGA:  15    -0.152619412809E+04   -0.12324E-04   -0.13320E-04   624   0.223E-04-0.174E-04
CGA:  16    -0.152619413027E+04   -0.21805E-05   -0.39274E-05   624   0.561E-05 0.839E-05
  30 F= -.15261941E+04 E0= -.15261941E+04  d E =-.203638E-01  mag=    16.0000
       N       E                     dE             d eps       ncg     rms          ort
SDA:   1    -0.152609042093E+04    0.10371E+00    0.00000E+00   624   0.277E+00 0.000E+00
CGA:   2    -0.152617042189E+04   -0.80001E-01   -0.79988E-01   624   0.113E+00-0.134E-03
CGA:   3    -0.152619297604E+04   -0.22554E-01   -0.22605E-01   624   0.237E-01 0.271E-03
CGA:   4    -0.152619748305E+04   -0.45070E-02   -0.44856E-02   624   0.477E-02-0.110E-03
CGA:   5    -0.152619842881E+04   -0.94577E-03   -0.94935E-03   624   0.108E-02 0.228E-04
CGA:   6    -0.152619870264E+04   -0.27383E-03   -0.27249E-03   624   0.335E-03-0.133E-04
CGA:   7    -0.152619880861E+04   -0.10597E-03   -0.10471E-03   624   0.158E-03-0.443E-04
CGA:   8    -0.152619884210E+04   -0.33487E-04   -0.35063E-04   624   0.529E-04 0.182E-04
CGA:   9    -0.152619886419E+04   -0.22095E-04   -0.35292E-04   624   0.115E-03-0.510E-04
CGA:  10    -0.152619887540E+04   -0.11208E-04   -0.17136E-04   624   0.171E-04 0.293E-04
CGA:  11    -0.152619888334E+04   -0.79355E-05   -0.87996E-05   624   0.235E-04-0.127E-04
  31 F= -.15261989E+04 E0= -.15261989E+04  d E =-.475307E-02  mag=    16.0000
       N       E                     dE             d eps       ncg     rms          ort
SDA:   1    -0.152604161696E+04    0.15726E+00    0.00000E+00   624   0.396E+00 0.000E+00
CGA:   2    -0.152616580103E+04   -0.12418E+00   -0.12421E+00   624   0.135E+00 0.892E-03
CGA:   3    -0.152619380011E+04   -0.27999E-01   -0.27978E-01   624   0.294E-01-0.140E-03
CGA:   4    -0.152619935361E+04   -0.55535E-02   -0.55075E-02   624   0.582E-02-0.317E-03
CGA:   5    -0.152620050961E+04   -0.11560E-02   -0.11599E-02   624   0.137E-02 0.325E-04
CGA:   6    -0.152620082970E+04   -0.32009E-03   -0.32351E-03   624   0.377E-03 0.417E-04
CGA:   7    -0.152620094405E+04   -0.11435E-03   -0.11416E-03   624   0.159E-03-0.965E-05
CGA:   8    -0.152620099156E+04   -0.47506E-04   -0.47556E-04   624   0.628E-04 0.941E-05
CGA:   9    -0.152620086956E+04    0.12199E-03   -0.89475E-04   624   0.956E-03-0.205E-03
CGA:  10    -0.152620098745E+04   -0.11789E-03   -0.14759E-03   624   0.129E-03 0.145E-03
CGA:  11    -0.152620102965E+04   -0.42197E-04   -0.41022E-04   624   0.500E-04-0.149E-04
CGA:  12    -0.152620103886E+04   -0.92154E-05   -0.10749E-04   624   0.209E-04 0.145E-04
  32 F= -.15262010E+04 E0= -.15262010E+04  d E =-.215552E-02  mag=    16.0000
       N       E                     dE             d eps       ncg     rms          ort
SDA:   1    -0.152613208706E+04    0.68943E-01    0.00000E+00   624   0.170E+00 0.000E+00
CGA:   2    -0.152618610157E+04   -0.54015E-01   -0.54044E-01   624   0.559E-01 0.115E-02
CGA:   3    -0.152619805164E+04   -0.11950E-01   -0.11900E-01   624   0.117E-01-0.363E-03
CGA:   4    -0.152620025086E+04   -0.21992E-02   -0.21677E-02   624   0.236E-02-0.208E-03
CGA:   5    -0.152620073548E+04   -0.48463E-03   -0.48149E-03   624   0.565E-03-0.260E-04
CGA:   6    -0.152620084790E+04   -0.11242E-03   -0.11792E-03   624   0.139E-03 0.499E-04
CGA:   7    -0.152620088523E+04   -0.37327E-04   -0.38569E-04   624   0.508E-04 0.204E-04
CGA:   8    -0.152620090931E+04   -0.24088E-04   -0.25445E-04   624   0.431E-04-0.109E-04
CGA:   9    -0.152620092146E+04   -0.12149E-04   -0.13889E-04   624   0.324E-04-0.190E-04
CGA:  10    -0.152620092690E+04   -0.54399E-05   -0.51996E-05   624   0.175E-04-0.674E-05
  33 F= -.15262009E+04 E0= -.15262009E+04  d E =0.111959E-03  mag=    16.0000
       N       E                     dE             d eps       ncg     rms          ort
SDA:   1    -0.152591641225E+04    0.28451E+00    0.00000E+00   624   0.696E+00 0.000E+00
CGA:   2    -0.152613658598E+04   -0.22017E+00   -0.22017E+00   624   0.236E+00 0.245E-02
CGA:   3    -0.152618621258E+04   -0.49627E-01   -0.49524E-01   624   0.474E-01-0.811E-03
CGA:   4    -0.152619496067E+04   -0.87481E-02   -0.86678E-02   624   0.967E-02-0.628E-03
CGA:   5    -0.152619691682E+04   -0.19561E-02   -0.19609E-02   624   0.223E-02 0.495E-04
CGA:   6    -0.152619741486E+04   -0.49803E-03   -0.50476E-03   624   0.588E-03 0.917E-04
CGA:   7    -0.152619758949E+04   -0.17463E-03   -0.17467E-03   624   0.243E-03 0.438E-05
CGA:   8    -0.152619766933E+04   -0.79840E-04   -0.79579E-04   624   0.111E-03 0.875E-05
CGA:   9    -0.152619760076E+04    0.68567E-04   -0.12003E-03   624   0.955E-03-0.254E-03
CGA:  10    -0.152619771065E+04   -0.10989E-03   -0.13634E-03   624   0.122E-03 0.142E-03
CGA:  11    -0.152619774680E+04   -0.36154E-04   -0.36076E-04   624   0.425E-04-0.109E-05
CGA:  12    -0.152619776362E+04   -0.16822E-04   -0.17012E-04   624   0.281E-04-0.232E-05
CGA:  13    -0.152619777078E+04   -0.71601E-05   -0.73273E-05   624   0.140E-04 0.345E-05
  34 F= -.15261978E+04 E0= -.15261978E+04  d E =0.315612E-02  mag=    16.0000
       N       E                     dE             d eps       ncg     rms          ort
SDA:   1    -0.152604935015E+04    0.14841E+00    0.00000E+00   624   0.345E+00 0.000E+00
CGA:   2    -0.152616652085E+04   -0.11717E+00   -0.11714E+00   624   0.109E+00 0.165E-02
CGA:   3    -0.152618945568E+04   -0.22935E-01   -0.22851E-01   624   0.199E-01-0.708E-03
CGA:   4    -0.152619323186E+04   -0.37762E-02   -0.37394E-02   624   0.438E-02-0.282E-03
CGA:   5    -0.152619411445E+04   -0.88258E-03   -0.89138E-03   624   0.996E-03 0.849E-04
CGA:   6    -0.152619434793E+04   -0.23349E-03   -0.23604E-03   624   0.278E-03 0.348E-04
CGA:   7    -0.152619443559E+04   -0.87655E-04   -0.87672E-04   624   0.128E-03-0.657E-05
CGA:   8    -0.152619447189E+04   -0.36298E-04   -0.36425E-04   624   0.521E-04 0.128E-04
CGA:   9    -0.152619445876E+04    0.13128E-04   -0.54349E-04   624   0.346E-03-0.104E-03
CGA:  10    -0.152619449803E+04   -0.39273E-04   -0.50527E-04   624   0.472E-04 0.609E-04
CGA:  11    -0.152619451522E+04   -0.17190E-04   -0.16948E-04   624   0.227E-04-0.126E-04
CGA:  12    -0.152619452058E+04   -0.53545E-05   -0.53574E-05   624   0.124E-04 0.181E-05
  35 F= -.15261945E+04 E0= -.15261945E+04  d E =0.325021E-02  mag=    16.0000
       N       E                     dE             d eps       ncg     rms          ort
SDA:   1    -0.152607955082E+04    0.11496E+00    0.00000E+00   624   0.266E+00 0.000E+00
CGA:   2    -0.152617001580E+04   -0.90465E-01   -0.90454E-01   624   0.884E-01 0.135E-02
CGA:   3    -0.152618784224E+04   -0.17826E-01   -0.17725E-01   624   0.165E-01-0.728E-03
CGA:   4    -0.152619097736E+04   -0.31351E-02   -0.31054E-02   624   0.351E-02-0.210E-03
CGA:   5    -0.152619172372E+04   -0.74637E-03   -0.74348E-03   624   0.832E-03-0.271E-04
CGA:   6    -0.152619190846E+04   -0.18474E-03   -0.18667E-03   624   0.231E-03 0.221E-04
CGA:   7    -0.152619197742E+04   -0.68961E-04   -0.68908E-04   624   0.978E-04-0.266E-05
CGA:   8    -0.152619201413E+04   -0.36706E-04   -0.38742E-04   624   0.730E-04-0.220E-04
CGA:   9    -0.152619203091E+04   -0.16783E-04   -0.16572E-04   624   0.328E-04-0.102E-04
CGA:  10    -0.152619201690E+04    0.14010E-04   -0.24759E-04   624   0.225E-03-0.686E-04
CGA:  11    -0.152619204810E+04   -0.31201E-04   -0.35143E-04   624   0.321E-04 0.223E-04
CGA:  12    -0.152619205876E+04   -0.10663E-04   -0.10483E-04   624   0.137E-04-0.522E-05
CGA:  13    -0.152619206189E+04   -0.31292E-05   -0.32769E-05   624   0.599E-05 0.339E-05
  36 F= -.15261921E+04 E0= -.15261921E+04  d E =0.245868E-02  mag=    16.0000
       N       E                     dE             d eps       ncg     rms          ort
SDA:   1    -0.152579314797E+04    0.39891E+00    0.00000E+00   624   0.919E+00 0.000E+00
CGA:   2    -0.152611512361E+04   -0.32198E+00   -0.32197E+00   624   0.272E+00 0.286E-02
CGA:   3    -0.152617295469E+04   -0.57831E-01   -0.57571E-01   624   0.455E-01-0.185E-02
CGA:   4    -0.152618167907E+04   -0.87244E-02   -0.87002E-02   624   0.107E-01-0.148E-03
CGA:   5    -0.152618390031E+04   -0.22212E-02   -0.22177E-02   624   0.244E-02-0.263E-04
CGA:   6    -0.152618447047E+04   -0.57015E-03   -0.57390E-03   624   0.691E-03 0.415E-04
CGA:   7    -0.152618467686E+04   -0.20639E-03   -0.20632E-03   624   0.297E-03-0.216E-05
CGA:   8    -0.152618478226E+04   -0.10540E-03   -0.10619E-03   624   0.164E-03-0.208E-04
CGA:   9    -0.152618482927E+04   -0.47009E-04   -0.46897E-04   624   0.689E-04-0.714E-05
CGA:  10    -0.152618484882E+04   -0.19558E-04   -0.37654E-04   624   0.172E-03-0.722E-04
CGA:  11    -0.152618486620E+04   -0.17378E-04   -0.23005E-04   624   0.246E-04 0.289E-04
CGA:  12    -0.152618487521E+04   -0.90109E-05   -0.89965E-05   624   0.148E-04-0.136E-05
CGA:  13    -0.152618485926E+04    0.15953E-04   -0.17742E-04   624   0.226E-03-0.358E-04
CGA:  14    -0.152618488612E+04   -0.26857E-04   -0.30916E-04   624   0.274E-04 0.188E-04
CGA:  15    -0.152618489862E+04   -0.12501E-04   -0.18340E-04   624   0.352E-04-0.226E-04
CGA:  16    -0.152618490357E+04   -0.49480E-05   -0.66953E-05   624   0.615E-05 0.964E-05
  37 F= -.15261849E+04 E0= -.15261849E+04  d E =0.715833E-02  mag=    16.0000
       N       E                     dE             d eps       ncg     rms          ort
SDA:   1    -0.151741171084E+04    0.87732E+01    0.00000E+00   624   0.205E+02 0.000E+00
CGA:   2    -0.152455723782E+04   -0.71455E+01   -0.71463E+01   624   0.633E+01 0.137E-01
CGA:   3    -0.152586268673E+04   -0.13054E+01   -0.13035E+01   624   0.106E+01-0.109E-01
CGA:   4    -0.152606379930E+04   -0.20111E+00   -0.20116E+00   624   0.246E+00 0.877E-03
CGA:   5    -0.152611596096E+04   -0.52162E-01   -0.52149E-01   624   0.576E-01-0.679E-04
CGA:   6    -0.152612985951E+04   -0.13899E-01   -0.13856E-01   624   0.175E-01-0.352E-03
CGA:   7    -0.152613499916E+04   -0.51397E-02   -0.51180E-02   624   0.738E-02-0.341E-03
CGA:   8    -0.152613757006E+04   -0.25709E-02   -0.25714E-02   624   0.372E-02-0.498E-03
CGA:   9    -0.152613868004E+04   -0.11100E-02   -0.11022E-02   624   0.144E-02-0.208E-03
CGA:  10    -0.152613914717E+04   -0.46713E-03   -0.46283E-03   624   0.887E-03-0.346E-03
CGA:  11    -0.152613931068E+04   -0.16351E-03   -0.16490E-03   624   0.385E-03 0.151E-04
CGA:  12    -0.152613948436E+04   -0.17368E-03   -0.18226E-03   624   0.396E-03-0.738E-04
CGA:  13    -0.152613963050E+04   -0.14615E-03   -0.17698E-03   624   0.725E-03-0.156E-03
CGA:  14    -0.152613971893E+04   -0.88429E-04   -0.88521E-04   624   0.409E-03-0.282E-05
CGA:  15    -0.152613979738E+04   -0.78447E-04   -0.83611E-04   624   0.310E-03 0.324E-04
CGA:  16    -0.152613989003E+04   -0.92650E-04   -0.91207E-04   624   0.211E-03-0.216E-04
CGA:  17    -0.152613994899E+04   -0.58958E-04   -0.59060E-04   624   0.259E-03 0.153E-06
CGA:  18    -0.152614000268E+04   -0.53694E-04   -0.60600E-04   624   0.176E-03 0.609E-04
CGA:  19    -0.152614004053E+04   -0.37844E-04   -0.45525E-04   624   0.131E-03 0.588E-04
CGA:  20    -0.152614008344E+04   -0.42914E-04   -0.45657E-04   624   0.845E-04 0.382E-04
CGA:  21    -0.152614010567E+04   -0.22233E-04   -0.24703E-04   624   0.584E-04 0.236E-04
CGA:  22    -0.152614011610E+04   -0.10431E-04   -0.14636E-04   624   0.397E-04 0.328E-04
CGA:  23    -0.152614012217E+04   -0.60663E-05   -0.79354E-05   624   0.176E-04 0.163E-04
  38 F= -.15261401E+04 E0= -.15261401E+04  d E =0.447814E-01  mag=    16.0000
       N       E                     dE             d eps       ncg     rms          ort
SDA:   1    -0.152053027071E+04    0.56098E+01    0.00000E+00   624   0.131E+02 0.000E+00
CGA:   2    -0.152501182379E+04   -0.44816E+01   -0.44812E+01   624   0.446E+01 0.881E-02
CGA:   3    -0.152589703361E+04   -0.88521E+00   -0.88429E+00   624   0.783E+00-0.102E-01
CGA:   4    -0.152604510762E+04   -0.14807E+00   -0.14792E+00   624   0.171E+00-0.117E-02
CGA:   5    -0.152608123827E+04   -0.36131E-01   -0.36167E-01   624   0.412E-01 0.441E-03
CGA:   6    -0.152609106461E+04   -0.98263E-02   -0.98200E-02   624   0.122E-01-0.121E-03
CGA:   7    -0.152609465591E+04   -0.35913E-02   -0.35938E-02   624   0.509E-02-0.336E-03
CGA:   8    -0.152609638868E+04   -0.17328E-02   -0.17540E-02   624   0.252E-02-0.323E-03
CGA:   9    -0.152609720449E+04   -0.81581E-03   -0.83588E-03   624   0.114E-02-0.322E-03
CGA:  10    -0.152609752492E+04   -0.32042E-03   -0.32492E-03   624   0.582E-03-0.140E-03
CGA:  11    -0.152609770912E+04   -0.18421E-03   -0.19402E-03   624   0.525E-03-0.117E-03
CGA:  12    -0.152609788887E+04   -0.17975E-03   -0.20624E-03   624   0.646E-03-0.141E-03
CGA:  13    -0.152609809549E+04   -0.20662E-03   -0.22330E-03   624   0.576E-03-0.109E-03
CGA:  14    -0.152609828974E+04   -0.19424E-03   -0.21547E-03   624   0.531E-03-0.170E-03
CGA:  15    -0.152609837432E+04   -0.84582E-04   -0.89254E-04   624   0.257E-03 0.486E-04
CGA:  16    -0.152609846702E+04   -0.92702E-04   -0.92298E-04   624   0.189E-03 0.414E-04
CGA:  17    -0.152609853946E+04   -0.72445E-04   -0.72531E-04   624   0.208E-03-0.107E-04
CGA:  18    -0.152609858131E+04   -0.41850E-04   -0.47276E-04   624   0.120E-03 0.651E-04
CGA:  19    -0.152609860278E+04   -0.21465E-04   -0.28488E-04   624   0.709E-04 0.506E-04
CGA:  20    -0.152609863228E+04   -0.29500E-04   -0.29771E-04   624   0.420E-04 0.162E-04
CGA:  21    -0.152609864828E+04   -0.16002E-04   -0.16001E-04   624   0.504E-04 0.137E-05
CGA:  22    -0.152609865580E+04   -0.75182E-05   -0.10102E-04   624   0.363E-04 0.216E-04
  39 F= -.15260987E+04 E0= -.15260987E+04  d E =0.414664E-01  mag=    16.0000
       N       E                     dE             d eps       ncg     rms          ort
SDA:   1    -0.152286426025E+04    0.32344E+01    0.00000E+00   624   0.775E+01 0.000E+00
CGA:   2    -0.152552194646E+04   -0.26577E+01   -0.26581E+01   624   0.250E+01-0.938E-02
[...]
CGA:  12    -0.152611407506E+04   -0.57697E-03   -0.59046E-03   624   0.143E-02-0.796E-04
CGA:  13    -0.152611450822E+04   -0.43316E-03   -0.43589E-03   624   0.999E-03 0.290E-03
CGA:  14    -0.152611499480E+04   -0.48658E-03   -0.47532E-03   624   0.528E-03 0.169E-03
CGA:  15    -0.152611523080E+04   -0.23600E-03   -0.23320E-03   624   0.366E-03 0.619E-04
CGA:  16    -0.152611528556E+04   -0.54760E-04   -0.80245E-04   624   0.162E-03 0.169E-03
CGA:  17    -0.152611532407E+04   -0.38513E-04   -0.51454E-04   624   0.947E-04 0.107E-03
CGA:  18    -0.152611536037E+04   -0.36299E-04   -0.37922E-04   624   0.168E-03-0.229E-04
CGA:  19    -0.152611536151E+04   -0.11441E-05   -0.17186E-04   624   0.115E-03 0.802E-04
CGA:  20    -0.152611535766E+04    0.38510E-05   -0.15202E-04   624   0.407E-04 0.815E-04
CGA:  21    -0.152611536765E+04   -0.99913E-05   -0.10936E-04   624   0.235E-04 0.219E-04
  45 F= -.15261154E+04 E0= -.15261154E+04  d E =-.518346E+00  mag=    16.0000
       N       E                     dE             d eps       ncg     rms          ort
SDA:   1    -0.152605541836E+04    0.59939E-01    0.00000E+00   624   0.175E+00 0.000E+00
CGA:   2    -0.152610903944E+04   -0.53621E-01   -0.53625E-01   624   0.759E-01-0.875E-03
CGA:   3    -0.152612329579E+04   -0.14256E-01   -0.14247E-01   624   0.168E-01-0.295E-04
CGA:   4    -0.152612673602E+04   -0.34402E-02   -0.34334E-02   624   0.320E-02-0.340E-04
CGA:   5    -0.152612740126E+04   -0.66525E-03   -0.67517E-03   624   0.857E-03 0.121E-03
CGA:   6    -0.152612765972E+04   -0.25846E-03   -0.25857E-03   624   0.427E-03-0.917E-04
CGA:   7    -0.152612777754E+04   -0.11781E-03   -0.12028E-03   624   0.231E-03-0.950E-04
CGA:   8    -0.152612783622E+04   -0.58678E-04   -0.61274E-04   624   0.130E-03-0.521E-04
CGA:   9    -0.152612786547E+04   -0.29252E-04   -0.51560E-04   624   0.235E-03-0.102E-03
CGA:  10    -0.152612789425E+04   -0.28785E-04   -0.33119E-04   624   0.378E-04 0.275E-04
CGA:  11    -0.152612790822E+04   -0.13971E-04   -0.28305E-04   624   0.102E-03-0.384E-04
CGA:  12    -0.152612792577E+04   -0.17548E-04   -0.19607E-04   624   0.125E-04 0.168E-04
CGA:  13    -0.152612783336E+04    0.92412E-04   -0.49767E-04   624   0.563E-03-0.719E-04
CGA:  14    -0.152612791289E+04   -0.79529E-04   -0.99721E-04   624   0.108E-03 0.555E-04
CGA:  15    -0.152612795795E+04   -0.45065E-04   -0.35078E-04   624   0.286E-04-0.399E-04
CGA:  16    -0.152612795709E+04    0.86031E-06   -0.23851E-05   624   0.119E-04 0.820E-05
  46 F= -.15261280E+04 E0= -.15261280E+04  d E =-.125894E-01  mag=    16.0000
       N       E                     dE             d eps       ncg     rms          ort
SDA:   1    -0.152607499493E+04    0.52963E-01    0.00000E+00   624   0.165E+00 0.000E+00
CGA:   2    -0.152611784500E+04   -0.42850E-01   -0.42724E-01   624   0.712E-01-0.506E-03
CGA:   3    -0.152613284959E+04   -0.15005E-01   -0.14996E-01   624   0.159E-01-0.601E-04
CGA:   4    -0.152613568327E+04   -0.28337E-02   -0.28944E-02   624   0.316E-02 0.219E-03
CGA:   5    -0.152613631404E+04   -0.63078E-03   -0.65404E-03   624   0.764E-03 0.936E-04
CGA:   6    -0.152613654299E+04   -0.22894E-03   -0.21723E-03   624   0.326E-03-0.717E-04
CGA:   7    -0.152613665570E+04   -0.11272E-03   -0.10575E-03   624   0.209E-03-0.949E-04
CGA:   8    -0.152613670727E+04   -0.51562E-04   -0.48640E-04   624   0.107E-03-0.294E-04
CGA:   9    -0.152613673366E+04   -0.26397E-04   -0.27172E-04   624   0.498E-04 0.587E-05
CGA:  10    -0.152613675719E+04   -0.23523E-04   -0.23942E-04   624   0.526E-04-0.110E-04
CGA:  11    -0.152613630144E+04    0.45574E-03   -0.24548E-03   624   0.223E-02-0.254E-03
CGA:  12    -0.152613670871E+04   -0.40727E-03   -0.43918E-03   624   0.500E-03 0.631E-04
CGA:  13    -0.152613684281E+04   -0.13410E-03   -0.13801E-03   624   0.187E-03 0.100E-04
CGA:  14    -0.152613688196E+04   -0.39148E-04   -0.47398E-04   624   0.326E-04 0.184E-04
CGA:  15    -0.152613689236E+04   -0.10407E-04   -0.11638E-04   624   0.893E-05 0.339E-05
CGA:  16    -0.152613689227E+04    0.90484E-07   -0.19460E-05   624   0.404E-05 0.431E-05
  47 F= -.15261369E+04 E0= -.15261369E+04  d E =-.893518E-02  mag=    16.0000
       N       E                     dE             d eps       ncg     rms          ort
SDA:   1    -0.152604835704E+04    0.88535E-01    0.00000E+00   624   0.263E+00 0.000E+00
CGA:   2    -0.152611264221E+04   -0.64285E-01   -0.64203E-01   624   0.111E+00-0.186E-03
CGA:   3    -0.152613683406E+04   -0.24192E-01   -0.24157E-01   624   0.254E-01-0.136E-03
CGA:   4    -0.152614131893E+04   -0.44849E-02   -0.45219E-02   624   0.479E-02 0.951E-04
CGA:   5    -0.152614227818E+04   -0.95925E-03   -0.98051E-03   624   0.115E-02 0.595E-04
CGA:   6    -0.152614257984E+04   -0.30166E-03   -0.29058E-03   624   0.384E-03-0.378E-04
CGA:   7    -0.152614270970E+04   -0.12986E-03   -0.11839E-03   624   0.177E-03-0.545E-04
CGA:   8    -0.152614276618E+04   -0.56478E-04   -0.53323E-04   624   0.906E-04-0.189E-04
CGA:   9    -0.152614279306E+04   -0.26877E-04   -0.27106E-04   624   0.418E-04 0.116E-05
CGA:  10    -0.152614281678E+04   -0.23716E-04   -0.26515E-04   624   0.817E-04-0.227E-04
CGA:  11    -0.152614283545E+04   -0.18675E-04   -0.17839E-04   624   0.267E-04-0.270E-05
CGA:  12    -0.152614284695E+04   -0.11502E-04   -0.10851E-04   624   0.382E-04-0.880E-05
CGA:  13    -0.152614286146E+04   -0.14506E-04   -0.16203E-04   624   0.547E-04-0.123E-04
CGA:  14    -0.152614287718E+04   -0.15720E-04   -0.16014E-04   624   0.365E-04 0.365E-05
CGA:  15    -0.152614289729E+04   -0.20110E-04   -0.20293E-04   624   0.517E-04-0.715E-05
CGA:  16    -0.152614290917E+04   -0.11882E-04   -0.11444E-04   624   0.344E-04-0.248E-05
CGA:  17    -0.152614292430E+04   -0.15129E-04   -0.26746E-04   624   0.979E-04-0.360E-04
CGA:  18    -0.152614294694E+04   -0.22639E-04   -0.21529E-04   624   0.258E-04-0.362E-05
CGA:  19    -0.152614294752E+04   -0.58532E-06   -0.36180E-05   624   0.530E-05 0.897E-05
  48 F= -.15261429E+04 E0= -.15261429E+04  d E =-.605525E-02  mag=    16.0000
       N       E                     dE             d eps       ncg     rms          ort
SDA:   1    -0.152598096903E+04    0.16198E+00    0.00000E+00   624   0.468E+00 0.000E+00
CGA:   2    -0.152609330711E+04   -0.11234E+00   -0.11244E+00   624   0.195E+00 0.539E-03
CGA:   3    -0.152613651240E+04   -0.43205E-01   -0.43120E-01   624   0.448E-01-0.445E-03
CGA:   4    -0.152614440034E+04   -0.78879E-02   -0.78387E-02   624   0.789E-02-0.187E-03
CGA:   5    -0.152614602840E+04   -0.16281E-02   -0.16197E-02   624   0.192E-02-0.392E-04
CGA:   6    -0.152614649185E+04   -0.46345E-03   -0.45805E-03   624   0.574E-03-0.323E-04
CGA:   7    -0.152614665548E+04   -0.16363E-03   -0.16108E-03   624   0.214E-03-0.227E-04
CGA:   8    -0.152614674157E+04   -0.86096E-04   -0.87922E-04   624   0.167E-03-0.538E-04
CGA:   9    -0.152614678941E+04   -0.47842E-04   -0.47333E-04   624   0.963E-04-0.318E-04
CGA:  10    -0.152614679629E+04   -0.68736E-05   -0.66757E-04   624   0.429E-03-0.130E-03
CGA:  11    -0.152614685730E+04   -0.61014E-04   -0.72182E-04   624   0.773E-04 0.462E-04
CGA:  12    -0.152614688700E+04   -0.29704E-04   -0.28535E-04   624   0.506E-04-0.162E-04
CGA:  13    -0.152614689578E+04   -0.87765E-05   -0.10695E-04   624   0.281E-04 0.144E-04
CGA:  14    -0.152614690470E+04   -0.89181E-05   -0.10074E-04   624   0.155E-04 0.999E-05
CGA:  15    -0.152614690504E+04   -0.34564E-06   -0.20585E-04   624   0.171E-03-0.342E-04
CGA:  16    -0.152614692004E+04   -0.15000E-04   -0.23373E-04   624   0.284E-04 0.307E-04
CGA:  17    -0.152614693113E+04   -0.11086E-04   -0.10966E-04   624   0.130E-04-0.160E-05
CGA:  18    -0.152614694399E+04   -0.12855E-04    0.79430E-05   624   0.309E-04-0.725E-05
CGA:  19    -0.152614694384E+04    0.14443E-06   -0.32232E-05   624   0.735E-05 0.115E-04
  49 F= -.15261469E+04 E0= -.15261469E+04  d E =-.399632E-02  mag=    16.0000
       N       E                     dE             d eps       ncg     rms          ort
SDA:   1    -0.152569476076E+04    0.45218E+00    0.00000E+00   624   0.120E+01 0.000E+00
CGA:   2    -0.152602236780E+04   -0.32761E+00   -0.32780E+00   624   0.479E+00 0.209E-02
CGA:   3    -0.152612292027E+04   -0.10055E+00   -0.10033E+00   624   0.102E+00-0.137E-02
CGA:   4    -0.152614134732E+04   -0.18427E-01   -0.18316E-01   624   0.189E-01-0.625E-03
CGA:   5    -0.152614525720E+04   -0.39099E-02   -0.38912E-02   624   0.453E-02-0.128E-03
CGA:   6    -0.152614631971E+04   -0.10625E-02   -0.10622E-02   624   0.129E-02-0.261E-05
CGA:   7    -0.152614667434E+04   -0.35463E-03   -0.35566E-03   624   0.472E-03 0.164E-04
CGA:   8    -0.152614686552E+04   -0.19118E-03   -0.19783E-03   624   0.331E-03-0.838E-04
CGA:   9    -0.152614695968E+04   -0.94160E-04   -0.94502E-04   624   0.166E-03-0.421E-04
CGA:  10    -0.152614701174E+04   -0.52062E-04   -0.80166E-04   624   0.312E-03-0.131E-03
CGA:  11    -0.152614705205E+04   -0.40309E-04   -0.48452E-04   624   0.615E-04 0.429E-04
CGA:  12    -0.152614707837E+04   -0.26319E-04   -0.26721E-04   624   0.494E-04-0.970E-05
CGA:  13    -0.152614710290E+04   -0.24530E-04   -0.30390E-04   624   0.698E-04-0.154E-04
CGA:  14    -0.152614711691E+04   -0.14009E-04   -0.14087E-04   624   0.471E-04 0.781E-06
CGA:  15    -0.152614708295E+04    0.33964E-04   -0.56199E-04   624   0.452E-03-0.111E-03
CGA:  16    -0.152614716868E+04   -0.85733E-04   -0.95652E-04   624   0.860E-04 0.538E-04
CGA:  17    -0.152614720160E+04   -0.32917E-04   -0.30807E-04   624   0.561E-04-0.298E-04
CGA:  18    -0.152614720441E+04   -0.28183E-05   -0.57709E-05   624   0.248E-04 0.130E-04
  50 F= -.15261472E+04 E0= -.15261472E+04  d E =-.260574E-03  mag=    16.0000
       N       E                     dE             d eps       ncg     rms          ort
SDA:   1    -0.152556442749E+04    0.58277E+00    0.00000E+00   624   0.143E+01 0.000E+00
CGA:   2    -0.152602080415E+04   -0.45638E+00   -0.45649E+00   624   0.459E+00 0.306E-02
CGA:   3    -0.152611908321E+04   -0.98279E-01   -0.97962E-01   624   0.945E-01-0.223E-02
CGA:   4    -0.152613636069E+04   -0.17277E-01   -0.17259E-01   624   0.185E-01-0.580E-04
CGA:   5    -0.152614028591E+04   -0.39252E-02   -0.39090E-02   624   0.448E-02-0.119E-03
CGA:   6    -0.152614135923E+04   -0.10733E-02   -0.10743E-02   624   0.129E-02 0.964E-05
CGA:   7    -0.152614170727E+04   -0.34804E-03   -0.35115E-03   624   0.511E-03 0.507E-04
CGA:   8    -0.152614191800E+04   -0.21073E-03   -0.22187E-03   624   0.412E-03-0.127E-03
CGA:   9    -0.152614198809E+04   -0.70086E-04   -0.72513E-04   624   0.157E-03 0.245E-04
CGA:  10    -0.152614204024E+04   -0.52156E-04   -0.51646E-04   624   0.890E-04-0.277E-04
CGA:  11    -0.152614204255E+04   -0.23062E-05   -0.58380E-04   624   0.398E-03-0.121E-03
CGA:  12    -0.152614208744E+04   -0.44886E-04   -0.60337E-04   624   0.734E-04 0.785E-04
CGA:  13    -0.152614211665E+04   -0.29215E-04   -0.29130E-04   624   0.352E-04-0.785E-05
CGA:  14    -0.152614212964E+04   -0.12986E-04   -0.18175E-04   624   0.677E-04-0.221E-04
CGA:  15    -0.152614213266E+04   -0.30277E-05   -0.88154E-05   624   0.182E-04 0.261E-04
  51 F= -.15261421E+04 E0= -.15261421E+04  d E =0.507175E-02  mag=    16.0000
       N       E                     dE             d eps       ncg     rms          ort
SDA:   1    -0.152611144148E+04    0.30688E-01    0.00000E+00   624   0.784E-01 0.000E+00
CGA:   2    -0.152613502546E+04   -0.23584E-01   -0.23591E-01   624   0.322E-01 0.210E-03
CGA:   3    -0.152614145247E+04   -0.64270E-02   -0.64255E-02   624   0.650E-02-0.735E-05
CGA:   4    -0.152614274425E+04   -0.12918E-02   -0.12606E-02   624   0.144E-02-0.232E-03
CGA:   5    -0.152614304406E+04   -0.29981E-03   -0.29326E-03   624   0.375E-03-0.605E-04
CGA:   6    -0.152614312155E+04   -0.77490E-04   -0.79610E-04   624   0.102E-03 0.229E-04
CGA:   7    -0.152614314902E+04   -0.27471E-04   -0.28054E-04   624   0.369E-04 0.117E-04
CGA:   8    -0.152614316280E+04   -0.13784E-04   -0.13732E-04   624   0.199E-04 0.193E-05
CGA:   9    -0.152614302679E+04    0.13601E-03   -0.73239E-04   624   0.731E-03-0.105E-03
CGA:  10    -0.152614313652E+04   -0.10973E-03   -0.12407E-03   624   0.103E-03 0.379E-04
CGA:  11    -0.152614316725E+04   -0.30729E-04   -0.31262E-04   624   0.481E-04 0.233E-05
CGA:  12    -0.152614317870E+04   -0.11451E-04   -0.13601E-04   624   0.181E-04 0.857E-05
CGA:  13    -0.152614318969E+04   -0.10989E-04   -0.10962E-04   624   0.130E-04-0.759E-05
CGA:  14    -0.152614319164E+04   -0.19470E-05   -0.18650E-05   624   0.632E-05-0.300E-06
  52 F= -.15261432E+04 E0= -.15261432E+04  d E =-.105897E-02  mag=    16.0000
       N       E                     dE             d eps       ncg     rms          ort
SDA:   1    -0.152613328430E+04    0.99054E-02    0.00000E+00   624   0.280E-01 0.000E+00
CGA:   2    -0.152614054293E+04   -0.72586E-02   -0.72353E-02   624   0.121E-01-0.101E-03
CGA:   3    -0.152614303244E+04   -0.24895E-02   -0.25174E-02   624   0.254E-02 0.106E-03
CGA:   4    -0.152614349210E+04   -0.45966E-03   -0.46084E-03   624   0.477E-03 0.492E-05
CGA:   5    -0.152614359005E+04   -0.97950E-04   -0.98359E-04   624   0.116E-03 0.172E-05
CGA:   6    -0.152614361782E+04   -0.27774E-04   -0.27799E-04   624   0.344E-04 0.139E-06
CGA:   7    -0.152614362924E+04   -0.11415E-04   -0.10947E-04   624   0.161E-04-0.436E-05
CGA:   8    -0.152614363059E+04   -0.13477E-05   -0.26396E-05   624   0.588E-05 0.556E-05
  53 F= -.15261436E+04 E0= -.15261436E+04  d E =-.438949E-03  mag=    16.0000
       N       E                     dE             d eps       ncg     rms          ort
SDA:   1    -0.152605317856E+04    0.90451E-01    0.00000E+00   624   0.221E+00 0.000E+00
CGA:   2    -0.152611991354E+04   -0.66735E-01   -0.66770E-01   624   0.914E-01 0.388E-03
CGA:   3    -0.152613798638E+04   -0.18073E-01   -0.18051E-01   624   0.166E-01-0.777E-04
CGA:   4    -0.152614106948E+04   -0.30831E-02   -0.30494E-02   624   0.340E-02-0.165E-03
CGA:   5    -0.152614177353E+04   -0.70405E-03   -0.70141E-03   624   0.812E-03-0.156E-04
CGA:   6    -0.152614196606E+04   -0.19253E-03   -0.19215E-03   624   0.222E-03-0.291E-05
CGA:   7    -0.152614202983E+04   -0.63768E-04   -0.63279E-04   624   0.884E-04-0.672E-05
CGA:   8    -0.152614205501E+04   -0.25183E-04   -0.25558E-04   624   0.345E-04 0.655E-05
CGA:   9    -0.152614205713E+04   -0.21141E-05   -0.32625E-04   624   0.173E-03-0.578E-04
CGA:  10    -0.152614207489E+04   -0.17762E-04   -0.25401E-04   624   0.238E-04 0.333E-04
CGA:  11    -0.152614208474E+04   -0.98553E-05   -0.95386E-05   624   0.154E-04-0.103E-04
  54 F= -.15261421E+04 E0= -.15261421E+04  d E =0.154584E-02  mag=    16.0000
       N       E                     dE             d eps       ncg     rms          ort
SDA:   1    -0.152569102507E+04    0.45105E+00    0.00000E+00   624   0.109E+01 0.000E+00
CGA:   2    -0.152603229156E+04   -0.34127E+00   -0.34135E+00   624   0.427E+00 0.216E-02
CGA:   3    -0.152611621914E+04   -0.83928E-01   -0.83761E-01   624   0.764E-01-0.725E-03
CGA:   4    -0.152613035524E+04   -0.14136E-01   -0.14021E-01   624   0.161E-01-0.694E-03
CGA:   5    -0.152613366514E+04   -0.33099E-02   -0.33034E-02   624   0.377E-02-0.479E-04
CGA:   6    -0.152613453634E+04   -0.87120E-03   -0.87490E-03   624   0.977E-03 0.380E-04
CGA:   7    -0.152613481430E+04   -0.27796E-03   -0.27760E-03   624   0.384E-03-0.793E-05
CGA:   8    -0.152613493458E+04   -0.12028E-03   -0.12035E-03   624   0.168E-03 0.799E-05
CGA:   9    -0.152613500117E+04   -0.66596E-04   -0.98787E-04   624   0.292E-03-0.128E-03
CGA:  10    -0.152613503053E+04   -0.29355E-04   -0.40391E-04   624   0.433E-04 0.567E-04
CGA:  11    -0.152613504527E+04   -0.14743E-04   -0.14634E-04   624   0.225E-04-0.259E-05
CGA:  12    -0.152613505310E+04   -0.78301E-05   -0.15753E-04   624   0.759E-04-0.191E-04
CGA:  13    -0.152613506008E+04   -0.69784E-05   -0.11012E-04   624   0.175E-04 0.204E-04
CGA:  14    -0.152613506899E+04   -0.89070E-05   -0.11707E-04   624   0.296E-04-0.146E-04
  55 F= -.15261351E+04 E0= -.15261351E+04  d E =0.701575E-02  mag=    16.0000
       N       E                     dE             d eps       ncg     rms          ort
SDA:   1    -0.152540538747E+04    0.72967E+00    0.00000E+00   624   0.175E+01 0.000E+00
CGA:   2    -0.152596016182E+04   -0.55477E+00   -0.55485E+00   624   0.684E+00 0.315E-02
CGA:   3    -0.152609461039E+04   -0.13445E+00   -0.13419E+00   624   0.121E+00-0.123E-02
CGA:   4    -0.152611710383E+04   -0.22493E-01   -0.22329E-01   624   0.254E-01-0.108E-02
CGA:   5    -0.152612232903E+04   -0.52252E-02   -0.52222E-02   624   0.599E-02-0.212E-04
CGA:   6    -0.152612372207E+04   -0.13930E-02   -0.13958E-02   624   0.159E-02 0.318E-04
CGA:   7    -0.152612418557E+04   -0.46351E-03   -0.46210E-03   624   0.658E-03-0.554E-04
CGA:   8    -0.152612439392E+04   -0.20835E-03   -0.20864E-03   624   0.313E-03-0.192E-04
CGA:   9    -0.152612450118E+04   -0.10726E-03   -0.17929E-03   624   0.621E-03-0.262E-03
CGA:  10    -0.152612456936E+04   -0.68174E-04   -0.86261E-04   624   0.909E-04 0.980E-04
CGA:  11    -0.152612460328E+04   -0.33920E-04   -0.33978E-04   624   0.560E-04-0.145E-04
CGA:  12    -0.152612461861E+04   -0.15332E-04   -0.38045E-04   624   0.179E-03-0.471E-04
CGA:  13    -0.152612464669E+04   -0.28083E-04   -0.32709E-04   624   0.434E-04 0.292E-04
CGA:  14    -0.152612452302E+04    0.12367E-03   -0.72226E-04   624   0.913E-03-0.179E-03
CGA:  15    -0.152612464278E+04   -0.11976E-03   -0.14722E-03   624   0.180E-03 0.125E-03
CGA:  16    -0.152612470633E+04   -0.63550E-04   -0.61750E-04   624   0.343E-04-0.231E-04
CGA:  17    -0.152612471649E+04   -0.10162E-04   -0.10162E-04   624   0.126E-04-0.281E-07
CGA:  18    -0.152612472775E+04   -0.11260E-04    0.11976E-04   624   0.116E-04 0.338E-05
CGA:  19    -0.152612474013E+04   -0.12378E-04    0.22328E-04   624   0.843E-05 0.565E-05
CGA:  20    -0.152612475202E+04   -0.11888E-04    0.85648E-05   624   0.668E-05 0.837E-05
CGA:  21    -0.152612475750E+04   -0.54821E-05    0.12440E-04   624   0.470E-05 0.191E-05
  56 F= -.15261248E+04 E0= -.15261248E+04  d E =0.103115E-01  mag=    16.0000
       N       E                     dE             d eps       ncg     rms          ort
SDA:   1    -0.152604449571E+04    0.80256E-01    0.00000E+00   624   0.210E+00 0.000E+00
CGA:   2    -0.152610205517E+04   -0.57559E-01   -0.57631E-01   624   0.853E-01 0.691E-03
CGA:   3    -0.152611990520E+04   -0.17850E-01   -0.17786E-01   624   0.183E-01-0.347E-03
CGA:   4    -0.152612320125E+04   -0.32961E-02   -0.33150E-02   624   0.345E-02 0.107E-03
CGA:   5    -0.152612393023E+04   -0.72897E-03   -0.72623E-03   624   0.857E-03-0.176E-04
CGA:   6    -0.152612413612E+04   -0.20590E-03   -0.20547E-03   624   0.265E-03-0.364E-05
CGA:   7    -0.152612420609E+04   -0.69966E-04   -0.70685E-04   624   0.992E-04 0.873E-05
CGA:   8    -0.152612424853E+04   -0.42446E-04   -0.46278E-04   624   0.101E-03-0.364E-04
CGA:   9    -0.152612425471E+04   -0.61800E-05   -0.98296E-05   624   0.482E-04 0.185E-04
  57 F= -.15261243E+04 E0= -.15261243E+04  d E =0.502785E-03  mag=    16.0000
       N       E                     dE             d eps       ncg     rms          ort
SDA:   1    -0.152611514857E+04    0.91000E-02    0.00000E+00   624   0.234E-01 0.000E+00
CGA:   2    -0.152612188929E+04   -0.67407E-02   -0.67612E-02   624   0.934E-02 0.480E-03
CGA:   3    -0.152612391550E+04   -0.20262E-02   -0.20032E-02   624   0.213E-02-0.189E-03
CGA:   4    -0.152612431009E+04   -0.39459E-03   -0.39222E-03   624   0.421E-03-0.164E-04
CGA:   5    -0.152612440908E+04   -0.98990E-04   -0.95706E-04   624   0.131E-03-0.372E-04
CGA:   6    -0.152612443433E+04   -0.25249E-04   -0.26093E-04   624   0.365E-04 0.888E-05
CGA:   7    -0.152612444094E+04   -0.66097E-05   -0.78711E-05   624   0.122E-04 0.119E-04
  58 F= -.15261244E+04 E0= -.15261244E+04  d E =-.186222E-03  mag=    16.0000
