       N       E                     dE             d eps       ncg     rms          ort
DAV:   1     0.248410301966E+04    0.24841E+04   -0.14136E+05 10584   0.156E+03
DAV:   2    -0.172027700025E+03   -0.26561E+04   -0.24855E+04 10584   0.415E+02
DAV:   3    -0.444644395292E+03   -0.27262E+03   -0.26850E+03 10584   0.150E+02
DAV:   4    -0.453108554843E+03   -0.84642E+01   -0.83453E+01 10584   0.252E+01
DAV:   5    -0.453392989988E+03   -0.28444E+00   -0.28357E+00 10584   0.386E+00
SDA:   6    -0.278500229936E+03    0.17489E+03   -0.28357E+00 10584   0.400E+03 0.000E+00
CGA:   7    -0.326630794586E+03   -0.48131E+02   -0.43710E+02 10584   0.353E+03-0.968E+02
CGA:   8    -0.328450760042E+03   -0.18200E+01   -0.16646E+02 10584   0.446E+03-0.232E+03
CGA:   9    -0.334117515931E+03   -0.56668E+01   -0.39403E+02 10584   0.318E+03-0.131E+03
CGA:  10    -0.334313588260E+03   -0.19607E+00   -0.18796E+02 10584   0.103E+03-0.528E+02
CGA:  11    -0.340537044550E+03   -0.62235E+01   -0.53012E+01 10584   0.103E+03-0.109E+03
CGA:  12    -0.337272985665E+03    0.32641E+01   -0.72195E+01 10584   0.975E+02-0.232E+02
CGA:  13    -0.343315808813E+03   -0.60428E+01   -0.50435E+01 10584   0.103E+03-0.902E+02
CGA:  14    -0.343295830727E+03    0.19978E-01   -0.66972E+01 10584   0.124E+03-0.566E+02
CGA:  15    -0.346574243968E+03   -0.32784E+01   -0.75754E+01 10584   0.720E+01-0.597E+01
CGA:  16    -0.346805965932E+03   -0.23172E+00   -0.12825E+00 10584   0.530E+01 0.566E+01
CGA:  17    -0.346953639905E+03   -0.14767E+00   -0.77121E-01 10584   0.458E+01 0.494E+01
CGA:  18    -0.347077179544E+03   -0.12354E+00   -0.62597E-01 10584   0.412E+01 0.446E+01
CGA:  19    -0.347191155770E+03   -0.11398E+00   -0.56956E-01 10584   0.382E+01 0.418E+01
CGA:  20    -0.347311503261E+03   -0.12035E+00   -0.60062E-01 10584   0.338E+01 0.386E+01
CGA:  21    -0.347454520256E+03   -0.14302E+00   -0.75569E-01 10584   0.234E+01 0.296E+01
CGA:  22    -0.347643633789E+03   -0.18911E+00   -0.14367E+00 10584   0.239E+01 0.434E+00
CGA:  23    -0.348007762188E+03   -0.36413E+00   -0.37287E+00 10584   0.444E+01-0.306E+00
CGA:  24    -0.348339722383E+03   -0.33196E+00   -0.33794E+00 10584   0.274E+01 0.572E-01
CGA:  25    -0.348495297679E+03   -0.15558E+00   -0.18776E+00 10584   0.470E+00-0.524E-01
CGA:  26    -0.348551107704E+03   -0.55810E-01   -0.55209E-01 10584   0.215E+00 0.341E-01
CGA:  27    -0.348601880255E+03   -0.50773E-01   -0.51364E-01 10584   0.990E-01-0.534E-02
CGA:  28    -0.348622798801E+03   -0.20919E-01   -0.22673E-01 10584   0.623E-01-0.148E-01
CGA:  29    -0.348633528511E+03   -0.10730E-01   -0.11497E-01 10584   0.282E-01-0.816E-02
CGA:  30    -0.348638681556E+03   -0.51530E-02   -0.48386E-02 10584   0.146E-01 0.451E-02
CGA:  31    -0.348641135557E+03   -0.24540E-02   -0.24019E-02 10584   0.453E-02 0.484E-02
CGA:  32    -0.348642239258E+03   -0.11037E-02   -0.10406E-02 10584   0.243E-02 0.155E-02
CGA:  33    -0.348642997077E+03   -0.75782E-03   -0.12772E-02 10584   0.204E-02-0.202E-02
CGA:  34    -0.348643440491E+03   -0.44341E-03   -0.41650E-03 10584   0.360E-03 0.471E-03
CGA:  35    -0.348643595306E+03   -0.15481E-03   -0.19131E-03 10584   0.222E-03-0.129E-03
CGA:  36    -0.348643647359E+03   -0.52053E-04    0.10249E-03 10584   0.107E-03 0.333E-04
CGA:  37    -0.348643696381E+03   -0.49022E-04    0.46585E-04 10584   0.480E-04 0.324E-04
CGA:  38    -0.348643717247E+03   -0.20866E-04    0.27508E-03 10584   0.201E-04 0.197E-04
CGA:  39    -0.348643716429E+03    0.81793E-06   -0.15923E-05 10584   0.149E-04 0.224E-04
   1 F= -.34864372E+03 E0= -.34864372E+03  d E =-.348644E+03  mag=    18.0000
       N       E                     dE             d eps       ncg     rms          ort
SDA:   1    -0.348702692205E+03   -0.58975E-01    0.00000E+00 10584   0.103E-01 0.000E+00
CGA:   2    -0.348705004245E+03   -0.23120E-02   -0.22494E-02 10584   0.215E-02 0.952E-03
CGA:   3    -0.348705693560E+03   -0.68931E-03   -0.71349E-03 10584   0.834E-03-0.162E-03
CGA:   4    -0.348705839700E+03   -0.14614E-03   -0.15002E-03 10584   0.321E-03-0.122E-03
CGA:   5    -0.348705878747E+03   -0.39046E-04   -0.39840E-04 10584   0.789E-04 0.417E-04
CGA:   6    -0.348705889621E+03   -0.10874E-04   -0.11882E-04 10584   0.357E-04 0.335E-04
CGA:   7    -0.348705899586E+03   -0.99653E-05   -0.96988E-05 10584   0.174E-04 0.923E-05
   2 F= -.34870590E+03 E0= -.34870590E+03  d E =-.621832E-01  mag=    18.0000
       N       E                     dE             d eps       ncg     rms          ort
SDA:   1    -0.346375509993E+03    0.23304E+01    0.00000E+00 10584   0.124E+02 0.000E+00
CGA:   2    -0.349402535911E+03   -0.30270E+01   -0.30278E+01 10584   0.289E+01-0.207E-01
CGA:   3    -0.350167024806E+03   -0.76449E+00   -0.76633E+00 10584   0.811E+00-0.231E-01
CGA:   4    -0.350324337287E+03   -0.15731E+00   -0.15735E+00 10584   0.264E+00-0.342E-02
CGA:   5    -0.350373241598E+03   -0.48904E-01   -0.48904E-01 10584   0.809E-01 0.813E-03
CGA:   6    -0.350393239762E+03   -0.19998E-01   -0.19923E-01 10584   0.395E-01 0.126E-02
CGA:   7    -0.350403829152E+03   -0.10589E-01   -0.10570E-01 10584   0.185E-01 0.248E-03
CGA:   8    -0.350409175028E+03   -0.53459E-02   -0.53455E-02 10584   0.707E-02 0.112E-05
CGA:   9    -0.350411075505E+03   -0.19005E-02   -0.18891E-02 10584   0.230E-02 0.160E-03
CGA:  10    -0.350411777281E+03   -0.70178E-03   -0.70320E-03 10584   0.811E-03-0.147E-04
CGA:  11    -0.350412033288E+03   -0.25601E-03   -0.25442E-03 10584   0.312E-03 0.143E-04
CGA:  12    -0.350412129406E+03   -0.96118E-04   -0.92139E-04 10584   0.102E-03 0.498E-04
CGA:  13    -0.350412171220E+03   -0.41814E-04   -0.68954E-04 10584   0.143E-03-0.739E-04
CGA:  14    -0.350412189880E+03   -0.18660E-04   -0.21933E-04 10584   0.244E-04 0.409E-04
CGA:  15    -0.350412195844E+03   -0.59640E-05   -0.61252E-05 10584   0.565E-05 0.473E-05
   3 F= -.35041220E+03 E0= -.35041220E+03  d E =-.170630E+01  mag=    18.0000
       N       E                     dE             d eps       ncg     rms          ort
SDA:   1    -0.342037348947E+03    0.83748E+01    0.00000E+00 10584   0.307E+02 0.000E+00
CGA:   2    -0.349366306850E+03   -0.73290E+01   -0.73284E+01 10584   0.710E+01-0.310E-01
CGA:   3    -0.351150730984E+03   -0.17844E+01   -0.17857E+01 10584   0.228E+01-0.507E-01
CGA:   4    -0.351556498945E+03   -0.40577E+00   -0.40556E+00 10584   0.664E+00-0.618E-02
CGA:   5    -0.351684518223E+03   -0.12802E+00   -0.12808E+00 10584   0.200E+00 0.169E-02
CGA:   6    -0.351732533282E+03   -0.48015E-01   -0.47982E-01 10584   0.975E-01 0.208E-02
CGA:   7    -0.351758691936E+03   -0.26159E-01   -0.26147E-01 10584   0.450E-01 0.252E-03
CGA:   8    -0.351771790901E+03   -0.13099E-01   -0.13113E-01 10584   0.182E-01-0.214E-03
CGA:   9    -0.351776665353E+03   -0.48745E-02   -0.48680E-02 10584   0.601E-02 0.178E-03
CGA:  10    -0.351778430628E+03   -0.17653E-02   -0.17617E-02 10584   0.205E-02 0.637E-04
CGA:  11    -0.351779108725E+03   -0.67810E-03   -0.69278E-03 10584   0.978E-03-0.147E-03
CGA:  12    -0.351779358144E+03   -0.24942E-03   -0.24642E-03 10584   0.377E-03 0.962E-04
CGA:  13    -0.351779498164E+03   -0.14002E-03   -0.15108E-03 10584   0.256E-03-0.895E-04
CGA:  14    -0.351779540889E+03   -0.42724E-04   -0.43002E-04 10584   0.955E-04 0.105E-04
CGA:  15    -0.351779566077E+03   -0.25188E-04   -0.25186E-04 10584   0.341E-04 0.360E-06
CGA:  16    -0.351779571562E+03   -0.54849E-05   -0.60712E-05 10584   0.145E-04 0.842E-05
   4 F= -.35177957E+03 E0= -.35177957E+03  d E =-.136738E+01  mag=    18.0000
       N       E                     dE             d eps       ncg     rms          ort
SDA:   1    -0.346783802901E+03    0.49958E+01    0.00000E+00 10584   0.174E+02 0.000E+00
CGA:   2    -0.350828688488E+03   -0.40449E+01   -0.40451E+01 10584   0.435E+01 0.217E-01
CGA:   3    -0.351873854269E+03   -0.10452E+01   -0.10453E+01 10584   0.159E+01-0.216E-01
CGA:   4    -0.352141381963E+03   -0.26753E+00   -0.26733E+00 10584   0.389E+00-0.535E-02
CGA:   5    -0.352215495023E+03   -0.74113E-01   -0.74185E-01 10584   0.111E+00 0.176E-02
CGA:   6    -0.352239879093E+03   -0.24384E-01   -0.24415E-01 10584   0.481E-01 0.258E-02
CGA:   7    -0.352253071508E+03   -0.13192E-01   -0.13170E-01 10584   0.233E-01 0.592E-03
CGA:   8    -0.352260085187E+03   -0.70137E-02   -0.70330E-02 10584   0.113E-01-0.279E-03
CGA:   9    -0.352263141649E+03   -0.30565E-02   -0.30663E-02 10584   0.417E-02-0.241E-03
CGA:  10    -0.352264182787E+03   -0.10411E-02   -0.10371E-02 10584   0.138E-02 0.245E-03
CGA:  11    -0.352264615476E+03   -0.43269E-03   -0.44059E-03 10584   0.665E-03-0.123E-03
CGA:  12    -0.352264758843E+03   -0.14337E-03   -0.14371E-03 10584   0.249E-03 0.880E-04
CGA:  13    -0.352264857482E+03   -0.98639E-04   -0.11137E-03 10584   0.175E-03-0.825E-04
CGA:  14    -0.352264891222E+03   -0.33740E-04   -0.55881E-04 10584   0.140E-03-0.969E-04
CGA:  15    -0.352264923653E+03   -0.32431E-04   -0.32812E-04 10584   0.365E-04 0.152E-04
CGA:  16    -0.352264923485E+03    0.16777E-06   -0.37295E-05 10584   0.139E-04 0.234E-04
   5 F= -.35226492E+03 E0= -.35226492E+03  d E =-.485352E+00  mag=    18.0000
       N       E                     dE             d eps       ncg     rms          ort
SDA:   1    -0.345842234208E+03    0.64227E+01    0.00000E+00 10584   0.214E+02 0.000E+00
CGA:   2    -0.350725434866E+03   -0.48832E+01   -0.48858E+01 10584   0.586E+01 0.644E-01
CGA:   3    -0.352052714422E+03   -0.13273E+01   -0.13265E+01 10584   0.230E+01-0.241E-01
CGA:   4    -0.352438182043E+03   -0.38547E+00   -0.38545E+00 10584   0.515E+00-0.576E-02
CGA:   5    -0.352534979762E+03   -0.96798E-01   -0.96816E-01 10584   0.148E+00 0.171E-03
CGA:   6    -0.352566022504E+03   -0.31043E-01   -0.31075E-01 10584   0.597E-01 0.131E-02
CGA:   7    -0.352581983931E+03   -0.15961E-01   -0.15959E-01 10584   0.289E-01 0.805E-04
CGA:   8    -0.352590188828E+03   -0.82049E-02   -0.81996E-02 10584   0.137E-01 0.127E-03
CGA:   9    -0.352593990968E+03   -0.38021E-02   -0.38136E-02 10584   0.534E-02-0.295E-03
CGA:  10    -0.352595276052E+03   -0.12851E-02   -0.12834E-02 10584   0.181E-02 0.321E-03
CGA:  11    -0.352595834667E+03   -0.55862E-03   -0.56945E-03 10584   0.855E-03-0.190E-03
CGA:  12    -0.352596015016E+03   -0.18035E-03   -0.18097E-03 10584   0.327E-03 0.894E-04
CGA:  13    -0.352596134695E+03   -0.11968E-03   -0.12588E-03 10584   0.178E-03-0.587E-04
CGA:  14    -0.352596175205E+03   -0.40510E-04   -0.40243E-04 10584   0.642E-04 0.101E-04
CGA:  15    -0.352596197602E+03   -0.22397E-04   -0.25603E-04 10584   0.363E-04-0.252E-04
CGA:  16    -0.352596198404E+03   -0.80170E-06   -0.25058E-05 10584   0.219E-04 0.120E-04
   6 F= -.35259620E+03 E0= -.35259620E+03  d E =-.331275E+00  mag=    18.0000
       N       E                     dE             d eps       ncg     rms          ort
SDA:   1    -0.337327844515E+03    0.15268E+02    0.00000E+00 10584   0.438E+02 0.000E+00
CGA:   2    -0.348062860074E+03   -0.10735E+02   -0.10728E+02 10584   0.156E+02 0.105E+01
CGA:   3    -0.351133044983E+03   -0.30702E+01   -0.25604E+01 10584   0.468E+01 0.213E+01
CGA:   4    -0.352210550523E+03   -0.10775E+01   -0.10779E+01 10584   0.115E+01-0.219E-02
CGA:   5    -0.352436028048E+03   -0.22548E+00   -0.22541E+00 10584   0.353E+00 0.214E-02
CGA:   6    -0.352505118150E+03   -0.69090E-01   -0.69142E-01 10584   0.134E+00-0.153E-03
CGA:   7    -0.352534996090E+03   -0.29878E-01   -0.29874E-01 10584   0.787E-01 0.438E-03
CGA:   8    -0.352550378232E+03   -0.15382E-01   -0.15423E-01 10584   0.462E-01-0.125E-02
CGA:   9    -0.352559543479E+03   -0.91652E-02   -0.91754E-02 10584   0.166E-01 0.651E-03
CGA:  10    -0.352563956755E+03   -0.44133E-02   -0.44328E-02 10584   0.665E-02-0.584E-03
CGA:  11    -0.352565179674E+03   -0.12229E-02   -0.12389E-02 10584   0.315E-02 0.454E-03
CGA:  12    -0.352565932104E+03   -0.75243E-03   -0.75013E-03 10584   0.164E-02-0.432E-03
CGA:  13    -0.352566175621E+03   -0.24352E-03   -0.25323E-03 10584   0.646E-03 0.200E-03
CGA:  14    -0.352566400861E+03   -0.22524E-03   -0.22813E-03 10584   0.309E-03-0.330E-04
CGA:  15    -0.352566502300E+03   -0.10144E-03   -0.10112E-03 10584   0.133E-03 0.244E-05
CGA:  16    -0.352566549705E+03   -0.47405E-04   -0.53167E-04 10584   0.806E-04-0.360E-04
CGA:  17    -0.352566552613E+03   -0.29075E-05   -0.66852E-05 10584   0.399E-04 0.290E-04
   7 F= -.35256655E+03 E0= -.35256655E+03  d E =0.296458E-01  mag=    18.0000
       N       E                     dE             d eps       ncg     rms          ort
SDA:   1    -0.350303762512E+03    0.22628E+01    0.00000E+00 10584   0.607E+01 0.000E+00
CGA:   2    -0.352166446464E+03   -0.18627E+01   -0.18627E+01 10584   0.243E+01-0.111E-02
CGA:   3    -0.352638358677E+03   -0.47191E+00   -0.47231E+00 10584   0.745E+00 0.179E-03
CGA:   4    -0.352761096263E+03   -0.12274E+00   -0.12270E+00 10584   0.171E+00 0.635E-03
CGA:   5    -0.352795258517E+03   -0.34162E-01   -0.34153E-01 10584   0.556E-01-0.875E-03
CGA:   6    -0.352806539507E+03   -0.11281E-01   -0.11293E-01 10584   0.193E-01 0.562E-03
CGA:   7    -0.352811778904E+03   -0.52394E-02   -0.52467E-02 10584   0.793E-02-0.178E-03
CGA:   8    -0.352813851650E+03   -0.20727E-02   -0.20751E-02 10584   0.313E-02-0.687E-04
CGA:   9    -0.352814711094E+03   -0.85944E-03   -0.85695E-03 10584   0.958E-03 0.538E-04
CGA:  10    -0.352815001529E+03   -0.29043E-03   -0.29523E-03 10584   0.344E-03-0.683E-04
CGA:  11    -0.352815080933E+03   -0.79404E-04   -0.79334E-04 10584   0.110E-03 0.575E-05
CGA:  12    -0.352814428543E+03    0.65239E-03   -0.35396E-03 10584   0.527E-02-0.646E-03
CGA:  13    -0.352814955250E+03   -0.52671E-03   -0.59185E-03 10584   0.667E-03 0.465E-03
CGA:  14    -0.352815119968E+03   -0.16472E-03   -0.16858E-03 10584   0.110E-03 0.209E-04
CGA:  15    -0.352815166626E+03   -0.46658E-04   -0.47786E-04 10584   0.260E-03-0.786E-04
CGA:  16    -0.352815169020E+03   -0.23937E-05   -0.21491E-04 10584   0.255E-04 0.623E-04
   8 F= -.35281517E+03 E0= -.35281517E+03  d E =-.248616E+00  mag=    18.0000
       N       E                     dE             d eps       ncg     rms          ort
SDA:   1    -0.352477266127E+03    0.33790E+00    0.00000E+00 10584   0.112E+01 0.000E+00
CGA:   2    -0.352749630106E+03   -0.27236E+00   -0.27224E+00 10584   0.351E+00-0.131E-02
CGA:   3    -0.352822444882E+03   -0.72815E-01   -0.72939E-01 10584   0.134E+00-0.706E-03
CGA:   4    -0.352844234787E+03   -0.21790E-01   -0.21937E-01 10584   0.269E-01 0.114E-02
CGA:   5    -0.352849450203E+03   -0.52154E-02   -0.51656E-02 10584   0.782E-02-0.345E-03
CGA:   6    -0.352851127735E+03   -0.16775E-02   -0.16466E-02 10584   0.288E-02-0.241E-03
CGA:   7    -0.352851881175E+03   -0.75344E-03   -0.74479E-03 10584   0.139E-02-0.125E-03
CGA:   8    -0.352852255927E+03   -0.37475E-03   -0.37257E-03 10584   0.657E-03-0.423E-04
CGA:   9    -0.352852397604E+03   -0.14168E-03   -0.14905E-03 10584   0.231E-03 0.769E-04
CGA:  10    -0.352852482857E+03   -0.85253E-04   -0.85930E-04 10584   0.198E-03-0.841E-04
CGA:  11    -0.352852490666E+03   -0.78081E-05   -0.14578E-04 10584   0.866E-04 0.325E-04
CGA:  12    -0.352852494563E+03   -0.38979E-05   -0.10177E-04 10584   0.387E-04 0.294E-04
   9 F= -.35285249E+03 E0= -.35285249E+03  d E =-.373255E-01  mag=    18.0000
       N       E                     dE             d eps       ncg     rms          ort
SDA:   1    -0.349744413767E+03    0.31081E+01    0.00000E+00 10584   0.810E+01 0.000E+00
CGA:   2    -0.352087731855E+03   -0.23433E+01   -0.23433E+01 10584   0.356E+01-0.306E-02
CGA:   3    -0.352706773147E+03   -0.61904E+00   -0.61947E+00 10584   0.916E+00 0.281E-02
CGA:   4    -0.352862681286E+03   -0.15591E+00   -0.15623E+00 10584   0.193E+00 0.238E-02
CGA:   5    -0.352897231433E+03   -0.34550E-01   -0.34551E-01 10584   0.533E-01-0.115E-03
CGA:   6    -0.352908125050E+03   -0.10894E-01   -0.10839E-01 10584   0.159E-01-0.716E-03
CGA:   7    -0.352911894452E+03   -0.37694E-02   -0.37596E-02 10584   0.607E-02-0.277E-03
CGA:   8    -0.352913453516E+03   -0.15591E-02   -0.15609E-02 10584   0.244E-02 0.145E-03
CGA:   9    -0.352914171863E+03   -0.71835E-03   -0.71640E-03 10584   0.903E-03 0.153E-03
CGA:  10    -0.352914470769E+03   -0.29891E-03   -0.30105E-03 10584   0.349E-03-0.549E-04
CGA:  11    -0.352914559961E+03   -0.89192E-04   -0.89219E-04 10584   0.105E-03 0.584E-05
CGA:  12    -0.352914597781E+03   -0.37820E-04   -0.47103E-04 10584   0.119E-03-0.567E-04
CGA:  13    -0.352914605593E+03   -0.78115E-05   -0.13495E-04 10584   0.254E-04 0.335E-04
  10 F= -.35291461E+03 E0= -.35291461E+03  d E =-.621110E-01  mag=    18.0000
       N       E                     dE             d eps       ncg     rms          ort
SDA:   1    -0.342908915680E+03    0.10006E+02    0.00000E+00 10584   0.239E+02 0.000E+00
CGA:   2    -0.350646227191E+03   -0.77373E+01   -0.77370E+01 10584   0.101E+02-0.324E-02
CGA:   3    -0.352321399014E+03   -0.16752E+01   -0.16723E+01 10584   0.234E+01 0.155E-01
CGA:   4    -0.352728490121E+03   -0.40709E+00   -0.40763E+00 10584   0.532E+00 0.853E-04
CGA:   5    -0.352828134059E+03   -0.99644E-01   -0.99628E-01 10584   0.157E+00-0.360E-03
CGA:   6    -0.352860035061E+03   -0.31901E-01   -0.31851E-01 10584   0.481E-01-0.914E-03
CGA:   7    -0.352871937914E+03   -0.11903E-01   -0.11899E-01 10584   0.195E-01-0.396E-03
CGA:   8    -0.352877093955E+03   -0.51560E-02   -0.51542E-02 10584   0.810E-02 0.223E-03
CGA:   9    -0.352879453465E+03   -0.23595E-02   -0.23617E-02 10584   0.323E-02-0.746E-04
CGA:  10    -0.352880182919E+03   -0.72945E-03   -0.73521E-03 10584   0.110E-02 0.198E-03
CGA:  11    -0.352880507691E+03   -0.32477E-03   -0.33239E-03 10584   0.590E-03-0.279E-03
CGA:  12    -0.352880586336E+03   -0.78645E-04   -0.80631E-04 10584   0.188E-03 0.272E-04
CGA:  13    -0.352880640588E+03   -0.54252E-04   -0.54620E-04 10584   0.957E-04-0.166E-04
CGA:  14    -0.352880620159E+03    0.20429E-04   -0.59016E-04 10584   0.720E-03-0.189E-03
CGA:  15    -0.352880668474E+03   -0.48315E-04   -0.71503E-04 10584   0.778E-04 0.138E-03
CGA:  16    -0.352880680622E+03   -0.12147E-04   -0.14772E-04 10584   0.371E-04 0.239E-04
CGA:  17    -0.352880651008E+03    0.29613E-04   -0.33809E-04 10584   0.386E-03-0.146E-03
CGA:  18    -0.352880676040E+03   -0.25032E-04   -0.42661E-04 10584   0.740E-04 0.103E-03
CGA:  19    -0.352880688287E+03   -0.12246E-04   -0.15349E-04 10584   0.256E-04 0.275E-04
CGA:  20    -0.352880629331E+03    0.58955E-04   -0.29424E-04 10584   0.617E-03-0.155E-03
CGA:  21    -0.352880671455E+03   -0.42124E-04   -0.64456E-04 10584   0.800E-04 0.123E-03
CGA:  22    -0.352880686774E+03   -0.15318E-04   -0.17699E-04 10584   0.381E-04 0.227E-04
CGA:  23    -0.352880650213E+03    0.36561E-04   -0.34324E-04 10584   0.490E-03-0.170E-03
CGA:  24    -0.352880678903E+03   -0.28690E-04   -0.51071E-04 10584   0.761E-04 0.117E-03
CGA:  25    -0.352880687620E+03   -0.87167E-05   -0.13918E-04 10584   0.380E-04 0.353E-04
CGA:  26    -0.352880703562E+03   -0.15942E-04   -0.15883E-04 10584   0.148E-04-0.311E-04
CGA:  27    -0.352880702636E+03    0.92613E-06   -0.10441E-05 10584   0.616E-05 0.910E-05
  11 F= -.35288070E+03 E0= -.35288070E+03  d E =0.339030E-01  mag=    18.0000
       N       E                     dE             d eps       ncg     rms          ort
SDA:   1    -0.350857567226E+03    0.20231E+01    0.00000E+00 10584   0.497E+01 0.000E+00
CGA:   2    -0.352550176587E+03   -0.16926E+01   -0.16933E+01 10584   0.173E+01-0.884E-02
CGA:   3    -0.352891437235E+03   -0.34126E+00   -0.34134E+00 10584   0.422E+00 0.869E-03
CGA:   4    -0.352960039671E+03   -0.68602E-01   -0.68700E-01 10584   0.101E+00 0.452E-03
CGA:   5    -0.352980543422E+03   -0.20504E-01   -0.20548E-01 10584   0.302E-01 0.756E-03
CGA:   6    -0.352986818137E+03   -0.62747E-02   -0.62736E-02 10584   0.110E-01-0.279E-04
CGA:   7    -0.352989618638E+03   -0.28005E-02   -0.28005E-02 10584   0.428E-02 0.234E-05
CGA:   8    -0.352990761589E+03   -0.11430E-02   -0.11415E-02 10584   0.176E-02 0.146E-03
CGA:   9    -0.352991256730E+03   -0.49514E-03   -0.49386E-03 10584   0.571E-03 0.917E-04
CGA:  10    -0.352991397703E+03   -0.14097E-03   -0.14278E-03 10584   0.170E-03 0.886E-04
CGA:  11    -0.352991459389E+03   -0.61686E-04   -0.68225E-04 10584   0.152E-03-0.720E-04
CGA:  12    -0.352991462803E+03   -0.34144E-05   -0.82570E-05 10584   0.785E-04 0.291E-04
  12 F= -.35299146E+03 E0= -.35299146E+03  d E =-.110760E+00  mag=    18.0000
       N       E                     dE             d eps       ncg     rms          ort
SDA:   1    -0.352781197758E+03    0.21026E+00    0.00000E+00 10584   0.583E+00 0.000E+00
CGA:   2    -0.352946187276E+03   -0.16499E+00   -0.16489E+00 10584   0.263E+00 0.244E-02
CGA:   3    -0.352992712443E+03   -0.46525E-01   -0.46530E-01 10584   0.722E-01-0.147E-03
CGA:   4    -0.353005350836E+03   -0.12638E-01   -0.12603E-01 10584   0.162E-01-0.529E-03
CGA:   5    -0.353008286558E+03   -0.29357E-02   -0.29249E-02 10584   0.472E-02-0.192E-03
CGA:   6    -0.353009205021E+03   -0.91846E-03   -0.92175E-03 10584   0.138E-02 0.831E-04
CGA:   7    -0.353009546003E+03   -0.34098E-03   -0.34057E-03 10584   0.533E-03 0.501E-04
CGA:   8    -0.353009705522E+03   -0.15952E-03   -0.16167E-03 10584   0.259E-03-0.375E-04
CGA:   9    -0.353009767630E+03   -0.62108E-04   -0.61819E-04 10584   0.879E-04 0.152E-04
CGA:  10    -0.353009781581E+03   -0.13951E-04   -0.54112E-04 10584   0.270E-03-0.117E-03
CGA:  11    -0.353009802569E+03   -0.20988E-04   -0.30129E-04 10584   0.395E-04 0.639E-04
CGA:  12    -0.353009812400E+03   -0.98311E-05   -0.97608E-05 10584   0.104E-04-0.144E-05
  13 F= -.35300981E+03 E0= -.35300981E+03  d E =-.183496E-01  mag=    18.0000
       N       E                     dE             d eps       ncg     rms          ort
SDA:   1    -0.352099066459E+03    0.91074E+00    0.00000E+00 10584   0.216E+01 0.000E+00
CGA:   2    -0.352859735161E+03   -0.76067E+00   -0.76068E+00 10584   0.729E+00-0.257E-03
CGA:   3    -0.352986917817E+03   -0.12718E+00   -0.12723E+00 10584   0.185E+00 0.953E-03
CGA:   4    -0.353017333072E+03   -0.30415E-01   -0.30353E-01 10584   0.401E-01-0.948E-03
CGA:   5    -0.353024933166E+03   -0.76001E-02   -0.76001E-02 10584   0.114E-01-0.966E-05
CGA:   6    -0.353027189847E+03   -0.22567E-02   -0.22564E-02 10584   0.336E-02-0.890E-05
CGA:   7    -0.353028024663E+03   -0.83482E-03   -0.83526E-03 10584   0.134E-02-0.452E-04
CGA:   8    -0.353028378833E+03   -0.35417E-03   -0.35277E-03 10584   0.563E-03 0.518E-04
CGA:   9    -0.353028557187E+03   -0.17835E-03   -0.18078E-03 10584   0.273E-03-0.356E-04
CGA:  10    -0.353028598838E+03   -0.41650E-04   -0.45301E-04 10584   0.842E-04 0.549E-04
CGA:  11    -0.353028627804E+03   -0.28966E-04   -0.41684E-04 10584   0.104E-03-0.742E-04
CGA:  12    -0.353028642961E+03   -0.15157E-04   -0.16758E-04 10584   0.109E-04 0.180E-04
CGA:  13    -0.353028650845E+03   -0.78838E-05    0.60382E-05 10584   0.509E-05-0.559E-06
  14 F= -.35302865E+03 E0= -.35302865E+03  d E =-.188384E-01  mag=    18.0000
       N       E                     dE             d eps       ncg     rms          ort
SDA:   1    -0.326183490780E+03    0.26845E+02    0.00000E+00 10584   0.634E+02 0.000E+00
CGA:   2    -0.348144587172E+03   -0.21961E+02   -0.21970E+02 10584   0.205E+02-0.544E-01
CGA:   3    -0.351795385789E+03   -0.36508E+01   -0.36490E+01 10584   0.522E+01 0.114E-01
CGA:   4    -0.352666505716E+03   -0.87112E+00   -0.87201E+00 10584   0.121E+01 0.779E-03
CGA:   5    -0.352901954914E+03   -0.23545E+00   -0.23545E+00 10584   0.367E+00-0.414E-03
CGA:   6    -0.352976848619E+03   -0.74894E-01   -0.74912E-01 10584   0.121E+00 0.481E-03
CGA:   7    -0.353007773612E+03   -0.30925E-01   -0.30920E-01 10584   0.496E-01 0.144E-03
CGA:   8    -0.353021842927E+03   -0.14069E-01   -0.14089E-01 10584   0.220E-01-0.401E-03
CGA:   9    -0.353027951130E+03   -0.61082E-02   -0.61025E-02 10584   0.726E-02 0.124E-03
CGA:  10    -0.353029853367E+03   -0.19022E-02   -0.18988E-02 10584   0.214E-02 0.159E-03
CGA:  11    -0.353030483902E+03   -0.63054E-03   -0.68330E-03 10584   0.146E-02-0.729E-03
CGA:  12    -0.353030633337E+03   -0.14943E-03   -0.14985E-03 10584   0.490E-03 0.106E-04
CGA:  13    -0.353030717659E+03   -0.84322E-04   -0.88266E-04 10584   0.253E-03 0.659E-04
CGA:  14    -0.353030785039E+03   -0.67380E-04   -0.67312E-04 10584   0.174E-03-0.931E-04
CGA:  15    -0.353030812443E+03   -0.27404E-04   -0.27601E-04 10584   0.105E-03-0.122E-04
CGA:  16    -0.353030833057E+03   -0.20614E-04   -0.20452E-04 10584   0.703E-04-0.599E-05
CGA:  17    -0.353030864544E+03   -0.31488E-04    0.73550E-03 10584   0.304E-04-0.160E-04
CGA:  18    -0.353030870825E+03   -0.62807E-05   -0.63507E-05 10584   0.162E-04-0.201E-05
  15 F= -.35303087E+03 E0= -.35303087E+03  d E =-.221998E-02  mag=    18.0000
       N       E                     dE             d eps       ncg     rms          ort
SDA:   1    -0.322493161349E+03    0.30538E+02    0.00000E+00 10584   0.685E+02 0.000E+00
CGA:   2    -0.342926102251E+03   -0.20433E+02   -0.20053E+02 10584   0.266E+02 0.383E+01
CGA:   3    -0.347831310664E+03   -0.49052E+01   -0.37303E+01 10584   0.653E+01 0.689E+01
CGA:   4    -0.349666043836E+03   -0.18347E+01   -0.18348E+01 10584   0.318E+01 0.106E-01
CGA:   5    -0.350113538040E+03   -0.44749E+00   -0.47372E+00 10584   0.140E+01 0.311E-02
CGA:   6    -0.350361524990E+03   -0.24799E+00   -0.24694E+00 10584   0.389E+00-0.934E-03
CGA:   7    -0.350439288787E+03   -0.77764E-01   -0.77730E-01 10584   0.286E+00-0.808E-03
CGA:   8    -0.350485472524E+03   -0.46184E-01   -0.46491E-01 10584   0.128E+00-0.173E-03
CGA:   9    -0.350511903685E+03   -0.26431E-01   -0.26422E-01 10584   0.727E-01-0.185E-02
CGA:  10    -0.350522294159E+03   -0.10390E-01   -0.10471E-01 10584   0.317E-01 0.242E-02
CGA:  11    -0.350528142575E+03   -0.58484E-02   -0.58295E-02 10584   0.958E-02-0.636E-03
CGA:  12    -0.350529983816E+03   -0.18412E-02   -0.18426E-02 10584   0.598E-02 0.948E-04
CGA:  13    -0.350531040675E+03   -0.10569E-02   -0.10451E-02 10584   0.200E-02-0.316E-03
CGA:  14    -0.350531355739E+03   -0.31506E-03   -0.32329E-03 10584   0.107E-02 0.222E-03
CGA:  15    -0.350531633843E+03   -0.27810E-03   -0.30964E-03 10584   0.108E-02-0.600E-03
CGA:  16    -0.350531676116E+03   -0.42273E-04   -0.80454E-04 10584   0.246E-03 0.296E-03
CGA:  17    -0.350531709707E+03   -0.33591E-04   -0.40934E-04 10584   0.150E-03 0.102E-03
CGA:  18    -0.350531727003E+03   -0.17296E-04   -0.84553E-04 10584   0.975E-03-0.339E-03
CGA:  19    -0.350531758709E+03   -0.31705E-04   -0.61927E-04 10584   0.155E-03 0.228E-03
CGA:  20    -0.350531773781E+03   -0.15073E-04   -0.20665E-04 10584   0.102E-03 0.598E-04
CGA:  21    -0.350531787603E+03   -0.13822E-04   -0.46304E-04 10584   0.373E-03-0.249E-03
CGA:  22    -0.350531794204E+03   -0.66008E-05   -0.24191E-04 10584   0.914E-04 0.130E-03
CGA:  23    -0.350531798875E+03   -0.46712E-05   -0.10691E-04 10584   0.522E-04 0.547E-04
CGA:  24    -0.350531824836E+03   -0.25961E-04    0.16725E-04 10584   0.828E-04-0.276E-04
CGA:  25    -0.350531821126E+03    0.37093E-05   -0.28577E-05 10584   0.226E-04 0.424E-04
  16 F= -.35053182E+03 E0= -.35053176E+03  d E =0.249905E+01  mag=    18.0000
       N       E                     dE             d eps       ncg     rms          ort
SDA:   1    -0.348964220878E+03    0.15676E+01    0.00000E+00 10584   0.715E+01 0.000E+00
CGA:   2    -0.351247866916E+03   -0.22836E+01   -0.22879E+01 10584   0.272E+01-0.303E-01
CGA:   3    -0.351775705242E+03   -0.52784E+00   -0.52598E+00 10584   0.959E+00 0.860E-01
CGA:   4    -0.351917492989E+03   -0.14179E+00   -0.13716E+00 10584   0.230E+00-0.372E-02
CGA:   5    -0.351967842317E+03   -0.50349E-01   -0.50242E-01 10584   0.672E-01 0.124E-02
CGA:   6    -0.351982560112E+03   -0.14718E-01   -0.14678E-01 10584   0.276E-01 0.136E-02
CGA:   7    -0.351989855988E+03   -0.72959E-02   -0.74260E-02 10584   0.157E-01-0.168E-02
CGA:   8    -0.351992440431E+03   -0.25844E-02   -0.25906E-02 10584   0.603E-02 0.603E-03
CGA:   9    -0.351994042824E+03   -0.16024E-02   -0.16507E-02 10584   0.271E-02-0.636E-03
CGA:  10    -0.351994450696E+03   -0.40787E-03   -0.41647E-03 10584   0.754E-03 0.432E-03
CGA:  11    -0.351994679018E+03   -0.22832E-03   -0.24039E-03 10584   0.332E-03-0.143E-03
CGA:  12    -0.351994720185E+03   -0.41167E-04   -0.13031E-03 10584   0.534E-03-0.308E-03
CGA:  13    -0.351994819639E+03   -0.99453E-04   -0.97690E-04 10584   0.201E-03-0.657E-04
CGA:  14    -0.351994820931E+03   -0.12925E-05   -0.12636E-04 10584   0.629E-04 0.838E-04
  17 F= -.35199482E+03 E0= -.35199482E+03  d E =-.146300E+01  mag=    18.0000
       N       E                     dE             d eps       ncg     rms          ort
SDA:   1    -0.350597301789E+03    0.13975E+01    0.00000E+00 10584   0.506E+01 0.000E+00
CGA:   2    -0.352242095575E+03   -0.16448E+01   -0.16442E+01 10584   0.177E+01 0.489E-02
CGA:   3    -0.352641456850E+03   -0.39936E+00   -0.39928E+00 10584   0.497E+00-0.252E-03
CGA:   4    -0.352720723120E+03   -0.79266E-01   -0.79162E-01 10584   0.146E+00 0.200E-02
CGA:   5    -0.352750792345E+03   -0.30069E-01   -0.30074E-01 10584   0.454E-01-0.143E-02
CGA:   6    -0.352760439161E+03   -0.96468E-02   -0.96431E-02 10584   0.195E-01 0.320E-03
CGA:   7    -0.352765596132E+03   -0.51570E-02   -0.51932E-02 10584   0.794E-02-0.562E-03
CGA:   8    -0.352767621472E+03   -0.20253E-02   -0.20419E-02 10584   0.325E-02-0.270E-03
CGA:   9    -0.352768371489E+03   -0.75002E-03   -0.74553E-03 10584   0.963E-03 0.150E-03
CGA:  10    -0.352768606757E+03   -0.23527E-03   -0.23389E-03 10584   0.325E-03 0.592E-04
CGA:  11    -0.352768294086E+03    0.31267E-03   -0.28510E-03 10584   0.417E-02-0.968E-03
CGA:  12    -0.352768659868E+03   -0.36578E-03   -0.41987E-03 10584   0.471E-03 0.468E-03
CGA:  13    -0.352768752244E+03   -0.92376E-04   -0.97150E-04 10584   0.122E-03 0.992E-04
CGA:  14    -0.352768789907E+03   -0.37663E-04   -0.48602E-04 10584   0.278E-03-0.112E-03
CGA:  15    -0.352768803267E+03   -0.13360E-04   -0.22458E-04 10584   0.267E-04 0.607E-04
CGA:  16    -0.352768806694E+03   -0.34266E-05   -0.40741E-05 10584   0.153E-04 0.634E-05
  18 F= -.35276881E+03 E0= -.35276881E+03  d E =-.773986E+00  mag=    18.0000
       N       E                     dE             d eps       ncg     rms          ort
SDA:   1    -0.351681840573E+03    0.10870E+01    0.00000E+00 10584   0.323E+01 0.000E+00
CGA:   2    -0.352725502581E+03   -0.10437E+01   -0.10426E+01 10584   0.112E+01 0.102E-01
CGA:   3    -0.352985555458E+03   -0.26005E+00   -0.26004E+00 10584   0.305E+00 0.108E-02
CGA:   4    -0.353034789156E+03   -0.49234E-01   -0.49027E-01 10584   0.916E-01 0.113E-02
CGA:   5    -0.353054277281E+03   -0.19488E-01   -0.19472E-01 10584   0.265E-01-0.165E-02
CGA:   6    -0.353060422190E+03   -0.61449E-02   -0.61454E-02 10584   0.120E-01-0.308E-04
CGA:   7    -0.353063512874E+03   -0.30907E-02   -0.31047E-02 10584   0.483E-02-0.419E-03
CGA:   8    -0.353064741255E+03   -0.12284E-02   -0.12333E-02 10584   0.191E-02-0.132E-03
CGA:   9    -0.353065148366E+03   -0.40711E-03   -0.40900E-03 10584   0.509E-03 0.219E-03
CGA:  10    -0.353065321799E+03   -0.17343E-03   -0.19618E-03 10584   0.414E-03-0.193E-03
CGA:  11    -0.353065360620E+03   -0.38821E-04   -0.37275E-04 10584   0.157E-03-0.167E-04
CGA:  12    -0.353065397303E+03   -0.36683E-04   -0.38779E-04 10584   0.138E-03-0.761E-04
CGA:  13    -0.353065397102E+03    0.20092E-06   -0.25273E-04 10584   0.370E-03-0.204E-03
CGA:  14    -0.353065420443E+03   -0.23341E-04   -0.37757E-04 10584   0.711E-04 0.109E-03
CGA:  15    -0.353065430175E+03   -0.97321E-05   -0.12580E-04 10584   0.257E-04 0.304E-04
CGA:  16    -0.353065332643E+03    0.97532E-04   -0.35739E-04 10584   0.842E-03-0.178E-03
CGA:  17    -0.353065404531E+03   -0.71888E-04   -0.92444E-04 10584   0.129E-03 0.143E-03
CGA:  18    -0.353065440994E+03   -0.36463E-04   -0.36454E-04 10584   0.275E-04-0.743E-06
CGA:  19    -0.353064962819E+03    0.47817E-03   -0.26630E-03 10584   0.510E-02-0.371E-03
CGA:  20    -0.353065393371E+03   -0.43055E-03   -0.47511E-03 10584   0.151E-03 0.521E-03
CGA:  21    -0.353065418101E+03   -0.24730E-04   -0.28902E-04 10584   0.861E-04 0.159E-04
CGA:  22    -0.353065459121E+03   -0.41020E-04   -0.35235E-04 10584   0.712E-04-0.929E-04
CGA:  23    -0.353065453548E+03    0.55727E-05   -0.65203E-05 10584   0.243E-04 0.360E-04
  19 F= -.35306545E+03 E0= -.35306545E+03  d E =-.296647E+00  mag=    18.0000
       N       E                     dE             d eps       ncg     rms          ort
SDA:   1    -0.352905905059E+03    0.15955E+00    0.00000E+00 10584   0.463E+00 0.000E+00
CGA:   2    -0.353055737425E+03   -0.14983E+00   -0.14996E+00 10584   0.151E+00 0.894E-03
CGA:   3    -0.353092332099E+03   -0.36595E-01   -0.36618E-01 10584   0.408E-01-0.480E-03
CGA:   4    -0.353098832024E+03   -0.64999E-02   -0.64831E-02 10584   0.121E-01 0.608E-03
CGA:   5    -0.353101602947E+03   -0.27709E-02   -0.26789E-02 10584   0.351E-02-0.649E-03
CGA:   6    -0.353102469197E+03   -0.86625E-03   -0.85819E-03 10584   0.167E-02-0.736E-04
CGA:   7    -0.353102847560E+03   -0.37836E-03   -0.37229E-03 10584   0.662E-03-0.453E-04
CGA:   8    -0.353103020581E+03   -0.17302E-03   -0.17163E-03 10584   0.249E-03-0.158E-04
CGA:   9    -0.353103059737E+03   -0.39156E-04   -0.47073E-04 10584   0.686E-04 0.504E-04
CGA:  10    -0.353103090337E+03   -0.30600E-04   -0.33971E-04 10584   0.898E-04-0.491E-04
CGA:  11    -0.353103100594E+03   -0.10257E-04   -0.12156E-04 10584   0.116E-04 0.913E-05
CGA:  12    -0.353103113878E+03   -0.13284E-04    0.39380E-05 10584   0.127E-04-0.881E-05
CGA:  13    -0.353103112376E+03    0.15017E-05   -0.69247E-06 10584   0.491E-05 0.782E-05
  20 F= -.35310311E+03 E0= -.35310311E+03  d E =-.376588E-01  mag=    18.0000
       N       E                     dE             d eps       ncg     rms          ort
SDA:   1    -0.352992735882E+03    0.11038E+00    0.00000E+00 10584   0.282E+00 0.000E+00
CGA:   2    -0.353080734429E+03   -0.87999E-01   -0.87992E-01 10584   0.881E-01 0.141E-02
CGA:   3    -0.353102443161E+03   -0.21709E-01   -0.21713E-01 10584   0.250E-01-0.229E-04
CGA:   4    -0.353106539254E+03   -0.40961E-02   -0.40933E-02 10584   0.701E-02 0.255E-04
CGA:   5    -0.353108131785E+03   -0.15925E-02   -0.15447E-02 10584   0.237E-02-0.619E-03
CGA:   6    -0.353108659710E+03   -0.52792E-03   -0.52063E-03 10584   0.109E-02-0.136E-03
CGA:   7    -0.353108889265E+03   -0.22955E-03   -0.23030E-03 10584   0.369E-03 0.108E-04
CGA:   8    -0.353108989240E+03   -0.99975E-04   -0.10000E-03 10584   0.154E-03 0.114E-05
CGA:   9    -0.353109012586E+03   -0.23346E-04   -0.27403E-04 10584   0.427E-04 0.371E-04
CGA:  10    -0.353109028817E+03   -0.16231E-04   -0.25824E-04 10584   0.842E-04-0.467E-04
CGA:  11    -0.353109040936E+03   -0.12119E-04   -0.13354E-04 10584   0.725E-05 0.925E-05
CGA:  12    -0.353109047675E+03   -0.67398E-05    0.24617E-05 10584   0.368E-05-0.230E-05
  21 F= -.35310905E+03 E0= -.35310905E+03  d E =-.593530E-02  mag=    18.0000
       N       E                     dE             d eps       ncg     rms          ort
SDA:   1    -0.353099316121E+03    0.97248E-02    0.00000E+00 10584   0.307E-01 0.000E+00
CGA:   2    -0.353107630092E+03   -0.83140E-02   -0.83158E-02 10584   0.107E-01 0.664E-03
CGA:   3    -0.353109938078E+03   -0.23080E-02   -0.23243E-02 10584   0.352E-02 0.265E-03
CGA:   4    -0.353110557521E+03   -0.61944E-03   -0.60841E-03 10584   0.865E-03-0.109E-03
CGA:   5    -0.353110738097E+03   -0.18058E-03   -0.17577E-03 10584   0.322E-03-0.864E-04
CGA:   6    -0.353110802720E+03   -0.64622E-04   -0.62689E-04 10584   0.133E-03-0.415E-04
CGA:   7    -0.353110827619E+03   -0.24899E-04   -0.25257E-04 10584   0.416E-04 0.845E-05
CGA:   8    -0.353110833706E+03   -0.60868E-05   -0.74899E-05 10584   0.139E-04 0.158E-04
  22 F= -.35311083E+03 E0= -.35311083E+03  d E =-.178603E-02  mag=    18.0000
       N       E                     dE             d eps       ncg     rms          ort
SDA:   1    -0.352932706618E+03    0.17812E+00    0.00000E+00 10584   0.491E+00 0.000E+00
CGA:   2    -0.353060206019E+03   -0.12750E+00   -0.12747E+00 10584   0.183E+00 0.414E-02
CGA:   3    -0.353097906470E+03   -0.37700E-01   -0.37738E-01 10584   0.595E-01 0.637E-03
CGA:   4    -0.353107715271E+03   -0.98088E-02   -0.97793E-02 10584   0.121E-01-0.347E-03
CGA:   5    -0.353110127185E+03   -0.24119E-02   -0.23900E-02 10584   0.392E-02-0.465E-03
CGA:   6    -0.353110904965E+03   -0.77778E-03   -0.77328E-03 10584   0.133E-02-0.117E-03
CGA:   7    -0.353111212466E+03   -0.30750E-03   -0.30789E-03 10584   0.501E-03 0.915E-04
CGA:   8    -0.353111356775E+03   -0.14431E-03   -0.14354E-03 10584   0.218E-03 0.288E-04
CGA:   9    -0.353111426150E+03   -0.69375E-04   -0.69742E-04 10584   0.963E-04-0.620E-05
CGA:  10    -0.353111443784E+03   -0.17634E-04   -0.51959E-04 10584   0.251E-03-0.111E-03
CGA:  11    -0.353111461417E+03   -0.17633E-04   -0.27061E-04 10584   0.351E-04 0.619E-04
CGA:  12    -0.353111466285E+03   -0.48674E-05   -0.62320E-05 10584   0.115E-04 0.122E-04
  23 F= -.35311147E+03 E0= -.35311147E+03  d E =-.632579E-03  mag=    18.0000
       N       E                     dE             d eps       ncg     rms          ort
SDA:   1    -0.353012411573E+03    0.99050E-01    0.00000E+00 10584   0.271E+00 0.000E+00
CGA:   2    -0.353083642625E+03   -0.71231E-01   -0.71224E-01 10584   0.118E+00 0.135E-02
CGA:   3    -0.353105343769E+03   -0.21701E-01   -0.21747E-01 10584   0.339E-01 0.709E-03
CGA:   4    -0.353111218553E+03   -0.58748E-02   -0.58216E-02 10584   0.681E-02-0.658E-03
CGA:   5    -0.353112420969E+03   -0.12024E-02   -0.12062E-02 10584   0.189E-02 0.535E-04
CGA:   6    -0.353112757385E+03   -0.33642E-03   -0.34762E-03 10584   0.499E-03 0.174E-03
CGA:   7    -0.353112874378E+03   -0.11699E-03   -0.11923E-03 10584   0.192E-03 0.895E-04
CGA:   8    -0.353112930829E+03   -0.56451E-04   -0.56220E-04 10584   0.900E-04 0.382E-04
CGA:   9    -0.353112968833E+03   -0.38004E-04   -0.53593E-04 10584   0.151E-03-0.614E-04
CGA:  10    -0.353112977696E+03   -0.88627E-05   -0.16127E-04 10584   0.274E-04 0.489E-04
  24 F= -.35311298E+03 E0= -.35311298E+03  d E =-.151141E-02  mag=    18.0000
       N       E                     dE             d eps       ncg     rms          ort
SDA:   1    -0.352497374811E+03    0.61559E+00    0.00000E+00 10584   0.159E+01 0.000E+00
CGA:   2    -0.352940241774E+03   -0.44287E+00   -0.44267E+00 10584   0.756E+00 0.468E-02
CGA:   3    -0.353072475354E+03   -0.13223E+00   -0.13229E+00 10584   0.193E+00 0.220E-04
CGA:   4    -0.353105571213E+03   -0.33096E-01   -0.33003E-01 10584   0.411E-01-0.140E-02
CGA:   5    -0.353112727397E+03   -0.71562E-02   -0.71494E-02 10584   0.115E-01-0.121E-03
CGA:   6    -0.353114953431E+03   -0.22260E-02   -0.22416E-02 10584   0.314E-02 0.411E-03
CGA:   7    -0.353115700048E+03   -0.74662E-03   -0.74707E-03 10584   0.116E-02 0.247E-03
CGA:   8    -0.353116070679E+03   -0.37063E-03   -0.37216E-03 10584   0.572E-03-0.235E-04
CGA:   9    -0.353116246769E+03   -0.17609E-03   -0.17998E-03 10584   0.259E-03-0.453E-04
CGA:  10    -0.353116308075E+03   -0.61306E-04   -0.61188E-04 10584   0.749E-04 0.651E-05
CGA:  11    -0.353116326571E+03   -0.18496E-04   -0.18489E-04 10584   0.214E-04 0.103E-04
CGA:  12    -0.353116233744E+03    0.92827E-04   -0.50146E-04 10584   0.479E-03-0.993E-04
CGA:  13    -0.353116319879E+03   -0.86135E-04   -0.94027E-04 10584   0.898E-04 0.333E-04
CGA:  14    -0.353116350210E+03   -0.30331E-04   -0.25503E-04 10584   0.635E-04-0.302E-04
CGA:  15    -0.353116353604E+03   -0.33938E-05   -0.56812E-05 10584   0.181E-04 0.824E-05
  25 F= -.35311635E+03 E0= -.35311635E+03  d E =-.337591E-02  mag=    18.0000
       N       E                     dE             d eps       ncg     rms          ort
SDA:   1    -0.352545639942E+03    0.57071E+00    0.00000E+00 10584   0.137E+01 0.000E+00
CGA:   2    -0.352996657650E+03   -0.45102E+00   -0.45109E+00 10584   0.564E+00 0.897E-03
CGA:   3    -0.353090077214E+03   -0.93420E-01   -0.93563E-01 10584   0.136E+00-0.352E-03
CGA:   4    -0.353113284306E+03   -0.23207E-01   -0.23162E-01 10584   0.296E-01-0.241E-03
CGA:   5    -0.353118619977E+03   -0.53357E-02   -0.53308E-02 10584   0.839E-02-0.311E-04
CGA:   6    -0.353120277403E+03   -0.16574E-02   -0.16658E-02 10584   0.234E-02 0.518E-04
CGA:   7    -0.353120826214E+03   -0.54881E-03   -0.55354E-03 10584   0.871E-03 0.420E-04
CGA:   8    -0.353121082479E+03   -0.25626E-03   -0.25496E-03 10584   0.397E-03-0.246E-04
CGA:   9    -0.353121202208E+03   -0.11973E-03   -0.11899E-03 10584   0.156E-03-0.246E-04
CGA:  10    -0.353121243708E+03   -0.41499E-04   -0.41097E-04 10584   0.455E-04-0.711E-05
CGA:  11    -0.353121251537E+03   -0.78295E-05   -0.88826E-05 10584   0.111E-04 0.812E-05
CGA:  12    -0.353121225165E+03    0.26372E-04   -0.15939E-04 10584   0.202E-03-0.475E-04
CGA:  13    -0.353121248695E+03   -0.23530E-04   -0.30494E-04 10584   0.383E-04 0.320E-04
CGA:  14    -0.353121263472E+03   -0.14777E-04   -0.13629E-04 10584   0.243E-04-0.210E-04
CGA:  15    -0.353121263451E+03    0.20744E-07   -0.23496E-05 10584   0.505E-05 0.910E-05
  26 F= -.35312126E+03 E0= -.35312126E+03  d E =-.490985E-02  mag=    18.0000
       N       E                     dE             d eps       ncg     rms          ort
SDA:   1    -0.352057837635E+03    0.10634E+01    0.00000E+00 10584   0.251E+01 0.000E+00
CGA:   2    -0.352922603386E+03   -0.86477E+00   -0.86477E+00 10584   0.799E+00-0.856E-03
CGA:   3    -0.353080058277E+03   -0.15745E+00   -0.15762E+00 10584   0.193E+00 0.314E-03
CGA:   4    -0.353111058113E+03   -0.31000E-01   -0.31019E-01 10584   0.453E-01 0.739E-04
CGA:   5    -0.353119848992E+03   -0.87909E-02   -0.87798E-02 10584   0.126E-01-0.940E-04
CGA:   6    -0.353122404690E+03   -0.25557E-02   -0.25449E-02 10584   0.419E-02-0.102E-03
CGA:   7    -0.353123419007E+03   -0.10143E-02   -0.10143E-02 10584   0.163E-02-0.129E-05
CGA:   8    -0.353123894719E+03   -0.47571E-03   -0.47519E-03 10584   0.774E-03-0.446E-04
CGA:   9    -0.353124103086E+03   -0.20837E-03   -0.20847E-03 10584   0.265E-03 0.377E-05
CGA:  10    -0.353124182749E+03   -0.79663E-04   -0.79564E-04 10584   0.945E-04-0.266E-04
CGA:  11    -0.353124193512E+03   -0.10763E-04   -0.13839E-04 10584   0.276E-04 0.221E-04
CGA:  12    -0.353124202939E+03   -0.94273E-05   -0.92945E-05 10584   0.130E-04-0.593E-05
  27 F= -.35312420E+03 E0= -.35312420E+03  d E =-.293949E-02  mag=    18.0000
       N       E                     dE             d eps       ncg     rms          ort
SDA:   1    -0.352320136470E+03    0.80406E+00    0.00000E+00 10584   0.193E+01 0.000E+00
CGA:   2    -0.352979428874E+03   -0.65929E+00   -0.65930E+00 10584   0.645E+00-0.458E-03
CGA:   3    -0.353098368782E+03   -0.11894E+00   -0.11899E+00 10584   0.161E+00-0.355E-03
CGA:   4    -0.353124780351E+03   -0.26412E-01   -0.26413E-01 10584   0.376E-01-0.379E-04
CGA:   5    -0.353131847040E+03   -0.70667E-02   -0.70617E-02 10584   0.107E-01-0.508E-04
CGA:   6    -0.353133947918E+03   -0.21009E-02   -0.20936E-02 10584   0.326E-02-0.770E-04
CGA:   7    -0.353134751896E+03   -0.80398E-03   -0.80314E-03 10584   0.125E-02-0.211E-04
CGA:   8    -0.353135102393E+03   -0.35050E-03   -0.35036E-03 10584   0.576E-03-0.262E-04
CGA:   9    -0.353135269335E+03   -0.16694E-03   -0.16722E-03 10584   0.215E-03-0.296E-04
CGA:  10    -0.353135329454E+03   -0.60119E-04   -0.60276E-04 10584   0.642E-04-0.182E-04
CGA:  11    -0.353135348488E+03   -0.19034E-04   -0.20079E-04 10584   0.266E-04-0.193E-04
CGA:  12    -0.353135353602E+03   -0.51136E-05   -0.50968E-05 10584   0.808E-05-0.105E-05
  28 F= -.35313535E+03 E0= -.35313535E+03  d E =-.111507E-01  mag=    18.0000
       N       E                     dE             d eps       ncg     rms          ort
SDA:   1    -0.352733592819E+03    0.40176E+00    0.00000E+00 10584   0.948E+00 0.000E+00
CGA:   2    -0.353063112542E+03   -0.32952E+00   -0.32945E+00 10584   0.302E+00 0.103E-02
CGA:   3    -0.353120079857E+03   -0.56967E-01   -0.56951E-01 10584   0.750E-01-0.297E-03
CGA:   4    -0.353132424091E+03   -0.12344E-01   -0.12283E-01 10584   0.177E-01-0.518E-03
CGA:   5    -0.353135748733E+03   -0.33246E-02   -0.33232E-02 10584   0.488E-02-0.186E-04
CGA:   6    -0.353136660395E+03   -0.91166E-03   -0.92387E-03 10584   0.143E-02 0.139E-03
CGA:   7    -0.353137015334E+03   -0.35494E-03   -0.35633E-03 10584   0.540E-03 0.472E-04
CGA:   8    -0.353137186130E+03   -0.17080E-03   -0.17268E-03 10584   0.300E-03-0.488E-04
CGA:   9    -0.353137261912E+03   -0.75782E-04   -0.75839E-04 10584   0.104E-03-0.114E-04
CGA:  10    -0.353137284288E+03   -0.22376E-04   -0.22922E-04 10584   0.260E-04 0.128E-04
CGA:  11    -0.353137289373E+03   -0.50849E-05   -0.17596E-04 10584   0.683E-04-0.378E-04
CGA:  12    -0.353137297005E+03   -0.76321E-05   -0.10035E-04 10584   0.939E-05 0.171E-04
  29 F= -.35313730E+03 E0= -.35313730E+03  d E =-.194340E-02  mag=    18.0000
       N       E                     dE             d eps       ncg     rms          ort
SDA:   1    -0.352866272818E+03    0.27102E+00    0.00000E+00 10584   0.639E+00 0.000E+00
CGA:   2    -0.353086349661E+03   -0.22008E+00   -0.22005E+00 10584   0.232E+00 0.435E-03
CGA:   3    -0.353126146314E+03   -0.39797E-01   -0.39788E-01 10584   0.574E-01 0.127E-02
CGA:   4    -0.353135850740E+03   -0.97044E-02   -0.96239E-02 10584   0.126E-01-0.752E-03
CGA:   5    -0.353138193196E+03   -0.23425E-02   -0.23486E-02 10584   0.365E-02 0.641E-04
CGA:   6    -0.353138849286E+03   -0.65609E-03   -0.67012E-03 10584   0.100E-02 0.134E-03
CGA:   7    -0.353139099858E+03   -0.25057E-03   -0.25147E-03 10584   0.414E-03 0.225E-04
CGA:   8    -0.353139199918E+03   -0.10006E-03   -0.10141E-03 10584   0.184E-03 0.335E-04
CGA:   9    -0.353139267582E+03   -0.67664E-04   -0.76135E-04 10584   0.192E-03-0.801E-04
CGA:  10    -0.353139272859E+03   -0.52768E-05   -0.11053E-04 10584   0.953E-04 0.321E-04
  30 F= -.35313927E+03 E0= -.35313927E+03  d E =-.197585E-02  mag=    18.0000
       N       E                     dE             d eps       ncg     rms          ort
SDA:   1    -0.352945398670E+03    0.19387E+00    0.00000E+00 10584   0.455E+00 0.000E+00
CGA:   2    -0.353105432772E+03   -0.16003E+00   -0.15994E+00 10584   0.154E+00 0.107E-02
CGA:   3    -0.353132435722E+03   -0.27003E-01   -0.27027E-01 10584   0.378E-01 0.218E-03
CGA:   4    -0.353138627689E+03   -0.61920E-02   -0.61794E-02 10584   0.883E-02-0.133E-03
CGA:   5    -0.353140288899E+03   -0.16612E-02   -0.16601E-02 10584   0.253E-02-0.167E-04
CGA:   6    -0.353140759337E+03   -0.47044E-03   -0.47341E-03 10584   0.726E-03 0.432E-04
CGA:   7    -0.353140932444E+03   -0.17311E-03   -0.17362E-03 10584   0.267E-03 0.300E-04
CGA:   8    -0.353141009135E+03   -0.76691E-04   -0.76551E-04 10584   0.122E-03 0.596E-05
CGA:   9    -0.353141044359E+03   -0.35223E-04   -0.35069E-04 10584   0.435E-04 0.535E-05
CGA:  10    -0.353141054764E+03   -0.10406E-04   -0.10580E-04 10584   0.112E-04 0.820E-05
CGA:  11    -0.353141058617E+03   -0.38527E-05   -0.38714E-05 10584   0.371E-05-0.496E-06
  31 F= -.35314106E+03 E0= -.35314106E+03  d E =-.178576E-02  mag=    18.0000
       N       E                     dE             d eps       ncg     rms          ort
SDA:   1    -0.351301377102E+03    0.18397E+01    0.00000E+00 10584   0.426E+01 0.000E+00
CGA:   2    -0.352810472097E+03   -0.15091E+01   -0.15091E+01 10584   0.147E+01-0.161E-03
CGA:   3    -0.353062816252E+03   -0.25234E+00   -0.25249E+00 10584   0.357E+00 0.131E-02
CGA:   4    -0.353121096705E+03   -0.58280E-01   -0.58243E-01 10584   0.840E-01-0.593E-03
CGA:   5    -0.353136822890E+03   -0.15726E-01   -0.15724E-01 10584   0.233E-01-0.402E-04
CGA:   6    -0.353141305685E+03   -0.44828E-02   -0.44918E-02 10584   0.671E-02 0.173E-03
CGA:   7    -0.353142917146E+03   -0.16115E-02   -0.16117E-02 10584   0.259E-02 0.722E-04
CGA:   8    -0.353143628542E+03   -0.71140E-03   -0.71048E-03 10584   0.116E-02 0.299E-04
CGA:   9    -0.353143974070E+03   -0.34553E-03   -0.34820E-03 10584   0.499E-03-0.503E-04
CGA:  10    -0.353144063049E+03   -0.88979E-04   -0.93415E-04 10584   0.147E-03 0.900E-04
CGA:  11    -0.353144110344E+03   -0.47295E-04   -0.48510E-04 10584   0.625E-04-0.326E-04
CGA:  12    -0.353144117492E+03   -0.71481E-05   -0.80757E-05 10584   0.206E-04 0.118E-04
  32 F= -.35314412E+03 E0= -.35314412E+03  d E =-.305887E-02  mag=    18.0000
       N       E                     dE             d eps       ncg     rms          ort
SDA:   1    -0.348234973471E+03    0.49091E+01    0.00000E+00 10584   0.113E+02 0.000E+00
CGA:   2    -0.352219448084E+03   -0.39845E+01   -0.39852E+01 10584   0.403E+01-0.632E-02
CGA:   3    -0.352905737390E+03   -0.68629E+00   -0.68659E+00 10584   0.971E+00 0.129E-02
CGA:   4    -0.353064501105E+03   -0.15876E+00   -0.15874E+00 10584   0.231E+00-0.308E-03
CGA:   5    -0.353107662833E+03   -0.43162E-01   -0.43171E-01 10584   0.652E-01 0.166E-03
CGA:   6    -0.353120240175E+03   -0.12577E-01   -0.12603E-01 10584   0.191E-01 0.617E-03
CGA:   7    -0.353124854527E+03   -0.46144E-02   -0.46129E-02 10584   0.739E-02 0.231E-03
CGA:   8    -0.353126924680E+03   -0.20702E-02   -0.20722E-02 10584   0.335E-02-0.473E-04
CGA:   9    -0.353127872363E+03   -0.94768E-03   -0.94745E-03 10584   0.124E-02 0.451E-05
CGA:  10    -0.353128161115E+03   -0.28875E-03   -0.28926E-03 10584   0.340E-03 0.149E-03
CGA:  11    -0.353128274927E+03   -0.11381E-03   -0.12291E-03 10584   0.195E-03-0.107E-03
CGA:  12    -0.353128288581E+03   -0.13654E-04   -0.17332E-04 10584   0.740E-04 0.331E-04
CGA:  13    -0.353128297320E+03   -0.87384E-05   -0.11208E-04 10584   0.312E-04 0.233E-04
CGA:  14    -0.353128307841E+03   -0.10521E-04   -0.13055E-04 10584   0.365E-04-0.288E-04
CGA:  15    -0.353128311227E+03   -0.33866E-05   -0.47696E-05 10584   0.808E-05 0.133E-04
  33 F= -.35312831E+03 E0= -.35312831E+03  d E =0.158063E-01  mag=    18.0000
       N       E                     dE             d eps       ncg     rms          ort
SDA:   1    -0.351858803523E+03    0.12695E+01    0.00000E+00 10584   0.299E+01 0.000E+00
CGA:   2    -0.352890431140E+03   -0.10316E+01   -0.10319E+01 10584   0.108E+01-0.231E-02
CGA:   3    -0.353084146743E+03   -0.19372E+00   -0.19373E+00 10584   0.268E+00 0.538E-04
CGA:   4    -0.353127313329E+03   -0.43167E-01   -0.43146E-01 10584   0.650E-01-0.334E-03
CGA:   5    -0.353139747648E+03   -0.12434E-01   -0.12432E-01 10584   0.191E-01-0.676E-04
CGA:   6    -0.353143475710E+03   -0.37281E-02   -0.37255E-02 10584   0.610E-02-0.751E-04
CGA:   7    -0.353145006283E+03   -0.15306E-02   -0.15337E-02 10584   0.247E-02-0.137E-03
CGA:   8    -0.353145640113E+03   -0.63383E-03   -0.63353E-03 10584   0.104E-02 0.923E-05
CGA:   9    -0.353145952474E+03   -0.31236E-03   -0.32050E-03 10584   0.448E-03-0.108E-03
CGA:  10    -0.353146041063E+03   -0.88590E-04   -0.88989E-04 10584   0.133E-03 0.290E-04
CGA:  11    -0.353146079591E+03   -0.38528E-04   -0.56940E-04 10584   0.175E-03-0.110E-03
CGA:  12    -0.353146091369E+03   -0.11778E-04   -0.18568E-04 10584   0.280E-04 0.498E-04
CGA:  13    -0.353146096097E+03   -0.47284E-05   -0.53922E-05 10584   0.839E-05 0.769E-05
  34 F= -.35314610E+03 E0= -.35314610E+03  d E =-.177849E-01  mag=    18.0000
       N       E                     dE             d eps       ncg     rms          ort
SDA:   1    -0.353102356273E+03    0.43735E-01    0.00000E+00 10584   0.112E+00 0.000E+00
CGA:   2    -0.353135304971E+03   -0.32949E-01   -0.32983E-01 10584   0.501E-01-0.589E-03
CGA:   3    -0.353144268688E+03   -0.89637E-02   -0.90104E-02 10584   0.156E-01 0.923E-03
CGA:   4    -0.353147066551E+03   -0.27979E-02   -0.28001E-02 10584   0.359E-02 0.337E-04
CGA:   5    -0.353147758257E+03   -0.69171E-03   -0.69392E-03 10584   0.115E-02 0.601E-04
CGA:   6    -0.353148014337E+03   -0.25608E-03   -0.25561E-03 10584   0.462E-03-0.499E-04
CGA:   7    -0.353148138605E+03   -0.12427E-03   -0.12930E-03 10584   0.262E-03-0.775E-04
CGA:   8    -0.353148170636E+03   -0.32031E-04   -0.35449E-04 10584   0.790E-04 0.503E-04
CGA:   9    -0.353148185957E+03   -0.15321E-04   -0.16468E-04 10584   0.321E-04 0.219E-04
CGA:  10    -0.353148194927E+03   -0.89694E-05   -0.89828E-05 10584   0.131E-04 0.249E-05
  35 F= -.35314819E+03 E0= -.35314819E+03  d E =-.209883E-02  mag=    18.0000
       N       E                     dE             d eps       ncg     rms          ort
SDA:   1    -0.353132326187E+03    0.15860E-01    0.00000E+00 10584   0.388E-01 0.000E+00
CGA:   2    -0.353145630668E+03   -0.13304E-01   -0.13307E-01 10584   0.143E-01-0.225E-04
CGA:   3    -0.353148241515E+03   -0.26108E-02   -0.26069E-02 10584   0.369E-02-0.970E-04
CGA:   4    -0.353148838369E+03   -0.59685E-03   -0.59477E-03 10584   0.880E-03-0.357E-04
CGA:   5    -0.353149007952E+03   -0.16958E-03   -0.16919E-03 10584   0.254E-03-0.159E-04
CGA:   6    -0.353149052155E+03   -0.44203E-04   -0.45165E-04 10584   0.693E-04 0.263E-04
CGA:   7    -0.353149067566E+03   -0.15411E-04   -0.15610E-04 10584   0.243E-04 0.166E-04
CGA:   8    -0.353149077523E+03   -0.99573E-05   -0.11168E-04 10584   0.240E-04-0.780E-05
  36 F= -.35314908E+03 E0= -.35314908E+03  d E =-.882597E-03  mag=    18.0000
       N       E                     dE             d eps       ncg     rms          ort
SDA:   1    -0.353134640205E+03    0.14427E-01    0.00000E+00 10584   0.356E-01 0.000E+00
CGA:   2    -0.353146106919E+03   -0.11467E-01   -0.11508E-01 10584   0.148E-01-0.407E-03
CGA:   3    -0.353148606140E+03   -0.24992E-02   -0.24958E-02 10584   0.369E-02-0.704E-04
CGA:   4    -0.353149190337E+03   -0.58420E-03   -0.59343E-03 10584   0.730E-03 0.152E-03
CGA:   5    -0.353149339663E+03   -0.14933E-03   -0.14854E-03 10584   0.235E-03-0.333E-04
CGA:   6    -0.353149390715E+03   -0.51052E-04   -0.51658E-04 10584   0.966E-04-0.476E-04
CGA:   7    -0.353149407002E+03   -0.16287E-04   -0.16274E-04 10584   0.316E-04-0.186E-05
CGA:   8    -0.353149413566E+03   -0.65640E-05   -0.65903E-05 10584   0.103E-04 0.455E-05
  37 F= -.35314941E+03 E0= -.35314941E+03  d E =-.336043E-03  mag=    18.0000
       N       E                     dE             d eps       ncg     rms          ort
SDA:   1    -0.352690563384E+03    0.45884E+00    0.00000E+00 10584   0.114E+01 0.000E+00
CGA:   2    -0.353026505598E+03   -0.33594E+00   -0.33602E+00 10584   0.571E+00-0.143E-02
CGA:   3    -0.353120910629E+03   -0.94405E-01   -0.94404E-01 10584   0.132E+00-0.311E-03
CGA:   4    -0.353143205602E+03   -0.22295E-01   -0.22313E-01 10584   0.286E-01 0.338E-03
CGA:   5    -0.353148299343E+03   -0.50937E-02   -0.50950E-02 10584   0.781E-02 0.225E-04
CGA:   6    -0.353149883867E+03   -0.15845E-02   -0.15840E-02 10584   0.228E-02-0.461E-04
CGA:   7    -0.353150408182E+03   -0.52432E-03   -0.52389E-03 10584   0.820E-03 0.247E-04
CGA:   8    -0.353150625611E+03   -0.21743E-03   -0.21618E-03 10584   0.322E-03 0.269E-04
CGA:   9    -0.353150725965E+03   -0.10035E-03   -0.10026E-03 10584   0.128E-03 0.988E-06
CGA:  10    -0.353150759109E+03   -0.33144E-04   -0.32698E-04 10584   0.358E-04 0.138E-04
CGA:  11    -0.353150771454E+03   -0.12345E-04   -0.12777E-04 10584   0.131E-04-0.437E-05
CGA:  12    -0.353150774683E+03   -0.32289E-05   -0.32137E-05 10584   0.430E-05 0.290E-06
  38 F= -.35315077E+03 E0= -.35315077E+03  d E =-.136112E-02  mag=    18.0000
       N       E                     dE             d eps       ncg     rms          ort
SDA:   1    -0.350450361736E+03    0.27004E+01    0.00000E+00 10584   0.635E+01 0.000E+00
CGA:   2    -0.352549733890E+03   -0.20994E+01   -0.20995E+01 10584   0.263E+01-0.317E-02
CGA:   3    -0.352985770667E+03   -0.43604E+00   -0.43542E+00 10584   0.624E+00 0.731E-02
CGA:   4    -0.353091698390E+03   -0.10593E+00   -0.10607E+00 10584   0.140E+00 0.261E-03
CGA:   5    -0.353117858380E+03   -0.26160E-01   -0.26145E-01 10584   0.407E-01-0.131E-03
CGA:   6    -0.353125956132E+03   -0.80978E-02   -0.80815E-02 10584   0.119E-01-0.948E-04
CGA:   7    -0.353128866479E+03   -0.29103E-02   -0.29108E-02 10584   0.458E-02-0.100E-05
CGA:   8    -0.353130072653E+03   -0.12062E-02   -0.12128E-02 10584   0.192E-02 0.651E-04
CGA:   9    -0.353130653297E+03   -0.58064E-03   -0.57687E-03 10584   0.786E-03-0.590E-04
CGA:  10    -0.353130806242E+03   -0.15294E-03   -0.16575E-03 10584   0.232E-03 0.920E-04
CGA:  11    -0.353130881509E+03   -0.75267E-04   -0.72482E-04 10584   0.950E-04-0.392E-04
CGA:  12    -0.353130893088E+03   -0.11579E-04   -0.14005E-04 10584   0.282E-04 0.144E-04
CGA:  13    -0.353130901144E+03   -0.80563E-05   -0.80466E-05 10584   0.108E-04-0.122E-06
  39 F= -.35313090E+03 E0= -.35313090E+03  d E =0.198735E-01  mag=    18.0000
       N       E                     dE             d eps       ncg     rms          ort
SDA:   1    -0.352506660348E+03    0.62423E+00    0.00000E+00 10584   0.163E+01 0.000E+00
CGA:   2    -0.352952903143E+03   -0.44624E+00   -0.44629E+00 10584   0.828E+00 0.196E-04
CGA:   3    -0.353096883221E+03   -0.14398E+00   -0.14405E+00 10584   0.221E+00 0.144E-02
CGA:   4    -0.353135277330E+03   -0.38394E-01   -0.38407E-01 10584   0.508E-01-0.588E-04
CGA:   5    -0.353144413469E+03   -0.91361E-02   -0.91533E-02 10584   0.147E-01 0.113E-03
CGA:   6    -0.353147454269E+03   -0.30408E-02   -0.30419E-02 10584   0.478E-02 0.877E-05
CGA:   7    -0.353148675265E+03   -0.12210E-02   -0.12117E-02 10584   0.201E-02-0.184E-03
CGA:   8    -0.353149142220E+03   -0.46695E-03   -0.46922E-03 10584   0.721E-03 0.381E-04
CGA:   9    -0.353149358104E+03   -0.21588E-03   -0.21566E-03 10584   0.305E-03-0.416E-04
CGA:  10    -0.353149412239E+03   -0.54135E-04   -0.57786E-04 10584   0.946E-04 0.378E-04
CGA:  11    -0.353149447670E+03   -0.35431E-04   -0.42657E-04 10584   0.106E-03-0.673E-04
CGA:  12    -0.353149452890E+03   -0.52198E-05   -0.11716E-04 10584   0.194E-04 0.346E-04
  40 F= -.35314945E+03 E0= -.35314945E+03  d E =-.185517E-01  mag=    18.0000
       N       E                     dE             d eps       ncg     rms          ort
SDA:   1    -0.352851580675E+03    0.29787E+00    0.00000E+00 10584   0.696E+00 0.000E+00
CGA:   2    -0.353094926635E+03   -0.24335E+00   -0.24332E+00 10584   0.235E+00 0.361E-03
CGA:   3    -0.353138379826E+03   -0.43453E-01   -0.43345E-01 10584   0.610E-01-0.122E-02
CGA:   4    -0.353148129282E+03   -0.97495E-02   -0.97576E-02 10584   0.142E-01 0.821E-04
CGA:   5    -0.353150873575E+03   -0.27443E-02   -0.27572E-02 10584   0.403E-02 0.158E-03
CGA:   6    -0.353151641495E+03   -0.76792E-03   -0.78189E-03 10584   0.127E-02 0.177E-03
CGA:   7    -0.353151965224E+03   -0.32373E-03   -0.32450E-03 10584   0.507E-03 0.362E-04
CGA:   8    -0.353152127498E+03   -0.16227E-03   -0.16768E-03 10584   0.345E-03-0.968E-04
CGA:   9    -0.353152172421E+03   -0.44923E-04   -0.49499E-04 10584   0.115E-03 0.506E-04
CGA:  10    -0.353152198070E+03   -0.25649E-04   -0.26246E-04 10584   0.405E-04 0.928E-05
CGA:  11    -0.353152208267E+03   -0.10198E-04   -0.20988E-04 10584   0.886E-04-0.491E-04
CGA:  12    -0.353152211893E+03   -0.36258E-05   -0.87425E-05 10584   0.172E-04 0.298E-04
  41 F= -.35315221E+03 E0= -.35315221E+03  d E =-.275900E-02  mag=    18.0000
       N       E                     dE             d eps       ncg     rms          ort
SDA:   1    -0.353131487620E+03    0.20721E-01    0.00000E+00 10584   0.495E-01 0.000E+00
CGA:   2    -0.353147212606E+03   -0.15725E-01   -0.15700E-01 10584   0.200E-01 0.426E-03
CGA:   3    -0.353150946222E+03   -0.37336E-02   -0.37162E-02 10584   0.627E-02-0.296E-03
CGA:   4    -0.353151897852E+03   -0.95163E-03   -0.97170E-03 10584   0.119E-02 0.216E-03
CGA:   5    -0.353152163022E+03   -0.26517E-03   -0.26471E-03 10584   0.415E-03-0.129E-04
CGA:   6    -0.353152244655E+03   -0.81632E-04   -0.81598E-04 10584   0.152E-03-0.762E-06
CGA:   7    -0.353152268388E+03   -0.23734E-04   -0.26623E-04 10584   0.495E-04 0.407E-04
CGA:   8    -0.353152283551E+03   -0.15162E-04   -0.15170E-04 10584   0.265E-04 0.522E-05
CGA:   9    -0.353152290902E+03   -0.73513E-05   -0.73410E-05 10584   0.120E-04 0.131E-05
  42 F= -.35315229E+03 E0= -.35315229E+03  d E =-.790091E-04  mag=    18.0000
       N       E                     dE             d eps       ncg     rms          ort
SDA:   1    -0.353149910080E+03    0.23735E-02    0.00000E+00 10584   0.693E-02 0.000E+00
CGA:   2    -0.353152041873E+03   -0.21318E-02   -0.21332E-02 10584   0.286E-02-0.214E-04
CGA:   3    -0.353152576112E+03   -0.53424E-03   -0.53534E-03 10584   0.911E-03 0.187E-04
CGA:   4    -0.353152714943E+03   -0.13883E-03   -0.14359E-03 10584   0.189E-03 0.575E-04
CGA:   5    -0.353152765421E+03   -0.50477E-04   -0.52084E-04 10584   0.131E-03-0.655E-04
CGA:   6    -0.353152777858E+03   -0.12437E-04   -0.33872E-04 10584   0.247E-03-0.134E-03
CGA:   7    -0.353152801793E+03   -0.23935E-04   -0.28593E-04 10584   0.382E-04 0.362E-04
CGA:   8    -0.353152805718E+03   -0.39253E-05   -0.59097E-05 10584   0.133E-04 0.193E-04
  43 F= -.35315281E+03 E0= -.35315281E+03  d E =-.514816E-03  mag=    18.0000
       N       E                     dE             d eps       ncg     rms          ort
SDA:   1    -0.353145528862E+03    0.72729E-02    0.00000E+00 10584   0.184E-01 0.000E+00
CGA:   2    -0.353151207709E+03   -0.56788E-02   -0.56717E-02 10584   0.742E-02 0.862E-04
CGA:   3    -0.353152483547E+03   -0.12758E-02   -0.12810E-02 10584   0.203E-02 0.819E-04
CGA:   4    -0.353152833266E+03   -0.34972E-03   -0.35232E-03 10584   0.418E-03 0.443E-04
CGA:   5    -0.353152926394E+03   -0.93128E-04   -0.92370E-04 10584   0.175E-03-0.723E-04
CGA:   6    -0.353152961589E+03   -0.35195E-04   -0.36928E-04 10584   0.979E-04-0.607E-04
CGA:   7    -0.353152975675E+03   -0.14086E-04   -0.13970E-04 10584   0.345E-04-0.126E-04
CGA:   8    -0.353152980373E+03   -0.46978E-05   -0.51266E-05 10584   0.115E-04 0.761E-05
  44 F= -.35315298E+03 E0= -.35315298E+03  d E =-.174654E-03  mag=    18.0000
       N       E                     dE             d eps       ncg     rms          ort
SDA:   1    -0.353123197224E+03    0.29778E-01    0.00000E+00 10584   0.742E-01 0.000E+00
CGA:   2    -0.353145465463E+03   -0.22268E-01   -0.22246E-01 10584   0.349E-01 0.259E-03
CGA:   3    -0.353151169817E+03   -0.57044E-02   -0.57199E-02 10584   0.843E-02 0.242E-03
CGA:   4    -0.353152598493E+03   -0.14287E-02   -0.14327E-02 10584   0.185E-02 0.765E-04
CGA:   5    -0.353152940998E+03   -0.34250E-03   -0.34069E-03 10584   0.523E-03-0.524E-04
CGA:   6    -0.353153047978E+03   -0.10698E-03   -0.10680E-03 10584   0.167E-03-0.332E-04
CGA:   7    -0.353153080803E+03   -0.32826E-04   -0.32858E-04 10584   0.513E-04 0.595E-05
CGA:   8    -0.353153094494E+03   -0.13691E-04   -0.13609E-04 10584   0.206E-04 0.199E-05
CGA:   9    -0.353153097276E+03   -0.27815E-05   -0.33728E-05 10584   0.762E-05 0.987E-05
  45 F= -.35315310E+03 E0= -.35315310E+03  d E =-.116903E-03  mag=    18.0000
       N       E                     dE             d eps       ncg     rms          ort
SDA:   1    -0.345986657144E+03    0.71664E+01    0.00000E+00 10584   0.177E+02 0.000E+00
CGA:   2    -0.351225518288E+03   -0.52389E+01   -0.52376E+01 10584   0.866E+01 0.937E-02
CGA:   3    -0.352641135639E+03   -0.14156E+01   -0.14165E+01 10584   0.206E+01 0.668E-02
CGA:   4    -0.352991714895E+03   -0.35058E+00   -0.35060E+00 10584   0.466E+00-0.209E-03
CGA:   5    -0.353073443125E+03   -0.81728E-01   -0.81711E-01 10584   0.125E+00-0.628E-03
CGA:   6    -0.353098506784E+03   -0.25064E-01   -0.25064E-01 10584   0.371E-01-0.292E-04
CGA:   7    -0.353107084125E+03   -0.85773E-02   -0.85764E-02 10584   0.133E-01 0.351E-04
CGA:   8    -0.353110630679E+03   -0.35466E-02   -0.35463E-02 10584   0.552E-02 0.115E-05
CGA:   9    -0.353112181195E+03   -0.15505E-02   -0.15379E-02 10584   0.195E-02 0.192E-03
CGA:  10    -0.353112766320E+03   -0.58513E-03   -0.59005E-03 10584   0.654E-03-0.660E-04
CGA:  11    -0.353112950218E+03   -0.18390E-03   -0.18909E-03 10584   0.199E-03-0.663E-04
CGA:  12    -0.353113006346E+03   -0.56129E-04   -0.71641E-04 10584   0.148E-03-0.879E-04
CGA:  13    -0.353113016352E+03   -0.10006E-04   -0.11536E-04 10584   0.671E-04 0.164E-04
CGA:  14    -0.353113027951E+03   -0.11598E-04   -0.12236E-04 10584   0.326E-04 0.983E-05
CGA:  15    -0.353113010284E+03    0.17666E-04   -0.24804E-04 10584   0.267E-03-0.967E-04
CGA:  16    -0.353113029896E+03   -0.19612E-04   -0.29874E-04 10584   0.464E-04 0.768E-04
CGA:  17    -0.353113038631E+03   -0.87347E-05   -0.97239E-05 10584   0.134E-04 0.127E-04
  46 F= -.35311304E+03 E0= -.35311304E+03  d E =0.400586E-01  mag=    18.0000
       N       E                     dE             d eps       ncg     rms          ort
SDA:   1    -0.351278181906E+03    0.18348E+01    0.00000E+00 10584   0.457E+01 0.000E+00
CGA:   2    -0.352643133395E+03   -0.13650E+01   -0.13646E+01 10584   0.220E+01 0.213E-02
CGA:   3    -0.353011537840E+03   -0.36840E+00   -0.36759E+00 10584   0.548E+00 0.167E-03
CGA:   4    -0.353105416558E+03   -0.93879E-01   -0.93895E-01 10584   0.123E+00 0.849E-04
CGA:   5    -0.353127365278E+03   -0.21949E-01   -0.21989E-01 10584   0.346E-01 0.714E-03
CGA:   6    -0.353134289383E+03   -0.69241E-02   -0.69374E-02 10584   0.107E-01 0.430E-03
CGA:   7    -0.353136887312E+03   -0.25979E-02   -0.25997E-02 10584   0.428E-02-0.156E-03
CGA:   8    -0.353137914469E+03   -0.10272E-02   -0.10253E-02 10584   0.171E-02 0.132E-03
CGA:   9    -0.353138433562E+03   -0.51909E-03   -0.53447E-03 10584   0.880E-03-0.208E-03
CGA:  10    -0.353138569025E+03   -0.13546E-03   -0.14102E-03 10584   0.268E-03 0.110E-03
CGA:  11    -0.353138639911E+03   -0.70886E-04   -0.70875E-04 10584   0.793E-04 0.283E-05
CGA:  12    -0.353138657551E+03   -0.17640E-04   -0.17735E-04 10584   0.256E-04 0.934E-05
CGA:  13    -0.353138658171E+03   -0.61941E-06   -0.28142E-05 10584   0.115E-04 0.166E-04
  47 F= -.35313866E+03 E0= -.35313866E+03  d E =-.256195E-01  mag=    18.0000
       N       E                     dE             d eps       ncg     rms          ort
SDA:   1    -0.349970878049E+03    0.31678E+01    0.00000E+00 10584   0.789E+01 0.000E+00
CGA:   2    -0.352318062984E+03   -0.23472E+01   -0.23468E+01 10584   0.373E+01 0.174E-02
CGA:   3    -0.352934861141E+03   -0.61680E+00   -0.61665E+00 10584   0.918E+00-0.298E-02
CGA:   4    -0.353090559494E+03   -0.15570E+00   -0.15567E+00 10584   0.208E+00-0.661E-03
CGA:   5    -0.353126967809E+03   -0.36408E-01   -0.36421E-01 10584   0.557E-01 0.236E-03
CGA:   6    -0.353138219953E+03   -0.11252E-01   -0.11252E-01 10584   0.168E-01 0.129E-04
CGA:   7    -0.353142175141E+03   -0.39552E-02   -0.39582E-02 10584   0.626E-02-0.147E-03
CGA:   8    -0.353143813828E+03   -0.16387E-02   -0.16390E-02 10584   0.259E-02-0.787E-05
CGA:   9    -0.353144598697E+03   -0.78487E-03   -0.80739E-03 10584   0.115E-02-0.240E-03
CGA:  10    -0.353144845606E+03   -0.24691E-03   -0.24640E-03 10584   0.365E-03 0.402E-04
CGA:  11    -0.353144948575E+03   -0.10297E-03   -0.10980E-03 10584   0.204E-03-0.102E-03
CGA:  12    -0.353144959937E+03   -0.11362E-04   -0.16735E-04 10584   0.744E-04 0.477E-04
CGA:  13    -0.353144965556E+03   -0.56193E-05   -0.94751E-05 10584   0.335E-04 0.326E-04
  48 F= -.35314497E+03 E0= -.35314497E+03  d E =-.630739E-02  mag=    18.0000
       N       E                     dE             d eps       ncg     rms          ort
SDA:   1    -0.352757813931E+03    0.38715E+00    0.00000E+00 10584   0.933E+00 0.000E+00
CGA:   2    -0.353053087630E+03   -0.29527E+00   -0.29531E+00 10584   0.354E+00-0.236E-03
CGA:   3    -0.353119784543E+03   -0.66697E-01   -0.66715E-01 10584   0.107E+00-0.649E-03
CGA:   4    -0.353137290869E+03   -0.17506E-01   -0.17525E-01 10584   0.236E-01 0.629E-03
CGA:   5    -0.353142011568E+03   -0.47207E-02   -0.47193E-02 10584   0.716E-02-0.908E-04
CGA:   6    -0.353143486180E+03   -0.14746E-02   -0.14748E-02 10584   0.256E-02 0.225E-04
CGA:   7    -0.353144112491E+03   -0.62631E-03   -0.62507E-03 10584   0.993E-03 0.417E-04
CGA:   8    -0.353144387937E+03   -0.27545E-03   -0.28298E-03 10584   0.553E-03-0.116E-03
CGA:   9    -0.353144473246E+03   -0.85310E-04   -0.88695E-04 10584   0.168E-03 0.920E-04
CGA:  10    -0.353144522713E+03   -0.49467E-04   -0.50314E-04 10584   0.756E-04-0.217E-04
CGA:  11    -0.353144541430E+03   -0.18717E-04   -0.22831E-04 10584   0.489E-04-0.322E-04
CGA:  12    -0.353144542464E+03   -0.10342E-05   -0.25967E-05 10584   0.260E-04 0.118E-04
  49 F= -.35314454E+03 E0= -.35314454E+03  d E =0.423092E-03  mag=    18.0000
       N       E                     dE             d eps       ncg     rms          ort
SDA:   1    -0.352819181180E+03    0.32536E+00    0.00000E+00 10584   0.803E+00 0.000E+00
CGA:   2    -0.353066493825E+03   -0.24731E+00   -0.24719E+00 10584   0.371E+00 0.111E-02
CGA:   3    -0.353129248711E+03   -0.62755E-01   -0.62810E-01 10584   0.949E-01 0.103E-02
CGA:   4    -0.353145045490E+03   -0.15797E-01   -0.15804E-01 10584   0.214E-01 0.127E-03
CGA:   5    -0.353148994277E+03   -0.39488E-02   -0.39440E-02 10584   0.625E-02-0.170E-03
CGA:   6    -0.353150229253E+03   -0.12350E-02   -0.12354E-02 10584   0.193E-02 0.342E-04
CGA:   7    -0.353150680638E+03   -0.45138E-03   -0.44968E-03 10584   0.697E-03 0.805E-04
CGA:   8    -0.353150874830E+03   -0.19419E-03   -0.19375E-03 10584   0.296E-03 0.786E-05
CGA:   9    -0.353150949688E+03   -0.74858E-04   -0.73447E-04 10584   0.937E-04 0.452E-04
CGA:  10    -0.353150981722E+03   -0.32034E-04   -0.32419E-04 10584   0.403E-04-0.459E-05
CGA:  11    -0.353150987855E+03   -0.61337E-05   -0.66654E-05 10584   0.125E-04 0.116E-04
CGA:  12    -0.353150982831E+03    0.50241E-05   -0.11572E-04 10584   0.797E-04-0.331E-04
CGA:  13    -0.353150993952E+03   -0.11121E-04   -0.12634E-04 10584   0.749E-05 0.179E-04
CGA:  14    -0.353150996376E+03   -0.24235E-05   -0.24796E-05 10584   0.283E-05-0.177E-05
  50 F= -.35315100E+03 E0= -.35315100E+03  d E =-.645391E-02  mag=    18.0000
       N       E                     dE             d eps       ncg     rms          ort
SDA:   1    -0.353138861704E+03    0.12132E-01    0.00000E+00 10584   0.300E-01 0.000E+00
CGA:   2    -0.353147630201E+03   -0.87685E-02   -0.87682E-02 10584   0.148E-01-0.289E-05
CGA:   3    -0.353150041128E+03   -0.24109E-02   -0.24269E-02 10584   0.350E-02 0.225E-03
CGA:   4    -0.353150647178E+03   -0.60605E-03   -0.60621E-03 10584   0.811E-03 0.216E-05
CGA:   5    -0.353150793787E+03   -0.14661E-03   -0.14475E-03 10584   0.236E-03-0.385E-04
CGA:   6    -0.353150840755E+03   -0.46969E-04   -0.46701E-04 10584   0.730E-04-0.158E-04
CGA:   7    -0.353150855536E+03   -0.14781E-04   -0.14784E-04 10584   0.227E-04 0.537E-06
CGA:   8    -0.353150860222E+03   -0.46856E-05   -0.47585E-05 10584   0.725E-05 0.470E-05
  51 F= -.35315086E+03 E0= -.35315086E+03  d E =0.136154E-03  mag=    18.0000
       N       E                     dE             d eps       ncg     rms          ort
SDA:   1    -0.352827225738E+03    0.32363E+00    0.00000E+00 10584   0.811E+00 0.000E+00
CGA:   2    -0.353055931362E+03   -0.22871E+00   -0.22863E+00 10584   0.415E+00 0.997E-03
CGA:   3    -0.353125589982E+03   -0.69659E-01   -0.69721E-01 10584   0.999E-01 0.914E-03
CGA:   4    -0.353142412152E+03   -0.16822E-01   -0.16833E-01 10584   0.224E-01 0.180E-03
CGA:   5    -0.353146338632E+03   -0.39265E-02   -0.39219E-02 10584   0.599E-02-0.110E-03
CGA:   6    -0.353147531039E+03   -0.11924E-02   -0.11921E-02 10584   0.178E-02-0.221E-04
CGA:   7    -0.353147926064E+03   -0.39503E-03   -0.39482E-03 10584   0.591E-03 0.337E-04
CGA:   8    -0.353148083246E+03   -0.15718E-03   -0.15712E-03 10584   0.244E-03 0.121E-05
CGA:   9    -0.353148141409E+03   -0.58163E-04   -0.57448E-04 10584   0.765E-04 0.432E-04
CGA:  10    -0.353148169682E+03   -0.28273E-04   -0.29415E-04 10584   0.388E-04-0.107E-04
CGA:  11    -0.353148175683E+03   -0.60001E-05   -0.62783E-05 10584   0.127E-04 0.755E-05
  52 F= -.35314818E+03 E0= -.35314818E+03  d E =0.268454E-02  mag=    18.0000
       N       E                     dE             d eps       ncg     rms          ort
SDA:   1    -0.353071153604E+03    0.77016E-01    0.00000E+00 10584   0.192E+00 0.000E+00
CGA:   2    -0.353128395697E+03   -0.57242E-01   -0.57265E-01 10584   0.940E-01-0.390E-03
CGA:   3    -0.353143968946E+03   -0.15573E-01   -0.15565E-01 10584   0.234E-01-0.450E-04
CGA:   4    -0.353147979929E+03   -0.40110E-02   -0.40030E-02 10584   0.537E-02-0.141E-03
CGA:   5    -0.353148880709E+03   -0.90078E-03   -0.90727E-03 10584   0.146E-02 0.114E-03
CGA:   6    -0.353149168397E+03   -0.28769E-03   -0.28945E-03 10584   0.423E-03 0.620E-04
CGA:   7    -0.353149285744E+03   -0.11735E-03   -0.11989E-03 10584   0.214E-03-0.506E-04
CGA:   8    -0.353149322730E+03   -0.36986E-04   -0.37576E-04 10584   0.734E-04 0.238E-04
CGA:   9    -0.353149347659E+03   -0.24929E-04   -0.32520E-04 10584   0.824E-04-0.433E-04
CGA:  10    -0.353149356182E+03   -0.85235E-05   -0.10629E-04 10584   0.112E-04 0.205E-04
  53 F= -.35314936E+03 E0= -.35314936E+03  d E =-.118050E-02  mag=    18.0000
       N       E                     dE             d eps       ncg     rms          ort
SDA:   1    -0.353096461035E+03    0.52887E-01    0.00000E+00 10584   0.142E+00 0.000E+00
CGA:   2    -0.353131768252E+03   -0.35307E-01   -0.35314E-01 10584   0.758E-01-0.382E-03
CGA:   3    -0.353145290761E+03   -0.13523E-01   -0.13504E-01 10584   0.199E-01-0.384E-03
CGA:   4    -0.353148660029E+03   -0.33693E-02   -0.33597E-02 10584   0.465E-02-0.171E-03
CGA:   5    -0.353149426123E+03   -0.76609E-03   -0.76907E-03 10584   0.117E-02 0.511E-04
CGA:   6    -0.353149658732E+03   -0.23261E-03   -0.23345E-03 10584   0.344E-03 0.352E-04
CGA:   7    -0.353149743891E+03   -0.85159E-04   -0.85432E-04 10584   0.132E-03-0.129E-04
CGA:   8    -0.353149771633E+03   -0.27742E-04   -0.27782E-04 10584   0.440E-04 0.142E-04
CGA:   9    -0.353149759866E+03    0.11767E-04   -0.38776E-04 10584   0.254E-03-0.878E-04
CGA:  10    -0.353149785887E+03   -0.26021E-04   -0.32884E-04 10584   0.362E-04 0.575E-04
CGA:  11    -0.353149795361E+03   -0.94745E-05   -0.94146E-05 10584   0.904E-05-0.192E-05
  54 F= -.35314980E+03 E0= -.35314980E+03  d E =-.439179E-03  mag=    18.0000
       N       E                     dE             d eps       ncg     rms          ort
SDA:   1    -0.353139855557E+03    0.99303E-02    0.00000E+00 10584   0.238E-01 0.000E+00
CGA:   2    -0.353147449033E+03   -0.75935E-02   -0.75693E-02 10584   0.948E-02 0.290E-03
CGA:   3    -0.353149094289E+03   -0.16453E-02   -0.16511E-02 10584   0.250E-02 0.831E-04
CGA:   4    -0.353149518581E+03   -0.42429E-03   -0.42351E-03 10584   0.542E-03-0.119E-04
CGA:   5    -0.353149620968E+03   -0.10239E-03   -0.10213E-03 10584   0.161E-03-0.598E-05
CGA:   6    -0.353149649217E+03   -0.28249E-04   -0.28780E-04 10584   0.444E-04 0.106E-04
CGA:   7    -0.353149659483E+03   -0.10266E-04   -0.10323E-04 10584   0.153E-04 0.557E-05
CGA:   8    -0.353149664651E+03   -0.51678E-05   -0.52603E-05 10584   0.919E-05-0.119E-05
  55 F= -.35314966E+03 E0= -.35314966E+03  d E =0.130711E-03  mag=    18.0000
       N       E                     dE             d eps       ncg     rms          ort
SDA:   1    -0.353138625118E+03    0.11034E-01    0.00000E+00 10584   0.268E-01 0.000E+00
CGA:   2    -0.353146327884E+03   -0.77028E-02   -0.76888E-02 10584   0.133E-01 0.223E-03
CGA:   3    -0.353148539348E+03   -0.22115E-02   -0.22239E-02 10584   0.314E-02 0.189E-03
CGA:   4    -0.353149080598E+03   -0.54125E-03   -0.53899E-03 10584   0.713E-03-0.400E-04
CGA:   5    -0.353149206824E+03   -0.12623E-03   -0.12576E-03 10584   0.194E-03-0.106E-04
CGA:   6    -0.353149241470E+03   -0.34646E-04   -0.35204E-04 10584   0.495E-04 0.151E-04
CGA:   7    -0.353149252343E+03   -0.10873E-04   -0.10981E-04 10584   0.159E-04 0.780E-05
CGA:   8    -0.353149257083E+03   -0.47393E-05   -0.46597E-05 10584   0.709E-05 0.232E-05
  56 F= -.35314926E+03 E0= -.35314926E+03  d E =0.407568E-03  mag=    18.0000
