       N       E                     dE             d eps       ncg     rms          ort
DAV:   1     0.879113757741E+04    0.87911E+04   -0.53496E+05   624   0.154E+03
DAV:   2    -0.937392257859E+03   -0.97285E+04   -0.92704E+04   624   0.410E+02
DAV:   3    -0.190150751099E+04   -0.96412E+03   -0.94333E+03   624   0.148E+02
DAV:   4    -0.194348314884E+04   -0.41976E+02   -0.41320E+02   624   0.342E+01
DAV:   5    -0.194583701831E+04   -0.23539E+01   -0.23447E+01   624   0.594E+00
SDA:   6    -0.106286360040E+04    0.88297E+03   -0.23447E+01   624   0.318E+04 0.000E+00
CGA:   7    -0.123514585231E+04   -0.17228E+03   -0.32808E+03   624   0.486E+04-0.119E+03
CGA:   8    -0.128431747375E+04   -0.49172E+02   -0.27856E+03   624   0.199E+04-0.107E+04
CGA:   9    -0.133998439802E+04   -0.55667E+02   -0.99267E+02   624   0.211E+04-0.124E+04
CGA:  10    -0.139182421950E+04   -0.51840E+02   -0.17625E+03   624   0.139E+04-0.603E+03
CGA:  11    -0.145913105090E+04   -0.67307E+02   -0.62859E+02   624   0.591E+03 0.110E+03
CGA:  12    -0.143257757719E+04    0.26553E+02   -0.31704E+02   624   0.206E+04-0.937E+03
CGA:  13    -0.140637199632E+04    0.26206E+02   -0.14219E+03   624   0.182E+04-0.716E+03
CGA:  14    -0.146249412690E+04   -0.56122E+02   -0.80823E+02   624   0.545E+03-0.254E+03
CGA:  15    -0.148568735874E+04   -0.23193E+02   -0.17282E+02   624   0.557E+03 0.612E+02
CGA:  16    -0.146961703109E+04    0.16070E+02   -0.22355E+02   624   0.170E+04-0.107E+04
CGA:  17    -0.144224277733E+04    0.27374E+02   -0.98229E+02   624   0.166E+04-0.901E+03
CGA:  18    -0.143351533317E+04    0.87274E+01   -0.91146E+02   624   0.943E+03-0.812E+03
CGA:  19    -0.148861369958E+04   -0.55098E+02   -0.18532E+02   624   0.729E+03-0.959E+02
CGA:  20    -0.145975399335E+04    0.28860E+02   -0.30892E+02   624   0.995E+03-0.305E+03
CGA:  21    -0.147487759576E+04   -0.15124E+02   -0.22035E+02   624   0.117E+04-0.404E+03
CGA:  22    -0.147636342376E+04   -0.14858E+01   -0.35150E+02   624   0.107E+04-0.611E+03
CGA:  23    -0.149836867505E+04   -0.22005E+02   -0.44461E+02   624   0.498E+03-0.746E+03
CGA:  24    -0.149689081014E+04    0.14779E+01   -0.20049E+02   624   0.682E+03-0.631E+03
CGA:  25    -0.149820690414E+04   -0.13161E+01   -0.26459E+02   624   0.552E+03-0.526E+03
CGA:  26    -0.150147368849E+04   -0.32668E+01   -0.20954E+02   624   0.834E+03-0.926E+03
CGA:  27    -0.149882731037E+04    0.26464E+01   -0.32795E+02   624   0.651E+03-0.574E+03
CGA:  28    -0.150118068398E+04   -0.23534E+01   -0.23912E+02   624   0.845E+03-0.894E+03
CGA:  29    -0.149978160877E+04    0.13991E+01   -0.32324E+02   624   0.659E+03-0.622E+03
CGA:  30    -0.150406135267E+04   -0.42797E+01   -0.23183E+02   624   0.772E+03-0.896E+03
CGA:  31    -0.150442246784E+04   -0.36112E+00   -0.27268E+02   624   0.499E+03-0.532E+03
CGA:  32    -0.150863813026E+04   -0.42157E+01   -0.15896E+02   624   0.554E+03-0.684E+03
CGA:  33    -0.151010439757E+04   -0.14663E+01   -0.17025E+02   624   0.281E+03-0.319E+03
CGA:  34    -0.151420709853E+04   -0.41027E+01   -0.73673E+01   624   0.153E+03-0.253E+03
CGA:  35    -0.151604706887E+04   -0.18400E+01   -0.32466E+01   624   0.300E+02-0.607E+02
CGA:  36    -0.151658681241E+04   -0.53974E+00   -0.44300E+00   624   0.213E+01 0.307E+01
CGA:  37    -0.151677554153E+04   -0.18873E+00   -0.18882E+00   624   0.105E+02-0.823E-01
CGA:  38    -0.151749582097E+04   -0.72028E+00   -0.11068E+01   624   0.338E+02-0.829E+01
CGA:  39    -0.151821780154E+04   -0.72198E+00   -0.75863E+00   624   0.599E+01-0.271E+01
CGA:  40    -0.151835650900E+04   -0.13871E+00   -0.14230E+00   624   0.152E+01-0.157E+00
CGA:  41    -0.151844189768E+04   -0.85389E-01   -0.85052E-01   624   0.187E+01-0.348E-01
CGA:  42    -0.151859028032E+04   -0.14838E+00   -0.14860E+00   624   0.282E+01-0.857E-01
CGA:  43    -0.151879686455E+04   -0.20658E+00   -0.21053E+00   624   0.539E+01-0.457E+00
CGA:  44    -0.151892322676E+04   -0.12636E+00   -0.12391E+00   624   0.209E+01-0.408E+00
CGA:  45    -0.151901290609E+04   -0.89679E-01   -0.94327E-01   624   0.210E+01-0.159E+00
CGA:  46    -0.151910624952E+04   -0.93343E-01   -0.87826E-01   624   0.263E+01-0.199E+00
CGA:  47    -0.151927675172E+04   -0.17050E+00   -0.17145E+00   624   0.280E+01-0.244E+00
CGA:  48    -0.151938955869E+04   -0.11281E+00   -0.11896E+00   624   0.148E+01-0.137E+00
CGA:  49    -0.151945702379E+04   -0.67465E-01   -0.67242E-01   624   0.881E+00-0.145E+00
CGA:  50    -0.151956320048E+04   -0.10618E+00   -0.13785E+00   624   0.217E+01-0.276E+00
CGA:  51    -0.151963684565E+04   -0.73645E-01   -0.68914E-01   624   0.121E+01-0.247E+00
CGA:  52    -0.151973779371E+04   -0.10095E+00   -0.10235E+00   624   0.101E+01-0.990E-01
CGA:  53    -0.151981297447E+04   -0.75181E-01   -0.76060E-01   624   0.116E+01-0.123E+00
CGA:  54    -0.151986407037E+04   -0.51096E-01   -0.44730E-01   624   0.833E+00-0.684E-01
CGA:  55    -0.151997382853E+04   -0.10976E+00   -0.16898E+00   624   0.104E+01-0.366E+00
CGA:  56    -0.152001009088E+04   -0.36262E-01   -0.36527E-01   624   0.684E+00-0.633E-01
CGA:  57    -0.152005069775E+04   -0.40607E-01   -0.37908E-01   624   0.641E+00-0.414E-01
CGA:  58    -0.152010121922E+04   -0.50521E-01   -0.50630E-01   624   0.538E+00-0.205E-01
CGA:  59    -0.152015331636E+04   -0.52097E-01   -0.51685E-01   624   0.814E+00 0.103E-01
CGA:  60    -0.152019651163E+04   -0.43195E-01   -0.42269E-01   624   0.541E+00 0.462E-01
CGA:  61    -0.152025462406E+04   -0.58112E-01   -0.57693E-01   624   0.446E+00 0.319E-01
CGA:  62    -0.152027725232E+04   -0.22628E-01   -0.23989E-01   624   0.338E+00 0.213E-02
CGA:  63    -0.152030813047E+04   -0.30878E-01   -0.30547E-01   624   0.289E+00 0.360E-01
CGA:  64    -0.152035771913E+04   -0.49589E-01   -0.46064E-01   624   0.236E+00 0.555E-01
CGA:  65    -0.152039396739E+04   -0.36248E-01   -0.34906E-01   624   0.236E+00 0.362E-01
CGA:  66    -0.152041401354E+04   -0.20046E-01   -0.20254E-01   624   0.329E+00 0.429E-01
CGA:  67    -0.152044614706E+04   -0.32134E-01   -0.32102E-01   624   0.228E+00 0.476E-01
CGA:  68    -0.152046983684E+04   -0.23690E-01   -0.23465E-01   624   0.276E+00 0.207E-01
SDA:  69    -0.152049473110E+04   -0.24894E-01   -0.24883E-01   624   0.216E+00 0.393E-01
CGA:  70    -0.152053177280E+04   -0.37042E-01   -0.40975E-01   624   0.248E+00-0.357E-01
CGA:  71    -0.152056215414E+04   -0.30381E-01   -0.32232E-01   624   0.301E+00-0.288E-01
CGA:  72    -0.152059750667E+04   -0.35353E-01   -0.37047E-01   624   0.185E+00-0.285E-01
CGA:  73    -0.152063682956E+04   -0.39323E-01   -0.50081E-01   624   0.185E+00-0.459E-01
CGA:  74    -0.152066079010E+04   -0.23961E-01   -0.27568E-01   624   0.220E+00-0.355E-01
CGA:  75    -0.152068368846E+04   -0.22898E-01   -0.23508E-01   624   0.127E+00-0.333E-01
CGA:  76    -0.152070948301E+04   -0.25795E-01   -0.33446E-01   624   0.112E+00-0.383E-01
CGA:  77    -0.152073563228E+04   -0.26149E-01   -0.30591E-01   624   0.170E+00-0.177E-01
CGA:  78    -0.152076563399E+04   -0.30002E-01   -0.30374E-01   624   0.123E+00-0.709E-02
CGA:  79    -0.152078588753E+04   -0.20254E-01   -0.20118E-01   624   0.614E-01 0.529E-02
CGA:  80    -0.152080317282E+04   -0.17285E-01   -0.16619E-01   624   0.380E-01 0.544E-02
CGA:  81    -0.152081256550E+04   -0.93927E-02   -0.89883E-02   624   0.293E-01 0.559E-02
CGA:  82    -0.152081859186E+04   -0.60264E-02   -0.57363E-02   624   0.148E-01 0.131E-01
CGA:  83    -0.152082161585E+04   -0.30240E-02   -0.30747E-02   624   0.894E-02 0.912E-02
CGA:  84    -0.152082381839E+04   -0.22025E-02   -0.21969E-02   624   0.940E-02 0.205E-03
CGA:  85    -0.152082503791E+04   -0.12195E-02   -0.13185E-02   624   0.451E-02 0.593E-02
CGA:  86    -0.152082538477E+04   -0.34686E-03   -0.46314E-03   624   0.224E-02 0.239E-02
CGA:  87    -0.152082594396E+04   -0.55919E-03   -0.45969E-03   624   0.183E-02 0.181E-02
CGA:  88    -0.152082614113E+04   -0.19717E-03   -0.23645E-03   624   0.162E-02 0.164E-02
CGA:  89    -0.152082654851E+04   -0.40737E-03   -0.33120E-03   624   0.143E-02 0.146E-02
CGA:  90    -0.152082669949E+04   -0.15098E-03   -0.18459E-03   624   0.130E-02 0.131E-02
CGA:  91    -0.152082703076E+04   -0.33127E-03   -0.26839E-03   624   0.116E-02 0.119E-02
CGA:  92    -0.152082715029E+04   -0.11953E-03   -0.14950E-03   624   0.107E-02 0.108E-02
CGA:  93    -0.152082745317E+04   -0.30289E-03   -0.23733E-03   624   0.978E-03 0.979E-03
CGA:  94    -0.152082754360E+04   -0.90424E-04   -0.12117E-03   624   0.904E-03 0.898E-03
CGA:  95    -0.152082785758E+04   -0.31398E-03   -0.23184E-03   624   0.854E-03 0.818E-03
CGA:  96    -0.152082791605E+04   -0.58463E-04   -0.95712E-04   624   0.776E-03 0.757E-03
CGA:  97    -0.152082826761E+04   -0.35157E-03   -0.24374E-03   624   0.777E-03 0.690E-03
CGA:  98    -0.152082830073E+04   -0.33112E-04   -0.76824E-04   624   0.669E-03 0.648E-03
CGA:  99    -0.152082868497E+04   -0.38424E-03   -0.25370E-03   624   0.688E-03 0.601E-03
CGA: 100    -0.152082871190E+04   -0.26933E-04   -0.68393E-04   624   0.585E-03 0.559E-03
CGA: 101    -0.152082928043E+04   -0.56853E-03   -0.35369E-03   624   0.808E-03 0.488E-03
CGA: 102    -0.152082927761E+04    0.28219E-05   -0.58029E-04   624   0.493E-03 0.522E-03
CGA: 103    -0.152082947276E+04   -0.19515E-03   -0.14459E-03   624   0.480E-03 0.469E-03
CGA: 104    -0.152082966912E+04   -0.19637E-03    0.67072E-03   624   0.482E-03 0.428E-03
CGA: 105    -0.152082971729E+04   -0.48172E-04   -0.68376E-04   624   0.457E-03 0.409E-03
CGA: 106    -0.152082991462E+04   -0.19732E-03    0.30591E-03   624   0.465E-03 0.392E-03
CGA: 107    -0.152082994848E+04   -0.33863E-04   -0.58288E-04   624   0.425E-03 0.385E-03
CGA: 108    -0.152083012818E+04   -0.17970E-03    0.28834E-03   624   0.426E-03 0.379E-03
CGA: 109    -0.152083017445E+04   -0.46271E-04   -0.61390E-04   624   0.406E-03 0.365E-03
CGA: 110    -0.152083035354E+04   -0.17909E-03    0.18703E-03   624   0.410E-03 0.351E-03
CGA: 111    -0.152083038794E+04   -0.34401E-04   -0.53058E-04   624   0.380E-03 0.345E-03
CGA: 112    -0.152083055189E+04   -0.16395E-03    0.17921E-03   624   0.379E-03 0.340E-03
CGA: 113    -0.152083059639E+04   -0.44504E-04   -0.55648E-04   624   0.364E-03 0.328E-03
CGA: 114    -0.152083075913E+04   -0.16274E-03    0.13137E-03   624   0.364E-03 0.317E-03
CGA: 115    -0.152083079297E+04   -0.33843E-04   -0.48323E-04   624   0.341E-03 0.311E-03
CGA: 116    -0.152083094225E+04   -0.14928E-03    0.12788E-03   624   0.339E-03 0.307E-03
CGA: 117    -0.152083098479E+04   -0.42533E-04   -0.50654E-04   624   0.327E-03 0.296E-03
CGA: 118    -0.152083113276E+04   -0.14797E-03    0.99389E-04   624   0.326E-03 0.287E-03
CGA: 119    -0.152083116523E+04   -0.32466E-04   -0.43937E-04   624   0.307E-03 0.282E-03
CGA: 120    -0.152083130094E+04   -0.13571E-03    0.98227E-04   624   0.304E-03 0.278E-03
CGA: 121    -0.152083134148E+04   -0.40537E-04   -0.46289E-04   624   0.295E-03 0.269E-03
CGA: 122    -0.152083147619E+04   -0.13472E-03    0.78553E-04   624   0.293E-03 0.260E-03
CGA: 123    -0.152083150690E+04   -0.30707E-04   -0.39942E-04   624   0.278E-03 0.256E-03
CGA: 124    -0.152083163025E+04   -0.12335E-03    0.78898E-04   624   0.274E-03 0.252E-03
CGA: 125    -0.152083166881E+04   -0.38563E-04   -0.42448E-04   624   0.267E-03 0.245E-03
CGA: 126    -0.152083179167E+04   -0.12286E-03    0.63958E-04   624   0.264E-03 0.237E-03
CGA: 127    -0.152083182040E+04   -0.28729E-04   -0.36306E-04   624   0.252E-03 0.234E-03
CGA: 128    -0.152083193262E+04   -0.11221E-03    0.65269E-04   624   0.248E-03 0.230E-03
CGA: 129    -0.152083196933E+04   -0.36712E-04   -0.39087E-04   624   0.242E-03 0.223E-03
CGA: 130    -0.152083208173E+04   -0.11240E-03    0.53117E-04   624   0.239E-03 0.216E-03
CGA: 131    -0.152083210838E+04   -0.26647E-04   -0.33008E-04   624   0.229E-03 0.213E-03
CGA: 132    -0.152083221064E+04   -0.10227E-03    0.55218E-04   624   0.225E-03 0.210E-03
CGA: 133    -0.152083224574E+04   -0.35099E-04   -0.36202E-04   624   0.221E-03 0.204E-03
CGA: 134    -0.152083234902E+04   -0.10328E-03    0.44769E-04   624   0.218E-03 0.198E-03
CGA: 135    -0.152083237356E+04   -0.24545E-04   -0.30033E-04   624   0.209E-03 0.196E-03
CGA: 136    -0.152083246702E+04   -0.93460E-04    0.47578E-04   624   0.205E-03 0.193E-03
CGA: 137    -0.152083250076E+04   -0.33743E-04   -0.33750E-04   624   0.202E-03 0.187E-03
CGA: 138    -0.152083259617E+04   -0.95404E-04    0.38170E-04   624   0.199E-03 0.182E-03
CGA: 139    -0.152083261861E+04   -0.22442E-04   -0.27340E-04   624   0.191E-03 0.180E-03
CGA: 140    -0.152083270429E+04   -0.85681E-04    0.41665E-04   624   0.188E-03 0.178E-03
CGA: 141    -0.152083273704E+04   -0.32744E-04   -0.31734E-04   624   0.185E-03 0.173E-03
CGA: 142    -0.152083282574E+04   -0.88705E-04    0.32816E-04   624   0.183E-03 0.167E-03
CGA: 143    -0.152083284602E+04   -0.20282E-04   -0.24857E-04   624   0.176E-03 0.166E-03
CGA: 144    -0.152083292476E+04   -0.78739E-04    0.37110E-04   624   0.172E-03 0.164E-03
CGA: 145    -0.152083295696E+04   -0.32201E-04   -0.30163E-04   624   0.171E-03 0.160E-03
CGA: 146    -0.152083304004E+04   -0.83074E-04    0.28373E-04   624   0.169E-03 0.155E-03
CGA: 147    -0.152083305805E+04   -0.18012E-04   -0.22518E-04   624   0.162E-03 0.154E-03
CGA: 148    -0.152083313050E+04   -0.72449E-04    0.33662E-04   624   0.159E-03 0.153E-03
CGA: 149    -0.152083316278E+04   -0.32288E-04   -0.29086E-04   624   0.159E-03 0.148E-03
CGA: 150    -0.152083324124E+04   -0.78453E-04    0.24587E-04   624   0.156E-03 0.143E-03
CGA: 151    -0.152083325679E+04   -0.15547E-04   -0.20247E-04   624   0.150E-03 0.143E-03
CGA: 152    -0.152083332338E+04   -0.66595E-04    0.31253E-04   624   0.147E-03 0.142E-03
CGA: 153    -0.152083335681E+04   -0.33429E-04   -0.28688E-04   624   0.147E-03 0.138E-03
CGA: 154    -0.152083343170E+04   -0.74894E-04    0.21267E-04   624   0.146E-03 0.132E-03
CGA: 155    -0.152083344443E+04   -0.12729E-04   -0.17943E-04   624   0.139E-03 0.133E-03
CGA: 156    -0.152083350534E+04   -0.60903E-04    0.30087E-04   624   0.136E-03 0.133E-03
CGA: 157    -0.152083354194E+04   -0.36601E-04   -0.29441E-04   624   0.138E-03 0.128E-03
CGA: 158    -0.152083361463E+04   -0.72696E-04    0.18232E-04   624   0.136E-03 0.122E-03
CGA: 159    -0.152083362398E+04   -0.93481E-05   -0.15497E-04   624   0.128E-03 0.124E-03
CGA: 160    -0.152083367896E+04   -0.54982E-04    0.31068E-04   624   0.126E-03 0.124E-03
CGA: 161    -0.152083372402E+04   -0.45059E-04   -0.32985E-04   624   0.129E-03 0.120E-03
CGA: 162    -0.152083379681E+04   -0.72789E-04    0.15331E-04   624   0.128E-03 0.112E-03
CGA: 163    -0.152083380173E+04   -0.49243E-05   -0.12702E-04   624   0.118E-03 0.116E-03
CGA: 164    -0.152083384956E+04   -0.47825E-04    0.39772E-04   624   0.117E-03 0.116E-03
CGA: 165    -0.152083392987E+04   -0.80309E-04   -0.50271E-04   624   0.122E-03 0.111E-03
CGA: 166    -0.152083401038E+04   -0.80512E-04    0.12377E-04   624   0.126E-03 0.955E-04
CGA: 167    -0.152083400818E+04    0.21970E-05   -0.91119E-05   624   0.108E-03 0.110E-03
CGA: 168    -0.152083422536E+04   -0.21717E-03   -0.16453E-02   624   0.118E-03 0.992E-04
CGA: 169    -0.152083437362E+04   -0.14826E-03    0.18061E-04   624   0.284E-03 0.264E-04
CGA: 170    -0.152083473671E+04   -0.36310E-03   -0.25547E-03   624   0.122E-03 0.241E-03
CGA: 171    -0.152083490669E+04   -0.16998E-03    0.18352E-04   624   0.635E-03-0.122E-03
CGA: 172    -0.152083487317E+04    0.33518E-04   -0.32615E-04   624   0.135E-03 0.269E-03
CGA: 173    -0.152083485172E+04    0.21457E-04   -0.69083E-05   624   0.645E-04 0.106E-03
CGA: 174    -0.152083484846E+04    0.32588E-05   -0.73059E-05   624   0.583E-04 0.553E-04
CGA: 175    -0.152083490579E+04   -0.57337E-04    0.12852E-04   624   0.619E-04 0.532E-04
CGA: 176    -0.152083490110E+04    0.46924E-05   -0.58737E-05   624   0.540E-04 0.530E-04
CGA: 177    -0.152083494460E+04   -0.43502E-04    0.18577E-04   624   0.528E-04 0.520E-04
CGA: 178    -0.152083495294E+04   -0.83412E-05   -0.11542E-04   624   0.537E-04 0.481E-04
   1 F= -.15208350E+04 E0= -.15208343E+04  d E =-.152083E+04  mag=    16.0000
       N       E                     dE             d eps       ncg     rms          ort
SDA:   1    -0.152089487061E+04   -0.59926E-01    0.00000E+00   624   0.162E-01 0.000E+00
CGA:   2    -0.152089806359E+04   -0.31930E-02   -0.30766E-02   624   0.899E-02-0.154E-02
CGA:   3    -0.152089877662E+04   -0.71302E-03   -0.89137E-03   624   0.177E-02 0.143E-02
CGA:   4    -0.152089905114E+04   -0.27453E-03   -0.31296E-03   624   0.116E-02 0.356E-03
CGA:   5    -0.152089941402E+04   -0.36287E-03   -0.39829E-03   624   0.228E-02-0.147E-02
CGA:   6    -0.152089946795E+04   -0.53936E-04   -0.17130E-03   624   0.414E-03 0.707E-03
CGA:   7    -0.152089948233E+04   -0.14373E-04   -0.48960E-04   624   0.182E-03 0.212E-03
CGA:   8    -0.152089961144E+04   -0.12911E-03    0.50973E-04   624   0.307E-03-0.679E-04
CGA:   9    -0.152089961385E+04   -0.24105E-05   -0.17256E-04   624   0.207E-03 0.951E-04
CGA:  10    -0.152089959625E+04    0.17595E-04   -0.11156E-04   624   0.814E-04 0.151E-03
CGA:  11    -0.152089959178E+04    0.44735E-05   -0.50386E-05   624   0.476E-04 0.576E-04
CGA:  12    -0.152089961942E+04   -0.27645E-04   -0.25017E-04   624   0.758E-04 0.838E-05
CGA:  13    -0.152089972593E+04   -0.10650E-03    0.68504E-05   624   0.938E-04 0.313E-04
CGA:  14    -0.152089987029E+04   -0.14437E-03   -0.13689E-03   624   0.227E-03 0.438E-05
CGA:  15    -0.152090011142E+04   -0.24113E-03    0.39066E-04   624   0.240E-03-0.338E-05
CGA:  16    -0.152090015105E+04   -0.39629E-04   -0.43878E-04   624   0.550E-04 0.405E-04
CGA:  17    -0.152090017172E+04   -0.20674E-04   -0.19592E-04   624   0.514E-04 0.302E-04
CGA:  18    -0.152090024010E+04   -0.68381E-04    0.48796E-05   624   0.111E-03-0.129E-04
CGA:  19    -0.152090024053E+04   -0.42697E-06   -0.97467E-05   624   0.997E-04 0.595E-04
   2 F= -.15209002E+04 E0= -.15208997E+04  d E =-.652876E-01  mag=    16.0000
       N       E                     dE             d eps       ncg     rms          ort
SDA:   1    -0.151154417498E+04    0.93561E+01    0.00000E+00   624   0.369E+02 0.000E+00
CGA:   2    -0.152043963029E+04   -0.88955E+01   -0.88958E+01   624   0.816E+01-0.553E-01
CGA:   3    -0.152258935211E+04   -0.21497E+01   -0.21502E+01   624   0.242E+01-0.528E-01
CGA:   4    -0.152307137492E+04   -0.48202E+00   -0.48156E+00   624   0.655E+00-0.360E-02
CGA:   5    -0.152321747400E+04   -0.14610E+00   -0.14595E+00   624   0.210E+00-0.716E-02
CGA:   6    -0.152327725821E+04   -0.59784E-01   -0.59747E-01   624   0.972E-01 0.139E-02
CGA:   7    -0.152330774147E+04   -0.30483E-01   -0.30636E-01   624   0.468E-01-0.248E-02
CGA:   8    -0.152331970392E+04   -0.11962E-01   -0.11948E-01   624   0.165E-01 0.211E-02
CGA:   9    -0.152332483512E+04   -0.51312E-02   -0.51971E-02   624   0.818E-02-0.140E-02
CGA:  10    -0.152332663052E+04   -0.17954E-02   -0.18048E-02   624   0.303E-02 0.622E-03
CGA:  11    -0.152332786560E+04   -0.12351E-02   -0.13742E-02   624   0.241E-02-0.839E-03
CGA:  12    -0.152332830808E+04   -0.44248E-03   -0.44468E-03   624   0.109E-02 0.225E-03
CGA:  13    -0.152332862649E+04   -0.31841E-03   -0.31840E-03   624   0.387E-03 0.248E-05
CGA:  14    -0.152332876646E+04   -0.13997E-03   -0.18314E-03   624   0.438E-03-0.208E-03
CGA:  15    -0.152332879461E+04   -0.28154E-04   -0.53359E-04   624   0.121E-03 0.168E-03
CGA:  16    -0.152332882107E+04   -0.26462E-04   -0.30560E-04   624   0.616E-04 0.489E-04
CGA:  17    -0.152332886971E+04   -0.48636E-04    0.16256E-03   624   0.638E-04-0.522E-05
CGA:  18    -0.152332889151E+04   -0.21802E-04   -0.21093E-04   624   0.102E-03 0.635E-05
CGA:  19    -0.152332890324E+04   -0.11725E-04   -0.17778E-04   624   0.847E-04 0.545E-04
CGA:  20    -0.152332895305E+04   -0.49819E-04    0.90448E-04   624   0.324E-04 0.351E-04
CGA:  21    -0.152332895917E+04   -0.61137E-05   -0.82693E-05   624   0.174E-04 0.264E-04
   3 F= -.15233290E+04 E0= -.15233290E+04  d E =-.242872E+01  mag=    16.0000
       N       E                     dE             d eps       ncg     rms          ort
SDA:   1    -0.151218685014E+04    0.11142E+02    0.00000E+00   624   0.410E+02 0.000E+00
CGA:   2    -0.152144780010E+04   -0.92609E+01   -0.92673E+01   624   0.861E+01 0.383E-01
CGA:   3    -0.152373964206E+04   -0.22918E+01   -0.22924E+01   624   0.254E+01-0.543E-01
CGA:   4    -0.152425078865E+04   -0.51115E+00   -0.51056E+00   624   0.639E+00-0.110E-01
CGA:   5    -0.152438832179E+04   -0.13753E+00   -0.13753E+00   624   0.189E+00-0.129E-03
CGA:   6    -0.152444364324E+04   -0.55321E-01   -0.55291E-01   624   0.886E-01 0.709E-03
CGA:   7    -0.152447332104E+04   -0.29678E-01   -0.29781E-01   624   0.449E-01-0.126E-02
CGA:   8    -0.152448756739E+04   -0.14246E-01   -0.14313E-01   624   0.170E-01-0.985E-03
CGA:   9    -0.152449309791E+04   -0.55305E-02   -0.55861E-02   624   0.648E-02-0.739E-03
CGA:  10    -0.152449515599E+04   -0.20581E-02   -0.20628E-02   624   0.278E-02-0.688E-04
CGA:  11    -0.152449610676E+04   -0.95077E-03   -0.97850E-03   624   0.198E-02-0.311E-03
CGA:  12    -0.152449648672E+04   -0.37996E-03   -0.38766E-03   624   0.740E-03 0.156E-03
CGA:  13    -0.152449678690E+04   -0.30018E-03   -0.32495E-03   624   0.494E-03-0.182E-03
CGA:  14    -0.152449691409E+04   -0.12719E-03   -0.13808E-03   624   0.502E-03-0.116E-03
CGA:  15    -0.152449699746E+04   -0.83371E-04   -0.86840E-04   624   0.271E-03 0.630E-04
CGA:  16    -0.152449709803E+04   -0.10057E-03   -0.98931E-04   624   0.318E-03 0.359E-04
CGA:  17    -0.152449723454E+04   -0.13651E-03   -0.14393E-03   624   0.393E-03-0.617E-04
CGA:  18    -0.152449736704E+04   -0.13250E-03   -0.13668E-03   624   0.572E-03-0.278E-04
CGA:  19    -0.152449756188E+04   -0.19484E-03   -0.23033E-03   624   0.809E-03-0.249E-03
CGA:  20    -0.152449770691E+04   -0.14503E-03   -0.15280E-03   624   0.798E-03-0.218E-03
CGA:  21    -0.152449781283E+04   -0.10592E-03   -0.11261E-03   624   0.597E-03 0.772E-04
CGA:  22    -0.152449792464E+04   -0.11181E-03   -0.12775E-03   624   0.350E-03 0.158E-03
CGA:  23    -0.152449800565E+04   -0.81012E-04   -0.88976E-04   624   0.231E-03 0.850E-04
CGA:  24    -0.152449806511E+04   -0.59462E-04   -0.64892E-04   624   0.182E-03 0.838E-04
CGA:  25    -0.152449809940E+04   -0.34289E-04   -0.44559E-04   624   0.130E-03 0.951E-04
CGA:  26    -0.152449815460E+04   -0.55201E-04   -0.51653E-04   624   0.107E-03 0.304E-04
CGA:  27    -0.152449819303E+04   -0.38428E-04   -0.38256E-04   624   0.682E-04 0.423E-04
CGA:  28    -0.152449824115E+04   -0.48118E-04   -0.39773E-04   624   0.523E-04 0.625E-04
CGA:  29    -0.152449824476E+04   -0.36060E-05   -0.82755E-05   624   0.329E-04 0.348E-04
CGA:  30    -0.152449825725E+04   -0.12494E-04   -0.11132E-04   624   0.261E-04 0.256E-04
CGA:  31    -0.152449826313E+04   -0.58852E-05   -0.66239E-05   624   0.247E-04 0.214E-04
   4 F= -.15244983E+04 E0= -.15244983E+04  d E =-.116930E+01  mag=    16.0000
       N       E                     dE             d eps       ncg     rms          ort
SDA:   1    -0.151867235677E+04    0.58259E+01    0.00000E+00   624   0.200E+02 0.000E+00
CGA:   2    -0.152322742753E+04   -0.45551E+01   -0.45947E+01   624   0.456E+01 0.893E-01
CGA:   3    -0.152444999415E+04   -0.12226E+01   -0.12198E+01   624   0.134E+01 0.490E-02
CGA:   4    -0.152471435521E+04   -0.26436E+00   -0.26446E+00   624   0.322E+00-0.306E-02
CGA:   5    -0.152478257769E+04   -0.68222E-01   -0.68282E-01   624   0.902E-01 0.396E-03
CGA:   6    -0.152480906522E+04   -0.26488E-01   -0.26477E-01   624   0.444E-01-0.471E-04
CGA:   7    -0.152482368636E+04   -0.14621E-01   -0.14630E-01   624   0.235E-01 0.787E-04
CGA:   8    -0.152483133210E+04   -0.76457E-02   -0.76282E-02   624   0.970E-02-0.126E-03
CGA:   9    -0.152483426691E+04   -0.29348E-02   -0.29318E-02   624   0.383E-02-0.882E-05
CGA:  10    -0.152483537139E+04   -0.11045E-02   -0.10968E-02   624   0.168E-02-0.429E-04
CGA:  11    -0.152483579094E+04   -0.41955E-03   -0.44422E-03   624   0.730E-03 0.156E-03
CGA:  12    -0.152483606884E+04   -0.27790E-03   -0.28087E-03   624   0.433E-03 0.430E-04
CGA:  13    -0.152483619002E+04   -0.12118E-03   -0.13629E-03   624   0.251E-03 0.123E-03
CGA:  14    -0.152483631635E+04   -0.12633E-03   -0.12770E-03   624   0.223E-03 0.784E-04
CGA:  15    -0.152483640968E+04   -0.93337E-04   -0.10391E-03   624   0.221E-03 0.181E-03
CGA:  16    -0.152483648508E+04   -0.75398E-04   -0.79261E-04   624   0.149E-03 0.757E-04
CGA:  17    -0.152483656052E+04   -0.75440E-04   -0.77297E-04   624   0.193E-03 0.892E-04
CGA:  18    -0.152483659377E+04   -0.33253E-04   -0.42602E-04   624   0.141E-03 0.505E-04
CGA:  19    -0.152483669693E+04   -0.10315E-03   -0.91937E-04   624   0.176E-03 0.899E-04
CGA:  20    -0.152483674349E+04   -0.46558E-04   -0.54197E-04   624   0.104E-03 0.788E-04
CGA:  21    -0.152483683089E+04   -0.87407E-04   -0.77059E-04   624   0.182E-03 0.847E-04
CGA:  22    -0.152483687105E+04   -0.40151E-04   -0.49315E-04   624   0.127E-03 0.681E-04
CGA:  23    -0.152483699981E+04   -0.12877E-03   -0.11523E-03   624   0.305E-03 0.445E-04
CGA:  24    -0.152483740493E+04   -0.40512E-03   -0.29099E-03   624   0.593E-03 0.330E-03
CGA:  25    -0.152483762326E+04   -0.21833E-03   -0.21857E-03   624   0.298E-03 0.310E-05
CGA:  26    -0.152483766382E+04   -0.40562E-04   -0.56889E-04   624   0.135E-03 0.698E-04
CGA:  27    -0.152483784951E+04   -0.18568E-03   -0.14149E-03   624   0.515E-03 0.904E-04
CGA:  28    -0.152483795682E+04   -0.10732E-03   -0.97510E-04   624   0.195E-03-0.382E-04
CGA:  29    -0.152483812614E+04   -0.16932E-03   -0.14650E-03   624   0.339E-03 0.525E-04
CGA:  30    -0.152483839911E+04   -0.27297E-03   -0.49026E-03   624   0.517E-02-0.352E-03
CGA:  31    -0.152483898101E+04   -0.58189E-03   -0.63979E-03   624   0.277E-03 0.273E-03
CGA:  32    -0.152483909803E+04   -0.11703E-03   -0.11841E-03   624   0.317E-03 0.258E-04
CGA:  33    -0.152483923528E+04   -0.13725E-03   -0.13589E-03   624   0.313E-03-0.246E-04
CGA:  34    -0.152483958332E+04   -0.34804E-03   -0.46264E-03   624   0.354E-02-0.128E-03
CGA:  35    -0.152484039775E+04   -0.81443E-03   -0.54769E-03   624   0.499E-02-0.457E-03
CGA:  36    -0.152484115424E+04   -0.75650E-03   -0.46373E-03   624   0.348E-02 0.894E-03
CGA:  37    -0.152484187285E+04   -0.71860E-03   -0.58055E-03   624   0.329E-02-0.202E-03
CGA:  38    -0.152484221000E+04   -0.33716E-03   -0.34220E-03   624   0.228E-02-0.480E-03
CGA:  39    -0.152484236418E+04   -0.15417E-03   -0.16361E-03   624   0.128E-02-0.175E-03
CGA:  40    -0.152484246490E+04   -0.10073E-03   -0.11412E-03   624   0.101E-02-0.231E-04
CGA:  41    -0.152484256092E+04   -0.96016E-04   -0.11060E-03   624   0.870E-03 0.192E-04
CGA:  42    -0.152484262651E+04   -0.65588E-04   -0.84788E-04   624   0.623E-03 0.549E-04
CGA:  43    -0.152484265344E+04   -0.26930E-04   -0.61861E-04   624   0.563E-03 0.117E-03
CGA:  44    -0.152484265693E+04   -0.34914E-05   -0.63545E-04   624   0.543E-03 0.216E-03
CGA:  45    -0.152484264345E+04    0.13483E-04   -0.64031E-04   624   0.374E-03 0.286E-03
CGA:  46    -0.152484269010E+04   -0.46654E-04   -0.67075E-04   624   0.163E-03 0.132E-03
CGA:  47    -0.152484271885E+04   -0.28753E-04   -0.45330E-04   624   0.108E-03 0.134E-03
CGA:  48    -0.152484273240E+04   -0.13546E-04   -0.21164E-04   624   0.713E-04 0.602E-04
CGA:  49    -0.152484273241E+04   -0.12311E-07   -0.10320E-04   624   0.590E-04 0.604E-04
CGA:  50    -0.152484273654E+04   -0.41269E-05   -0.10872E-04   624   0.521E-04 0.548E-04
   5 F= -.15248427E+04 E0= -.15248427E+04  d E =-.344473E+00  mag=    16.0000
       N       E                     dE             d eps       ncg     rms          ort
SDA:   1    -0.152016391641E+04    0.46788E+01    0.00000E+00   624   0.145E+02 0.000E+00
CGA:   2    -0.152358850126E+04   -0.34246E+01   -0.34246E+01   624   0.436E+01-0.892E-02
CGA:   3    -0.152465316223E+04   -0.10647E+01   -0.10647E+01   624   0.124E+01-0.218E-02
CGA:   4    -0.152488148824E+04   -0.22833E+00   -0.22853E+00   624   0.247E+00 0.261E-02
CGA:   5    -0.152493450988E+04   -0.53022E-01   -0.53038E-01   624   0.663E-01 0.208E-03
CGA:   6    -0.152495268003E+04   -0.18170E-01   -0.18169E-01   624   0.294E-01-0.172E-03
CGA:   7    -0.152496229314E+04   -0.96131E-02   -0.96327E-02   624   0.156E-01-0.401E-03
CGA:   8    -0.152496752548E+04   -0.52323E-02   -0.52393E-02   624   0.708E-02-0.121E-03
CGA:   9    -0.152496963298E+04   -0.21075E-02   -0.21050E-02   624   0.272E-02 0.188E-03
CGA:  10    -0.152497045573E+04   -0.82275E-03   -0.82436E-03   624   0.132E-02-0.177E-03
CGA:  11    -0.152497076229E+04   -0.30656E-03   -0.30898E-03   624   0.519E-03 0.695E-04
CGA:  12    -0.152497097616E+04   -0.21387E-03   -0.22019E-03   624   0.322E-03-0.546E-04
CGA:  13    -0.152497107029E+04   -0.94127E-04   -0.92139E-04   624   0.160E-03 0.673E-04
CGA:  14    -0.152497114366E+04   -0.73369E-04   -0.71344E-04   624   0.114E-03 0.254E-04
CGA:  15    -0.152497119120E+04   -0.47545E-04   -0.45018E-04   624   0.903E-04 0.534E-04
CGA:  16    -0.152497124912E+04   -0.57916E-04   -0.52647E-04   624   0.775E-04 0.515E-04
CGA:  17    -0.152497127404E+04   -0.24920E-04   -0.63320E-04   624   0.318E-03-0.751E-04
CGA:  18    -0.152497130416E+04   -0.30122E-04   -0.42739E-04   624   0.521E-04 0.663E-04
CGA:  19    -0.152497131829E+04   -0.14124E-04   -0.15112E-04   624   0.272E-04 0.123E-04
CGA:  20    -0.152497130601E+04    0.12276E-04   -0.38275E-04   624   0.501E-03-0.621E-04
CGA:  21    -0.152497135453E+04   -0.48524E-04   -0.64996E-04   624   0.623E-04 0.764E-04
CGA:  22    -0.152497137483E+04   -0.20292E-04   -0.20522E-04   624   0.282E-04 0.380E-05
CGA:  23    -0.152497127173E+04    0.10310E-03   -0.40328E-04   624   0.117E-02-0.142E-03
CGA:  24    -0.152497139109E+04   -0.11936E-03   -0.14735E-03   624   0.863E-04 0.118E-03
CGA:  25    -0.152497141550E+04   -0.24403E-04   -0.25728E-04   624   0.351E-04 0.123E-04
CGA:  26    -0.152497142990E+04   -0.14405E-04   -0.13354E-04   624   0.400E-04-0.256E-04
CGA:  27    -0.152497143056E+04   -0.66285E-06   -0.45103E-05   624   0.103E-04 0.150E-04
   6 F= -.15249714E+04 E0= -.15249714E+04  d E =-.128694E+00  mag=    16.0000
       N       E                     dE             d eps       ncg     rms          ort
SDA:   1    -0.151478994060E+04    0.10181E+02    0.00000E+00   624   0.260E+02 0.000E+00
CGA:   2    -0.152235509496E+04   -0.75652E+01   -0.75614E+01   624   0.989E+01-0.256E-01
CGA:   3    -0.152445778561E+04   -0.21027E+01   -0.21082E+01   624   0.211E+01 0.547E-03
CGA:   4    -0.152484008783E+04   -0.38230E+00   -0.38260E+00   624   0.413E+00 0.102E-01
CGA:   5    -0.152493060595E+04   -0.90518E-01   -0.90584E-01   624   0.108E+00 0.636E-03
CGA:   6    -0.152495854903E+04   -0.27943E-01   -0.27936E-01   624   0.376E-01-0.634E-04
CGA:   7    -0.152496970266E+04   -0.11154E-01   -0.11154E-01   624   0.170E-01 0.387E-04
CGA:   8    -0.152497530271E+04   -0.56001E-02   -0.56044E-02   624   0.833E-02-0.486E-03
CGA:   9    -0.152497743522E+04   -0.21325E-02   -0.21621E-02   624   0.309E-02 0.572E-03
CGA:  10    -0.152497844512E+04   -0.10099E-02   -0.10067E-02   624   0.145E-02-0.232E-03
CGA:  11    -0.152497877254E+04   -0.32742E-03   -0.34066E-03   624   0.538E-03 0.210E-03
CGA:  12    -0.152497899921E+04   -0.22667E-03   -0.22617E-03   624   0.313E-03 0.920E-05
CGA:  13    -0.152497912999E+04   -0.13078E-03   -0.13045E-03   624   0.227E-03 0.277E-05
CGA:  14    -0.152497917112E+04   -0.41130E-04   -0.49723E-04   624   0.108E-03 0.821E-04
CGA:  15    -0.152497921443E+04   -0.43304E-04   -0.43892E-04   624   0.705E-04 0.331E-04
CGA:  16    -0.152497925270E+04   -0.38268E-04   -0.37220E-04   624   0.986E-04 0.111E-04
CGA:  17    -0.152497927091E+04   -0.18213E-04   -0.24382E-04   624   0.738E-04 0.568E-04
CGA:  18    -0.152497930246E+04   -0.31555E-04   -0.31590E-04   624   0.527E-04-0.399E-06
CGA:  19    -0.152497930908E+04   -0.66187E-05   -0.38970E-04   624   0.357E-03-0.762E-04
CGA:  20    -0.152497934066E+04   -0.31574E-04   -0.43595E-04   624   0.385E-04 0.571E-04
CGA:  21    -0.152497934771E+04   -0.70507E-05   -0.92089E-05   624   0.256E-04 0.173E-04
CGA:  22    -0.152497935898E+04   -0.11278E-04   -0.11302E-04   624   0.167E-04 0.114E-05
CGA:  23    -0.152497936198E+04   -0.29993E-05   -0.40610E-05   624   0.182E-04 0.117E-04
   7 F= -.15249794E+04 E0= -.15249794E+04  d E =-.793142E-02  mag=    16.0000
       N       E                     dE             d eps       ncg     rms          ort
SDA:   1    -0.152178840623E+04    0.31910E+01    0.00000E+00   624   0.836E+01 0.000E+00
CGA:   2    -0.152437023738E+04   -0.25818E+01   -0.25818E+01   624   0.302E+01-0.480E-02
CGA:   3    -0.152497820575E+04   -0.60797E+00   -0.60794E+00   624   0.649E+00 0.218E-02
CGA:   4    -0.152510275899E+04   -0.12455E+00   -0.12469E+00   624   0.124E+00 0.741E-03
CGA:   5    -0.152512940370E+04   -0.26645E-01   -0.26634E-01   624   0.327E-01-0.800E-04
CGA:   6    -0.152513731799E+04   -0.79143E-02   -0.79004E-02   624   0.105E-01-0.209E-03
CGA:   7    -0.152514034905E+04   -0.30311E-02   -0.30257E-02   624   0.421E-02-0.445E-03
CGA:   8    -0.152514170786E+04   -0.13588E-02   -0.13717E-02   624   0.196E-02-0.338E-03
CGA:   9    -0.152514225002E+04   -0.54216E-03   -0.54162E-03   624   0.763E-03-0.158E-03
CGA:  10    -0.152514246291E+04   -0.21289E-03   -0.21282E-03   624   0.360E-03-0.124E-03
CGA:  11    -0.152514256198E+04   -0.99067E-04   -0.10184E-03   624   0.231E-03-0.802E-04
CGA:  12    -0.152514131232E+04    0.12497E-02   -0.67350E-03   624   0.842E-02-0.944E-03
CGA:  13    -0.152514247808E+04   -0.11658E-02   -0.12311E-02   624   0.114E-02 0.280E-03
CGA:  14    -0.152514280752E+04   -0.32943E-03   -0.32178E-03   624   0.236E-03-0.274E-04
CGA:  15    -0.152514287152E+04   -0.64002E-04   -0.72557E-04   624   0.736E-04 0.412E-04
CGA:  16    -0.152514290152E+04   -0.30001E-04   -0.30819E-04   624   0.457E-04 0.532E-05
CGA:  17    -0.152514290556E+04   -0.40421E-05   -0.10280E-04   624   0.197E-04 0.211E-04
   8 F= -.15251429E+04 E0= -.15251429E+04  d E =-.163544E+00  mag=    16.0000
       N       E                     dE             d eps       ncg     rms          ort
SDA:   1    -0.152233360667E+04    0.28093E+01    0.00000E+00   624   0.725E+01 0.000E+00
CGA:   2    -0.152456969644E+04   -0.22361E+01   -0.22349E+01   624   0.231E+01-0.123E-01
CGA:   3    -0.152507716312E+04   -0.50747E+00   -0.50914E+00   624   0.474E+00 0.615E-02
CGA:   4    -0.152516605514E+04   -0.88892E-01   -0.89531E-01   624   0.986E-01 0.244E-02
CGA:   5    -0.152518697866E+04   -0.20924E-01   -0.20958E-01   624   0.249E-01 0.183E-03
CGA:   6    -0.152519338084E+04   -0.64022E-02   -0.63509E-02   624   0.853E-02-0.291E-03
CGA:   7    -0.152519594299E+04   -0.25621E-02   -0.25375E-02   624   0.379E-02-0.203E-03
CGA:   8    -0.152519710210E+04   -0.11591E-02   -0.11718E-02   624   0.155E-02 0.129E-03
CGA:   9    -0.152519756285E+04   -0.46075E-03   -0.47526E-03   624   0.539E-03 0.128E-03
CGA:  10    -0.152519775221E+04   -0.18936E-03   -0.18773E-03   624   0.254E-03-0.187E-04
CGA:  11    -0.152519783610E+04   -0.83892E-04   -0.82657E-04   624   0.152E-03-0.188E-04
CGA:  12    -0.152519789756E+04   -0.61455E-04   -0.64419E-04   624   0.164E-03-0.502E-04
CGA:  13    -0.152519791633E+04   -0.18775E-04   -0.23177E-04   624   0.771E-04 0.233E-04
CGA:  14    -0.152519793282E+04   -0.16491E-04   -0.19415E-04   624   0.450E-04 0.170E-04
CGA:  15    -0.152519795203E+04   -0.19203E-04   -0.18488E-04   624   0.456E-04-0.155E-04
CGA:  16    -0.152519795815E+04   -0.61221E-05   -0.69598E-05   624   0.401E-04 0.551E-05
   9 F= -.15251980E+04 E0= -.15251980E+04  d E =-.550526E-01  mag=    16.0000
       N       E                     dE             d eps       ncg     rms          ort
SDA:   1    -0.152138426234E+04    0.38137E+01    0.00000E+00   624   0.941E+01 0.000E+00
CGA:   2    -0.152444616715E+04   -0.30619E+01   -0.30614E+01   624   0.303E+01-0.114E-01
CGA:   3    -0.152507069073E+04   -0.62452E+00   -0.62564E+00   624   0.618E+00 0.316E-02
CGA:   4    -0.152518506181E+04   -0.11437E+00   -0.11482E+00   624   0.122E+00 0.515E-02
CGA:   5    -0.152521179841E+04   -0.26737E-01   -0.26706E-01   624   0.299E-01-0.180E-03
CGA:   6    -0.152521913325E+04   -0.73348E-02   -0.73118E-02   624   0.912E-02-0.238E-03
CGA:   7    -0.152522168496E+04   -0.25517E-02   -0.25534E-02   624   0.362E-02 0.348E-04
CGA:   8    -0.152522279379E+04   -0.11088E-02   -0.11141E-02   624   0.148E-02 0.202E-03
CGA:   9    -0.152522318642E+04   -0.39263E-03   -0.41048E-03   624   0.511E-03 0.263E-03
CGA:  10    -0.152522337253E+04   -0.18611E-03   -0.18600E-03   624   0.250E-03-0.494E-05
CGA:  11    -0.152522342741E+04   -0.54882E-04   -0.60051E-04   624   0.992E-04 0.615E-04
CGA:  12    -0.152522347570E+04   -0.48294E-04   -0.47829E-04   624   0.804E-04 0.703E-05
CGA:  13    -0.152522350611E+04   -0.30412E-04   -0.29940E-04   624   0.657E-04 0.214E-04
CGA:  14    -0.152522352118E+04   -0.15066E-04   -0.18819E-04   624   0.341E-04 0.371E-04
CGA:  15    -0.152522350549E+04    0.15694E-04   -0.43823E-04   624   0.310E-03-0.621E-04
CGA:  16    -0.152522354279E+04   -0.37305E-04   -0.50114E-04   624   0.448E-04 0.622E-04
CGA:  17    -0.152522356230E+04   -0.19505E-04   -0.19642E-04   624   0.355E-04-0.238E-04
CGA:  18    -0.152522356576E+04   -0.34671E-05   -0.57202E-05   624   0.879E-05 0.114E-04
CGA:  19    -0.152522357390E+04   -0.81396E-05    0.14610E-02   624   0.103E-04 0.635E-06
  10 F= -.15252236E+04 E0= -.15252236E+04  d E =-.256158E-01  mag=    16.0000
       N       E                     dE             d eps       ncg     rms          ort
SDA:   1    -0.150885743923E+04    0.16366E+02    0.00000E+00   624   0.389E+02 0.000E+00
CGA:   2    -0.152211669339E+04   -0.13259E+02   -0.13259E+02   624   0.121E+02-0.228E-02
CGA:   3    -0.152459470602E+04   -0.24780E+01   -0.24753E+01   624   0.237E+01 0.770E-02
CGA:   4    -0.152504483993E+04   -0.45013E+00   -0.45043E+00   624   0.500E+00 0.326E-02
CGA:   5    -0.152515269392E+04   -0.10785E+00   -0.10802E+00   624   0.128E+00 0.135E-02
CGA:   6    -0.152518393054E+04   -0.31237E-01   -0.31215E-01   624   0.406E-01-0.247E-03
CGA:   7    -0.152519570669E+04   -0.11776E-01   -0.11759E-01   624   0.169E-01-0.494E-03
CGA:   8    -0.152520104589E+04   -0.53392E-02   -0.53393E-02   624   0.706E-02 0.273E-04
CGA:   9    -0.152520323442E+04   -0.21885E-02   -0.21880E-02   624   0.265E-02-0.345E-04
CGA:  10    -0.152520402384E+04   -0.78942E-03   -0.78708E-03   624   0.111E-02-0.938E-04
CGA:  11    -0.152520438604E+04   -0.36220E-03   -0.36319E-03   624   0.648E-03-0.527E-04
CGA:  12    -0.152520467018E+04   -0.28414E-03   -0.30702E-03   624   0.772E-03-0.131E-03
CGA:  13    -0.152520490385E+04   -0.23367E-03   -0.23325E-03   624   0.564E-03 0.587E-05
CGA:  14    -0.152520516297E+04   -0.25911E-03   -0.27485E-03   624   0.479E-03-0.109E-03
CGA:  15    -0.152520526493E+04   -0.10196E-03   -0.10769E-03   624   0.259E-03 0.897E-04
CGA:  16    -0.152520535987E+04   -0.94948E-04   -0.96308E-04   624   0.147E-03 0.539E-04
CGA:  17    -0.152520542564E+04   -0.65763E-04   -0.64480E-04   624   0.133E-03 0.470E-04
CGA:  18    -0.152520545776E+04   -0.32123E-04   -0.41153E-04   624   0.758E-04 0.861E-04
CGA:  19    -0.152520549260E+04   -0.34844E-04   -0.33917E-04   624   0.431E-04 0.788E-05
CGA:  20    -0.152520549819E+04   -0.55876E-05   -0.96085E-05   624   0.262E-04 0.295E-04
CGA:  21    -0.152520550914E+04   -0.10943E-04   -0.10178E-04   624   0.182E-04 0.131E-04
CGA:  22    -0.152520550957E+04   -0.43749E-06   -0.29279E-05   624   0.146E-04 0.143E-04
  11 F= -.15252055E+04 E0= -.15252055E+04  d E =0.180643E-01  mag=    16.0000
       N       E                     dE             d eps       ncg     rms          ort
SDA:   1    -0.152081721851E+04    0.43883E+01    0.00000E+00   624   0.109E+02 0.000E+00
CGA:   2    -0.152418639400E+04   -0.33692E+01   -0.33692E+01   624   0.382E+01 0.370E-02
CGA:   3    -0.152499685733E+04   -0.81046E+00   -0.81026E+00   624   0.862E+00-0.470E-02
CGA:   4    -0.152515597247E+04   -0.15912E+00   -0.15878E+00   624   0.170E+00 0.630E-02
CGA:   5    -0.152519313179E+04   -0.37159E-01   -0.37248E-01   624   0.452E-01 0.864E-03
CGA:   6    -0.152520460629E+04   -0.11474E-01   -0.11510E-01   624   0.162E-01 0.595E-03
CGA:   7    -0.152520923509E+04   -0.46288E-02   -0.46432E-02   624   0.671E-02 0.533E-03
CGA:   8    -0.152521148189E+04   -0.22468E-02   -0.22457E-02   624   0.327E-02 0.684E-04
CGA:   9    -0.152521220191E+04   -0.72002E-03   -0.76673E-03   624   0.113E-02 0.618E-03
CGA:  10    -0.152521256817E+04   -0.36626E-03   -0.37099E-03   624   0.441E-03 0.164E-03
CGA:  11    -0.152521268417E+04   -0.11601E-03   -0.12642E-03   624   0.206E-03 0.193E-03
CGA:  12    -0.152521273189E+04   -0.47715E-04   -0.62154E-04   624   0.125E-03 0.157E-03
CGA:  13    -0.152521277985E+04   -0.47966E-04   -0.44912E-04   624   0.951E-04 0.485E-04
CGA:  14    -0.152521278500E+04   -0.51482E-05   -0.20341E-04   624   0.652E-04 0.104E-03
CGA:  15    -0.152521279254E+04   -0.75413E-05   -0.12659E-04   624   0.498E-04 0.518E-04
CGA:  16    -0.152521280077E+04   -0.82295E-05   -0.11171E-04   624   0.450E-04 0.464E-04
  12 F= -.15252128E+04 E0= -.15252128E+04  d E =-.729120E-02  mag=    16.0000
       N       E                     dE             d eps       ncg     rms          ort
SDA:   1    -0.152269138377E+04    0.25214E+01    0.00000E+00   624   0.624E+01 0.000E+00
CGA:   2    -0.152476726630E+04   -0.20759E+01   -0.20757E+01   624   0.206E+01 0.375E-02
CGA:   3    -0.152518553497E+04   -0.41827E+00   -0.41787E+00   624   0.437E+00-0.362E-02
CGA:   4    -0.152526959295E+04   -0.84058E-01   -0.83859E-01   624   0.898E-01-0.234E-02
CGA:   5    -0.152528871628E+04   -0.19123E-01   -0.19120E-01   624   0.228E-01-0.215E-04
CGA:   6    -0.152529439829E+04   -0.56820E-02   -0.56717E-02   624   0.757E-02-0.465E-03
CGA:   7    -0.152529652022E+04   -0.21219E-02   -0.21286E-02   624   0.310E-02-0.380E-03
CGA:   8    -0.152529747627E+04   -0.95605E-03   -0.97460E-03   624   0.141E-02-0.303E-03
CGA:   9    -0.152529790965E+04   -0.43338E-03   -0.51078E-03   624   0.112E-02-0.606E-03
CGA:  10    -0.152529805324E+04   -0.14359E-03   -0.13600E-03   624   0.393E-03-0.111E-03
CGA:  11    -0.152529815435E+04   -0.10111E-03   -0.10193E-03   624   0.249E-03-0.717E-04
CGA:  12    -0.152529821640E+04   -0.62050E-04   -0.67476E-04   624   0.265E-03-0.980E-04
CGA:  13    -0.152529825512E+04   -0.38727E-04   -0.38477E-04   624   0.161E-03-0.637E-05
CGA:  14    -0.152529829064E+04   -0.35511E-04   -0.35244E-04   624   0.110E-03-0.503E-05
CGA:  15    -0.152529832401E+04   -0.33379E-04   -0.39142E-04   624   0.913E-04-0.635E-04
CGA:  16    -0.152529833067E+04   -0.66509E-05   -0.12827E-04   624   0.280E-04 0.444E-04
  13 F= -.15252983E+04 E0= -.15252983E+04  d E =-.855299E-01  mag=    16.0000
       N       E                     dE             d eps       ncg     rms          ort
SDA:   1    -0.152484280951E+04    0.45551E+00    0.00000E+00   624   0.112E+01 0.000E+00
CGA:   2    -0.152520242478E+04   -0.35962E+00   -0.35959E+00   624   0.429E+00 0.642E-03
CGA:   3    -0.152528611951E+04   -0.83695E-01   -0.83625E-01   624   0.823E-01-0.847E-03
CGA:   4    -0.152530158642E+04   -0.15467E-01   -0.15441E-01   624   0.171E-01-0.298E-03
CGA:   5    -0.152530519229E+04   -0.36059E-02   -0.36036E-02   624   0.427E-02-0.419E-04
CGA:   6    -0.152530621007E+04   -0.10178E-02   -0.10177E-02   624   0.129E-02-0.280E-05
CGA:   7    -0.152530656575E+04   -0.35568E-03   -0.35567E-03   624   0.490E-03 0.140E-05
CGA:   8    -0.152530671047E+04   -0.14472E-03   -0.14321E-03   624   0.191E-03 0.457E-04
CGA:   9    -0.152530677950E+04   -0.69029E-04   -0.69347E-04   624   0.937E-04-0.415E-05
CGA:  10    -0.152530680860E+04   -0.29098E-04   -0.29694E-04   624   0.513E-04-0.993E-05
CGA:  11    -0.152530681702E+04   -0.84202E-05   -0.93742E-05   624   0.216E-04 0.153E-04
  14 F= -.15253068E+04 E0= -.15253068E+04  d E =-.848635E-02  mag=    16.0000
       N       E                     dE             d eps       ncg     rms          ort
SDA:   1    -0.152073891132E+04    0.45679E+01    0.00000E+00   624   0.108E+02 0.000E+00
CGA:   2    -0.152444740312E+04   -0.37085E+01   -0.37086E+01   624   0.352E+01 0.603E-03
CGA:   3    -0.152515529830E+04   -0.70790E+00   -0.70736E+00   624   0.654E+00-0.629E-02
CGA:   4    -0.152527745608E+04   -0.12216E+00   -0.12216E+00   624   0.139E+00 0.126E-03
CGA:   5    -0.152530680622E+04   -0.29350E-01   -0.29352E-01   624   0.340E-01 0.635E-04
CGA:   6    -0.152531493960E+04   -0.81334E-02   -0.81359E-02   624   0.988E-02 0.121E-03
CGA:   7    -0.152531779193E+04   -0.28523E-02   -0.28532E-02   624   0.409E-02-0.274E-04
CGA:   8    -0.152531913839E+04   -0.13465E-02   -0.13470E-02   624   0.183E-02-0.511E-05
CGA:   9    -0.152531971107E+04   -0.57268E-03   -0.57175E-03   624   0.704E-03 0.204E-04
CGA:  10    -0.152531993292E+04   -0.22185E-03   -0.22543E-03   624   0.370E-03-0.697E-04
CGA:  11    -0.152531999467E+04   -0.61749E-04   -0.67736E-04   624   0.145E-03 0.917E-04
CGA:  12    -0.152532005428E+04   -0.59611E-04   -0.57773E-04   624   0.121E-03 0.334E-04
CGA:  13    -0.152532011723E+04   -0.62951E-04   -0.69406E-04   624   0.260E-03-0.330E-04
CGA:  14    -0.152532014039E+04   -0.23160E-04   -0.30101E-04   624   0.224E-03 0.570E-04
CGA:  15    -0.152532016107E+04   -0.20680E-04   -0.33439E-04   624   0.122E-03 0.850E-04
CGA:  16    -0.152532018522E+04   -0.24150E-04   -0.29520E-04   624   0.108E-03 0.593E-04
CGA:  17    -0.152532021586E+04   -0.30642E-04   -0.31791E-04   624   0.685E-04 0.180E-04
CGA:  18    -0.152532023087E+04   -0.15011E-04   -0.16530E-04   624   0.788E-04 0.295E-04
CGA:  19    -0.152532024460E+04   -0.13729E-04   -0.18648E-04   624   0.527E-04 0.545E-04
CGA:  20    -0.152532026266E+04   -0.18054E-04   -0.17591E-04   624   0.359E-04 0.562E-05
CGA:  21    -0.152532027484E+04   -0.12180E-04   -0.12062E-04   624   0.192E-04 0.251E-05
CGA:  22    -0.152532027910E+04   -0.42681E-05   -0.46864E-05   624   0.124E-04 0.146E-04
  15 F= -.15253203E+04 E0= -.15253203E+04  d E =-.134621E-01  mag=    16.0000
       N       E                     dE             d eps       ncg     rms          ort
SDA:   1    -0.148356563606E+04    0.41755E+02    0.00000E+00   624   0.102E+03 0.000E+00
CGA:   2    -0.151172645582E+04   -0.28161E+02   -0.28163E+02   624   0.436E+02-0.143E+00
CGA:   3    -0.152071665575E+04   -0.89902E+01   -0.89659E+01   624   0.959E+01 0.526E-01
CGA:   4    -0.152228402546E+04   -0.15674E+01   -0.12408E+01   624   0.251E+01 0.214E+01
CGA:   5    -0.152274095467E+04   -0.45693E+00   -0.49726E+00   624   0.130E+01 0.266E-01
CGA:   6    -0.152284310410E+04   -0.10215E+00   -0.60748E-01   624   0.698E+00 0.928E+00
CGA:   7    -0.152289343600E+04   -0.50332E-01   -0.31255E-01   624   0.334E+00 0.449E+00
CGA:   8    -0.152297714149E+04   -0.83705E-01   -0.83913E-01   624   0.404E+00-0.149E-03
CGA:   9    -0.152301176851E+04   -0.34627E-01   -0.43783E-01   624   0.290E+00-0.557E-01
CGA:  10    -0.152304940613E+04   -0.37638E-01   -0.35631E-01   624   0.856E-01 0.260E-01
CGA:  11    -0.152306859033E+04   -0.19184E-01   -0.19154E-01   624   0.510E-01-0.214E-02
CGA:  12    -0.152307141081E+04   -0.28205E-02   -0.31415E-02   624   0.203E-01 0.138E-01
CGA:  13    -0.152307549081E+04   -0.40800E-02   -0.43097E-02   624   0.229E-01 0.533E-02
CGA:  14    -0.152307814323E+04   -0.26524E-02   -0.24519E-02   624   0.150E-01-0.376E-02
CGA:  15    -0.152307920906E+04   -0.10658E-02   -0.12681E-02   624   0.629E-02 0.230E-02
CGA:  16    -0.152307952205E+04   -0.31299E-03   -0.58543E-03   624   0.679E-02 0.267E-02
CGA:  17    -0.152308084156E+04   -0.13195E-02   -0.14084E-02   624   0.266E-02 0.189E-02
CGA:  18    -0.152308146201E+04   -0.62045E-03   -0.62207E-03   624   0.593E-02 0.230E-03
CGA:  19    -0.152308155972E+04   -0.97713E-04   -0.39133E-03   624   0.322E-02 0.270E-02
CGA:  20    -0.152308159021E+04   -0.30487E-04   -0.24840E-03   624   0.296E-02 0.209E-02
CGA:  21    -0.152308209791E+04   -0.50769E-03   -0.64030E-03   624   0.194E-01-0.344E-02
CGA:  22    -0.152308240236E+04   -0.30445E-03   -0.58332E-03   624   0.205E-02 0.556E-02
CGA:  23    -0.152308235174E+04    0.50619E-04   -0.71581E-04   624   0.830E-03 0.983E-03
CGA:  24    -0.152308232780E+04    0.23942E-04   -0.52177E-04   624   0.110E-02 0.644E-03
CGA:  25    -0.152308271028E+04   -0.38248E-03    0.97885E-03   624   0.477E-02-0.734E-03
CGA:  26    -0.152308268560E+04    0.24677E-04   -0.13841E-03   624   0.831E-03 0.164E-02
CGA:  27    -0.152308264428E+04    0.41320E-04   -0.28872E-04   624   0.557E-03 0.586E-03
CGA:  28    -0.152308345245E+04   -0.80816E-03   -0.40424E-03   624   0.318E-02 0.285E-03
CGA:  29    -0.152308340735E+04    0.45103E-04   -0.97300E-04   624   0.520E-03 0.988E-03
CGA:  30    -0.152308336691E+04    0.40440E-04   -0.23631E-04   624   0.431E-03 0.318E-03
CGA:  31    -0.152308365138E+04   -0.28447E-03    0.14960E-03   624   0.175E-02 0.877E-04
CGA:  32    -0.152308397656E+04   -0.32518E-03   -0.38824E-03   624   0.655E-03 0.117E-02
CGA:  33    -0.152308406957E+04   -0.93014E-04   -0.22471E-03   624   0.951E-02-0.126E-02
CGA:  34    -0.152308417263E+04   -0.10305E-03   -0.29296E-03   624   0.116E-02 0.277E-02
CGA:  35    -0.152308414497E+04    0.27658E-04   -0.48866E-04   624   0.492E-03 0.468E-03
CGA:  36    -0.152308417746E+04   -0.32491E-04   -0.48304E-04   624   0.571E-03 0.112E-03
CGA:  37    -0.152308434560E+04   -0.16814E-03   -0.12615E-03   624   0.402E-02-0.110E-02
CGA:  38    -0.152308439578E+04   -0.50184E-04   -0.19977E-03   624   0.946E-03 0.109E-02
CGA:  39    -0.152308447491E+04   -0.79123E-04   -0.91661E-04   624   0.274E-03 0.119E-03
CGA:  40    -0.152308259913E+04    0.18758E-02   -0.10510E-02   624   0.492E-01-0.197E-02
CGA:  41    -0.152308412166E+04   -0.15225E-02   -0.13380E-02   624   0.111E-01 0.217E-01
CGA:  42    -0.152308449710E+04   -0.37543E-03   -0.47876E-03   624   0.348E-02 0.383E-02
CGA:  43    -0.152308484065E+04   -0.34356E-03   -0.28790E-03   624   0.179E-02-0.202E-03
CGA:  44    -0.152308509056E+04   -0.24991E-03   -0.79807E-04   624   0.607E-03-0.718E-03
CGA:  45    -0.152308517353E+04   -0.82964E-04   -0.50890E-04   624   0.142E-02-0.193E-03
CGA:  46    -0.152308513216E+04    0.41371E-04   -0.41287E-04   624   0.935E-03 0.364E-03
CGA:  47    -0.152308508676E+04    0.45402E-04   -0.43379E-04   624   0.538E-03 0.408E-03
CGA:  48    -0.152308511808E+04   -0.31322E-04   -0.49756E-04   624   0.472E-03 0.124E-03
CGA:  49    -0.152308529978E+04   -0.18170E-03   -0.89198E-04   624   0.304E-02-0.857E-03
CGA:  50    -0.152308530024E+04   -0.45780E-06   -0.11724E-03   624   0.496E-03 0.888E-03
CGA:  51    -0.152308530129E+04   -0.10552E-05   -0.30347E-04   624   0.173E-03 0.163E-03
CGA:  52    -0.152308536006E+04   -0.58761E-04   -0.45060E-04   624   0.124E-02-0.340E-03
CGA:  53    -0.152308534968E+04    0.10378E-04   -0.50463E-04   624   0.242E-03 0.368E-03
CGA:  54    -0.152308536860E+04   -0.18921E-04   -0.21743E-04   624   0.141E-03 0.279E-04
CGA:  55    -0.152308548261E+04   -0.11401E-03    0.25504E-04   624   0.948E-03-0.133E-03
CGA:  56    -0.152308544940E+04    0.33208E-04   -0.30457E-04   624   0.239E-03 0.392E-03
CGA:  57    -0.152308543254E+04    0.16866E-04   -0.10556E-04   624   0.130E-03 0.163E-03
CGA:  58    -0.152308551959E+04   -0.87051E-04    0.19033E-04   624   0.429E-03-0.422E-04
CGA:  59    -0.152308551302E+04    0.65694E-05   -0.14650E-04   624   0.386E-03 0.145E-03
CGA:  60    -0.152308548757E+04    0.25451E-04   -0.16840E-04   624   0.237E-03 0.277E-03
CGA:  61    -0.152308386388E+04    0.16237E-02   -0.88631E-03   624   0.242E-01-0.187E-02
CGA:  62    -0.152308518273E+04   -0.13189E-02   -0.13888E-02   624   0.406E-02 0.554E-02
CGA:  63    -0.152308563858E+04   -0.45584E-03   -0.38643E-03   624   0.656E-03-0.357E-03
CGA:  64    -0.152308564782E+04   -0.92423E-05   -0.35454E-04   624   0.115E-03 0.120E-03
CGA:  65    -0.152308568509E+04   -0.37268E-04   -0.21454E-04   624   0.313E-03-0.109E-03
CGA:  66    -0.152308569776E+04   -0.12676E-04   -0.21693E-04   624   0.490E-04 0.460E-04
CGA:  67    -0.152308569557E+04    0.21955E-05   -0.56408E-05   624   0.578E-04 0.442E-04
CGA:  68    -0.152308574452E+04   -0.48951E-04    0.13544E-04   624   0.172E-03 0.431E-05
CGA:  69    -0.152308575928E+04   -0.14767E-04   -0.30217E-04   624   0.187E-03 0.147E-03
CGA:  70    -0.152308581788E+04   -0.58593E-04   -0.33579E-04   624   0.921E-03-0.292E-03
CGA:  71    -0.152308578789E+04    0.29987E-04   -0.28227E-04   624   0.140E-03 0.295E-03
CGA:  72    -0.152308577790E+04    0.99854E-05   -0.54640E-05   624   0.589E-04 0.747E-04
  16 F= -.15230858E+04 E0= -.15230811E+04  d E =0.223450E+01  mag=    16.0000
       N       E                     dE             d eps       ncg     rms          ort
SDA:   1    -0.150641610581E+04    0.16670E+02    0.00000E+00   624   0.460E+02 0.000E+00
CGA:   2    -0.152041906891E+04   -0.14003E+02   -0.13925E+02   624   0.179E+02 0.812E+00
CGA:   3    -0.152386017246E+04   -0.34411E+01   -0.34157E+01   624   0.461E+01-0.433E-01
CGA:   4    -0.152475125607E+04   -0.89108E+00   -0.89917E+00   624   0.881E+00 0.555E-01
CGA:   5    -0.152494075208E+04   -0.18950E+00   -0.18958E+00   624   0.270E+00 0.509E-02
CGA:   6    -0.152501094843E+04   -0.70196E-01   -0.70291E-01   624   0.102E+00-0.354E-02
CGA:   7    -0.152503902398E+04   -0.28076E-01   -0.28265E-01   624   0.383E-01-0.393E-02
CGA:   8    -0.152505095030E+04   -0.11926E-01   -0.12398E-01   624   0.181E-01-0.471E-02
CGA:   9    -0.152505557861E+04   -0.46283E-02   -0.48177E-02   624   0.789E-02-0.306E-02
CGA:  10    -0.152505753249E+04   -0.19539E-02   -0.20974E-02   624   0.393E-02-0.192E-02
CGA:  11    -0.152505830994E+04   -0.77745E-03   -0.15326E-02   624   0.722E-02-0.281E-02
CGA:  12    -0.152505935798E+04   -0.10480E-02   -0.10795E-02   624   0.128E-02 0.334E-03
CGA:  13    -0.152505988977E+04   -0.53180E-03   -0.55147E-03   624   0.842E-03-0.125E-03
CGA:  14    -0.152506025102E+04   -0.36124E-03   -0.40151E-03   624   0.868E-03-0.153E-03
CGA:  15    -0.152506050286E+04   -0.25184E-03   -0.24964E-03   624   0.595E-03 0.281E-04
CGA:  16    -0.152506077873E+04   -0.27587E-03   -0.28483E-03   624   0.637E-03-0.523E-04
CGA:  17    -0.152506107602E+04   -0.29729E-03   -0.39626E-03   624   0.126E-02-0.264E-03
CGA:  18    -0.152506133662E+04   -0.26060E-03   -0.29271E-03   624   0.109E-02-0.396E-03
CGA:  19    -0.152506158440E+04   -0.24778E-03   -0.24984E-03   624   0.783E-03-0.129E-03
CGA:  20    -0.152506176921E+04   -0.18481E-03   -0.18333E-03   624   0.333E-03-0.425E-04
CGA:  21    -0.152506182443E+04   -0.55222E-04   -0.62692E-04   624   0.150E-03 0.630E-04
CGA:  22    -0.152506183009E+04   -0.56599E-05   -0.23376E-04   624   0.922E-04 0.997E-04
CGA:  23    -0.152506183157E+04   -0.14776E-05   -0.12638E-04   624   0.611E-04 0.690E-04
  17 F= -.15250618E+04 E0= -.15250618E+04  d E =-.197605E+01  mag=    16.0000
       N       E                     dE             d eps       ncg     rms          ort
SDA:   1    -0.152475800434E+04    0.30383E+00    0.00000E+00   624   0.113E+01 0.000E+00
CGA:   2    -0.152505716202E+04   -0.29916E+00   -0.29911E+00   624   0.496E+00-0.259E-02
CGA:   3    -0.152516068994E+04   -0.10353E+00   -0.10358E+00   624   0.109E+00 0.605E-03
CGA:   4    -0.152518084826E+04   -0.20158E-01   -0.20237E-01   624   0.225E-01 0.901E-03
CGA:   5    -0.152518553912E+04   -0.46909E-02   -0.47156E-02   624   0.561E-02 0.372E-03
CGA:   6    -0.152518701191E+04   -0.14728E-02   -0.14702E-02   624   0.211E-02-0.198E-03
CGA:   7    -0.152518761904E+04   -0.60713E-03   -0.61399E-03   624   0.892E-03-0.221E-03
CGA:   8    -0.152518784178E+04   -0.22275E-03   -0.22251E-03   624   0.320E-03 0.341E-04
CGA:   9    -0.152518793234E+04   -0.90557E-04   -0.90529E-04   624   0.121E-03 0.505E-04
CGA:  10    -0.152518798268E+04   -0.50343E-04   -0.49754E-04   624   0.755E-04 0.660E-05
CGA:  11    -0.152518799537E+04   -0.12689E-04   -0.79939E-04   624   0.376E-03-0.942E-04
CGA:  12    -0.152518806042E+04   -0.65050E-04   -0.71162E-04   624   0.831E-04 0.502E-04
CGA:  13    -0.152518808472E+04   -0.24302E-04   -0.24996E-04   624   0.364E-04 0.169E-04
CGA:  14    -0.152518809343E+04   -0.87109E-05   -0.10172E-04   624   0.171E-04 0.202E-04
CGA:  15    -0.152518810498E+04   -0.11549E-04   -0.12246E-04   624   0.326E-04-0.182E-05
CGA:  16    -0.152518811072E+04   -0.57375E-05   -0.69397E-05   624   0.225E-04 0.141E-04
  18 F= -.15251881E+04 E0= -.15251881E+04  d E =-.126279E+00  mag=    16.0000
       N       E                     dE             d eps       ncg     rms          ort
SDA:   1    -0.152366498513E+04    0.15231E+01    0.00000E+00   624   0.440E+01 0.000E+00
CGA:   2    -0.152479877542E+04   -0.11338E+01   -0.11336E+01   624   0.193E+01-0.315E-02
CGA:   3    -0.152520975027E+04   -0.41097E+00   -0.41100E+00   624   0.427E+00-0.374E-03
CGA:   4    -0.152528785624E+04   -0.78106E-01   -0.78360E-01   624   0.876E-01 0.231E-02
CGA:   5    -0.152530610276E+04   -0.18247E-01   -0.18330E-01   624   0.215E-01 0.943E-03
CGA:   6    -0.152531157112E+04   -0.54684E-02   -0.54537E-02   624   0.754E-02-0.343E-03
CGA:   7    -0.152531371848E+04   -0.21474E-02   -0.21468E-02   624   0.284E-02-0.344E-03
CGA:   8    -0.152531453188E+04   -0.81340E-03   -0.81311E-03   624   0.109E-02 0.323E-04
CGA:   9    -0.152531482319E+04   -0.29131E-03   -0.29502E-03   624   0.379E-03 0.165E-03
CGA:  10    -0.152531498943E+04   -0.16625E-03   -0.17194E-03   624   0.289E-03-0.553E-04
CGA:  11    -0.152531506891E+04   -0.79477E-04   -0.79267E-04   624   0.194E-03 0.731E-05
CGA:  12    -0.152531514244E+04   -0.73529E-04   -0.15156E-03   624   0.594E-03-0.171E-03
CGA:  13    -0.152531523528E+04   -0.92845E-04   -0.10907E-03   624   0.124E-03 0.120E-03
CGA:  14    -0.152531527835E+04   -0.43068E-04   -0.43099E-04   624   0.718E-04 0.135E-05
CGA:  15    -0.152531528909E+04   -0.10739E-04   -0.14995E-04   624   0.426E-04 0.404E-04
CGA:  16    -0.152531530774E+04   -0.18649E-04   -0.18124E-04   624   0.265E-04 0.426E-05
CGA:  17    -0.152531532847E+04   -0.20730E-04    0.32662E-04   624   0.258E-04 0.151E-04
CGA:  18    -0.152531532745E+04    0.10219E-05   -0.26478E-05   624   0.148E-04 0.175E-04
  19 F= -.15253153E+04 E0= -.15253153E+04  d E =-.127217E+00  mag=    16.0000
       N       E                     dE             d eps       ncg     rms          ort
SDA:   1    -0.152519689005E+04    0.11844E+00    0.00000E+00   624   0.378E+00 0.000E+00
CGA:   2    -0.152528637065E+04   -0.89481E-01   -0.89484E-01   624   0.157E+00 0.107E-03
CGA:   3    -0.152532119739E+04   -0.34827E-01   -0.34835E-01   624   0.365E-01 0.655E-04
CGA:   4    -0.152532759193E+04   -0.63945E-02   -0.64336E-02   624   0.689E-02 0.350E-03
CGA:   5    -0.152532901374E+04   -0.14218E-02   -0.14305E-02   624   0.165E-02 0.109E-03
CGA:   6    -0.152532943661E+04   -0.42287E-03   -0.42062E-03   624   0.569E-03-0.747E-04
CGA:   7    -0.152532959414E+04   -0.15754E-03   -0.15794E-03   624   0.219E-03-0.388E-04
CGA:   8    -0.152532965930E+04   -0.65152E-04   -0.65530E-04   624   0.966E-04-0.945E-05
CGA:   9    -0.152532967559E+04   -0.16293E-04   -0.18965E-04   624   0.339E-04 0.344E-04
CGA:  10    -0.152532968854E+04   -0.12947E-04   -0.12930E-04   624   0.203E-04 0.719E-05
CGA:  11    -0.152532969960E+04   -0.11060E-04   -0.16112E-04   624   0.481E-04-0.137E-04
CGA:  12    -0.152532970496E+04   -0.53680E-05   -0.77694E-05   624   0.134E-04 0.177E-04
  20 F= -.15253297E+04 E0= -.15253297E+04  d E =-.143775E-01  mag=    16.0000
       N       E                     dE             d eps       ncg     rms          ort
SDA:   1    -0.152483148559E+04    0.49821E+00    0.00000E+00   624   0.151E+01 0.000E+00
CGA:   2    -0.152517303337E+04   -0.34155E+00   -0.34166E+00   624   0.600E+00 0.161E-02
CGA:   3    -0.152530978474E+04   -0.13675E+00   -0.13676E+00   624   0.147E+00-0.183E-04
CGA:   4    -0.152533551570E+04   -0.25731E-01   -0.25724E-01   624   0.268E-01-0.410E-04
CGA:   5    -0.152534106348E+04   -0.55478E-02   -0.55377E-02   624   0.654E-02-0.129E-03
CGA:   6    -0.152534262111E+04   -0.15576E-02   -0.15528E-02   624   0.201E-02-0.116E-03
CGA:   7    -0.152534316006E+04   -0.53895E-03   -0.53894E-03   624   0.690E-03-0.280E-05
CGA:   8    -0.152534339434E+04   -0.23428E-03   -0.23720E-03   624   0.348E-03-0.446E-04
CGA:   9    -0.152534348974E+04   -0.95398E-04   -0.95045E-04   624   0.129E-03 0.323E-04
CGA:  10    -0.152534353313E+04   -0.43388E-04   -0.90691E-04   624   0.340E-03-0.131E-03
CGA:  11    -0.152534356797E+04   -0.34844E-04   -0.47362E-04   624   0.590E-04 0.789E-04
CGA:  12    -0.152534358908E+04   -0.21114E-04   -0.21103E-04   624   0.318E-04-0.750E-05
CGA:  13    -0.152534349665E+04    0.92437E-04   -0.50713E-04   624   0.738E-03-0.924E-04
CGA:  14    -0.152534358037E+04   -0.83721E-04   -0.11415E-03   624   0.139E-03 0.852E-04
CGA:  15    -0.152534363722E+04   -0.56854E-04   -0.51546E-04   624   0.523E-04-0.291E-04
CGA:  16    -0.152534364557E+04   -0.83527E-05   -0.10501E-04   624   0.179E-04 0.856E-05
  21 F= -.15253436E+04 E0= -.15253436E+04  d E =-.139406E-01  mag=    16.0000
       N       E                     dE             d eps       ncg     rms          ort
SDA:   1    -0.152524660950E+04    0.97028E-01    0.00000E+00   624   0.274E+00 0.000E+00
CGA:   2    -0.152531661769E+04   -0.70008E-01   -0.70208E-01   624   0.116E+00 0.934E-03
CGA:   3    -0.152534135468E+04   -0.24737E-01   -0.24717E-01   624   0.250E-01-0.705E-04
CGA:   4    -0.152534584114E+04   -0.44865E-02   -0.44046E-02   624   0.476E-02-0.288E-03
CGA:   5    -0.152534685365E+04   -0.10125E-02   -0.98103E-03   624   0.119E-02-0.134E-03
CGA:   6    -0.152534711876E+04   -0.26511E-03   -0.26670E-03   624   0.331E-03 0.796E-05
CGA:   7    -0.152534719906E+04   -0.80301E-04   -0.85173E-04   624   0.108E-03 0.294E-04
CGA:   8    -0.152534725186E+04   -0.52804E-04   -0.54285E-04   624   0.106E-03-0.312E-04
CGA:   9    -0.152534727862E+04   -0.26754E-04   -0.25384E-04   624   0.607E-04-0.177E-04
CGA:  10    -0.152534729971E+04   -0.21098E-04   -0.27255E-04   624   0.996E-04-0.485E-04
CGA:  11    -0.152534731049E+04   -0.10777E-04   -0.16959E-04   624   0.230E-04 0.251E-04
CGA:  12    -0.152534732071E+04   -0.10220E-04   -0.10130E-04   624   0.206E-04-0.172E-05
CGA:  13    -0.152534732262E+04   -0.19116E-05   -0.39326E-05   624   0.150E-04 0.102E-04
  22 F= -.15253473E+04 E0= -.15253473E+04  d E =-.367705E-02  mag=    16.0000
       N       E                     dE             d eps       ncg     rms          ort
SDA:   1    -0.152388064296E+04    0.14667E+01    0.00000E+00   624   0.369E+01 0.000E+00
CGA:   2    -0.152496689109E+04   -0.10862E+01   -0.10865E+01   624   0.153E+01 0.317E-02
CGA:   3    -0.152527441654E+04   -0.30753E+00   -0.30717E+00   624   0.293E+00-0.129E-02
CGA:   4    -0.152532738062E+04   -0.52964E-01   -0.52773E-01   624   0.584E-01-0.104E-02
CGA:   5    -0.152533948910E+04   -0.12108E-01   -0.12078E-01   624   0.140E-01-0.194E-03
CGA:   6    -0.152534275268E+04   -0.32636E-02   -0.32714E-02   624   0.395E-02 0.665E-04
CGA:   7    -0.152534386589E+04   -0.11132E-02   -0.11131E-02   624   0.148E-02-0.216E-05
CGA:   8    -0.152534440721E+04   -0.54132E-03   -0.54444E-03   624   0.805E-03-0.120E-03
CGA:   9    -0.152534466751E+04   -0.26031E-03   -0.26101E-03   624   0.370E-03-0.832E-04
CGA:  10    -0.152534479058E+04   -0.12307E-03   -0.12740E-03   624   0.278E-03-0.110E-03
CGA:  11    -0.152534483800E+04   -0.47412E-04   -0.47520E-04   624   0.139E-03 0.128E-05
CGA:  12    -0.152534489954E+04   -0.61545E-04   -0.68493E-04   624   0.172E-03-0.480E-04
CGA:  13    -0.152534494601E+04   -0.46469E-04   -0.58116E-04   624   0.297E-03-0.717E-04
CGA:  14    -0.152534499249E+04   -0.46484E-04   -0.42025E-04   624   0.185E-03-0.419E-04
CGA:  15    -0.152534504711E+04   -0.54611E-04   -0.54114E-04   624   0.199E-03-0.499E-04
CGA:  16    -0.152534508552E+04   -0.38412E-04   -0.34124E-04   624   0.139E-03-0.386E-04
CGA:  17    -0.152534512430E+04   -0.38786E-04   -0.38816E-04   624   0.168E-03-0.146E-04
CGA:  18    -0.152534516201E+04   -0.37711E-04   -0.35498E-04   624   0.927E-04-0.219E-04
CGA:  19    -0.152534519322E+04   -0.31210E-04   -0.33303E-04   624   0.107E-03-0.301E-04
CGA:  20    -0.152534519991E+04   -0.66879E-05   -0.92762E-05   624   0.534E-04 0.118E-04
  23 F= -.15253452E+04 E0= -.15253452E+04  d E =0.212271E-02  mag=    16.0000
       N       E                     dE             d eps       ncg     rms          ort
SDA:   1    -0.152484852207E+04    0.49667E+00    0.00000E+00   624   0.123E+01 0.000E+00
CGA:   2    -0.152522637767E+04   -0.37786E+00   -0.37790E+00   624   0.495E+00 0.262E-02
CGA:   3    -0.152532563143E+04   -0.99254E-01   -0.98915E-01   624   0.911E-01-0.277E-02
CGA:   4    -0.152534187596E+04   -0.16245E-01   -0.16233E-01   624   0.186E-01-0.687E-04
CGA:   5    -0.152534578379E+04   -0.39078E-02   -0.39172E-02   624   0.443E-02 0.972E-04
CGA:   6    -0.152534680272E+04   -0.10189E-02   -0.10240E-02   624   0.121E-02 0.687E-04
CGA:   7    -0.152534713453E+04   -0.33181E-03   -0.33343E-03   624   0.432E-03 0.561E-04
CGA:   8    -0.152534728653E+04   -0.15200E-03   -0.15145E-03   624   0.200E-03 0.150E-04
CGA:   9    -0.152534733690E+04   -0.50368E-04   -0.52639E-04   624   0.660E-04 0.501E-04
CGA:  10    -0.152534736913E+04   -0.32237E-04   -0.34591E-04   624   0.553E-04-0.195E-04
CGA:  11    -0.152534737161E+04   -0.24742E-05   -0.54937E-05   624   0.337E-04 0.185E-04
  24 F= -.15253474E+04 E0= -.15253474E+04  d E =-.217170E-02  mag=    16.0000
       N       E                     dE             d eps       ncg     rms          ort
SDA:   1    -0.152516235453E+04    0.18501E+00    0.00000E+00   624   0.491E+00 0.000E+00
CGA:   2    -0.152529540107E+04   -0.13305E+00   -0.13305E+00   624   0.199E+00 0.411E-03
CGA:   3    -0.152533753559E+04   -0.42135E-01   -0.42065E-01   624   0.430E-01-0.915E-03
CGA:   4    -0.152534523516E+04   -0.76996E-02   -0.76726E-02   624   0.831E-02-0.252E-03
CGA:   5    -0.152534693134E+04   -0.16962E-02   -0.16990E-02   624   0.198E-02 0.393E-04
CGA:   6    -0.152534740103E+04   -0.46969E-03   -0.47076E-03   624   0.587E-03 0.280E-04
CGA:   7    -0.152534757421E+04   -0.17318E-03   -0.17347E-03   624   0.234E-03-0.155E-04
CGA:   8    -0.152534764395E+04   -0.69735E-04   -0.69126E-04   624   0.936E-04 0.204E-04
CGA:   9    -0.152534768464E+04   -0.40691E-04   -0.51326E-04   624   0.107E-03-0.463E-04
CGA:  10    -0.152534769083E+04   -0.61876E-05   -0.78627E-05   624   0.628E-04 0.118E-04
CGA:  11    -0.152534770031E+04   -0.94877E-05   -0.10736E-04   624   0.283E-04 0.990E-05
CGA:  12    -0.152534760553E+04    0.94784E-04   -0.39886E-04   624   0.622E-03-0.143E-03
CGA:  13    -0.152534770461E+04   -0.99080E-04   -0.11211E-03   624   0.106E-03 0.947E-04
CGA:  14    -0.152534774295E+04   -0.38337E-04   -0.38551E-04   624   0.617E-04-0.608E-04
CGA:  15    -0.152534774244E+04    0.50469E-06   -0.55939E-05   624   0.156E-04 0.276E-04
  25 F= -.15253477E+04 E0= -.15253477E+04  d E =-.370835E-03  mag=    16.0000
       N       E                     dE             d eps       ncg     rms          ort
SDA:   1    -0.152464056409E+04    0.70718E+00    0.00000E+00   624   0.170E+01 0.000E+00
CGA:   2    -0.152519999258E+04   -0.55943E+00   -0.55932E+00   624   0.585E+00 0.254E-02
CGA:   3    -0.152532055136E+04   -0.12056E+00   -0.12036E+00   624   0.102E+00-0.219E-02
CGA:   4    -0.152533924506E+04   -0.18694E-01   -0.18687E-01   624   0.222E-01-0.520E-04
CGA:   5    -0.152534391725E+04   -0.46722E-02   -0.46786E-02   624   0.520E-02 0.907E-04
CGA:   6    -0.152534514441E+04   -0.12272E-02   -0.12283E-02   624   0.149E-02 0.262E-04
CGA:   7    -0.152534557366E+04   -0.42925E-03   -0.42919E-03   624   0.590E-03 0.725E-05
CGA:   8    -0.152534576670E+04   -0.19304E-03   -0.19103E-03   624   0.245E-03 0.456E-04
CGA:   9    -0.152534585763E+04   -0.90926E-04   -0.90388E-04   624   0.101E-03 0.863E-05
CGA:  10    -0.152534589446E+04   -0.36832E-04   -0.37203E-04   624   0.506E-04-0.523E-05
CGA:  11    -0.152534591205E+04   -0.17592E-04   -0.17821E-04   624   0.384E-04-0.276E-05
CGA:  12    -0.152534592384E+04   -0.11792E-04   -0.25544E-04   624   0.133E-03-0.335E-04
CGA:  13    -0.152534593945E+04   -0.15610E-04   -0.18913E-04   624   0.234E-04 0.200E-04
CGA:  14    -0.152534594728E+04   -0.78319E-05   -0.78707E-05   624   0.108E-04 0.348E-05
  26 F= -.15253459E+04 E0= -.15253459E+04  d E =0.179516E-02  mag=    16.0000
       N       E                     dE             d eps       ncg     rms          ort
SDA:   1    -0.147938882417E+04    0.45957E+02    0.00000E+00   624   0.130E+03 0.000E+00
CGA:   2    -0.150909469559E+04   -0.29706E+02   -0.29338E+02   624   0.513E+02 0.836E+01
CGA:   3    -0.151944305702E+04   -0.10348E+02   -0.79174E+01   624   0.110E+02 0.167E+02
CGA:   4    -0.152262664864E+04   -0.31836E+01   -0.31437E+01   624   0.609E+01 0.243E-01
CGA:   5    -0.152334100296E+04   -0.71435E+00   -0.85842E+00   624   0.214E+01-0.236E+00
CGA:   6    -0.152367120969E+04   -0.33021E+00   -0.32808E+00   624   0.472E+00 0.184E-01
CGA:   7    -0.152376616433E+04   -0.94955E-01   -0.94942E-01   624   0.270E+00 0.637E-03
CGA:   8    -0.152381989287E+04   -0.53729E-01   -0.54215E-01   624   0.142E+00-0.419E-02
CGA:   9    -0.152385323587E+04   -0.33343E-01   -0.33319E-01   624   0.561E-01-0.625E-03
CGA:  10    -0.152386540793E+04   -0.12172E-01   -0.12158E-01   624   0.270E-01-0.325E-03
CGA:  11    -0.152387208924E+04   -0.66813E-02   -0.66543E-02   624   0.143E-01-0.166E-02
CGA:  12    -0.152387582895E+04   -0.37397E-02   -0.37457E-02   624   0.747E-02-0.410E-03
CGA:  13    -0.152387814931E+04   -0.23204E-02   -0.24037E-02   624   0.682E-02-0.128E-02
CGA:  14    -0.152387978538E+04   -0.16361E-02   -0.16517E-02   624   0.552E-02-0.659E-03
CGA:  15    -0.152388165849E+04   -0.18731E-02   -0.19317E-02   624   0.458E-02-0.548E-03
CGA:  16    -0.152388302530E+04   -0.13668E-02   -0.14023E-02   624   0.463E-02-0.591E-03
CGA:  17    -0.152388418356E+04   -0.11583E-02   -0.11594E-02   624   0.321E-02-0.162E-03
CGA:  18    -0.152388534762E+04   -0.11641E-02   -0.12331E-02   624   0.365E-02-0.620E-03
CGA:  19    -0.152388611638E+04   -0.76875E-03   -0.76512E-03   624   0.250E-02-0.172E-03
CGA:  20    -0.152388695143E+04   -0.83505E-03   -0.84193E-03   624   0.236E-02-0.145E-03
CGA:  21    -0.152388755628E+04   -0.60485E-03   -0.59773E-03   624   0.170E-02-0.414E-03
CGA:  22    -0.152388799161E+04   -0.43534E-03   -0.43730E-03   624   0.121E-02-0.984E-04
CGA:  23    -0.152388832708E+04   -0.33546E-03   -0.33729E-03   624   0.894E-03-0.256E-03
CGA:  24    -0.152388854181E+04   -0.21473E-03   -0.21954E-03   624   0.629E-03-0.216E-03
CGA:  25    -0.152388864019E+04   -0.98386E-04   -0.10116E-03   624   0.389E-03 0.338E-04
CGA:  26    -0.152388878047E+04   -0.14028E-03   -0.14754E-03   624   0.405E-03-0.998E-04
CGA:  27    -0.152388886103E+04   -0.80556E-04   -0.77048E-04   624   0.338E-03-0.108E-03
CGA:  28    -0.152388892536E+04   -0.64338E-04   -0.64523E-04   624   0.323E-03 0.348E-05
CGA:  29    -0.152388903171E+04   -0.10635E-03   -0.14207E-03   624   0.594E-03-0.245E-03
CGA:  30    -0.152388916521E+04   -0.13349E-03   -0.12469E-03   624   0.291E-03-0.100E-03
CGA:  31    -0.152388919084E+04   -0.25633E-04   -0.38767E-04   624   0.926E-04 0.103E-03
CGA:  32    -0.152388920600E+04   -0.15165E-04   -0.18718E-04   624   0.521E-04 0.270E-04
CGA:  33    -0.152388925372E+04   -0.47719E-04    0.32904E-04   624   0.604E-04 0.236E-04
CGA:  34    -0.152388923972E+04    0.13997E-04   -0.72537E-04   624   0.683E-03-0.158E-03
CGA:  35    -0.152388930337E+04   -0.63641E-04   -0.80212E-04   624   0.757E-04 0.941E-04
CGA:  36    -0.152388933401E+04   -0.30644E-04   -0.31045E-04   624   0.915E-04-0.606E-05
CGA:  37    -0.152388934570E+04   -0.11688E-04   -0.13461E-04   624   0.317E-04 0.131E-04
CGA:  38    -0.152388934777E+04   -0.20746E-05   -0.42563E-05   624   0.163E-04 0.126E-04
  27 F= -.15238893E+04 E0= -.15238893E+04  d E =0.145660E+01  mag=    16.0000
       N       E                     dE             d eps       ncg     rms          ort
SDA:   1    -0.150799766254E+04    0.15892E+02    0.00000E+00   624   0.425E+02 0.000E+00
CGA:   2    -0.152074554789E+04   -0.12748E+02   -0.12747E+02   624   0.164E+02 0.305E-01
CGA:   3    -0.152408923126E+04   -0.33437E+01   -0.33408E+01   624   0.386E+01-0.181E-01
CGA:   4    -0.152484942228E+04   -0.76019E+00   -0.76001E+00   624   0.845E+00-0.614E-02
CGA:   5    -0.152502514657E+04   -0.17572E+00   -0.17582E+00   624   0.220E+00 0.178E-02
CGA:   6    -0.152508250187E+04   -0.57355E-01   -0.57362E-01   624   0.786E-01 0.592E-03
CGA:   7    -0.152510477769E+04   -0.22276E-01   -0.22280E-01   624   0.301E-01-0.400E-03
CGA:   8    -0.152511427657E+04   -0.94989E-02   -0.95326E-02   624   0.131E-01-0.730E-03
CGA:   9    -0.152511836705E+04   -0.40905E-02   -0.41483E-02   624   0.655E-02-0.116E-02
CGA:  10    -0.152512006358E+04   -0.16965E-02   -0.16969E-02   624   0.308E-02-0.459E-04
CGA:  11    -0.152512134017E+04   -0.12766E-02   -0.13514E-02   624   0.303E-02-0.464E-03
CGA:  12    -0.152512250701E+04   -0.11668E-02   -0.11724E-02   624   0.290E-02-0.685E-04
CGA:  13    -0.152512385986E+04   -0.13528E-02   -0.14506E-02   624   0.321E-02-0.512E-03
CGA:  14    -0.152512469520E+04   -0.83535E-03   -0.83632E-03   624   0.185E-02-0.147E-03
CGA:  15    -0.152512526976E+04   -0.57456E-03   -0.57393E-03   624   0.775E-03 0.313E-05
CGA:  16    -0.152512546990E+04   -0.20014E-03   -0.20872E-03   624   0.364E-03 0.221E-03
CGA:  17    -0.152512554602E+04   -0.76122E-04   -0.97596E-04   624   0.193E-03 0.222E-03
CGA:  18    -0.152512558811E+04   -0.42086E-04   -0.47937E-04   624   0.115E-03 0.113E-03
CGA:  19    -0.152512559799E+04   -0.98862E-05   -0.20515E-04   624   0.922E-04 0.900E-04
CGA:  20    -0.152512560828E+04   -0.10285E-04   -0.17943E-04   624   0.781E-04 0.791E-04
CGA:  21    -0.152512561308E+04   -0.48063E-05   -0.13119E-04   624   0.682E-04 0.702E-04
CGA:  22    -0.152512561842E+04   -0.53331E-05   -0.11951E-04   624   0.601E-04 0.627E-04
  28 F= -.15251256E+04 E0= -.15251256E+04  d E =-.123627E+01  mag=    16.0000
       N       E                     dE             d eps       ncg     rms          ort
SDA:   1    -0.152482727569E+04    0.29834E+00    0.00000E+00   624   0.105E+01 0.000E+00
CGA:   2    -0.152510748376E+04   -0.28021E+00   -0.28020E+00   624   0.479E+00-0.451E-02
CGA:   3    -0.152520500061E+04   -0.97517E-01   -0.97532E-01   624   0.999E-01 0.382E-03
CGA:   4    -0.152522344247E+04   -0.18442E-01   -0.18520E-01   624   0.200E-01 0.103E-02
CGA:   5    -0.152522762357E+04   -0.41811E-02   -0.42038E-02   624   0.508E-02 0.427E-03
CGA:   6    -0.152522891244E+04   -0.12889E-02   -0.12883E-02   624   0.180E-02-0.530E-04
CGA:   7    -0.152522947476E+04   -0.56232E-03   -0.58111E-03   624   0.875E-03-0.278E-03
CGA:   8    -0.152522966845E+04   -0.19368E-03   -0.19370E-03   624   0.314E-03 0.566E-04
CGA:   9    -0.152522975461E+04   -0.86163E-04   -0.86381E-04   624   0.115E-03 0.570E-04
CGA:  10    -0.152522979838E+04   -0.43773E-04   -0.42648E-04   624   0.627E-04 0.217E-04
CGA:  11    -0.152522983445E+04   -0.36065E-04   -0.37170E-04   624   0.756E-04-0.521E-05
CGA:  12    -0.152522986468E+04   -0.30232E-04   -0.30243E-04   624   0.910E-04-0.764E-06
CGA:  13    -0.152522988042E+04   -0.15740E-04   -0.19068E-04   624   0.601E-04 0.450E-04
CGA:  14    -0.152522989091E+04   -0.10492E-04   -0.15694E-04   624   0.363E-04 0.486E-04
CGA:  15    -0.152522990276E+04   -0.11847E-04   -0.11425E-04   624   0.221E-04 0.106E-04
CGA:  16    -0.152522990333E+04   -0.56696E-06   -0.35657E-05   624   0.110E-04 0.197E-04
  29 F= -.15252299E+04 E0= -.15252299E+04  d E =-.104285E+00  mag=    16.0000
       N       E                     dE             d eps       ncg     rms          ort
SDA:   1    -0.152381586808E+04    0.14140E+01    0.00000E+00   624   0.427E+01 0.000E+00
CGA:   2    -0.152481149570E+04   -0.99563E+00   -0.99560E+00   624   0.183E+01-0.382E-02
CGA:   3    -0.152521852289E+04   -0.40703E+00   -0.40690E+00   624   0.421E+00-0.229E-02
CGA:   4    -0.152529229314E+04   -0.73770E-01   -0.73919E-01   624   0.769E-01 0.179E-02
CGA:   5    -0.152530820358E+04   -0.15910E-01   -0.15971E-01   624   0.192E-01 0.128E-02
CGA:   6    -0.152531275933E+04   -0.45558E-02   -0.45586E-02   624   0.580E-02 0.165E-03
CGA:   7    -0.152531450463E+04   -0.17453E-02   -0.17689E-02   624   0.238E-02-0.454E-03
CGA:   8    -0.152531513327E+04   -0.62865E-03   -0.62625E-03   624   0.910E-03 0.758E-04
CGA:   9    -0.152531540556E+04   -0.27229E-03   -0.26915E-03   624   0.330E-03 0.998E-04
CGA:  10    -0.152531551972E+04   -0.11416E-03   -0.11134E-03   624   0.146E-03 0.587E-04
CGA:  11    -0.152531560181E+04   -0.82091E-04   -0.88056E-04   624   0.164E-03-0.238E-04
CGA:  12    -0.152531564268E+04   -0.40863E-04   -0.39988E-04   624   0.125E-03 0.444E-04
CGA:  13    -0.152531568118E+04   -0.38502E-04   -0.39949E-04   624   0.848E-04 0.710E-04
CGA:  14    -0.152531571308E+04   -0.31902E-04   -0.30073E-04   624   0.517E-04 0.220E-04
CGA:  15    -0.152531572602E+04   -0.12938E-04   -0.14809E-04   624   0.294E-04 0.386E-04
CGA:  16    -0.152531573872E+04   -0.12704E-04   -0.11161E-04   624   0.259E-04 0.145E-04
CGA:  17    -0.152531574976E+04   -0.11036E-04   -0.10914E-04   624   0.213E-04 0.302E-04
CGA:  18    -0.152531575929E+04   -0.95318E-05   -0.82741E-05   624   0.192E-04 0.115E-04
  30 F= -.15253158E+04 E0= -.15253158E+04  d E =-.858560E-01  mag=    16.0000
       N       E                     dE             d eps       ncg     rms          ort
SDA:   1    -0.152491728892E+04    0.39846E+00    0.00000E+00   624   0.124E+01 0.000E+00
CGA:   2    -0.152519676695E+04   -0.27948E+00   -0.27939E+00   624   0.503E+00-0.184E-02
CGA:   3    -0.152531098555E+04   -0.11422E+00   -0.11415E+00   624   0.124E+00-0.133E-02
CGA:   4    -0.152533232967E+04   -0.21344E-01   -0.21371E-01   624   0.217E-01 0.293E-03
CGA:   5    -0.152533675788E+04   -0.44282E-02   -0.44504E-02   624   0.526E-02 0.340E-03
CGA:   6    -0.152533800741E+04   -0.12495E-02   -0.12523E-02   624   0.157E-02 0.859E-04
CGA:   7    -0.152533848942E+04   -0.48201E-03   -0.48543E-03   624   0.669E-03-0.872E-04
CGA:   8    -0.152533868097E+04   -0.19155E-03   -0.18980E-03   624   0.285E-03 0.516E-04
CGA:   9    -0.152533879222E+04   -0.11124E-03   -0.10985E-03   624   0.155E-03 0.152E-04
CGA:  10    -0.152533884670E+04   -0.54482E-04   -0.52547E-04   624   0.842E-04 0.384E-04
CGA:  11    -0.152533890479E+04   -0.58089E-04   -0.82528E-04   624   0.249E-03-0.495E-04
CGA:  12    -0.152533893950E+04   -0.34714E-04   -0.43554E-04   624   0.598E-04 0.705E-04
CGA:  13    -0.152533896839E+04   -0.28887E-04   -0.29539E-04   624   0.629E-04-0.741E-05
CGA:  14    -0.152533898381E+04   -0.15426E-04   -0.15742E-04   624   0.634E-04 0.228E-04
CGA:  15    -0.152533901054E+04   -0.26726E-04   -0.26488E-04   624   0.513E-04 0.291E-04
CGA:  16    -0.152533904254E+04   -0.32003E-04   -0.70610E-04   624   0.307E-03-0.637E-04
CGA:  17    -0.152533907346E+04   -0.30921E-04   -0.47124E-04   624   0.772E-04 0.924E-04
CGA:  18    -0.152533909997E+04   -0.26509E-04   -0.26869E-04   624   0.217E-04 0.647E-05
CGA:  19    -0.152533912031E+04   -0.20340E-04    0.10615E-04   624   0.270E-04 0.342E-05
CGA:  20    -0.152533912907E+04   -0.87615E-05   -0.91064E-05   624   0.145E-04 0.122E-04
[...]
CGA:   8    -0.152521825352E+04   -0.14114E-01   -0.14277E-01   624   0.214E-01-0.480E-02
CGA:   9    -0.152522354267E+04   -0.52892E-02   -0.52487E-02   624   0.801E-02-0.161E-02
CGA:  10    -0.152522592085E+04   -0.23782E-02   -0.24288E-02   624   0.390E-02-0.173E-02
CGA:  11    -0.152522697080E+04   -0.10499E-02   -0.10919E-02   624   0.255E-02-0.721E-03
CGA:  12    -0.152522777231E+04   -0.80151E-03   -0.11472E-02   624   0.440E-02-0.139E-02
CGA:  13    -0.152522848762E+04   -0.71531E-03   -0.73704E-03   624   0.111E-02 0.173E-03
CGA:  14    -0.152522888039E+04   -0.39277E-03   -0.39386E-03   624   0.522E-03-0.326E-04
CGA:  15    -0.152522905326E+04   -0.17286E-03   -0.16841E-03   624   0.285E-03 0.194E-03
CGA:  16    -0.152522919184E+04   -0.13859E-03   -0.13413E-03   624   0.205E-03 0.138E-03
CGA:  17    -0.152522928145E+04   -0.89609E-04   -0.91575E-04   624   0.157E-03 0.174E-03
CGA:  18    -0.152522934560E+04   -0.64144E-04   -0.60635E-04   624   0.126E-03 0.469E-04
CGA:  19    -0.152522943383E+04   -0.88231E-04   -0.17174E-03   624   0.117E-02-0.118E-03
CGA:  20    -0.152522955584E+04   -0.12202E-03   -0.14984E-03   624   0.139E-03 0.134E-03
CGA:  21    -0.152522959565E+04   -0.39810E-04   -0.42816E-04   624   0.746E-04 0.461E-04
CGA:  22    -0.152522962542E+04   -0.29765E-04   -0.29768E-04   624   0.911E-04-0.128E-06
CGA:  23    -0.152522964697E+04   -0.21548E-04   -0.24967E-04   624   0.103E-03 0.545E-04
CGA:  24    -0.152522966473E+04   -0.17767E-04   -0.21239E-04   624   0.481E-04 0.277E-04
CGA:  25    -0.152522969816E+04   -0.33423E-04   -0.36020E-04   624   0.673E-04-0.104E-04
CGA:  26    -0.152522971405E+04   -0.15894E-04   -0.16678E-04   624   0.825E-04 0.322E-04
CGA:  27    -0.152522975406E+04   -0.40009E-04   -0.40490E-04   624   0.474E-04 0.705E-04
CGA:  28    -0.152522976774E+04   -0.13680E-04   -0.13824E-04   624   0.348E-04 0.319E-05
CGA:  29    -0.152522976849E+04   -0.75609E-06   -0.52435E-05   624   0.155E-04 0.231E-04
  45 F= -.15252298E+04 E0= -.15252298E+04  d E =-.171168E+01  mag=    16.0000
       N       E                     dE             d eps       ncg     rms          ort
SDA:   1    -0.152490023850E+04    0.32953E+00    0.00000E+00   624   0.983E+00 0.000E+00
CGA:   2    -0.152521592664E+04   -0.31569E+00   -0.31571E+00   624   0.400E+00-0.519E-02
CGA:   3    -0.152529026805E+04   -0.74341E-01   -0.74628E-01   624   0.915E-01 0.263E-02
CGA:   4    -0.152530920166E+04   -0.18934E-01   -0.19067E-01   624   0.157E-01 0.144E-02
CGA:   5    -0.152531292756E+04   -0.37259E-02   -0.37001E-02   624   0.549E-02-0.342E-03
CGA:   6    -0.152531434343E+04   -0.14159E-02   -0.13999E-02   624   0.213E-02-0.381E-03
CGA:   7    -0.152531491977E+04   -0.57635E-03   -0.57463E-03   624   0.801E-03-0.176E-03
CGA:   8    -0.152531512330E+04   -0.20352E-03   -0.20413E-03   624   0.266E-03 0.279E-04
CGA:   9    -0.152531519729E+04   -0.73989E-04   -0.74279E-04   624   0.915E-04 0.107E-04
CGA:  10    -0.152531521708E+04   -0.19799E-04   -0.64331E-04   624   0.289E-03-0.118E-03
CGA:  11    -0.152531525782E+04   -0.40731E-04   -0.45193E-04   624   0.422E-04 0.290E-04
CGA:  12    -0.152531525419E+04    0.36218E-05   -0.37472E-04   624   0.240E-03-0.824E-04
CGA:  13    -0.152531528308E+04   -0.28883E-04   -0.36749E-04   624   0.361E-04 0.446E-04
CGA:  14    -0.152531529605E+04   -0.12971E-04   -0.12718E-04   624   0.117E-04-0.924E-05
CGA:  15    -0.152531530001E+04   -0.39588E-05   -0.40711E-05   624   0.969E-05-0.789E-06
CGA:  16    -0.152531527831E+04    0.21698E-04   -0.12585E-04   624   0.195E-03-0.237E-04
CGA:  17    -0.152531532196E+04   -0.43652E-04   -0.40083E-04   624   0.445E-04-0.794E-05
CGA:  18    -0.152531533270E+04   -0.10738E-04   -0.95653E-05   624   0.357E-05-0.309E-05
CGA:  19    -0.152531533326E+04   -0.56696E-06   -0.84782E-06   624   0.116E-05 0.917E-06
  46 F= -.15253153E+04 E0= -.15253153E+04  d E =-.855648E-01  mag=    16.0000
       N       E                     dE             d eps       ncg     rms          ort
SDA:   1    -0.152517032032E+04    0.14501E+00    0.00000E+00   624   0.442E+00 0.000E+00
CGA:   2    -0.152528802093E+04   -0.11770E+00   -0.11734E+00   624   0.196E+00-0.116E-02
CGA:   3    -0.152532861961E+04   -0.40599E-01   -0.40671E-01   624   0.414E-01 0.228E-03
CGA:   4    -0.152533647698E+04   -0.78574E-02   -0.79406E-02   624   0.887E-02 0.274E-03
CGA:   5    -0.152533832788E+04   -0.18509E-02   -0.18591E-02   624   0.225E-02 0.292E-04
CGA:   6    -0.152533892850E+04   -0.60062E-03   -0.58112E-03   624   0.816E-03-0.842E-04
CGA:   7    -0.152533917961E+04   -0.25111E-03   -0.23738E-03   624   0.333E-03-0.786E-04
CGA:   8    -0.152533926908E+04   -0.89465E-04   -0.88431E-04   624   0.122E-03-0.594E-05
CGA:   9    -0.152533930847E+04   -0.39388E-04   -0.38451E-04   624   0.522E-04-0.663E-05
CGA:  10    -0.152533933154E+04   -0.23071E-04   -0.25183E-04   624   0.871E-04-0.359E-04
CGA:  11    -0.152533934750E+04   -0.15963E-04   -0.15005E-04   624   0.200E-04-0.296E-05
CGA:  12    -0.152533935322E+04   -0.57196E-05   -0.14946E-04   624   0.106E-03-0.277E-04
CGA:  13    -0.152533936794E+04   -0.14724E-04   -0.15869E-04   624   0.159E-04 0.435E-05
CGA:  14    -0.152533937226E+04   -0.43162E-05   -0.44774E-05   624   0.437E-05 0.955E-06
  47 F= -.15253394E+04 E0= -.15253394E+04  d E =-.240390E-01  mag=    16.0000
       N       E                     dE             d eps       ncg     rms          ort
SDA:   1    -0.152518983380E+04    0.14953E+00    0.00000E+00   624   0.453E+00 0.000E+00
CGA:   2    -0.152529543682E+04   -0.10560E+00   -0.10544E+00   624   0.189E+00-0.757E-03
CGA:   3    -0.152533819349E+04   -0.42757E-01   -0.42731E-01   624   0.441E-01-0.189E-03
CGA:   4    -0.152534601995E+04   -0.78265E-02   -0.78661E-02   624   0.842E-02 0.181E-03
CGA:   5    -0.152534773256E+04   -0.17126E-02   -0.17291E-02   624   0.202E-02 0.840E-04
CGA:   6    -0.152534824019E+04   -0.50763E-03   -0.50343E-03   624   0.640E-03-0.287E-04
CGA:   7    -0.152534843410E+04   -0.19391E-03   -0.18948E-03   624   0.258E-03-0.527E-04
CGA:   8    -0.152534851109E+04   -0.76989E-04   -0.76021E-04   624   0.112E-03-0.166E-04
CGA:   9    -0.152534854795E+04   -0.36866E-04   -0.36700E-04   624   0.526E-04-0.626E-05
CGA:  10    -0.152534857025E+04   -0.22297E-04   -0.26539E-04   624   0.773E-04-0.268E-04
CGA:  11    -0.152534858821E+04   -0.17962E-04   -0.16449E-04   624   0.289E-04-0.856E-05
CGA:  12    -0.152534859811E+04   -0.98950E-05   -0.10009E-04   624   0.301E-04-0.759E-05
CGA:  13    -0.152534859936E+04   -0.12521E-05   -0.25263E-04   624   0.161E-03-0.315E-04
CGA:  14    -0.152534862318E+04   -0.23823E-04   -0.26188E-04   624   0.312E-04 0.101E-04
CGA:  15    -0.152534863291E+04   -0.97303E-05   -0.97822E-05   624   0.121E-04 0.528E-06
  48 F= -.15253486E+04 E0= -.15253486E+04  d E =-.926065E-02  mag=    16.0000
       N       E                     dE             d eps       ncg     rms          ort
SDA:   1    -0.152517430944E+04    0.17431E+00    0.00000E+00   624   0.524E+00 0.000E+00
CGA:   2    -0.152529351004E+04   -0.11920E+00   -0.11914E+00   624   0.215E+00-0.283E-03
CGA:   3    -0.152534288279E+04   -0.49373E-01   -0.49310E-01   624   0.518E-01-0.444E-03
CGA:   4    -0.152535176060E+04   -0.88778E-02   -0.89193E-02   624   0.894E-02 0.218E-03
CGA:   5    -0.152535354851E+04   -0.17879E-02   -0.18090E-02   624   0.210E-02 0.130E-03
CGA:   6    -0.152535406352E+04   -0.51501E-03   -0.51471E-03   624   0.620E-03-0.281E-05
CGA:   7    -0.152535423733E+04   -0.17381E-03   -0.17246E-03   624   0.220E-03-0.188E-04
CGA:   8    -0.152535430875E+04   -0.71420E-04   -0.71206E-04   624   0.107E-03-0.162E-04
CGA:   9    -0.152535432946E+04   -0.20713E-04   -0.23693E-04   624   0.380E-04 0.276E-04
CGA:  10    -0.152535434574E+04   -0.16279E-04   -0.16279E-04   624   0.260E-04 0.199E-05
CGA:  11    -0.152535435887E+04   -0.13127E-04   -0.19199E-04   624   0.605E-04-0.171E-04
CGA:  12    -0.152535437307E+04   -0.14204E-04   -0.14793E-04   624   0.155E-04 0.514E-05
CGA:  13    -0.152535438133E+04   -0.82638E-05   -0.84710E-05   624   0.142E-04-0.141E-05
  49 F= -.15253544E+04 E0= -.15253544E+04  d E =-.574842E-02  mag=    16.0000
       N       E                     dE             d eps       ncg     rms          ort
SDA:   1    -0.152498051242E+04    0.37386E+00    0.00000E+00   624   0.104E+01 0.000E+00
CGA:   2    -0.152523789017E+04   -0.25738E+00   -0.25747E+00   624   0.441E+00 0.949E-03
CGA:   3    -0.152533491875E+04   -0.97029E-01   -0.96879E-01   624   0.100E+00-0.107E-02
CGA:   4    -0.152535254807E+04   -0.17629E-01   -0.17574E-01   624   0.179E-01-0.325E-03
CGA:   5    -0.152535621719E+04   -0.36691E-02   -0.36602E-02   624   0.432E-02-0.666E-04
CGA:   6    -0.152535725040E+04   -0.10332E-02   -0.10333E-02   624   0.124E-02 0.951E-06
CGA:   7    -0.152535757953E+04   -0.32913E-03   -0.33025E-03   624   0.422E-03 0.191E-04
CGA:   8    -0.152535772687E+04   -0.14734E-03   -0.14833E-03   624   0.223E-03-0.389E-04
CGA:   9    -0.152535778505E+04   -0.58178E-04   -0.58432E-04   624   0.862E-04 0.755E-05
CGA:  10    -0.152535781851E+04   -0.33461E-04   -0.46322E-04   624   0.145E-03-0.645E-04
CGA:  11    -0.152535783597E+04   -0.17461E-04   -0.21819E-04   624   0.257E-04 0.246E-04
CGA:  12    -0.152535784715E+04   -0.11174E-04   -0.11737E-04   624   0.251E-04-0.821E-05
CGA:  13    -0.152535785388E+04   -0.67397E-05   -0.65655E-05   624   0.262E-04 0.276E-05
  50 F= -.15253579E+04 E0= -.15253579E+04  d E =-.347255E-02  mag=    16.0000
       N       E                     dE             d eps       ncg     rms          ort
SDA:   1    -0.152488844594E+04    0.46940E+00    0.00000E+00   624   0.116E+01 0.000E+00
CGA:   2    -0.152523672565E+04   -0.34828E+00   -0.34833E+00   624   0.453E+00 0.279E-02
CGA:   3    -0.152532940380E+04   -0.92678E-01   -0.92504E-01   624   0.963E-01-0.184E-02
CGA:   4    -0.152534686361E+04   -0.17460E-01   -0.17594E-01   624   0.176E-01 0.121E-02
CGA:   5    -0.152535073968E+04   -0.38761E-02   -0.38802E-02   624   0.455E-02 0.472E-04
CGA:   6    -0.152535184420E+04   -0.11045E-02   -0.11024E-02   624   0.147E-02-0.324E-04
CGA:   7    -0.152535221627E+04   -0.37207E-03   -0.37625E-03   624   0.521E-03 0.936E-04
CGA:   8    -0.152535241158E+04   -0.19531E-03   -0.19812E-03   624   0.310E-03-0.491E-04
CGA:   9    -0.152535244680E+04   -0.35216E-04   -0.48757E-04   624   0.111E-03 0.105E-03
CGA:  10    -0.152535246757E+04   -0.20774E-04   -0.26406E-04   624   0.476E-04 0.473E-04
CGA:  11    -0.152535249249E+04   -0.24923E-04   -0.31635E-04   624   0.100E-03-0.386E-04
CGA:  12    -0.152535249487E+04   -0.23750E-05   -0.11115E-04   624   0.293E-04 0.465E-04
  51 F= -.15253525E+04 E0= -.15253525E+04  d E =0.535902E-02  mag=    16.0000
       N       E                     dE             d eps       ncg     rms          ort
SDA:   1    -0.152527567688E+04    0.76816E-01    0.00000E+00   624   0.206E+00 0.000E+00
CGA:   2    -0.152533811135E+04   -0.62434E-01   -0.62427E-01   624   0.855E-01 0.410E-03
CGA:   3    -0.152535527143E+04   -0.17160E-01   -0.17097E-01   624   0.193E-01-0.724E-03
CGA:   4    -0.152535921075E+04   -0.39393E-02   -0.38753E-02   624   0.396E-02-0.821E-03
CGA:   5    -0.152536000876E+04   -0.79800E-03   -0.79242E-03   624   0.108E-02-0.839E-04
CGA:   6    -0.152536026552E+04   -0.25676E-03   -0.25688E-03   624   0.361E-03 0.431E-05
CGA:   7    -0.152536038174E+04   -0.11622E-03   -0.12113E-03   624   0.199E-03-0.759E-04
CGA:   8    -0.152536043374E+04   -0.52000E-04   -0.65172E-04   624   0.172E-03-0.923E-04
CGA:   9    -0.152536048769E+04   -0.53958E-04    0.28278E-03   624   0.760E-04-0.462E-04
CGA:  10    -0.152536048614E+04    0.15584E-05   -0.38974E-04   624   0.242E-03-0.962E-04
CGA:  11    -0.152536053290E+04   -0.46762E-04   -0.47301E-04   624   0.359E-04 0.542E-05
CGA:  12    -0.152536053896E+04   -0.60621E-05   -0.71684E-05   624   0.129E-04 0.110E-04
  52 F= -.15253605E+04 E0= -.15253605E+04  d E =-.804409E-02  mag=    16.0000
       N       E                     dE             d eps       ncg     rms          ort
SDA:   1    -0.152534706940E+04    0.13463E-01    0.00000E+00   624   0.385E-01 0.000E+00
CGA:   2    -0.152535679172E+04   -0.97223E-02   -0.97362E-02   624   0.162E-01 0.433E-03
CGA:   3    -0.152536036462E+04   -0.35729E-02   -0.35683E-02   624   0.368E-02-0.711E-04
CGA:   4    -0.152536105863E+04   -0.69400E-03   -0.67793E-03   624   0.739E-03-0.167E-03
CGA:   5    -0.152536121062E+04   -0.15200E-03   -0.14830E-03   624   0.189E-03-0.566E-04
CGA:   6    -0.152536124927E+04   -0.38642E-04   -0.38778E-04   624   0.483E-04 0.272E-05
CGA:   7    -0.152536126079E+04   -0.11518E-04   -0.11708E-04   624   0.139E-04 0.619E-05
CGA:   8    -0.152536126146E+04   -0.67607E-06   -0.13031E-04   624   0.652E-04-0.220E-04
CGA:   9    -0.152536127625E+04   -0.14793E-04   -0.14086E-04   624   0.109E-04-0.877E-05
CGA:  10    -0.152536127873E+04   -0.24721E-05   -0.24528E-05   624   0.282E-05-0.564E-06
  53 F= -.15253613E+04 E0= -.15253613E+04  d E =-.739768E-03  mag=    16.0000
       N       E                     dE             d eps       ncg     rms          ort
SDA:   1    -0.152526455858E+04    0.96718E-01    0.00000E+00   624   0.251E+00 0.000E+00
CGA:   2    -0.152533594540E+04   -0.71387E-01   -0.71435E-01   624   0.975E-01 0.173E-02
CGA:   3    -0.152535663303E+04   -0.20688E-01   -0.20619E-01   624   0.208E-01-0.656E-03
CGA:   4    -0.152536043926E+04   -0.38062E-02   -0.37640E-02   624   0.408E-02-0.337E-03
CGA:   5    -0.152536128674E+04   -0.84749E-03   -0.83869E-03   624   0.984E-03-0.965E-04
CGA:   6    -0.152536150889E+04   -0.22214E-03   -0.22259E-03   624   0.276E-03 0.705E-05
CGA:   7    -0.152536158231E+04   -0.73418E-04   -0.73718E-04   624   0.956E-04 0.114E-04
CGA:   8    -0.152536161065E+04   -0.28344E-04   -0.68740E-04   624   0.262E-03-0.101E-03
CGA:   9    -0.152536165114E+04   -0.40492E-04   -0.43561E-04   624   0.310E-04 0.215E-04
CGA:  10    -0.152536165430E+04   -0.31580E-05   -0.22217E-04   624   0.138E-03-0.529E-04
CGA:  11    -0.152536166551E+04   -0.11214E-04   -0.17287E-04   624   0.192E-04 0.314E-04
CGA:  12    -0.152536167003E+04   -0.45214E-05   -0.47879E-05   624   0.493E-05 0.245E-05
  54 F= -.15253617E+04 E0= -.15253617E+04  d E =-.391308E-03  mag=    16.0000
       N       E                     dE             d eps       ncg     rms          ort
SDA:   1    -0.152501423270E+04    0.34743E+00    0.00000E+00   624   0.901E+00 0.000E+00
CGA:   2    -0.152526642322E+04   -0.25219E+00   -0.25224E+00   624   0.361E+00 0.181E-02
CGA:   3    -0.152534365777E+04   -0.77235E-01   -0.77146E-01   624   0.728E-01-0.821E-03
CGA:   4    -0.152535651948E+04   -0.12862E-01   -0.12841E-01   624   0.140E-01-0.170E-03
CGA:   5    -0.152535947871E+04   -0.29592E-02   -0.29575E-02   624   0.344E-02-0.205E-04
CGA:   6    -0.152536030461E+04   -0.82591E-03   -0.82342E-03   624   0.103E-02-0.490E-04
CGA:   7    -0.152536060893E+04   -0.30432E-03   -0.30525E-03   624   0.436E-03-0.694E-04
CGA:   8    -0.152536076204E+04   -0.15311E-03   -0.16542E-03   624   0.286E-03-0.104E-03
CGA:   9    -0.152536082983E+04   -0.67791E-04   -0.68393E-04   624   0.111E-03-0.304E-04
CGA:  10    -0.152536085153E+04   -0.21702E-04   -0.60553E-04   624   0.278E-03-0.124E-03
CGA:  11    -0.152536087931E+04   -0.27777E-04   -0.37997E-04   624   0.430E-04 0.597E-04
CGA:  12    -0.152536089338E+04   -0.14076E-04   -0.14007E-04   624   0.183E-04-0.203E-05
CGA:  13    -0.152536079287E+04    0.10051E-03   -0.54165E-04   624   0.704E-03-0.834E-04
CGA:  14    -0.152536086305E+04   -0.70176E-04   -0.96455E-04   624   0.872E-04 0.694E-04
CGA:  15    -0.152536089681E+04   -0.33762E-04   -0.32661E-04   624   0.314E-04-0.588E-05
CGA:  16    -0.152536091109E+04   -0.14279E-04   -0.12183E-04   624   0.456E-04-0.204E-04
CGA:  17    -0.152536091388E+04   -0.27890E-05   -0.58274E-05   624   0.563E-05 0.814E-05
  55 F= -.15253609E+04 E0= -.15253609E+04  d E =0.756157E-03  mag=    16.0000
       N       E                     dE             d eps       ncg     rms          ort
SDA:   1    -0.152486853901E+04    0.49237E+00    0.00000E+00   624   0.127E+01 0.000E+00
CGA:   2    -0.152522967826E+04   -0.36114E+00   -0.36157E+00   624   0.501E+00 0.234E-02
CGA:   3    -0.152533620027E+04   -0.10652E+00   -0.10618E+00   624   0.101E+00-0.947E-03
CGA:   4    -0.152535416349E+04   -0.17963E-01   -0.17954E-01   624   0.190E-01 0.669E-04
CGA:   5    -0.152535831841E+04   -0.41549E-02   -0.41579E-02   624   0.471E-02 0.157E-04
CGA:   6    -0.152535944884E+04   -0.11304E-02   -0.11268E-02   624   0.147E-02-0.176E-04
CGA:   7    -0.152535985052E+04   -0.40168E-03   -0.40358E-03   624   0.587E-03 0.129E-04
CGA:   8    -0.152536007144E+04   -0.22092E-03   -0.21609E-03   624   0.374E-03-0.821E-04
CGA:   9    -0.152536015283E+04   -0.81393E-04   -0.82717E-04   624   0.138E-03 0.912E-05
CGA:  10    -0.152536020229E+04   -0.49458E-04   -0.47435E-04   624   0.664E-04-0.260E-04
CGA:  11    -0.152536022088E+04   -0.18588E-04   -0.18364E-04   624   0.321E-04-0.326E-05
CGA:  12    -0.152536023501E+04   -0.14135E-04   -0.15067E-04   624   0.341E-04-0.107E-04
CGA:  13    -0.152536024131E+04   -0.62927E-05   -0.16254E-04   624   0.953E-04-0.329E-04
CGA:  14    -0.152536025340E+04   -0.12089E-04   -0.15202E-04   624   0.190E-04 0.121E-04
CGA:  15    -0.152536025962E+04   -0.62223E-05   -0.64118E-05   624   0.564E-05 0.169E-05
  56 F= -.15253603E+04 E0= -.15253603E+04  d E =0.654259E-03  mag=    16.0000
       N       E                     dE             d eps       ncg     rms          ort
SDA:   1    -0.152526508501E+04    0.95168E-01    0.00000E+00   624   0.268E+00 0.000E+00
CGA:   2    -0.152533089756E+04   -0.65813E-01   -0.65745E-01   624   0.114E+00-0.355E-03
CGA:   3    -0.152535578815E+04   -0.24891E-01   -0.24889E-01   624   0.257E-01 0.935E-05
CGA:   4    -0.152536045439E+04   -0.46662E-02   -0.46095E-02   624   0.481E-02-0.259E-03
CGA:   5    -0.152536147471E+04   -0.10203E-02   -0.10070E-02   624   0.123E-02-0.791E-04
CGA:   6    -0.152536174488E+04   -0.27017E-03   -0.27367E-03   624   0.334E-03 0.247E-04
CGA:   7    -0.152536183946E+04   -0.94579E-04   -0.94352E-04   624   0.116E-03-0.252E-05
CGA:   8    -0.152536187565E+04   -0.36196E-04   -0.36199E-04   624   0.496E-04 0.701E-07
CGA:   9    -0.152536182598E+04    0.49669E-04   -0.56317E-04   624   0.579E-03-0.136E-03
CGA:  10    -0.152536189062E+04   -0.64636E-04   -0.82744E-04   624   0.711E-04 0.737E-04
CGA:  11    -0.152536191494E+04   -0.24320E-04   -0.23377E-04   624   0.293E-04-0.103E-04
CGA:  12    -0.152536192385E+04   -0.89072E-05   -0.88513E-05   624   0.142E-04-0.226E-05
CGA:  13    -0.152536185671E+04    0.67143E-04   -0.24604E-04   624   0.353E-03-0.614E-04
CGA:  14    -0.152536193324E+04   -0.76537E-04   -0.75396E-04   624   0.753E-04-0.384E-05
CGA:  15    -0.152536194226E+04   -0.90220E-05   -0.12437E-04   624   0.125E-04 0.128E-04
  57 F= -.15253619E+04 E0= -.15253619E+04  d E =-.168265E-02  mag=    16.0000
       N       E                     dE             d eps       ncg     rms          ort
SDA:   1    -0.152534920903E+04    0.12724E-01    0.00000E+00   624   0.356E-01 0.000E+00
CGA:   2    -0.152536009966E+04   -0.10891E-01   -0.10815E-01   624   0.147E-01-0.650E-03
CGA:   3    -0.152536286471E+04   -0.27650E-02   -0.28270E-02   624   0.309E-02 0.284E-03
CGA:   4    -0.152536338549E+04   -0.52079E-03   -0.58083E-03   624   0.573E-03 0.276E-03
CGA:   5    -0.152536350795E+04   -0.12246E-03   -0.12993E-03   624   0.155E-03 0.406E-04
CGA:   6    -0.152536356833E+04   -0.60372E-04   -0.58852E-04   624   0.113E-03-0.541E-04
CGA:   7    -0.152536359123E+04   -0.22900E-04   -0.20116E-04   624   0.509E-04-0.257E-04
CGA:   8    -0.152536359655E+04   -0.53225E-05   -0.72569E-05   624   0.212E-04 0.101E-04
  58 F= -.15253636E+04 E0= -.15253636E+04  d E =-.165429E-02  mag=    16.0000
