       N       E                     dE             d eps       ncg     rms          ort
DAV:   1     0.275050296752E+04    0.27505E+04   -0.14566E+05  7392   0.164E+03
DAV:   2    -0.111188751887E+03   -0.28617E+04   -0.26561E+04  7392   0.431E+02
DAV:   3    -0.451975583023E+03   -0.34079E+03   -0.33455E+03  7392   0.169E+02
DAV:   4    -0.466886986997E+03   -0.14911E+02   -0.14536E+02  7392   0.326E+01
DAV:   5    -0.467754917710E+03   -0.86793E+00   -0.85854E+00  7392   0.587E+00
SDA:   6    -0.244760239461E+03    0.22299E+03   -0.85854E+00  7392   0.590E+03 0.000E+00
CGA:   7    -0.332751165780E+03   -0.87991E+02   -0.70130E+02  7392   0.259E+03-0.109E+03
CGA:   8    -0.328925420732E+03    0.38257E+01   -0.14127E+02  7392   0.607E+03-0.137E+03
CGA:   9    -0.315379742495E+03    0.13546E+02   -0.40633E+02  7392   0.558E+03-0.185E+03
CGA:  10    -0.334896973410E+03   -0.19517E+02   -0.11099E+02  7392   0.267E+03-0.107E+03
CGA:  11    -0.330067657189E+03    0.48293E+01   -0.12827E+02  7392   0.367E+03-0.136E+03
CGA:  12    -0.329458339685E+03    0.60932E+00   -0.23231E+02  7392   0.266E+03-0.218E+03
CGA:  13    -0.328410635806E+03    0.10477E+01   -0.13222E+02  7392   0.119E+04-0.214E+03
CGA:  14    -0.323558052910E+03    0.48526E+01   -0.79351E+02  7392   0.272E+03-0.155E+03
CGA:  15    -0.319809636891E+03    0.37484E+01   -0.11919E+02  7392   0.120E+04-0.824E+03
CGA:  16    -0.331175004712E+03   -0.11365E+02   -0.59735E+02  7392   0.777E+03-0.443E+03
CGA:  17    -0.347101961782E+03   -0.15927E+02   -0.31982E+02  7392   0.422E+03 0.349E+03
CGA:  18    -0.339934881951E+03    0.71671E+01   -0.37802E+02  7392   0.507E+03-0.415E+03
CGA:  19    -0.331069798592E+03    0.88651E+01   -0.25860E+02  7392   0.115E+04-0.107E+04
CGA:  20    -0.328736796873E+03    0.23330E+01   -0.70663E+02  7392   0.148E+03-0.141E+03
CGA:  21    -0.351765671370E+03   -0.23029E+02   -0.45942E+01  7392   0.219E+03 0.100E+03
CGA:  22    -0.345777556743E+03    0.59881E+01   -0.65160E+01  7392   0.124E+04-0.933E+03
CGA:  23    -0.341601047113E+03    0.41765E+01   -0.64582E+02  7392   0.490E+03-0.304E+03
CGA:  24    -0.343173940631E+03   -0.15729E+01   -0.16167E+02  7392   0.107E+04-0.702E+03
CGA:  25    -0.341963803730E+03    0.12101E+01   -0.54421E+02  7392   0.510E+03-0.253E+03
CGA:  26    -0.338942467003E+03    0.30213E+01   -0.15916E+02  7392   0.129E+04-0.870E+01
CGA:  27    -0.312262270080E+03    0.26680E+02   -0.55473E+02  7392   0.574E+03-0.235E+03
CGA:  28    -0.348427162215E+03   -0.36165E+02   -0.28606E+02  7392   0.483E+03-0.124E+04
CGA:  29    -0.354124761370E+03   -0.56976E+01   -0.16041E+02  7392   0.130E+03-0.215E+03
CGA:  30    -0.356751733719E+03   -0.26270E+01   -0.99503E+00  7392   0.181E+03 0.155E+03
CGA:  31    -0.356776578307E+03   -0.24845E-01   -0.38636E+01  7392   0.331E+03-0.325E+03
CGA:  32    -0.354110660143E+03    0.26659E+01   -0.99269E+01  7392   0.231E+03-0.152E+03
CGA:  33    -0.358370430992E+03   -0.42598E+01   -0.20870E+01  7392   0.140E+03 0.153E+03
CGA:  34    -0.358927787125E+03   -0.55736E+00   -0.22546E+01  7392   0.159E+03-0.183E+03
CGA:  35    -0.356331736466E+03    0.25961E+01   -0.43188E+01  7392   0.193E+03-0.103E+03
CGA:  36    -0.357752550430E+03   -0.14208E+01   -0.33158E+01  7392   0.309E+03-0.382E+03
CGA:  37    -0.354827184257E+03    0.29254E+01   -0.82145E+01  7392   0.225E+03-0.148E+03
CGA:  38    -0.358294534323E+03   -0.34674E+01   -0.14798E+01  7392   0.186E+03 0.178E+03
CGA:  39    -0.358804914278E+03   -0.51038E+00   -0.26797E+01  7392   0.219E+03-0.249E+03
CGA:  40    -0.356126356788E+03    0.26786E+01   -0.52158E+01  7392   0.226E+03-0.132E+03
CGA:  41    -0.358815153626E+03   -0.26888E+01   -0.32456E+01  7392   0.221E+03-0.362E+03
CGA:  42    -0.356779507776E+03    0.20356E+01   -0.47659E+01  7392   0.242E+03-0.157E+03
CGA:  43    -0.359371990539E+03   -0.25925E+01   -0.32220E+01  7392   0.150E+03-0.273E+03
CGA:  44    -0.358664642460E+03    0.70735E+00   -0.27159E+01  7392   0.179E+03-0.135E+03
CGA:  45    -0.360364474538E+03   -0.16998E+01   -0.18309E+01  7392   0.162E+02-0.601E+02
CGA:  46    -0.360496003757E+03   -0.13153E+00   -0.15845E+00  7392   0.182E+01-0.148E+01
CGA:  47    -0.360535855926E+03   -0.39852E-01   -0.39735E-01  7392   0.245E+01-0.119E-01
CGA:  48    -0.360977337791E+03   -0.44148E+00   -0.33186E+00  7392   0.505E+01 0.100E+01
CGA:  49    -0.361282213830E+03   -0.30488E+00   -0.33005E+00  7392   0.364E+01 0.127E+01
CGA:  50    -0.361406272884E+03   -0.12406E+00   -0.14751E+00  7392   0.243E+01-0.118E+00
CGA:  51    -0.361546372470E+03   -0.14010E+00   -0.13480E+00  7392   0.961E+00 0.613E+00
CGA:  52    -0.361736632615E+03   -0.19026E+00   -0.16756E+00  7392   0.541E+00 0.282E+00
CGA:  53    -0.361860857908E+03   -0.12423E+00   -0.10060E+00  7392   0.242E+00 0.266E+00
CGA:  54    -0.361967738994E+03   -0.10688E+00   -0.90391E-01  7392   0.118E+00 0.101E+00
CGA:  55    -0.362039996607E+03   -0.72258E-01   -0.26826E-02  7392   0.503E-01-0.358E-02
CGA:  56    -0.362056423183E+03   -0.16427E-01   -0.15053E-01  7392   0.206E-01 0.766E-02
CGA:  57    -0.362065069378E+03   -0.86462E-02   -0.78958E-02  7392   0.644E-02 0.390E-02
CGA:  58    -0.362069137099E+03   -0.40677E-02   -0.34939E-02  7392   0.471E-02 0.188E-02
CGA:  59    -0.362072157479E+03   -0.30204E-02   -0.27300E-02  7392   0.314E-02 0.101E-02
CGA:  60    -0.362072589306E+03   -0.43183E-03   -0.55596E-03  7392   0.157E-01-0.385E-02
CGA:  61    -0.362075398621E+03   -0.28093E-02   -0.33760E-02  7392   0.509E-02 0.301E-02
CGA:  62    -0.362076646165E+03   -0.12475E-02   -0.14576E-02  7392   0.279E-02 0.166E-02
CGA:  63    -0.362077599052E+03   -0.95289E-03   -0.10003E-02  7392   0.138E-02 0.606E-03
CGA:  64    -0.362078541503E+03   -0.94245E-03   -0.90656E-03  7392   0.124E-02 0.204E-03
CGA:  65    -0.362079102939E+03   -0.56144E-03   -0.55041E-03  7392   0.139E-02 0.182E-03
CGA:  66    -0.362079746279E+03   -0.64334E-03   -0.63679E-03  7392   0.222E-02 0.230E-04
CGA:  67    -0.362080278307E+03   -0.53203E-03   -0.56158E-03  7392   0.304E-02 0.920E-04
CGA:  68    -0.362081086948E+03   -0.80864E-03   -0.83977E-03  7392   0.392E-02 0.168E-03
CGA:  69    -0.362082173216E+03   -0.10863E-02   -0.11218E-02  7392   0.321E-02 0.647E-03
CGA:  70    -0.362082976233E+03   -0.80302E-03   -0.88396E-03  7392   0.228E-02 0.929E-03
CGA:  71    -0.362083796556E+03   -0.82032E-03   -0.83899E-03  7392   0.180E-02 0.553E-03
CGA:  72    -0.362084660966E+03   -0.86441E-03   -0.91183E-03  7392   0.226E-02-0.556E-03
CGA:  73    -0.362085083994E+03   -0.42303E-03   -0.38770E-03  7392   0.236E-02-0.537E-03
CGA:  74    -0.362085425211E+03   -0.34122E-03   -0.30719E-03  7392   0.184E-02-0.216E-03
CGA:  75    -0.362085739876E+03   -0.31466E-03   -0.30093E-03  7392   0.162E-02-0.705E-04
CGA:  76    -0.362086098152E+03   -0.35828E-03   -0.34077E-03  7392   0.174E-02-0.206E-03
CGA:  77    -0.362086510098E+03   -0.41195E-03   -0.38840E-03  7392   0.236E-02-0.530E-03
CGA:  78    -0.362086853895E+03   -0.34380E-03   -0.30753E-03  7392   0.286E-02-0.342E-03
CGA:  79    -0.362087313807E+03   -0.45991E-03   -0.46922E-03  7392   0.314E-02 0.132E-03
CGA:  80    -0.362087929668E+03   -0.61586E-03   -0.65327E-03  7392   0.370E-02 0.696E-03
CGA:  81    -0.362088805431E+03   -0.87576E-03   -0.92491E-03  7392   0.481E-02 0.927E-03
CGA:  82    -0.362090131441E+03   -0.13260E-02   -0.13508E-02  7392   0.748E-02 0.818E-03
CGA:  83    -0.362092046421E+03   -0.19150E-02   -0.18100E-02  7392   0.127E-01 0.227E-03
CGA:  84    -0.362093493678E+03   -0.14473E-02   -0.13517E-02  7392   0.171E-01 0.405E-02
CGA:  85    -0.362095306004E+03   -0.18123E-02   -0.20572E-02  7392   0.215E-01 0.362E-02
CGA:  86    -0.362096664672E+03   -0.13587E-02   -0.18354E-02  7392   0.255E-01 0.518E-02
CGA:  87    -0.362098217376E+03   -0.15527E-02   -0.19328E-02  7392   0.301E-01 0.892E-02
CGA:  88    -0.362100007067E+03   -0.17897E-02   -0.20430E-02  7392   0.356E-01 0.167E-01
CGA:  89    -0.362124310069E+03   -0.24303E-01   -0.23430E-01  7392   0.226E-01 0.191E-02
CGA:  90    -0.362133648107E+03   -0.93380E-02   -0.91433E-02  7392   0.150E-01 0.147E-02
CGA:  91    -0.362141234722E+03   -0.75866E-02   -0.80227E-02  7392   0.113E-01-0.184E-02
CGA:  92    -0.362146523087E+03   -0.52884E-02   -0.74985E-02  7392   0.250E-01-0.494E-02
CGA:  93    -0.362152582387E+03   -0.60593E-02   -0.70136E-02  7392   0.277E-01-0.524E-02
CGA:  94    -0.362164491052E+03   -0.11909E-01   -0.11683E-01  7392   0.381E-01-0.168E-02
CGA:  95    -0.362176709214E+03   -0.12218E-01   -0.12006E-01  7392   0.327E-01 0.561E-02
CGA:  96    -0.362190246683E+03   -0.13537E-01   -0.13345E-01  7392   0.228E-01 0.410E-02
CGA:  97    -0.362199952638E+03   -0.97060E-02   -0.95699E-02  7392   0.210E-01 0.226E-02
CGA:  98    -0.362210756955E+03   -0.10804E-01   -0.10982E-01  7392   0.208E-01-0.837E-03
CGA:  99    -0.362218528203E+03   -0.77712E-02   -0.77646E-02  7392   0.185E-01-0.106E-03
CGA: 100    -0.362224082102E+03   -0.55539E-02   -0.56048E-02  7392   0.128E-01 0.186E-02
CGA: 101    -0.362229120012E+03   -0.50379E-02   -0.49878E-02  7392   0.111E-01 0.167E-02
CGA: 102    -0.362233789278E+03   -0.46693E-02   -0.46831E-02  7392   0.862E-02-0.414E-03
CGA: 103    -0.362237420036E+03   -0.36308E-02   -0.37350E-02  7392   0.995E-02-0.875E-03
CGA: 104    -0.362240328243E+03   -0.29082E-02   -0.29097E-02  7392   0.929E-02-0.233E-04
CGA: 105    -0.362244317793E+03   -0.39895E-02   -0.40360E-02  7392   0.138E-01-0.384E-03
CGA: 106    -0.362248948598E+03   -0.46308E-02   -0.46495E-02  7392   0.156E-01-0.159E-02
CGA: 107    -0.362252584148E+03   -0.36355E-02   -0.34305E-02  7392   0.159E-01-0.142E-02
CGA: 108    -0.362255665857E+03   -0.30817E-02   -0.29922E-02  7392   0.146E-01-0.268E-03
CGA: 109    -0.362258394383E+03   -0.27285E-02   -0.27597E-02  7392   0.132E-01 0.403E-03
CGA: 110    -0.362261137998E+03   -0.27436E-02   -0.28356E-02  7392   0.134E-01 0.124E-03
CGA: 111    -0.362264145437E+03   -0.30074E-02   -0.29404E-02  7392   0.132E-01-0.937E-03
CGA: 112    -0.362266996010E+03   -0.28506E-02   -0.26864E-02  7392   0.130E-01-0.874E-03
CGA: 113    -0.362269460191E+03   -0.24642E-02   -0.24072E-02  7392   0.122E-01-0.623E-03
CGA: 114    -0.362271649053E+03   -0.21889E-02   -0.21735E-02  7392   0.103E-01-0.300E-03
CGA: 115    -0.362273547927E+03   -0.18989E-02   -0.18790E-02  7392   0.890E-02-0.372E-04
CGA: 116    -0.362275168896E+03   -0.16210E-02   -0.15834E-02  7392   0.714E-02-0.216E-04
CGA: 117    -0.362276383490E+03   -0.12146E-02   -0.11764E-02  7392   0.528E-02-0.125E-03
CGA: 118    -0.362277265162E+03   -0.88167E-03   -0.85420E-03  7392   0.415E-02-0.169E-03
SDA: 119    -0.362277924967E+03   -0.65981E-03   -0.65421E-03  7392   0.347E-02-0.325E-04
CGA: 120    -0.362280182883E+03   -0.22579E-02   -0.20581E-02  7392   0.335E-02 0.618E-03
CGA: 121    -0.362282620651E+03   -0.24378E-02   -0.34751E-02  7392   0.879E-02-0.172E-02
CGA: 122    -0.362284199047E+03   -0.15784E-02   -0.16789E-02  7392   0.140E-02 0.794E-03
CGA: 123    -0.362285078203E+03   -0.87916E-03   -0.80831E-03  7392   0.123E-02 0.326E-03
CGA: 124    -0.362285973620E+03   -0.89542E-03   -0.12101E-02  7392   0.454E-02-0.636E-03
CGA: 125    -0.362286793038E+03   -0.81942E-03   -0.91414E-03  7392   0.884E-03 0.657E-03
CGA: 126    -0.362287363478E+03   -0.57044E-03   -0.52306E-03  7392   0.770E-03 0.264E-03
CGA: 127    -0.362287978578E+03   -0.61510E-03   -0.90440E-03  7392   0.402E-02-0.517E-03
CGA: 128    -0.362288684831E+03   -0.70625E-03   -0.81249E-03  7392   0.762E-03 0.611E-03
CGA: 129    -0.362289134921E+03   -0.45009E-03   -0.42427E-03  7392   0.582E-03 0.216E-03
CGA: 130    -0.362289558738E+03   -0.42382E-03   -0.66154E-03  7392   0.310E-02-0.478E-03
CGA: 131    -0.362290070043E+03   -0.51130E-03   -0.61646E-03  7392   0.591E-03 0.526E-03
CGA: 132    -0.362290408052E+03   -0.33801E-03   -0.32401E-03  7392   0.470E-03 0.169E-03
CGA: 133    -0.362290655410E+03   -0.24736E-03   -0.58651E-03  7392   0.326E-02-0.600E-03
CGA: 134    -0.362291175197E+03   -0.51979E-03   -0.63672E-03  7392   0.551E-03 0.514E-03
CGA: 135    -0.362291465765E+03   -0.29057E-03   -0.28553E-03  7392   0.354E-03 0.129E-03
CGA: 136    -0.362291442649E+03    0.23116E-04   -0.48104E-03  7392   0.381E-02-0.732E-03
CGA: 137    -0.362292004709E+03   -0.56206E-03   -0.70556E-03  7392   0.489E-03 0.545E-03
CGA: 138    -0.362292218187E+03   -0.21348E-03   -0.21900E-03  7392   0.292E-03 0.137E-03
CGA: 139    -0.362292330965E+03   -0.11278E-03   -0.31444E-03  7392   0.168E-02-0.487E-03
CGA: 140    -0.362292548001E+03   -0.21704E-03   -0.30882E-03  7392   0.291E-03 0.342E-03
CGA: 141    -0.362292656926E+03   -0.10893E-03   -0.11931E-03  7392   0.194E-03 0.108E-03
CGA: 142    -0.362292747864E+03   -0.90938E-04   -0.22865E-03  7392   0.105E-02-0.320E-03
CGA: 143    -0.362292891493E+03   -0.14363E-03   -0.20669E-03  7392   0.231E-03 0.245E-03
CGA: 144    -0.362292991943E+03   -0.10045E-03   -0.10530E-03  7392   0.126E-03 0.676E-04
CGA: 145    -0.362292599304E+03    0.39264E-03   -0.26495E-03  7392   0.366E-02-0.547E-03
CGA: 146    -0.362293124952E+03   -0.52565E-03   -0.67219E-03  7392   0.407E-03 0.460E-03
CGA: 147    -0.362293277934E+03   -0.15298E-03   -0.16511E-03  7392   0.154E-03 0.995E-04
CGA: 148    -0.362293329231E+03   -0.51296E-04   -0.14722E-03  7392   0.906E-03-0.326E-03
CGA: 149    -0.362293404225E+03   -0.74995E-04   -0.14596E-03  7392   0.124E-03 0.214E-03
CGA: 150    -0.362293414492E+03   -0.10266E-04   -0.29853E-04  7392   0.781E-04 0.700E-04
CGA: 151    -0.362293496902E+03   -0.82411E-04    0.12207E-03  7392   0.811E-04 0.657E-05
CGA: 152    -0.362293519174E+03   -0.22272E-04   -0.28861E-04  7392   0.428E-04 0.502E-04
CGA: 153    -0.362293520108E+03   -0.93377E-06   -0.89877E-05  7392   0.319E-04 0.331E-04
CGA: 154    -0.362032016329E+03    0.26150E+00    0.50264E-01  7392   0.231E+00-0.355E-01
CGA: 155    -0.362121947207E+03   -0.89931E-01   -0.10370E+00  7392   0.936E-01 0.342E-01
CGA: 156    -0.361681824796E+03    0.44012E+00   -0.24874E+00  7392   0.502E+01-0.387E+00
CGA: 157    -0.362246995239E+03   -0.56517E+00   -0.59376E+00  7392   0.249E+00 0.972E+00
CGA: 158    -0.362288071592E+03   -0.41076E-01   -0.44802E-01  7392   0.982E-02-0.804E-02
CGA: 159    -0.362292372688E+03   -0.43011E-02   -0.43858E-02  7392   0.213E-02 0.492E-03
CGA: 160    -0.362293541499E+03   -0.11688E-02   -0.99040E-03  7392   0.142E-02-0.523E-03
CGA: 161    -0.362293682341E+03   -0.14084E-03   -0.26732E-03  7392   0.328E-03 0.250E-03
CGA: 162    -0.362293674584E+03    0.77567E-05   -0.62207E-04  7392   0.109E-03 0.123E-03
CGA: 163    -0.362293699906E+03   -0.25322E-04   -0.39464E-04  7392   0.740E-04 0.318E-04
CGA: 164    -0.362293517522E+03    0.18238E-03   -0.14413E-03  7392   0.142E-02-0.397E-03
CGA: 165    -0.362293665939E+03   -0.14842E-03   -0.30816E-03  7392   0.278E-03 0.318E-03
CGA: 166    -0.362293792191E+03   -0.12625E-03   -0.13257E-03  7392   0.787E-04 0.217E-04
CGA: 167    -0.362293910453E+03   -0.11826E-03    0.14365E-02  7392   0.248E-03-0.111E-03
CGA: 168    -0.362293883451E+03    0.27002E-04   -0.31743E-04  7392   0.530E-04 0.106E-03
CGA: 169    -0.362293866667E+03    0.16784E-04   -0.67225E-05  7392   0.232E-04 0.415E-04
CGA: 170    -0.362293865218E+03    0.14498E-05   -0.49655E-05  7392   0.122E-04 0.155E-04
CGA: 171    -0.362293876475E+03   -0.11258E-04   -0.22756E-04  7392   0.430E-04-0.935E-05
CGA: 172    -0.362293881510E+03   -0.50344E-05   -0.12352E-04  7392   0.125E-04 0.191E-04
CGA: 173    -0.362293893569E+03   -0.12059E-04   -0.16497E-04  7392   0.335E-04-0.168E-04
CGA: 174    -0.362293894566E+03   -0.99774E-06   -0.80841E-05  7392   0.111E-04 0.168E-04
CGA: 175    -0.362293913628E+03   -0.19062E-04    0.10741E-04  7392   0.656E-05 0.105E-05
CGA: 176    -0.362293911195E+03    0.24333E-05   -0.83380E-06  7392   0.523E-05 0.618E-05
   1 F= -.36229391E+03 E0= -.36229391E+03  d E =-.362294E+03  mag=    16.0000
       N       E                     dE             d eps       ncg     rms          ort
SDA:   1    -0.362294582817E+03   -0.66919E-03    0.00000E+00  7392   0.672E-02 0.000E+00
CGA:   2    -0.362296667572E+03   -0.20848E-02   -0.21153E-02  7392   0.225E-02 0.109E-03
CGA:   3    -0.362297086450E+03   -0.41888E-03   -0.42851E-03  7392   0.897E-03 0.242E-04
CGA:   4    -0.362297246765E+03   -0.16031E-03   -0.15006E-03  7392   0.207E-03-0.263E-04
CGA:   5    -0.362297300296E+03   -0.53531E-04   -0.42424E-04  7392   0.955E-04-0.340E-04
CGA:   6    -0.362297323263E+03   -0.22967E-04   -0.17617E-04  7392   0.460E-04-0.178E-04
CGA:   7    -0.362297330963E+03   -0.77002E-05   -0.80200E-05  7392   0.169E-04 0.106E-05
   2 F= -.36229733E+03 E0= -.36229733E+03  d E =-.341977E-02  mag=    16.0000
       N       E                     dE             d eps       ncg     rms          ort
SDA:   1    -0.362269795370E+03    0.27528E-01    0.00000E+00  7392   0.916E-01 0.000E+00
CGA:   2    -0.362298627931E+03   -0.28833E-01   -0.28917E-01  7392   0.316E-01 0.487E-03
CGA:   3    -0.362304387718E+03   -0.57598E-02   -0.57990E-02  7392   0.127E-01 0.124E-03
CGA:   4    -0.362306458225E+03   -0.20705E-02   -0.20388E-02  7392   0.280E-02-0.114E-03
CGA:   5    -0.362307012308E+03   -0.55408E-03   -0.51748E-03  7392   0.966E-03-0.144E-03
CGA:   6    -0.362307222332E+03   -0.21002E-03   -0.19375E-03  7392   0.393E-03-0.752E-04
CGA:   7    -0.362307305450E+03   -0.83119E-04   -0.82297E-04  7392   0.143E-03-0.436E-05
CGA:   8    -0.362307336742E+03   -0.31292E-04   -0.32913E-04  7392   0.534E-04 0.922E-05
CGA:   9    -0.362307355423E+03   -0.18681E-04   -0.18051E-04  7392   0.266E-04-0.773E-05
CGA:  10    -0.362307362423E+03   -0.70002E-05   -0.66311E-05  7392   0.115E-04-0.356E-05
   3 F= -.36230736E+03 E0= -.36230736E+03  d E =-.100315E-01  mag=    16.0000
       N       E                     dE             d eps       ncg     rms          ort
SDA:   1    -0.362224979958E+03    0.82375E-01    0.00000E+00  7392   0.230E+00 0.000E+00
CGA:   2    -0.362296249557E+03   -0.71270E-01   -0.71337E-01  7392   0.845E-01 0.895E-03
CGA:   3    -0.362310827593E+03   -0.14578E-01   -0.14640E-01  7392   0.322E-01 0.264E-03
CGA:   4    -0.362316301123E+03   -0.54735E-02   -0.54371E-02  7392   0.689E-02-0.207E-03
CGA:   5    -0.362317553305E+03   -0.12522E-02   -0.12067E-02  7392   0.220E-02-0.252E-03
CGA:   6    -0.362318028730E+03   -0.47542E-03   -0.45576E-03  7392   0.890E-03-0.148E-03
CGA:   7    -0.362318214600E+03   -0.18587E-03   -0.18415E-03  7392   0.324E-03-0.144E-04
CGA:   8    -0.362318288007E+03   -0.73407E-04   -0.75127E-04  7392   0.123E-03 0.170E-04
CGA:   9    -0.362318327466E+03   -0.39459E-04   -0.39102E-04  7392   0.561E-04-0.124E-04
CGA:  10    -0.362318343208E+03   -0.15742E-04   -0.15548E-04  7392   0.260E-04-0.907E-05
CGA:  11    -0.362318348323E+03   -0.51152E-05   -0.52659E-05  7392   0.849E-05 0.171E-05
   4 F= -.36231835E+03 E0= -.36231835E+03  d E =-.109859E-01  mag=    16.0000
       N       E                     dE             d eps       ncg     rms          ort
SDA:   1    -0.362233990339E+03    0.84353E-01    0.00000E+00  7392   0.232E+00 0.000E+00
CGA:   2    -0.362305369920E+03   -0.71380E-01   -0.71393E-01  7392   0.837E-01 0.657E-03
CGA:   3    -0.362319748483E+03   -0.14379E-01   -0.14431E-01  7392   0.316E-01 0.308E-03
CGA:   4    -0.362325088781E+03   -0.53403E-02   -0.53207E-02  7392   0.650E-02-0.150E-03
CGA:   5    -0.362326251276E+03   -0.11625E-02   -0.11342E-02  7392   0.208E-02-0.209E-03
CGA:   6    -0.362326674751E+03   -0.42347E-03   -0.41185E-03  7392   0.816E-03-0.116E-03
CGA:   7    -0.362326844103E+03   -0.16935E-03   -0.16804E-03  7392   0.289E-03-0.163E-04
CGA:   8    -0.362326912260E+03   -0.68157E-04   -0.68680E-04  7392   0.114E-03 0.974E-05
CGA:   9    -0.362326947268E+03   -0.35008E-04   -0.35043E-04  7392   0.503E-04-0.873E-05
CGA:  10    -0.362326961475E+03   -0.14207E-04   -0.14322E-04  7392   0.237E-04-0.758E-05
CGA:  11    -0.362326967083E+03   -0.56078E-05   -0.55933E-05  7392   0.897E-05-0.955E-06
   5 F= -.36232697E+03 E0= -.36232697E+03  d E =-.861876E-02  mag=    16.0000
       N       E                     dE             d eps       ncg     rms          ort
SDA:   1    -0.360760207086E+03    0.15668E+01    0.00000E+00  7392   0.398E+01 0.000E+00
CGA:   2    -0.362002810615E+03   -0.12426E+01   -0.12426E+01  7392   0.129E+01-0.615E-02
CGA:   3    -0.362241630444E+03   -0.23882E+00   -0.23914E+00  7392   0.508E+00 0.610E-03
CGA:   4    -0.362320559465E+03   -0.78929E-01   -0.79051E-01  7392   0.969E-01-0.503E-03
CGA:   5    -0.362337535433E+03   -0.16976E-01   -0.16943E-01  7392   0.306E-01-0.295E-03
CGA:   6    -0.362343543011E+03   -0.60076E-02   -0.59976E-02  7392   0.108E-01-0.110E-03
CGA:   7    -0.362345971815E+03   -0.24288E-02   -0.24278E-02  7392   0.400E-02-0.201E-04
CGA:   8    -0.362346999614E+03   -0.10278E-02   -0.10279E-02  7392   0.175E-02 0.376E-05
CGA:   9    -0.362347468828E+03   -0.46921E-03   -0.46970E-03  7392   0.613E-03 0.298E-04
CGA:  10    -0.362347639097E+03   -0.17027E-03   -0.17026E-03  7392   0.207E-03-0.672E-06
CGA:  11    -0.362347703443E+03   -0.64346E-04   -0.65142E-04  7392   0.829E-04-0.251E-04
CGA:  12    -0.362347729721E+03   -0.26279E-04   -0.28906E-04  7392   0.535E-04-0.234E-04
CGA:  13    -0.362347727203E+03    0.25188E-05   -0.32904E-04  7392   0.179E-03-0.627E-04
CGA:  14    -0.362347766630E+03   -0.39428E-04   -0.39853E-04  7392   0.265E-04 0.439E-05
CGA:  15    -0.362347778822E+03   -0.12192E-04   -0.14664E-04  7392   0.243E-04-0.110E-04
CGA:  16    -0.362347784660E+03   -0.58376E-05   -0.98813E-05  7392   0.265E-04-0.111E-04
   6 F= -.36234778E+03 E0= -.36234778E+03  d E =-.208176E-01  mag=    16.0000
       N       E                     dE             d eps       ncg     rms          ort
SDA:   1    -0.360176796719E+03    0.21710E+01    0.00000E+00  7392   0.550E+01 0.000E+00
CGA:   2    -0.361923970225E+03   -0.17472E+01   -0.17470E+01  7392   0.157E+01-0.236E-02
CGA:   3    -0.362242505476E+03   -0.31854E+00   -0.31879E+00  7392   0.587E+00 0.442E-03
CGA:   4    -0.362328103918E+03   -0.85598E-01   -0.85574E-01  7392   0.112E+00-0.515E-03
CGA:   5    -0.362348420469E+03   -0.20317E-01   -0.20275E-01  7392   0.346E-01-0.312E-03
CGA:   6    -0.362355060950E+03   -0.66405E-02   -0.66326E-02  7392   0.115E-01-0.694E-04
CGA:   7    -0.362357667500E+03   -0.26066E-02   -0.26061E-02  7392   0.430E-02-0.716E-05
CGA:   8    -0.362358788146E+03   -0.11206E-02   -0.11209E-02  7392   0.198E-02 0.389E-05
CGA:   9    -0.362359327193E+03   -0.53905E-03   -0.54010E-03  7392   0.701E-03 0.325E-04
CGA:  10    -0.362359527360E+03   -0.20017E-03   -0.19984E-03  7392   0.239E-03-0.141E-04
CGA:  11    -0.362359602321E+03   -0.74961E-04   -0.75795E-04  7392   0.985E-04-0.388E-04
CGA:  12    -0.362359630433E+03   -0.28112E-04   -0.28835E-04  7392   0.483E-04-0.157E-04
CGA:  13    -0.362359646415E+03   -0.15982E-04   -0.24625E-04  7392   0.722E-04-0.288E-04
CGA:  14    -0.362359664839E+03   -0.18423E-04   -0.18387E-04  7392   0.149E-04-0.562E-06
CGA:  15    -0.362359670566E+03   -0.57275E-05   -0.12787E-04  7392   0.471E-04-0.129E-04
CGA:  16    -0.362359682005E+03   -0.11439E-04   -0.11402E-04  7392   0.744E-05-0.368E-06
CGA:  17    -0.362359688505E+03   -0.64997E-05    0.42397E-05  7392   0.376E-05 0.252E-05
   7 F= -.36235969E+03 E0= -.36235969E+03  d E =-.119038E-01  mag=    16.0000
       N       E                     dE             d eps       ncg     rms          ort
SDA:   1    -0.362287610142E+03    0.72072E-01    0.00000E+00  7392   0.194E+00 0.000E+00
CGA:   2    -0.362346390673E+03   -0.58781E-01   -0.58795E-01  7392   0.928E-01 0.347E-03
CGA:   3    -0.362360504623E+03   -0.14114E-01   -0.14077E-01  7392   0.251E-01-0.220E-03
CGA:   4    -0.362364761384E+03   -0.42568E-02   -0.42336E-02  7392   0.620E-02-0.149E-03
CGA:   5    -0.362365823167E+03   -0.10618E-02   -0.10536E-02  7392   0.173E-02-0.565E-04
CGA:   6    -0.362366151796E+03   -0.32863E-03   -0.32406E-03  7392   0.540E-03-0.374E-04
CGA:   7    -0.362366274431E+03   -0.12263E-03   -0.12144E-03  7392   0.210E-03-0.156E-04
CGA:   8    -0.362366324960E+03   -0.50529E-04   -0.50543E-04  7392   0.842E-04 0.201E-06
CGA:   9    -0.362366352144E+03   -0.27184E-04   -0.27516E-04  7392   0.441E-04-0.128E-04
CGA:  10    -0.362366365098E+03   -0.12954E-04   -0.14891E-04  7392   0.346E-04-0.201E-04
CGA:  11    -0.362366371066E+03   -0.59678E-05   -0.73525E-05  7392   0.252E-04-0.164E-04
   8 F= -.36236637E+03 E0= -.36236637E+03  d E =-.668256E-02  mag=    16.0000
       N       E                     dE             d eps       ncg     rms          ort
SDA:   1    -0.362200101353E+03    0.16626E+00    0.00000E+00  7392   0.427E+00 0.000E+00
CGA:   2    -0.362335377986E+03   -0.13528E+00   -0.13527E+00  7392   0.150E+00-0.172E-03
CGA:   3    -0.362360445251E+03   -0.25067E-01   -0.25055E-01  7392   0.510E-01-0.131E-03
CGA:   4    -0.362368449228E+03   -0.80040E-02   -0.80057E-02  7392   0.103E-01-0.605E-05
CGA:   5    -0.362370180142E+03   -0.17309E-02   -0.17373E-02  7392   0.298E-02 0.422E-04
CGA:   6    -0.362370722050E+03   -0.54191E-03   -0.54332E-03  7392   0.847E-03 0.111E-04
CGA:   7    -0.362370919484E+03   -0.19743E-03   -0.19650E-03  7392   0.301E-03-0.140E-04
CGA:   8    -0.362370998050E+03   -0.78566E-04   -0.78453E-04  7392   0.138E-03-0.387E-05
CGA:   9    -0.362371033277E+03   -0.35226E-04   -0.35542E-04  7392   0.496E-04 0.999E-05
CGA:  10    -0.362371048682E+03   -0.15405E-04   -0.15406E-04  7392   0.191E-04 0.503E-06
CGA:  11    -0.362371051806E+03   -0.31240E-05   -0.13320E-04  7392   0.591E-04-0.256E-04
CGA:  12    -0.362371061990E+03   -0.10184E-04   -0.10765E-04  7392   0.723E-05 0.449E-05
CGA:  13    -0.362371064932E+03   -0.29420E-05   -0.50237E-05  7392   0.141E-04-0.612E-05
   9 F= -.36237106E+03 E0= -.36237106E+03  d E =-.469387E-02  mag=    16.0000
       N       E                     dE             d eps       ncg     rms          ort
SDA:   1    -0.360603685046E+03    0.17674E+01    0.00000E+00  7392   0.445E+01 0.000E+00
CGA:   2    -0.361979985376E+03   -0.13763E+01   -0.13763E+01  7392   0.177E+01 0.378E-03
CGA:   3    -0.362259275975E+03   -0.27929E+00   -0.27931E+00  7392   0.547E+00 0.918E-04
CGA:   4    -0.362348845818E+03   -0.89570E-01   -0.89582E-01  7392   0.117E+00-0.411E-03
CGA:   5    -0.362368347979E+03   -0.19502E-01   -0.19508E-01  7392   0.323E-01-0.173E-04
CGA:   6    -0.362374462137E+03   -0.61142E-02   -0.61132E-02  7392   0.957E-02-0.160E-04
CGA:   7    -0.362376568191E+03   -0.21061E-02   -0.21044E-02  7392   0.332E-02-0.246E-04
CGA:   8    -0.362377423321E+03   -0.85513E-03   -0.85554E-03  7392   0.146E-02 0.130E-04
CGA:   9    -0.362377835238E+03   -0.41192E-03   -0.41208E-03  7392   0.569E-03 0.266E-04
CGA:  10    -0.362378003149E+03   -0.16791E-03   -0.16793E-03  7392   0.201E-03-0.818E-05
CGA:  11    -0.362378066924E+03   -0.63775E-04   -0.65305E-04  7392   0.810E-04-0.366E-04
CGA:  12    -0.362378089723E+03   -0.22799E-04   -0.24482E-04  7392   0.433E-04-0.211E-04
CGA:  13    -0.362378102067E+03   -0.12344E-04   -0.16150E-04  7392   0.403E-04-0.181E-04
CGA:  14    -0.362378097146E+03    0.49209E-05   -0.23839E-04  7392   0.123E-03-0.404E-04
CGA:  15    -0.362378128672E+03   -0.31526E-04   -0.31600E-04  7392   0.190E-04 0.871E-06
CGA:  16    -0.362378137349E+03   -0.86768E-05   -0.95624E-05  7392   0.122E-04-0.539E-05
  10 F= -.36237814E+03 E0= -.36237814E+03  d E =-.707242E-02  mag=    16.0000
       N       E                     dE             d eps       ncg     rms          ort
SDA:   1    -0.353805718679E+03    0.85724E+01    0.00000E+00  7392   0.211E+02 0.000E+00
CGA:   2    -0.360596674869E+03   -0.67910E+01   -0.67911E+01  7392   0.760E+01 0.321E-02
CGA:   3    -0.361845214910E+03   -0.12485E+01   -0.12496E+01  7392   0.247E+01 0.921E-02
CGA:   4    -0.362235344320E+03   -0.39013E+00   -0.39082E+00  7392   0.499E+00-0.115E-02
CGA:   5    -0.362323768985E+03   -0.88425E-01   -0.88434E-01  7392   0.150E+00-0.410E-03
CGA:   6    -0.362352116507E+03   -0.28348E-01   -0.28348E-01  7392   0.458E-01-0.465E-04
CGA:   7    -0.362362534941E+03   -0.10418E-01   -0.10429E-01  7392   0.173E-01 0.108E-03
CGA:   8    -0.362367085293E+03   -0.45504E-02   -0.45548E-02  7392   0.788E-02 0.903E-04
CGA:   9    -0.362369329390E+03   -0.22441E-02   -0.22456E-02  7392   0.303E-02 0.645E-04
CGA:  10    -0.362370195746E+03   -0.86636E-03   -0.86582E-03  7392   0.101E-02-0.264E-04
CGA:  11    -0.362370501498E+03   -0.30575E-03   -0.30583E-03  7392   0.357E-03-0.926E-04
CGA:  12    -0.362370608106E+03   -0.10661E-03   -0.10719E-03  7392   0.157E-03-0.217E-04
CGA:  13    -0.362370668867E+03   -0.60761E-04   -0.62658E-04  7392   0.109E-03-0.158E-04
CGA:  14    -0.362370721191E+03   -0.52324E-04   -0.62397E-04  7392   0.127E-03-0.309E-04
CGA:  15    -0.362370760697E+03   -0.39506E-04   -0.40398E-04  7392   0.818E-04-0.778E-05
CGA:  16    -0.362370793249E+03   -0.32552E-04   -0.56269E-04  7392   0.153E-03-0.594E-04
CGA:  17    -0.362370831176E+03   -0.37927E-04   -0.40059E-04  7392   0.257E-04 0.231E-04
CGA:  18    -0.362370753701E+03    0.77475E-04   -0.44643E-04  7392   0.495E-03-0.777E-04
CGA:  19    -0.362370835015E+03   -0.81314E-04   -0.11732E-03  7392   0.721E-04 0.901E-04
CGA:  20    -0.362370852058E+03   -0.17043E-04   -0.81405E-04  7392   0.521E-03-0.190E-03
CGA:  21    -0.362370867103E+03   -0.15045E-04   -0.83835E-04  7392   0.857E-04 0.145E-03
CGA:  22    -0.362370878675E+03   -0.11572E-04   -0.22828E-04  7392   0.229E-04 0.281E-04
CGA:  23    -0.362370924654E+03   -0.45979E-04    0.31283E-04  7392   0.793E-04-0.435E-04
CGA:  24    -0.362370913579E+03    0.11075E-04   -0.87391E-05  7392   0.248E-04 0.413E-04
CGA:  25    -0.362370909932E+03    0.36472E-05   -0.32349E-05  7392   0.113E-04 0.158E-04
  11 F= -.36237091E+03 E0= -.36237091E+03  d E =0.722742E-02  mag=    16.0000
       N       E                     dE             d eps       ncg     rms          ort
SDA:   1    -0.361612392533E+03    0.75852E+00    0.00000E+00  7392   0.194E+01 0.000E+00
CGA:   2    -0.362202807494E+03   -0.59041E+00   -0.59058E+00  7392   0.796E+00-0.467E-03
CGA:   3    -0.362328048874E+03   -0.12524E+00   -0.12523E+00  7392   0.243E+00 0.132E-02
CGA:   4    -0.362368411811E+03   -0.40363E-01   -0.40396E-01  7392   0.531E-01 0.374E-03
CGA:   5    -0.362377201809E+03   -0.87900E-02   -0.88249E-02  7392   0.145E-01 0.125E-03
CGA:   6    -0.362379967677E+03   -0.27659E-02   -0.27803E-02  7392   0.441E-02 0.498E-04
CGA:   7    -0.362380936600E+03   -0.96892E-03   -0.97190E-03  7392   0.154E-02 0.124E-04
CGA:   8    -0.362381329607E+03   -0.39301E-03   -0.39514E-03  7392   0.672E-03 0.113E-04
CGA:   9    -0.362381520504E+03   -0.19090E-03   -0.19162E-03  7392   0.266E-03 0.478E-05
CGA:  10    -0.362381595528E+03   -0.75024E-04   -0.75402E-04  7392   0.927E-04 0.260E-05
CGA:  11    -0.362381617670E+03   -0.22142E-04   -0.23894E-04  7392   0.276E-04 0.107E-04
CGA:  12    -0.362381627106E+03   -0.94362E-05   -0.97096E-05  7392   0.143E-04 0.289E-05
  12 F= -.36238163E+03 E0= -.36238163E+03  d E =-.107172E-01  mag=    16.0000
       N       E                     dE             d eps       ncg     rms          ort
SDA:   1    -0.362288630586E+03    0.92987E-01    0.00000E+00  7392   0.241E+00 0.000E+00
CGA:   2    -0.362364548195E+03   -0.75918E-01   -0.75916E-01  7392   0.693E-01-0.371E-04
CGA:   3    -0.362378323457E+03   -0.13775E-01   -0.13777E-01  7392   0.264E-01 0.851E-05
CGA:   4    -0.362382149752E+03   -0.38263E-02   -0.38369E-02  7392   0.497E-02 0.462E-04
CGA:   5    -0.362383026848E+03   -0.87710E-03   -0.87980E-03  7392   0.148E-02 0.130E-04
CGA:   6    -0.362383305442E+03   -0.27859E-03   -0.28001E-03  7392   0.457E-03 0.755E-05
CGA:   7    -0.362383409422E+03   -0.10398E-03   -0.10471E-03  7392   0.167E-03 0.537E-05
CGA:   8    -0.362383455219E+03   -0.45797E-04   -0.45485E-04  7392   0.836E-04-0.355E-05
CGA:   9    -0.362383479467E+03   -0.24248E-04   -0.24012E-04  7392   0.351E-04-0.399E-05
CGA:  10    -0.362383487579E+03   -0.81119E-05   -0.83920E-05  7392   0.113E-04 0.284E-05
  13 F= -.36238349E+03 E0= -.36238349E+03  d E =-.186047E-02  mag=    16.0000
       N       E                     dE             d eps       ncg     rms          ort
SDA:   1    -0.362270497624E+03    0.11298E+00    0.00000E+00  7392   0.300E+00 0.000E+00
CGA:   2    -0.362352614541E+03   -0.82117E-01   -0.82144E-01  7392   0.152E+00 0.316E-03
CGA:   3    -0.362375931715E+03   -0.23317E-01   -0.23338E-01  7392   0.428E-01 0.847E-04
CGA:   4    -0.362383197708E+03   -0.72660E-02   -0.72709E-02  7392   0.101E-01 0.290E-04
CGA:   5    -0.362384862238E+03   -0.16645E-02   -0.16605E-02  7392   0.258E-02-0.273E-04
CGA:   6    -0.362385369750E+03   -0.50751E-03   -0.50275E-03  7392   0.829E-03-0.417E-04
CGA:   7    -0.362385551200E+03   -0.18145E-03   -0.17985E-03  7392   0.292E-03-0.189E-04
CGA:   8    -0.362385622138E+03   -0.70938E-04   -0.70914E-04  7392   0.124E-03-0.485E-06
CGA:   9    -0.362385656900E+03   -0.34762E-04   -0.34821E-04  7392   0.510E-04 0.305E-05
CGA:  10    -0.362385672028E+03   -0.15128E-04   -0.15141E-04  7392   0.212E-04 0.160E-05
CGA:  11    -0.362385680129E+03   -0.81016E-05   -0.85253E-05  7392   0.145E-04-0.459E-05
  14 F= -.36238568E+03 E0= -.36238568E+03  d E =-.219255E-02  mag=    16.0000
       N       E                     dE             d eps       ncg     rms          ort
SDA:   1    -0.361755280942E+03    0.63039E+00    0.00000E+00  7392   0.156E+01 0.000E+00
CGA:   2    -0.362217072338E+03   -0.46179E+00   -0.46181E+00  7392   0.846E+00 0.146E-02
CGA:   3    -0.362341604180E+03   -0.12453E+00   -0.12457E+00  7392   0.204E+00 0.329E-03
CGA:   4    -0.362374960110E+03   -0.33356E-01   -0.33345E-01  7392   0.481E-01-0.106E-03
CGA:   5    -0.362383196776E+03   -0.82367E-02   -0.82237E-02  7392   0.135E-01-0.125E-03
CGA:   6    -0.362385735047E+03   -0.25383E-02   -0.25272E-02  7392   0.393E-02-0.122E-03
CGA:   7    -0.362386595665E+03   -0.86062E-03   -0.85782E-03  7392   0.141E-02-0.494E-04
CGA:   8    -0.362386946093E+03   -0.35043E-03   -0.35082E-03  7392   0.600E-03 0.162E-04
CGA:   9    -0.362387118943E+03   -0.17285E-03   -0.17267E-03  7392   0.252E-03 0.179E-04
CGA:  10    -0.362387197844E+03   -0.78900E-04   -0.79013E-04  7392   0.106E-03-0.394E-05
CGA:  11    -0.362387232974E+03   -0.35130E-04   -0.36491E-04  7392   0.543E-04-0.188E-04
CGA:  12    -0.362387248105E+03   -0.15131E-04   -0.15317E-04  7392   0.287E-04-0.297E-05
CGA:  13    -0.362387256392E+03   -0.82868E-05   -0.81562E-05  7392   0.147E-04 0.751E-05
  15 F= -.36238726E+03 E0= -.36238726E+03  d E =-.157626E-02  mag=    16.0000
       N       E                     dE             d eps       ncg     rms          ort
SDA:   1    -0.361171670460E+03    0.12156E+01    0.00000E+00  7392   0.290E+01 0.000E+00
CGA:   2    -0.362123123655E+03   -0.95145E+00   -0.95135E+00  7392   0.125E+01 0.178E-02
CGA:   3    -0.362312495291E+03   -0.18937E+00   -0.18938E+00  7392   0.340E+00-0.277E-04
CGA:   4    -0.362367264314E+03   -0.54769E-01   -0.54752E-01  7392   0.751E-01-0.213E-03
CGA:   5    -0.362380477887E+03   -0.13214E-01   -0.13194E-01  7392   0.218E-01-0.217E-03
CGA:   6    -0.362384602878E+03   -0.41250E-02   -0.41123E-02  7392   0.648E-02-0.163E-03
CGA:   7    -0.362386036583E+03   -0.14337E-02   -0.14325E-02  7392   0.244E-02-0.286E-04
CGA:   8    -0.362386658109E+03   -0.62153E-03   -0.62185E-03  7392   0.108E-02 0.371E-04
CGA:   9    -0.362386974623E+03   -0.31651E-03   -0.31593E-03  7392   0.461E-03 0.253E-04
CGA:  10    -0.362387115455E+03   -0.14083E-03   -0.14103E-03  7392   0.184E-03-0.598E-05
CGA:  11    -0.362387175536E+03   -0.60081E-04   -0.62142E-04  7392   0.916E-04-0.276E-04
CGA:  12    -0.362387201089E+03   -0.25553E-04   -0.25420E-04  7392   0.464E-04 0.235E-05
CGA:  13    -0.362387215287E+03   -0.14198E-04   -0.13900E-04  7392   0.254E-04 0.161E-04
CGA:  14    -0.362387227136E+03   -0.11849E-04   -0.11195E-04  7392   0.183E-04 0.125E-04
CGA:  15    -0.362387240076E+03   -0.12940E-04   -0.11667E-04  7392   0.162E-04 0.845E-05
CGA:  16    -0.362387251996E+03   -0.11920E-04   -0.10535E-04  7392   0.156E-04 0.864E-05
CGA:  17    -0.362387260084E+03   -0.80874E-05   -0.86681E-05  7392   0.144E-04-0.222E-05
  16 F= -.36238726E+03 E0= -.36238726E+03  d E =-.369212E-05  mag=    16.0000
       N       E                     dE             d eps       ncg     rms          ort
SDA:   1    -0.362079869166E+03    0.30738E+00    0.00000E+00  7392   0.747E+00 0.000E+00
CGA:   2    -0.362330255899E+03   -0.25039E+00   -0.25038E+00  7392   0.230E+00 0.443E-03
CGA:   3    -0.362373989130E+03   -0.43733E-01   -0.43718E-01  7392   0.750E-01-0.161E-03
CGA:   4    -0.362384999499E+03   -0.11010E-01   -0.10991E-01  7392   0.164E-01-0.135E-03
CGA:   5    -0.362388031298E+03   -0.30318E-02   -0.30285E-02  7392   0.479E-02-0.310E-04
CGA:   6    -0.362388932771E+03   -0.90147E-03   -0.90247E-03  7392   0.160E-02 0.861E-05
CGA:   7    -0.362389301660E+03   -0.36889E-03   -0.36929E-03  7392   0.624E-03 0.660E-05
CGA:   8    -0.362389465861E+03   -0.16420E-03   -0.16456E-03  7392   0.297E-03 0.154E-04
CGA:   9    -0.362389550875E+03   -0.85015E-04   -0.85090E-04  7392   0.120E-03 0.170E-04
CGA:  10    -0.362389592384E+03   -0.41509E-04   -0.41805E-04  7392   0.638E-04-0.658E-05
CGA:  11    -0.362389615399E+03   -0.23014E-04   -0.24887E-04  7392   0.539E-04-0.149E-04
CGA:  12    -0.362389631703E+03   -0.16305E-04   -0.16212E-04  7392   0.438E-04 0.877E-06
CGA:  13    -0.362389652086E+03   -0.20383E-04   -0.19252E-04  7392   0.404E-04 0.831E-05
CGA:  14    -0.362389681323E+03   -0.29237E-04   -0.28366E-04  7392   0.539E-04 0.289E-05
CGA:  15    -0.362389717756E+03   -0.36433E-04   -0.40146E-04  7392   0.845E-04-0.104E-04
CGA:  16    -0.362389753529E+03   -0.35773E-04   -0.52830E-04  7392   0.149E-03-0.404E-04
CGA:  17    -0.362389775205E+03   -0.21676E-04   -0.20731E-04  7392   0.121E-03-0.414E-05
CGA:  18    -0.362389804171E+03   -0.28966E-04   -0.29474E-04  7392   0.723E-04 0.874E-05
CGA:  19    -0.362389829219E+03   -0.25048E-04   -0.25009E-04  7392   0.543E-04 0.325E-06
CGA:  20    -0.362389846598E+03   -0.17379E-04   -0.17287E-04  7392   0.349E-04-0.184E-05
CGA:  21    -0.362389854859E+03   -0.82604E-05   -0.84740E-05  7392   0.182E-04 0.260E-05
  17 F= -.36238985E+03 E0= -.36238985E+03  d E =-.259477E-02  mag=    16.0000
       N       E                     dE             d eps       ncg     rms          ort
SDA:   1    -0.362366917646E+03    0.22929E-01    0.00000E+00  7392   0.609E-01 0.000E+00
CGA:   2    -0.362383156226E+03   -0.16239E-01   -0.16241E-01  7392   0.346E-01 0.889E-05
CGA:   3    -0.362388540172E+03   -0.53839E-02   -0.53957E-02  7392   0.921E-02 0.561E-04
CGA:   4    -0.362390066405E+03   -0.15262E-02   -0.15248E-02  7392   0.232E-02-0.112E-04
CGA:   5    -0.362390460138E+03   -0.39373E-03   -0.39457E-03  7392   0.655E-03 0.518E-05
CGA:   6    -0.362390580392E+03   -0.12025E-03   -0.12237E-03  7392   0.201E-03 0.168E-04
CGA:   7    -0.362390624494E+03   -0.44103E-04   -0.44968E-04  7392   0.747E-04 0.997E-05
CGA:   8    -0.362390643289E+03   -0.18795E-04   -0.19141E-04  7392   0.308E-04 0.622E-05
CGA:   9    -0.362390652244E+03   -0.89553E-05   -0.90514E-05  7392   0.136E-04 0.369E-05
  18 F= -.36239065E+03 E0= -.36239065E+03  d E =-.797386E-03  mag=    16.0000
       N       E                     dE             d eps       ncg     rms          ort
SDA:   1    -0.362299340015E+03    0.91303E-01    0.00000E+00  7392   0.218E+00 0.000E+00
CGA:   2    -0.362371469364E+03   -0.72129E-01   -0.72113E-01  7392   0.904E-01 0.437E-03
CGA:   3    -0.362385308251E+03   -0.13839E-01   -0.13839E-01  7392   0.250E-01-0.814E-05
CGA:   4    -0.362389313208E+03   -0.40050E-02   -0.39955E-02  7392   0.545E-02-0.759E-04
CGA:   5    -0.362390301213E+03   -0.98800E-03   -0.98048E-03  7392   0.159E-02-0.736E-04
CGA:   6    -0.362390601569E+03   -0.30036E-03   -0.29659E-03  7392   0.468E-03-0.422E-04
CGA:   7    -0.362390703335E+03   -0.10177E-03   -0.10138E-03  7392   0.172E-03-0.751E-05
CGA:   8    -0.362390745771E+03   -0.42436E-04   -0.42507E-04  7392   0.734E-04 0.349E-05
CGA:   9    -0.362390766784E+03   -0.21013E-04   -0.20980E-04  7392   0.296E-04 0.343E-05
CGA:  10    -0.362390776843E+03   -0.10059E-04   -0.10268E-04  7392   0.138E-04-0.348E-05
CGA:  11    -0.362390770262E+03    0.65804E-05   -0.10858E-04  7392   0.851E-04-0.283E-04
CGA:  12    -0.362390782007E+03   -0.11744E-04   -0.13556E-04  7392   0.898E-05 0.124E-04
CGA:  13    -0.362390783676E+03   -0.16688E-05   -0.20392E-05  7392   0.306E-05 0.371E-05
  19 F= -.36239078E+03 E0= -.36239078E+03  d E =-.131431E-03  mag=    16.0000
       N       E                     dE             d eps       ncg     rms          ort
SDA:   1    -0.357829590713E+03    0.45612E+01    0.00000E+00  7392   0.109E+02 0.000E+00
CGA:   2    -0.361423574732E+03   -0.35940E+01   -0.35935E+01  7392   0.451E+01 0.834E-02
CGA:   3    -0.362120869935E+03   -0.69730E+00   -0.69721E+00  7392   0.123E+01 0.257E-02
CGA:   4    -0.362317298727E+03   -0.19643E+00   -0.19625E+00  7392   0.271E+00-0.121E-02
CGA:   5    -0.362364843198E+03   -0.47544E-01   -0.47485E-01  7392   0.807E-01-0.659E-03
CGA:   6    -0.362379847650E+03   -0.15004E-01   -0.14993E-01  7392   0.232E-01-0.158E-03
CGA:   7    -0.362384998565E+03   -0.51509E-02   -0.51566E-02  7392   0.866E-02 0.118E-03
CGA:   8    -0.362387276753E+03   -0.22782E-02   -0.22788E-02  7392   0.395E-02 0.148E-03
CGA:   9    -0.362388448579E+03   -0.11718E-02   -0.11706E-02  7392   0.168E-02 0.468E-04
CGA:  10    -0.362388954291E+03   -0.50571E-03   -0.50670E-03  7392   0.628E-03-0.332E-04
CGA:  11    -0.362389142015E+03   -0.18772E-03   -0.19033E-03  7392   0.238E-03-0.646E-04
CGA:  12    -0.362389209632E+03   -0.67617E-04   -0.67788E-04  7392   0.999E-04-0.366E-05
CGA:  13    -0.362389238923E+03   -0.29291E-04   -0.28824E-04  7392   0.441E-04 0.234E-04
CGA:  14    -0.362389256703E+03   -0.17780E-04   -0.17134E-04  7392   0.244E-04 0.160E-04
CGA:  15    -0.362389269341E+03   -0.12638E-04   -0.11999E-04  7392   0.140E-04 0.753E-05
CGA:  16    -0.362389276848E+03   -0.75072E-05   -0.70714E-05  7392   0.828E-05 0.417E-05
  20 F= -.36238928E+03 E0= -.36238928E+03  d E =0.150683E-02  mag=    16.0000
       N       E                     dE             d eps       ncg     rms          ort
SDA:   1    -0.353805515351E+03    0.85838E+01    0.00000E+00  7392   0.205E+02 0.000E+00
CGA:   2    -0.360355244406E+03   -0.65497E+01   -0.65488E+01  7392   0.941E+01 0.218E-01
CGA:   3    -0.361794729118E+03   -0.14395E+01   -0.14395E+01  7392   0.242E+01 0.146E-01
CGA:   4    -0.362185943996E+03   -0.39121E+00   -0.39087E+00  7392   0.549E+00-0.118E-02
CGA:   5    -0.362281834699E+03   -0.95891E-01   -0.95846E-01  7392   0.164E+00-0.602E-03
CGA:   6    -0.362312796943E+03   -0.30962E-01   -0.30978E-01  7392   0.487E-01 0.129E-03
CGA:   7    -0.362323639437E+03   -0.10842E-01   -0.10856E-01  7392   0.183E-01 0.275E-03
CGA:   8    -0.362328425622E+03   -0.47862E-02   -0.47886E-02  7392   0.823E-02 0.308E-03
CGA:   9    -0.362330847395E+03   -0.24218E-02   -0.24184E-02  7392   0.348E-02 0.152E-03
CGA:  10    -0.362331894582E+03   -0.10472E-02   -0.10482E-02  7392   0.135E-02-0.359E-04
CGA:  11    -0.362332293866E+03   -0.39928E-03   -0.40093E-03  7392   0.508E-03-0.543E-04
CGA:  12    -0.362332462230E+03   -0.16836E-03   -0.16924E-03  7392   0.268E-03-0.114E-04
CGA:  13    -0.362332563045E+03   -0.10081E-03   -0.97339E-04  7392   0.160E-03 0.362E-04
CGA:  14    -0.362332640894E+03   -0.77849E-04   -0.72988E-04  7392   0.102E-03 0.401E-04
CGA:  15    -0.362332701458E+03   -0.60564E-04   -0.57809E-04  7392   0.742E-04 0.167E-04
CGA:  16    -0.362332740836E+03   -0.39378E-04   -0.36592E-04  7392   0.493E-04 0.218E-04
CGA:  17    -0.362332769067E+03   -0.28231E-04   -0.25786E-04  7392   0.355E-04 0.237E-04
CGA:  18    -0.362332791552E+03   -0.22484E-04   -0.20431E-04  7392   0.261E-04 0.250E-04
CGA:  19    -0.362332803494E+03   -0.11942E-04   -0.11228E-04  7392   0.134E-04 0.596E-05
CGA:  20    -0.362332816006E+03   -0.12513E-04   -0.10045E-04  7392   0.114E-04 0.829E-05
CGA:  21    -0.362332817885E+03   -0.18791E-05   -0.26316E-05  7392   0.673E-05 0.751E-05
CGA:  22    -0.362332822296E+03   -0.44107E-05    0.17377E-03  7392   0.563E-05 0.580E-05
  21 F= -.36233282E+03 E0= -.36233282E+03  d E =0.564546E-01  mag=    16.0000
       N       E                     dE             d eps       ncg     rms          ort
SDA:   1    -0.352684025684E+03    0.96488E+01    0.00000E+00  7392   0.236E+02 0.000E+00
CGA:   2    -0.360087302717E+03   -0.74033E+01   -0.74036E+01  7392   0.109E+02 0.179E-01
CGA:   3    -0.361761141100E+03   -0.16738E+01   -0.16726E+01  7392   0.283E+01 0.341E-01
CGA:   4    -0.362221322284E+03   -0.46018E+00   -0.46053E+00  7392   0.646E+00 0.333E-02
CGA:   5    -0.362333158886E+03   -0.11184E+00   -0.11215E+00  7392   0.189E+00 0.176E-02
CGA:   6    -0.362368952299E+03   -0.35793E-01   -0.35880E-01  7392   0.564E-01 0.734E-03
CGA:   7    -0.362381632694E+03   -0.12680E-01   -0.12682E-01  7392   0.213E-01 0.106E-04
CGA:   8    -0.362387210148E+03   -0.55775E-02   -0.55803E-02  7392   0.963E-02 0.977E-04
CGA:   9    -0.362390007325E+03   -0.27972E-02   -0.27971E-02  7392   0.401E-02 0.848E-04
CGA:  10    -0.362391176754E+03   -0.11694E-02   -0.11694E-02  7392   0.147E-02 0.134E-05
CGA:  11    -0.362391571915E+03   -0.39516E-03   -0.39667E-03  7392   0.459E-03 0.794E-04
CGA:  12    -0.362391740286E+03   -0.16837E-03   -0.16983E-03  7392   0.246E-03-0.231E-04
CGA:  13    -0.362391844911E+03   -0.10462E-03   -0.12950E-03  7392   0.286E-03-0.940E-04
CGA:  14    -0.362391909152E+03   -0.64241E-04   -0.66445E-04  7392   0.178E-03-0.299E-04
CGA:  15    -0.362391959931E+03   -0.50778E-04   -0.50896E-04  7392   0.918E-04-0.941E-05
CGA:  16    -0.362391988071E+03   -0.28140E-04   -0.28106E-04  7392   0.484E-04 0.231E-05
CGA:  17    -0.362392001738E+03   -0.13667E-04   -0.14018E-04  7392   0.287E-04 0.134E-04
CGA:  18    -0.362392015910E+03   -0.14172E-04   -0.13850E-04  7392   0.233E-04 0.464E-05
CGA:  19    -0.362392031033E+03   -0.15122E-04   -0.19747E-04  7392   0.411E-04-0.110E-04
CGA:  20    -0.362392033448E+03   -0.24154E-05   -0.33766E-05  7392   0.357E-04 0.548E-05
  22 F= -.36239203E+03 E0= -.36239203E+03  d E =-.592112E-01  mag=    16.0000
       N       E                     dE             d eps       ncg     rms          ort
SDA:   1    -0.360829312565E+03    0.15627E+01    0.00000E+00  7392   0.395E+01 0.000E+00
CGA:   2    -0.361862084719E+03   -0.10328E+01   -0.10332E+01  7392   0.216E+01 0.339E-02
CGA:   3    -0.362207250542E+03   -0.34517E+00   -0.34530E+00  7392   0.605E+00 0.135E-02
CGA:   4    -0.362308591985E+03   -0.10134E+00   -0.10140E+00  7392   0.149E+00 0.311E-03
CGA:   5    -0.362334290406E+03   -0.25698E-01   -0.25699E-01  7392   0.427E-01-0.636E-04
CGA:   6    -0.362342666096E+03   -0.83757E-02   -0.83464E-02  7392   0.142E-01-0.322E-03
CGA:   7    -0.362345898552E+03   -0.32325E-02   -0.32216E-02  7392   0.557E-02-0.188E-03
CGA:   8    -0.362347258244E+03   -0.13597E-02   -0.13611E-02  7392   0.227E-02 0.377E-04
CGA:   9    -0.362347913791E+03   -0.65555E-03   -0.65567E-03  7392   0.943E-03-0.339E-04
CGA:  10    -0.362348196031E+03   -0.28224E-03   -0.28420E-03  7392   0.419E-03-0.861E-04
CGA:  11    -0.362348301910E+03   -0.10588E-03   -0.10593E-03  7392   0.146E-03 0.876E-05
CGA:  12    -0.362348353787E+03   -0.51877E-04   -0.52201E-04  7392   0.882E-04-0.473E-05
CGA:  13    -0.362348394587E+03   -0.40800E-04   -0.50724E-04  7392   0.124E-03-0.319E-04
CGA:  14    -0.362348427338E+03   -0.32751E-04   -0.40701E-04  7392   0.126E-03-0.367E-04
CGA:  15    -0.362348461687E+03   -0.34349E-04   -0.42522E-04  7392   0.117E-03-0.478E-04
CGA:  16    -0.362348488282E+03   -0.26595E-04   -0.27969E-04  7392   0.856E-04-0.204E-04
CGA:  17    -0.362348516792E+03   -0.28510E-04   -0.42487E-04  7392   0.120E-03-0.499E-04
CGA:  18    -0.362348562693E+03   -0.45900E-04   -0.47332E-04  7392   0.518E-04-0.263E-04
CGA:  19    -0.362348575653E+03   -0.12960E-04   -0.13190E-04  7392   0.191E-04 0.147E-04
CGA:  20    -0.362348587063E+03   -0.11411E-04   -0.17314E-04  7392   0.474E-04-0.162E-04
CGA:  21    -0.362348594200E+03   -0.71370E-05   -0.91677E-05  7392   0.554E-05 0.123E-04
  23 F= -.36234859E+03 E0= -.36234859E+03  d E =0.434392E-01  mag=    16.0000
       N       E                     dE             d eps       ncg     rms          ort
SDA:   1    -0.360481044040E+03    0.18675E+01    0.00000E+00  7392   0.483E+01 0.000E+00
CGA:   2    -0.361839128306E+03   -0.13581E+01   -0.13587E+01  7392   0.257E+01 0.335E-02
CGA:   3    -0.362240068678E+03   -0.40094E+00   -0.40087E+00  7392   0.673E+00 0.271E-02
CGA:   4    -0.362351903561E+03   -0.11183E+00   -0.11168E+00  7392   0.161E+00-0.650E-03
CGA:   5    -0.362379273760E+03   -0.27370E-01   -0.27386E-01  7392   0.455E-01 0.394E-04
CGA:   6    -0.362388016724E+03   -0.87430E-02   -0.87783E-02  7392   0.145E-01 0.218E-03
CGA:   7    -0.362391233203E+03   -0.32165E-02   -0.32275E-02  7392   0.548E-02 0.909E-04
CGA:   8    -0.362392608456E+03   -0.13753E-02   -0.13831E-02  7392   0.238E-02 0.957E-04
CGA:   9    -0.362393281583E+03   -0.67313E-03   -0.67761E-03  7392   0.968E-03 0.916E-04
CGA:  10    -0.362393569943E+03   -0.28836E-03   -0.28934E-03  7392   0.390E-03 0.256E-04
CGA:  11    -0.362393689945E+03   -0.12000E-03   -0.12012E-03  7392   0.156E-03 0.484E-05
CGA:  12    -0.362393748844E+03   -0.58899E-04   -0.59572E-04  7392   0.102E-03-0.121E-04
CGA:  13    -0.362393785060E+03   -0.36216E-04   -0.35751E-04  7392   0.638E-04 0.902E-05
CGA:  14    -0.362393806691E+03   -0.21631E-04   -0.21931E-04  7392   0.350E-04 0.240E-04
CGA:  15    -0.362393823603E+03   -0.16912E-04   -0.16663E-04  7392   0.221E-04 0.141E-04
CGA:  16    -0.362393838173E+03   -0.14570E-04   -0.13673E-04  7392   0.184E-04 0.833E-05
CGA:  17    -0.362393844049E+03   -0.58759E-05   -0.68243E-05  7392   0.128E-04 0.150E-04
  24 F= -.36239384E+03 E0= -.36239384E+03  d E =-.452498E-01  mag=    16.0000
       N       E                     dE             d eps       ncg     rms          ort
SDA:   1    -0.362343383897E+03    0.50454E-01    0.00000E+00  7392   0.124E+00 0.000E+00
CGA:   2    -0.362383410019E+03   -0.40026E-01   -0.40025E-01  7392   0.502E-01-0.289E-03
CGA:   3    -0.362391333893E+03   -0.79239E-02   -0.79236E-02  7392   0.145E-01-0.934E-05
CGA:   4    -0.362393620460E+03   -0.22866E-02   -0.23004E-02  7392   0.308E-02 0.824E-04
CGA:   5    -0.362394152475E+03   -0.53202E-03   -0.53655E-03  7392   0.888E-03 0.321E-04
CGA:   6    -0.362394321134E+03   -0.16866E-03   -0.16941E-03  7392   0.263E-03 0.626E-05
CGA:   7    -0.362394380447E+03   -0.59313E-04   -0.59574E-04  7392   0.994E-04 0.344E-05
CGA:   8    -0.362394406680E+03   -0.26233E-04   -0.26367E-04  7392   0.467E-04 0.393E-05
CGA:   9    -0.362394422035E+03   -0.15355E-04   -0.15386E-04  7392   0.238E-04-0.134E-05
CGA:  10    -0.362394428279E+03   -0.62439E-05   -0.62928E-05  7392   0.882E-05 0.215E-05
  25 F= -.36239443E+03 E0= -.36239443E+03  d E =-.584231E-03  mag=    16.0000
       N       E                     dE             d eps       ncg     rms          ort
SDA:   1    -0.361813662906E+03    0.58076E+00    0.00000E+00  7392   0.166E+01 0.000E+00
CGA:   2    -0.362179443945E+03   -0.36578E+00   -0.36596E+00  7392   0.899E+00 0.135E-02
CGA:   3    -0.362332491889E+03   -0.15305E+00   -0.15310E+00  7392   0.267E+00 0.130E-03
CGA:   4    -0.362376423063E+03   -0.43931E-01   -0.43977E-01  7392   0.643E-01 0.323E-03
CGA:   5    -0.362387093898E+03   -0.10671E-01   -0.10695E-01  7392   0.173E-01 0.205E-03
CGA:   6    -0.362390427736E+03   -0.33338E-02   -0.33279E-02  7392   0.535E-02-0.902E-04
CGA:   7    -0.362391586849E+03   -0.11591E-02   -0.11532E-02  7392   0.185E-02-0.129E-03
CGA:   8    -0.362392016451E+03   -0.42960E-03   -0.43035E-03  7392   0.736E-03 0.327E-04
CGA:   9    -0.362392209444E+03   -0.19299E-03   -0.19310E-03  7392   0.285E-03 0.656E-04
CGA:  10    -0.362392302224E+03   -0.92781E-04   -0.92191E-04  7392   0.137E-03 0.158E-04
CGA:  11    -0.362392347280E+03   -0.45056E-04   -0.44679E-04  7392   0.618E-04 0.776E-05
CGA:  12    -0.362392367715E+03   -0.20435E-04   -0.20140E-04  7392   0.310E-04 0.658E-05
CGA:  13    -0.362392379403E+03   -0.11688E-04   -0.11155E-04  7392   0.185E-04 0.892E-05
CGA:  14    -0.362392385326E+03   -0.59231E-05   -0.60813E-05  7392   0.109E-04 0.118E-04
  26 F= -.36239239E+03 E0= -.36239239E+03  d E =0.204295E-02  mag=    16.0000
       N       E                     dE             d eps       ncg     rms          ort
SDA:   1    -0.361999941811E+03    0.39244E+00    0.00000E+00  7392   0.968E+00 0.000E+00
CGA:   2    -0.362296518167E+03   -0.29658E+00   -0.29652E+00  7392   0.465E+00 0.145E-02
CGA:   3    -0.362367818262E+03   -0.71300E-01   -0.71289E-01  7392   0.121E+00-0.111E-03
CGA:   4    -0.362387507816E+03   -0.19690E-01   -0.19647E-01  7392   0.274E-01-0.420E-03
CGA:   5    -0.362392228721E+03   -0.47209E-02   -0.47082E-02  7392   0.800E-02-0.149E-03
CGA:   6    -0.362393724801E+03   -0.14961E-02   -0.14951E-02  7392   0.232E-02-0.160E-04
CGA:   7    -0.362394223871E+03   -0.49907E-03   -0.50020E-03  7392   0.818E-03 0.302E-04
CGA:   8    -0.362394431872E+03   -0.20800E-03   -0.20802E-03  7392   0.351E-03 0.341E-04
CGA:   9    -0.362394536214E+03   -0.10434E-03   -0.10367E-03  7392   0.149E-03 0.211E-04
CGA:  10    -0.362394582849E+03   -0.46635E-04   -0.46448E-04  7392   0.605E-04 0.447E-05
CGA:  11    -0.362394603995E+03   -0.21146E-04   -0.22667E-04  7392   0.336E-04-0.140E-04
CGA:  12    -0.362394611504E+03   -0.75089E-05   -0.75069E-05  7392   0.144E-04 0.609E-07
  27 F= -.36239461E+03 E0= -.36239461E+03  d E =-.222618E-02  mag=    16.0000
       N       E                     dE             d eps       ncg     rms          ort
SDA:   1    -0.362176175287E+03    0.21843E+00    0.00000E+00  7392   0.612E+00 0.000E+00
CGA:   2    -0.362310586237E+03   -0.13441E+00   -0.13449E+00  7392   0.367E+00 0.164E-02
CGA:   3    -0.362373567290E+03   -0.62981E-01   -0.63023E-01  7392   0.100E+00 0.239E-03
CGA:   4    -0.362389619775E+03   -0.16052E-01   -0.16010E-01  7392   0.241E-01-0.491E-03
CGA:   5    -0.362393762060E+03   -0.41423E-02   -0.41302E-02  7392   0.698E-02-0.168E-03
CGA:   6    -0.362395043834E+03   -0.12818E-02   -0.12844E-02  7392   0.199E-02 0.404E-04
CGA:   7    -0.362395450127E+03   -0.40629E-03   -0.40880E-03  7392   0.635E-03 0.680E-04
CGA:   8    -0.362395600869E+03   -0.15074E-03   -0.15114E-03  7392   0.238E-03 0.441E-04
CGA:   9    -0.362395674388E+03   -0.73519E-04   -0.73778E-04  7392   0.112E-03-0.512E-05
CGA:  10    -0.362395708464E+03   -0.34075E-04   -0.35373E-04  7392   0.594E-04-0.159E-04
CGA:  11    -0.362395718044E+03   -0.95804E-05   -0.10156E-04  7392   0.196E-04 0.125E-04
  28 F= -.36239572E+03 E0= -.36239572E+03  d E =-.110654E-02  mag=    16.0000
       N       E                     dE             d eps       ncg     rms          ort
SDA:   1    -0.362203642264E+03    0.19207E+00    0.00000E+00  7392   0.461E+00 0.000E+00
CGA:   2    -0.362350161995E+03   -0.14652E+00   -0.14650E+00  7392   0.225E+00 0.910E-04
CGA:   3    -0.362383658385E+03   -0.33496E-01   -0.33494E-01  7392   0.562E-01-0.386E-04
CGA:   4    -0.362392551602E+03   -0.88932E-02   -0.88987E-02  7392   0.125E-01 0.537E-04
CGA:   5    -0.362394735112E+03   -0.21835E-02   -0.21792E-02  7392   0.372E-02-0.743E-04
CGA:   6    -0.362395443367E+03   -0.70825E-03   -0.70375E-03  7392   0.108E-02-0.111E-03
CGA:   7    -0.362395674184E+03   -0.23082E-03   -0.23053E-03  7392   0.393E-03-0.315E-04
CGA:   8    -0.362395765009E+03   -0.90825E-04   -0.90612E-04  7392   0.154E-03 0.246E-04
CGA:   9    -0.362395806807E+03   -0.41798E-04   -0.41197E-04  7392   0.592E-04 0.264E-04
CGA:  10    -0.362395827777E+03   -0.20970E-04   -0.20607E-04  7392   0.277E-04 0.547E-05
CGA:  11    -0.362395838461E+03   -0.10684E-04   -0.14414E-04  7392   0.329E-04-0.154E-04
CGA:  12    -0.362395842835E+03   -0.43735E-05   -0.51391E-05  7392   0.612E-05 0.849E-05
  29 F= -.36239584E+03 E0= -.36239584E+03  d E =-.124791E-03  mag=    16.0000
       N       E                     dE             d eps       ncg     rms          ort
SDA:   1    -0.361849754233E+03    0.54608E+00    0.00000E+00  7392   0.135E+01 0.000E+00
CGA:   2    -0.362256084635E+03   -0.40633E+00   -0.40638E+00  7392   0.650E+00-0.130E-02
CGA:   3    -0.362357794273E+03   -0.10171E+00   -0.10169E+00  7392   0.176E+00-0.333E-03
CGA:   4    -0.362385119062E+03   -0.27325E-01   -0.27368E-01  7392   0.370E-01 0.505E-03
CGA:   5    -0.362391465418E+03   -0.63464E-02   -0.63626E-02  7392   0.109E-01 0.264E-03
CGA:   6    -0.362393560223E+03   -0.20948E-02   -0.20936E-02  7392   0.325E-02-0.353E-04
CGA:   7    -0.362394278989E+03   -0.71877E-03   -0.71836E-03  7392   0.124E-02-0.819E-04
CGA:   8    -0.362394584815E+03   -0.30583E-03   -0.30475E-03  7392   0.540E-03 0.415E-04
CGA:   9    -0.362394730854E+03   -0.14604E-03   -0.14368E-03  7392   0.214E-03 0.786E-04
CGA:  10    -0.362394802247E+03   -0.71393E-04   -0.69742E-04  7392   0.944E-04 0.294E-04
CGA:  11    -0.362394839340E+03   -0.37093E-04   -0.37958E-04  7392   0.572E-04-0.726E-05
CGA:  12    -0.362394858237E+03   -0.18897E-04   -0.19220E-04  7392   0.366E-04-0.270E-05
CGA:  13    -0.362394868221E+03   -0.99837E-05   -0.96229E-05  7392   0.196E-04 0.113E-04
  30 F= -.36239487E+03 E0= -.36239487E+03  d E =0.974614E-03  mag=    16.0000
       N       E                     dE             d eps       ncg     rms          ort
SDA:   1    -0.361858755374E+03    0.53610E+00    0.00000E+00  7392   0.133E+01 0.000E+00
CGA:   2    -0.362254930380E+03   -0.39618E+00   -0.39617E+00  7392   0.669E+00-0.378E-03
CGA:   3    -0.362356831951E+03   -0.10190E+00   -0.10188E+00  7392   0.179E+00-0.125E-03
CGA:   4    -0.362385242915E+03   -0.28411E-01   -0.28425E-01  7392   0.373E-01 0.128E-03
CGA:   5    -0.362391646367E+03   -0.64035E-02   -0.64046E-02  7392   0.111E-01 0.827E-05
CGA:   6    -0.362393776113E+03   -0.21297E-02   -0.21254E-02  7392   0.323E-02-0.103E-03
CGA:   7    -0.362394476927E+03   -0.70081E-03   -0.70034E-03  7392   0.119E-02-0.341E-04
CGA:   8    -0.362394770812E+03   -0.29388E-03   -0.29288E-03  7392   0.521E-03 0.652E-04
CGA:   9    -0.362394929942E+03   -0.15913E-03   -0.15717E-03  7392   0.233E-03 0.372E-04
CGA:  10    -0.362395011115E+03   -0.81173E-04   -0.81726E-04  7392   0.121E-03-0.618E-05
CGA:  11    -0.362395042678E+03   -0.31563E-04   -0.31230E-04  7392   0.449E-04 0.137E-04
CGA:  12    -0.362395060880E+03   -0.18202E-04   -0.18329E-04  7392   0.321E-04-0.105E-05
CGA:  13    -0.362395072783E+03   -0.11903E-04   -0.11314E-04  7392   0.224E-04 0.519E-05
CGA:  14    -0.362395077953E+03   -0.51700E-05   -0.56631E-05  7392   0.125E-04 0.136E-04
  31 F= -.36239508E+03 E0= -.36239508E+03  d E =-.209732E-03  mag=    16.0000
       N       E                     dE             d eps       ncg     rms          ort
SDA:   1    -0.361601640029E+03    0.79343E+00    0.00000E+00  7392   0.204E+01 0.000E+00
CGA:   2    -0.362129150521E+03   -0.52751E+00   -0.52746E+00  7392   0.116E+01 0.616E-02
CGA:   3    -0.362314882785E+03   -0.18573E+00   -0.18585E+00  7392   0.311E+00 0.118E-02
CGA:   4    -0.362366365351E+03   -0.51483E-01   -0.51392E-01  7392   0.754E-01-0.118E-02
CGA:   5    -0.362379378176E+03   -0.13013E-01   -0.12934E-01  7392   0.219E-01-0.113E-02
CGA:   6    -0.362383685837E+03   -0.43077E-02   -0.42810E-02  7392   0.741E-02-0.646E-03
CGA:   7    -0.362385227868E+03   -0.15420E-02   -0.15418E-02  7392   0.263E-02-0.147E-04
CGA:   8    -0.362385845075E+03   -0.61721E-03   -0.61743E-03  7392   0.101E-02 0.191E-03
CGA:   9    -0.362386165362E+03   -0.32029E-03   -0.32053E-03  7392   0.481E-03-0.459E-05
CGA:  10    -0.362386323603E+03   -0.15824E-03   -0.17098E-03  7392   0.310E-03-0.108E-03
CGA:  11    -0.362386384303E+03   -0.60700E-04   -0.60638E-04  7392   0.122E-03 0.853E-05
CGA:  12    -0.362386415548E+03   -0.31245E-04   -0.31185E-04  7392   0.640E-04 0.247E-04
CGA:  13    -0.362386437568E+03   -0.22020E-04   -0.21316E-04  7392   0.439E-04 0.226E-04
CGA:  14    -0.362386453093E+03   -0.15524E-04   -0.15250E-04  7392   0.312E-04 0.287E-04
CGA:  15    -0.362386463212E+03   -0.10120E-04   -0.94771E-05  7392   0.153E-04 0.116E-04
CGA:  16    -0.362386472788E+03   -0.95760E-05   -0.79115E-05  7392   0.136E-04 0.133E-04
  32 F= -.36238647E+03 E0= -.36238647E+03  d E =0.860517E-02  mag=    16.0000
       N       E                     dE             d eps       ncg     rms          ort
SDA:   1    -0.361967332290E+03    0.41913E+00    0.00000E+00  7392   0.111E+01 0.000E+00
CGA:   2    -0.362253105222E+03   -0.28577E+00   -0.28577E+00  7392   0.668E+00-0.200E-03
CGA:   3    -0.362357647200E+03   -0.10454E+00   -0.10451E+00  7392   0.168E+00-0.400E-03
CGA:   4    -0.362385005803E+03   -0.27359E-01   -0.27396E-01  7392   0.416E-01 0.390E-03
CGA:   5    -0.362392097648E+03   -0.70918E-02   -0.71372E-02  7392   0.118E-01 0.586E-03
CGA:   6    -0.362394332413E+03   -0.22348E-02   -0.22499E-02  7392   0.353E-02 0.265E-03
CGA:   7    -0.362395149071E+03   -0.81666E-03   -0.81602E-03  7392   0.138E-02-0.444E-04
CGA:   8    -0.362395489858E+03   -0.34079E-03   -0.34109E-03  7392   0.578E-03-0.280E-04
CGA:   9    -0.362395622683E+03   -0.13283E-03   -0.13321E-03  7392   0.192E-03 0.731E-04
CGA:  10    -0.362395669841E+03   -0.47158E-04   -0.48093E-04  7392   0.655E-04 0.511E-04
CGA:  11    -0.362395693609E+03   -0.23768E-04   -0.23467E-04  7392   0.291E-04 0.682E-05
CGA:  12    -0.362395704941E+03   -0.11332E-04   -0.12692E-04  7392   0.221E-04-0.888E-05
CGA:  13    -0.362395708656E+03   -0.37149E-05   -0.37282E-05  7392   0.120E-04 0.203E-05
  33 F= -.36239571E+03 E0= -.36239571E+03  d E =-.923587E-02  mag=    16.0000
       N       E                     dE             d eps       ncg     rms          ort
SDA:   1    -0.362257123041E+03    0.13858E+00    0.00000E+00  7392   0.332E+00 0.000E+00
CGA:   2    -0.362366515020E+03   -0.10939E+00   -0.10947E+00  7392   0.129E+00-0.104E-02
CGA:   3    -0.362388063370E+03   -0.21548E-01   -0.21562E-01  7392   0.373E-01 0.148E-03
CGA:   4    -0.362393510164E+03   -0.54468E-02   -0.54727E-02  7392   0.740E-02 0.251E-03
CGA:   5    -0.362394865094E+03   -0.13549E-02   -0.13583E-02  7392   0.228E-02 0.555E-04
CGA:   6    -0.362395302884E+03   -0.43779E-03   -0.43586E-03  7392   0.682E-03-0.405E-04
CGA:   7    -0.362395459418E+03   -0.15653E-03   -0.15645E-03  7392   0.281E-03-0.307E-04
CGA:   8    -0.362395524594E+03   -0.65175E-04   -0.65051E-04  7392   0.116E-03 0.211E-04
CGA:   9    -0.362395553682E+03   -0.29088E-04   -0.29182E-04  7392   0.438E-04 0.306E-04
CGA:  10    -0.362395568190E+03   -0.14508E-04   -0.14247E-04  7392   0.201E-04 0.123E-04
CGA:  11    -0.362395577997E+03   -0.98071E-05   -0.10594E-04  7392   0.185E-04-0.458E-05
  34 F= -.36239558E+03 E0= -.36239558E+03  d E =0.130659E-03  mag=    16.0000
       N       E                     dE             d eps       ncg     rms          ort
SDA:   1    -0.361279337173E+03    0.11162E+01    0.00000E+00  7392   0.283E+01 0.000E+00
CGA:   2    -0.362081453227E+03   -0.80212E+00   -0.80204E+00  7392   0.146E+01 0.134E-02
CGA:   3    -0.362309606004E+03   -0.22815E+00   -0.22828E+00  7392   0.396E+00 0.994E-03
CGA:   4    -0.362372307103E+03   -0.62701E-01   -0.62744E-01  7392   0.840E-01 0.395E-03
CGA:   5    -0.362386614262E+03   -0.14307E-01   -0.14307E-01  7392   0.238E-01-0.245E-04
CGA:   6    -0.362391210671E+03   -0.45964E-02   -0.45913E-02  7392   0.721E-02-0.118E-03
CGA:   7    -0.362392765421E+03   -0.15548E-02   -0.15532E-02  7392   0.256E-02-0.785E-04
CGA:   8    -0.362393421341E+03   -0.65592E-03   -0.65485E-03  7392   0.118E-02 0.479E-04
CGA:   9    -0.362393763705E+03   -0.34236E-03   -0.33891E-03  7392   0.511E-03 0.784E-04
CGA:  10    -0.362393930702E+03   -0.16700E-03   -0.16544E-03  7392   0.231E-03 0.241E-04
CGA:  11    -0.362394005852E+03   -0.75150E-04   -0.74771E-04  7392   0.100E-03 0.551E-05
CGA:  12    -0.362394044554E+03   -0.38702E-04   -0.39504E-04  7392   0.670E-04-0.588E-05
CGA:  13    -0.362394070502E+03   -0.25948E-04   -0.25339E-04  7392   0.439E-04 0.404E-05
CGA:  14    -0.362394086702E+03   -0.16200E-04   -0.15254E-04  7392   0.233E-04 0.141E-04
CGA:  15    -0.362394099272E+03   -0.12569E-04   -0.11770E-04  7392   0.162E-04 0.673E-05
CGA:  16    -0.362394112195E+03   -0.12923E-04   -0.12480E-04  7392   0.216E-04 0.128E-05
CGA:  17    -0.362394124947E+03   -0.12753E-04   -0.11443E-04  7392   0.237E-04 0.621E-05
CGA:  18    -0.362394145377E+03   -0.20429E-04   -0.26362E-04  7392   0.581E-04-0.108E-04
CGA:  19    -0.362394154908E+03   -0.95315E-05   -0.93476E-05  7392   0.633E-04-0.613E-05
CGA:  20    -0.362394169608E+03   -0.14700E-04   -0.14385E-04  7392   0.344E-04-0.364E-05
CGA:  21    -0.362394179969E+03   -0.10361E-04   -0.10354E-04  7392   0.223E-04-0.686E-05
CGA:  22    -0.362394185527E+03   -0.55581E-05   -0.55039E-05  7392   0.143E-04-0.425E-05
  35 F= -.36239419E+03 E0= -.36239419E+03  d E =0.139247E-02  mag=    16.0000
       N       E                     dE             d eps       ncg     rms          ort
SDA:   1    -0.356995270999E+03    0.53989E+01    0.00000E+00  7392   0.135E+02 0.000E+00
CGA:   2    -0.360885120203E+03   -0.38898E+01   -0.38906E+01  7392   0.715E+01 0.137E-01
CGA:   3    -0.361975607209E+03   -0.10905E+01   -0.10910E+01  7392   0.186E+01 0.858E-02
CGA:   4    -0.362273186845E+03   -0.29758E+00   -0.29744E+00  7392   0.403E+00-0.753E-03
CGA:   5    -0.362341678178E+03   -0.68491E-01   -0.68402E-01  7392   0.116E+00-0.845E-03
CGA:   6    -0.362363921560E+03   -0.22243E-01   -0.22198E-01  7392   0.353E-01-0.485E-03
CGA:   7    -0.362371547127E+03   -0.76256E-02   -0.76204E-02  7392   0.124E-01-0.834E-04
CGA:   8    -0.362374707321E+03   -0.31602E-02   -0.31664E-02  7392   0.555E-02 0.193E-03
CGA:   9    -0.362376366855E+03   -0.16595E-02   -0.16591E-02  7392   0.245E-02 0.487E-04
CGA:  10    -0.362377125240E+03   -0.75839E-03   -0.76065E-03  7392   0.105E-02-0.103E-03
CGA:  11    -0.362377416175E+03   -0.29093E-03   -0.29097E-03  7392   0.378E-03-0.124E-04
CGA:  12    -0.362377546899E+03   -0.13072E-03   -0.13221E-03  7392   0.208E-03-0.223E-04
CGA:  13    -0.362377628264E+03   -0.81365E-04   -0.81591E-04  7392   0.140E-03-0.185E-05
CGA:  14    -0.362377686388E+03   -0.58124E-04   -0.56428E-04  7392   0.824E-04 0.155E-04
CGA:  15    -0.362377732518E+03   -0.46130E-04   -0.49662E-04  7392   0.805E-04-0.149E-04
CGA:  16    -0.362377764498E+03   -0.31981E-04   -0.32026E-04  7392   0.708E-04-0.687E-06
CGA:  17    -0.362377780758E+03   -0.16259E-04   -0.84706E-04  7392   0.365E-03-0.793E-04
CGA:  18    -0.362377885594E+03   -0.10484E-03   -0.10646E-03  7392   0.494E-04 0.215E-04
CGA:  19    -0.362377851822E+03    0.33772E-04   -0.89153E-04  7392   0.441E-03-0.919E-04
CGA:  20    -0.362377918664E+03   -0.66841E-04   -0.91054E-04  7392   0.730E-04 0.108E-03
CGA:  21    -0.362377960497E+03   -0.41833E-04   -0.49424E-04  7392   0.822E-04-0.610E-04
CGA:  22    -0.362377970010E+03   -0.95128E-05   -0.16106E-04  7392   0.167E-04 0.287E-04
  36 F= -.36237797E+03 E0= -.36237797E+03  d E =0.162155E-01  mag=    16.0000
       N       E                     dE             d eps       ncg     rms          ort
SDA:   1    -0.361103190038E+03    0.12748E+01    0.00000E+00  7392   0.342E+01 0.000E+00
CGA:   2    -0.361960663367E+03   -0.85747E+00   -0.85866E+00  7392   0.188E+01 0.210E-02
CGA:   3    -0.362267577346E+03   -0.30691E+00   -0.30639E+00  7392   0.522E+00 0.108E-02
CGA:   4    -0.362352430461E+03   -0.84853E-01   -0.84674E-01  7392   0.123E+00-0.725E-03
CGA:   5    -0.362373138186E+03   -0.20708E-01   -0.20781E-01  7392   0.341E-01 0.267E-03
CGA:   6    -0.362379643475E+03   -0.65053E-02   -0.65571E-02  7392   0.105E-01 0.272E-03
CGA:   7    -0.362381961575E+03   -0.23181E-02   -0.23281E-02  7392   0.381E-02 0.660E-04
CGA:   8    -0.362382956156E+03   -0.99458E-03   -0.99688E-03  7392   0.173E-02 0.228E-04
CGA:   9    -0.362383462782E+03   -0.50663E-03   -0.50606E-03  7392   0.768E-03-0.990E-05
CGA:  10    -0.362383691383E+03   -0.22860E-03   -0.22835E-03  7392   0.332E-03-0.545E-05
CGA:  11    -0.362383783697E+03   -0.92314E-04   -0.93565E-04  7392   0.122E-03 0.201E-04
CGA:  12    -0.362383829889E+03   -0.46192E-04   -0.46233E-04  7392   0.738E-04-0.271E-05
CGA:  13    -0.362383862643E+03   -0.32754E-04   -0.33980E-04  7392   0.628E-04-0.950E-05
CGA:  14    -0.362383886202E+03   -0.23559E-04   -0.23974E-04  7392   0.414E-04-0.450E-05
CGA:  15    -0.362383902900E+03   -0.16698E-04   -0.17191E-04  7392   0.283E-04-0.513E-05
CGA:  16    -0.362383912188E+03   -0.92885E-05   -0.92316E-05  7392   0.184E-04 0.418E-05
CGA:  17    -0.362383924258E+03   -0.12070E-04   -0.12630E-04  7392   0.254E-04-0.225E-05
CGA:  18    -0.362383937061E+03   -0.12803E-04   -0.13501E-04  7392   0.318E-04-0.269E-05
CGA:  19    -0.362383947783E+03   -0.10722E-04   -0.10733E-04  7392   0.212E-04 0.231E-05
CGA:  20    -0.362383958489E+03   -0.10706E-04   -0.11864E-04  7392   0.188E-04-0.809E-05
CGA:  21    -0.362383961670E+03   -0.31806E-05   -0.83032E-05  7392   0.274E-04-0.157E-04
CGA:  22    -0.362383972006E+03   -0.10337E-04   -0.10395E-04  7392   0.637E-05 0.220E-05
CGA:  23    -0.362383975657E+03   -0.36506E-05   -0.63943E-05  7392   0.168E-04-0.523E-05
  37 F= -.36238398E+03 E0= -.36238398E+03  d E =-.600565E-02  mag=    16.0000
       N       E                     dE             d eps       ncg     rms          ort
SDA:   1    -0.361094374124E+03    0.12896E+01    0.00000E+00  7392   0.325E+01 0.000E+00
CGA:   2    -0.362023779609E+03   -0.92941E+00   -0.92957E+00  7392   0.179E+01-0.393E-03
CGA:   3    -0.362293547907E+03   -0.26977E+00   -0.26949E+00  7392   0.459E+00 0.164E-02
CGA:   4    -0.362368341053E+03   -0.74793E-01   -0.74803E-01  7392   0.105E+00 0.191E-03
CGA:   5    -0.362385926039E+03   -0.17585E-01   -0.17726E-01  7392   0.295E-01 0.615E-03
CGA:   6    -0.362391480443E+03   -0.55544E-02   -0.56349E-02  7392   0.896E-02 0.421E-03
CGA:   7    -0.362393476407E+03   -0.19960E-02   -0.20056E-02  7392   0.322E-02 0.628E-04
CGA:   8    -0.362394294282E+03   -0.81787E-03   -0.82002E-03  7392   0.140E-02 0.189E-04
CGA:   9    -0.362394681306E+03   -0.38702E-03   -0.39114E-03  7392   0.555E-03 0.530E-04
CGA:  10    -0.362394839100E+03   -0.15779E-03   -0.15971E-03  7392   0.204E-03 0.255E-04
CGA:  11    -0.362394896049E+03   -0.56949E-04   -0.58245E-04  7392   0.682E-04 0.170E-04
CGA:  12    -0.362394923802E+03   -0.27754E-04   -0.28105E-04  7392   0.444E-04-0.975E-05
CGA:  13    -0.362394940830E+03   -0.17027E-04   -0.22843E-04  7392   0.601E-04-0.229E-04
CGA:  14    -0.362394953845E+03   -0.13016E-04   -0.13983E-04  7392   0.121E-04 0.767E-05
CGA:  15    -0.362394956535E+03   -0.26901E-05   -0.13470E-04  7392   0.455E-04-0.170E-04
  38 F= -.36239496E+03 E0= -.36239496E+03  d E =-.109809E-01  mag=    16.0000
       N       E                     dE             d eps       ncg     rms          ort
SDA:   1    -0.361648104940E+03    0.74685E+00    0.00000E+00  7392   0.184E+01 0.000E+00
CGA:   2    -0.362208274655E+03   -0.56017E+00   -0.56028E+00  7392   0.854E+00 0.747E-03
CGA:   3    -0.362343032121E+03   -0.13476E+00   -0.13492E+00  7392   0.239E+00 0.610E-03
CGA:   4    -0.362380232625E+03   -0.37201E-01   -0.37194E-01  7392   0.488E-01-0.690E-04
CGA:   5    -0.362388880545E+03   -0.86479E-02   -0.85892E-02  7392   0.147E-01-0.347E-03
CGA:   6    -0.362391720265E+03   -0.28397E-02   -0.28096E-02  7392   0.440E-02-0.207E-03
CGA:   7    -0.362392667994E+03   -0.94773E-03   -0.94602E-03  7392   0.160E-02-0.163E-04
CGA:   8    -0.362393079265E+03   -0.41127E-03   -0.41406E-03  7392   0.732E-03 0.403E-04
CGA:   9    -0.362393305567E+03   -0.22630E-03   -0.22635E-03  7392   0.344E-03 0.197E-05
CGA:  10    -0.362393417991E+03   -0.11242E-03   -0.11249E-03  7392   0.163E-03-0.282E-04
CGA:  11    -0.362393464663E+03   -0.46672E-04   -0.46512E-04  7392   0.681E-04-0.116E-04
CGA:  12    -0.362393486886E+03   -0.22223E-04   -0.22255E-04  7392   0.373E-04-0.115E-05
CGA:  13    -0.362393500801E+03   -0.13915E-04   -0.13662E-04  7392   0.223E-04 0.535E-05
CGA:  14    -0.362393510583E+03   -0.97828E-05   -0.95055E-05  7392   0.132E-04 0.606E-05
  39 F= -.36239351E+03 E0= -.36239351E+03  d E =0.144595E-02  mag=    16.0000
       N       E                     dE             d eps       ncg     rms          ort
SDA:   1    -0.361826624097E+03    0.56688E+00    0.00000E+00  7392   0.133E+01 0.000E+00
CGA:   2    -0.362272482780E+03   -0.44586E+00   -0.44586E+00  7392   0.543E+00 0.111E-02
CGA:   3    -0.362358141781E+03   -0.85659E-01   -0.85684E-01  7392   0.150E+00 0.364E-04
CGA:   4    -0.362381497394E+03   -0.23356E-01   -0.23322E-01  7392   0.320E-01-0.237E-03
CGA:   5    -0.362387308132E+03   -0.58107E-02   -0.57698E-02  7392   0.997E-02-0.302E-03
CGA:   6    -0.362389193099E+03   -0.18850E-02   -0.18674E-02  7392   0.295E-02-0.145E-03
CGA:   7    -0.362389826432E+03   -0.63333E-03   -0.63525E-03  7392   0.106E-02 0.212E-04
CGA:   8    -0.362390098524E+03   -0.27209E-03   -0.27302E-03  7392   0.472E-03 0.205E-04
CGA:   9    -0.362390248653E+03   -0.15013E-03   -0.15048E-03  7392   0.226E-03-0.254E-04
CGA:  10    -0.362390312744E+03   -0.64091E-04   -0.64090E-04  7392   0.914E-04-0.163E-04
CGA:  11    -0.362390338392E+03   -0.25648E-04   -0.25665E-04  7392   0.361E-04-0.625E-05
CGA:  12    -0.362390348180E+03   -0.97881E-05   -0.98336E-05  7392   0.173E-04 0.619E-05
  40 F= -.36239035E+03 E0= -.36239035E+03  d E =0.316240E-02  mag=    16.0000
       N       E                     dE             d eps       ncg     rms          ort
SDA:   1    -0.361783317475E+03    0.60702E+00    0.00000E+00  7392   0.154E+01 0.000E+00
CGA:   2    -0.362227899623E+03   -0.44458E+00   -0.44460E+00  7392   0.783E+00 0.693E-03
CGA:   3    -0.362349684490E+03   -0.12178E+00   -0.12165E+00  7392   0.214E+00-0.938E-03
CGA:   4    -0.362383763493E+03   -0.34079E-01   -0.34049E-01  7392   0.457E-01-0.264E-03
CGA:   5    -0.362391436929E+03   -0.76734E-02   -0.77266E-02  7392   0.129E-01 0.445E-03
CGA:   6    -0.362393864272E+03   -0.24273E-02   -0.24597E-02  7392   0.379E-02 0.345E-03
CGA:   7    -0.362394705926E+03   -0.84165E-03   -0.84611E-03  7392   0.136E-02 0.744E-04
CGA:   8    -0.362395075135E+03   -0.36921E-03   -0.36915E-03  7392   0.653E-03-0.832E-05
CGA:   9    -0.362395262465E+03   -0.18733E-03   -0.18725E-03  7392   0.284E-03 0.510E-05
CGA:  10    -0.362395341508E+03   -0.79043E-04   -0.78994E-04  7392   0.105E-03 0.165E-04
CGA:  11    -0.362395371329E+03   -0.29821E-04   -0.29892E-04  7392   0.364E-04 0.121E-04
CGA:  12    -0.362395386939E+03   -0.15610E-04   -0.16569E-04  7392   0.285E-04-0.711E-05
CGA:  13    -0.362395386758E+03    0.18107E-06   -0.19906E-04  7392   0.887E-04-0.341E-04
CGA:  14    -0.362395406847E+03   -0.20089E-04   -0.20483E-04  7392   0.150E-04 0.500E-05
CGA:  15    -0.362395413603E+03   -0.67562E-05   -0.72196E-05  7392   0.676E-05-0.311E-05
  41 F= -.36239541E+03 E0= -.36239541E+03  d E =-.506542E-02  mag=    16.0000
       N       E                     dE             d eps       ncg     rms          ort
SDA:   1    -0.362245210252E+03    0.15020E+00    0.00000E+00  7392   0.396E+00 0.000E+00
CGA:   2    -0.362342070440E+03   -0.96860E-01   -0.96859E-01  7392   0.245E+00-0.231E-03
CGA:   3    -0.362380945273E+03   -0.38875E-01   -0.38810E-01  7392   0.631E-01-0.507E-03
CGA:   4    -0.362391231047E+03   -0.10286E-01   -0.10274E-01  7392   0.154E-01-0.976E-04
CGA:   5    -0.362393799319E+03   -0.25683E-02   -0.25930E-02  7392   0.428E-02 0.199E-03
CGA:   6    -0.362394574842E+03   -0.77552E-03   -0.79457E-03  7392   0.122E-02 0.188E-03
CGA:   7    -0.362394847204E+03   -0.27236E-03   -0.27594E-03  7392   0.445E-03 0.570E-04
CGA:   8    -0.362394963357E+03   -0.11615E-03   -0.11627E-03  7392   0.191E-03 0.430E-05
CGA:   9    -0.362395017544E+03   -0.54187E-04   -0.54180E-04  7392   0.841E-04 0.120E-05
CGA:  10    -0.362395041596E+03   -0.24051E-04   -0.24047E-04  7392   0.356E-04 0.502E-06
CGA:  11    -0.362395051106E+03   -0.95108E-05   -0.95567E-05  7392   0.137E-04 0.521E-05
  42 F= -.36239505E+03 E0= -.36239505E+03  d E =0.362497E-03  mag=    16.0000
       N       E                     dE             d eps       ncg     rms          ort
SDA:   1    -0.362136953485E+03    0.25809E+00    0.00000E+00  7392   0.652E+00 0.000E+00
CGA:   2    -0.362320456443E+03   -0.18350E+00   -0.18351E+00  7392   0.364E+00 0.744E-03
CGA:   3    -0.362375392365E+03   -0.54936E-01   -0.55021E-01  7392   0.925E-01 0.578E-03
CGA:   4    -0.362390309477E+03   -0.14917E-01   -0.14930E-01  7392   0.205E-01 0.863E-04
CGA:   5    -0.362393824404E+03   -0.35149E-02   -0.34942E-02  7392   0.587E-02-0.202E-03
CGA:   6    -0.362394991352E+03   -0.11669E-02   -0.11524E-02  7392   0.181E-02-0.203E-03
CGA:   7    -0.362395374483E+03   -0.38313E-03   -0.38061E-03  7392   0.639E-03-0.522E-04
CGA:   8    -0.362395521653E+03   -0.14717E-03   -0.14779E-03  7392   0.256E-03 0.235E-04
CGA:   9    -0.362395595236E+03   -0.73583E-04   -0.73361E-04  7392   0.107E-03 0.162E-04
CGA:  10    -0.362395631841E+03   -0.36604E-04   -0.37081E-04  7392   0.555E-04-0.777E-05
CGA:  11    -0.362395649184E+03   -0.17344E-04   -0.18530E-04  7392   0.315E-04-0.128E-04
CGA:  12    -0.362395657442E+03   -0.82576E-05   -0.85475E-05  7392   0.177E-04-0.362E-05
  43 F= -.36239566E+03 E0= -.36239566E+03  d E =-.606336E-03  mag=    16.0000
       N       E                     dE             d eps       ncg     rms          ort
SDA:   1    -0.362153273249E+03    0.24238E+00    0.00000E+00  7392   0.612E+00 0.000E+00
CGA:   2    -0.362328422213E+03   -0.17515E+00   -0.17514E+00  7392   0.328E+00 0.103E-02
CGA:   3    -0.362378387226E+03   -0.49965E-01   -0.49899E-01  7392   0.850E-01-0.569E-03
CGA:   4    -0.362392037587E+03   -0.13650E-01   -0.13611E-01  7392   0.185E-01-0.376E-03
CGA:   5    -0.362395130416E+03   -0.30928E-02   -0.31030E-02  7392   0.515E-02 0.999E-04
CGA:   6    -0.362396072651E+03   -0.94223E-03   -0.95518E-03  7392   0.144E-02 0.168E-03
CGA:   7    -0.362396381066E+03   -0.30841E-03   -0.31181E-03  7392   0.493E-03 0.699E-04
CGA:   8    -0.362396522969E+03   -0.14190E-03   -0.14208E-03  7392   0.255E-03-0.883E-05
CGA:   9    -0.362396604633E+03   -0.81663E-04   -0.85294E-04  7392   0.156E-03-0.431E-04
CGA:  10    -0.362396642332E+03   -0.37699E-04   -0.38213E-04  7392   0.662E-04-0.148E-04
CGA:  11    -0.362396655000E+03   -0.12668E-04   -0.13156E-04  7392   0.225E-04 0.116E-04
CGA:  12    -0.362396661528E+03   -0.65274E-05   -0.65832E-05  7392   0.118E-04 0.516E-05
CGA:  13    -0.362396617521E+03    0.44007E-04   -0.24090E-04  7392   0.226E-03-0.483E-04
CGA:  14    -0.362396673001E+03   -0.55480E-04   -0.55832E-04  7392   0.402E-04 0.152E-05
CGA:  15    -0.362396690404E+03   -0.17403E-04   -0.16939E-04  7392   0.169E-04-0.110E-04
CGA:  16    -0.362396692018E+03   -0.16135E-05   -0.26221E-05  7392   0.519E-05 0.411E-05
  44 F= -.36239669E+03 E0= -.36239669E+03  d E =-.103458E-02  mag=    16.0000
       N       E                     dE             d eps       ncg     rms          ort
SDA:   1    -0.360793451438E+03    0.16032E+01    0.00000E+00  7392   0.404E+01 0.000E+00
CGA:   2    -0.361895664525E+03   -0.11022E+01   -0.11030E+01  7392   0.247E+01 0.233E-02
CGA:   3    -0.362268156684E+03   -0.37249E+00   -0.37233E+00  7392   0.561E+00 0.244E-02
CGA:   4    -0.362357922187E+03   -0.89766E-01   -0.89585E-01  7392   0.133E+00-0.643E-03
CGA:   5    -0.362380594469E+03   -0.22672E-01   -0.22675E-01  7392   0.370E-01-0.317E-04
CGA:   6    -0.362387417774E+03   -0.68233E-02   -0.68681E-02  7392   0.105E-01 0.206E-03
CGA:   7    -0.362389619201E+03   -0.22014E-02   -0.22238E-02  7392   0.347E-02 0.130E-03
CGA:   8    -0.362390488772E+03   -0.86957E-03   -0.87564E-03  7392   0.147E-02 0.490E-04
CGA:   9    -0.362390930439E+03   -0.44167E-03   -0.44011E-03  7392   0.682E-03-0.228E-04
CGA:  10    -0.362391137401E+03   -0.20696E-03   -0.20537E-03  7392   0.300E-03-0.286E-04
CGA:  11    -0.362391212514E+03   -0.75113E-04   -0.77253E-04  7392   0.105E-03 0.238E-04
CGA:  12    -0.362391248113E+03   -0.35599E-04   -0.35986E-04  7392   0.572E-04 0.106E-04
CGA:  13    -0.362391281843E+03   -0.33731E-04   -0.38945E-04  7392   0.984E-04-0.192E-04
CGA:  14    -0.362391307496E+03   -0.25653E-04   -0.26049E-04  7392   0.102E-03-0.112E-04
CGA:  15    -0.362391336456E+03   -0.28960E-04   -0.28911E-04  7392   0.768E-04-0.119E-06
CGA:  16    -0.362391361703E+03   -0.25247E-04   -0.25394E-04  7392   0.573E-04 0.511E-05
CGA:  17    -0.362391381594E+03   -0.19890E-04   -0.20262E-04  7392   0.497E-04 0.124E-04
CGA:  18    -0.362391405982E+03   -0.24388E-04   -0.24029E-04  7392   0.502E-04 0.110E-04
CGA:  19    -0.362391435098E+03   -0.29117E-04   -0.28474E-04  7392   0.550E-04 0.783E-05
CGA:  20    -0.362391452121E+03   -0.17022E-04   -0.18630E-04  7392   0.375E-04 0.226E-04
CGA:  21    -0.362391464050E+03   -0.11929E-04   -0.13823E-04  7392   0.203E-04 0.190E-04
CGA:  22    -0.362391455694E+03    0.83566E-05   -0.28433E-04  7392   0.138E-03-0.353E-04
CGA:  23    -0.362391474758E+03   -0.19064E-04   -0.26944E-04  7392   0.184E-04 0.364E-04
CGA:  24    -0.362391483370E+03   -0.86127E-05   -0.83659E-05  7392   0.863E-05-0.611E-05
  45 F= -.36239148E+03 E0= -.36239148E+03  d E =0.520865E-02  mag=    16.0000
       N       E                     dE             d eps       ncg     rms          ort
SDA:   1    -0.361640310232E+03    0.75116E+00    0.00000E+00  7392   0.185E+01 0.000E+00
CGA:   2    -0.362191277073E+03   -0.55097E+00   -0.55110E+00  7392   0.913E+00 0.676E-03
CGA:   3    -0.362335949855E+03   -0.14467E+00   -0.14466E+00  7392   0.251E+00 0.569E-04
CGA:   4    -0.362375356242E+03   -0.39406E-01   -0.39383E-01  7392   0.514E-01-0.147E-03
CGA:   5    -0.362384452840E+03   -0.90966E-02   -0.90692E-02  7392   0.159E-01-0.155E-03
CGA:   6    -0.362387506271E+03   -0.30534E-02   -0.30441E-02  7392   0.480E-02-0.639E-04
CGA:   7    -0.362388542078E+03   -0.10358E-02   -0.10401E-02  7392   0.176E-02 0.321E-04
CGA:   8    -0.362388996807E+03   -0.45473E-03   -0.45871E-03  7392   0.799E-03 0.494E-04
CGA:   9    -0.362389239843E+03   -0.24304E-03   -0.24331E-03  7392   0.368E-03 0.712E-05
CGA:  10    -0.362389354896E+03   -0.11505E-03   -0.11486E-03  7392   0.167E-03-0.864E-05
CGA:  11    -0.362389403258E+03   -0.48362E-04   -0.48511E-04  7392   0.703E-04 0.441E-05
CGA:  12    -0.362389429276E+03   -0.26017E-04   -0.25880E-04  7392   0.449E-04 0.480E-05
CGA:  13    -0.362389448221E+03   -0.18946E-04   -0.18380E-04  7392   0.324E-04 0.110E-04
CGA:  14    -0.362389463847E+03   -0.15626E-04   -0.15076E-04  7392   0.225E-04 0.139E-04
CGA:  15    -0.362389476456E+03   -0.12609E-04   -0.12093E-04  7392   0.166E-04 0.129E-04
CGA:  16    -0.362389483093E+03   -0.66364E-05   -0.64451E-05  7392   0.997E-05 0.376E-05
CGA:  17    -0.362389496044E+03   -0.12951E-04   -0.10292E-04  7392   0.149E-04 0.544E-05
CGA:  18    -0.362389499404E+03   -0.33602E-05   -0.40166E-05  7392   0.671E-05 0.688E-05
  46 F= -.36238950E+03 E0= -.36238950E+03  d E =0.198397E-02  mag=    16.0000
       N       E                     dE             d eps       ncg     rms          ort
SDA:   1    -0.361109155266E+03    0.12803E+01    0.00000E+00  7392   0.344E+01 0.000E+00
CGA:   2    -0.361918914008E+03   -0.80976E+00   -0.81063E+00  7392   0.217E+01 0.199E-02
CGA:   3    -0.362274190971E+03   -0.35528E+00   -0.35568E+00  7392   0.551E+00 0.166E-02
CGA:   4    -0.362360976256E+03   -0.86785E-01   -0.86850E-01  7392   0.129E+00 0.527E-03
CGA:   5    -0.362383110097E+03   -0.22134E-01   -0.22213E-01  7392   0.371E-01 0.409E-03
CGA:   6    -0.362390090713E+03   -0.69806E-02   -0.69990E-02  7392   0.108E-01 0.104E-03
CGA:   7    -0.362392435109E+03   -0.23444E-02   -0.23284E-02  7392   0.373E-02-0.146E-03
CGA:   8    -0.362393326199E+03   -0.89109E-03   -0.88949E-03  7392   0.146E-02-0.207E-04
CGA:   9    -0.362393702369E+03   -0.37617E-03   -0.38006E-03  7392   0.553E-03 0.676E-04
CGA:  10    -0.362393858838E+03   -0.15647E-03   -0.15796E-03  7392   0.211E-03 0.347E-04
CGA:  11    -0.362393921778E+03   -0.62940E-04   -0.63369E-04  7392   0.743E-04 0.138E-04
CGA:  12    -0.362393950520E+03   -0.28741E-04   -0.29611E-04  7392   0.464E-04-0.141E-04
CGA:  13    -0.362393966166E+03   -0.15646E-04   -0.17657E-04  7392   0.397E-04-0.130E-04
CGA:  14    -0.362393974195E+03   -0.80283E-05   -0.82160E-05  7392   0.206E-04 0.536E-05
CGA:  15    -0.362393983700E+03   -0.95058E-05   -0.10214E-04  7392   0.197E-04-0.609E-05
CGA:  16    -0.362393993853E+03   -0.10153E-04    0.19064E-04  7392   0.148E-04-0.123E-05
CGA:  17    -0.362393994829E+03   -0.97575E-06   -0.11123E-04  7392   0.575E-04-0.211E-04
CGA:  18    -0.362394009449E+03   -0.14620E-04   -0.14776E-04  7392   0.719E-05 0.166E-05
CGA:  19    -0.362394011587E+03   -0.21378E-05   -0.22641E-05  7392   0.299E-05 0.317E-05
  47 F= -.36239401E+03 E0= -.36239401E+03  d E =-.451218E-02  mag=    16.0000
       N       E                     dE             d eps       ncg     rms          ort
SDA:   1    -0.362227821043E+03    0.16619E+00    0.00000E+00  7392   0.453E+00 0.000E+00
CGA:   2    -0.362335597762E+03   -0.10778E+00   -0.10784E+00  7392   0.267E+00 0.341E-05
CGA:   3    -0.362379783280E+03   -0.44186E-01   -0.44079E-01  7392   0.746E-01-0.192E-03
CGA:   4    -0.362391884977E+03   -0.12102E-01   -0.12075E-01  7392   0.185E-01-0.786E-04
CGA:   5    -0.362395005987E+03   -0.31210E-02   -0.31617E-02  7392   0.546E-02 0.970E-04
CGA:   6    -0.362395987215E+03   -0.98123E-03   -0.10110E-02  7392   0.165E-02 0.804E-04
CGA:   7    -0.362396350062E+03   -0.36285E-03   -0.36910E-03  7392   0.604E-03 0.199E-04
CGA:   8    -0.362396505433E+03   -0.15537E-03   -0.15564E-03  7392   0.247E-03 0.881E-06
CGA:   9    -0.362396571542E+03   -0.66109E-04   -0.67386E-04  7392   0.976E-04 0.555E-05
CGA:  10    -0.362396596477E+03   -0.24935E-04   -0.26409E-04  7392   0.361E-04 0.659E-05
CGA:  11    -0.362396605461E+03   -0.89841E-05   -0.10067E-04  7392   0.122E-04 0.502E-05
  48 F= -.36239661E+03 E0= -.36239661E+03  d E =-.259387E-02  mag=    16.0000
       N       E                     dE             d eps       ncg     rms          ort
SDA:   1    -0.362234687056E+03    0.16191E+00    0.00000E+00  7392   0.398E+00 0.000E+00
CGA:   2    -0.362353952732E+03   -0.11927E+00   -0.11934E+00  7392   0.210E+00 0.328E-03
CGA:   3    -0.362385838798E+03   -0.31886E-01   -0.31842E-01  7392   0.534E-01-0.128E-03
CGA:   4    -0.362394415840E+03   -0.85770E-02   -0.85321E-02  7392   0.116E-01-0.178E-03
CGA:   5    -0.362396447101E+03   -0.20313E-02   -0.20055E-02  7392   0.345E-02-0.107E-03
CGA:   6    -0.362397109942E+03   -0.66284E-03   -0.65608E-03  7392   0.104E-02-0.324E-04
CGA:   7    -0.362397319741E+03   -0.20980E-03   -0.21452E-03  7392   0.348E-03 0.248E-04
CGA:   8    -0.362397404803E+03   -0.85063E-04   -0.87829E-04  7392   0.147E-03 0.196E-04
CGA:   9    -0.362397456598E+03   -0.51795E-04   -0.51049E-04  7392   0.821E-04-0.145E-04
CGA:  10    -0.362397481256E+03   -0.24658E-04   -0.23867E-04  7392   0.399E-04-0.143E-04
CGA:  11    -0.362397488576E+03   -0.73197E-05   -0.77161E-05  7392   0.127E-04 0.280E-05
  49 F= -.36239749E+03 E0= -.36239749E+03  d E =-.883115E-03  mag=    16.0000
       N       E                     dE             d eps       ncg     rms          ort
SDA:   1    -0.362305219177E+03    0.92262E-01    0.00000E+00  7392   0.255E+00 0.000E+00
CGA:   2    -0.362362393457E+03   -0.57174E-01   -0.57216E-01  7392   0.158E+00 0.156E-03
CGA:   3    -0.362388948283E+03   -0.26555E-01   -0.26593E-01  7392   0.418E-01 0.148E-03
CGA:   4    -0.362395418620E+03   -0.64703E-02   -0.64900E-02  7392   0.962E-02 0.965E-04
CGA:   5    -0.362397055056E+03   -0.16364E-02   -0.16512E-02  7392   0.276E-02 0.864E-04
CGA:   6    -0.362397573962E+03   -0.51891E-03   -0.52221E-03  7392   0.768E-03 0.222E-04
CGA:   7    -0.362397742720E+03   -0.16876E-03   -0.16712E-03  7392   0.262E-03-0.161E-04
CGA:   8    -0.362397807547E+03   -0.64827E-04   -0.64065E-04  7392   0.107E-03-0.119E-04
CGA:   9    -0.362397835877E+03   -0.28330E-04   -0.28178E-04  7392   0.442E-04-0.441E-05
CGA:  10    -0.362397846930E+03   -0.11052E-04   -0.11141E-04  7392   0.160E-04 0.190E-05
CGA:  11    -0.362397850471E+03   -0.35407E-05   -0.38233E-05  7392   0.493E-05 0.361E-05
  50 F= -.36239785E+03 E0= -.36239785E+03  d E =-.361895E-03  mag=    16.0000
       N       E                     dE             d eps       ncg     rms          ort
SDA:   1    -0.362334984955E+03    0.62862E-01    0.00000E+00  7392   0.155E+00 0.000E+00
CGA:   2    -0.362380461689E+03   -0.45477E-01   -0.45475E-01  7392   0.864E-01-0.403E-03
CGA:   3    -0.362393528972E+03   -0.13067E-01   -0.13061E-01  7392   0.212E-01-0.452E-04
CGA:   4    -0.362396853876E+03   -0.33249E-02   -0.33384E-02  7392   0.454E-02 0.953E-04
CGA:   5    -0.362397618918E+03   -0.76504E-03   -0.77316E-03  7392   0.131E-02 0.691E-04
CGA:   6    -0.362397871911E+03   -0.25299E-03   -0.25424E-03  7392   0.387E-03 0.138E-04
CGA:   7    -0.362397956627E+03   -0.84716E-04   -0.84527E-04  7392   0.137E-03-0.332E-05
CGA:   8    -0.362397990699E+03   -0.34072E-04   -0.34163E-04  7392   0.596E-04 0.444E-05
CGA:   9    -0.362398008184E+03   -0.17485E-04   -0.17439E-04  7392   0.264E-04 0.378E-05
CGA:  10    -0.362398015858E+03   -0.76739E-05   -0.76682E-05  7392   0.113E-04 0.450E-05
  51 F= -.36239802E+03 E0= -.36239802E+03  d E =-.165387E-03  mag=    16.0000
       N       E                     dE             d eps       ncg     rms          ort
SDA:   1    -0.362218941056E+03    0.17907E+00    0.00000E+00  7392   0.456E+00 0.000E+00
CGA:   2    -0.362342266598E+03   -0.12333E+00   -0.12333E+00  7392   0.262E+00-0.806E-03
CGA:   3    -0.362381817692E+03   -0.39551E-01   -0.39510E-01  7392   0.672E-01-0.348E-03
CGA:   4    -0.362392959000E+03   -0.11141E-01   -0.11155E-01  7392   0.158E-01 0.126E-03
CGA:   5    -0.362395598373E+03   -0.26394E-02   -0.26576E-02  7392   0.434E-02 0.197E-03
CGA:   6    -0.362396426152E+03   -0.82778E-03   -0.83537E-03  7392   0.131E-02 0.118E-03
CGA:   7    -0.362396724324E+03   -0.29817E-03   -0.29924E-03  7392   0.485E-03 0.369E-04
CGA:   8    -0.362396851915E+03   -0.12759E-03   -0.12751E-03  7392   0.216E-03 0.118E-04
CGA:   9    -0.362396920135E+03   -0.68220E-04   -0.68870E-04  7392   0.108E-03-0.106E-04
CGA:  10    -0.362396950648E+03   -0.30513E-04   -0.30633E-04  7392   0.484E-04-0.262E-05
CGA:  11    -0.362396959935E+03   -0.92874E-05   -0.99661E-05  7392   0.188E-04 0.155E-04
  52 F= -.36239696E+03 E0= -.36239696E+03  d E =0.105592E-02  mag=    16.0000
       N       E                     dE             d eps       ncg     rms          ort
SDA:   1    -0.362366024935E+03    0.30926E-01    0.00000E+00  7392   0.851E-01 0.000E+00
CGA:   2    -0.362387809403E+03   -0.21784E-01   -0.21781E-01  7392   0.465E-01 0.582E-03
CGA:   3    -0.362395209803E+03   -0.74004E-02   -0.74139E-02  7392   0.137E-01 0.139E-03
CGA:   4    -0.362397566403E+03   -0.23566E-02   -0.23507E-02  7392   0.344E-02-0.817E-04
CGA:   5    -0.362398163230E+03   -0.59683E-03   -0.59139E-03  7392   0.104E-02-0.787E-04
CGA:   6    -0.362398365750E+03   -0.20252E-03   -0.20142E-03  7392   0.336E-03-0.264E-04
CGA:   7    -0.362398439827E+03   -0.74077E-04   -0.74109E-04  7392   0.128E-03 0.279E-05
CGA:   8    -0.362398471489E+03   -0.31663E-04   -0.31627E-04  7392   0.505E-04 0.380E-05
CGA:   9    -0.362398484230E+03   -0.12741E-04   -0.12684E-04  7392   0.178E-04 0.857E-05
CGA:  10    -0.362398489221E+03   -0.49912E-05   -0.49834E-05  7392   0.731E-05 0.507E-05
  53 F= -.36239849E+03 E0= -.36239849E+03  d E =-.152929E-02  mag=    16.0000
       N       E                     dE             d eps       ncg     rms          ort
SDA:   1    -0.362354268877E+03    0.44215E-01    0.00000E+00  7392   0.109E+00 0.000E+00
CGA:   2    -0.362386197238E+03   -0.31928E-01   -0.31942E-01  7392   0.617E-01-0.305E-03
CGA:   3    -0.362395414150E+03   -0.92169E-02   -0.92217E-02  7392   0.147E-01 0.443E-04
CGA:   4    -0.362397717769E+03   -0.23036E-02   -0.23138E-02  7392   0.319E-02 0.118E-03
CGA:   5    -0.362398254942E+03   -0.53717E-03   -0.54108E-03  7392   0.908E-03 0.564E-04
CGA:   6    -0.362398432140E+03   -0.17720E-03   -0.17748E-03  7392   0.270E-03 0.652E-05
CGA:   7    -0.362398490455E+03   -0.58314E-04   -0.58319E-04  7392   0.944E-04 0.207E-06
CGA:   8    -0.362398514222E+03   -0.23767E-04   -0.23647E-04  7392   0.427E-04 0.599E-05
CGA:   9    -0.362398527224E+03   -0.13002E-04   -0.12696E-04  7392   0.207E-04 0.636E-05
CGA:  10    -0.362398533346E+03   -0.61221E-05   -0.59825E-05  7392   0.105E-04 0.768E-05
  54 F= -.36239853E+03 E0= -.36239853E+03  d E =-.441249E-04  mag=    16.0000
