       N       E                     dE             d eps       ncg     rms          ort
DAV:   1     0.266708462204E+04    0.26671E+04   -0.14745E+05  6336   0.155E+03
DAV:   2    -0.223918248202E+03   -0.28910E+04   -0.27759E+04  6336   0.433E+02
DAV:   3    -0.505272656154E+03   -0.28135E+03   -0.27549E+03  6336   0.149E+02
DAV:   4    -0.519574552926E+03   -0.14302E+02   -0.14091E+02  6336   0.361E+01
DAV:   5    -0.520684167136E+03   -0.11096E+01   -0.11036E+01  6336   0.662E+00
SDA:   6    -0.345401853733E+03    0.17528E+03   -0.11036E+01  6336   0.718E+03 0.000E+00
CGA:   7    -0.387440531805E+03   -0.42039E+02   -0.63859E+02  6336   0.410E+03 0.183E+02
CGA:   8    -0.405208726359E+03   -0.17768E+02   -0.27307E+02  6336   0.148E+03-0.123E+03
CGA:   9    -0.407221238164E+03   -0.20125E+01   -0.38076E+01  6336   0.673E+03-0.333E+03
CGA:  10    -0.414929050360E+03   -0.77078E+01   -0.49682E+02  6336   0.573E+02 0.322E+01
CGA:  11    -0.416453755465E+03   -0.15247E+01   -0.23137E+01  6336   0.572E+02 0.534E+01
CGA:  12    -0.419513100190E+03   -0.30593E+01   -0.19270E+01  6336   0.116E+02 0.295E+02
CGA:  13    -0.419743753073E+03   -0.23065E+00   -0.11959E+00  6336   0.961E+01 0.107E+02
CGA:  14    -0.419907358909E+03   -0.16361E+00   -0.82082E-01  6336   0.897E+01 0.954E+01
CGA:  15    -0.420059940370E+03   -0.15258E+00   -0.74974E-01  6336   0.883E+01 0.932E+01
CGA:  16    -0.420236678220E+03   -0.17674E+00   -0.84671E-01  6336   0.895E+01 0.969E+01
CGA:  17    -0.420481189324E+03   -0.24451E+00   -0.11504E+00  6336   0.822E+01 0.994E+01
CGA:  18    -0.420748531861E+03   -0.26734E+00   -0.14960E+00  6336   0.471E+01 0.546E+01
CGA:  19    -0.422059285873E+03   -0.13108E+01   -0.11428E+01  6336   0.240E+02 0.114E+01
CGA:  20    -0.422837723830E+03   -0.77844E+00   -0.10403E+01  6336   0.782E+01-0.944E+01
CGA:  21    -0.422975557817E+03   -0.13783E+00   -0.74557E-01  6336   0.808E+01 0.399E+01
CGA:  22    -0.423123427310E+03   -0.14787E+00   -0.24914E+00  6336   0.317E+01-0.275E+01
CGA:  23    -0.423338010774E+03   -0.21458E+00   -0.21406E+00  6336   0.240E+01 0.156E-01
CGA:  24    -0.423430550355E+03   -0.92540E-01   -0.69978E-01  6336   0.784E+00 0.618E+00
CGA:  25    -0.423514829868E+03   -0.84280E-01   -0.91962E-01  6336   0.188E+01 0.156E+00
CGA:  26    -0.423699992248E+03   -0.18516E+00   -0.15697E+00  6336   0.153E+01 0.100E+00
CGA:  27    -0.423750946760E+03   -0.50955E-01   -0.77802E-01  6336   0.105E+01-0.342E+00
CGA:  28    -0.423801110725E+03   -0.50164E-01   -0.49098E-01  6336   0.155E+00 0.131E-01
CGA:  29    -0.423810640680E+03   -0.95300E-02   -0.95269E-02  6336   0.263E+00-0.162E-01
CGA:  30    -0.423830563872E+03   -0.19923E-01   -0.19988E-01  6336   0.637E-01 0.916E-02
CGA:  31    -0.423834318144E+03   -0.37543E-02   -0.37350E-02  6336   0.506E-01-0.508E-02
CGA:  32    -0.423835977573E+03   -0.16594E-02   -0.18537E-02  6336   0.343E-01 0.548E-02
CGA:  33    -0.423842791068E+03   -0.68135E-02   -0.70797E-02  6336   0.607E-01-0.268E-02
CGA:  34    -0.423845192283E+03   -0.24012E-02   -0.20094E-02  6336   0.378E-01-0.128E-01
CGA:  35    -0.423847142031E+03   -0.19497E-02   -0.18945E-02  6336   0.105E-01-0.224E-03
CGA:  36    -0.423843580563E+03    0.35615E-02   -0.23951E-02  6336   0.190E+00-0.190E-01
CGA:  37    -0.423847886703E+03   -0.43061E-02   -0.57621E-02  6336   0.870E-01-0.775E-01
CGA:  38    -0.423850905367E+03   -0.30187E-02   -0.33478E-02  6336   0.918E-02 0.660E-02
CGA:  39    -0.423852036602E+03   -0.11312E-02   -0.10295E-02  6336   0.250E-01-0.219E-02
CGA:  40    -0.423852438672E+03   -0.40207E-03   -0.57616E-03  6336   0.829E-02 0.276E-02
CGA:  41    -0.423852450505E+03   -0.11833E-04   -0.19869E-03  6336   0.523E-02 0.188E-02
CGA:  42    -0.423852591841E+03   -0.14134E-03   -0.25361E-03  6336   0.528E-02 0.186E-02
CGA:  43    -0.423852828114E+03   -0.23627E-03   -0.21278E-03  6336   0.292E-02-0.304E-03
CGA:  44    -0.423853090649E+03   -0.26254E-03   -0.27796E-03  6336   0.806E-02 0.492E-03
CGA:  45    -0.423853165921E+03   -0.75272E-04   -0.25392E-03  6336   0.151E-02 0.250E-02
CGA:  46    -0.423853186126E+03   -0.20205E-04   -0.69054E-04  6336   0.130E-02 0.608E-03
CGA:  47    -0.423853357547E+03   -0.17142E-03   -0.14565E-03  6336   0.239E-02-0.647E-03
CGA:  48    -0.423853374890E+03   -0.17343E-04   -0.35255E-04  6336   0.322E-02 0.238E-03
CGA:  49    -0.423853400515E+03   -0.25625E-04   -0.11023E-03  6336   0.206E-02 0.124E-02
CGA:  50    -0.423853449942E+03   -0.49427E-04   -0.87754E-04  6336   0.720E-03 0.725E-03
CGA:  51    -0.423853502198E+03   -0.52256E-04   -0.46939E-04  6336   0.106E-02-0.649E-04
CGA:  52    -0.423853504134E+03   -0.19364E-05   -0.29384E-04  6336   0.147E-02 0.415E-03
CGA:  53    -0.423853517492E+03   -0.13358E-04   -0.68148E-04  6336   0.170E-02 0.923E-03
CGA:  54    -0.423853537859E+03   -0.20367E-04   -0.26329E-03  6336   0.230E-01-0.415E-02
CGA:  55    -0.423853713020E+03   -0.17516E-03   -0.38957E-03  6336   0.194E-02 0.381E-02
CGA:  56    -0.423853709922E+03    0.30979E-05   -0.51975E-04  6336   0.981E-03 0.855E-03
CGA:  57    -0.423853751541E+03   -0.41619E-04   -0.44895E-04  6336   0.213E-03 0.118E-03
CGA:  58    -0.423853826695E+03   -0.75154E-04    0.13683E-04  6336   0.114E-02-0.653E-04
CGA:  59    -0.423853851084E+03   -0.24389E-04   -0.12550E-03  6336   0.138E-01-0.140E-02
CGA:  60    -0.423853995145E+03   -0.14406E-03   -0.26624E-03  6336   0.208E-02 0.259E-02
CGA:  61    -0.423854105887E+03   -0.11074E-03   -0.10813E-03  6336   0.960E-03-0.654E-04
CGA:  62    -0.423853907529E+03    0.19836E-03   -0.13970E-03  6336   0.318E-01-0.529E-02
CGA:  63    -0.423854197013E+03   -0.28948E-03   -0.53312E-03  6336   0.238E-02 0.512E-02
CGA:  64    -0.423854195299E+03    0.17143E-05   -0.59680E-04  6336   0.115E-02 0.107E-02
CGA:  65    -0.423854231203E+03   -0.35903E-04   -0.46378E-04  6336   0.185E-03 0.277E-03
CGA:  66    -0.423854287663E+03   -0.56461E-04    0.17117E-04  6336   0.150E-02-0.371E-03
CGA:  67    -0.423854268510E+03    0.19154E-04   -0.19139E-04  6336   0.299E-03 0.588E-03
CGA:  68    -0.423854258359E+03    0.10151E-04   -0.41548E-05  6336   0.150E-03 0.218E-03
CGA:  69    -0.423854180098E+03    0.78261E-04   -0.46149E-04  6336   0.378E-02-0.372E-03
CGA:  70    -0.423854404636E+03   -0.22454E-03   -0.18668E-03  6336   0.169E-02-0.362E-03
CGA:  71    -0.423854374853E+03    0.29783E-04   -0.22799E-04  6336   0.302E-03 0.507E-03
CGA:  72    -0.423854358449E+03    0.16404E-04   -0.36469E-05  6336   0.102E-03 0.178E-03
CGA:  73    -0.423854352900E+03    0.55490E-05   -0.20715E-05  6336   0.797E-04 0.782E-04
CGA:  74    -0.423854378198E+03   -0.25298E-04    0.11173E-04  6336   0.866E-04 0.726E-04
CGA:  75    -0.423854373387E+03    0.48107E-05   -0.19485E-05  6336   0.768E-04 0.746E-04
CGA:  76    -0.423854393884E+03   -0.20497E-04    0.18190E-04  6336   0.887E-04 0.711E-04
CGA:  77    -0.423854389121E+03    0.47628E-05   -0.17362E-05  6336   0.743E-04 0.731E-04
CGA:  78    -0.423854407569E+03   -0.18448E-04    0.19980E-04  6336   0.753E-04 0.722E-04
CGA:  79    -0.423854405575E+03    0.19942E-05   -0.27340E-05  6336   0.748E-04 0.698E-04
   1 F= -.42385441E+03 E0= -.42384618E+03  d E =-.423854E+03  mag=    10.0000
       N       E                     dE             d eps       ncg     rms          ort
SDA:   1    -0.423848759873E+03    0.56477E-02    0.00000E+00  6336   0.278E+00 0.000E+00
CGA:   2    -0.423854275447E+03   -0.55156E-02   -0.61190E-02  6336   0.211E-01-0.723E-01
CGA:   3    -0.423854426905E+03   -0.15146E-03   -0.32481E-03  6336   0.999E-03 0.284E-02
CGA:   4    -0.423854409858E+03    0.17047E-04   -0.19110E-04  6336   0.527E-03 0.480E-03
CGA:   5    -0.423854423926E+03   -0.14068E-04   -0.32770E-04  6336   0.105E-02 0.397E-03
CGA:   6    -0.423854104138E+03    0.31979E-03   -0.18131E-03  6336   0.527E-01-0.579E-02
CGA:   7    -0.423854652274E+03   -0.54814E-03   -0.80384E-03  6336   0.130E-02 0.800E-02
CGA:   8    -0.423854628338E+03    0.23936E-04   -0.16146E-04  6336   0.243E-03 0.538E-03
CGA:   9    -0.423854617057E+03    0.11281E-04   -0.30742E-05  6336   0.148E-03 0.193E-03
CGA:  10    -0.423854645038E+03   -0.27982E-04   -0.21020E-04  6336   0.158E-03 0.113E-03
CGA:  11    -0.423854718832E+03   -0.73793E-04    0.35812E-05  6336   0.833E-03-0.107E-03
CGA:  12    -0.423854700388E+03    0.18443E-04   -0.88769E-05  6336   0.203E-03 0.382E-03
CGA:  13    -0.423854690265E+03    0.10123E-04   -0.21353E-05  6336   0.990E-04 0.171E-03
CGA:  14    -0.423854686964E+03    0.33013E-05   -0.16774E-05  6336   0.838E-04 0.848E-04
CGA:  15    -0.423854699214E+03   -0.12249E-04    0.69208E-03  6336   0.755E-04 0.789E-04
CGA:  16    -0.423854714773E+03   -0.15559E-04    0.65806E-05  6336   0.705E-04 0.710E-04
CGA:  17    -0.423854714796E+03   -0.23760E-07   -0.24785E-05  6336   0.681E-04 0.653E-04
   2 F= -.42385471E+03 E0= -.42384643E+03  d E =-.309222E-03  mag=    10.0000
       N       E                     dE             d eps       ncg     rms          ort
SDA:   1    -0.423852877202E+03    0.18376E-02    0.00000E+00  6336   0.823E-01 0.000E+00
CGA:   2    -0.423854858039E+03   -0.19808E-02   -0.16838E-02  6336   0.279E-02-0.146E-01
CGA:   3    -0.423854841046E+03    0.16993E-04   -0.31493E-04  6336   0.448E-03 0.903E-03
CGA:   4    -0.423854827886E+03    0.13160E-04   -0.44889E-05  6336   0.146E-03 0.306E-03
CGA:   5    -0.423854823367E+03    0.45184E-05   -0.13891E-05  6336   0.929E-04 0.111E-03
   3 F= -.42385482E+03 E0= -.42384650E+03  d E =-.108571E-03  mag=    10.0000
       N       E                     dE             d eps       ncg     rms          ort
SDA:   1    -0.423854960149E+03   -0.13226E-03    0.00000E+00  6336   0.172E-02 0.000E+00
CGA:   2    -0.423854941678E+03    0.18470E-04   -0.17703E-04  6336   0.373E-03 0.769E-03
CGA:   3    -0.423854930133E+03    0.11545E-04   -0.34670E-05  6336   0.150E-03 0.307E-03
CGA:   4    -0.423854926101E+03    0.40318E-05   -0.13467E-05  6336   0.106E-03 0.122E-03
   4 F= -.42385493E+03 E0= -.42384658E+03  d E =-.102734E-03  mag=    10.0000
       N       E                     dE             d eps       ncg     rms          ort
SDA:   1    -0.423854953535E+03   -0.23401E-04    0.00000E+00  6336   0.221E-03 0.000E+00
CGA:   2    -0.423855020569E+03   -0.67035E-04    0.25933E-05  6336   0.292E-03-0.384E-04
CGA:   3    -0.423855037307E+03   -0.16738E-04   -0.20595E-04  6336   0.364E-03-0.102E-03
CGA:   4    -0.423855068180E+03   -0.30872E-04    0.21287E-04  6336   0.254E-03 0.145E-03
CGA:   5    -0.423855104939E+03   -0.36759E-04    0.48254E-03  6336   0.151E-03-0.396E-05
CGA:   6    -0.423855100693E+03    0.42458E-05   -0.10548E-05  6336   0.109E-03 0.121E-03
   5 F= -.42385510E+03 E0= -.42384674E+03  d E =-.174592E-03  mag=    10.0000
