       N       E                     dE             d eps       ncg     rms          ort
DAV:   1     0.274269799750E+04    0.27427E+04   -0.14566E+05  7392   0.164E+03
DAV:   2    -0.112700012647E+03   -0.28554E+04   -0.26524E+04  7392   0.430E+02
DAV:   3    -0.452292954466E+03   -0.33959E+03   -0.33323E+03  7392   0.169E+02
DAV:   4    -0.467202721408E+03   -0.14910E+02   -0.14486E+02  7392   0.325E+01
DAV:   5    -0.468130009987E+03   -0.92729E+00   -0.91562E+00  7392   0.591E+00
SDA:   6    -0.247638697926E+03    0.22049E+03   -0.91562E+00  7392   0.589E+03 0.000E+00
CGA:   7    -0.335044425854E+03   -0.87406E+02   -0.72699E+02  7392   0.228E+03-0.107E+03
CGA:   8    -0.324710107670E+03    0.10334E+02   -0.13203E+02  7392   0.812E+03-0.887E+02
CGA:   9    -0.341612855028E+03   -0.16903E+02   -0.18184E+02  7392   0.160E+03-0.111E+03
CGA:  10    -0.343944636753E+03   -0.23318E+01   -0.74811E+01  7392   0.243E+03-0.123E+03
CGA:  11    -0.345449334258E+03   -0.15047E+01   -0.18257E+02  7392   0.177E+03-0.694E+02
CGA:  12    -0.356480558606E+03   -0.11031E+02   -0.57039E+01  7392   0.458E+02 0.602E+02
CGA:  13    -0.354833282154E+03    0.16473E+01   -0.19249E+01  7392   0.218E+03-0.116E+03
CGA:  14    -0.347362116692E+03    0.74712E+01   -0.12882E+02  7392   0.206E+03-0.932E+02
CGA:  15    -0.355985905037E+03   -0.86238E+01   -0.43626E+01  7392   0.155E+03-0.209E+03
CGA:  16    -0.348505005574E+03    0.74809E+01   -0.58058E+01  7392   0.499E+03-0.249E+03
CGA:  17    -0.334324051889E+03    0.14181E+02   -0.26738E+02  7392   0.866E+03-0.334E+03
CGA:  18    -0.341137850580E+03   -0.68138E+01   -0.51697E+02  7392   0.202E+03-0.189E+03
CGA:  19    -0.347161896943E+03   -0.60240E+01   -0.52849E+01  7392   0.234E+03-0.107E+03
CGA:  20    -0.353341480902E+03   -0.61796E+01   -0.74550E+01  7392   0.475E+03-0.567E+03
CGA:  21    -0.346989828945E+03    0.63517E+01   -0.26778E+02  7392   0.101E+03-0.284E+02
CGA:  22    -0.352154396640E+03   -0.51646E+01   -0.19011E+01  7392   0.427E+03 0.464E+03
CGA:  23    -0.338817237563E+03    0.13337E+02   -0.16694E+02  7392   0.132E+04-0.737E+03
CGA:  24    -0.342528162401E+03   -0.37109E+01   -0.71600E+02  7392   0.188E+03-0.959E+02
CGA:  25    -0.347802754270E+03   -0.52746E+01   -0.47279E+01  7392   0.178E+03-0.121E+03
CGA:  26    -0.360696792001E+03   -0.12894E+02   -0.41497E+01  7392   0.167E+02 0.548E+02
CGA:  27    -0.360837255009E+03   -0.14046E+00   -0.38505E+00  7392   0.888E+01-0.886E+01
CGA:  28    -0.361029904879E+03   -0.19265E+00   -0.29287E+00  7392   0.475E+01-0.126E+01
CGA:  29    -0.361315859782E+03   -0.28595E+00   -0.31583E+00  7392   0.615E+01 0.642E+00
CGA:  30    -0.361844529405E+03   -0.52867E+00   -0.56909E+00  7392   0.101E+01 0.154E+01
CGA:  31    -0.362073291105E+03   -0.22876E+00   -0.19673E+00  7392   0.483E+00 0.407E+00
CGA:  32    -0.362240263569E+03   -0.16697E+00   -0.13748E+00  7392   0.122E+00 0.239E+00
CGA:  33    -0.362342192830E+03   -0.10193E+00   -0.31767E-02  7392   0.568E-01-0.107E-01
CGA:  34    -0.362352726051E+03   -0.10533E-01   -0.10436E-01  7392   0.175E-01 0.517E-02
CGA:  35    -0.362361393543E+03   -0.86675E-02   -0.80661E-02  7392   0.125E-01 0.255E-02
CGA:  36    -0.362367136941E+03   -0.57434E-02   -0.65996E-02  7392   0.179E-01-0.320E-02
CGA:  37    -0.362370952435E+03   -0.38155E-02   -0.37314E-02  7392   0.119E-01 0.119E-02
CGA:  38    -0.362373998053E+03   -0.30456E-02   -0.30059E-02  7392   0.106E-01 0.169E-02
CGA:  39    -0.362380393851E+03   -0.63958E-02   -0.78503E-02  7392   0.226E-01-0.335E-02
CGA:  40    -0.362384442102E+03   -0.40483E-02   -0.42841E-02  7392   0.232E-01-0.544E-02
CGA:  41    -0.362388503104E+03   -0.40610E-02   -0.40407E-02  7392   0.216E-01-0.161E-02
CGA:  42    -0.362391927880E+03   -0.34248E-02   -0.35514E-02  7392   0.144E-01 0.246E-02
CGA:  43    -0.362394602066E+03   -0.26742E-02   -0.28381E-02  7392   0.973E-02 0.277E-02
CGA:  44    -0.362397081653E+03   -0.24796E-02   -0.24977E-02  7392   0.636E-02 0.973E-03
CGA:  45    -0.362398866276E+03   -0.17846E-02   -0.18167E-02  7392   0.509E-02-0.119E-02
CGA:  46    -0.362399913734E+03   -0.10475E-02   -0.10604E-02  7392   0.457E-02-0.573E-03
CGA:  47    -0.362400586237E+03   -0.67250E-03   -0.70037E-03  7392   0.295E-02 0.455E-03
CGA:  48    -0.362401165285E+03   -0.57905E-03   -0.60554E-03  7392   0.225E-02 0.605E-03
CGA:  49    -0.362401838243E+03   -0.67296E-03   -0.67105E-03  7392   0.174E-02 0.102E-03
CGA:  50    -0.362402330356E+03   -0.49211E-03   -0.51591E-03  7392   0.168E-02-0.429E-03
CGA:  51    -0.362402584081E+03   -0.25373E-03   -0.25590E-03  7392   0.173E-02 0.813E-04
CGA:  52    -0.362402903050E+03   -0.31897E-03   -0.33830E-03  7392   0.147E-02 0.453E-03
CGA:  53    -0.362403341588E+03   -0.43854E-03   -0.43590E-03  7392   0.146E-02 0.404E-03
CGA:  54    -0.362403965713E+03   -0.62412E-03   -0.67639E-03  7392   0.176E-02-0.364E-03
CGA:  55    -0.362404320964E+03   -0.35525E-03   -0.37685E-03  7392   0.244E-02-0.447E-03
CGA:  56    -0.362404711895E+03   -0.39093E-03   -0.39236E-03  7392   0.288E-02 0.471E-04
CGA:  57    -0.362405316107E+03   -0.60421E-03   -0.62011E-03  7392   0.314E-02 0.745E-03
SDA:  58    -0.362406323073E+03   -0.10070E-02   -0.98862E-03  7392   0.411E-02 0.138E-02
CGA:  59    -0.362408038889E+03   -0.17158E-02   -0.31868E-02  7392   0.103E-01-0.274E-02
CGA:  60    -0.362409633223E+03   -0.15943E-02   -0.17822E-02  7392   0.135E-02 0.209E-02
CGA:  61    -0.362410146494E+03   -0.51327E-03   -0.48811E-03  7392   0.127E-02 0.604E-03
CGA:  62    -0.362410920114E+03   -0.77362E-03   -0.23399E-03  7392   0.164E-01-0.157E-02
CGA:  63    -0.362415376826E+03   -0.44567E-02   -0.46868E-02  7392   0.293E-02 0.115E-02
CGA:  64    -0.362416994657E+03   -0.16178E-02   -0.17170E-02  7392   0.410E-02-0.112E-02
CGA:  65    -0.362418686999E+03   -0.16923E-02   -0.15896E-02  7392   0.753E-02 0.375E-03
CGA:  66    -0.362423679504E+03   -0.49925E-02   -0.49683E-02  7392   0.200E-01 0.126E-02
CGA:  67    -0.362433110792E+03   -0.94313E-02   -0.95876E-02  7392   0.321E-01 0.219E-02
CGA:  68    -0.362439139189E+03   -0.60284E-02   -0.74920E-02  7392   0.392E-01 0.751E-02
CGA:  69    -0.362441174632E+03   -0.20354E-02   -0.75030E-02  7392   0.510E-01-0.131E-02
CGA:  70    -0.362429649083E+03    0.11526E-01   -0.49752E-02  7392   0.120E+00 0.253E-01
CGA:  71    -0.362357199251E+03    0.72450E-01   -0.12256E-01  7392   0.395E+00 0.622E-01
CGA:  72    -0.362408936175E+03   -0.51737E-01   -0.94842E-01  7392   0.172E+00 0.945E-01
CGA:  73    -0.362426259418E+03   -0.17323E-01   -0.44009E-01  7392   0.112E+00 0.790E-01
CGA:  74    -0.362433789794E+03   -0.75304E-02   -0.29530E-01  7392   0.806E-01 0.632E-01
CGA:  75    -0.362449439263E+03   -0.15649E-01   -0.20855E-01  7392   0.422E-01 0.237E-01
CGA:  76    -0.362458822807E+03   -0.93835E-02   -0.13495E-01  7392   0.164E-01 0.141E-01
CGA:  77    -0.362464181680E+03   -0.53589E-02   -0.62739E-02  7392   0.323E-02 0.284E-02
CGA:  78    -0.362466694141E+03   -0.25125E-02   -0.22714E-02  7392   0.176E-02 0.739E-03
CGA:  79    -0.362468326032E+03   -0.16319E-02   -0.16148E-02  7392   0.163E-02-0.584E-04
CGA:  80    -0.362468973587E+03   -0.64755E-03   -0.66343E-03  7392   0.164E-02-0.557E-03
CGA:  81    -0.362469285850E+03   -0.31226E-03   -0.28831E-03  7392   0.189E-02-0.831E-05
CGA:  82    -0.362469866372E+03   -0.58052E-03   -0.58165E-03  7392   0.268E-02 0.200E-03
CGA:  83    -0.362470962614E+03   -0.10962E-02   -0.10867E-02  7392   0.468E-02-0.751E-04
CGA:  84    -0.362472072673E+03   -0.11101E-02   -0.98077E-03  7392   0.647E-02-0.133E-03
CGA:  85    -0.362473299909E+03   -0.12272E-02   -0.10638E-02  7392   0.886E-02-0.167E-04
CGA:  86    -0.362474638756E+03   -0.13388E-02   -0.11359E-02  7392   0.110E-01 0.128E-02
CGA:  87    -0.362475980336E+03   -0.13416E-02   -0.13628E-02  7392   0.121E-01 0.798E-03
CGA:  88    -0.362477005871E+03   -0.10255E-02   -0.11488E-02  7392   0.124E-01 0.842E-03
CGA:  89    -0.362478000476E+03   -0.99460E-03   -0.10781E-02  7392   0.125E-01 0.122E-02
CGA:  90    -0.362478955516E+03   -0.95504E-03   -0.10301E-02  7392   0.123E-01 0.952E-03
CGA:  91    -0.362479821521E+03   -0.86601E-03   -0.93494E-03  7392   0.118E-01 0.299E-03
CGA:  92    -0.362480527737E+03   -0.70622E-03   -0.80401E-03  7392   0.111E-01-0.109E-02
CGA:  93    -0.362481090274E+03   -0.56254E-03   -0.61694E-03  7392   0.104E-01-0.899E-03
CGA:  94    -0.362481732118E+03   -0.64184E-03   -0.59633E-03  7392   0.958E-02-0.253E-03
CGA:  95    -0.362482407124E+03   -0.67501E-03   -0.59993E-03  7392   0.882E-02-0.449E-03
CGA:  96    -0.362482965524E+03   -0.55840E-03   -0.51784E-03  7392   0.821E-02-0.388E-03
CGA:  97    -0.362483463509E+03   -0.49798E-03   -0.47611E-03  7392   0.767E-02-0.319E-03
CGA:  98    -0.362483920836E+03   -0.45733E-03   -0.44714E-03  7392   0.725E-02-0.389E-03
CGA:  99    -0.362484355662E+03   -0.43483E-03   -0.41825E-03  7392   0.694E-02-0.365E-03
CGA: 100    -0.362484798580E+03   -0.44292E-03   -0.40568E-03  7392   0.669E-02-0.300E-03
CGA: 101    -0.362485264361E+03   -0.46578E-03   -0.39327E-03  7392   0.644E-02-0.170E-03
CGA: 102    -0.362485726221E+03   -0.46186E-03   -0.38055E-03  7392   0.620E-02-0.223E-03
CGA: 103    -0.362486144333E+03   -0.41811E-03   -0.35197E-03  7392   0.603E-02-0.180E-03
CGA: 104    -0.362486534209E+03   -0.38988E-03   -0.34160E-03  7392   0.597E-02-0.830E-04
SDA: 105    -0.362486894837E+03   -0.36063E-03   -0.34403E-03  7392   0.600E-02-0.735E-04
CGA: 106    -0.362492983935E+03   -0.60891E-02   -0.13156E-03  7392   0.888E-02-0.636E-03
CGA: 107    -0.362495757291E+03   -0.27734E-02   -0.28447E-02  7392   0.503E-02-0.177E-02
CGA: 108    -0.362497286506E+03   -0.15292E-02   -0.14891E-02  7392   0.294E-02 0.869E-03
CGA: 109    -0.362498969365E+03   -0.16829E-02   -0.15657E-02  7392   0.322E-02 0.901E-03
CGA: 110    -0.362500522968E+03   -0.15536E-02   -0.36371E-02  7392   0.116E-01-0.478E-02
CGA: 111    -0.362502895881E+03   -0.23729E-02   -0.26291E-02  7392   0.222E-02 0.143E-02
CGA: 112    -0.362503883840E+03   -0.98796E-03   -0.10062E-02  7392   0.717E-03-0.352E-03
CGA: 113    -0.362504234592E+03   -0.35075E-03   -0.44075E-03  7392   0.856E-03-0.250E-03
CGA: 114    -0.362504376076E+03   -0.14148E-03   -0.15262E-03  7392   0.537E-03 0.217E-03
CGA: 115    -0.362504575239E+03   -0.19916E-03   -0.20967E-03  7392   0.347E-03 0.165E-03
CGA: 116    -0.362504640063E+03   -0.64824E-04   -0.49293E-03  7392   0.201E-02-0.622E-03
CGA: 117    -0.362504972110E+03   -0.33205E-03   -0.43409E-03  7392   0.370E-03 0.537E-03
CGA: 118    -0.362505155161E+03   -0.18305E-03   -0.18301E-03  7392   0.123E-03-0.457E-04
CGA: 119    -0.362505258740E+03   -0.10358E-03    0.92294E-04  7392   0.842E-04 0.782E-05
CGA: 120    -0.362505264766E+03   -0.60250E-05   -0.17400E-04  7392   0.562E-04 0.581E-04
   1 F= -.36250526E+03 E0= -.36250526E+03  d E =-.362505E+03  mag=    16.0000
       N       E                     dE             d eps       ncg     rms          ort
SDA:   1    -0.362505525819E+03   -0.26708E-03    0.00000E+00  7392   0.181E-02 0.000E+00
CGA:   2    -0.362506092626E+03   -0.56681E-03   -0.57102E-03  7392   0.585E-03 0.783E-04
CGA:   3    -0.362506235451E+03   -0.14282E-03   -0.14071E-03  7392   0.265E-03-0.157E-04
CGA:   4    -0.362506277633E+03   -0.42183E-04   -0.41511E-04  7392   0.863E-04-0.346E-05
CGA:   5    -0.362506302357E+03   -0.24724E-04   -0.24391E-04  7392   0.637E-04-0.525E-05
CGA:   6    -0.362506322698E+03   -0.20340E-04   -0.20333E-04  7392   0.762E-04-0.106E-05
CGA:   7    -0.362506343061E+03   -0.20364E-04   -0.21782E-04  7392   0.543E-04 0.255E-04
CGA:   8    -0.362506360898E+03   -0.17837E-04   -0.19959E-04  7392   0.416E-04 0.310E-04
CGA:   9    -0.362506375656E+03   -0.14758E-04   -0.14989E-04  7392   0.499E-04-0.112E-04
CGA:  10    -0.362506385027E+03   -0.93711E-05   -0.10239E-04  7392   0.328E-04 0.145E-04
   2 F= -.36250639E+03 E0= -.36250639E+03  d E =-.112026E-02  mag=    16.0000
       N       E                     dE             d eps       ncg     rms          ort
SDA:   1    -0.362499831376E+03    0.65443E-02    0.00000E+00  7392   0.204E-01 0.000E+00
CGA:   2    -0.362506391937E+03   -0.65606E-02   -0.65628E-02  7392   0.675E-02 0.255E-03
CGA:   3    -0.362507829067E+03   -0.14371E-02   -0.14296E-02  7392   0.274E-02-0.636E-04
CGA:   4    -0.362508233301E+03   -0.40423E-03   -0.39639E-03  7392   0.645E-03-0.450E-04
CGA:   5    -0.362508373628E+03   -0.14033E-03   -0.13642E-03  7392   0.226E-03-0.393E-04
CGA:   6    -0.362508421581E+03   -0.47953E-04   -0.46450E-04  7392   0.999E-04-0.165E-04
CGA:   7    -0.362508442069E+03   -0.20488E-04   -0.21296E-04  7392   0.378E-04 0.107E-04
CGA:   8    -0.362508450060E+03   -0.79908E-05   -0.90023E-05  7392   0.172E-04 0.117E-04
   3 F= -.36250845E+03 E0= -.36250845E+03  d E =-.206503E-02  mag=    16.0000
       N       E                     dE             d eps       ncg     rms          ort
SDA:   1    -0.362496877782E+03    0.11564E-01    0.00000E+00  7392   0.292E-01 0.000E+00
CGA:   2    -0.362505847092E+03   -0.89693E-02   -0.89651E-02  7392   0.116E-01 0.464E-03
CGA:   3    -0.362507909360E+03   -0.20623E-02   -0.20546E-02  7392   0.404E-02-0.632E-04
CGA:   4    -0.362508607104E+03   -0.69774E-03   -0.68494E-03  7392   0.869E-03-0.106E-03
CGA:   5    -0.362508800662E+03   -0.19356E-03   -0.18798E-03  7392   0.321E-03-0.878E-04
CGA:   6    -0.362508866481E+03   -0.65819E-04   -0.63728E-04  7392   0.125E-03-0.338E-04
CGA:   7    -0.362508889931E+03   -0.23450E-04   -0.24334E-04  7392   0.414E-04 0.144E-04
CGA:   8    -0.362508898481E+03   -0.85497E-05   -0.95160E-05  7392   0.177E-04 0.137E-04
   4 F= -.36250890E+03 E0= -.36250890E+03  d E =-.448421E-03  mag=    16.0000
       N       E                     dE             d eps       ncg     rms          ort
SDA:   1    -0.362501974695E+03    0.69152E-02    0.00000E+00  7392   0.175E-01 0.000E+00
CGA:   2    -0.362506941689E+03   -0.49670E-02   -0.49633E-02  7392   0.817E-02 0.396E-03
CGA:   3    -0.362508283735E+03   -0.13420E-02   -0.13409E-02  7392   0.227E-02-0.109E-04
CGA:   4    -0.362508701616E+03   -0.41788E-03   -0.40926E-03  7392   0.515E-03-0.966E-04
CGA:   5    -0.362508809380E+03   -0.10776E-03   -0.10310E-03  7392   0.200E-03-0.833E-04
CGA:   6    -0.362508846530E+03   -0.37150E-04   -0.35462E-04  7392   0.769E-04-0.332E-04
CGA:   7    -0.362508857661E+03   -0.11131E-04   -0.11770E-04  7392   0.241E-04 0.833E-05
CGA:   8    -0.362508861463E+03   -0.38025E-05   -0.46393E-05  7392   0.109E-04 0.101E-04
   5 F= -.36250886E+03 E0= -.36250886E+03  d E =0.370176E-04  mag=    16.0000
       N       E                     dE             d eps       ncg     rms          ort
SDA:   1    -0.362388455268E+03    0.12040E+00    0.00000E+00  7392   0.300E+00 0.000E+00
CGA:   2    -0.362476474313E+03   -0.88019E-01   -0.87953E-01  7392   0.140E+00 0.148E-02
CGA:   3    -0.362498860251E+03   -0.22386E-01   -0.22379E-01  7392   0.382E-01-0.883E-04
CGA:   4    -0.362505283193E+03   -0.64229E-02   -0.63963E-02  7392   0.804E-02-0.341E-03
CGA:   5    -0.362506746962E+03   -0.14638E-02   -0.14510E-02  7392   0.226E-02-0.208E-03
CGA:   6    -0.362507198347E+03   -0.45139E-03   -0.44838E-03  7392   0.682E-03-0.820E-04
CGA:   7    -0.362507341500E+03   -0.14315E-03   -0.14324E-03  7392   0.235E-03 0.401E-05
CGA:   8    -0.362507404614E+03   -0.63114E-04   -0.62935E-04  7392   0.102E-03 0.627E-05
CGA:   9    -0.362507438612E+03   -0.33999E-04   -0.35053E-04  7392   0.554E-04-0.111E-04
CGA:  10    -0.362507454510E+03   -0.15898E-04   -0.16839E-04  7392   0.265E-04-0.976E-05
CGA:  11    -0.362507461467E+03   -0.69573E-05   -0.10418E-04  7392   0.269E-04-0.152E-04
   6 F= -.36250746E+03 E0= -.36250746E+03  d E =0.140000E-02  mag=    16.0000
       N       E                     dE             d eps       ncg     rms          ort
SDA:   1    -0.362374835585E+03    0.13262E+00    0.00000E+00  7392   0.315E+00 0.000E+00
CGA:   2    -0.362474482968E+03   -0.99647E-01   -0.99556E-01  7392   0.110E+00 0.154E-02
CGA:   3    -0.362496738922E+03   -0.22256E-01   -0.22223E-01  7392   0.315E-01-0.564E-03
CGA:   4    -0.362501309106E+03   -0.45702E-02   -0.45347E-02  7392   0.668E-02-0.318E-03
CGA:   5    -0.362502653216E+03   -0.13441E-02   -0.13417E-02  7392   0.198E-02-0.494E-04
CGA:   6    -0.362503028148E+03   -0.37493E-03   -0.37578E-03  7392   0.642E-03 0.141E-04
CGA:   7    -0.362503185188E+03   -0.15704E-03   -0.15708E-03  7392   0.254E-03 0.996E-05
CGA:   8    -0.362503253118E+03   -0.67930E-04   -0.67677E-04  7392   0.113E-03 0.158E-04
CGA:   9    -0.362503287303E+03   -0.34185E-04   -0.33882E-04  7392   0.429E-04 0.898E-05
CGA:  10    -0.362503302393E+03   -0.15090E-04   -0.15305E-04  7392   0.203E-04-0.266E-05
CGA:  11    -0.362503309055E+03   -0.66614E-05   -0.74961E-05  7392   0.136E-04-0.593E-05
   7 F= -.36250331E+03 E0= -.36250331E+03  d E =0.415241E-02  mag=    16.0000
       N       E                     dE             d eps       ncg     rms          ort
SDA:   1    -0.362489059838E+03    0.14243E-01    0.00000E+00  7392   0.384E-01 0.000E+00
CGA:   2    -0.362500109301E+03   -0.11049E-01   -0.11045E-01  7392   0.178E-01 0.178E-03
CGA:   3    -0.362503161927E+03   -0.30526E-02   -0.30495E-02  7392   0.562E-02-0.358E-04
CGA:   4    -0.362504115547E+03   -0.95362E-03   -0.94809E-03  7392   0.129E-02-0.624E-04
CGA:   5    -0.362504356952E+03   -0.24140E-03   -0.24099E-03  7392   0.398E-03-0.649E-05
CGA:   6    -0.362504433275E+03   -0.76323E-04   -0.76925E-04  7392   0.126E-03 0.104E-04
CGA:   7    -0.362504465866E+03   -0.32591E-04   -0.32592E-04  7392   0.560E-04-0.123E-06
CGA:   8    -0.362504481421E+03   -0.15555E-04   -0.15730E-04  7392   0.263E-04-0.548E-05
CGA:   9    -0.362504488080E+03   -0.66587E-05   -0.66983E-05  7392   0.973E-05-0.125E-05
   8 F= -.36250449E+03 E0= -.36250449E+03  d E =-.117903E-02  mag=    16.0000
       N       E                     dE             d eps       ncg     rms          ort
SDA:   1    -0.362492121370E+03    0.12360E-01    0.00000E+00  7392   0.291E-01 0.000E+00
CGA:   2    -0.362500592495E+03   -0.84711E-02   -0.84585E-02  7392   0.128E-01 0.340E-03
CGA:   3    -0.362502888086E+03   -0.22956E-02   -0.22864E-02  7392   0.386E-02-0.118E-03
CGA:   4    -0.362503497122E+03   -0.60904E-03   -0.59833E-03  7392   0.772E-03-0.113E-03
CGA:   5    -0.362503633183E+03   -0.13606E-03   -0.13602E-03  7392   0.230E-03-0.786E-06
CGA:   6    -0.362503673032E+03   -0.39848E-04   -0.41132E-04  7392   0.587E-04 0.198E-04
CGA:   7    -0.362503687902E+03   -0.14870E-04   -0.14908E-04  7392   0.245E-04 0.533E-05
CGA:   8    -0.362503695383E+03   -0.74813E-05   -0.74474E-05  7392   0.127E-04 0.878E-06
   9 F= -.36250370E+03 E0= -.36250370E+03  d E =0.792696E-03  mag=    16.0000
       N       E                     dE             d eps       ncg     rms          ort
SDA:   1    -0.362379171235E+03    0.12452E+00    0.00000E+00  7392   0.304E+00 0.000E+00
CGA:   2    -0.362467987902E+03   -0.88817E-01   -0.88720E-01  7392   0.134E+00 0.186E-02
CGA:   3    -0.362491912671E+03   -0.23925E-01   -0.23887E-01  7392   0.389E-01-0.565E-03
CGA:   4    -0.362497787051E+03   -0.58744E-02   -0.58301E-02  7392   0.700E-02-0.494E-03
CGA:   5    -0.362499143109E+03   -0.13561E-02   -0.13503E-02  7392   0.218E-02-0.138E-03
CGA:   6    -0.362499545846E+03   -0.40274E-03   -0.40310E-03  7392   0.602E-03 0.728E-05
CGA:   7    -0.362499679715E+03   -0.13387E-03   -0.13420E-03  7392   0.224E-03 0.317E-04
CGA:   8    -0.362499743926E+03   -0.64212E-04   -0.63786E-04  7392   0.108E-03 0.111E-04
CGA:   9    -0.362499781724E+03   -0.37797E-04   -0.38492E-04  7392   0.598E-04-0.658E-05
CGA:  10    -0.362499800053E+03   -0.18329E-04   -0.19683E-04  7392   0.307E-04-0.122E-04
CGA:  11    -0.362499804560E+03   -0.45072E-05   -0.14359E-04  7392   0.539E-04-0.287E-04
  10 F= -.36249980E+03 E0= -.36249980E+03  d E =0.389082E-02  mag=    16.0000
       N       E                     dE             d eps       ncg     rms          ort
SDA:   1    -0.361697144696E+03    0.80266E+00    0.00000E+00  7392   0.195E+01 0.000E+00
CGA:   2    -0.362301524263E+03   -0.60438E+00   -0.60414E+00  7392   0.705E+00 0.403E-02
CGA:   3    -0.362446807945E+03   -0.14528E+00   -0.14517E+00  7392   0.177E+00-0.210E-02
CGA:   4    -0.362472000425E+03   -0.25192E-01   -0.25137E-01  7392   0.390E-01-0.494E-03
CGA:   5    -0.362479915739E+03   -0.79153E-02   -0.79150E-02  7392   0.107E-01-0.115E-04
CGA:   6    -0.362481970885E+03   -0.20551E-02   -0.20588E-02  7392   0.355E-02 0.611E-04
CGA:   7    -0.362482834758E+03   -0.86387E-03   -0.86408E-03  7392   0.139E-02 0.489E-04
CGA:   8    -0.362483229215E+03   -0.39446E-03   -0.39370E-03  7392   0.693E-03 0.233E-04
CGA:   9    -0.362483436261E+03   -0.20705E-03   -0.20608E-03  7392   0.271E-03 0.216E-04
CGA:  10    -0.362483522482E+03   -0.86222E-04   -0.86930E-04  7392   0.105E-03-0.116E-04
CGA:  11    -0.362483557420E+03   -0.34937E-04   -0.42271E-04  7392   0.779E-04-0.436E-04
CGA:  12    -0.362483569885E+03   -0.12465E-04   -0.12484E-04  7392   0.350E-04-0.146E-05
CGA:  13    -0.362483577680E+03   -0.77952E-05   -0.79645E-05  7392   0.156E-04 0.558E-05
  11 F= -.36248358E+03 E0= -.36248358E+03  d E =0.162269E-01  mag=    16.0000
       N       E                     dE             d eps       ncg     rms          ort
SDA:   1    -0.362400090838E+03    0.83479E-01    0.00000E+00  7392   0.225E+00 0.000E+00
CGA:   2    -0.362469257763E+03   -0.69167E-01   -0.69201E-01  7392   0.900E-01-0.877E-03
CGA:   3    -0.362486180290E+03   -0.16923E-01   -0.16963E-01  7392   0.295E-01 0.505E-03
CGA:   4    -0.362490676214E+03   -0.44959E-02   -0.45235E-02  7392   0.636E-02 0.241E-03
CGA:   5    -0.362492008469E+03   -0.13323E-02   -0.13316E-02  7392   0.213E-02-0.139E-04
CGA:   6    -0.362492432406E+03   -0.42394E-03   -0.42188E-03  7392   0.780E-03-0.369E-04
CGA:   7    -0.362492626870E+03   -0.19446E-03   -0.19447E-03  7392   0.316E-03-0.663E-05
CGA:   8    -0.362492703067E+03   -0.76197E-04   -0.76252E-04  7392   0.116E-03 0.619E-05
CGA:   9    -0.362492737913E+03   -0.34846E-04   -0.35040E-04  7392   0.443E-04-0.430E-05
CGA:  10    -0.362492749912E+03   -0.11999E-04   -0.12045E-04  7392   0.151E-04-0.166E-05
CGA:  11    -0.362492752887E+03   -0.29752E-05   -0.31230E-05  7392   0.442E-05 0.362E-05
  12 F= -.36249275E+03 E0= -.36249275E+03  d E =-.917521E-02  mag=    16.0000
       N       E                     dE             d eps       ncg     rms          ort
SDA:   1    -0.362489234324E+03    0.35156E-02    0.00000E+00  7392   0.107E-01 0.000E+00
CGA:   2    -0.362492404535E+03   -0.31702E-02   -0.31746E-02  7392   0.382E-02-0.959E-04
CGA:   3    -0.362493146033E+03   -0.74150E-03   -0.74572E-03  7392   0.119E-02 0.743E-04
CGA:   4    -0.362493319662E+03   -0.17363E-03   -0.17641E-03  7392   0.229E-03 0.261E-04
CGA:   5    -0.362493378772E+03   -0.59110E-04   -0.59717E-04  7392   0.123E-03-0.598E-04
CGA:   6    -0.362493399197E+03   -0.20425E-04   -0.19556E-04  7392   0.560E-04-0.293E-04
CGA:   7    -0.362493406001E+03   -0.68041E-05   -0.73300E-05  7392   0.179E-04 0.727E-05
  13 F= -.36249341E+03 E0= -.36249341E+03  d E =-.653113E-03  mag=    16.0000
       N       E                     dE             d eps       ncg     rms          ort
SDA:   1    -0.362480292302E+03    0.13107E-01    0.00000E+00  7392   0.335E-01 0.000E+00
CGA:   2    -0.362489254229E+03   -0.89619E-02   -0.89462E-02  7392   0.153E-01 0.496E-03
CGA:   3    -0.362491809311E+03   -0.25551E-02   -0.25462E-02  7392   0.484E-02-0.122E-03
CGA:   4    -0.362492655559E+03   -0.84625E-03   -0.83693E-03  7392   0.107E-02-0.158E-03
CGA:   5    -0.362492850346E+03   -0.19479E-03   -0.18973E-03  7392   0.335E-03-0.107E-03
CGA:   6    -0.362492918832E+03   -0.68486E-04   -0.68389E-04  7392   0.138E-03-0.603E-04
CGA:   7    -0.362492940013E+03   -0.21181E-04   -0.21399E-04  7392   0.386E-04 0.552E-05
CGA:   8    -0.362492947110E+03   -0.70966E-05   -0.75099E-05  7392   0.133E-04 0.105E-04
  14 F= -.36249295E+03 E0= -.36249295E+03  d E =0.458891E-03  mag=    16.0000
       N       E                     dE             d eps       ncg     rms          ort
SDA:   1    -0.362394175694E+03    0.98764E-01    0.00000E+00  7392   0.246E+00 0.000E+00
CGA:   2    -0.362463646755E+03   -0.69471E-01   -0.69418E-01  7392   0.127E+00 0.916E-03
CGA:   3    -0.362484111230E+03   -0.20464E-01   -0.20423E-01  7392   0.334E-01-0.588E-03
CGA:   4    -0.362489556406E+03   -0.54452E-02   -0.54233E-02  7392   0.637E-02-0.346E-03
CGA:   5    -0.362490712631E+03   -0.11562E-02   -0.11535E-02  7392   0.182E-02-0.666E-04
CGA:   6    -0.362491069915E+03   -0.35728E-03   -0.35740E-03  7392   0.507E-03 0.450E-05
CGA:   7    -0.362491178102E+03   -0.10819E-03   -0.10836E-03  7392   0.168E-03 0.226E-04
CGA:   8    -0.362491225721E+03   -0.47619E-04   -0.47375E-04  7392   0.778E-04 0.497E-05
CGA:   9    -0.362491251553E+03   -0.25832E-04   -0.26573E-04  7392   0.413E-04-0.682E-05
CGA:  10    -0.362491262948E+03   -0.11394E-04   -0.11711E-04  7392   0.164E-04-0.387E-05
CGA:  11    -0.362491258433E+03    0.45149E-05   -0.12245E-04  7392   0.716E-04-0.284E-04
CGA:  12    -0.362491270714E+03   -0.12282E-04   -0.13023E-04  7392   0.788E-05 0.920E-05
CGA:  13    -0.362491272930E+03   -0.22158E-05   -0.22300E-05  7392   0.231E-05 0.190E-05
  15 F= -.36249127E+03 E0= -.36249127E+03  d E =0.167418E-02  mag=    16.0000
       N       E                     dE             d eps       ncg     rms          ort
SDA:   1    -0.362231418111E+03    0.25985E+00    0.00000E+00  7392   0.624E+00 0.000E+00
CGA:   2    -0.362422974570E+03   -0.19156E+00   -0.19153E+00  7392   0.331E+00 0.396E-03
CGA:   3    -0.362473112225E+03   -0.50138E-01   -0.50053E-01  7392   0.749E-01-0.726E-03
CGA:   4    -0.362485394266E+03   -0.12282E-01   -0.12262E-01  7392   0.157E-01-0.228E-03
CGA:   5    -0.362488219622E+03   -0.28254E-02   -0.28307E-02  7392   0.453E-02 0.718E-04
CGA:   6    -0.362489097112E+03   -0.87749E-03   -0.88116E-03  7392   0.122E-02 0.668E-04
CGA:   7    -0.362489367623E+03   -0.27051E-03   -0.27101E-03  7392   0.427E-03 0.188E-04
CGA:   8    -0.362489481116E+03   -0.11349E-03   -0.11321E-03  7392   0.179E-03 0.158E-04
CGA:   9    -0.362489531927E+03   -0.50810E-04   -0.50311E-04  7392   0.684E-04 0.186E-04
CGA:  10    -0.362489554084E+03   -0.22157E-04   -0.21891E-04  7392   0.251E-04 0.601E-05
CGA:  11    -0.362489563702E+03   -0.96181E-05   -0.10582E-04  7392   0.156E-04-0.696E-05
  16 F= -.36248956E+03 E0= -.36248956E+03  d E =0.170923E-02  mag=    16.0000
       N       E                     dE             d eps       ncg     rms          ort
SDA:   1    -0.362381559536E+03    0.10799E+00    0.00000E+00  7392   0.265E+00 0.000E+00
CGA:   2    -0.362459765475E+03   -0.78206E-01   -0.78193E-01  7392   0.155E+00 0.278E-03
CGA:   3    -0.362483216427E+03   -0.23451E-01   -0.23443E-01  7392   0.329E-01-0.908E-04
CGA:   4    -0.362488706287E+03   -0.54899E-02   -0.54817E-02  7392   0.758E-02-0.950E-04
CGA:   5    -0.362490089894E+03   -0.13836E-02   -0.13775E-02  7392   0.221E-02-0.902E-04
CGA:   6    -0.362490521068E+03   -0.43117E-03   -0.42882E-03  7392   0.654E-03-0.464E-04
CGA:   7    -0.362490658678E+03   -0.13761E-03   -0.13795E-03  7392   0.217E-03 0.113E-04
CGA:   8    -0.362490709446E+03   -0.50769E-04   -0.51082E-04  7392   0.767E-04 0.261E-04
CGA:   9    -0.362490735403E+03   -0.25957E-04   -0.25843E-04  7392   0.355E-04 0.196E-05
CGA:  10    -0.362490747801E+03   -0.12398E-04   -0.14342E-04  7392   0.260E-04-0.131E-04
CGA:  11    -0.362490750849E+03   -0.30480E-05   -0.31275E-05  7392   0.982E-05 0.126E-05
  17 F= -.36249075E+03 E0= -.36249075E+03  d E =-.118715E-02  mag=    16.0000
       N       E                     dE             d eps       ncg     rms          ort
SDA:   1    -0.362482735455E+03    0.80123E-02    0.00000E+00  7392   0.213E-01 0.000E+00
CGA:   2    -0.362489222835E+03   -0.64874E-02   -0.64772E-02  7392   0.859E-02 0.170E-03
CGA:   3    -0.362490742522E+03   -0.15197E-02   -0.15337E-02  7392   0.284E-02 0.196E-03
CGA:   4    -0.362491219904E+03   -0.47738E-03   -0.47734E-03  7392   0.639E-03-0.117E-05
CGA:   5    -0.362491366565E+03   -0.14666E-03   -0.14530E-03  7392   0.299E-03-0.105E-03
CGA:   6    -0.362491421864E+03   -0.55299E-04   -0.53934E-04  7392   0.125E-03-0.575E-04
CGA:   7    -0.362491442430E+03   -0.20565E-04   -0.20718E-04  7392   0.393E-04 0.461E-05
CGA:   8    -0.362491448840E+03   -0.64101E-05   -0.70978E-05  7392   0.131E-04 0.109E-04
  18 F= -.36249145E+03 E0= -.36249145E+03  d E =-.697991E-03  mag=    16.0000
       N       E                     dE             d eps       ncg     rms          ort
SDA:   1    -0.362470173617E+03    0.21269E-01    0.00000E+00  7392   0.515E-01 0.000E+00
CGA:   2    -0.362485569067E+03   -0.15395E-01   -0.15381E-01  7392   0.290E-01 0.207E-03
CGA:   3    -0.362489977299E+03   -0.44082E-02   -0.43946E-02  7392   0.634E-02-0.159E-03
CGA:   4    -0.362491018214E+03   -0.10409E-02   -0.10350E-02  7392   0.139E-02-0.868E-04
CGA:   5    -0.362491262702E+03   -0.24449E-03   -0.24337E-03  7392   0.397E-03-0.221E-04
CGA:   6    -0.362491337841E+03   -0.75139E-04   -0.75121E-04  7392   0.106E-03-0.617E-06
CGA:   7    -0.362491358926E+03   -0.21086E-04   -0.21231E-04  7392   0.315E-04 0.615E-05
CGA:   8    -0.362491366975E+03   -0.80489E-05   -0.79805E-05  7392   0.121E-04 0.427E-05
  19 F= -.36249137E+03 E0= -.36249137E+03  d E =0.818647E-04  mag=    16.0000
       N       E                     dE             d eps       ncg     rms          ort
SDA:   1    -0.360255923031E+03    0.22354E+01    0.00000E+00  7392   0.577E+01 0.000E+00
CGA:   2    -0.361717171261E+03   -0.14612E+01   -0.14608E+01  7392   0.368E+01 0.125E-01
CGA:   3    -0.362315686680E+03   -0.59852E+00   -0.59842E+00  7392   0.799E+00-0.122E-02
CGA:   4    -0.362444153081E+03   -0.12847E+00   -0.12839E+00  7392   0.179E+00-0.993E-03
CGA:   5    -0.362476005583E+03   -0.31853E-01   -0.31879E-01  7392   0.500E-01 0.508E-03
CGA:   6    -0.362485702568E+03   -0.96970E-02   -0.97073E-02  7392   0.140E-01 0.350E-03
CGA:   7    -0.362488692198E+03   -0.29896E-02   -0.29900E-02  7392   0.444E-02 0.524E-04
CGA:   8    -0.362489791318E+03   -0.10991E-02   -0.10948E-02  7392   0.168E-02 0.163E-03
CGA:   9    -0.362490272115E+03   -0.48080E-03   -0.47520E-03  7392   0.643E-03 0.109E-03
CGA:  10    -0.362490479919E+03   -0.20780E-03   -0.20722E-03  7392   0.255E-03 0.735E-05
CGA:  11    -0.362490548207E+03   -0.68287E-04   -0.67440E-04  7392   0.745E-04 0.248E-04
CGA:  12    -0.362490575078E+03   -0.26871E-04   -0.27681E-04  7392   0.350E-04-0.743E-05
CGA:  13    -0.362490585477E+03   -0.10399E-04   -0.10078E-04  7392   0.172E-04 0.373E-05
CGA:  14    -0.362490591918E+03   -0.64407E-05   -0.60288E-05  7392   0.956E-05 0.520E-05
CGA:  15    -0.362490596804E+03   -0.48867E-05   -0.10558E-04  7392   0.295E-04-0.946E-05
  20 F= -.36249060E+03 E0= -.36249060E+03  d E =0.770171E-03  mag=    16.0000
       N       E                     dE             d eps       ncg     rms          ort
SDA:   1    -0.357230890316E+03    0.52597E+01    0.00000E+00  7392   0.136E+02 0.000E+00
CGA:   2    -0.360689344748E+03   -0.34585E+01   -0.34596E+01  7392   0.842E+01 0.342E-01
CGA:   3    -0.362065796377E+03   -0.13765E+01   -0.13763E+01  7392   0.188E+01 0.925E-02
CGA:   4    -0.362368257909E+03   -0.30246E+00   -0.30224E+00  7392   0.422E+00-0.518E-03
CGA:   5    -0.362443170488E+03   -0.74913E-01   -0.74960E-01  7392   0.119E+00 0.233E-03
CGA:   6    -0.362466449531E+03   -0.23279E-01   -0.23286E-01  7392   0.340E-01 0.404E-04
CGA:   7    -0.362473737100E+03   -0.72876E-02   -0.72872E-02  7392   0.112E-01-0.166E-04
CGA:   8    -0.362476519205E+03   -0.27821E-02   -0.27835E-02  7392   0.432E-02 0.375E-03
CGA:   9    -0.362477768660E+03   -0.12495E-02   -0.12437E-02  7392   0.171E-02 0.211E-03
CGA:  10    -0.362478319730E+03   -0.55107E-03   -0.55236E-03  7392   0.697E-03-0.240E-04
CGA:  11    -0.362478497961E+03   -0.17823E-03   -0.17798E-03  7392   0.207E-03 0.686E-04
CGA:  12    -0.362478565212E+03   -0.67252E-04   -0.66691E-04  7392   0.822E-04 0.147E-04
CGA:  13    -0.362478594158E+03   -0.28946E-04   -0.27955E-04  7392   0.423E-04 0.165E-04
CGA:  14    -0.362478606537E+03   -0.12379E-04   -0.12652E-04  7392   0.230E-04 0.238E-04
CGA:  15    -0.362478615891E+03   -0.93534E-05   -0.85556E-05  7392   0.118E-04 0.711E-05
  21 F= -.36247862E+03 E0= -.36247862E+03  d E =0.119809E-01  mag=    16.0000
       N       E                     dE             d eps       ncg     rms          ort
SDA:   1    -0.357127383127E+03    0.53512E+01    0.00000E+00  7392   0.144E+02 0.000E+00
CGA:   2    -0.360508826367E+03   -0.33814E+01   -0.33846E+01  7392   0.895E+01 0.495E-01
CGA:   3    -0.362038636951E+03   -0.15298E+01   -0.15304E+01  7392   0.209E+01 0.972E-02
CGA:   4    -0.362373679622E+03   -0.33504E+00   -0.33459E+00  7392   0.469E+00-0.175E-02
CGA:   5    -0.362457180979E+03   -0.83501E-01   -0.83590E-01  7392   0.132E+00 0.686E-03
CGA:   6    -0.362482860797E+03   -0.25680E-01   -0.25724E-01  7392   0.376E-01 0.685E-03
CGA:   7    -0.362490879162E+03   -0.80184E-02   -0.80213E-02  7392   0.120E-01 0.734E-04
CGA:   8    -0.362493835689E+03   -0.29565E-02   -0.29565E-02  7392   0.454E-02 0.299E-03
CGA:   9    -0.362495122453E+03   -0.12868E-02   -0.12825E-02  7392   0.176E-02 0.142E-03
CGA:  10    -0.362495668157E+03   -0.54570E-03   -0.54630E-03  7392   0.692E-03-0.118E-04
CGA:  11    -0.362495827006E+03   -0.15885E-03   -0.16095E-03  7392   0.195E-03 0.127E-03
CGA:  12    -0.362495882840E+03   -0.55835E-04   -0.56122E-04  7392   0.720E-04 0.456E-04
CGA:  13    -0.362495913784E+03   -0.30944E-04   -0.30053E-04  7392   0.480E-04 0.100E-04
CGA:  14    -0.362495921779E+03   -0.79944E-05   -0.10244E-04  7392   0.323E-04 0.337E-04
  22 F= -.36249592E+03 E0= -.36249592E+03  d E =-.173059E-01  mag=    16.0000
       N       E                     dE             d eps       ncg     rms          ort
SDA:   1    -0.361150035352E+03    0.13459E+01    0.00000E+00  7392   0.341E+01 0.000E+00
CGA:   2    -0.361983745036E+03   -0.83371E+00   -0.83373E+00  7392   0.198E+01 0.313E-02
CGA:   3    -0.362318151569E+03   -0.33441E+00   -0.33438E+00  7392   0.543E+00-0.822E-03
CGA:   4    -0.362411363232E+03   -0.93212E-01   -0.93212E-01  7392   0.133E+00-0.102E-04
CGA:   5    -0.362434827790E+03   -0.23465E-01   -0.23557E-01  7392   0.374E-01 0.140E-02
CGA:   6    -0.362442328865E+03   -0.75011E-02   -0.75354E-02  7392   0.121E-01 0.899E-03
CGA:   7    -0.362445239399E+03   -0.29105E-02   -0.29105E-02  7392   0.485E-02 0.241E-04
CGA:   8    -0.362446490757E+03   -0.12514E-02   -0.12525E-02  7392   0.191E-02-0.518E-04
CGA:   9    -0.362446983337E+03   -0.49258E-03   -0.48976E-03  7392   0.647E-03 0.121E-03
CGA:  10    -0.362447157551E+03   -0.17421E-03   -0.17298E-03  7392   0.207E-03 0.876E-04
CGA:  11    -0.362447218965E+03   -0.61414E-04   -0.60593E-04  7392   0.727E-04 0.420E-04
CGA:  12    -0.362447249545E+03   -0.30580E-04   -0.30751E-04  7392   0.464E-04-0.155E-05
CGA:  13    -0.362447270783E+03   -0.21238E-04   -0.24821E-04  7392   0.559E-04-0.119E-04
CGA:  14    -0.362447278606E+03   -0.78225E-05   -0.87592E-05  7392   0.404E-04 0.191E-04
CGA:  15    -0.362447287982E+03   -0.93765E-05   -0.10734E-04  7392   0.225E-04 0.228E-04
CGA:  16    -0.362447299642E+03   -0.11660E-04    0.14333E-03  7392   0.113E-04 0.128E-04
CGA:  17    -0.362447300645E+03   -0.10030E-05   -0.18720E-05  7392   0.898E-05 0.974E-05
  23 F= -.36244730E+03 E0= -.36244730E+03  d E =0.486211E-01  mag=    16.0000
       N       E                     dE             d eps       ncg     rms          ort
SDA:   1    -0.360993988261E+03    0.14533E+01    0.00000E+00  7392   0.401E+01 0.000E+00
CGA:   2    -0.361942718914E+03   -0.94873E+00   -0.94934E+00  7392   0.242E+01 0.706E-02
CGA:   3    -0.362354398710E+03   -0.41168E+00   -0.41171E+00  7392   0.625E+00 0.792E-03
CGA:   4    -0.362458633141E+03   -0.10423E+00   -0.10413E+00  7392   0.148E+00-0.831E-03
CGA:   5    -0.362485038260E+03   -0.26405E-01   -0.26363E-01  7392   0.422E-01-0.530E-03
CGA:   6    -0.362493473595E+03   -0.84353E-02   -0.84117E-02  7392   0.132E-01-0.373E-03
CGA:   7    -0.362496387062E+03   -0.29135E-02   -0.29144E-02  7392   0.473E-02 0.177E-04
CGA:   8    -0.362497521199E+03   -0.11341E-02   -0.11390E-02  7392   0.169E-02 0.227E-03
CGA:   9    -0.362498022853E+03   -0.50165E-03   -0.50118E-03  7392   0.669E-03 0.204E-04
CGA:  10    -0.362498233265E+03   -0.21041E-03   -0.21474E-03  7392   0.289E-03-0.785E-04
CGA:  11    -0.362498293520E+03   -0.60255E-04   -0.60926E-04  7392   0.797E-04 0.256E-04
CGA:  12    -0.362498312621E+03   -0.19100E-04   -0.19706E-04  7392   0.276E-04 0.166E-04
CGA:  13    -0.362498319441E+03   -0.68201E-05   -0.73306E-05  7392   0.134E-04 0.122E-04
  24 F= -.36249832E+03 E0= -.36249832E+03  d E =-.510188E-01  mag=    16.0000
       N       E                     dE             d eps       ncg     rms          ort
SDA:   1    -0.362476704007E+03    0.21609E-01    0.00000E+00  7392   0.634E-01 0.000E+00
CGA:   2    -0.362489971123E+03   -0.13267E-01   -0.13267E-01  7392   0.373E-01-0.447E-04
CGA:   3    -0.362496699271E+03   -0.67281E-02   -0.67301E-02  7392   0.101E-01 0.913E-05
CGA:   4    -0.362498327011E+03   -0.16277E-02   -0.16317E-02  7392   0.225E-02 0.439E-04
CGA:   5    -0.362498710768E+03   -0.38376E-03   -0.38868E-03  7392   0.592E-03 0.667E-04
CGA:   6    -0.362498824775E+03   -0.11401E-03   -0.11564E-03  7392   0.166E-03 0.313E-04
CGA:   7    -0.362498864133E+03   -0.39358E-04   -0.39291E-04  7392   0.578E-04-0.470E-05
CGA:   8    -0.362498877863E+03   -0.13730E-04   -0.13726E-04  7392   0.227E-04 0.505E-06
CGA:   9    -0.362498881927E+03   -0.40647E-05   -0.44126E-05  7392   0.805E-05 0.764E-05
  25 F= -.36249888E+03 E0= -.36249888E+03  d E =-.562487E-03  mag=    16.0000
       N       E                     dE             d eps       ncg     rms          ort
SDA:   1    -0.361950335551E+03    0.54854E+00    0.00000E+00  7392   0.150E+01 0.000E+00
CGA:   2    -0.362292136220E+03   -0.34180E+00   -0.34181E+00  7392   0.915E+00 0.156E-02
CGA:   3    -0.362449162523E+03   -0.15703E+00   -0.15705E+00  7392   0.222E+00 0.312E-04
CGA:   4    -0.362485137741E+03   -0.35975E-01   -0.35976E-01  7392   0.509E-01 0.163E-04
CGA:   5    -0.362494235332E+03   -0.90976E-02   -0.91139E-02  7392   0.140E-01 0.333E-03
CGA:   6    -0.362496972133E+03   -0.27368E-02   -0.27391E-02  7392   0.393E-02 0.712E-04
CGA:   7    -0.362497840510E+03   -0.86838E-03   -0.86826E-03  7392   0.131E-02-0.902E-04
CGA:   8    -0.362498147955E+03   -0.30745E-03   -0.30667E-03  7392   0.467E-03 0.412E-04
CGA:   9    -0.362498267272E+03   -0.11932E-03   -0.11789E-03  7392   0.157E-03 0.622E-04
CGA:  10    -0.362498317931E+03   -0.50659E-04   -0.49569E-04  7392   0.613E-04 0.193E-04
CGA:  11    -0.362498334815E+03   -0.16884E-04   -0.16633E-04  7392   0.203E-04 0.158E-04
CGA:  12    -0.362498341079E+03   -0.62636E-05   -0.61620E-05  7392   0.822E-05 0.694E-05
  26 F= -.36249834E+03 E0= -.36249834E+03  d E =0.540848E-03  mag=    16.0000
       N       E                     dE             d eps       ncg     rms          ort
SDA:   1    -0.362256475919E+03    0.24186E+00    0.00000E+00  7392   0.625E+00 0.000E+00
CGA:   2    -0.362420050884E+03   -0.16357E+00   -0.16354E+00  7392   0.390E+00 0.740E-03
CGA:   3    -0.362482305189E+03   -0.62254E-01   -0.62235E-01  7392   0.874E-01-0.268E-03
CGA:   4    -0.362496594001E+03   -0.14289E-01   -0.14279E-01  7392   0.198E-01-0.161E-03
CGA:   5    -0.362500146361E+03   -0.35524E-02   -0.35461E-02  7392   0.562E-02-0.145E-03
CGA:   6    -0.362501267469E+03   -0.11211E-02   -0.11188E-02  7392   0.170E-02-0.108E-03
CGA:   7    -0.362501619097E+03   -0.35163E-03   -0.35185E-03  7392   0.549E-03 0.209E-04
CGA:   8    -0.362501748431E+03   -0.12933E-03   -0.12877E-03  7392   0.193E-03 0.540E-04
CGA:   9    -0.362501811045E+03   -0.62614E-04   -0.62228E-04  7392   0.849E-04 0.538E-05
CGA:  10    -0.362501839255E+03   -0.28211E-04   -0.29940E-04  7392   0.449E-04-0.147E-04
CGA:  11    -0.362501847615E+03   -0.83593E-05   -0.83827E-05  7392   0.139E-04 0.426E-05
  27 F= -.36250185E+03 E0= -.36250185E+03  d E =-.350654E-02  mag=    16.0000
       N       E                     dE             d eps       ncg     rms          ort
SDA:   1    -0.362429334772E+03    0.72504E-01    0.00000E+00  7392   0.211E+00 0.000E+00
CGA:   2    -0.362475478776E+03   -0.46144E-01   -0.46144E-01  7392   0.120E+00-0.133E-03
CGA:   3    -0.362496372799E+03   -0.20894E-01   -0.20886E-01  7392   0.326E-01-0.193E-03
CGA:   4    -0.362501771281E+03   -0.53985E-02   -0.54087E-02  7392   0.762E-02 0.166E-03
CGA:   5    -0.362503124358E+03   -0.13531E-02   -0.13588E-02  7392   0.206E-02 0.126E-03
CGA:   6    -0.362503535941E+03   -0.41158E-03   -0.41218E-03  7392   0.606E-03 0.248E-04
CGA:   7    -0.362503672443E+03   -0.13650E-03   -0.13652E-03  7392   0.216E-03-0.382E-05
CGA:   8    -0.362503728606E+03   -0.56163E-04   -0.56542E-04  7392   0.897E-04-0.850E-05
CGA:   9    -0.362503753165E+03   -0.24559E-04   -0.24916E-04  7392   0.376E-04-0.530E-05
CGA:  10    -0.362503761978E+03   -0.88130E-05   -0.87061E-05  7392   0.119E-04 0.492E-05
  28 F= -.36250376E+03 E0= -.36250376E+03  d E =-.191436E-02  mag=    16.0000
       N       E                     dE             d eps       ncg     rms          ort
SDA:   1    -0.362386207034E+03    0.11755E+00    0.00000E+00  7392   0.269E+00 0.000E+00
CGA:   2    -0.362486717900E+03   -0.10051E+00   -0.10062E+00  7392   0.770E-01-0.709E-03
CGA:   3    -0.362500355391E+03   -0.13637E-01   -0.13642E-01  7392   0.202E-01 0.718E-04
CGA:   4    -0.362503407317E+03   -0.30519E-02   -0.30603E-02  7392   0.452E-02 0.105E-03
CGA:   5    -0.362504321289E+03   -0.91397E-03   -0.91386E-03  7392   0.126E-02-0.473E-05
CGA:   6    -0.362504562197E+03   -0.24091E-03   -0.23992E-03  7392   0.381E-03-0.284E-04
CGA:   7    -0.362504650298E+03   -0.88102E-04   -0.88144E-04  7392   0.144E-03-0.321E-05
CGA:   8    -0.362504684345E+03   -0.34047E-04   -0.33832E-04  7392   0.547E-04 0.173E-04
CGA:   9    -0.362504700562E+03   -0.16217E-04   -0.15834E-04  7392   0.202E-04 0.112E-04
CGA:  10    -0.362504708946E+03   -0.83845E-05   -0.88923E-05  7392   0.123E-04-0.367E-05
  29 F= -.36250471E+03 E0= -.36250471E+03  d E =-.946968E-03  mag=    16.0000
       N       E                     dE             d eps       ncg     rms          ort
SDA:   1    -0.361896495765E+03    0.60820E+00    0.00000E+00  7392   0.141E+01 0.000E+00
CGA:   2    -0.362409829995E+03   -0.51333E+00   -0.51346E+00  7392   0.402E+00-0.112E-02
CGA:   3    -0.362485087197E+03   -0.75257E-01   -0.75303E-01  7392   0.100E+00 0.745E-03
CGA:   4    -0.362500221816E+03   -0.15135E-01   -0.15132E-01  7392   0.236E-01-0.431E-04
CGA:   5    -0.362505050719E+03   -0.48289E-02   -0.48181E-02  7392   0.623E-02-0.320E-03
CGA:   6    -0.362506233706E+03   -0.11830E-02   -0.11796E-02  7392   0.192E-02-0.764E-04
CGA:   7    -0.362506682627E+03   -0.44892E-03   -0.44888E-03  7392   0.712E-03 0.129E-04
CGA:   8    -0.362506876792E+03   -0.19416E-03   -0.19329E-03  7392   0.327E-03 0.247E-04
CGA:   9    -0.362506979888E+03   -0.10310E-03   -0.10366E-03  7392   0.137E-03-0.800E-05
CGA:  10    -0.362507023834E+03   -0.43946E-04   -0.48414E-04  7392   0.685E-04-0.366E-04
CGA:  11    -0.362507035081E+03   -0.11247E-04   -0.11327E-04  7392   0.205E-04 0.398E-05
CGA:  12    -0.362507040205E+03   -0.51238E-05   -0.51471E-05  7392   0.935E-05 0.334E-05
  30 F= -.36250704E+03 E0= -.36250704E+03  d E =-.233126E-02  mag=    16.0000
       N       E                     dE             d eps       ncg     rms          ort
SDA:   1    -0.361833723097E+03    0.67331E+00    0.00000E+00  7392   0.159E+01 0.000E+00
CGA:   2    -0.362389266309E+03   -0.55554E+00   -0.55564E+00  7392   0.508E+00-0.143E-02
CGA:   3    -0.362484003474E+03   -0.94737E-01   -0.94838E-01  7392   0.126E+00 0.118E-02
CGA:   4    -0.362502851341E+03   -0.18848E-01   -0.18863E-01  7392   0.283E-01 0.108E-03
CGA:   5    -0.362508676297E+03   -0.58250E-02   -0.58059E-02  7392   0.784E-02-0.364E-03
CGA:   6    -0.362510149193E+03   -0.14729E-02   -0.14665E-02  7392   0.241E-02-0.990E-04
CGA:   7    -0.362510714992E+03   -0.56580E-03   -0.56606E-03  7392   0.901E-03 0.177E-04
CGA:   8    -0.362510965919E+03   -0.25093E-03   -0.25058E-03  7392   0.436E-03 0.138E-04
CGA:   9    -0.362511101212E+03   -0.13529E-03   -0.13594E-03  7392   0.182E-03-0.120E-04
CGA:  10    -0.362511156379E+03   -0.55166E-04   -0.56647E-04  7392   0.700E-04-0.227E-04
CGA:  11    -0.362511172661E+03   -0.16283E-04   -0.16274E-04  7392   0.201E-04 0.117E-05
CGA:  12    -0.362511179645E+03   -0.69838E-05   -0.69895E-05  7392   0.102E-04-0.689E-07
  31 F= -.36251118E+03 E0= -.36251118E+03  d E =-.413944E-02  mag=    16.0000
       N       E                     dE             d eps       ncg     rms          ort
SDA:   1    -0.361739413796E+03    0.77176E+00    0.00000E+00  7392   0.187E+01 0.000E+00
CGA:   2    -0.362322678189E+03   -0.58326E+00   -0.58337E+00  7392   0.867E+00-0.371E-02
CGA:   3    -0.362459916814E+03   -0.13724E+00   -0.13719E+00  7392   0.227E+00-0.106E-03
CGA:   4    -0.362497054182E+03   -0.37137E-01   -0.37251E-01  7392   0.478E-01 0.959E-03
CGA:   5    -0.362505778222E+03   -0.87240E-02   -0.87843E-02  7392   0.138E-01 0.676E-03
CGA:   6    -0.362508575858E+03   -0.27976E-02   -0.28093E-02  7392   0.419E-02 0.172E-03
CGA:   7    -0.362509598210E+03   -0.10224E-02   -0.10209E-02  7392   0.170E-02-0.646E-04
CGA:   8    -0.362510039108E+03   -0.44090E-03   -0.44089E-03  7392   0.721E-03 0.631E-05
CGA:   9    -0.362510227581E+03   -0.18847E-03   -0.18861E-03  7392   0.248E-03 0.789E-04
CGA:  10    -0.362510296412E+03   -0.68831E-04   -0.69285E-04  7392   0.794E-04 0.432E-04
CGA:  11    -0.362510328466E+03   -0.32055E-04   -0.32817E-04  7392   0.433E-04-0.847E-05
CGA:  12    -0.362510341850E+03   -0.13383E-04   -0.22242E-04  7392   0.670E-04-0.287E-04
CGA:  13    -0.362510354886E+03   -0.13036E-04   -0.13826E-04  7392   0.138E-04 0.104E-04
CGA:  14    -0.362510361484E+03   -0.65978E-05   -0.63426E-05  7392   0.778E-05 0.212E-05
  32 F= -.36251036E+03 E0= -.36251036E+03  d E =0.818161E-03  mag=    16.0000
       N       E                     dE             d eps       ncg     rms          ort
SDA:   1    -0.362414353548E+03    0.96001E-01    0.00000E+00  7392   0.259E+00 0.000E+00
CGA:   2    -0.362482976520E+03   -0.68623E-01   -0.68859E-01  7392   0.126E+00 0.817E-03
CGA:   3    -0.362504504879E+03   -0.21528E-01   -0.21508E-01  7392   0.392E-01-0.584E-04
CGA:   4    -0.362511322864E+03   -0.68180E-02   -0.67279E-02  7392   0.930E-02-0.292E-03
CGA:   5    -0.362513099047E+03   -0.17762E-02   -0.17268E-02  7392   0.268E-02-0.176E-03
CGA:   6    -0.362513680959E+03   -0.58191E-03   -0.56538E-03  7392   0.896E-03-0.688E-04
CGA:   7    -0.362513888949E+03   -0.20799E-03   -0.21043E-03  7392   0.361E-03 0.116E-04
CGA:   8    -0.362513974234E+03   -0.85285E-04   -0.89014E-04  7392   0.130E-03 0.193E-04
CGA:   9    -0.362514019761E+03   -0.45527E-04   -0.44178E-04  7392   0.622E-04-0.130E-04
CGA:  10    -0.362514039855E+03   -0.20094E-04   -0.18820E-04  7392   0.300E-04-0.150E-04
CGA:  11    -0.362514044813E+03   -0.49581E-05   -0.53733E-05  7392   0.939E-05 0.228E-05
  33 F= -.36251404E+03 E0= -.36251404E+03  d E =-.368333E-02  mag=    16.0000
       N       E                     dE             d eps       ncg     rms          ort
SDA:   1    -0.362332224306E+03    0.18182E+00    0.00000E+00  7392   0.422E+00 0.000E+00
CGA:   2    -0.362486920574E+03   -0.15470E+00   -0.15469E+00  7392   0.114E+00-0.186E-03
CGA:   3    -0.362509381242E+03   -0.22461E-01   -0.22497E-01  7392   0.270E-01 0.180E-03
CGA:   4    -0.362513485302E+03   -0.41041E-02   -0.40931E-02  7392   0.690E-02-0.507E-04
CGA:   5    -0.362514913603E+03   -0.14283E-02   -0.14014E-02  7392   0.177E-02-0.159E-03
CGA:   6    -0.362515256846E+03   -0.34324E-03   -0.33660E-03  7392   0.588E-03-0.393E-04
CGA:   7    -0.362515384010E+03   -0.12716E-03   -0.12918E-03  7392   0.204E-03 0.152E-04
CGA:   8    -0.362515441550E+03   -0.57539E-04   -0.57966E-04  7392   0.982E-04 0.586E-05
CGA:   9    -0.362515475972E+03   -0.34422E-04   -0.34313E-04  7392   0.511E-04-0.159E-04
CGA:  10    -0.362515489210E+03   -0.13238E-04   -0.12918E-04  7392   0.176E-04-0.721E-05
CGA:  11    -0.362515492820E+03   -0.36102E-05   -0.36966E-05  7392   0.512E-05 0.870E-06
  34 F= -.36251549E+03 E0= -.36251549E+03  d E =-.144801E-02  mag=    16.0000
       N       E                     dE             d eps       ncg     rms          ort
SDA:   1    -0.360738512380E+03    0.17770E+01    0.00000E+00  7392   0.419E+01 0.000E+00
CGA:   2    -0.362158321265E+03   -0.14198E+01   -0.14198E+01  7392   0.171E+01 0.523E-03
CGA:   3    -0.362423212129E+03   -0.26489E+00   -0.26485E+00  7392   0.420E+00 0.151E-03
CGA:   4    -0.362491818498E+03   -0.68606E-01   -0.68589E-01  7392   0.886E-01-0.120E-03
CGA:   5    -0.362508553798E+03   -0.16735E-01   -0.16706E-01  7392   0.265E-01-0.248E-03
CGA:   6    -0.362513670931E+03   -0.51171E-02   -0.50878E-02  7392   0.733E-02-0.253E-03
CGA:   7    -0.362515338806E+03   -0.16679E-02   -0.16666E-02  7392   0.278E-02-0.187E-04
CGA:   8    -0.362516078441E+03   -0.73963E-03   -0.74103E-03  7392   0.120E-02 0.401E-04
CGA:   9    -0.362516453897E+03   -0.37546E-03   -0.37592E-03  7392   0.524E-03-0.540E-04
CGA:  10    -0.362516604883E+03   -0.15099E-03   -0.15104E-03  7392   0.176E-03-0.435E-04
CGA:  11    -0.362516651308E+03   -0.46425E-04   -0.46256E-04  7392   0.501E-04-0.116E-04
CGA:  12    -0.362516667087E+03   -0.15779E-04   -0.15957E-04  7392   0.213E-04-0.429E-05
CGA:  13    -0.362516674520E+03   -0.74329E-05   -0.74062E-05  7392   0.109E-04 0.343E-06
  35 F= -.36251667E+03 E0= -.36251667E+03  d E =-.118170E-02  mag=    16.0000
       N       E                     dE             d eps       ncg     rms          ort
SDA:   1    -0.355440888035E+03    0.70758E+01    0.00000E+00  7392   0.165E+02 0.000E+00
CGA:   2    -0.361217606505E+03   -0.57767E+01   -0.57770E+01  7392   0.585E+01-0.997E-02
CGA:   3    -0.362173630761E+03   -0.95602E+00   -0.95609E+00  7392   0.153E+01 0.399E-02
CGA:   4    -0.362417301582E+03   -0.24367E+00   -0.24384E+00  7392   0.323E+00 0.133E-02
CGA:   5    -0.362480085665E+03   -0.62784E-01   -0.62871E-01  7392   0.993E-01 0.735E-03
CGA:   6    -0.362499282327E+03   -0.19197E-01   -0.19200E-01  7392   0.285E-01 0.869E-05
CGA:   7    -0.362506047688E+03   -0.67654E-02   -0.67618E-02  7392   0.115E-01-0.711E-04
CGA:   8    -0.362509119936E+03   -0.30722E-02   -0.30757E-02  7392   0.503E-02 0.137E-03
CGA:   9    -0.362510552573E+03   -0.14326E-02   -0.14339E-02  7392   0.185E-02 0.147E-03
CGA:  10    -0.362511092337E+03   -0.53976E-03   -0.53984E-03  7392   0.579E-03 0.964E-05
CGA:  11    -0.362511273184E+03   -0.18085E-03   -0.18220E-03  7392   0.205E-03-0.589E-04
CGA:  12    -0.362511337626E+03   -0.64443E-04   -0.65646E-04  7392   0.100E-03-0.183E-04
CGA:  13    -0.362511373204E+03   -0.35578E-04   -0.34915E-04  7392   0.574E-04 0.761E-05
CGA:  14    -0.362511404951E+03   -0.31747E-04   -0.30760E-04  7392   0.456E-04 0.507E-05
CGA:  15    -0.362511430302E+03   -0.25350E-04   -0.24581E-04  7392   0.338E-04 0.430E-05
CGA:  16    -0.362511446944E+03   -0.16643E-04   -0.15737E-04  7392   0.200E-04 0.853E-05
CGA:  17    -0.362511455176E+03   -0.82311E-05   -0.81941E-05  7392   0.118E-04 0.120E-04
  36 F= -.36251146E+03 E0= -.36251146E+03  d E =0.521934E-02  mag=    16.0000
       N       E                     dE             d eps       ncg     rms          ort
SDA:   1    -0.361057770559E+03    0.14537E+01    0.00000E+00  7392   0.363E+01 0.000E+00
CGA:   2    -0.362086769799E+03   -0.10290E+01   -0.10291E+01  7392   0.200E+01 0.187E-02
CGA:   3    -0.362399121966E+03   -0.31235E+00   -0.31242E+00  7392   0.464E+00 0.579E-03
CGA:   4    -0.362477267022E+03   -0.78145E-01   -0.78145E-01  7392   0.105E+00 0.541E-04
CGA:   5    -0.362495907528E+03   -0.18641E-01   -0.18723E-01  7392   0.295E-01 0.603E-03
CGA:   6    -0.362501671590E+03   -0.57641E-02   -0.58185E-02  7392   0.864E-02 0.504E-03
CGA:   7    -0.362503644765E+03   -0.19732E-02   -0.19796E-02  7392   0.311E-02 0.885E-04
CGA:   8    -0.362504472454E+03   -0.82769E-03   -0.82878E-03  7392   0.132E-02 0.360E-04
CGA:   9    -0.362504833560E+03   -0.36111E-03   -0.36303E-03  7392   0.481E-03 0.932E-04
CGA:  10    -0.362504970682E+03   -0.13712E-03   -0.13835E-03  7392   0.162E-03 0.554E-04
CGA:  11    -0.362505015989E+03   -0.45307E-04   -0.46348E-04  7392   0.526E-04 0.316E-04
CGA:  12    -0.362505034168E+03   -0.18179E-04   -0.18163E-04  7392   0.252E-04 0.121E-04
CGA:  13    -0.362505045435E+03   -0.11267E-04   -0.10750E-04  7392   0.176E-04 0.882E-05
CGA:  14    -0.362505051013E+03   -0.55783E-05   -0.60596E-05  7392   0.121E-04 0.134E-04
  37 F= -.36250505E+03 E0= -.36250505E+03  d E =0.640416E-02  mag=    16.0000
       N       E                     dE             d eps       ncg     rms          ort
SDA:   1    -0.361281416759E+03    0.12236E+01    0.00000E+00  7392   0.294E+01 0.000E+00
CGA:   2    -0.362246780352E+03   -0.96536E+00   -0.96504E+00  7392   0.118E+01 0.623E-02
CGA:   3    -0.362440365435E+03   -0.19359E+00   -0.19376E+00  7392   0.343E+00 0.113E-02
CGA:   4    -0.362497341419E+03   -0.56976E-01   -0.56889E-01  7392   0.710E-01-0.785E-03
CGA:   5    -0.362510835033E+03   -0.13494E-01   -0.13391E-01  7392   0.229E-01-0.117E-02
CGA:   6    -0.362515529925E+03   -0.46949E-02   -0.46677E-02  7392   0.761E-02-0.420E-03
CGA:   7    -0.362517228154E+03   -0.16982E-02   -0.17048E-02  7392   0.283E-02 0.156E-03
CGA:   8    -0.362517999312E+03   -0.77116E-03   -0.77120E-03  7392   0.121E-02 0.563E-04
CGA:   9    -0.362518388818E+03   -0.38951E-03   -0.39887E-03  7392   0.560E-03-0.168E-03
CGA:  10    -0.362518525656E+03   -0.13684E-03   -0.13794E-03  7392   0.182E-03-0.725E-04
CGA:  11    -0.362518559372E+03   -0.33716E-04   -0.34850E-04  7392   0.466E-04 0.223E-04
CGA:  12    -0.362518568335E+03   -0.89637E-05   -0.10236E-04  7392   0.185E-04 0.174E-04
  38 F= -.36251857E+03 E0= -.36251857E+03  d E =-.135173E-01  mag=    16.0000
       N       E                     dE             d eps       ncg     rms          ort
SDA:   1    -0.361268043250E+03    0.12505E+01    0.00000E+00  7392   0.291E+01 0.000E+00
CGA:   2    -0.362299262271E+03   -0.10312E+01   -0.10314E+01  7392   0.100E+01-0.184E-02
CGA:   3    -0.362464923372E+03   -0.16566E+00   -0.16565E+00  7392   0.261E+00-0.178E-03
CGA:   4    -0.362505570263E+03   -0.40647E-01   -0.40674E-01  7392   0.542E-01 0.228E-03
CGA:   5    -0.362516230571E+03   -0.10660E-01   -0.10657E-01  7392   0.161E-01-0.582E-04
CGA:   6    -0.362519288556E+03   -0.30580E-02   -0.30468E-02  7392   0.446E-02-0.176E-03
CGA:   7    -0.362520323214E+03   -0.10347E-02   -0.10344E-02  7392   0.173E-02-0.166E-04
CGA:   8    -0.362520774328E+03   -0.45111E-03   -0.45055E-03  7392   0.743E-03 0.443E-04
CGA:   9    -0.362521001635E+03   -0.22731E-03   -0.22717E-03  7392   0.305E-03 0.270E-05
CGA:  10    -0.362521091899E+03   -0.90263E-04   -0.90804E-04  7392   0.101E-03-0.122E-04
CGA:  11    -0.362521122433E+03   -0.30534E-04   -0.31950E-04  7392   0.383E-04-0.191E-04
CGA:  12    -0.362521132043E+03   -0.96109E-05   -0.96495E-05  7392   0.144E-04-0.759E-06
  39 F= -.36252113E+03 E0= -.36252113E+03  d E =-.256371E-02  mag=    16.0000
       N       E                     dE             d eps       ncg     rms          ort
SDA:   1    -0.361798081255E+03    0.72304E+00    0.00000E+00  7392   0.167E+01 0.000E+00
CGA:   2    -0.362386212820E+03   -0.58813E+00   -0.58832E+00  7392   0.586E+00-0.198E-02
CGA:   3    -0.362483279490E+03   -0.97067E-01   -0.96989E-01  7392   0.164E+00-0.744E-03
CGA:   4    -0.362508934621E+03   -0.25655E-01   -0.25691E-01  7392   0.331E-01 0.320E-03
CGA:   5    -0.362515254349E+03   -0.63197E-02   -0.63505E-02  7392   0.995E-02 0.475E-03
CGA:   6    -0.362517187716E+03   -0.19334E-02   -0.19427E-02  7392   0.283E-02 0.154E-03
CGA:   7    -0.362517884752E+03   -0.69704E-03   -0.69684E-03  7392   0.116E-02-0.295E-04
CGA:   8    -0.362518191028E+03   -0.30628E-03   -0.30602E-03  7392   0.500E-03 0.155E-04
CGA:   9    -0.362518315701E+03   -0.12467E-03   -0.12496E-03  7392   0.163E-03 0.816E-04
CGA:  10    -0.362518361650E+03   -0.45949E-04   -0.46154E-04  7392   0.519E-04 0.354E-04
CGA:  11    -0.362518384037E+03   -0.22388E-04   -0.24181E-04  7392   0.347E-04-0.135E-04
CGA:  12    -0.362518390640E+03   -0.66024E-05   -0.66015E-05  7392   0.172E-04 0.155E-05
  40 F= -.36251839E+03 E0= -.36251839E+03  d E =0.274140E-02  mag=    16.0000
       N       E                     dE             d eps       ncg     rms          ort
SDA:   1    -0.361613809666E+03    0.90457E+00    0.00000E+00  7392   0.211E+01 0.000E+00
CGA:   2    -0.362349675937E+03   -0.73587E+00   -0.73561E+00  7392   0.785E+00 0.237E-02
CGA:   3    -0.362475283594E+03   -0.12561E+00   -0.12565E+00  7392   0.201E+00 0.297E-03
CGA:   4    -0.362507386219E+03   -0.32103E-01   -0.32071E-01  7392   0.418E-01-0.362E-03
CGA:   5    -0.362515459935E+03   -0.80737E-02   -0.80637E-02  7392   0.127E-01-0.186E-03
CGA:   6    -0.362517801230E+03   -0.23413E-02   -0.23496E-02  7392   0.334E-02 0.138E-03
CGA:   7    -0.362518568562E+03   -0.76733E-03   -0.76870E-03  7392   0.125E-02 0.907E-04
CGA:   8    -0.362518927565E+03   -0.35900E-03   -0.35972E-03  7392   0.597E-03-0.190E-04
CGA:   9    -0.362519102562E+03   -0.17500E-03   -0.17607E-03  7392   0.249E-03-0.194E-04
CGA:  10    -0.362519169522E+03   -0.66960E-04   -0.66999E-04  7392   0.749E-04-0.131E-05
CGA:  11    -0.362519186284E+03   -0.16762E-04   -0.17028E-04  7392   0.194E-04 0.133E-04
CGA:  12    -0.362519190903E+03   -0.46190E-05   -0.48864E-05  7392   0.779E-05 0.784E-05
  41 F= -.36251919E+03 E0= -.36251919E+03  d E =-.800264E-03  mag=    16.0000
       N       E                     dE             d eps       ncg     rms          ort
SDA:   1    -0.362428155925E+03    0.91030E-01    0.00000E+00  7392   0.220E+00 0.000E+00
CGA:   2    -0.362495656521E+03   -0.67501E-01   -0.67427E-01  7392   0.820E-01 0.118E-02
CGA:   3    -0.362510720140E+03   -0.15064E-01   -0.15084E-01  7392   0.308E-01 0.291E-03
CGA:   4    -0.362515985064E+03   -0.52649E-02   -0.52466E-02  7392   0.657E-02-0.246E-03
CGA:   5    -0.362517334431E+03   -0.13494E-02   -0.13307E-02  7392   0.247E-02-0.486E-03
CGA:   6    -0.362517843480E+03   -0.50905E-03   -0.50455E-03  7392   0.102E-02-0.229E-03
CGA:   7    -0.362518046995E+03   -0.20352E-03   -0.20435E-03  7392   0.340E-03 0.416E-04
CGA:   8    -0.362518127271E+03   -0.80276E-04   -0.80722E-04  7392   0.121E-03 0.411E-04
CGA:   9    -0.362518172080E+03   -0.44809E-04   -0.50106E-04  7392   0.871E-04-0.400E-04
CGA:  10    -0.362518187025E+03   -0.14945E-04   -0.15230E-04  7392   0.370E-04-0.169E-04
CGA:  11    -0.362518193079E+03   -0.60542E-05   -0.61562E-05  7392   0.144E-04 0.260E-05
  42 F= -.36251819E+03 E0= -.36251819E+03  d E =0.997824E-03  mag=    16.0000
       N       E                     dE             d eps       ncg     rms          ort
SDA:   1    -0.362198850783E+03    0.31934E+00    0.00000E+00  7392   0.742E+00 0.000E+00
CGA:   2    -0.362466295779E+03   -0.26744E+00   -0.26764E+00  7392   0.231E+00-0.162E-02
CGA:   3    -0.362506986593E+03   -0.40691E-01   -0.40681E-01  7392   0.644E-01-0.143E-03
CGA:   4    -0.362516753001E+03   -0.97664E-02   -0.97941E-02  7392   0.136E-01 0.300E-03
CGA:   5    -0.362519437796E+03   -0.26848E-02   -0.26951E-02  7392   0.403E-02 0.241E-03
CGA:   6    -0.362520226429E+03   -0.78863E-03   -0.78786E-03  7392   0.123E-02-0.177E-04
CGA:   7    -0.362520530039E+03   -0.30361E-03   -0.30411E-03  7392   0.510E-03-0.375E-04
CGA:   8    -0.362520650735E+03   -0.12070E-03   -0.12038E-03  7392   0.196E-03 0.399E-04
CGA:   9    -0.362520702988E+03   -0.52253E-04   -0.51892E-04  7392   0.646E-04 0.393E-04
CGA:  10    -0.362520723724E+03   -0.20736E-04   -0.20452E-04  7392   0.227E-04 0.103E-04
CGA:  11    -0.362520732734E+03   -0.90107E-05   -0.98557E-05  7392   0.138E-04-0.620E-05
  43 F= -.36252073E+03 E0= -.36252073E+03  d E =-.253966E-02  mag=    16.0000
       N       E                     dE             d eps       ncg     rms          ort
SDA:   1    -0.362306769536E+03    0.21395E+00    0.00000E+00  7392   0.501E+00 0.000E+00
CGA:   2    -0.362477418105E+03   -0.17065E+00   -0.17051E+00  7392   0.187E+00 0.142E-02
CGA:   3    -0.362508805059E+03   -0.31387E-01   -0.31371E-01  7392   0.483E-01-0.198E-03
CGA:   4    -0.362516270451E+03   -0.74654E-02   -0.74432E-02  7392   0.991E-02-0.239E-03
CGA:   5    -0.362518187038E+03   -0.19166E-02   -0.19175E-02  7392   0.291E-02 0.168E-04
CGA:   6    -0.362518704091E+03   -0.51705E-03   -0.52493E-03  7392   0.724E-03 0.125E-03
CGA:   7    -0.362518876769E+03   -0.17268E-03   -0.17314E-03  7392   0.274E-03 0.454E-04
CGA:   8    -0.362518964804E+03   -0.88035E-04   -0.89651E-04  7392   0.161E-03-0.236E-04
CGA:   9    -0.362519004239E+03   -0.39435E-04   -0.39234E-04  7392   0.605E-04 0.813E-05
CGA:  10    -0.362519018838E+03   -0.14600E-04   -0.14736E-04  7392   0.186E-04 0.114E-04
CGA:  11    -0.362519023996E+03   -0.51574E-05   -0.51912E-05  7392   0.644E-05 0.418E-05
  44 F= -.36251902E+03 E0= -.36251902E+03  d E =0.170874E-02  mag=    16.0000
       N       E                     dE             d eps       ncg     rms          ort
SDA:   1    -0.360996988595E+03    0.15220E+01    0.00000E+00  7392   0.356E+01 0.000E+00
CGA:   2    -0.362220641345E+03   -0.12237E+01   -0.12240E+01  7392   0.131E+01-0.251E-02
CGA:   3    -0.362436028650E+03   -0.21539E+00   -0.21529E+00  7392   0.356E+00-0.117E-02
CGA:   4    -0.362491920889E+03   -0.55892E-01   -0.55887E-01  7392   0.712E-01-0.140E-03
CGA:   5    -0.362505522792E+03   -0.13602E-01   -0.13622E-01  7392   0.213E-01 0.438E-03
CGA:   6    -0.362509532164E+03   -0.40094E-02   -0.40264E-02  7392   0.577E-02 0.364E-03
CGA:   7    -0.362510909872E+03   -0.13777E-02   -0.13775E-02  7392   0.225E-02 0.652E-04
CGA:   8    -0.362511530065E+03   -0.62019E-03   -0.62013E-03  7392   0.102E-02 0.131E-05
CGA:   9    -0.362511804184E+03   -0.27412E-03   -0.27082E-03  7392   0.360E-03 0.107E-03
CGA:  10    -0.362511912148E+03   -0.10796E-03   -0.10663E-03  7392   0.115E-03 0.410E-04
CGA:  11    -0.362511955906E+03   -0.43758E-04   -0.47026E-04  7392   0.632E-04-0.251E-04
CGA:  12    -0.362511968176E+03   -0.12270E-04   -0.12238E-04  7392   0.262E-04 0.799E-05
CGA:  13    -0.362511975482E+03   -0.73058E-05   -0.72854E-05  7392   0.141E-04 0.732E-05
  45 F= -.36251198E+03 E0= -.36251198E+03  d E =0.704851E-02  mag=    16.0000
       N       E                     dE             d eps       ncg     rms          ort
SDA:   1    -0.361262242838E+03    0.12497E+01    0.00000E+00  7392   0.290E+01 0.000E+00
CGA:   2    -0.362293303358E+03   -0.10311E+01   -0.10312E+01  7392   0.990E+00-0.117E-02
CGA:   3    -0.362456205142E+03   -0.16290E+00   -0.16288E+00  7392   0.261E+00-0.299E-03
CGA:   4    -0.362497535670E+03   -0.41331E-01   -0.41330E-01  7392   0.547E-01-0.221E-04
CGA:   5    -0.362508254874E+03   -0.10719E-01   -0.10715E-01  7392   0.162E-01-0.914E-04
CGA:   6    -0.362511320473E+03   -0.30656E-02   -0.30583E-02  7392   0.450E-02-0.138E-03
CGA:   7    -0.362512370345E+03   -0.10499E-02   -0.10498E-02  7392   0.174E-02-0.593E-05
CGA:   8    -0.362512825532E+03   -0.45519E-03   -0.45403E-03  7392   0.733E-03 0.539E-04
CGA:   9    -0.362513051594E+03   -0.22606E-03   -0.22560E-03  7392   0.301E-03 0.799E-05
CGA:  10    -0.362513141621E+03   -0.90027E-04   -0.90436E-04  7392   0.103E-03-0.782E-05
CGA:  11    -0.362513171003E+03   -0.29382E-04   -0.29491E-04  7392   0.348E-04-0.229E-05
CGA:  12    -0.362513182294E+03   -0.11291E-04   -0.10964E-04  7392   0.173E-04 0.450E-05
CGA:  13    -0.362513188163E+03   -0.58687E-05   -0.55630E-05  7392   0.113E-04 0.952E-05
  46 F= -.36251319E+03 E0= -.36251319E+03  d E =-.121268E-02  mag=    16.0000
       N       E                     dE             d eps       ncg     rms          ort
SDA:   1    -0.361313375902E+03    0.11998E+01    0.00000E+00  7392   0.293E+01 0.000E+00
CGA:   2    -0.362203870961E+03   -0.89050E+00   -0.89014E+00  7392   0.143E+01 0.550E-02
CGA:   3    -0.362426908998E+03   -0.22304E+00   -0.22317E+00  7392   0.374E+00 0.865E-03
CGA:   4    -0.362490915074E+03   -0.64006E-01   -0.63953E-01  7392   0.813E-01-0.623E-03
CGA:   5    -0.362505639950E+03   -0.14725E-01   -0.14670E-01  7392   0.242E-01-0.820E-03
CGA:   6    -0.362510686068E+03   -0.50461E-02   -0.50241E-02  7392   0.806E-02-0.603E-03
CGA:   7    -0.362512465297E+03   -0.17792E-02   -0.17790E-02  7392   0.298E-02-0.114E-04
CGA:   8    -0.362513232641E+03   -0.76734E-03   -0.76573E-03  7392   0.118E-02 0.120E-03
CGA:   9    -0.362513622125E+03   -0.38948E-03   -0.40138E-03  7392   0.568E-03-0.146E-03
CGA:  10    -0.362513770016E+03   -0.14789E-03   -0.15414E-03  7392   0.214E-03-0.102E-03
CGA:  11    -0.362513808206E+03   -0.38189E-04   -0.38802E-04  7392   0.552E-04 0.202E-04
CGA:  12    -0.362513819325E+03   -0.11120E-04   -0.11999E-04  7392   0.208E-04 0.171E-04
CGA:  13    -0.362513825022E+03   -0.56965E-05   -0.59617E-05  7392   0.103E-04 0.918E-05
  47 F= -.36251383E+03 E0= -.36251383E+03  d E =-.636859E-03  mag=    16.0000
       N       E                     dE             d eps       ncg     rms          ort
SDA:   1    -0.362372380800E+03    0.14144E+00    0.00000E+00  7392   0.374E+00 0.000E+00
CGA:   2    -0.362468947060E+03   -0.96566E-01   -0.96568E-01  7392   0.203E+00-0.224E-03
CGA:   3    -0.362502597566E+03   -0.33651E-01   -0.33630E-01  7392   0.566E-01-0.308E-03
CGA:   4    -0.362512621437E+03   -0.10024E-01   -0.10034E-01  7392   0.137E-01 0.150E-03
CGA:   5    -0.362514985808E+03   -0.23644E-02   -0.23948E-02  7392   0.371E-02 0.464E-03
CGA:   6    -0.362515701992E+03   -0.71618E-03   -0.73368E-03  7392   0.116E-02 0.393E-03
CGA:   7    -0.362516001021E+03   -0.29903E-03   -0.29908E-03  7392   0.469E-03 0.111E-03
CGA:   8    -0.362516149894E+03   -0.14887E-03   -0.15067E-03  7392   0.234E-03-0.303E-04
CGA:   9    -0.362516192987E+03   -0.43094E-04   -0.44700E-04  7392   0.738E-04 0.492E-04
CGA:  10    -0.362516204445E+03   -0.11458E-04   -0.14170E-04  7392   0.276E-04 0.356E-04
CGA:  11    -0.362516210731E+03   -0.62858E-05   -0.71352E-05  7392   0.117E-04 0.149E-04
  48 F= -.36251621E+03 E0= -.36251621E+03  d E =-.238571E-02  mag=    16.0000
       N       E                     dE             d eps       ncg     rms          ort
SDA:   1    -0.362261599903E+03    0.25460E+00    0.00000E+00  7392   0.594E+00 0.000E+00
CGA:   2    -0.362474601951E+03   -0.21300E+00   -0.21311E+00  7392   0.184E+00-0.845E-03
CGA:   3    -0.362506933997E+03   -0.32332E-01   -0.32326E-01  7392   0.515E-01-0.118E-03
CGA:   4    -0.362514746147E+03   -0.78122E-02   -0.78256E-02  7392   0.106E-01 0.164E-03
CGA:   5    -0.362516877711E+03   -0.21316E-02   -0.21331E-02  7392   0.309E-02 0.556E-04
CGA:   6    -0.362517470154E+03   -0.59244E-03   -0.59216E-03  7392   0.916E-03-0.818E-05
CGA:   7    -0.362517690513E+03   -0.22036E-03   -0.22048E-03  7392   0.362E-03-0.758E-05
CGA:   8    -0.362517783163E+03   -0.92650E-04   -0.92199E-04  7392   0.153E-03 0.143E-04
CGA:   9    -0.362517823573E+03   -0.40410E-04   -0.39796E-04  7392   0.512E-04 0.268E-04
CGA:  10    -0.362517839405E+03   -0.15833E-04   -0.15528E-04  7392   0.180E-04 0.102E-04
CGA:  11    -0.362517847089E+03   -0.76838E-05   -0.81049E-05  7392   0.122E-04-0.290E-05
  49 F= -.36251785E+03 E0= -.36251785E+03  d E =-.163636E-02  mag=    16.0000
       N       E                     dE             d eps       ncg     rms          ort
SDA:   1    -0.362468168632E+03    0.49671E-01    0.00000E+00  7392   0.118E+00 0.000E+00
CGA:   2    -0.362506334019E+03   -0.38165E-01   -0.38121E-01  7392   0.530E-01 0.486E-03
CGA:   3    -0.362514587467E+03   -0.82534E-02   -0.82520E-02  7392   0.127E-01-0.258E-04
CGA:   4    -0.362516698243E+03   -0.21108E-02   -0.21077E-02  7392   0.268E-02-0.442E-04
CGA:   5    -0.362517184640E+03   -0.48640E-03   -0.48882E-03  7392   0.769E-03 0.475E-04
CGA:   6    -0.362517323953E+03   -0.13931E-03   -0.14244E-03  7392   0.197E-03 0.634E-04
CGA:   7    -0.362517369987E+03   -0.46033E-04   -0.46288E-04  7392   0.720E-04 0.215E-04
CGA:   8    -0.362517393950E+03   -0.23963E-04   -0.24050E-04  7392   0.414E-04-0.121E-05
CGA:   9    -0.362517403531E+03   -0.95804E-05   -0.95528E-05  7392   0.164E-04 0.871E-05
  50 F= -.36251740E+03 E0= -.36251740E+03  d E =0.443559E-03  mag=    16.0000
       N       E                     dE             d eps       ncg     rms          ort
SDA:   1    -0.362423405790E+03    0.93988E-01    0.00000E+00  7392   0.220E+00 0.000E+00
CGA:   2    -0.362500093804E+03   -0.76688E-01   -0.76641E-01  7392   0.792E-01 0.374E-03
CGA:   3    -0.362512939981E+03   -0.12846E-01   -0.12847E-01  7392   0.210E-01 0.233E-05
CGA:   4    -0.362516349976E+03   -0.34100E-02   -0.34041E-02  7392   0.427E-02-0.869E-04
CGA:   5    -0.362517185793E+03   -0.83582E-03   -0.83242E-03  7392   0.131E-02-0.106E-03
CGA:   6    -0.362517427640E+03   -0.24185E-03   -0.24120E-03  7392   0.357E-03-0.172E-04
CGA:   7    -0.362517505513E+03   -0.77873E-04   -0.77920E-04  7392   0.127E-03 0.152E-04
CGA:   8    -0.362517541230E+03   -0.35717E-04   -0.35385E-04  7392   0.573E-04 0.782E-05
CGA:   9    -0.362517560321E+03   -0.19091E-04   -0.18926E-04  7392   0.278E-04 0.191E-05
CGA:  10    -0.362517569667E+03   -0.93465E-05   -0.94143E-05  7392   0.135E-04-0.727E-06
  51 F= -.36251757E+03 E0= -.36251757E+03  d E =-.166137E-03  mag=    16.0000
       N       E                     dE             d eps       ncg     rms          ort
SDA:   1    -0.362375165583E+03    0.14239E+00    0.00000E+00  7392   0.334E+00 0.000E+00
CGA:   2    -0.362490345876E+03   -0.11518E+00   -0.11516E+00  7392   0.109E+00 0.117E-03
CGA:   3    -0.362509907552E+03   -0.19562E-01   -0.19575E-01  7392   0.330E-01 0.199E-03
CGA:   4    -0.362515027860E+03   -0.51203E-02   -0.51110E-02  7392   0.691E-02-0.111E-03
CGA:   5    -0.362516423670E+03   -0.13958E-02   -0.13923E-02  7392   0.213E-02-0.106E-03
CGA:   6    -0.362516832261E+03   -0.40859E-03   -0.40779E-03  7392   0.689E-03-0.206E-04
CGA:   7    -0.362516996861E+03   -0.16460E-03   -0.16451E-03  7392   0.270E-03 0.103E-04
CGA:   8    -0.362517068381E+03   -0.71519E-04   -0.71074E-04  7392   0.117E-03 0.164E-04
CGA:   9    -0.362517107205E+03   -0.38824E-04   -0.38998E-04  7392   0.537E-04-0.218E-05
CGA:  10    -0.362517124904E+03   -0.17700E-04   -0.18786E-04  7392   0.304E-04-0.921E-05
CGA:  11    -0.362517130812E+03   -0.59075E-05   -0.59544E-05  7392   0.135E-04 0.673E-05
  52 F= -.36251713E+03 E0= -.36251713E+03  d E =0.438855E-03  mag=    16.0000
       N       E                     dE             d eps       ncg     rms          ort
SDA:   1    -0.362490401632E+03    0.26723E-01    0.00000E+00  7392   0.662E-01 0.000E+00
CGA:   2    -0.362511787092E+03   -0.21385E-01   -0.21396E-01  7392   0.246E-01-0.134E-03
CGA:   3    -0.362516310568E+03   -0.45235E-02   -0.45122E-02  7392   0.834E-02-0.180E-03
CGA:   4    -0.362517616000E+03   -0.13054E-02   -0.13099E-02  7392   0.172E-02 0.500E-04
CGA:   5    -0.362517934139E+03   -0.31814E-03   -0.32342E-03  7392   0.530E-03 0.997E-04
CGA:   6    -0.362518046048E+03   -0.11191E-03   -0.11324E-03  7392   0.187E-03 0.375E-04
CGA:   7    -0.362518101199E+03   -0.55150E-04   -0.55306E-04  7392   0.906E-04-0.385E-05
CGA:   8    -0.362518126458E+03   -0.25260E-04   -0.25680E-04  7392   0.477E-04-0.812E-05
CGA:   9    -0.362518137352E+03   -0.10894E-04   -0.10851E-04  7392   0.172E-04 0.445E-05
CGA:  10    -0.362518141059E+03   -0.37067E-05   -0.39184E-05  7392   0.791E-05 0.655E-05
  53 F= -.36251814E+03 E0= -.36251814E+03  d E =-.101025E-02  mag=    16.0000
       N       E                     dE             d eps       ncg     rms          ort
SDA:   1    -0.362455907317E+03    0.62230E-01    0.00000E+00  7392   0.145E+00 0.000E+00
CGA:   2    -0.362507531877E+03   -0.51625E-01   -0.51610E-01  7392   0.454E-01 0.126E-03
CGA:   3    -0.362515476434E+03   -0.79446E-02   -0.79401E-02  7392   0.127E-01-0.662E-04
CGA:   4    -0.362517430484E+03   -0.19540E-02   -0.19521E-02  7392   0.258E-02-0.230E-04
CGA:   5    -0.362517948535E+03   -0.51805E-03   -0.51728E-03  7392   0.762E-03-0.209E-04
CGA:   6    -0.362518087275E+03   -0.13874E-03   -0.13893E-03  7392   0.216E-03 0.355E-05
CGA:   7    -0.362518138110E+03   -0.50834E-04   -0.50832E-04  7392   0.848E-04 0.703E-05
CGA:   8    -0.362518161725E+03   -0.23616E-04   -0.23393E-04  7392   0.404E-04 0.668E-05
CGA:   9    -0.362518173900E+03   -0.12175E-04   -0.11852E-04  7392   0.178E-04 0.880E-05
CGA:  10    -0.362518180892E+03   -0.69912E-05   -0.67097E-05  7392   0.104E-04 0.390E-05
  54 F= -.36251818E+03 E0= -.36251818E+03  d E =-.398324E-04  mag=    16.0000
