       N       E                     dE             d eps       ncg     rms          rms(c)
DAV:   1     0.254729051348E+04    0.25473E+04   -0.12692E+05 40400   0.158E+03
DAV:   2    -0.129250301204E+02   -0.25602E+04   -0.23525E+04 41240   0.434E+02
DAV:   3    -0.304533209600E+03   -0.29161E+03   -0.28664E+03 43224   0.161E+02
DAV:   4    -0.313421325616E+03   -0.88881E+01   -0.88042E+01 50376   0.284E+01
DAV:   5    -0.313778344863E+03   -0.35702E+00   -0.35654E+00 59096   0.443E+00    0.838E+01
DAV:   6    -0.288498767049E+03    0.25280E+02   -0.31487E+02 51160   0.781E+01    0.119E+02
DAV:   7    -0.267476454119E+03    0.21022E+02   -0.17652E+02 42128   0.117E+02    0.356E+01
DAV:   8    -0.261202586859E+03    0.62739E+01   -0.22165E+01 50408   0.218E+01    0.132E+01
DAV:   9    -0.260423138270E+03    0.77945E+00   -0.39213E+00 50288   0.929E+00    0.441E+00
DAV:  10    -0.260513009238E+03   -0.89871E-01   -0.95803E-01 44840   0.410E+00    0.310E+00
DAV:  11    -0.260507797377E+03    0.52119E-02   -0.13233E-01 43192   0.253E+00    0.221E+00
DAV:  12    -0.260500707673E+03    0.70897E-02   -0.50024E-02 50712   0.143E+00    0.110E+00
DAV:  13    -0.260502925360E+03   -0.22177E-02   -0.32452E-02 43504   0.853E-01    0.429E-01
DAV:  14    -0.260502440133E+03    0.48523E-03   -0.54475E-03 46552   0.477E-01    0.259E-01
DAV:  15    -0.260502610085E+03   -0.16995E-03   -0.23373E-03 47928   0.251E-01    0.176E-01
DAV:  16    -0.260502608962E+03    0.11228E-05   -0.56242E-04 42984   0.165E-01    0.832E-02
DAV:  17    -0.260502643963E+03   -0.35001E-04   -0.13486E-04 46712   0.553E-02    0.306E-02
DAV:  18    -0.260502667269E+03   -0.23306E-04   -0.48519E-05 41288   0.277E-02    0.189E-02
DAV:  19    -0.260502669885E+03   -0.26159E-05   -0.90667E-06 27696   0.198E-02
   1 F= -.26050267E+03 E0= -.26050267E+03  d E =-.260503E+03  mag=    12.0006
