       N       E                     dE             d eps       ncg     rms          rms(c)
DAV:   1     0.223147865665E+04    0.22315E+04   -0.12770E+05 25136   0.145E+03
DAV:   2    -0.193476120826E+03   -0.24250E+04   -0.22622E+04 26340   0.399E+02
DAV:   3    -0.426681725355E+03   -0.23321E+03   -0.22957E+03 27912   0.136E+02
DAV:   4    -0.433535733775E+03   -0.68540E+01   -0.67633E+01 32112   0.220E+01
DAV:   5    -0.433893350518E+03   -0.35762E+00   -0.35631E+00 38032   0.385E+00    0.347E+01
DAV:   6    -0.358498884673E+03    0.75394E+02   -0.22682E+01 28056   0.131E+01    0.101E+03
DAV:   7    -0.354896702023E+03    0.36022E+01   -0.10831E+01 28584   0.611E+00    0.453E+01
DAV:   8    -0.354750662954E+03    0.14604E+00   -0.55734E-01 29560   0.283E+00    0.354E+02
DAV:   9    -0.354780763412E+03   -0.30100E-01   -0.77003E-02 29856   0.756E-01    0.157E+02
DAV:  10    -0.354695890439E+03    0.84873E-01   -0.65789E-01 32952   0.188E+00    0.175E+02
DAV:  11    -0.354668716354E+03    0.27174E-01   -0.11653E-01 32168   0.134E+00    0.329E+01
DAV:  12    -0.354660042006E+03    0.86743E-02   -0.70235E-02 29528   0.784E-01    0.288E+01
DAV:  13    -0.354657665687E+03    0.23763E-02   -0.21349E-02 30296   0.416E-01    0.289E+01
DAV:  14    -0.354656574211E+03    0.10915E-02   -0.36507E-03 28368   0.158E-01    0.201E+01
DAV:  15    -0.354656335030E+03    0.23918E-03   -0.37546E-04 31936   0.790E-02    0.235E+01
DAV:  16    -0.354656403601E+03   -0.68571E-04   -0.98013E-04 29864   0.100E-01    0.201E+01
DAV:  17    -0.354655825966E+03    0.57764E-03   -0.37817E-04 28728   0.729E-02    0.206E+01
DAV:  18    -0.354655879503E+03   -0.53537E-04   -0.81901E-05 24176   0.326E-02    0.180E+01
DAV:  19    -0.354655716631E+03    0.16287E-03   -0.15311E-05 18288   0.129E-02    0.168E+01
DAV:  20    -0.354655545994E+03    0.17064E-03   -0.31334E-05 19696   0.156E-02    0.144E+01
DAV:  21    -0.354655213767E+03    0.33223E-03   -0.99027E-05 22032   0.299E-02    0.978E+00
DAV:  22    -0.354655139621E+03    0.74146E-04   -0.68322E-05 20488   0.229E-02    0.593E+00
DAV:  23    -0.354655191721E+03   -0.52100E-04   -0.19462E-05 19032   0.146E-02    0.319E+00
DAV:  24    -0.354655121583E+03    0.70138E-04   -0.59021E-06 16800   0.122E-02    0.396E+00
DAV:  25    -0.354655137034E+03   -0.15451E-04   -0.38027E-06 16352   0.924E-03    0.405E+00
DAV:  26    -0.354655105792E+03    0.31243E-04   -0.16668E-06 15296   0.582E-03    0.424E+00
DAV:  27    -0.354655125037E+03   -0.19245E-04   -0.98460E-07 15048   0.392E-03    0.357E+00
DAV:  28    -0.354655133144E+03   -0.81068E-05   -0.15618E-06 15136   0.386E-03
   1 F= -.35465513E+03 E0= -.35465105E+03  d E =-.354655E+03  mag=    14.0000
