       N       E                     dE             d eps       ncg     rms          rms(c)
DAV:   1     0.291048128796E+04    0.29105E+04   -0.13862E+05 26832   0.150E+03
DAV:   2     0.107236644894E+02   -0.28998E+04   -0.27125E+04 27936   0.425E+02
DAV:   3    -0.311305080712E+03   -0.32203E+03   -0.31752E+03 30528   0.152E+02
DAV:   4    -0.322539156952E+03   -0.11234E+02   -0.11053E+02 36072   0.276E+01
DAV:   5    -0.323316824615E+03   -0.77767E+00   -0.77646E+00 44868   0.502E+00    0.699E+01
DAV:   6    -0.284771650767E+03    0.38545E+02   -0.29242E+02 34080   0.491E+01    0.588E+01
DAV:   7    -0.284912306735E+03   -0.14066E+00   -0.69300E+01 33024   0.478E+01    0.417E+01
DAV:   8    -0.286576896031E+03   -0.16646E+01   -0.43209E+01 31296   0.264E+01    0.387E+01
DAV:   9    -0.283972868198E+03    0.26040E+01   -0.71258E+01 32748   0.145E+01    0.210E+01
DAV:  10    -0.282667547400E+03    0.13053E+01   -0.11416E+01 33468   0.103E+01    0.214E+01
DAV:  11    -0.283116898725E+03   -0.44935E+00   -0.27989E+00 30936   0.526E+00    0.128E+01
DAV:  12    -0.283486064877E+03   -0.36917E+00   -0.30303E-01 32412   0.277E+00    0.956E+00
DAV:  13    -0.283917265703E+03   -0.43120E+00   -0.23375E+00 36084   0.305E+00    0.123E+01
DAV:  14    -0.283733797697E+03    0.18347E+00   -0.52129E-01 32844   0.298E+00    0.576E+00
DAV:  15    -0.283725261911E+03    0.85358E-02   -0.76419E-01 35904   0.201E+00    0.374E+00
DAV:  16    -0.283710470424E+03    0.14791E-01   -0.12995E-01 31260   0.129E+00    0.112E+00
DAV:  17    -0.283713526772E+03   -0.30563E-02   -0.66832E-02 36396   0.577E-01    0.238E+00
DAV:  18    -0.283713968017E+03   -0.44124E-03   -0.12140E-02 29364   0.302E-01    0.281E+00
DAV:  19    -0.283708984801E+03    0.49832E-02   -0.10874E-02 36792   0.254E-01    0.157E+00
DAV:  20    -0.283712628093E+03   -0.36433E-02   -0.61164E-02 35460   0.455E-01    0.170E+00
DAV:  21    -0.283711697577E+03    0.93052E-03   -0.10397E-02 31932   0.403E-01    0.123E+00
DAV:  22    -0.283710678143E+03    0.10194E-02   -0.81159E-03 35724   0.182E-01    0.424E-01
DAV:  23    -0.283711085003E+03   -0.40686E-03   -0.41161E-03 34272   0.148E-01    0.212E-01
DAV:  24    -0.283711192243E+03   -0.10724E-03   -0.18322E-04 28644   0.674E-02    0.175E-01
DAV:  25    -0.283711168053E+03    0.24190E-04   -0.48287E-04 32340   0.492E-02    0.577E-02
DAV:  26    -0.283711184280E+03   -0.16227E-04   -0.43526E-05 19920   0.195E-02    0.753E-02
DAV:  27    -0.283711178679E+03    0.56015E-05   -0.35402E-05 18792   0.161E-02
   1 F= -.28371118E+03 E0= -.28370776E+03  d E =-.283711E+03  mag=    18.0000
       N       E                     dE             d eps       ncg     rms          rms(c)
DAV:   1    -0.283712684893E+03   -0.15006E-02   -0.51129E-04 28944   0.989E-02    0.146E-02
DAV:   2    -0.283712690681E+03   -0.57883E-05   -0.60236E-05 27168   0.226E-02    0.390E-02
DAV:   3    -0.283712689289E+03    0.13920E-05   -0.13221E-05 15996   0.124E-02    0.120E-02
DAV:   4    -0.283712689818E+03   -0.52938E-06   -0.60438E-06 15552   0.668E-03
   2 F= -.28371269E+03 E0= -.28370925E+03  d E =-.151114E-02  mag=    18.0000
       N       E                     dE             d eps       ncg     rms          rms(c)
DAV:   1    -0.283761727297E+03   -0.49038E-01   -0.81816E-01 27384   0.398E+00    0.501E-01
DAV:   2    -0.283769098040E+03   -0.73707E-02   -0.77016E-02 29304   0.763E-01    0.689E-01
DAV:   3    -0.283769629596E+03   -0.53156E-03   -0.17997E-02 35040   0.341E-01    0.108E+00
DAV:   4    -0.283768683483E+03    0.94611E-03   -0.36057E-03 32556   0.224E-01    0.318E-01
DAV:   5    -0.283768829415E+03   -0.14593E-03   -0.24841E-03 34908   0.103E-01    0.271E-01
DAV:   6    -0.283768869682E+03   -0.40267E-04   -0.84738E-04 31500   0.922E-02    0.345E-01
DAV:   7    -0.283768735068E+03    0.13461E-03   -0.54213E-04 30096   0.730E-02    0.911E-02
DAV:   8    -0.283768778637E+03   -0.43570E-04   -0.31952E-04 27420   0.300E-02    0.130E-01
DAV:   9    -0.283768769070E+03    0.95668E-05   -0.55602E-05 20052   0.307E-02
   3 F= -.28376877E+03 E0= -.28376522E+03  d E =-.560793E-01  mag=    18.0000
       N       E                     dE             d eps       ncg     rms          rms(c)
DAV:   1    -0.283829670789E+03   -0.60892E-01   -0.60900E+00 27216   0.110E+01    0.126E+00
DAV:   2    -0.283885727078E+03   -0.56056E-01   -0.58114E-01 28884   0.208E+00    0.197E+00
DAV:   3    -0.283888073140E+03   -0.23461E-02   -0.12111E-01 35148   0.900E-01    0.249E+00
DAV:   4    -0.283883433472E+03    0.46397E-02   -0.19233E-02 33672   0.539E-01    0.755E-01
DAV:   5    -0.283884244722E+03   -0.81125E-03   -0.19103E-02 35556   0.260E-01    0.923E-01
DAV:   6    -0.283883945482E+03    0.29924E-03   -0.37580E-03 31572   0.234E-01    0.768E-01
DAV:   7    -0.283883381189E+03    0.56429E-03   -0.40174E-03 36744   0.158E-01    0.173E-01
DAV:   8    -0.283883600095E+03   -0.21891E-03   -0.83440E-04 33708   0.644E-02    0.169E-01
DAV:   9    -0.283883598065E+03    0.20301E-05   -0.18948E-04 29856   0.490E-02    0.700E-02
DAV:  10    -0.283883599605E+03   -0.15402E-05   -0.88457E-05 25992   0.243E-02
   4 F= -.28388360E+03 E0= -.28387992E+03  d E =-.114831E+00  mag=    18.0000
       N       E                     dE             d eps       ncg     rms          rms(c)
DAV:   1    -0.283892243764E+03   -0.86457E-02   -0.10767E+01 27168   0.146E+01    0.151E+00
DAV:   2    -0.283989493833E+03   -0.97250E-01   -0.10017E+00 28416   0.272E+00    0.256E+00
DAV:   3    -0.283993006832E+03   -0.35130E-02   -0.19316E-01 35856   0.114E+00    0.296E+00
DAV:   4    -0.283986797760E+03    0.62091E-02   -0.28148E-02 33720   0.645E-01    0.944E-01
DAV:   5    -0.283987732403E+03   -0.93464E-03   -0.20049E-02 35148   0.313E-01    0.883E-01
DAV:   6    -0.283988076322E+03   -0.34392E-03   -0.88017E-03 35004   0.258E-01    0.125E+00
DAV:   7    -0.283986291313E+03    0.17850E-02   -0.57651E-03 34188   0.222E-01    0.350E-01
DAV:   8    -0.283986811968E+03   -0.52065E-03   -0.36062E-03 37356   0.927E-02    0.339E-01
DAV:   9    -0.283986836203E+03   -0.24235E-04   -0.27896E-04 30408   0.769E-02    0.219E-01
DAV:  10    -0.283986804530E+03    0.31673E-04   -0.47281E-04 33612   0.422E-02    0.515E-02
DAV:  11    -0.283986830204E+03   -0.25675E-04   -0.78405E-05 19320   0.241E-02    0.869E-02
DAV:  12    -0.283986822538E+03    0.76666E-05   -0.26204E-05 17028   0.190E-02
   5 F= -.28398682E+03 E0= -.28398306E+03  d E =-.103223E+00  mag=    18.0000
       N       E                     dE             d eps       ncg     rms          rms(c)
DAV:   1    -0.283929779886E+03    0.57050E-01   -0.14867E+01 27168   0.172E+01    0.181E+00
DAV:   2    -0.284066410136E+03   -0.13663E+00   -0.14071E+00 27552   0.326E+00    0.318E+00
DAV:   3    -0.284069414719E+03   -0.30046E-02   -0.26851E-01 35796   0.136E+00    0.333E+00
DAV:   4    -0.284061862311E+03    0.75524E-02   -0.38348E-02 33708   0.757E-01    0.105E+00
DAV:   5    -0.284062752179E+03   -0.88987E-03   -0.21284E-02 35496   0.362E-01    0.857E-01
DAV:   6    -0.284062670186E+03    0.81992E-04   -0.89073E-03 35748   0.298E-01    0.980E-01
DAV:   7    -0.284061381916E+03    0.12883E-02   -0.60476E-03 34272   0.252E-01    0.172E-01
DAV:   8    -0.284061715320E+03   -0.33340E-03   -0.14606E-03 34992   0.889E-02    0.212E-01
DAV:   9    -0.284061693480E+03    0.21840E-04   -0.39564E-04 35616   0.626E-02    0.503E-02
DAV:  10    -0.284061706614E+03   -0.13134E-04   -0.10181E-04 27024   0.282E-02    0.530E-02
DAV:  11    -0.284061704094E+03    0.25199E-05   -0.21072E-05 16452   0.179E-02
   6 F= -.28406170E+03 E0= -.28405793E+03  d E =-.748816E-01  mag=    18.0000
       N       E                     dE             d eps       ncg     rms          rms(c)
DAV:   1    -0.283895237876E+03    0.16647E+00   -0.25193E+01 27672   0.225E+01    0.209E+00
DAV:   2    -0.284109725163E+03   -0.21449E+00   -0.22311E+00 27228   0.420E+00    0.418E+00
DAV:   3    -0.284107161505E+03    0.25637E-02   -0.34746E-01 35076   0.163E+00    0.321E+00
DAV:   4    -0.284102060220E+03    0.51013E-02   -0.36110E-02 33828   0.814E-01    0.117E+00
DAV:   5    -0.284102380916E+03   -0.32070E-03   -0.38838E-02 35928   0.425E-01    0.118E+00
DAV:   6    -0.284102535889E+03   -0.15497E-03   -0.19477E-02 37548   0.427E-01    0.155E+00
DAV:   7    -0.284099837385E+03    0.26985E-02   -0.12400E-02 34116   0.318E-01    0.317E-01
DAV:   8    -0.284100569311E+03   -0.73193E-03   -0.32748E-03 36468   0.144E-01    0.293E-01
DAV:   9    -0.284100577213E+03   -0.79018E-05   -0.63132E-04 31524   0.948E-02    0.110E-01
DAV:  10    -0.284100583456E+03   -0.62425E-05   -0.20614E-04 31440   0.345E-02    0.410E-02
DAV:  11    -0.284100589969E+03   -0.65130E-05   -0.21571E-05 17916   0.159E-02
   7 F= -.28410059E+03 E0= -.28409675E+03  d E =-.388859E-01  mag=    18.0000
       N       E                     dE             d eps       ncg     rms          rms(c)
DAV:   1    -0.284037718817E+03    0.62865E-01   -0.14188E+01 27528   0.150E+01    0.150E+00
DAV:   2    -0.284132034773E+03   -0.94316E-01   -0.10108E+00 27696   0.298E+00    0.500E+00
DAV:   3    -0.284110698404E+03    0.21336E-01   -0.17602E-01 31872   0.137E+00    0.863E-01
DAV:   4    -0.284117841797E+03   -0.71434E-02   -0.37084E-02 35136   0.511E-01    0.187E+00
DAV:   5    -0.284114508694E+03    0.33331E-02   -0.14116E-02 32016   0.419E-01    0.101E+00
DAV:   6    -0.284114856413E+03   -0.34772E-03   -0.31924E-02 36684   0.309E-01    0.116E+00
DAV:   7    -0.284114421247E+03    0.43517E-03   -0.26950E-03 30312   0.239E-01    0.107E+00
DAV:   8    -0.284113506270E+03    0.91498E-03   -0.32675E-03 36228   0.142E-01    0.443E-01
DAV:   9    -0.284113803269E+03   -0.29700E-03   -0.25205E-03 35292   0.710E-02    0.153E-01
DAV:  10    -0.284113958975E+03   -0.15571E-03   -0.21366E-04 27252   0.466E-02    0.222E-01
DAV:  11    -0.284113907082E+03    0.51893E-04   -0.19333E-04 27372   0.359E-02    0.725E-02
DAV:  12    -0.284113924495E+03   -0.17413E-04   -0.17004E-04 17796   0.178E-02    0.796E-02
DAV:  13    -0.284113924796E+03   -0.30025E-06   -0.94730E-06 17304   0.164E-02
   8 F= -.28411392E+03 E0= -.28411008E+03  d E =-.133348E-01  mag=    18.0000
       N       E                     dE             d eps       ncg     rms          rms(c)
DAV:   1    -0.284104043484E+03    0.98810E-02   -0.32251E+00 26784   0.712E+00    0.734E-01
DAV:   2    -0.284127183517E+03   -0.23140E-01   -0.24034E-01 29364   0.141E+00    0.278E+00
DAV:   3    -0.284120866851E+03    0.63167E-02   -0.41903E-02 31152   0.658E-01    0.384E-01
DAV:   4    -0.284123150278E+03   -0.22834E-02   -0.10708E-02 32808   0.208E-01    0.872E-01
DAV:   5    -0.284122722149E+03    0.42813E-03   -0.28777E-03 30840   0.188E-01    0.654E-01
DAV:   6    -0.284122367339E+03    0.35481E-03   -0.48842E-03 35988   0.132E-01    0.256E-01
DAV:   7    -0.284122643075E+03   -0.27574E-03   -0.16590E-03 31152   0.104E-01    0.586E-01
DAV:   8    -0.284122376418E+03    0.26666E-03   -0.43272E-04 32160   0.776E-02    0.403E-01
DAV:   9    -0.284122309920E+03    0.66498E-04   -0.80188E-04 34320   0.447E-02    0.887E-02
DAV:  10    -0.284122395444E+03   -0.85524E-04   -0.28066E-04 23508   0.269E-02    0.104E-01
DAV:  11    -0.284122396916E+03   -0.14719E-05   -0.12072E-05 18732   0.198E-02
   9 F= -.28412240E+03 E0= -.28411849E+03  d E =-.847212E-02  mag=    18.0000
       N       E                     dE             d eps       ncg     rms          rms(c)
DAV:   1    -0.284118741122E+03    0.36543E-02   -0.98504E-01 26784   0.434E+00    0.483E-01
DAV:   2    -0.284128168986E+03   -0.94279E-02   -0.98144E-02 28680   0.870E-01    0.172E+00
DAV:   3    -0.284125860737E+03    0.23082E-02   -0.19196E-02 32736   0.423E-01    0.253E-01
DAV:   4    -0.284126816408E+03   -0.95567E-03   -0.37207E-03 32640   0.163E-01    0.538E-01
DAV:   5    -0.284126577530E+03    0.23888E-03   -0.12722E-03 31188   0.126E-01    0.367E-01
DAV:   6    -0.284126489152E+03    0.88378E-04   -0.21446E-03 33456   0.852E-02    0.208E-01
DAV:   7    -0.284126570079E+03   -0.80927E-04   -0.47665E-04 30708   0.625E-02    0.365E-01
DAV:   8    -0.284126452460E+03    0.11762E-03   -0.27714E-04 30840   0.486E-02    0.191E-01
DAV:   9    -0.284126459650E+03   -0.71903E-05   -0.31569E-04 22620   0.265E-02    0.306E-02
DAV:  10    -0.284126485227E+03   -0.25577E-04   -0.43105E-05 18264   0.165E-02    0.703E-02
DAV:  11    -0.284126481208E+03    0.40194E-05   -0.67787E-06 16416   0.103E-02
  10 F= -.28412648E+03 E0= -.28412256E+03  d E =-.408429E-02  mag=    18.0000
       N       E                     dE             d eps       ncg     rms          rms(c)
DAV:   1    -0.284107731238E+03    0.18754E-01   -0.44265E+00 26784   0.817E+00    0.888E-01
DAV:   2    -0.284142794618E+03   -0.35063E-01   -0.37398E-01 28632   0.173E+00    0.404E+00
DAV:   3    -0.284128150598E+03    0.14644E-01   -0.72313E-02 30240   0.917E-01    0.884E-01
DAV:   4    -0.284132148794E+03   -0.39982E-02   -0.27652E-02 34584   0.358E-01    0.106E+00
DAV:   5    -0.284131954582E+03    0.19421E-03   -0.49410E-03 30048   0.267E-01    0.910E-01
DAV:   6    -0.284131123339E+03    0.83124E-03   -0.59532E-03 35148   0.154E-01    0.207E-01
DAV:   7    -0.284131816163E+03   -0.69282E-03   -0.59168E-03 34872   0.150E-01    0.825E-01
DAV:   8    -0.284131427044E+03    0.38912E-03   -0.61627E-04 30072   0.112E-01    0.712E-01
DAV:   9    -0.284131086082E+03    0.34096E-03   -0.15218E-03 36420   0.696E-02    0.267E-01
DAV:  10    -0.284131246170E+03   -0.16009E-03   -0.80875E-04 29184   0.393E-02    0.699E-02
DAV:  11    -0.284131308794E+03   -0.62625E-04   -0.60665E-05 20712   0.233E-02    0.126E-01
DAV:  12    -0.284131291645E+03    0.17149E-04   -0.10457E-04 19416   0.234E-02    0.881E-03
DAV:  13    -0.284131298706E+03   -0.70614E-05   -0.18506E-05 16416   0.967E-03
  11 F= -.28413130E+03 E0= -.28412734E+03  d E =-.481750E-02  mag=    18.0000
       N       E                     dE             d eps       ncg     rms          rms(c)
DAV:   1    -0.284024516481E+03    0.10678E+00   -0.21624E+01 26784   0.176E+01    0.188E+00
DAV:   2    -0.284176779057E+03   -0.15226E+00   -0.16215E+00 27612   0.366E+00    0.676E+00
DAV:   3    -0.284132515896E+03    0.44263E-01   -0.27143E-01 30276   0.182E+00    0.153E+00
DAV:   4    -0.284143338851E+03   -0.10823E-01   -0.88789E-02 34356   0.763E-01    0.199E+00
DAV:   5    -0.284140027739E+03    0.33111E-02   -0.12473E-02 30564   0.516E-01    0.108E+00
DAV:   6    -0.284139619813E+03    0.40793E-03   -0.30864E-02 35796   0.310E-01    0.100E+00
DAV:   7    -0.284140235392E+03   -0.61558E-03   -0.79267E-03 31032   0.276E-01    0.152E+00
DAV:   8    -0.284138162943E+03    0.20724E-02   -0.47900E-03 33936   0.199E-01    0.726E-01
DAV:   9    -0.284138461083E+03   -0.29814E-03   -0.49617E-03 35940   0.946E-02    0.149E-01
DAV:  10    -0.284138833765E+03   -0.37268E-03   -0.48516E-04 28272   0.653E-02    0.252E-01
DAV:  11    -0.284138778116E+03    0.55648E-04   -0.18363E-04 30744   0.414E-02    0.110E-01
DAV:  12    -0.284138791253E+03   -0.13137E-04   -0.28398E-04 20232   0.230E-02    0.903E-02
DAV:  13    -0.284138793364E+03   -0.21106E-05   -0.19612E-05 18576   0.225E-02
  12 F= -.28413879E+03 E0= -.28413483E+03  d E =-.749466E-02  mag=    18.0000
       N       E                     dE             d eps       ncg     rms          rms(c)
DAV:   1    -0.284016339832E+03    0.12245E+00   -0.20105E+01 26796   0.178E+01    0.186E+00
DAV:   2    -0.284172813962E+03   -0.15647E+00   -0.16222E+00 27276   0.362E+00    0.592E+00
DAV:   3    -0.284141482053E+03    0.31332E-01   -0.26363E-01 31128   0.168E+00    0.142E+00
DAV:   4    -0.284151963676E+03   -0.10482E-01   -0.69136E-02 33192   0.775E-01    0.206E+00
DAV:   5    -0.284147387285E+03    0.45764E-02   -0.13556E-02 31152   0.523E-01    0.911E-01
DAV:   6    -0.284147853890E+03   -0.46660E-03   -0.30053E-02 35544   0.308E-01    0.114E+00
DAV:   7    -0.284147778671E+03    0.75219E-04   -0.76083E-03 31260   0.286E-01    0.144E+00
DAV:   8    -0.284145901652E+03    0.18770E-02   -0.60761E-03 34428   0.194E-01    0.521E-01
DAV:   9    -0.284146482870E+03   -0.58122E-03   -0.40523E-03 35424   0.826E-02    0.228E-01
DAV:  10    -0.284146706357E+03   -0.22349E-03   -0.22395E-04 28272   0.611E-02    0.281E-01
DAV:  11    -0.284146628315E+03    0.78043E-04   -0.31731E-04 32580   0.416E-02    0.792E-02
DAV:  12    -0.284146660719E+03   -0.32404E-04   -0.24080E-04 18336   0.191E-02    0.107E-01
DAV:  13    -0.284146657085E+03    0.36342E-05   -0.24020E-05 18504   0.225E-02
  13 F= -.28414666E+03 E0= -.28414269E+03  d E =-.786372E-02  mag=    18.0000
       N       E                     dE             d eps       ncg     rms          rms(c)
DAV:   1    -0.284111195099E+03    0.35466E-01   -0.47468E+00 26880   0.987E+00    0.110E+00
DAV:   2    -0.284160919976E+03   -0.49725E-01   -0.50670E-01 28344   0.196E+00    0.346E+00
DAV:   3    -0.284151662730E+03    0.92572E-02   -0.97740E-02 31044   0.939E-01    0.791E-01
DAV:   4    -0.284155640188E+03   -0.39775E-02   -0.15504E-02 32400   0.417E-01    0.115E+00
DAV:   5    -0.284154212605E+03    0.14276E-02   -0.46115E-03 31764   0.280E-01    0.607E-01
DAV:   6    -0.284154250045E+03   -0.37440E-04   -0.10168E-02 35580   0.176E-01    0.626E-01
DAV:   7    -0.284154217370E+03    0.32674E-04   -0.13201E-03 30696   0.144E-01    0.696E-01
DAV:   8    -0.284153795870E+03    0.42150E-03   -0.22082E-03 35376   0.105E-01    0.213E-01
DAV:   9    -0.284153963623E+03   -0.16775E-03   -0.87191E-04 34692   0.540E-02    0.141E-01
DAV:  10    -0.284153994821E+03   -0.31198E-04   -0.43968E-05 22548   0.301E-02    0.145E-01
DAV:  11    -0.284153974490E+03    0.20331E-04   -0.94595E-05 20448   0.216E-02    0.374E-02
DAV:  12    -0.284153984415E+03   -0.99245E-05   -0.59094E-05 17232   0.107E-02
  14 F= -.28415398E+03 E0= -.28415003E+03  d E =-.732733E-02  mag=    18.0000
       N       E                     dE             d eps       ncg     rms          rms(c)
DAV:   1    -0.284149359226E+03    0.46153E-02   -0.10391E+00 26784   0.400E+00    0.518E-01
DAV:   2    -0.284159745523E+03   -0.10386E-01   -0.11066E-01 28248   0.894E-01    0.266E+00
DAV:   3    -0.284153752549E+03    0.59930E-02   -0.24756E-02 30036   0.506E-01    0.579E-01
DAV:   4    -0.284155791675E+03   -0.20391E-02   -0.14039E-02 34128   0.152E-01    0.798E-01
DAV:   5    -0.284155534092E+03    0.25758E-03   -0.13812E-03 29628   0.162E-01    0.404E-01
DAV:   6    -0.284155526243E+03    0.78490E-05   -0.31630E-03 36432   0.106E-01    0.289E-01
DAV:   7    -0.284155847897E+03   -0.32165E-03   -0.18851E-03 33348   0.719E-02    0.679E-01
DAV:   8    -0.284155494597E+03    0.35330E-03   -0.30234E-04 28560   0.644E-02    0.486E-01
DAV:   9    -0.284155397187E+03    0.97410E-04   -0.10786E-03 34944   0.486E-02    0.103E-01
DAV:  10    -0.284155524206E+03   -0.12702E-03   -0.34325E-04 21960   0.232E-02    0.113E-01
DAV:  11    -0.284155532465E+03   -0.82595E-05   -0.10984E-05 18852   0.201E-02
  15 F= -.28415553E+03 E0= -.28415159E+03  d E =-.154805E-02  mag=    18.0000
       N       E                     dE             d eps       ncg     rms          rms(c)
DAV:   1    -0.284155143103E+03    0.38110E-03   -0.38063E-01 26748   0.251E+00    0.245E-01
DAV:   2    -0.284157913921E+03   -0.27708E-02   -0.27636E-02 27420   0.473E-01    0.591E-01
DAV:   3    -0.284157784483E+03    0.12944E-03   -0.52887E-03 31620   0.196E-01    0.374E-01
DAV:   4    -0.284157814043E+03   -0.29560E-04   -0.85441E-04 30180   0.106E-01    0.223E-01
DAV:   5    -0.284157766034E+03    0.48009E-04   -0.29133E-04 28056   0.603E-02    0.615E-02
DAV:   6    -0.284157767455E+03   -0.14207E-05   -0.18959E-04 29208   0.336E-02    0.101E-01
DAV:   7    -0.284157755969E+03    0.11486E-04   -0.82900E-05 24840   0.317E-02    0.559E-02
DAV:   8    -0.284157757045E+03   -0.10764E-05   -0.71642E-05 16824   0.179E-02
  16 F= -.28415776E+03 E0= -.28415383E+03  d E =-.222458E-02  mag=    18.0000
       N       E                     dE             d eps       ncg     rms          rms(c)
DAV:   1    -0.284084457138E+03    0.73299E-01   -0.13177E+01 26760   0.146E+01    0.187E+00
DAV:   2    -0.284222981209E+03   -0.13852E+00   -0.15253E+00 28152   0.336E+00    0.789E+00
DAV:   3    -0.284159384844E+03    0.63596E-01   -0.28853E-01 29652   0.198E+00    0.215E+00
DAV:   4    -0.284168527338E+03   -0.91425E-02   -0.89252E-02 33060   0.714E-01    0.135E+00
DAV:   5    -0.284170407284E+03   -0.18799E-02   -0.10332E-02 29712   0.417E-01    0.130E+00
DAV:   6    -0.284168364194E+03    0.20431E-02   -0.13655E-02 35328   0.260E-01    0.319E-01
DAV:   7    -0.284169862970E+03   -0.14988E-02   -0.12836E-02 33336   0.221E-01    0.134E+00
DAV:   8    -0.284168351525E+03    0.15114E-02   -0.24142E-03 31224   0.187E-01    0.827E-01
DAV:   9    -0.284168180796E+03    0.17073E-03   -0.46049E-03 37056   0.997E-02    0.968E-02
DAV:  10    -0.284168603893E+03   -0.42310E-03   -0.77918E-04 28188   0.559E-02    0.247E-01
DAV:  11    -0.284168577415E+03    0.26478E-04   -0.65681E-05 26004   0.372E-02    0.180E-01
DAV:  12    -0.284168558944E+03    0.18470E-04   -0.36959E-04 22776   0.296E-02    0.530E-02
DAV:  13    -0.284168579037E+03   -0.20092E-04   -0.22458E-05 18396   0.189E-02    0.776E-02
DAV:  14    -0.284168573772E+03    0.52645E-05   -0.93865E-06 16416   0.875E-03
  17 F= -.28416857E+03 E0= -.28416473E+03  d E =-.108167E-01  mag=    18.0000
       N       E                     dE             d eps       ncg     rms          rms(c)
DAV:   1    -0.283989309225E+03    0.17927E+00   -0.20527E+01 26448   0.153E+01    0.503E+00
DAV:   2    -0.284338628667E+03   -0.34932E+00   -0.47833E+00 32004   0.583E+00    0.142E+01
DAV:   3    -0.284051457453E+03    0.28717E+00   -0.10811E+00 31056   0.441E+00    0.449E+00
DAV:   4    -0.284058813288E+03   -0.73558E-02   -0.27626E-01 32616   0.137E+00    0.233E+00
DAV:   5    -0.284062550503E+03   -0.37372E-02   -0.23871E-02 30072   0.655E-01    0.206E+00
DAV:   6    -0.284055600761E+03    0.69497E-02   -0.47238E-02 33660   0.567E-01    0.892E-01
DAV:   7    -0.284056004688E+03   -0.40393E-03   -0.11072E-02 35004   0.370E-01    0.273E-01
DAV:   8    -0.284056204390E+03   -0.19970E-03   -0.29553E-03 32100   0.169E-01    0.307E-01
DAV:   9    -0.284056125555E+03    0.78834E-04   -0.69859E-04 35304   0.777E-02    0.113E-01
DAV:  10    -0.284056138425E+03   -0.12870E-04   -0.28684E-04 30828   0.416E-02    0.129E-01
DAV:  11    -0.284056120265E+03    0.18160E-04   -0.15436E-04 26268   0.348E-02    0.257E-02
DAV:  12    -0.284056126655E+03   -0.63901E-05   -0.18597E-05 18792   0.182E-02
  18 F= -.28405613E+03 E0= -.28405211E+03  d E =0.112447E+00  mag=    18.0000
       N       E                     dE             d eps       ncg     rms          rms(c)
DAV:   1    -0.284139268804E+03   -0.83149E-01   -0.17055E+00 26088   0.345E+00    0.201E+00
DAV:   2    -0.284206515041E+03   -0.67246E-01   -0.84392E-01 34116   0.217E+00    0.766E+00
DAV:   3    -0.284133594663E+03    0.72920E-01   -0.24591E-01 31980   0.184E+00    0.183E+00
DAV:   4    -0.284141940867E+03   -0.83462E-02   -0.66968E-02 34032   0.560E-01    0.117E+00
DAV:   5    -0.284143307455E+03   -0.13666E-02   -0.61737E-03 29028   0.299E-01    0.132E+00
DAV:   6    -0.284141421200E+03    0.18863E-02   -0.17960E-02 34176   0.266E-01    0.332E-01
DAV:   7    -0.284142365245E+03   -0.94404E-03   -0.27937E-03 33600   0.168E-01    0.693E-01
DAV:   8    -0.284141851246E+03    0.51400E-03   -0.15351E-03 33732   0.122E-01    0.229E-01
DAV:   9    -0.284141959307E+03   -0.10806E-03   -0.33424E-04 35052   0.436E-02    0.717E-02
DAV:  10    -0.284142003689E+03   -0.44382E-04   -0.28988E-04 21012   0.247E-02    0.141E-01
DAV:  11    -0.284141994186E+03    0.95031E-05   -0.20559E-05 18996   0.227E-02
  19 F= -.28414199E+03 E0= -.28413800E+03  d E =-.858675E-01  mag=    18.0000
       N       E                     dE             d eps       ncg     rms          rms(c)
DAV:   1    -0.284167016605E+03   -0.25013E-01   -0.51177E-01 25920   0.190E+00    0.118E+00
DAV:   2    -0.284197024190E+03   -0.30008E-01   -0.35992E-01 34068   0.130E+00    0.580E+00
DAV:   3    -0.284160739851E+03    0.36284E-01   -0.12108E-01 31728   0.117E+00    0.136E+00
DAV:   4    -0.284167060521E+03   -0.63207E-02   -0.34058E-02 33636   0.326E-01    0.801E-01
DAV:   5    -0.284168608836E+03   -0.15483E-02   -0.35366E-03 28680   0.191E-01    0.112E+00
DAV:   6    -0.284167275370E+03    0.13335E-02   -0.49665E-03 33648   0.156E-01    0.293E-01
DAV:   7    -0.284167852394E+03   -0.57702E-03   -0.43575E-03 35112   0.107E-01    0.498E-01
DAV:   8    -0.284167739818E+03    0.11258E-03   -0.31341E-04 30012   0.846E-02    0.347E-01
DAV:   9    -0.284167679278E+03    0.60540E-04   -0.31514E-04 31524   0.381E-02    0.154E-01
DAV:  10    -0.284167711378E+03   -0.32100E-04   -0.29027E-04 18468   0.221E-02    0.523E-02
DAV:  11    -0.284167735923E+03   -0.24545E-04   -0.46916E-05 18264   0.145E-02    0.115E-01
DAV:  12    -0.284167724181E+03    0.11742E-04   -0.14736E-05 16416   0.120E-02    0.708E-02
DAV:  13    -0.284167723184E+03    0.99678E-06   -0.35325E-05 15564   0.783E-03
  20 F= -.28416772E+03 E0= -.28416379E+03  d E =-.257290E-01  mag=    18.0000
       N       E                     dE             d eps       ncg     rms          rms(c)
DAV:   1    -0.284179580182E+03   -0.11856E-01   -0.76382E-01 25920   0.236E+00    0.147E+00
DAV:   2    -0.284227371333E+03   -0.47791E-01   -0.57939E-01 33900   0.165E+00    0.709E+00
DAV:   3    -0.284170858843E+03    0.56512E-01   -0.17615E-01 31764   0.147E+00    0.177E+00
DAV:   4    -0.284179315613E+03   -0.84568E-02   -0.51805E-02 33804   0.387E-01    0.931E-01
DAV:   5    -0.284182160611E+03   -0.28450E-02   -0.63481E-03 28800   0.222E-01    0.146E+00
DAV:   6    -0.284179918686E+03    0.22419E-02   -0.67539E-03 33204   0.193E-01    0.460E-01
DAV:   7    -0.284180702693E+03   -0.78401E-03   -0.70535E-03 35280   0.130E-01    0.541E-01
DAV:   8    -0.284180681612E+03    0.21081E-04   -0.40291E-04 29856   0.100E-01    0.420E-01
DAV:   9    -0.284180580301E+03    0.10131E-03   -0.34572E-04 33564   0.435E-02    0.220E-01
DAV:  10    -0.284180604961E+03   -0.24659E-04   -0.48367E-04 22104   0.279E-02    0.487E-02
DAV:  11    -0.284180651170E+03   -0.46210E-04   -0.98957E-05 19848   0.175E-02    0.148E-01
DAV:  12    -0.284180633839E+03    0.17332E-04   -0.15066E-05 17436   0.150E-02    0.105E-01
DAV:  13    -0.284180628889E+03    0.49494E-05   -0.61447E-05 16296   0.108E-02
  21 F= -.28418063E+03 E0= -.28417677E+03  d E =-.129057E-01  mag=    18.0000
       N       E                     dE             d eps       ncg     rms          rms(c)
DAV:   1    -0.284181471168E+03   -0.83733E-03   -0.30829E-02 26568   0.572E-01    0.261E-01
DAV:   2    -0.284183650440E+03   -0.21793E-02   -0.25712E-02 33996   0.318E-01    0.185E+00
DAV:   3    -0.284180639904E+03    0.30105E-02   -0.97508E-03 30900   0.296E-01    0.477E-01
DAV:   4    -0.284181461721E+03   -0.82182E-03   -0.51097E-03 32124   0.747E-02    0.379E-01
DAV:   5    -0.284181748361E+03   -0.28664E-03   -0.59174E-04 26568   0.675E-02    0.561E-01
DAV:   6    -0.284181522715E+03    0.22565E-03   -0.17919E-04 23604   0.436E-02    0.409E-01
DAV:   7    -0.284181458152E+03    0.64564E-04   -0.61369E-04 26568   0.357E-02    0.118E-01
DAV:   8    -0.284181541439E+03   -0.83288E-04   -0.36282E-04 20856   0.231E-02    0.106E-01
DAV:   9    -0.284181561780E+03   -0.20340E-04   -0.26888E-05 18396   0.155E-02    0.152E-01
DAV:  10    -0.284181545003E+03    0.16777E-04   -0.15220E-05 16416   0.111E-02    0.107E-01
DAV:  11    -0.284181541460E+03    0.35425E-05   -0.43953E-05 15732   0.841E-03
  22 F= -.28418154E+03 E0= -.28417769E+03  d E =-.912571E-03  mag=    18.0000
       N       E                     dE             d eps       ncg     rms          rms(c)
DAV:   1    -0.284182532561E+03   -0.98756E-03   -0.11417E-01 27648   0.127E+00    0.317E-01
DAV:   2    -0.284185874924E+03   -0.33424E-02   -0.38663E-02 32328   0.437E-01    0.215E+00
DAV:   3    -0.284181825834E+03    0.40491E-02   -0.13242E-02 30300   0.357E-01    0.572E-01
DAV:   4    -0.284182994906E+03   -0.11691E-02   -0.89338E-03 33096   0.105E-01    0.565E-01
DAV:   5    -0.284183333125E+03   -0.33822E-03   -0.80838E-04 27756   0.964E-02    0.714E-01
DAV:   6    -0.284182958726E+03    0.37440E-03   -0.40139E-04 27420   0.568E-02    0.484E-01
DAV:   7    -0.284182889479E+03    0.69247E-04   -0.15763E-03 33576   0.567E-02    0.509E-02
DAV:   8    -0.284183073611E+03   -0.18413E-03   -0.60627E-04 27144   0.329E-02    0.265E-01
DAV:   9    -0.284183047262E+03    0.26350E-04   -0.15112E-05 20436   0.253E-02    0.252E-01
DAV:  10    -0.284183002049E+03    0.45212E-04   -0.14464E-04 17964   0.204E-02    0.108E-01
DAV:  11    -0.284183018777E+03   -0.16727E-04   -0.81462E-05 18264   0.107E-02    0.762E-03
DAV:  12    -0.284183027833E+03   -0.90563E-05   -0.64445E-06 16332   0.647E-03
  23 F= -.28418303E+03 E0= -.28417916E+03  d E =-.148637E-02  mag=    18.0000
       N       E                     dE             d eps       ncg     rms          rms(c)
DAV:   1    -0.284183400110E+03   -0.38133E-03   -0.84883E-03 27672   0.368E-01    0.350E-02
DAV:   2    -0.284183449065E+03   -0.48956E-04   -0.49729E-04 28284   0.664E-02    0.267E-02
DAV:   3    -0.284183451014E+03   -0.19485E-05   -0.32896E-05 21504   0.195E-02    0.440E-02
DAV:   4    -0.284183448986E+03    0.20278E-05   -0.16422E-05 16428   0.134E-02
  24 F= -.28418345E+03 E0= -.28417958E+03  d E =-.421153E-03  mag=    18.0000
       N       E                     dE             d eps       ncg     rms          rms(c)
DAV:   1    -0.284183984330E+03   -0.53332E-03   -0.42785E-01 27636   0.250E+00    0.223E-01
DAV:   2    -0.284186296272E+03   -0.23119E-02   -0.24054E-02 28212   0.456E-01    0.560E-01
DAV:   3    -0.284186178937E+03    0.11734E-03   -0.45925E-03 31704   0.178E-01    0.338E-01
DAV:   4    -0.284186159928E+03    0.19009E-04   -0.28564E-04 30792   0.829E-02    0.167E-01
DAV:   5    -0.284186145024E+03    0.14904E-04   -0.52117E-04 30924   0.478E-02    0.128E-01
DAV:   6    -0.284186173515E+03   -0.28492E-04   -0.33269E-04 27276   0.441E-02    0.250E-01
DAV:   7    -0.284186114349E+03    0.59167E-04   -0.14301E-04 22956   0.361E-02    0.110E-01
DAV:   8    -0.284186124002E+03   -0.96535E-05   -0.13541E-04 18396   0.161E-02    0.293E-02
DAV:   9    -0.284186132730E+03   -0.87283E-05   -0.11826E-05 16920   0.130E-02
  25 F= -.28418613E+03 E0= -.28418225E+03  d E =-.268374E-02  mag=    18.0000
       N       E                     dE             d eps       ncg     rms          rms(c)
DAV:   1    -0.284184658491E+03    0.14655E-02   -0.10659E+00 27612   0.392E+00    0.340E-01
DAV:   2    -0.284190754648E+03   -0.60962E-02   -0.63663E-02 27756   0.733E-01    0.126E+00
DAV:   3    -0.284189591594E+03    0.11631E-02   -0.10779E-02 30912   0.305E-01    0.187E-01
DAV:   4    -0.284190051947E+03   -0.46035E-03   -0.12666E-03 32856   0.102E-01    0.354E-01
DAV:   5    -0.284189941387E+03    0.11056E-03   -0.48422E-04 31860   0.791E-02    0.239E-01
DAV:   6    -0.284189921175E+03    0.20212E-04   -0.13228E-03 30300   0.651E-02    0.224E-01
DAV:   7    -0.284189929713E+03   -0.85376E-05   -0.12679E-04 28272   0.463E-02    0.264E-01
DAV:   8    -0.284189867766E+03    0.61946E-04   -0.24416E-04 26400   0.332E-02    0.856E-02
DAV:   9    -0.284189892308E+03   -0.24542E-04   -0.13578E-04 18264   0.179E-02    0.496E-02
DAV:  10    -0.284189898702E+03   -0.63936E-05   -0.77757E-06 16716   0.115E-02
  26 F= -.28418990E+03 E0= -.28418600E+03  d E =-.376597E-02  mag=    18.0000
       N       E                     dE             d eps       ncg     rms          rms(c)
DAV:   1    -0.284093043059E+03    0.96849E-01   -0.25162E+01 27624   0.184E+01    0.154E+00
DAV:   2    -0.284221436914E+03   -0.12839E+00   -0.13427E+00 27132   0.342E+00    0.506E+00
DAV:   3    -0.284201642704E+03    0.19794E-01   -0.19439E-01 30912   0.137E+00    0.995E-01
DAV:   4    -0.284208259799E+03   -0.66171E-02   -0.24217E-02 33048   0.507E-01    0.163E+00
DAV:   5    -0.284205514565E+03    0.27452E-02   -0.99699E-03 33024   0.376E-01    0.854E-01
DAV:   6    -0.284205958350E+03   -0.44378E-03   -0.31503E-02 36348   0.306E-01    0.137E+00
DAV:   7    -0.284204927558E+03    0.10308E-02   -0.30028E-03 29100   0.256E-01    0.111E+00
DAV:   8    -0.284204127264E+03    0.80029E-03   -0.51886E-03 35616   0.151E-01    0.312E-01
DAV:   9    -0.284204668374E+03   -0.54111E-03   -0.23238E-03 31968   0.723E-02    0.260E-01
DAV:  10    -0.284204725054E+03   -0.56680E-04   -0.94171E-05 25692   0.514E-02    0.237E-01
DAV:  11    -0.284204672713E+03    0.52341E-04   -0.38745E-04 32784   0.399E-02    0.254E-02
DAV:  12    -0.284204707630E+03   -0.34916E-04   -0.12664E-04 18264   0.164E-02    0.113E-01
DAV:  13    -0.284204697116E+03    0.10513E-04   -0.29803E-05 18216   0.198E-02    0.494E-02
DAV:  14    -0.284204698657E+03   -0.15406E-05   -0.29407E-05 15888   0.802E-03
  27 F= -.28420470E+03 E0= -.28420070E+03  d E =-.148000E-01  mag=    18.0000
       N       E                     dE             d eps       ncg     rms          rms(c)
DAV:   1    -0.284102642144E+03    0.10205E+00   -0.92415E+00 26796   0.106E+01    0.233E+00
DAV:   2    -0.284185057232E+03   -0.82415E-01   -0.94573E-01 31536   0.263E+00    0.679E+00
DAV:   3    -0.284138268885E+03    0.46788E-01   -0.30323E-01 30816   0.178E+00    0.150E+00
DAV:   4    -0.284152009510E+03   -0.13741E-01   -0.85851E-02 32544   0.906E-01    0.269E+00
DAV:   5    -0.284142710172E+03    0.92993E-02   -0.23281E-02 31188   0.687E-01    0.102E+00
DAV:   6    -0.284143635957E+03   -0.92579E-03   -0.29495E-02 35268   0.374E-01    0.108E+00
DAV:   7    -0.284144027549E+03   -0.39159E-03   -0.74746E-03 32532   0.296E-01    0.136E+00
DAV:   8    -0.284142501533E+03    0.15260E-02   -0.38086E-03 34620   0.157E-01    0.611E-01
DAV:   9    -0.284142808574E+03   -0.30704E-03   -0.25776E-03 35808   0.863E-02    0.108E-01
DAV:  10    -0.284143099564E+03   -0.29099E-03   -0.78652E-04 28848   0.527E-02    0.277E-01
DAV:  11    -0.284143048827E+03    0.50737E-04   -0.12774E-04 27876   0.461E-02    0.157E-01
DAV:  12    -0.284143052166E+03   -0.33389E-05   -0.43059E-04 26412   0.315E-02    0.102E-01
DAV:  13    -0.284143059931E+03   -0.77643E-05   -0.23250E-05 20484   0.259E-02
  28 F= -.28414306E+03 E0= -.28413905E+03  d E =0.616387E-01  mag=    18.0000
       N       E                     dE             d eps       ncg     rms          rms(c)
DAV:   1    -0.284188265794E+03   -0.45214E-01   -0.11453E+00 26328   0.307E+00    0.100E+00
DAV:   2    -0.284200694488E+03   -0.12429E-01   -0.14197E-01 32148   0.926E-01    0.363E+00
DAV:   3    -0.284188657294E+03    0.12037E-01   -0.63301E-02 31020   0.735E-01    0.364E-01
DAV:   4    -0.284193227904E+03   -0.45706E-02   -0.20333E-02 32136   0.278E-01    0.144E+00
DAV:   5    -0.284191703343E+03    0.15246E-02   -0.49646E-03 30744   0.273E-01    0.109E+00
DAV:   6    -0.284190903416E+03    0.79993E-03   -0.64611E-03 35592   0.154E-01    0.130E-01
DAV:   7    -0.284191550620E+03   -0.64720E-03   -0.23464E-03 32496   0.868E-02    0.447E-01
DAV:   8    -0.284191442988E+03    0.10763E-03   -0.37031E-04 31872   0.771E-02    0.297E-01
DAV:   9    -0.284191401859E+03    0.41129E-04   -0.32230E-04 31488   0.306E-02    0.919E-02
DAV:  10    -0.284191437476E+03   -0.35617E-04   -0.10179E-04 18144   0.172E-02    0.318E-02
DAV:  11    -0.284191446916E+03   -0.94400E-05   -0.13740E-05 17556   0.121E-02
  29 F= -.28419145E+03 E0= -.28418745E+03  d E =-.483870E-01  mag=    18.0000
       N       E                     dE             d eps       ncg     rms          rms(c)
DAV:   1    -0.284203370930E+03   -0.11933E-01   -0.40853E-01 27228   0.187E+00    0.645E-01
DAV:   2    -0.284210273145E+03   -0.69022E-02   -0.79396E-02 32376   0.643E-01    0.298E+00
DAV:   3    -0.284202285873E+03    0.79873E-02   -0.33022E-02 30912   0.540E-01    0.455E-01
DAV:   4    -0.284205513579E+03   -0.32277E-02   -0.20650E-02 34536   0.189E-01    0.123E+00
DAV:   5    -0.284204430611E+03    0.10830E-02   -0.24007E-03 29628   0.206E-01    0.724E-01
DAV:   6    -0.284204267857E+03    0.16275E-03   -0.22089E-03 35880   0.746E-02    0.238E-01
DAV:   7    -0.284204551067E+03   -0.28321E-03   -0.21324E-03 33900   0.858E-02    0.338E-01
DAV:   8    -0.284204538365E+03    0.12702E-04   -0.12143E-04 28728   0.579E-02    0.294E-01
DAV:   9    -0.284204468989E+03    0.69375E-04   -0.39801E-04 27984   0.338E-02    0.552E-02
DAV:  10    -0.284204512795E+03   -0.43805E-04   -0.14391E-04 18636   0.149E-02    0.852E-02
DAV:  11    -0.284204515289E+03   -0.24943E-05   -0.50628E-06 17496   0.123E-02
  30 F= -.28420452E+03 E0= -.28420052E+03  d E =-.130684E-01  mag=    18.0000
       N       E                     dE             d eps       ncg     rms          rms(c)
DAV:   1    -0.284206949386E+03   -0.24366E-02   -0.18953E-01 27612   0.139E+00    0.495E-01
DAV:   2    -0.284212589238E+03   -0.56399E-02   -0.65191E-02 32136   0.550E-01    0.284E+00
DAV:   3    -0.284205421396E+03    0.71678E-02   -0.25210E-02 30816   0.482E-01    0.614E-01
DAV:   4    -0.284208083071E+03   -0.26617E-02   -0.20245E-02 34032   0.159E-01    0.108E+00
DAV:   5    -0.284207766279E+03    0.31679E-03   -0.12806E-03 28656   0.174E-01    0.839E-01
DAV:   6    -0.284207391436E+03    0.37484E-03   -0.97051E-04 33408   0.834E-02    0.556E-01
DAV:   7    -0.284207364304E+03    0.27132E-04   -0.25716E-03 34440   0.775E-02    0.985E-02
DAV:   8    -0.284207630828E+03   -0.26652E-03   -0.78315E-04 28224   0.459E-02    0.354E-01
DAV:   9    -0.284207552039E+03    0.78789E-04   -0.48228E-05 22092   0.343E-02    0.285E-01
DAV:  10    -0.284207505446E+03    0.46592E-04   -0.24607E-04 23280   0.247E-02    0.997E-02
DAV:  11    -0.284207537390E+03   -0.31944E-04   -0.16447E-04 18216   0.138E-02    0.536E-02
DAV:  12    -0.284207548437E+03   -0.11047E-04   -0.12142E-05 17400   0.104E-02    0.819E-02
DAV:  13    -0.284207542801E+03    0.56357E-05   -0.77077E-06 16416   0.727E-03
  31 F= -.28420754E+03 E0= -.28420354E+03  d E =-.302751E-02  mag=    18.0000
       N       E                     dE             d eps       ncg     rms          rms(c)
DAV:   1    -0.284208264921E+03   -0.71648E-03   -0.20968E-02 28020   0.580E-01    0.138E-01
DAV:   2    -0.284208887719E+03   -0.62280E-03   -0.72917E-03 30696   0.189E-01    0.936E-01
DAV:   3    -0.284208138281E+03    0.74944E-03   -0.26442E-03 30048   0.155E-01    0.236E-01
DAV:   4    -0.284208367985E+03   -0.22970E-03   -0.15676E-03 28980   0.431E-02    0.234E-01
DAV:   5    -0.284208391469E+03   -0.23484E-04   -0.61687E-05 23784   0.434E-02    0.204E-01
DAV:   6    -0.284208369066E+03    0.22403E-04   -0.28128E-05 16764   0.143E-02    0.148E-01
DAV:   7    -0.284208361359E+03    0.77071E-05   -0.20316E-04 21276   0.220E-02    0.268E-02
DAV:   8    -0.284208380923E+03   -0.19564E-04   -0.48036E-05 17940   0.123E-02    0.948E-02
DAV:   9    -0.284208375948E+03    0.49757E-05   -0.19652E-06 16392   0.743E-03
  32 F= -.28420838E+03 E0= -.28420437E+03  d E =-.833147E-03  mag=    18.0000
       N       E                     dE             d eps       ncg     rms          rms(c)
DAV:   1    -0.284209365876E+03   -0.98495E-03   -0.38097E-02 27648   0.795E-01    0.888E-02
DAV:   2    -0.284209630808E+03   -0.26493E-03   -0.28885E-03 28104   0.154E-01    0.256E-01
DAV:   3    -0.284209582141E+03    0.48667E-04   -0.52900E-04 30504   0.646E-02    0.590E-02
DAV:   4    -0.284209600098E+03   -0.17957E-04   -0.59627E-05 22500   0.236E-02    0.975E-02
DAV:   5    -0.284209591155E+03    0.89429E-05   -0.53331E-05 18300   0.226E-02
  33 F= -.28420959E+03 E0= -.28420554E+03  d E =-.121521E-02  mag=    18.0000
       N       E                     dE             d eps       ncg     rms          rms(c)
DAV:   1    -0.284210299486E+03   -0.69939E-03   -0.22069E-02 27648   0.595E-01    0.957E-02
DAV:   2    -0.284210698519E+03   -0.39903E-03   -0.46249E-03 29748   0.165E-01    0.698E-01
DAV:   3    -0.284210294348E+03    0.40417E-03   -0.12617E-03 30180   0.113E-01    0.221E-01
DAV:   4    -0.284210393644E+03   -0.99297E-04   -0.93321E-04 25344   0.349E-02    0.149E-01
DAV:   5    -0.284210426924E+03   -0.33280E-04   -0.50140E-05 21696   0.340E-02    0.158E-01
DAV:   6    -0.284210409606E+03    0.17318E-04   -0.26094E-05 16920   0.160E-02    0.112E-01
DAV:   7    -0.284210406248E+03    0.33584E-05   -0.17267E-04 20232   0.205E-02    0.501E-02
DAV:   8    -0.284210418010E+03   -0.11763E-04   -0.27302E-05 17568   0.124E-02    0.938E-02
DAV:   9    -0.284210412280E+03    0.57304E-05   -0.27513E-06 16164   0.724E-03
  34 F= -.28421041E+03 E0= -.28420638E+03  d E =-.821125E-03  mag=    18.0000
       N       E                     dE             d eps       ncg     rms          rms(c)
DAV:   1    -0.284211282837E+03   -0.86483E-03   -0.32416E-01 27648   0.226E+00    0.247E-01
DAV:   2    -0.284213924815E+03   -0.26420E-02   -0.29038E-02 28476   0.469E-01    0.124E+00
DAV:   3    -0.284212667518E+03    0.12573E-02   -0.64715E-03 30384   0.248E-01    0.213E-01
DAV:   4    -0.284213139233E+03   -0.47172E-03   -0.26009E-03 34056   0.841E-02    0.396E-01
DAV:   5    -0.284213130247E+03    0.89866E-05   -0.36665E-04 28416   0.748E-02    0.405E-01
DAV:   6    -0.284212986129E+03    0.14412E-03   -0.55249E-04 25128   0.482E-02    0.120E-01
DAV:   7    -0.284213076708E+03   -0.90579E-04   -0.90579E-04 31860   0.430E-02    0.243E-01
DAV:   8    -0.284213073428E+03    0.32797E-05   -0.68522E-05 22956   0.349E-02
  35 F= -.28421307E+03 E0= -.28420906E+03  d E =-.266115E-02  mag=    18.0000
       N       E                     dE             d eps       ncg     rms          rms(c)
DAV:   1    -0.284211506958E+03    0.15697E-02   -0.80308E-01 27528   0.338E+00    0.112E+00
DAV:   2    -0.284255802173E+03   -0.44295E-01   -0.51213E-01 33360   0.152E+00    0.705E+00
DAV:   3    -0.284204684295E+03    0.51118E-01   -0.13288E-01 30636   0.131E+00    0.226E+00
DAV:   4    -0.284211053927E+03   -0.63696E-02   -0.41102E-02 31692   0.274E-01    0.305E-01
DAV:   5    -0.284215584723E+03   -0.45308E-02   -0.10701E-02 29544   0.179E-01    0.114E+00
DAV:   6    -0.284214560712E+03    0.10240E-02   -0.13863E-03 29136   0.148E-01    0.716E-01
DAV:   7    -0.284214323500E+03    0.23721E-03   -0.30833E-03 36408   0.876E-02    0.114E-01
DAV:   8    -0.284214667809E+03   -0.34431E-03   -0.12345E-03 30804   0.517E-02    0.321E-01
DAV:   9    -0.284214680798E+03   -0.12989E-04   -0.74143E-05 21840   0.337E-02    0.378E-01
DAV:  10    -0.284214582273E+03    0.98526E-04   -0.14964E-04 23712   0.287E-02    0.237E-01
DAV:  11    -0.284214580452E+03    0.18208E-05   -0.24832E-04 17544   0.187E-02    0.482E-02
DAV:  12    -0.284214612365E+03   -0.31914E-04   -0.55748E-05 18264   0.117E-02    0.341E-02
DAV:  13    -0.284214616427E+03   -0.40619E-05   -0.35241E-06 16680   0.708E-03
  36 F= -.28421462E+03 E0= -.28421054E+03  d E =-.154300E-02  mag=    18.0000
       N       E                     dE             d eps       ncg     rms          rms(c)
DAV:   1    -0.284199192610E+03    0.15420E-01   -0.41571E+00 26484   0.755E+00    0.874E-01
DAV:   2    -0.284236444829E+03   -0.37252E-01   -0.40941E-01 29160   0.168E+00    0.507E+00
DAV:   3    -0.284214366453E+03    0.22078E-01   -0.79798E-02 29628   0.994E-01    0.152E+00
DAV:   4    -0.284218976236E+03   -0.46098E-02   -0.38953E-02 35664   0.348E-01    0.958E-01
DAV:   5    -0.284220678370E+03   -0.17021E-02   -0.71736E-03 29724   0.275E-01    0.122E+00
DAV:   6    -0.284219040327E+03    0.16380E-02   -0.48272E-03 32424   0.176E-01    0.389E-01
DAV:   7    -0.284219735727E+03   -0.69540E-03   -0.91098E-03 35904   0.153E-01    0.757E-01
DAV:   8    -0.284219799809E+03   -0.64082E-04   -0.96809E-04 30108   0.114E-01    0.893E-01
DAV:   9    -0.284219168464E+03    0.63134E-03   -0.15420E-03 34920   0.818E-02    0.421E-01
DAV:  10    -0.284219309292E+03   -0.14083E-03   -0.11221E-03 34224   0.430E-02    0.320E-02
DAV:  11    -0.284219445768E+03   -0.13648E-03   -0.26513E-04 20796   0.235E-02    0.162E-01
DAV:  12    -0.284219425054E+03    0.20714E-04   -0.72158E-05 20160   0.285E-02    0.606E-02
DAV:  13    -0.284219429266E+03   -0.42121E-05   -0.45998E-05 16092   0.103E-02
  37 F= -.28421943E+03 E0= -.28421534E+03  d E =-.481284E-02  mag=    18.0000
       N       E                     dE             d eps       ncg     rms          rms(c)
DAV:   1    -0.283468877741E+03    0.75055E+00   -0.69114E+01 27420   0.280E+01    0.666E+00
DAV:   2    -0.283995036868E+03   -0.52616E+00   -0.66880E+00 31968   0.732E+00    0.130E+01
DAV:   3    -0.283725771278E+03    0.26927E+00   -0.10432E+00 30192   0.485E+00    0.317E+00
DAV:   4    -0.283772698736E+03   -0.46927E-01   -0.88409E-01 35616   0.219E+00    0.711E+00
DAV:   5    -0.283701539213E+03    0.71160E-01   -0.23044E-01 32328   0.201E+00    0.163E+00
DAV:   6    -0.283716065400E+03   -0.14526E-01   -0.19209E-01 34860   0.770E-01    0.304E+00
DAV:   7    -0.283708511334E+03    0.75541E-02   -0.33976E-02 31332   0.731E-01    0.177E+00
DAV:   8    -0.283706960938E+03    0.15504E-02   -0.18933E-02 35076   0.282E-01    0.273E-01
DAV:   9    -0.283708626744E+03   -0.16658E-02   -0.17459E-03 30852   0.179E-01    0.297E-01
DAV:  10    -0.283708674475E+03   -0.47731E-04   -0.21858E-03 36120   0.132E-01    0.383E-01
DAV:  11    -0.283708516204E+03    0.15827E-03   -0.75339E-04 34560   0.915E-02    0.719E-02
DAV:  12    -0.283708573285E+03   -0.57081E-04   -0.30524E-04 32688   0.336E-02    0.107E-01
DAV:  13    -0.283708575127E+03   -0.18419E-05   -0.17051E-05 20172   0.218E-02
  38 F= -.28370858E+03 E0= -.28370429E+03  d E =0.510854E+00  mag=    18.0000
       N       E                     dE             d eps       ncg     rms          rms(c)
DAV:   1    -0.284072988099E+03   -0.36441E+00   -0.34654E+01 27396   0.158E+01    0.479E+00
DAV:   2    -0.284225833345E+03   -0.15285E+00   -0.18551E+00 31536   0.332E+00    0.596E+00
DAV:   3    -0.284229146143E+03   -0.33128E-02   -0.11792E+00 32016   0.252E+00    0.698E+00
DAV:   4    -0.284193571648E+03    0.35574E-01   -0.26251E-01 31188   0.178E+00    0.516E+00
DAV:   5    -0.284169208083E+03    0.24364E-01   -0.16775E-01 32484   0.128E+00    0.272E+00
DAV:   6    -0.284168875935E+03    0.33215E-03   -0.12007E-01 36036   0.848E-01    0.193E+00
DAV:   7    -0.284167909835E+03    0.96610E-03   -0.14820E-02 32400   0.522E-01    0.983E-01
DAV:   8    -0.284167638882E+03    0.27095E-03   -0.15309E-02 35304   0.243E-01    0.482E-01
DAV:   9    -0.284167963667E+03   -0.32478E-03   -0.10912E-03 30264   0.155E-01    0.264E-01
DAV:  10    -0.284167941859E+03    0.21807E-04   -0.16509E-03 36852   0.843E-02    0.211E-01
DAV:  11    -0.284167945726E+03   -0.38665E-05   -0.20427E-04 29964   0.646E-02    0.135E-01
DAV:  12    -0.284167934194E+03    0.11532E-04   -0.11262E-04 27984   0.273E-02    0.336E-02
DAV:  13    -0.284167947208E+03   -0.13013E-04   -0.87324E-05 17280   0.171E-02    0.739E-02
DAV:  14    -0.284167943868E+03    0.33400E-05   -0.19585E-05 16860   0.159E-02
  39 F= -.28416794E+03 E0= -.28416367E+03  d E =-.459369E+00  mag=    18.0000
       N       E                     dE             d eps       ncg     rms          rms(c)
DAV:   1    -0.284188020889E+03   -0.20074E-01   -0.51220E-01 26388   0.187E+00    0.721E-01
DAV:   2    -0.284196362045E+03   -0.83412E-02   -0.98998E-02 31644   0.677E-01    0.323E+00
DAV:   3    -0.284186657869E+03    0.97042E-02   -0.38524E-02 30624   0.587E-01    0.575E-01
DAV:   4    -0.284190570215E+03   -0.39123E-02   -0.23395E-02 34536   0.278E-01    0.134E+00
DAV:   5    -0.284190245006E+03    0.32521E-03   -0.38606E-03 29736   0.236E-01    0.144E+00
DAV:   6    -0.284188495917E+03    0.17491E-02   -0.41649E-03 33048   0.142E-01    0.620E-01
DAV:   7    -0.284188992536E+03   -0.49662E-03   -0.53464E-03 35424   0.104E-01    0.286E-01
DAV:   8    -0.284189381586E+03   -0.38905E-03   -0.92636E-04 29604   0.723E-02    0.532E-01
DAV:   9    -0.284189171552E+03    0.21003E-03   -0.21809E-04 27792   0.487E-02    0.365E-01
DAV:  10    -0.284189128994E+03    0.42558E-04   -0.38953E-04 25932   0.289E-02    0.129E-01
DAV:  11    -0.284189183233E+03   -0.54238E-04   -0.23114E-04 18984   0.172E-02    0.545E-02
DAV:  12    -0.284189200500E+03   -0.17268E-04   -0.14484E-05 18348   0.135E-02    0.823E-02
DAV:  13    -0.284189196303E+03    0.41968E-05   -0.33629E-06 15900   0.667E-03
  40 F= -.28418920E+03 E0= -.28418496E+03  d E =-.212524E-01  mag=    18.0000
       N       E                     dE             d eps       ncg     rms          rms(c)
DAV:   1    -0.284195565655E+03   -0.63652E-02   -0.44944E+00 27564   0.755E+00    0.221E+00
DAV:   2    -0.284300492946E+03   -0.10493E+00   -0.13068E+00 31728   0.273E+00    0.926E+00
DAV:   3    -0.284200995834E+03    0.99497E-01   -0.31065E-01 30336   0.209E+00    0.281E+00
DAV:   4    -0.284210228170E+03   -0.92323E-02   -0.11910E-01 32952   0.745E-01    0.135E+00
DAV:   5    -0.284216994074E+03   -0.67659E-02   -0.25031E-02 31404   0.382E-01    0.237E+00
DAV:   6    -0.284210340483E+03    0.66536E-02   -0.16474E-02 32544   0.381E-01    0.736E-01
DAV:   7    -0.284212404246E+03   -0.20638E-02   -0.22414E-02 35304   0.218E-01    0.106E+00
DAV:   8    -0.284212171080E+03    0.23317E-03   -0.12444E-03 29748   0.176E-01    0.795E-01
DAV:   9    -0.284211758075E+03    0.41300E-03   -0.21473E-03 37236   0.868E-02    0.250E-01
DAV:  10    -0.284212023170E+03   -0.26509E-03   -0.15508E-03 32964   0.458E-02    0.228E-01
DAV:  11    -0.284212081776E+03   -0.58606E-04   -0.66011E-05 21324   0.351E-02    0.274E-01
DAV:  12    -0.284212010430E+03    0.71346E-04   -0.20261E-04 24060   0.312E-02    0.101E-01
DAV:  13    -0.284212031663E+03   -0.21233E-04   -0.12483E-04 17232   0.135E-02    0.309E-02
DAV:  14    -0.284212040124E+03   -0.84611E-05   -0.46550E-06 16500   0.105E-02
  41 F= -.28421204E+03 E0= -.28420789E+03  d E =-.228438E-01  mag=    18.0000
       N       E                     dE             d eps       ncg     rms          rms(c)
DAV:   1    -0.284213352974E+03   -0.13213E-02   -0.43664E-01 27096   0.186E+00    0.605E-01
DAV:   2    -0.284218347414E+03   -0.49944E-02   -0.55334E-02 30936   0.557E-01    0.236E+00
DAV:   3    -0.284213178001E+03    0.51694E-02   -0.22561E-02 30432   0.454E-01    0.272E-01
DAV:   4    -0.284215460403E+03   -0.22824E-02   -0.14119E-02 32256   0.149E-01    0.116E+00
DAV:   5    -0.284214423049E+03    0.10374E-02   -0.19636E-03 29472   0.180E-01    0.704E-01
DAV:   6    -0.284214292748E+03    0.13030E-03   -0.15988E-03 34392   0.641E-02    0.271E-01
DAV:   7    -0.284214524711E+03   -0.23196E-03   -0.21289E-03 33348   0.709E-02    0.312E-01
DAV:   8    -0.284214558662E+03   -0.33951E-04   -0.92476E-05 28104   0.505E-02    0.327E-01
DAV:   9    -0.284214479124E+03    0.79538E-04   -0.13531E-04 22284   0.260E-02    0.187E-01
DAV:  10    -0.284214485411E+03   -0.62870E-05   -0.29211E-04 20136   0.210E-02    0.220E-02
DAV:  11    -0.284214513073E+03   -0.27662E-04   -0.40089E-05 18180   0.126E-02    0.853E-02
DAV:  12    -0.284214508476E+03    0.45970E-05   -0.37342E-06 16416   0.895E-03
  42 F= -.28421451E+03 E0= -.28421032E+03  d E =-.246835E-02  mag=    18.0000
       N       E                     dE             d eps       ncg     rms          rms(c)
DAV:   1    -0.284216525102E+03   -0.20120E-02   -0.11636E-01 27348   0.141E+00    0.325E-01
DAV:   2    -0.284220424043E+03   -0.38989E-02   -0.45751E-02 32664   0.473E-01    0.234E+00
DAV:   3    -0.284215804336E+03    0.46197E-02   -0.14321E-02 29988   0.376E-01    0.699E-01
DAV:   4    -0.284216971700E+03   -0.11674E-02   -0.90324E-03 33516   0.112E-01    0.473E-01
DAV:   5    -0.284217484776E+03   -0.51308E-03   -0.11609E-03 28884   0.102E-01    0.686E-01
DAV:   6    -0.284217083202E+03    0.40157E-03   -0.53834E-04 27576   0.674E-02    0.417E-01
DAV:   7    -0.284217059015E+03    0.24187E-04   -0.14343E-03 33624   0.538E-02    0.684E-02
DAV:   8    -0.284217223686E+03   -0.16467E-03   -0.52375E-04 26784   0.336E-02    0.293E-01
DAV:   9    -0.284217180970E+03    0.42715E-04   -0.17073E-05 19956   0.258E-02    0.267E-01
DAV:  10    -0.284217140505E+03    0.40466E-04   -0.10027E-04 17028   0.177E-02    0.146E-01
DAV:  11    -0.284217149720E+03   -0.92154E-05   -0.12319E-04 19272   0.124E-02    0.138E-02
DAV:  12    -0.284217164885E+03   -0.15165E-04   -0.23060E-05 16536   0.773E-03    0.394E-02
DAV:  13    -0.284217165146E+03   -0.26088E-06   -0.95576E-07 15504   0.514E-03
  43 F= -.28421717E+03 E0= -.28421301E+03  d E =-.265667E-02  mag=    18.0000
       N       E                     dE             d eps       ncg     rms          rms(c)
DAV:   1    -0.284215613109E+03    0.15518E-02   -0.14381E+00 26904   0.523E+00    0.116E+00
DAV:   2    -0.284266523686E+03   -0.50911E-01   -0.60111E-01 32652   0.179E+00    0.712E+00
DAV:   3    -0.284216256842E+03    0.50267E-01   -0.13830E-01 30048   0.135E+00    0.241E+00
DAV:   4    -0.284221954920E+03   -0.56981E-02   -0.46276E-02 33552   0.368E-01    0.507E-01
DAV:   5    -0.284226871414E+03   -0.49165E-02   -0.15737E-02 31572   0.222E-01    0.135E+00
DAV:   6    -0.284225241054E+03    0.16304E-02   -0.29930E-03 31308   0.205E-01    0.689E-01
DAV:   7    -0.284225280353E+03   -0.39300E-04   -0.82050E-03 36996   0.143E-01    0.406E-01
DAV:   8    -0.284225766466E+03   -0.48611E-03   -0.11953E-03 30504   0.814E-02    0.711E-01
DAV:   9    -0.284225378928E+03    0.38754E-03   -0.41344E-04 31464   0.620E-02    0.476E-01
DAV:  10    -0.284225319057E+03    0.59871E-04   -0.85698E-04 35148   0.423E-02    0.125E-01
DAV:  11    -0.284225431238E+03   -0.11218E-03   -0.31121E-04 19668   0.211E-02    0.857E-02
DAV:  12    -0.284225446377E+03   -0.15139E-04   -0.11129E-05 18648   0.197E-02    0.778E-02
DAV:  13    -0.284225441472E+03    0.49049E-05   -0.18893E-05 16332   0.948E-03
  44 F= -.28422544E+03 E0= -.28422128E+03  d E =-.827633E-02  mag=    18.0000
       N       E                     dE             d eps       ncg     rms          rms(c)
DAV:   1    -0.284226542385E+03   -0.10960E-02   -0.44783E-01 26844   0.279E+00    0.325E-01
DAV:   2    -0.284229721485E+03   -0.31791E-02   -0.35841E-02 27816   0.547E-01    0.594E-01
DAV:   3    -0.284229668856E+03    0.52629E-04   -0.70698E-03 33300   0.216E-01    0.544E-01
DAV:   4    -0.284229501653E+03    0.16720E-03   -0.79947E-04 32700   0.127E-01    0.242E-01
DAV:   5    -0.284229492144E+03    0.95089E-05   -0.81936E-04 35652   0.729E-02    0.178E-01
DAV:   6    -0.284229543766E+03   -0.51622E-04   -0.83580E-04 31176   0.662E-02    0.331E-01
DAV:   7    -0.284229446104E+03    0.97662E-04   -0.25402E-04 28896   0.507E-02    0.143E-01
DAV:   8    -0.284229461054E+03   -0.14950E-04   -0.24999E-04 19920   0.214E-02    0.508E-02
DAV:   9    -0.284229473549E+03   -0.12495E-04   -0.14567E-05 18168   0.190E-02    0.451E-02
DAV:  10    -0.284229471551E+03    0.19983E-05   -0.13415E-05 16416   0.920E-03
  45 F= -.28422947E+03 E0= -.28422533E+03  d E =-.403008E-02  mag=    18.0000
       N       E                     dE             d eps       ncg     rms          rms(c)
DAV:   1    -0.284229967119E+03   -0.49357E-03   -0.26871E-01 27264   0.208E+00    0.320E-01
DAV:   2    -0.284232120981E+03   -0.21539E-02   -0.23937E-02 28548   0.446E-01    0.102E+00
DAV:   3    -0.284231312333E+03    0.80865E-03   -0.72289E-03 30648   0.239E-01    0.196E-01
DAV:   4    -0.284231687268E+03   -0.37493E-03   -0.15517E-03 32196   0.122E-01    0.415E-01
DAV:   5    -0.284231519733E+03    0.16753E-03   -0.77398E-04 32532   0.970E-02    0.294E-01
DAV:   6    -0.284231465139E+03    0.54594E-04   -0.10399E-03 30492   0.660E-02    0.111E-01
DAV:   7    -0.284231507888E+03   -0.42749E-04   -0.10572E-04 28092   0.340E-02    0.169E-01
DAV:   8    -0.284231479920E+03    0.27969E-04   -0.98557E-05 20124   0.246E-02    0.543E-02
DAV:   9    -0.284231488101E+03   -0.81816E-05   -0.51975E-05 16500   0.123E-02
  46 F= -.28423149E+03 E0= -.28422729E+03  d E =-.201655E-02  mag=    18.0000
       N       E                     dE             d eps       ncg     rms          rms(c)
DAV:   1    -0.284231895531E+03   -0.41561E-03   -0.51637E-02 27108   0.795E-01    0.135E-01
DAV:   2    -0.284232448773E+03   -0.55324E-03   -0.61328E-03 30900   0.194E-01    0.770E-01
DAV:   3    -0.284231957304E+03    0.49147E-03   -0.19860E-03 30060   0.137E-01    0.172E-01
DAV:   4    -0.284232126094E+03   -0.16879E-03   -0.11280E-03 29304   0.451E-02    0.242E-01
DAV:   5    -0.284232130928E+03   -0.48340E-05   -0.10504E-04 24828   0.448E-02    0.236E-01
DAV:   6    -0.284232087836E+03    0.43093E-04   -0.10174E-04 19596   0.238E-02    0.118E-01
DAV:   7    -0.284232097806E+03   -0.99698E-05   -0.24300E-04 21888   0.225E-02    0.724E-02
DAV:   8    -0.284232112557E+03   -0.14752E-04   -0.33864E-05 18180   0.165E-02    0.117E-01
DAV:   9    -0.284232102863E+03    0.96944E-05   -0.75718E-06 16332   0.979E-03
  47 F= -.28423210E+03 E0= -.28422789E+03  d E =-.614762E-03  mag=    18.0000
       N       E                     dE             d eps       ncg     rms          rms(c)
DAV:   1    -0.284231124202E+03    0.98836E-03   -0.48897E-01 27000   0.243E+00    0.223E-01
DAV:   2    -0.284233185293E+03   -0.20611E-02   -0.21087E-02 29004   0.427E-01    0.327E-01
DAV:   3    -0.284233282040E+03   -0.96748E-04   -0.39925E-03 33732   0.151E-01    0.523E-01
DAV:   4    -0.284233074735E+03    0.20730E-03   -0.74403E-04 30864   0.101E-01    0.183E-01
DAV:   5    -0.284233097207E+03   -0.22472E-04   -0.44821E-04 30672   0.481E-02    0.103E-01
DAV:   6    -0.284233112528E+03   -0.15320E-04   -0.24330E-04 27276   0.430E-02    0.179E-01
DAV:   7    -0.284233078113E+03    0.34414E-04   -0.13726E-04 25236   0.354E-02    0.442E-02
DAV:   8    -0.284233088578E+03   -0.10465E-04   -0.64085E-05 16848   0.138E-02    0.474E-02
DAV:   9    -0.284233089022E+03   -0.44360E-06   -0.73441E-06 16260   0.116E-02
  48 F= -.28423309E+03 E0= -.28422891E+03  d E =-.986159E-03  mag=    18.0000
       N       E                     dE             d eps       ncg     rms          rms(c)
DAV:   1    -0.284212252713E+03    0.20836E-01   -0.61180E+00 27324   0.856E+00    0.174E+00
DAV:   2    -0.284310278644E+03   -0.98026E-01   -0.11797E+00 32208   0.259E+00    0.918E+00
DAV:   3    -0.284220780117E+03    0.89499E-01   -0.28479E-01 29904   0.197E+00    0.287E+00
DAV:   4    -0.284229823399E+03   -0.90433E-02   -0.68762E-02 31512   0.515E-01    0.519E-01
DAV:   5    -0.284235668766E+03   -0.58454E-02   -0.13610E-02 30876   0.259E-01    0.126E+00
DAV:   6    -0.284233928237E+03    0.17405E-02   -0.41303E-03 31152   0.230E-01    0.470E-01
DAV:   7    -0.284234469306E+03   -0.54107E-03   -0.10905E-02 35916   0.168E-01    0.811E-01
DAV:   8    -0.284234287105E+03    0.18220E-03   -0.55400E-04 29460   0.123E-01    0.712E-01
DAV:   9    -0.284233953392E+03    0.33371E-03   -0.11761E-03 36780   0.658E-02    0.320E-01
DAV:  10    -0.284234068760E+03   -0.11537E-03   -0.73069E-04 29892   0.385E-02    0.266E-02
DAV:  11    -0.284234159437E+03   -0.90676E-04   -0.17873E-04 19908   0.203E-02    0.166E-01
DAV:  12    -0.284234135672E+03    0.23764E-04   -0.37829E-05 18780   0.233E-02    0.921E-02
DAV:  13    -0.284234134794E+03    0.87811E-06   -0.54976E-05 16656   0.115E-02
  49 F= -.28423413E+03 E0= -.28423005E+03  d E =-.104577E-02  mag=    18.0000
       N       E                     dE             d eps       ncg     rms          rms(c)
DAV:   1    -0.282816190639E+03    0.14179E+01   -0.88191E+01 28248   0.252E+01    0.954E+00
DAV:   2    -0.283564766548E+03   -0.74858E+00   -0.10524E+01 31752   0.892E+00    0.166E+01
DAV:   3    -0.283111074403E+03    0.45369E+00   -0.20722E+00 30972   0.641E+00    0.632E+00
DAV:   4    -0.283136696191E+03   -0.25622E-01   -0.14358E+00 33720   0.308E+00    0.671E+00
DAV:   5    -0.283082212819E+03    0.54483E-01   -0.18387E-01 30624   0.177E+00    0.250E+00
DAV:   6    -0.283058602660E+03    0.23610E-01   -0.50735E-02 34128   0.117E+00    0.218E+00
DAV:   7    -0.283054215079E+03    0.43876E-02   -0.10340E-01 35592   0.816E-01    0.188E+00
DAV:   8    -0.283052675536E+03    0.15395E-02   -0.20204E-02 31740   0.534E-01    0.920E-01
DAV:   9    -0.283052999048E+03   -0.32351E-03   -0.19496E-02 36444   0.248E-01    0.831E-01
DAV:  10    -0.283052732492E+03    0.26656E-03   -0.19164E-03 31680   0.189E-01    0.364E-01
DAV:  11    -0.283052730220E+03    0.22724E-05   -0.13874E-03 31836   0.774E-02    0.878E-02
DAV:  12    -0.283052839597E+03   -0.10938E-03   -0.43980E-04 32052   0.506E-02    0.239E-01
DAV:  13    -0.283052785475E+03    0.54122E-04   -0.20019E-04 31104   0.449E-02    0.763E-02
DAV:  14    -0.283052802093E+03   -0.16619E-04   -0.11879E-04 19164   0.170E-02    0.525E-02
DAV:  15    -0.283052805594E+03   -0.35002E-05   -0.13247E-05 17556   0.155E-02
  50 F= -.28305281E+03 E0= -.28304834E+03  d E =0.118133E+01  mag=    18.0000
       N       E                     dE             d eps       ncg     rms          rms(c)
DAV:   1    -0.283822341749E+03   -0.76954E+00   -0.20277E+01 26892   0.126E+01    0.505E+00
DAV:   2    -0.284138589814E+03   -0.31625E+00   -0.45234E+00 32052   0.566E+00    0.128E+01
DAV:   3    -0.283885344275E+03    0.25325E+00   -0.75078E-01 31284   0.410E+00    0.478E+00
DAV:   4    -0.283872691127E+03    0.12653E-01   -0.24818E-01 33864   0.143E+00    0.231E+00
DAV:   5    -0.283887473186E+03   -0.14782E-01   -0.22277E-01 34116   0.839E-01    0.463E+00
DAV:   6    -0.283862876188E+03    0.24597E-01   -0.24424E-01 31728   0.127E+00    0.168E+00
DAV:   7    -0.283868963706E+03   -0.60875E-02   -0.16908E-02 31980   0.610E-01    0.201E+00
DAV:   8    -0.283864649910E+03    0.43138E-02   -0.17712E-02 35112   0.365E-01    0.455E-01
DAV:   9    -0.283865931123E+03   -0.12812E-02   -0.40957E-03 34200   0.131E-01    0.200E-01
DAV:  10    -0.283866141753E+03   -0.21063E-03   -0.38536E-04 30900   0.713E-02    0.255E-01
DAV:  11    -0.283866070179E+03    0.71574E-04   -0.67893E-04 35628   0.604E-02    0.679E-02
DAV:  12    -0.283866094360E+03   -0.24181E-04   -0.43490E-05 26508   0.320E-02    0.561E-02
DAV:  13    -0.283866092055E+03    0.23054E-05   -0.31107E-05 16464   0.141E-02
  51 F= -.28386609E+03 E0= -.28386155E+03  d E =-.813286E+00  mag=    18.0000
       N       E                     dE             d eps       ncg     rms          rms(c)
DAV:   1    -0.284083623870E+03   -0.21753E+00   -0.42062E+00 27204   0.552E+00    0.244E+00
DAV:   2    -0.284188817129E+03   -0.10519E+00   -0.13399E+00 31980   0.269E+00    0.927E+00
DAV:   3    -0.284083950905E+03    0.10487E+00   -0.35377E-01 31116   0.219E+00    0.273E+00
DAV:   4    -0.284092402404E+03   -0.84515E-02   -0.10105E-01 33756   0.744E-01    0.127E+00
DAV:   5    -0.284096198909E+03   -0.37965E-02   -0.14205E-02 30456   0.332E-01    0.194E+00
DAV:   6    -0.284091711553E+03    0.44874E-02   -0.27951E-02 33360   0.410E-01    0.398E-01
DAV:   7    -0.284094354516E+03   -0.26430E-02   -0.13726E-02 33732   0.229E-01    0.148E+00
DAV:   8    -0.284092370359E+03    0.19842E-02   -0.33518E-03 31596   0.195E-01    0.782E-01
DAV:   9    -0.284092418341E+03   -0.47982E-04   -0.39513E-03 36636   0.855E-02    0.783E-02
DAV:  10    -0.284092826313E+03   -0.40797E-03   -0.69897E-04 27840   0.499E-02    0.244E-01
DAV:  11    -0.284092803803E+03    0.22510E-04   -0.52561E-05 25800   0.359E-02    0.192E-01
DAV:  12    -0.284092777811E+03    0.25992E-04   -0.25519E-04 21300   0.247E-02    0.114E-02
DAV:  13    -0.284092797042E+03   -0.19231E-04   -0.12560E-05 17940   0.176E-02    0.106E-02
DAV:  14    -0.284092797809E+03   -0.76722E-06   -0.29504E-06 15564   0.561E-03
  52 F= -.28409280E+03 E0= -.28408836E+03  d E =-.226706E+00  mag=    18.0000
       N       E                     dE             d eps       ncg     rms          rms(c)
DAV:   1    -0.284205548872E+03   -0.11275E+00   -0.14504E+01 27240   0.966E+00    0.441E+00
DAV:   2    -0.284419419443E+03   -0.21387E+00   -0.28465E+00 31812   0.408E+00    0.120E+01
DAV:   3    -0.284225289057E+03    0.19413E+00   -0.81342E-01 31296   0.336E+00    0.306E+00
DAV:   4    -0.284254728330E+03   -0.29439E-01   -0.35829E-01 33576   0.153E+00    0.384E+00
DAV:   5    -0.284241153004E+03    0.13575E-01   -0.28462E-02 29772   0.872E-01    0.213E+00
DAV:   6    -0.284234353074E+03    0.67999E-02   -0.43622E-02 34620   0.586E-01    0.683E-01
DAV:   7    -0.284235871725E+03   -0.15187E-02   -0.77124E-03 32256   0.323E-01    0.617E-01
DAV:   8    -0.284235657575E+03    0.21415E-03   -0.44340E-03 31608   0.198E-01    0.609E-01
DAV:   9    -0.284235386224E+03    0.27135E-03   -0.25240E-03 37140   0.115E-01    0.145E-01
DAV:  10    -0.284235586654E+03   -0.20043E-03   -0.11354E-03 32280   0.713E-02    0.339E-01
DAV:  11    -0.284235500808E+03    0.85845E-04   -0.14373E-04 27156   0.499E-02    0.211E-01
DAV:  12    -0.284235484635E+03    0.16173E-04   -0.23062E-04 28548   0.297E-02    0.453E-02
DAV:  13    -0.284235510535E+03   -0.25900E-04   -0.94130E-05 18780   0.148E-02    0.732E-02
DAV:  14    -0.284235507920E+03    0.26154E-05   -0.21990E-05 16860   0.170E-02
  53 F= -.28423551E+03 E0= -.28423147E+03  d E =-.142710E+00  mag=    18.0000
       N       E                     dE             d eps       ncg     rms          rms(c)
DAV:   1    -0.284243249622E+03   -0.77391E-02   -0.16301E-01 26760   0.115E+00    0.311E-01
DAV:   2    -0.284243914604E+03   -0.66498E-03   -0.81301E-03 30828   0.245E-01    0.431E-01
DAV:   3    -0.284243959106E+03   -0.44502E-04   -0.49480E-03 32712   0.181E-01    0.607E-01
DAV:   4    -0.284243719588E+03    0.23952E-03   -0.20835E-03 32004   0.140E-01    0.330E-01
DAV:   5    -0.284243659073E+03    0.60515E-04   -0.70826E-04 31728   0.874E-02    0.585E-02
DAV:   6    -0.284243682542E+03   -0.23469E-04   -0.90902E-05 27984   0.380E-02    0.725E-02
DAV:   7    -0.284243675795E+03    0.67468E-05   -0.42307E-05 26136   0.244E-02
  54 F= -.28424368E+03 E0= -.28423962E+03  d E =-.816788E-02  mag=    18.0000
       N       E                     dE             d eps       ncg     rms          rms(c)
DAV:   1    -0.284244449905E+03   -0.76736E-03   -0.10203E+00 26352   0.289E+00    0.101E+00
DAV:   2    -0.284259214562E+03   -0.14765E-01   -0.15182E-01 32232   0.998E-01    0.388E+00
DAV:   3    -0.284243830391E+03    0.15384E-01   -0.60216E-02 30216   0.825E-01    0.489E-01
DAV:   4    -0.284249613168E+03   -0.57828E-02   -0.36373E-02 33012   0.288E-01    0.186E+00
DAV:   5    -0.284247778306E+03    0.18349E-02   -0.61286E-03 30216   0.298E-01    0.162E+00
DAV:   6    -0.284245943094E+03    0.18352E-02   -0.81262E-03 34416   0.173E-01    0.509E-01
DAV:   7    -0.284246910951E+03   -0.96786E-03   -0.55327E-03 34932   0.100E-01    0.380E-01
DAV:   8    -0.284247158878E+03   -0.24793E-03   -0.45060E-04 29424   0.815E-02    0.472E-01
DAV:   9    -0.284246945839E+03    0.21304E-03   -0.58400E-04 33648   0.583E-02    0.172E-01
DAV:  10    -0.284247004754E+03   -0.58915E-04   -0.42740E-04 24960   0.261E-02    0.894E-02
DAV:  11    -0.284247030033E+03   -0.25280E-04   -0.23275E-05 19368   0.190E-02    0.119E-01
DAV:  12    -0.284247017840E+03    0.12193E-04   -0.22066E-05 16452   0.124E-02    0.626E-02
DAV:  13    -0.284247018911E+03   -0.10708E-05   -0.25210E-05 15816   0.713E-03
  55 F= -.28424702E+03 E0= -.28424280E+03  d E =-.334312E-02  mag=    18.0000
       N       E                     dE             d eps       ncg     rms          rms(c)
DAV:   1    -0.284249438588E+03   -0.24207E-02   -0.11088E-01 28656   0.865E-01    0.316E-01
DAV:   2    -0.284250666730E+03   -0.12281E-02   -0.14298E-02 31176   0.271E-01    0.122E+00
DAV:   3    -0.284249339131E+03    0.13276E-02   -0.67158E-03 30720   0.230E-01    0.131E-01
DAV:   4    -0.284249949233E+03   -0.61010E-03   -0.30331E-03 30456   0.877E-02    0.594E-01
DAV:   5    -0.284249756352E+03    0.19288E-03   -0.43701E-04 29352   0.908E-02    0.490E-01
DAV:   6    -0.284249587821E+03    0.16853E-03   -0.65762E-04 26472   0.508E-02    0.177E-01
DAV:   7    -0.284249673341E+03   -0.85520E-04   -0.63814E-04 30228   0.356E-02    0.130E-01
DAV:   8    -0.284249704530E+03   -0.31189E-04   -0.64875E-05 21852   0.276E-02    0.178E-01
DAV:   9    -0.284249680029E+03    0.24501E-04   -0.28742E-05 16524   0.169E-02    0.114E-01
DAV:  10    -0.284249677373E+03    0.26566E-05   -0.54792E-05 17568   0.114E-02
  56 F= -.28424968E+03 E0= -.28424547E+03  d E =-.265846E-02  mag=    18.0000
       N       E                     dE             d eps       ncg     rms          rms(c)
DAV:   1    -0.284249344901E+03    0.33513E-03   -0.88527E-02 27696   0.103E+00    0.237E-01
DAV:   2    -0.284250192257E+03   -0.84736E-03   -0.93032E-03 31332   0.244E-01    0.859E-01
DAV:   3    -0.284249567135E+03    0.62512E-03   -0.36125E-03 30288   0.174E-01    0.828E-02
DAV:   4    -0.284249837642E+03   -0.27051E-03   -0.12397E-03 28788   0.559E-02    0.372E-01
DAV:   5    -0.284249716439E+03    0.12120E-03   -0.29173E-04 29736   0.656E-02    0.181E-01
DAV:   6    -0.284249717405E+03   -0.96579E-06   -0.24228E-04 21600   0.296E-02    0.433E-02
DAV:   7    -0.284249742633E+03   -0.25228E-04   -0.13444E-04 24240   0.219E-02    0.123E-01
DAV:   8    -0.284249732487E+03    0.10146E-04   -0.18125E-05 18060   0.169E-02    0.897E-02
DAV:   9    -0.284249727894E+03    0.45930E-05   -0.36788E-05 15768   0.111E-02
  57 F= -.28424973E+03 E0= -.28424554E+03  d E =-.505213E-04  mag=    18.0000
       N       E                     dE             d eps       ncg     rms          rms(c)
DAV:   1    -0.284249148349E+03    0.58414E-03   -0.99971E-02 26808   0.133E+00    0.220E-01
DAV:   2    -0.284251096781E+03   -0.19484E-02   -0.21189E-02 31020   0.348E-01    0.149E+00
DAV:   3    -0.284249291314E+03    0.18055E-02   -0.70639E-03 29664   0.261E-01    0.358E-01
DAV:   4    -0.284249846293E+03   -0.55498E-03   -0.30492E-03 30696   0.659E-02    0.324E-01
DAV:   5    -0.284249919066E+03   -0.72773E-04   -0.16081E-04 26712   0.656E-02    0.291E-01
DAV:   6    -0.284249865406E+03    0.53660E-04   -0.71268E-05 20364   0.238E-02    0.208E-01
DAV:   7    -0.284249850720E+03    0.14686E-04   -0.50794E-04 26364   0.368E-02    0.766E-02
DAV:   8    -0.284249906365E+03   -0.55644E-04   -0.16650E-04 21960   0.221E-02    0.220E-01
DAV:   9    -0.284249875287E+03    0.31078E-04   -0.12450E-05 17928   0.185E-02    0.184E-01
DAV:  10    -0.284249856973E+03    0.18315E-04   -0.70463E-05 16932   0.137E-02    0.793E-02
DAV:  11    -0.284249866747E+03   -0.97741E-05   -0.58439E-05 17412   0.918E-03
  58 F= -.28424987E+03 E0= -.28424570E+03  d E =-.138853E-03  mag=    18.0000
       N       E                     dE             d eps       ncg     rms          rms(c)
DAV:   1    -0.284245320281E+03    0.45367E-02   -0.99700E-01 26724   0.357E+00    0.537E-01
DAV:   2    -0.284258004722E+03   -0.12684E-01   -0.14371E-01 30360   0.899E-01    0.373E+00
DAV:   3    -0.284246576020E+03    0.11429E-01   -0.41507E-02 28848   0.652E-01    0.998E-01
DAV:   4    -0.284249589280E+03   -0.30133E-02   -0.16936E-02 33084   0.176E-01    0.667E-01
DAV:   5    -0.284250543262E+03   -0.95398E-03   -0.23965E-03 28848   0.157E-01    0.863E-01
DAV:   6    -0.284249837624E+03    0.70564E-03   -0.10349E-03 29940   0.932E-02    0.468E-01
DAV:   7    -0.284249866163E+03   -0.28539E-04   -0.31108E-03 35292   0.877E-02    0.226E-01
DAV:   8    -0.284250176703E+03   -0.31054E-03   -0.10328E-03 30588   0.573E-02    0.563E-01
DAV:   9    -0.284249950758E+03    0.22594E-03   -0.16151E-04 26796   0.501E-02    0.420E-01
DAV:  10    -0.284249884557E+03    0.66201E-04   -0.34401E-04 27048   0.284E-02    0.192E-01
DAV:  11    -0.284249931566E+03   -0.47009E-04   -0.19616E-04 18036   0.163E-02    0.195E-02
DAV:  12    -0.284249958168E+03   -0.26602E-04   -0.18741E-05 17760   0.122E-02    0.243E-02
DAV:  13    -0.284249960236E+03   -0.20682E-05   -0.27403E-06 15480   0.536E-03
  59 F= -.28424996E+03 E0= -.28424580E+03  d E =-.934895E-04  mag=    18.0000
       N       E                     dE             d eps       ncg     rms          rms(c)
DAV:   1    -0.284212530847E+03    0.37427E-01   -0.70627E+00 26520   0.925E+00    0.132E+00
DAV:   2    -0.284273422461E+03   -0.60892E-01   -0.68371E-01 30108   0.211E+00    0.667E+00
DAV:   3    -0.284234337690E+03    0.39085E-01   -0.15524E-01 29844   0.134E+00    0.162E+00
DAV:   4    -0.284245169028E+03   -0.10831E-01   -0.65613E-02 33780   0.512E-01    0.171E+00
DAV:   5    -0.284245896653E+03   -0.72762E-03   -0.10726E-02 29880   0.419E-01    0.170E+00
DAV:   6    -0.284242624084E+03    0.32726E-02   -0.97933E-03 33504   0.266E-01    0.484E-01
DAV:   7    -0.284243995894E+03   -0.13718E-02   -0.14433E-02 35640   0.221E-01    0.942E-01
DAV:   8    -0.284243848307E+03    0.14759E-03   -0.10553E-03 29784   0.149E-01    0.936E-01
DAV:   9    -0.284243182888E+03    0.66542E-03   -0.21654E-03 36444   0.904E-02    0.380E-01
DAV:  10    -0.284243407366E+03   -0.22448E-03   -0.11212E-03 33684   0.488E-02    0.541E-02
DAV:  11    -0.284243535991E+03   -0.12863E-03   -0.17717E-04 21120   0.265E-02    0.194E-01
DAV:  12    -0.284243495793E+03    0.40198E-04   -0.10925E-04 22548   0.323E-02    0.608E-02
DAV:  13    -0.284243505847E+03   -0.10055E-04   -0.60486E-05 16908   0.119E-02    0.311E-02
DAV:  14    -0.284243508701E+03   -0.28539E-05   -0.35453E-06 16416   0.785E-03
  60 F= -.28424351E+03 E0= -.28423937E+03  d E =0.645154E-02  mag=    18.0000
       N       E                     dE             d eps       ncg     rms          rms(c)
DAV:   1    -0.284242627800E+03    0.87805E-03   -0.19942E+00 26352   0.436E+00    0.926E-01
DAV:   2    -0.284256519036E+03   -0.13891E-01   -0.16040E-01 31212   0.103E+00    0.351E+00
DAV:   3    -0.284246197472E+03    0.10322E-01   -0.69555E-02 30384   0.740E-01    0.300E-01
DAV:   4    -0.284250168550E+03   -0.39711E-02   -0.10870E-02 31344   0.211E-01    0.121E+00
DAV:   5    -0.284249058016E+03    0.11105E-02   -0.26783E-03 30732   0.223E-01    0.793E-01
DAV:   6    -0.284248595875E+03    0.46214E-03   -0.44180E-03 35100   0.140E-01    0.903E-02
DAV:   7    -0.284248990374E+03   -0.39450E-03   -0.16597E-03 31488   0.773E-02    0.419E-01
DAV:   8    -0.284248889452E+03    0.10092E-03   -0.24639E-04 30300   0.635E-02    0.352E-01
DAV:   9    -0.284248801682E+03    0.87769E-04   -0.47051E-04 32328   0.425E-02    0.836E-02
DAV:  10    -0.284248862315E+03   -0.60633E-04   -0.21681E-04 20904   0.223E-02    0.112E-01
DAV:  11    -0.284248867285E+03   -0.49694E-05   -0.14807E-05 18192   0.172E-02
  61 F= -.28424887E+03 E0= -.28424487E+03  d E =-.535858E-02  mag=    18.0000
       N       E                     dE             d eps       ncg     rms          rms(c)
DAV:   1    -0.284246086404E+03    0.27759E-02   -0.62276E-01 26496   0.284E+00    0.348E-01
DAV:   2    -0.284251093088E+03   -0.50067E-02   -0.52249E-02 29112   0.610E-01    0.187E+00
DAV:   3    -0.284248314903E+03    0.27782E-02   -0.11598E-02 30048   0.350E-01    0.459E-01
DAV:   4    -0.284249149341E+03   -0.83444E-03   -0.52933E-03 34860   0.109E-01    0.478E-01
DAV:   5    -0.284249143997E+03    0.53438E-05   -0.54413E-04 29448   0.115E-01    0.302E-01
DAV:   6    -0.284249072036E+03    0.71961E-04   -0.48098E-04 29148   0.527E-02    0.113E-01
DAV:   7    -0.284249134204E+03   -0.62168E-04   -0.77396E-04 33264   0.525E-02    0.262E-01
DAV:   8    -0.284249110238E+03    0.23966E-04   -0.73619E-05 28380   0.381E-02    0.236E-01
DAV:   9    -0.284249071611E+03    0.38627E-04   -0.94145E-05 18792   0.226E-02    0.108E-01
DAV:  10    -0.284249083795E+03   -0.12184E-04   -0.99752E-05 18636   0.144E-02    0.226E-02
DAV:  11    -0.284249093966E+03   -0.10171E-04   -0.16353E-05 16428   0.889E-03    0.566E-02
DAV:  12    -0.284249090253E+03    0.37133E-05   -0.83785E-06 16008   0.923E-03
  62 F= -.28424909E+03 E0= -.28424501E+03  d E =-.222968E-03  mag=    18.0000
       N       E                     dE             d eps       ncg     rms          rms(c)
DAV:   1    -0.284220414453E+03    0.28680E-01   -0.68630E+00 26364   0.905E+00    0.977E-01
DAV:   2    -0.284267757028E+03   -0.47343E-01   -0.52385E-01 28848   0.191E+00    0.561E+00
DAV:   3    -0.284241840160E+03    0.25917E-01   -0.11789E-01 29760   0.112E+00    0.123E+00
DAV:   4    -0.284249345199E+03   -0.75050E-02   -0.32740E-02 33936   0.353E-01    0.123E+00
DAV:   5    -0.284250027314E+03   -0.68211E-03   -0.58806E-03 29748   0.296E-01    0.120E+00
DAV:   6    -0.284248378567E+03    0.16487E-02   -0.39825E-03 33276   0.172E-01    0.395E-01
DAV:   7    -0.284249026435E+03   -0.64787E-03   -0.91678E-03 36264   0.174E-01    0.763E-01
DAV:   8    -0.284249136343E+03   -0.10991E-03   -0.12438E-03 30684   0.125E-01    0.953E-01
DAV:   9    -0.284248400561E+03    0.73578E-03   -0.15325E-03 36492   0.937E-02    0.466E-01
DAV:  10    -0.284248523364E+03   -0.12280E-03   -0.11891E-03 34968   0.514E-02    0.385E-02
DAV:  11    -0.284248677918E+03   -0.15455E-03   -0.22486E-04 22644   0.278E-02    0.161E-01
DAV:  12    -0.284248657536E+03    0.20383E-04   -0.42325E-05 20568   0.272E-02    0.817E-02
DAV:  13    -0.284248657413E+03    0.12289E-06   -0.48768E-05 16476   0.123E-02
  63 F= -.28424866E+03 E0= -.28424464E+03  d E =0.432840E-03  mag=    18.0000
       N       E                     dE             d eps       ncg     rms          rms(c)
DAV:   1    -0.283486108249E+03    0.76255E+00   -0.51806E+01 26784   0.260E+01    0.519E+00
DAV:   2    -0.283898501712E+03   -0.41239E+00   -0.48495E+00 29952   0.612E+00    0.119E+01
DAV:   3    -0.283756779453E+03    0.14172E+00   -0.13088E+00 30480   0.366E+00    0.299E+00
DAV:   4    -0.283777388795E+03   -0.20609E-01   -0.17428E-01 32700   0.153E+00    0.379E+00
DAV:   5    -0.283753056891E+03    0.24332E-01   -0.69714E-02 32580   0.121E+00    0.162E+00
DAV:   6    -0.283757940912E+03   -0.48840E-02   -0.13004E-01 35964   0.739E-01    0.326E+00
DAV:   7    -0.283754766753E+03    0.31742E-02   -0.43916E-02 32844   0.715E-01    0.323E+00
DAV:   8    -0.283746335594E+03    0.84312E-02   -0.41770E-02 34140   0.445E-01    0.753E-01
DAV:   9    -0.283749950492E+03   -0.36149E-02   -0.90576E-03 33180   0.187E-01    0.323E-01
DAV:  10    -0.283750530963E+03   -0.58047E-03   -0.52500E-04 30720   0.996E-02    0.345E-01
DAV:  11    -0.283750420910E+03    0.11005E-03   -0.98484E-04 36996   0.788E-02    0.701E-02
DAV:  12    -0.283750497968E+03   -0.77058E-04   -0.28596E-04 29916   0.427E-02    0.197E-01
DAV:  13    -0.283750458458E+03    0.39510E-04   -0.62535E-05 22572   0.330E-02    0.995E-02
DAV:  14    -0.283750462520E+03   -0.40617E-05   -0.14161E-04 25356   0.226E-02    0.479E-02
DAV:  15    -0.283750467446E+03   -0.49260E-05   -0.86271E-06 16812   0.147E-02
  64 F= -.28375047E+03 E0= -.28374726E+03  d E =0.498190E+00  mag=    18.0000
       N       E                     dE             d eps       ncg     rms          rms(c)
DAV:   1    -0.284122954931E+03   -0.37249E+00   -0.11950E+01 27000   0.962E+00    0.278E+00
DAV:   2    -0.284191082560E+03   -0.68128E-01   -0.78534E-01 31440   0.241E+00    0.487E+00
DAV:   3    -0.284165904317E+03    0.25178E-01   -0.27876E-01 31224   0.174E+00    0.266E+00
DAV:   4    -0.284165224472E+03    0.67984E-03   -0.55629E-02 31560   0.931E-01    0.228E+00
DAV:   5    -0.284158803500E+03    0.64210E-02   -0.41429E-02 32448   0.663E-01    0.511E-01
DAV:   6    -0.284159600062E+03   -0.79656E-03   -0.86435E-03 32784   0.341E-01    0.794E-01
DAV:   7    -0.284158863979E+03    0.73608E-03   -0.40160E-03 34080   0.248E-01    0.356E-01
DAV:   8    -0.284158936867E+03   -0.72888E-04   -0.26555E-03 36768   0.986E-02    0.273E-01
[...]
DAV:   5    -0.284257062866E+03    0.23491E-02   -0.78514E-03 34944   0.310E-01    0.273E-01
DAV:   6    -0.284257496560E+03   -0.43369E-03   -0.30828E-03 31860   0.169E-01    0.578E-01
DAV:   7    -0.284257180433E+03    0.31613E-03   -0.13812E-03 33828   0.137E-01    0.224E-01
DAV:   8    -0.284257213281E+03   -0.32848E-04   -0.53571E-04 34764   0.771E-02    0.922E-02
DAV:   9    -0.284257237582E+03   -0.24301E-04   -0.20020E-04 29532   0.441E-02    0.110E-01
DAV:  10    -0.284257223278E+03    0.14304E-04   -0.30981E-05 19956   0.232E-02    0.426E-02
DAV:  11    -0.284257225223E+03   -0.19450E-05   -0.63360E-05 22932   0.207E-02
 107 F= -.28425723E+03 E0= -.28425402E+03  d E =0.175871E-01  mag=    18.0000
       N       E                     dE             d eps       ncg     rms          rms(c)
DAV:   1    -0.284221010335E+03    0.36213E-01   -0.13715E+01 26784   0.133E+01    0.177E+00
DAV:   2    -0.284301128865E+03   -0.80119E-01   -0.78007E-01 29472   0.281E+00    0.388E+00
DAV:   3    -0.284284849801E+03    0.16279E-01   -0.14037E-01 30492   0.145E+00    0.114E+00
DAV:   4    -0.284286802252E+03   -0.19525E-02   -0.29733E-02 33396   0.600E-01    0.152E+00
DAV:   5    -0.284284034112E+03    0.27681E-02   -0.13774E-02 33372   0.426E-01    0.336E-01
DAV:   6    -0.284284543065E+03   -0.50895E-03   -0.69589E-03 30816   0.228E-01    0.857E-01
DAV:   7    -0.284283660706E+03    0.88236E-03   -0.32574E-03 32460   0.219E-01    0.122E-01
DAV:   8    -0.284283893570E+03   -0.23286E-03   -0.93116E-04 33660   0.830E-02    0.178E-01
DAV:   9    -0.284283874014E+03    0.19555E-04   -0.15307E-04 29952   0.488E-02    0.693E-02
DAV:  10    -0.284283878895E+03   -0.48810E-05   -0.96476E-05 27336   0.230E-02
 108 F= -.28428388E+03 E0= -.28428026E+03  d E =-.266537E-01  mag=    18.0000
       N       E                     dE             d eps       ncg     rms          rms(c)
DAV:   1    -0.284276900244E+03    0.69738E-02   -0.52890E-01 30012   0.369E+00    0.667E-01
DAV:   2    -0.284288055836E+03   -0.11156E-01   -0.10524E-01 30492   0.846E-01    0.293E+00
DAV:   3    -0.284281266105E+03    0.67897E-02   -0.34522E-02 30012   0.625E-01    0.282E-01
DAV:   4    -0.284283669302E+03   -0.24032E-02   -0.54114E-03 32220   0.165E-01    0.596E-01
DAV:   5    -0.284283421201E+03    0.24810E-03   -0.13190E-03 31476   0.145E-01    0.369E-01
DAV:   6    -0.284283299235E+03    0.12197E-03   -0.84372E-04 35436   0.797E-02    0.110E-01
DAV:   7    -0.284283400019E+03   -0.10078E-03   -0.25351E-04 32352   0.474E-02    0.272E-01
DAV:   8    -0.284283336226E+03    0.63793E-04   -0.84874E-05 27828   0.422E-02    0.167E-01
DAV:   9    -0.284283326297E+03    0.99287E-05   -0.13144E-04 23400   0.257E-02    0.219E-02
DAV:  10    -0.284283340557E+03   -0.14259E-04   -0.32382E-05 16920   0.129E-02    0.371E-02
DAV:  11    -0.284283339994E+03    0.56233E-06   -0.43280E-06 15984   0.934E-03
 109 F= -.28428334E+03 E0= -.28427980E+03  d E =0.538901E-03  mag=    18.0000
       N       E                     dE             d eps       ncg     rms          rms(c)
DAV:   1    -0.284282835168E+03    0.50539E-03   -0.14763E-01 29952   0.177E+00    0.273E-01
DAV:   2    -0.284284592046E+03   -0.17569E-02   -0.17155E-02 30264   0.348E-01    0.571E-01
DAV:   3    -0.284284472518E+03    0.11953E-03   -0.35307E-03 30540   0.200E-01    0.346E-01
DAV:   4    -0.284284437962E+03    0.34556E-04   -0.38807E-04 31908   0.974E-02    0.122E-01
DAV:   5    -0.284284431876E+03    0.60855E-05   -0.31102E-04 30096   0.495E-02    0.722E-02
DAV:   6    -0.284284427820E+03    0.40564E-05   -0.47370E-05 27120   0.274E-02
 110 F= -.28428443E+03 E0= -.28428091E+03  d E =-.108783E-02  mag=    18.0000
       N       E                     dE             d eps       ncg     rms          rms(c)
DAV:   1    -0.284284191219E+03    0.24066E-03   -0.50495E-02 26844   0.899E-01    0.859E-02
DAV:   2    -0.284284507043E+03   -0.31582E-03   -0.31470E-03 27756   0.172E-01    0.180E-01
DAV:   3    -0.284284494581E+03    0.12462E-04   -0.33734E-04 30024   0.651E-02    0.111E-01
DAV:   4    -0.284284491238E+03    0.33424E-05   -0.30945E-05 21636   0.300E-02
 111 F= -.28428449E+03 E0= -.28428096E+03  d E =-.634182E-04  mag=    18.0000
       N       E                     dE             d eps       ncg     rms          rms(c)
DAV:   1    -0.284235483035E+03    0.49012E-01   -0.15097E+01 26364   0.124E+01    0.943E-01
DAV:   2    -0.284284028709E+03   -0.48546E-01   -0.50916E-01 27924   0.213E+00    0.529E-01
DAV:   3    -0.284284001537E+03    0.27171E-04   -0.17167E-02 35376   0.417E-01    0.942E-01
DAV:   4    -0.284283165180E+03    0.83636E-03   -0.65143E-03 32820   0.271E-01    0.415E-01
DAV:   5    -0.284282752044E+03    0.41314E-03   -0.24721E-03 34500   0.196E-01    0.374E-01
DAV:   6    -0.284282387687E+03    0.36436E-03   -0.26491E-03 33456   0.189E-01    0.145E-01
DAV:   7    -0.284282414073E+03   -0.26386E-04   -0.44973E-04 30504   0.754E-02    0.803E-02
DAV:   8    -0.284282406111E+03    0.79628E-05   -0.15400E-04 34848   0.425E-02    0.320E-02
DAV:   9    -0.284282407586E+03   -0.14755E-05   -0.25789E-05 20100   0.187E-02
 112 F= -.28428241E+03 E0= -.28427883E+03  d E =0.208365E-02  mag=    18.0000
       N       E                     dE             d eps       ncg     rms          rms(c)
DAV:   1    -0.283383081036E+03    0.89933E+00   -0.81405E+01 26556   0.295E+01    0.672E+00
DAV:   2    -0.283796208467E+03   -0.41313E+00   -0.53007E+00 32028   0.687E+00    0.122E+01
DAV:   3    -0.283753581552E+03    0.42627E-01   -0.27762E+00 30828   0.451E+00    0.471E+00
DAV:   4    -0.283725302957E+03    0.28279E-01   -0.12276E-01 31344   0.178E+00    0.246E+00
DAV:   5    -0.283704013882E+03    0.21289E-01   -0.86861E-02 35064   0.107E+00    0.970E-01
DAV:   6    -0.283704071241E+03   -0.57360E-04   -0.47903E-02 35220   0.656E-01    0.119E+00
DAV:   7    -0.283702789756E+03    0.12815E-02   -0.11302E-02 32880   0.425E-01    0.589E-01
DAV:   8    -0.283702438703E+03    0.35105E-03   -0.56753E-03 36804   0.215E-01    0.177E-01
DAV:   9    -0.283702494605E+03   -0.55902E-04   -0.88654E-04 30732   0.919E-02    0.143E-01
DAV:  10    -0.283702454980E+03    0.39625E-04   -0.28486E-04 34776   0.652E-02    0.814E-02
DAV:  11    -0.283702451484E+03    0.34959E-05   -0.14067E-04 30696   0.347E-02    0.196E-02
DAV:  12    -0.283702453946E+03   -0.24624E-05   -0.11195E-05 17268   0.145E-02
 113 F= -.28370245E+03 E0= -.28370222E+03  d E =0.579954E+00  mag=    18.0000
       N       E                     dE             d eps       ncg     rms          rms(c)
DAV:   1    -0.284021709721E+03   -0.31926E+00   -0.86088E+00 29352   0.898E+00    0.230E+00
DAV:   2    -0.284062047956E+03   -0.40338E-01   -0.52497E-01 31476   0.212E+00    0.276E+00
DAV:   3    -0.284054855312E+03    0.71926E-02   -0.13261E-01 31464   0.141E+00    0.162E+00
DAV:   4    -0.284050211136E+03    0.46442E-02   -0.21508E-02 31140   0.622E-01    0.530E-01
DAV:   5    -0.284049631017E+03    0.58012E-03   -0.73666E-03 33864   0.329E-01    0.480E-01
DAV:   6    -0.284049267228E+03    0.36379E-03   -0.31727E-03 34584   0.230E-01    0.195E-01
DAV:   7    -0.284049277031E+03   -0.98030E-05   -0.50765E-04 32796   0.926E-02    0.918E-02
DAV:   8    -0.284049265440E+03    0.11591E-04   -0.88015E-05 32340   0.293E-02    0.537E-02
DAV:   9    -0.284049257216E+03    0.82243E-05   -0.61651E-05 27732   0.258E-02
 114 F= -.28404926E+03 E0= -.28404835E+03  d E =-.346803E+00  mag=    18.0000
       N       E                     dE             d eps       ncg     rms          rms(c)
DAV:   1    -0.284185228463E+03   -0.13596E+00   -0.52419E+00 28452   0.713E+00    0.207E+00
DAV:   2    -0.284222827446E+03   -0.37599E-01   -0.47511E-01 31788   0.215E+00    0.390E+00
DAV:   3    -0.284203258060E+03    0.19569E-01   -0.13350E-01 30732   0.153E+00    0.623E-01
DAV:   4    -0.284204118278E+03   -0.86022E-03   -0.14085E-02 32052   0.386E-01    0.118E+00
DAV:   5    -0.284202419811E+03    0.16985E-02   -0.11483E-02 33300   0.425E-01    0.471E-01
DAV:   6    -0.284202690117E+03   -0.27031E-03   -0.52919E-03 33732   0.214E-01    0.631E-01
DAV:   7    -0.284202059555E+03    0.63056E-03   -0.23887E-03 35076   0.193E-01    0.123E-01
DAV:   8    -0.284202158969E+03   -0.99414E-04   -0.39950E-04 33684   0.582E-02    0.685E-02
DAV:   9    -0.284202157771E+03    0.11973E-05   -0.71298E-05 26412   0.326E-02
 115 F= -.28420216E+03 E0= -.28420041E+03  d E =-.152901E+00  mag=    18.0000
       N       E                     dE             d eps       ncg     rms          rms(c)
DAV:   1    -0.284254625633E+03   -0.52467E-01   -0.34722E+00 28020   0.577E+00    0.209E+00
DAV:   2    -0.284299637965E+03   -0.45012E-01   -0.50962E-01 32568   0.231E+00    0.496E+00
DAV:   3    -0.284265052449E+03    0.34586E-01   -0.15269E-01 30708   0.171E+00    0.113E+00
DAV:   4    -0.284266619785E+03   -0.15673E-02   -0.30241E-02 34356   0.547E-01    0.151E+00
DAV:   5    -0.284264891428E+03    0.17284E-02   -0.10853E-02 31716   0.439E-01    0.546E-01
DAV:   6    -0.284265269963E+03   -0.37854E-03   -0.98280E-03 34884   0.238E-01    0.699E-01
DAV:   7    -0.284264719164E+03    0.55080E-03   -0.16336E-03 33696   0.198E-01    0.199E-01
DAV:   8    -0.284264775276E+03   -0.56112E-04   -0.65289E-04 34356   0.731E-02    0.784E-02
DAV:   9    -0.284264784421E+03   -0.91450E-05   -0.96466E-05 28728   0.395E-02
 116 F= -.28426478E+03 E0= -.28426217E+03  d E =-.626266E-01  mag=    18.0000
       N       E                     dE             d eps       ncg     rms          rms(c)
DAV:   1    -0.284277300889E+03   -0.12526E-01   -0.10363E+00 28776   0.312E+00    0.120E+00
DAV:   2    -0.284295727293E+03   -0.18426E-01   -0.17878E-01 32568   0.133E+00    0.362E+00
DAV:   3    -0.284278717578E+03    0.17010E-01   -0.67914E-02 30336   0.107E+00    0.724E-01
DAV:   4    -0.284280820983E+03   -0.21034E-02   -0.12314E-02 33612   0.317E-01    0.111E+00
DAV:   5    -0.284280100995E+03    0.71999E-03   -0.38693E-03 31476   0.262E-01    0.595E-01
DAV:   6    -0.284279935773E+03    0.16522E-03   -0.38161E-03 34956   0.148E-01    0.295E-01
DAV:   7    -0.284280031509E+03   -0.95736E-04   -0.41872E-04 31764   0.962E-02    0.216E-01
DAV:   8    -0.284279989345E+03    0.42165E-04   -0.19122E-04 32544   0.457E-02    0.829E-02
DAV:   9    -0.284279998032E+03   -0.86875E-05   -0.55742E-05 20568   0.216E-02
 117 F= -.28428000E+03 E0= -.28427693E+03  d E =-.152136E-01  mag=    18.0000
       N       E                     dE             d eps       ncg     rms          rms(c)
DAV:   1    -0.284282122296E+03   -0.21330E-02   -0.66077E-01 27552   0.256E+00    0.976E-01
DAV:   2    -0.284296354111E+03   -0.14232E-01   -0.12616E-01 32940   0.110E+00    0.333E+00
DAV:   3    -0.284282525686E+03    0.13828E-01   -0.49277E-02 30252   0.910E-01    0.690E-01
DAV:   4    -0.284284544591E+03   -0.20189E-02   -0.10252E-02 33612   0.266E-01    0.101E+00
DAV:   5    -0.284284140345E+03    0.40425E-03   -0.29608E-03 31056   0.222E-01    0.675E-01
DAV:   6    -0.284283776009E+03    0.36434E-03   -0.28406E-03 34884   0.130E-01    0.151E-01
DAV:   7    -0.284283988556E+03   -0.21255E-03   -0.54831E-04 31992   0.754E-02    0.210E-01
DAV:   8    -0.284283952137E+03    0.36419E-04   -0.10215E-04 29784   0.406E-02    0.129E-01
DAV:   9    -0.284283946887E+03    0.52495E-05   -0.62822E-05 18864   0.201E-02
 118 F= -.28428395E+03 E0= -.28428059E+03  d E =-.394885E-02  mag=    18.0000
       N       E                     dE             d eps       ncg     rms          rms(c)
DAV:   1    -0.284284156337E+03   -0.20420E-03   -0.25328E-02 28728   0.710E-01    0.116E-01
DAV:   2    -0.284284475887E+03   -0.31955E-03   -0.30435E-03 30600   0.164E-01    0.407E-01
DAV:   3    -0.284284339628E+03    0.13626E-03   -0.71322E-04 29832   0.102E-01    0.485E-02
DAV:   4    -0.284284379195E+03   -0.39568E-04   -0.12401E-04 25920   0.288E-02    0.825E-02
DAV:   5    -0.284284372179E+03    0.70163E-05   -0.44240E-05 18708   0.253E-02
 119 F= -.28428437E+03 E0= -.28428086E+03  d E =-.425292E-03  mag=    18.0000
       N       E                     dE             d eps       ncg     rms          rms(c)
DAV:   1    -0.284283094055E+03    0.12851E-02   -0.19966E-01 27660   0.203E+00    0.255E-01
DAV:   2    -0.284285327673E+03   -0.22336E-02   -0.21616E-02 30516   0.420E-01    0.842E-01
DAV:   3    -0.284284764574E+03    0.56310E-03   -0.35396E-03 30072   0.225E-01    0.119E-01
DAV:   4    -0.284284920168E+03   -0.15559E-03   -0.47257E-04 31392   0.643E-02    0.154E-01
DAV:   5    -0.284284888769E+03    0.31399E-04   -0.20774E-04 29400   0.509E-02    0.606E-02
DAV:   6    -0.284284899223E+03   -0.10454E-04   -0.14020E-04 24132   0.350E-02    0.154E-01
DAV:   7    -0.284284878836E+03    0.20387E-04   -0.52431E-05 26664   0.334E-02    0.966E-02
DAV:   8    -0.284284872980E+03    0.58561E-05   -0.39504E-05 16848   0.157E-02
 120 F= -.28428487E+03 E0= -.28428140E+03  d E =-.500801E-03  mag=    18.0000
       N       E                     dE             d eps       ncg     rms          rms(c)
DAV:   1    -0.284284192162E+03    0.68667E-03   -0.16476E-01 26808   0.165E+00    0.210E-01
DAV:   2    -0.284285501636E+03   -0.13095E-02   -0.12566E-02 29304   0.345E-01    0.639E-01
DAV:   3    -0.284285218655E+03    0.28298E-03   -0.23094E-03 30552   0.182E-01    0.163E-01
DAV:   4    -0.284285300425E+03   -0.81771E-04   -0.18750E-04 30036   0.630E-02    0.144E-01
DAV:   5    -0.284285269822E+03    0.30603E-04   -0.91184E-05 24636   0.379E-02    0.574E-02
DAV:   6    -0.284285279560E+03   -0.97376E-05   -0.14786E-04 26688   0.320E-02    0.123E-01
DAV:   7    -0.284285267491E+03    0.12069E-04   -0.28180E-05 19932   0.251E-02    0.706E-02
DAV:   8    -0.284285264768E+03    0.27227E-05   -0.25764E-05 17268   0.127E-02
 121 F= -.28428526E+03 E0= -.28428185E+03  d E =-.391788E-03  mag=    18.0000
       N       E                     dE             d eps       ncg     rms          rms(c)
DAV:   1    -0.284284084133E+03    0.11834E-02   -0.27117E-01 27624   0.201E+00    0.212E-01
DAV:   2    -0.284285546612E+03   -0.14625E-02   -0.15163E-02 27804   0.372E-01    0.278E-01
DAV:   3    -0.284285627552E+03   -0.80939E-04   -0.18456E-03 33372   0.147E-01    0.428E-01
DAV:   4    -0.284285470456E+03    0.15710E-03   -0.44178E-04 29256   0.926E-02    0.117E-01
DAV:   5    -0.284285483866E+03   -0.13411E-04   -0.16402E-04 29448   0.400E-02    0.739E-02
DAV:   6    -0.284285478815E+03    0.50520E-05   -0.62066E-05 23496   0.320E-02
 122 F= -.28428548E+03 E0= -.28428204E+03  d E =-.214047E-03  mag=    18.0000
       N       E                     dE             d eps       ncg     rms          rms(c)
DAV:   1    -0.284285091087E+03    0.39278E-03   -0.15464E-01 27648   0.152E+00    0.209E-01
DAV:   2    -0.284286258649E+03   -0.11676E-02   -0.11084E-02 28464   0.321E-01    0.760E-01
DAV:   3    -0.284285794182E+03    0.46447E-03   -0.23383E-03 30588   0.184E-01    0.805E-02
DAV:   4    -0.284285934155E+03   -0.13997E-03   -0.41652E-04 28380   0.497E-02    0.189E-01
DAV:   5    -0.284285892016E+03    0.42139E-04   -0.19971E-04 28380   0.511E-02    0.726E-02
DAV:   6    -0.284285896442E+03   -0.44261E-05   -0.88623E-05 22416   0.289E-02
 123 F= -.28428590E+03 E0= -.28428237E+03  d E =-.417627E-03  mag=    18.0000
       N       E                     dE             d eps       ncg     rms          rms(c)
DAV:   1    -0.284285493147E+03    0.39887E-03   -0.99644E-02 26808   0.123E+00    0.143E-01
DAV:   2    -0.284286091380E+03   -0.59823E-03   -0.61359E-03 27924   0.237E-01    0.239E-01
DAV:   3    -0.284286111313E+03   -0.19932E-04   -0.92950E-04 31620   0.107E-01    0.235E-01
DAV:   4    -0.284286060254E+03    0.51059E-04   -0.16391E-04 27324   0.592E-02    0.489E-02
DAV:   5    -0.284286066850E+03   -0.65962E-05   -0.97054E-05 20652   0.262E-02
 124 F= -.28428607E+03 E0= -.28428268E+03  d E =-.170408E-03  mag=    18.0000
       N       E                     dE             d eps       ncg     rms          rms(c)
DAV:   1    -0.284285095388E+03    0.96487E-03   -0.25461E-01 26712   0.189E+00    0.166E-01
DAV:   2    -0.284286398507E+03   -0.13031E-02   -0.13521E-02 27576   0.349E-01    0.178E-01
DAV:   3    -0.284286479401E+03   -0.80894E-04   -0.11360E-03 34788   0.115E-01    0.323E-01
DAV:   4    -0.284286371145E+03    0.10826E-03   -0.34760E-04 29076   0.771E-02    0.565E-02
DAV:   5    -0.284286384511E+03   -0.13366E-04   -0.12226E-04 27408   0.320E-02    0.899E-02
DAV:   6    -0.284286374990E+03    0.95209E-05   -0.60736E-05 23844   0.314E-02
 125 F= -.28428637E+03 E0= -.28428296E+03  d E =-.308140E-03  mag=    18.0000
       N       E                     dE             d eps       ncg     rms          rms(c)
DAV:   1    -0.284281846758E+03    0.45378E-02   -0.97715E-01 26748   0.368E+00    0.329E-01
DAV:   2    -0.284286760043E+03   -0.49133E-02   -0.50630E-02 27456   0.681E-01    0.380E-01
DAV:   3    -0.284287070528E+03   -0.31048E-03   -0.45788E-03 35148   0.230E-01    0.713E-01
DAV:   4    -0.284286610540E+03    0.45999E-03   -0.12880E-03 31224   0.151E-01    0.152E-01
DAV:   5    -0.284286679770E+03   -0.69230E-04   -0.54146E-04 34512   0.624E-02    0.188E-01
DAV:   6    -0.284286650230E+03    0.29540E-04   -0.15377E-04 31416   0.550E-02    0.119E-01
DAV:   7    -0.284286639778E+03    0.10452E-04   -0.16359E-04 23904   0.341E-02    0.440E-02
DAV:   8    -0.284286645026E+03   -0.52473E-05   -0.26888E-05 18648   0.230E-02
 126 F= -.28428665E+03 E0= -.28428321E+03  d E =-.270036E-03  mag=    18.0000
       N       E                     dE             d eps       ncg     rms          rms(c)
DAV:   1    -0.284284803354E+03    0.18364E-02   -0.49914E-01 26640   0.236E+00    0.374E-01
DAV:   2    -0.284287587341E+03   -0.27840E-02   -0.26545E-02 29052   0.518E-01    0.127E+00
DAV:   3    -0.284286375369E+03    0.12120E-02   -0.81273E-03 30552   0.335E-01    0.240E-01
DAV:   4    -0.284286701506E+03   -0.32614E-03   -0.49311E-04 30216   0.895E-02    0.278E-01
DAV:   5    -0.284286589368E+03    0.11214E-03   -0.50939E-04 34152   0.693E-02    0.617E-02
DAV:   6    -0.284286635108E+03   -0.45739E-04   -0.20705E-04 30636   0.453E-02    0.198E-01
DAV:   7    -0.284286603981E+03    0.31127E-04   -0.53348E-05 23100   0.333E-02    0.140E-01
DAV:   8    -0.284286589564E+03    0.14417E-04   -0.73222E-05 20412   0.228E-02    0.170E-02
DAV:   9    -0.284286599933E+03   -0.10369E-04   -0.23559E-05 17208   0.118E-02    0.359E-02
DAV:  10    -0.284286599519E+03    0.41385E-06   -0.20423E-06 15552   0.602E-03
 127 F= -.28428660E+03 E0= -.28428341E+03  d E =0.455066E-04  mag=    18.0000
       N       E                     dE             d eps       ncg     rms          rms(c)
DAV:   1    -0.284285964441E+03    0.63549E-03   -0.20355E-01 26688   0.167E+00    0.218E-01
DAV:   2    -0.284287015664E+03   -0.10512E-02   -0.10952E-02 29292   0.316E-01    0.256E-01
DAV:   3    -0.284287080549E+03   -0.64885E-04   -0.16367E-03 34080   0.137E-01    0.401E-01
DAV:   4    -0.284286934677E+03    0.14587E-03   -0.38361E-04 32556   0.904E-02    0.128E-01
DAV:   5    -0.284286939739E+03   -0.50618E-05   -0.18263E-04 29436   0.401E-02    0.912E-02
DAV:   6    -0.284286946702E+03   -0.69629E-05   -0.82871E-05 25920   0.304E-02
 128 F= -.28428695E+03 E0= -.28428352E+03  d E =-.347183E-03  mag=    18.0000
       N       E                     dE             d eps       ncg     rms          rms(c)
DAV:   1    -0.284286964895E+03   -0.25156E-04   -0.10378E-02 26820   0.308E-01    0.126E-01
DAV:   2    -0.284287311171E+03   -0.34628E-03   -0.23927E-03 34104   0.145E-01    0.636E-01
DAV:   3    -0.284286908684E+03    0.40249E-03   -0.10414E-03 30852   0.132E-01    0.118E-01
DAV:   4    -0.284287001804E+03   -0.93120E-04   -0.29843E-04 27216   0.320E-02    0.148E-01
DAV:   5    -0.284286997054E+03    0.47499E-05   -0.34930E-05 21204   0.304E-02
 129 F= -.28428700E+03 E0= -.28428354E+03  d E =-.503516E-04  mag=    18.0000
