       N       E                     dE             d eps       ncg     rms          ort
DAV:   1     0.250420564612E+04    0.25042E+04   -0.15716E+05 11088   0.159E+03
DAV:   2    -0.179253646333E+03   -0.26835E+04   -0.25312E+04 11088   0.427E+02
DAV:   3    -0.429263247351E+03   -0.25001E+03   -0.24419E+03 11088   0.147E+02
DAV:   4    -0.437642849084E+03   -0.83796E+01   -0.80371E+01 11088   0.273E+01
DAV:   5    -0.438073733290E+03   -0.43088E+00   -0.42417E+00 11088   0.462E+00
SDA:   6    -0.132021737266E+03    0.30605E+03   -0.42417E+00 11088   0.367E+04 0.000E+00
CGA:   7    -0.182735641545E+03   -0.50714E+02   -0.34336E+03 11088   0.339E+04-0.894E+03
CGA:   8    -0.204294796123E+03   -0.21559E+02   -0.12724E+03 11088   0.104E+04-0.104E+04
CGA:   9    -0.187469128898E+03    0.16826E+02   -0.46821E+02 11088   0.115E+04-0.279E+03
CGA:  10    -0.264945954864E+03   -0.77477E+02   -0.23494E+02 11088   0.120E+04 0.758E+03
CGA:  11    -0.200066452121E+03    0.64880E+02   -0.67931E+02 11088   0.176E+04-0.103E+04
CGA:  12    -0.243248510730E+03   -0.43182E+02   -0.92184E+02 11088   0.122E+04-0.142E+04
CGA:  13    -0.236186983391E+03    0.70615E+01   -0.62991E+02 11088   0.449E+03-0.450E+03
CGA:  14    -0.288397684123E+03   -0.52211E+02   -0.96522E+01 11088   0.371E+03-0.666E+03
CGA:  15    -0.302338533017E+03   -0.13941E+02   -0.97566E+01 11088   0.138E+03-0.148E+03
CGA:  16    -0.311972874232E+03   -0.96343E+01   -0.10312E+01 11088   0.125E+04 0.974E+03
CGA:  17    -0.271241187592E+03    0.40732E+02   -0.61826E+02 11088   0.133E+04-0.666E+03
CGA:  18    -0.242704401981E+03    0.28537E+02   -0.62476E+02 11088   0.725E+04-0.557E+04
CGA:  19    -0.198729291970E+03    0.43975E+02   -0.43565E+03 11088   0.922E+03-0.789E+03
CGA:  20    -0.307216300908E+03   -0.10849E+03   -0.30289E+02 11088   0.389E+03-0.875E+03
CGA:  21    -0.310115023806E+03   -0.28987E+01   -0.99878E+01 11088   0.219E+04-0.214E+04
CGA:  22    -0.302427510744E+03    0.76875E+01   -0.10787E+03 11088   0.138E+03-0.105E+03
CGA:  23    -0.305611351952E+03   -0.31838E+01   -0.15664E+01 11088   0.164E+03 0.167E+03
CGA:  24    -0.321647109460E+03   -0.16036E+02   -0.20797E+01 11088   0.345E+03 0.653E+03
CGA:  25    -0.315636619791E+03    0.60105E+01   -0.94931E+01 11088   0.555E+03-0.228E+03
CGA:  26    -0.321477033981E+03   -0.58404E+01   -0.14450E+02 11088   0.530E+03-0.443E+03
CGA:  27    -0.324264889687E+03   -0.27879E+01   -0.15388E+02 11088   0.123E+03-0.180E+03
CGA:  28    -0.330857613349E+03   -0.65927E+01   -0.15027E+01 11088   0.201E+02-0.612E+02
CGA:  29    -0.330784078323E+03    0.73535E-01   -0.18249E+00 11088   0.342E+02-0.128E+02
CGA:  30    -0.330656710469E+03    0.12737E+00   -0.72326E+00 11088   0.732E+02-0.457E+02
CGA:  31    -0.330932375477E+03   -0.27567E+00   -0.11338E+01 11088   0.407E+02-0.390E+02
CGA:  32    -0.330934385001E+03   -0.20095E-02   -0.68344E+00 11088   0.658E+02-0.527E+02
CGA:  33    -0.330641925829E+03    0.29246E+00   -0.13280E+01 11088   0.753E+02-0.488E+02
CGA:  34    -0.331077923618E+03   -0.43600E+00   -0.11226E+01 11088   0.664E+02-0.828E+02
CGA:  35    -0.330578167032E+03    0.49976E+00   -0.15052E+01 11088   0.865E+02-0.516E+02
CGA:  36    -0.331406293900E+03   -0.82813E+00   -0.12176E+01 11088   0.398E+02-0.698E+02
CGA:  37    -0.331322592683E+03    0.83701E-01   -0.79385E+00 11088   0.449E+02-0.312E+02
CGA:  38    -0.331804789812E+03   -0.48220E+00   -0.48704E+00 11088   0.322E+01-0.652E+01
CGA:  39    -0.332001303963E+03   -0.19651E+00   -0.19011E+00 11088   0.106E+02 0.422E+00
CGA:  40    -0.332214208452E+03   -0.21290E+00   -0.11654E+00 11088   0.493E+01 0.984E+01
CGA:  41    -0.332284508184E+03   -0.70300E-01   -0.71641E-01 11088   0.230E+01-0.676E-01
CGA:  42    -0.332789650878E+03   -0.50514E+00   -0.19495E-01 11088   0.236E+02-0.848E+00
CGA:  43    -0.332573837551E+03    0.21581E+00   -0.22892E+00 11088   0.428E+02-0.351E+02
CGA:  44    -0.332792878475E+03   -0.21904E+00   -0.16251E+01 11088   0.224E+02-0.148E+02
CGA:  45    -0.333116627965E+03   -0.32375E+00   -0.47991E+00 11088   0.978E+01-0.364E+01
CGA:  46    -0.333288454500E+03   -0.17183E+00   -0.10174E+00 11088   0.385E+01 0.540E+01
CGA:  47    -0.333382878631E+03   -0.94424E-01   -0.85685E-01 11088   0.850E+00 0.340E+00
CGA:  48    -0.333434048177E+03   -0.51170E-01   -0.48468E-01 11088   0.193E+01-0.195E-01
CGA:  49    -0.333613055041E+03   -0.17901E+00   -0.18027E+00 11088   0.253E+01-0.973E-01
CGA:  50    -0.333678842783E+03   -0.65788E-01   -0.84116E-01 11088   0.525E+00-0.333E+00
CGA:  51    -0.333718433381E+03   -0.39591E-01   -0.39464E-01 11088   0.610E+00 0.127E-01
CGA:  52    -0.333749204797E+03   -0.30771E-01   -0.32704E-01 11088   0.119E+00-0.462E-02
CGA:  53    -0.333766279073E+03   -0.17074E-01   -0.28146E-01 11088   0.617E+00-0.678E-01
CGA:  54    -0.333788036298E+03   -0.21757E-01   -0.23274E-01 11088   0.514E-01-0.527E-01
CGA:  55    -0.333791984924E+03   -0.39486E-02   -0.39471E-02 11088   0.597E-01-0.221E-02
CGA:  56    -0.333753526978E+03    0.38458E-01   -0.23227E-01 11088   0.218E+01-0.159E+00
CGA:  57    -0.333840842406E+03   -0.87315E-01   -0.88721E-01 11088   0.266E+00-0.671E-01
CGA:  58    -0.333873681225E+03   -0.32839E-01   -0.32447E-01 11088   0.225E+00-0.162E-01
CGA:  59    -0.333889428998E+03   -0.15748E-01   -0.14820E-01 11088   0.931E-01-0.119E-01
CGA:  60    -0.333923351007E+03   -0.33922E-01   -0.39987E-01 11088   0.698E+00-0.291E-01
CGA:  61    -0.333962386904E+03   -0.39036E-01   -0.28109E-01 11088   0.106E+01-0.470E-01
CGA:  62    -0.334010403843E+03   -0.48017E-01   -0.37937E-01 11088   0.110E+01 0.190E+00
CGA:  63    -0.334074471229E+03   -0.64067E-01   -0.46397E-01 11088   0.803E+00 0.310E-01
CGA:  64    -0.334094631320E+03   -0.20160E-01   -0.25588E-01 11088   0.549E+00-0.215E+00
CGA:  65    -0.334110228498E+03   -0.15597E-01   -0.15334E-01 11088   0.644E+00-0.477E-01
CGA:  66    -0.334154906702E+03   -0.44678E-01   -0.31258E-01 11088   0.103E+01 0.104E+00
CGA:  67    -0.334189686769E+03   -0.34780E-01   -0.38156E-01 11088   0.109E+01-0.231E+00
CGA:  68    -0.334203636590E+03   -0.13950E-01   -0.21476E-01 11088   0.989E+00-0.248E+00
CGA:  69    -0.334222270045E+03   -0.18633E-01   -0.21083E-01 11088   0.760E+00-0.391E-01
CGA:  70    -0.334244364394E+03   -0.22094E-01   -0.22684E-01 11088   0.532E+00 0.232E-01
CGA:  71    -0.334262498621E+03   -0.18134E-01   -0.18966E-01 11088   0.435E+00 0.204E-01
CGA:  72    -0.334278744471E+03   -0.16246E-01   -0.17193E-01 11088   0.414E+00 0.155E-01
CGA:  73    -0.334294281880E+03   -0.15537E-01   -0.16647E-01 11088   0.388E+00 0.692E-02
CGA:  74    -0.334308732067E+03   -0.14450E-01   -0.15555E-01 11088   0.342E+00-0.421E-04
CGA:  75    -0.334322295113E+03   -0.13563E-01   -0.13999E-01 11088   0.295E+00 0.259E-03
CGA:  76    -0.334334821383E+03   -0.12526E-01   -0.12690E-01 11088   0.261E+00-0.137E-02
CGA:  77    -0.334345928172E+03   -0.11107E-01   -0.11233E-01 11088   0.225E+00 0.532E-03
CGA:  78    -0.334355053981E+03   -0.91258E-02   -0.93657E-02 11088   0.182E+00 0.529E-02
CGA:  79    -0.334362173151E+03   -0.71192E-02   -0.75588E-02 11088   0.150E+00 0.104E-01
CGA:  80    -0.334368111874E+03   -0.59387E-02   -0.65524E-02 11088   0.137E+00 0.150E-01
CGA:  81    -0.334373730129E+03   -0.56183E-02   -0.63642E-02 11088   0.131E+00 0.191E-01
CGA:  82    -0.334379117659E+03   -0.53875E-02   -0.61907E-02 11088   0.113E+00 0.206E-01
CGA:  83    -0.334383576304E+03   -0.44586E-02   -0.51342E-02 11088   0.818E-01 0.168E-01
CGA:  84    -0.334386802930E+03   -0.32266E-02   -0.36282E-02 11088   0.565E-01 0.103E-01
CGA:  85    -0.334389299162E+03   -0.24962E-02   -0.26758E-02 11088   0.463E-01 0.542E-02
CGA:  86    -0.334391619845E+03   -0.23207E-02   -0.23951E-02 11088   0.460E-01 0.282E-02
SDA:  87    -0.334393826688E+03   -0.22068E-02   -0.22569E-02 11088   0.436E-01 0.196E-02
CGA:  88    -0.334399427542E+03   -0.56009E-02   -0.55141E-02 11088   0.810E-02 0.161E-02
CGA:  89    -0.334402553617E+03   -0.31261E-02   -0.38859E-05 11088   0.723E-02-0.272E-02
CGA:  90    -0.334403485858E+03   -0.93224E-03   -0.90774E-03 11088   0.384E-02 0.448E-03
CGA:  91    -0.334404351089E+03   -0.86523E-03   -0.79647E-03 11088   0.189E-02 0.116E-02
CGA:  92    -0.334404805659E+03   -0.45457E-03   -0.44466E-03 11088   0.683E-03 0.231E-03
CGA:  93    -0.334405056751E+03   -0.25109E-03   -0.27823E-03 11088   0.861E-03-0.127E-03
CGA:  94    -0.334405122473E+03   -0.65722E-04   -0.79789E-04 11088   0.590E-03 0.367E-03
CGA:  95    -0.334405165560E+03   -0.43087E-04   -0.72388E-04 11088   0.311E-03 0.456E-03
CGA:  96    -0.334405209303E+03   -0.43743E-04   -0.44566E-04 11088   0.163E-03 0.215E-03
CGA:  97    -0.334405229890E+03   -0.20587E-04   -0.22103E-04 11088   0.116E-03 0.135E-03
CGA:  98    -0.334405239127E+03   -0.92371E-05   -0.12957E-04 11088   0.982E-04 0.106E-03
   1 F= -.33440524E+03 E0= -.33440513E+03  d E =-.334405E+03  mag=     6.0000
       N       E                     dE             d eps       ncg     rms          ort
SDA:   1    -0.334416940505E+03   -0.11711E-01    0.00000E+00 11088   0.181E-02 0.000E+00
CGA:   2    -0.334417565925E+03   -0.62542E-03   -0.63308E-03 11088   0.790E-03-0.379E-04
CGA:   3    -0.334417627954E+03   -0.62029E-04   -0.80090E-04 11088   0.268E-03 0.366E-03
CGA:   4    -0.334417656467E+03   -0.28513E-04   -0.38551E-04 11088   0.118E-03 0.192E-03
CGA:   5    -0.334417693288E+03   -0.36821E-04    0.15927E-03 11088   0.707E-04 0.691E-04
CGA:   6    -0.334417693482E+03   -0.19413E-06   -0.50511E-05 11088   0.598E-04 0.636E-04
   2 F= -.33441769E+03 E0= -.33441758E+03  d E =-.124544E-01  mag=     6.0000
       N       E                     dE             d eps       ncg     rms          ort
SDA:   1    -0.334258077227E+03    0.15962E+00    0.00000E+00 11088   0.851E+00 0.000E+00
CGA:   2    -0.334549246086E+03   -0.29117E+00   -0.29111E+00 11088   0.292E+00-0.494E-04
CGA:   3    -0.334609224108E+03   -0.59978E-01   -0.60039E-01 11088   0.107E+00-0.115E-02
CGA:   4    -0.334623866532E+03   -0.14642E-01   -0.14653E-01 11088   0.252E-01 0.639E-03
CGA:   5    -0.334628966851E+03   -0.51003E-02   -0.51013E-02 11088   0.917E-02-0.224E-04
CGA:   6    -0.334630694517E+03   -0.17277E-02   -0.17270E-02 11088   0.369E-02 0.198E-04
CGA:   7    -0.334631530684E+03   -0.83617E-03   -0.81598E-03 11088   0.156E-02 0.318E-03
CGA:   8    -0.334631921543E+03   -0.39086E-03   -0.38654E-03 11088   0.689E-03 0.639E-04
CGA:   9    -0.334632051056E+03   -0.12951E-03   -0.12698E-03 11088   0.260E-03 0.189E-03
CGA:  10    -0.334632104310E+03   -0.53254E-04   -0.53577E-04 11088   0.891E-04 0.117E-03
CGA:  11    -0.334632118571E+03   -0.14261E-04   -0.16805E-04 11088   0.476E-04 0.739E-04
CGA:  12    -0.334632119496E+03   -0.92509E-06   -0.39775E-05 11088   0.339E-04 0.386E-04
   3 F= -.33463212E+03 E0= -.33463209E+03  d E =-.214426E+00  mag=     6.0000
       N       E                     dE             d eps       ncg     rms          ort
SDA:   1    -0.333917797974E+03    0.71432E+00    0.00000E+00 11088   0.192E+01 0.000E+00
CGA:   2    -0.334566115300E+03   -0.64832E+00   -0.64840E+00 11088   0.692E+00-0.990E-03
CGA:   3    -0.334700844387E+03   -0.13473E+00   -0.13473E+00 11088   0.254E+00-0.623E-04
CGA:   4    -0.334736901077E+03   -0.36057E-01   -0.36063E-01 11088   0.605E-01 0.183E-03
CGA:   5    -0.334748503893E+03   -0.11603E-01   -0.11613E-01 11088   0.227E-01-0.389E-03
CGA:   6    -0.334752719086E+03   -0.42152E-02   -0.42112E-02 11088   0.836E-02 0.189E-03
CGA:   7    -0.334754702535E+03   -0.19834E-02   -0.19563E-02 11088   0.381E-02 0.413E-03
CGA:   8    -0.334755655647E+03   -0.95311E-03   -0.95552E-03 11088   0.160E-02-0.346E-04
CGA:   9    -0.334755985907E+03   -0.33026E-03   -0.32164E-03 11088   0.547E-03 0.297E-03
CGA:  10    -0.334756132394E+03   -0.14649E-03   -0.14325E-03 11088   0.197E-03 0.696E-04
CGA:  11    -0.334756167931E+03   -0.35536E-04   -0.36525E-04 11088   0.715E-04 0.797E-04
CGA:  12    -0.334756173925E+03   -0.59937E-05   -0.10554E-04 11088   0.379E-04 0.639E-04
   4 F= -.33475617E+03 E0= -.33475617E+03  d E =-.124054E+00  mag=     6.0000
       N       E                     dE             d eps       ncg     rms          ort
SDA:   1    -0.334713437826E+03    0.42730E-01    0.00000E+00 11088   0.108E+00 0.000E+00
CGA:   2    -0.334745584680E+03   -0.32147E-01   -0.31894E-01 11088   0.500E-01 0.197E-02
CGA:   3    -0.334754125694E+03   -0.85410E-02   -0.85409E-02 11088   0.175E-01-0.198E-04
CGA:   4    -0.334756804918E+03   -0.26792E-02   -0.26754E-02 11088   0.439E-02-0.184E-03
CGA:   5    -0.334757569864E+03   -0.76495E-03   -0.76523E-03 11088   0.150E-02-0.123E-03
CGA:   6    -0.334757841763E+03   -0.27190E-03   -0.27113E-03 11088   0.489E-03 0.653E-04
CGA:   7    -0.334757924596E+03   -0.82833E-04   -0.84296E-04 11088   0.179E-03 0.160E-03
CGA:   8    -0.334757959667E+03   -0.35071E-04   -0.36967E-04 11088   0.838E-04 0.103E-03
CGA:   9    -0.334757978730E+03   -0.19063E-04   -0.17864E-04 11088   0.454E-04 0.298E-04
CGA:  10    -0.334757984290E+03   -0.55602E-05   -0.77502E-05 11088   0.285E-04 0.446E-04
   5 F= -.33475798E+03 E0= -.33475798E+03  d E =-.181037E-02  mag=     6.0000
       N       E                     dE             d eps       ncg     rms          ort
SDA:   1    -0.334743765697E+03    0.14213E-01    0.00000E+00 11088   0.471E-01 0.000E+00
CGA:   2    -0.334754082728E+03   -0.10317E-01   -0.10243E-01 11088   0.252E-01 0.150E-02
CGA:   3    -0.334758689798E+03   -0.46071E-02   -0.46047E-02 11088   0.895E-02 0.408E-03
CGA:   4    -0.334760091613E+03   -0.14018E-02   -0.13981E-02 11088   0.216E-02-0.211E-03
CGA:   5    -0.334760457604E+03   -0.36599E-03   -0.36655E-03 11088   0.713E-03-0.194E-03
CGA:   6    -0.334760576173E+03   -0.11857E-03   -0.11877E-03 11088   0.219E-03-0.167E-04
CGA:   7    -0.334760600986E+03   -0.24812E-04   -0.28118E-04 11088   0.702E-04 0.825E-04
CGA:   8    -0.334760605264E+03   -0.42788E-05   -0.87970E-05 11088   0.377E-04 0.575E-04
   6 F= -.33476061E+03 E0= -.33476060E+03  d E =-.262097E-02  mag=     6.0000
       N       E                     dE             d eps       ncg     rms          ort
SDA:   1    -0.334724328898E+03    0.36272E-01    0.00000E+00 11088   0.107E+00 0.000E+00
CGA:   2    -0.334747014878E+03   -0.22686E-01   -0.22588E-01 11088   0.584E-01 0.194E-02
CGA:   3    -0.334757717642E+03   -0.10703E-01   -0.10694E-01 11088   0.210E-01 0.568E-03
CGA:   4    -0.334760905079E+03   -0.31874E-02   -0.31818E-02 11088   0.481E-02-0.363E-03
CGA:   5    -0.334761692845E+03   -0.78777E-03   -0.78829E-03 11088   0.145E-02-0.290E-03
CGA:   6    -0.334761950928E+03   -0.25808E-03   -0.25961E-03 11088   0.470E-03-0.608E-04
CGA:   7    -0.334762025156E+03   -0.74228E-04   -0.74339E-04 11088   0.135E-03 0.896E-04
CGA:   8    -0.334762044670E+03   -0.19515E-04   -0.21804E-04 11088   0.572E-04 0.751E-04
CGA:   9    -0.334762057210E+03   -0.12539E-04   -0.11640E-04 11088   0.270E-04 0.232E-04
CGA:  10    -0.334762062846E+03   -0.56364E-05   -0.59077E-05 11088   0.146E-04 0.238E-04
   7 F= -.33476206E+03 E0= -.33476206E+03  d E =-.145758E-02  mag=     6.0000
       N       E                     dE             d eps       ncg     rms          ort
SDA:   1    -0.334724152524E+03    0.37905E-01    0.00000E+00 11088   0.114E+00 0.000E+00
CGA:   2    -0.334746374754E+03   -0.22222E-01   -0.22170E-01 11088   0.585E-01 0.176E-02
CGA:   3    -0.334757383914E+03   -0.11009E-01   -0.10998E-01 11088   0.226E-01 0.620E-03
CGA:   4    -0.334760801785E+03   -0.34179E-02   -0.34105E-02 11088   0.491E-02-0.404E-03
CGA:   5    -0.334761588901E+03   -0.78712E-03   -0.78586E-03 11088   0.140E-02-0.311E-03
CGA:   6    -0.334761836517E+03   -0.24762E-03   -0.24960E-03 11088   0.443E-03-0.869E-04
CGA:   7    -0.334761909920E+03   -0.73403E-04   -0.73061E-04 11088   0.120E-03 0.420E-04
CGA:   8    -0.334761928402E+03   -0.18482E-04   -0.19505E-04 11088   0.419E-04 0.516E-04
CGA:   9    -0.334761937504E+03   -0.91015E-05   -0.93571E-05 11088   0.196E-04 0.234E-04
   8 F= -.33476194E+03 E0= -.33476194E+03  d E =0.125343E-03  mag=     6.0000
       N       E                     dE             d eps       ncg     rms          ort
SDA:   1    -0.334474725750E+03    0.28720E+00    0.00000E+00 11088   0.848E+00 0.000E+00
CGA:   2    -0.334642367442E+03   -0.16764E+00   -0.16795E+00 11088   0.454E+00 0.219E-02
CGA:   3    -0.334725233705E+03   -0.82866E-01   -0.82934E-01 11088   0.172E+00 0.534E-03
CGA:   4    -0.334750162615E+03   -0.24929E-01   -0.24828E-01 11088   0.369E-01-0.755E-03
CGA:   5    -0.334755729725E+03   -0.55671E-02   -0.55156E-02 11088   0.967E-02-0.396E-03
CGA:   6    -0.334757505619E+03   -0.17759E-02   -0.17678E-02 11088   0.288E-02-0.893E-04
CGA:   7    -0.334758077548E+03   -0.57193E-03   -0.57057E-03 11088   0.932E-03-0.193E-04
CGA:   8    -0.334758273660E+03   -0.19611E-03   -0.19875E-03 11088   0.348E-03 0.471E-04
CGA:   9    -0.334758378194E+03   -0.10453E-03   -0.10575E-03 11088   0.232E-03-0.556E-04
CGA:  10    -0.334758412352E+03   -0.34158E-04   -0.35021E-04 11088   0.967E-04 0.972E-05
CGA:  11    -0.334758435636E+03   -0.23284E-04   -0.23165E-04 11088   0.356E-04-0.352E-05
CGA:  12    -0.334758446307E+03   -0.10671E-04   -0.12075E-04 11088   0.248E-04-0.157E-04
CGA:  13    -0.334758447291E+03   -0.98441E-06   -0.17339E-05 11088   0.142E-04 0.527E-05
   9 F= -.33475845E+03 E0= -.33475845E+03  d E =0.349021E-02  mag=     6.0000
       N       E                     dE             d eps       ncg     rms          ort
SDA:   1    -0.334573545235E+03    0.18490E+00    0.00000E+00 11088   0.460E+00 0.000E+00
CGA:   2    -0.334692321734E+03   -0.11878E+00   -0.11877E+00 11088   0.266E+00 0.191E-02
CGA:   3    -0.334735985626E+03   -0.43664E-01   -0.43688E-01 11088   0.825E-01 0.212E-03
CGA:   4    -0.334748203068E+03   -0.12217E-01   -0.12156E-01 11088   0.186E-01-0.621E-03
CGA:   5    -0.334751214098E+03   -0.30110E-02   -0.29904E-02 11088   0.535E-02-0.254E-03
CGA:   6    -0.334752182299E+03   -0.96820E-03   -0.97159E-03 11088   0.164E-02 0.586E-04
CGA:   7    -0.334752526634E+03   -0.34434E-03   -0.34659E-03 11088   0.598E-03 0.788E-04
CGA:   8    -0.334752656391E+03   -0.12976E-03   -0.13233E-03 11088   0.218E-03 0.102E-03
CGA:   9    -0.334752722645E+03   -0.66255E-04   -0.65636E-04 11088   0.945E-04 0.275E-04
CGA:  10    -0.334752746219E+03   -0.23574E-04   -0.23862E-04 11088   0.322E-04 0.236E-04
CGA:  11    -0.334752750705E+03   -0.44855E-05   -0.61015E-05 11088   0.118E-04 0.193E-04
  10 F= -.33475275E+03 E0= -.33475275E+03  d E =0.569659E-02  mag=     6.0000
       N       E                     dE             d eps       ncg     rms          ort
SDA:   1    -0.334722428350E+03    0.30318E-01    0.00000E+00 11088   0.900E-01 0.000E+00
CGA:   2    -0.334745265414E+03   -0.22837E-01   -0.22858E-01 11088   0.526E-01-0.774E-03
CGA:   3    -0.334753911073E+03   -0.86457E-02   -0.86254E-02 11088   0.173E-01-0.337E-03
CGA:   4    -0.334756442413E+03   -0.25313E-02   -0.25478E-02 11088   0.398E-02 0.212E-03
CGA:   5    -0.334757073079E+03   -0.63067E-03   -0.64141E-03 11088   0.111E-02 0.175E-03
CGA:   6    -0.334757302024E+03   -0.22894E-03   -0.22902E-03 11088   0.391E-03 0.376E-05
CGA:   7    -0.334757397918E+03   -0.95894E-04   -0.97448E-04 11088   0.205E-03-0.487E-04
CGA:   8    -0.334757447537E+03   -0.49619E-04   -0.60283E-04 11088   0.168E-03-0.902E-04
CGA:   9    -0.334757463931E+03   -0.16394E-04   -0.16209E-04 11088   0.663E-04-0.359E-05
CGA:  10    -0.334757472496E+03   -0.85653E-05   -0.95389E-05 11088   0.277E-04 0.131E-04
  11 F= -.33475747E+03 E0= -.33475747E+03  d E =-.472179E-02  mag=     6.0000
       N       E                     dE             d eps       ncg     rms          ort
SDA:   1    -0.334754026755E+03    0.34372E-02    0.00000E+00 11088   0.107E-01 0.000E+00
CGA:   2    -0.334756091171E+03   -0.20644E-02   -0.20610E-02 11088   0.570E-02-0.168E-03
CGA:   3    -0.334757160659E+03   -0.10695E-02   -0.10662E-02 11088   0.225E-02-0.145E-03
CGA:   4    -0.334757468520E+03   -0.30786E-03   -0.30886E-03 11088   0.456E-03 0.133E-04
CGA:   5    -0.334757529028E+03   -0.60508E-04   -0.63446E-04 11088   0.107E-03 0.419E-04
CGA:   6    -0.334757545907E+03   -0.16879E-04   -0.18133E-04 11088   0.307E-04 0.257E-04
CGA:   7    -0.334757552811E+03   -0.69043E-05   -0.70116E-05 11088   0.112E-04 0.599E-05
  12 F= -.33475755E+03 E0= -.33475755E+03  d E =-.803150E-04  mag=     6.0000
       N       E                     dE             d eps       ncg     rms          ort
SDA:   1    -0.334725115427E+03    0.32430E-01    0.00000E+00 11088   0.745E-01 0.000E+00
CGA:   2    -0.334748450528E+03   -0.23335E-01   -0.23295E-01 11088   0.319E-01 0.407E-03
CGA:   3    -0.334753525115E+03   -0.50746E-02   -0.50608E-02 11088   0.108E-01-0.222E-03
CGA:   4    -0.334755043900E+03   -0.15188E-02   -0.15068E-02 11088   0.255E-02-0.155E-03
CGA:   5    -0.334755433726E+03   -0.38983E-03   -0.39089E-03 11088   0.623E-03 0.173E-04
CGA:   6    -0.334755545804E+03   -0.11208E-03   -0.11351E-03 11088   0.190E-03 0.457E-04
CGA:   7    -0.334755588726E+03   -0.42922E-04   -0.42921E-04 11088   0.730E-04 0.238E-05
CGA:   8    -0.334755606996E+03   -0.18270E-04   -0.18324E-04 11088   0.363E-04-0.146E-05
CGA:   9    -0.334755614733E+03   -0.77365E-05   -0.77167E-05 11088   0.145E-04 0.456E-05
  13 F= -.33475561E+03 E0= -.33475561E+03  d E =0.193808E-02  mag=     6.0000
       N       E                     dE             d eps       ncg     rms          ort
SDA:   1    -0.334539734592E+03    0.21587E+00    0.00000E+00 11088   0.509E+00 0.000E+00
CGA:   2    -0.334691114050E+03   -0.15138E+00   -0.15122E+00 11088   0.268E+00 0.166E-02
CGA:   3    -0.334732141371E+03   -0.41027E-01   -0.41014E-01 11088   0.732E-01-0.241E-03
CGA:   4    -0.334742980533E+03   -0.10839E-01   -0.10799E-01 11088   0.166E-01-0.671E-03
CGA:   5    -0.334745695791E+03   -0.27153E-02   -0.27078E-02 11088   0.479E-02-0.181E-03
CGA:   6    -0.334746567212E+03   -0.87142E-03   -0.87168E-03 11088   0.143E-02 0.118E-04
CGA:   7    -0.334746872403E+03   -0.30519E-03   -0.30552E-03 11088   0.560E-03-0.350E-04
CGA:   8    -0.334747007078E+03   -0.13468E-03   -0.13682E-03 11088   0.302E-03-0.460E-04
CGA:   9    -0.334747079035E+03   -0.71957E-04   -0.78797E-04 11088   0.248E-03-0.870E-04
CGA:  10    -0.334747110490E+03   -0.31454E-04   -0.30543E-04 11088   0.895E-04-0.247E-04
CGA:  11    -0.334747131209E+03   -0.20719E-04   -0.23660E-04 11088   0.482E-04-0.344E-04
CGA:  12    -0.334747137260E+03   -0.60513E-05   -0.60039E-05 11088   0.242E-04-0.472E-05
  14 F= -.33474714E+03 E0= -.33474714E+03  d E =0.847747E-02  mag=     6.0000
       N       E                     dE             d eps       ncg     rms          ort
SDA:   1    -0.333433041504E+03    0.13141E+01    0.00000E+00 11088   0.317E+01 0.000E+00
CGA:   2    -0.334383160366E+03   -0.95012E+00   -0.94939E+00 11088   0.157E+01 0.730E-02
CGA:   3    -0.334629944514E+03   -0.24678E+00   -0.24673E+00 11088   0.446E+00-0.124E-02
CGA:   4    -0.334695376772E+03   -0.65432E-01   -0.65315E-01 11088   0.999E-01-0.182E-02
CGA:   5    -0.334711576201E+03   -0.16199E-01   -0.16186E-01 11088   0.286E-01-0.313E-03
CGA:   6    -0.334716865576E+03   -0.52894E-02   -0.52931E-02 11088   0.858E-02 0.165E-03
CGA:   7    -0.334718648667E+03   -0.17831E-02   -0.17830E-02 11088   0.307E-02 0.110E-03
CGA:   8    -0.334719412268E+03   -0.76360E-03   -0.76066E-03 11088   0.134E-02 0.757E-04
CGA:   9    -0.334719798319E+03   -0.38605E-03   -0.38908E-03 11088   0.658E-03-0.402E-04
CGA:  10    -0.334719948504E+03   -0.15018E-03   -0.14946E-03 11088   0.252E-03 0.326E-04
CGA:  11    -0.334720002163E+03   -0.53659E-04   -0.53744E-04 11088   0.102E-03 0.905E-05
CGA:  12    -0.334720014444E+03   -0.12281E-04   -0.14709E-04 11088   0.290E-04 0.334E-04
CGA:  13    -0.334720018594E+03   -0.41496E-05   -0.54056E-05 11088   0.153E-04 0.183E-04
  15 F= -.33472002E+03 E0= -.33472001E+03  d E =0.271187E-01  mag=     6.0000
       N       E                     dE             d eps       ncg     rms          ort
SDA:   1    -0.334429792236E+03    0.29022E+00    0.00000E+00 11088   0.881E+00 0.000E+00
CGA:   2    -0.334602401844E+03   -0.17261E+00   -0.17263E+00 11088   0.476E+00 0.145E-02
CGA:   3    -0.334691399758E+03   -0.88998E-01   -0.89002E-01 11088   0.179E+00 0.141E-03
CGA:   4    -0.334716838593E+03   -0.25439E-01   -0.25435E-01 11088   0.364E-01-0.124E-03
CGA:   5    -0.334722507509E+03   -0.56689E-02   -0.56751E-02 11088   0.988E-02 0.125E-03
CGA:   6    -0.334724383007E+03   -0.18755E-02   -0.18756E-02 11088   0.303E-02 0.508E-05
CGA:   7    -0.334724990874E+03   -0.60787E-03   -0.60786E-03 11088   0.962E-03 0.152E-05
CGA:   8    -0.334725187293E+03   -0.19642E-03   -0.19586E-03 11088   0.321E-03 0.102E-03
CGA:   9    -0.334725278769E+03   -0.91477E-04   -0.90451E-04 11088   0.140E-03 0.181E-04
CGA:  10    -0.334725309634E+03   -0.30864E-04   -0.30686E-04 11088   0.530E-04 0.274E-04
CGA:  11    -0.334725323518E+03   -0.13885E-04   -0.13754E-04 11088   0.212E-04 0.841E-05
CGA:  12    -0.334725328803E+03   -0.52846E-05   -0.52407E-05 11088   0.840E-05 0.389E-05
  16 F= -.33472533E+03 E0= -.33472533E+03  d E =-.531021E-02  mag=     6.0000
       N       E                     dE             d eps       ncg     rms          ort
SDA:   1    -0.334656233092E+03    0.69090E-01    0.00000E+00 11088   0.186E+00 0.000E+00
CGA:   2    -0.334708282179E+03   -0.52049E-01   -0.52123E-01 11088   0.103E+00-0.128E-02
CGA:   3    -0.334723677264E+03   -0.15395E-01   -0.15443E-01 11088   0.298E-01 0.690E-03
CGA:   4    -0.334728387430E+03   -0.47102E-02   -0.47124E-02 11088   0.691E-02 0.278E-04
CGA:   5    -0.334729591429E+03   -0.12040E-02   -0.11949E-02 11088   0.220E-02-0.210E-03
CGA:   6    -0.334729985330E+03   -0.39390E-03   -0.39276E-03 11088   0.762E-03-0.383E-04
CGA:   7    -0.334730160530E+03   -0.17520E-03   -0.17851E-03 11088   0.406E-03-0.129E-03
CGA:   8    -0.334730244376E+03   -0.83846E-04   -0.89935E-04 11088   0.274E-03-0.116E-03
CGA:   9    -0.334730288200E+03   -0.43824E-04   -0.44688E-04 11088   0.145E-03-0.706E-04
CGA:  10    -0.334730312938E+03   -0.24738E-04   -0.25394E-04 11088   0.613E-04-0.360E-04
CGA:  11    -0.334730337887E+03   -0.24949E-04    0.21081E-04 11088   0.205E-04-0.420E-05
CGA:  12    -0.334730346749E+03   -0.88616E-05    0.33650E-04 11088   0.750E-05 0.307E-05
  17 F= -.33473035E+03 E0= -.33473034E+03  d E =-.501795E-02  mag=     6.0000
       N       E                     dE             d eps       ncg     rms          ort
SDA:   1    -0.334683590052E+03    0.46748E-01    0.00000E+00 11088   0.106E+00 0.000E+00
CGA:   2    -0.334715024249E+03   -0.31434E-01   -0.31323E-01 11088   0.502E-01 0.142E-02
CGA:   3    -0.334723327752E+03   -0.83035E-02   -0.82866E-02 11088   0.153E-01-0.290E-03
CGA:   4    -0.334725577928E+03   -0.22502E-02   -0.22248E-02 11088   0.337E-02-0.354E-03
CGA:   5    -0.334726132301E+03   -0.55437E-03   -0.54969E-03 11088   0.993E-03-0.970E-04
CGA:   6    -0.334726315062E+03   -0.18276E-03   -0.18211E-03 11088   0.310E-03-0.271E-04
CGA:   7    -0.334726376850E+03   -0.61788E-04   -0.61765E-04 11088   0.117E-03-0.353E-05
CGA:   8    -0.334726407749E+03   -0.30898E-04   -0.32573E-04 11088   0.856E-04-0.243E-04
CGA:   9    -0.334726417664E+03   -0.99153E-05   -0.28773E-04 11088   0.237E-03-0.902E-04
CGA:  10    -0.334726439129E+03   -0.21465E-04   -0.22965E-04 11088   0.307E-04 0.120E-04
CGA:  11    -0.334726448156E+03   -0.90268E-05   -0.12010E-04 11088   0.258E-04-0.194E-04
  18 F= -.33472645E+03 E0= -.33472645E+03  d E =0.389859E-02  mag=     6.0000
       N       E                     dE             d eps       ncg     rms          ort
SDA:   1    -0.333475170609E+03    0.12513E+01    0.00000E+00 11088   0.301E+01 0.000E+00
CGA:   2    -0.334402850361E+03   -0.92768E+00   -0.92690E+00 11088   0.127E+01 0.806E-02
CGA:   3    -0.334619876709E+03   -0.21703E+00   -0.21700E+00 11088   0.390E+00-0.981E-03
CGA:   4    -0.334674859970E+03   -0.54983E-01   -0.54813E-01 11088   0.819E-01-0.200E-02
CGA:   5    -0.334688541598E+03   -0.13682E-01   -0.13662E-01 11088   0.245E-01-0.396E-03
CGA:   6    -0.334693079442E+03   -0.45378E-02   -0.45434E-02 11088   0.734E-02 0.169E-03
CGA:   7    -0.334694642929E+03   -0.15635E-02   -0.15634E-02 11088   0.293E-02-0.130E-04
CGA:   8    -0.334695347867E+03   -0.70494E-03   -0.70316E-03 11088   0.139E-02 0.733E-04
CGA:   9    -0.334695716491E+03   -0.36862E-03   -0.37197E-03 11088   0.854E-03-0.771E-04
CGA:  10    -0.334695870289E+03   -0.15380E-03   -0.15410E-03 11088   0.343E-03 0.110E-04
CGA:  11    -0.334695948020E+03   -0.77731E-04   -0.77789E-04 11088   0.108E-03-0.106E-04
CGA:  12    -0.334695970964E+03   -0.22944E-04   -0.22936E-04 11088   0.332E-04 0.128E-04
CGA:  13    -0.334695981751E+03   -0.10787E-04   -0.19944E-04 11088   0.792E-04-0.289E-04
CGA:  14    -0.334695991562E+03   -0.98108E-05   -0.10647E-04 11088   0.222E-04 0.842E-05
  19 F= -.33469599E+03 E0= -.33469599E+03  d E =0.304566E-01  mag=     6.0000
       N       E                     dE             d eps       ncg     rms          ort
SDA:   1    -0.326303095299E+03    0.83929E+01    0.00000E+00 11088   0.205E+02 0.000E+00
CGA:   2    -0.332621041065E+03   -0.63179E+01   -0.63149E+01 11088   0.841E+01 0.276E-01
CGA:   3    -0.334066457978E+03   -0.14454E+01   -0.14452E+01 11088   0.274E+01 0.314E-02
CGA:   4    -0.334451521117E+03   -0.38506E+00   -0.38412E+00 11088   0.552E+00-0.723E-02
CGA:   5    -0.334546659195E+03   -0.95138E-01   -0.95012E-01 11088   0.169E+00-0.206E-02
CGA:   6    -0.334578581328E+03   -0.31922E-01   -0.31948E-01 11088   0.534E-01 0.675E-03
CGA:   7    -0.334590402001E+03   -0.11821E-01   -0.11819E-01 11088   0.231E-01-0.112E-02
CGA:   8    -0.334595926138E+03   -0.55241E-02   -0.55290E-02 11088   0.115E-01-0.215E-03
CGA:   9    -0.334598752020E+03   -0.28259E-02   -0.28485E-02 11088   0.696E-02-0.856E-03
CGA:  10    -0.334600006379E+03   -0.12544E-02   -0.12408E-02 11088   0.291E-02-0.415E-03
CGA:  11    -0.334600638898E+03   -0.63252E-03   -0.63720E-03 11088   0.116E-02-0.446E-03
CGA:  12    -0.334600865554E+03   -0.22666E-03   -0.22882E-03 11088   0.640E-03-0.210E-03
CGA:  13    -0.334600997593E+03   -0.13204E-03   -0.15550E-03 11088   0.719E-03-0.321E-03
CGA:  14    -0.334601101592E+03   -0.10400E-03   -0.97256E-04 11088   0.272E-03-0.719E-04
CGA:  15    -0.334601171629E+03   -0.70037E-04   -0.92367E-04 11088   0.345E-03-0.144E-03
CGA:  16    -0.334601220863E+03   -0.49234E-04   -0.46685E-04 11088   0.126E-03-0.262E-04
CGA:  17    -0.334601210067E+03    0.10796E-04   -0.67840E-04 11088   0.795E-03-0.220E-03
CGA:  18    -0.334601294683E+03   -0.84616E-04   -0.86721E-04 11088   0.157E-03 0.179E-04
CGA:  19    -0.334601336801E+03   -0.42118E-04   -0.45065E-04 11088   0.735E-04-0.686E-04
CGA:  20    -0.334601362206E+03   -0.25405E-04    0.17532E-04 11088   0.519E-04 0.965E-05
CGA:  21    -0.334601398433E+03   -0.36227E-04    0.24183E-04 11088   0.202E-04 0.140E-04
CGA:  22    -0.334601420076E+03   -0.21643E-04    0.39911E-05 11088   0.130E-04 0.159E-04
CGA:  23    -0.334601430828E+03   -0.10752E-04    0.21380E-05 11088   0.929E-05 0.692E-05
CGA:  24    -0.334601436936E+03   -0.61080E-05    0.29618E-05 11088   0.136E-04 0.370E-05
  20 F= -.33460144E+03 E0= -.33460142E+03  d E =0.945546E-01  mag=     6.0000
       N       E                     dE             d eps       ncg     rms          ort
SDA:   1    -0.323091186829E+03    0.11510E+02    0.00000E+00 11088   0.281E+02 0.000E+00
CGA:   2    -0.331816365848E+03   -0.87252E+01   -0.87184E+01 11088   0.120E+02 0.651E-01
CGA:   3    -0.333676238193E+03   -0.18599E+01   -0.18353E+01 11088   0.426E+01 0.507E-01
CGA:   4    -0.334300436865E+03   -0.62420E+00   -0.62609E+00 11088   0.770E+00-0.113E-01
CGA:   5    -0.334439818059E+03   -0.13938E+00   -0.13889E+00 11088   0.241E+00-0.713E-02
CGA:   6    -0.334484195612E+03   -0.44378E-01   -0.44488E-01 11088   0.773E-01 0.217E-02
CGA:   7    -0.334501351135E+03   -0.17156E-01   -0.17147E-01 11088   0.337E-01-0.930E-03
CGA:   8    -0.334509558711E+03   -0.82076E-02   -0.82207E-02 11088   0.172E-01-0.703E-03
CGA:   9    -0.334513240952E+03   -0.36822E-02   -0.36830E-02 11088   0.926E-02 0.802E-04
CGA:  10    -0.334515147026E+03   -0.19061E-02   -0.18853E-02 11088   0.434E-02-0.809E-03
CGA:  11    -0.334516012473E+03   -0.86545E-03   -0.85820E-03 11088   0.178E-02-0.674E-03
CGA:  12    -0.334516307223E+03   -0.29475E-03   -0.29246E-03 11088   0.655E-03-0.706E-04
CGA:  13    -0.334516472798E+03   -0.16557E-03   -0.17116E-03 11088   0.424E-03-0.119E-03
CGA:  14    -0.334516206684E+03    0.26611E-03   -0.26926E-03 11088   0.571E-02-0.976E-03
CGA:  15    -0.334516639076E+03   -0.43239E-03   -0.48408E-03 11088   0.550E-03 0.343E-03
CGA:  16    -0.334516742014E+03   -0.10294E-03   -0.11283E-03 11088   0.171E-03 0.187E-03
CGA:  17    -0.334516766608E+03   -0.24593E-04   -0.10324E-03 11088   0.135E-02-0.379E-03
CGA:  18    -0.334516835875E+03   -0.69267E-04   -0.10125E-03 11088   0.948E-04 0.184E-03
CGA:  19    -0.334516834229E+03    0.16461E-05   -0.87625E-05 11088   0.567E-04 0.635E-04
CGA:  20    -0.334516852993E+03   -0.18765E-04   -0.19757E-04 11088   0.811E-04-0.893E-05
CGA:  21    -0.334516864956E+03   -0.11962E-04   -0.10850E-04 11088   0.281E-04-0.134E-04
CGA:  22    -0.334516882436E+03   -0.17480E-04    0.49930E-05 11088   0.234E-04 0.178E-04
CGA:  23    -0.334516888457E+03   -0.60215E-05   -0.61095E-05 11088   0.384E-04-0.382E-05
CGA:  24    -0.334516871360E+03    0.17097E-04   -0.26454E-04 11088   0.248E-03-0.756E-04
CGA:  25    -0.334516926901E+03   -0.55541E-04   -0.50781E-04 11088   0.250E-03-0.742E-04
CGA:  26    -0.334516956328E+03   -0.29427E-04   -0.27797E-04 11088   0.346E-04-0.151E-04
CGA:  27    -0.334516955121E+03    0.12075E-05   -0.16740E-05 11088   0.128E-04 0.138E-04
  21 F= -.33451696E+03 E0= -.33451678E+03  d E =0.844818E-01  mag=     6.0000
       N       E                     dE             d eps       ncg     rms          ort
SDA:   1    -0.322660936630E+03    0.11856E+02    0.00000E+00 11088   0.298E+02 0.000E+00
CGA:   2    -0.331435443962E+03   -0.87745E+01   -0.87806E+01 11088   0.145E+02-0.904E-01
CGA:   3    -0.333711323479E+03   -0.22759E+01   -0.22942E+01 11088   0.453E+01 0.139E-01
CGA:   4    -0.334362795259E+03   -0.65147E+00   -0.64875E+00 11088   0.944E+00 0.896E-02
CGA:   5    -0.334521787930E+03   -0.15899E+00   -0.15903E+00 11088   0.273E+00-0.135E-03
CGA:   6    -0.334574007863E+03   -0.52220E-01   -0.52296E-01 11088   0.855E-01 0.191E-02
CGA:   7    -0.334593190623E+03   -0.19183E-01   -0.19180E-01 11088   0.348E-01-0.653E-03
CGA:   8    -0.334602010570E+03   -0.88199E-02   -0.88288E-02 11088   0.162E-01-0.336E-03
CGA:   9    -0.334606163694E+03   -0.41531E-02   -0.41422E-02 11088   0.673E-02 0.367E-03
CGA:  10    -0.334607867644E+03   -0.17039E-02   -0.17043E-02 11088   0.299E-02-0.201E-04
CGA:  11    -0.334608342509E+03   -0.47486E-03   -0.48764E-03 11088   0.115E-02 0.184E-03
CGA:  12    -0.334608555336E+03   -0.21283E-03   -0.22132E-03 11088   0.307E-03 0.183E-03
CGA:  13    -0.334608662114E+03   -0.10678E-03   -0.10553E-03 11088   0.172E-03 0.172E-04
CGA:  14    -0.334608675747E+03   -0.13633E-04   -0.23819E-04 11088   0.975E-04 0.103E-03
CGA:  15    -0.334608686061E+03   -0.10315E-04   -0.14861E-04 11088   0.532E-04 0.631E-04
CGA:  16    -0.334608702412E+03   -0.16350E-04   -0.14491E-04 11088   0.421E-04 0.361E-04
CGA:  17    -0.334608703896E+03   -0.14847E-05   -0.48135E-05 11088   0.333E-04 0.305E-04
  22 F= -.33460870E+03 E0= -.33460870E+03  d E =-.917488E-01  mag=     6.0000
       N       E                     dE             d eps       ncg     rms          ort
SDA:   1    -0.300821273918E+03    0.33787E+02    0.00000E+00 11088   0.757E+02 0.000E+00
CGA:   2    -0.323222340863E+03   -0.22401E+02   -0.22422E+02 11088   0.405E+02-0.259E+00
CGA:   3    -0.328804938251E+03   -0.55826E+01   -0.56221E+01 11088   0.125E+02 0.531E+00
CGA:   4    -0.331138862583E+03   -0.23339E+01   -0.23305E+01 11088   0.307E+01-0.235E-01
CGA:   5    -0.331688510950E+03   -0.54965E+00   -0.54794E+00 11088   0.104E+01-0.190E-01
CGA:   6    -0.331886249186E+03   -0.19774E+00   -0.19785E+00 11088   0.426E+00 0.315E-02
CGA:   7    -0.331983883300E+03   -0.97634E-01   -0.97640E-01 11088   0.198E+00 0.532E-03
CGA:   8    -0.332028684089E+03   -0.44801E-01   -0.44872E-01 11088   0.968E-01-0.551E-02
CGA:   9    -0.332047060375E+03   -0.18376E-01   -0.18381E-01 11088   0.402E-01 0.892E-03
CGA:  10    -0.332055678099E+03   -0.86177E-02   -0.86174E-02 11088   0.160E-01-0.110E-02
CGA:  11    -0.332058947862E+03   -0.32698E-02   -0.32646E-02 11088   0.772E-02-0.164E-02
CGA:  12    -0.332060257736E+03   -0.13099E-02   -0.12874E-02 11088   0.348E-02-0.857E-03
CGA:  13    -0.332060867807E+03   -0.61007E-03   -0.61012E-03 11088   0.114E-02 0.221E-06
CGA:  14    -0.332057542057E+03    0.33257E-02   -0.18065E-02 11088   0.283E-01-0.430E-02
CGA:  15    -0.332060538330E+03   -0.29963E-02   -0.33631E-02 11088   0.611E-02 0.125E-02
CGA:  16    -0.332061608682E+03   -0.10704E-02   -0.11364E-02 11088   0.126E-02 0.345E-03
CGA:  17    -0.332062021285E+03   -0.41260E-03   -0.36528E-03 11088   0.129E-02-0.538E-03
CGA:  18    -0.332062067172E+03   -0.45887E-04   -0.78625E-04 11088   0.577E-03 0.129E-03
CGA:  19    -0.332062043083E+03    0.24089E-04   -0.42613E-04 11088   0.250E-03 0.240E-03
CGA:  20    -0.332062015081E+03    0.28002E-04   -0.22615E-04 11088   0.160E-03 0.190E-03
CGA:  21    -0.332062054854E+03   -0.39773E-04   -0.39282E-04 11088   0.157E-03-0.661E-05
CGA:  22    -0.332062070336E+03   -0.15482E-04   -0.20859E-04 11088   0.349E-04 0.307E-04
CGA:  23    -0.332062065130E+03    0.52057E-05   -0.25308E-05 11088   0.258E-04 0.317E-04
  23 F= -.33206207E+03 E0= -.33206106E+03  d E =0.254664E+01  mag=     6.0000
       N       E                     dE             d eps       ncg     rms          ort
SDA:   1    -0.319925856207E+03    0.12136E+02    0.00000E+00 11088   0.329E+02 0.000E+00
CGA:   2    -0.331223317487E+03   -0.11297E+02   -0.11327E+02 11088   0.119E+02-0.440E+00
CGA:   3    -0.333156904155E+03   -0.19336E+01   -0.20019E+01 11088   0.469E+01-0.361E-01
CGA:   4    -0.333888294765E+03   -0.73139E+00   -0.71951E+00 11088   0.982E+00 0.481E-01
CGA:   5    -0.334091865385E+03   -0.20357E+00   -0.20312E+00 11088   0.429E+00-0.635E-02
CGA:   6    -0.334174219418E+03   -0.82354E-01   -0.82551E-01 11088   0.177E+00 0.316E-02
CGA:   7    -0.334217479734E+03   -0.43260E-01   -0.43217E-01 11088   0.863E-01-0.217E-02
CGA:   8    -0.334235999632E+03   -0.18520E-01   -0.18341E-01 11088   0.392E-01-0.359E-02
CGA:   9    -0.334243798517E+03   -0.77989E-02   -0.78570E-02 11088   0.133E-01 0.113E-02
CGA:  10    -0.334246891365E+03   -0.30928E-02   -0.30920E-02 11088   0.453E-02-0.226E-04
CGA:  11    -0.334248069696E+03   -0.11783E-02   -0.11821E-02 11088   0.251E-02-0.869E-03
CGA:  12    -0.334248422520E+03   -0.35282E-03   -0.35297E-03 11088   0.866E-03 0.100E-05
CGA:  13    -0.334248575813E+03   -0.15329E-03   -0.16448E-03 11088   0.330E-03 0.176E-03
CGA:  14    -0.334246430127E+03    0.21457E-02   -0.11579E-02 11088   0.163E-01-0.202E-02
CGA:  15    -0.334248214148E+03   -0.17840E-02   -0.20220E-02 11088   0.307E-02 0.450E-03
CGA:  16    -0.334248830677E+03   -0.61653E-03   -0.65706E-03 11088   0.628E-03 0.178E-03
CGA:  17    -0.334249117964E+03   -0.28729E-03   -0.27301E-03 11088   0.195E-02-0.822E-03
CGA:  18    -0.334249136484E+03   -0.18520E-04   -0.17391E-03 11088   0.183E-03 0.461E-03
CGA:  19    -0.334249114273E+03    0.22210E-04   -0.16086E-04 11088   0.734E-04 0.113E-03
CGA:  20    -0.334249129580E+03   -0.15307E-04   -0.18643E-04 11088   0.269E-04 0.239E-04
CGA:  21    -0.334248947329E+03    0.18225E-03   -0.59480E-04 11088   0.198E-02-0.188E-03
CGA:  22    -0.334249126546E+03   -0.17922E-03   -0.20236E-03 11088   0.228E-03 0.548E-04
CGA:  23    -0.334249158160E+03   -0.31614E-04   -0.48780E-04 11088   0.457E-04 0.762E-04
CGA:  24    -0.334249224429E+03   -0.66269E-04    0.44613E-04 11088   0.165E-03-0.677E-04
CGA:  25    -0.334249219890E+03    0.45393E-05   -0.12209E-04 11088   0.208E-04 0.480E-04
  24 F= -.33424922E+03 E0= -.33424916E+03  d E =-.218715E+01  mag=     6.0000
       N       E                     dE             d eps       ncg     rms          ort
SDA:   1    -0.333200271206E+03    0.10490E+01    0.00000E+00 11088   0.303E+01 0.000E+00
CGA:   2    -0.334124476876E+03   -0.92421E+00   -0.92447E+00 11088   0.144E+01 0.210E-02
CGA:   3    -0.334345378018E+03   -0.22090E+00   -0.22057E+00 11088   0.484E+00 0.221E-02
CGA:   4    -0.334428280682E+03   -0.82903E-01   -0.83001E-01 11088   0.121E+00-0.207E-03
CGA:   5    -0.334449357367E+03   -0.21077E-01   -0.20997E-01 11088   0.390E-01-0.385E-03
CGA:   6    -0.334456678097E+03   -0.73207E-02   -0.73228E-02 11088   0.156E-01-0.114E-04
CGA:   7    -0.334460146525E+03   -0.34684E-02   -0.35121E-02 11088   0.681E-02 0.370E-03
CGA:   8    -0.334461810464E+03   -0.16639E-02   -0.16509E-02 11088   0.316E-02-0.128E-03
CGA:   9    -0.334462424658E+03   -0.61419E-03   -0.63242E-03 11088   0.131E-02 0.142E-03
CGA:  10    -0.334462679725E+03   -0.25507E-03   -0.26843E-03 11088   0.439E-03 0.104E-03
CGA:  11    -0.334462802471E+03   -0.12275E-03   -0.11859E-03 11088   0.248E-03-0.597E-04
CGA:  12    -0.334462824199E+03   -0.21728E-04   -0.30591E-04 11088   0.830E-04 0.513E-04
CGA:  13    -0.334462834497E+03   -0.10299E-04   -0.15661E-04 11088   0.421E-04 0.354E-04
CGA:  14    -0.334462847511E+03   -0.13014E-04   -0.13186E-04 11088   0.377E-04 0.202E-05
CGA:  15    -0.334462851309E+03   -0.37974E-05   -0.61614E-05 11088   0.264E-04 0.167E-04
  25 F= -.33446285E+03 E0= -.33446284E+03  d E =-.213631E+00  mag=     6.0000
       N       E                     dE             d eps       ncg     rms          ort
SDA:   1    -0.333316436808E+03    0.11464E+01    0.00000E+00 11088   0.313E+01 0.000E+00
CGA:   2    -0.334242014705E+03   -0.92558E+00   -0.92544E+00 11088   0.152E+01 0.689E-02
CGA:   3    -0.334482664331E+03   -0.24065E+00   -0.24070E+00 11088   0.511E+00 0.655E-03
CGA:   4    -0.334566606952E+03   -0.83943E-01   -0.83989E-01 11088   0.138E+00-0.415E-03
CGA:   5    -0.334590268485E+03   -0.23662E-01   -0.23578E-01 11088   0.415E-01-0.903E-03
CGA:   6    -0.334598249764E+03   -0.79813E-02   -0.79674E-02 11088   0.164E-01-0.209E-03
CGA:   7    -0.334601848831E+03   -0.35991E-02   -0.36216E-02 11088   0.692E-02 0.581E-03
CGA:   8    -0.334603574819E+03   -0.17260E-02   -0.17257E-02 11088   0.307E-02-0.165E-04
CGA:   9    -0.334604220622E+03   -0.64580E-03   -0.65135E-03 11088   0.139E-02 0.122E-03
CGA:  10    -0.334604504928E+03   -0.28431E-03   -0.28420E-03 11088   0.550E-03-0.489E-06
CGA:  11    -0.334604642368E+03   -0.13744E-03   -0.13692E-03 11088   0.317E-03-0.134E-03
CGA:  12    -0.334604675287E+03   -0.32918E-04   -0.35989E-04 11088   0.999E-04 0.301E-04
CGA:  13    -0.334604693684E+03   -0.18397E-04   -0.19959E-04 11088   0.449E-04 0.239E-04
CGA:  14    -0.334604708328E+03   -0.14644E-04   -0.15236E-04 11088   0.690E-04-0.201E-04
CGA:  15    -0.334604710650E+03   -0.23225E-05   -0.34443E-05 11088   0.526E-04 0.704E-05
  26 F= -.33460471E+03 E0= -.33460471E+03  d E =-.141859E+00  mag=     6.0000
       N       E                     dE             d eps       ncg     rms          ort
SDA:   1    -0.334138208153E+03    0.46650E+00    0.00000E+00 11088   0.124E+01 0.000E+00
CGA:   2    -0.334522224663E+03   -0.38402E+00   -0.38349E+00 11088   0.534E+00 0.608E-02
CGA:   3    -0.334614970565E+03   -0.92746E-01   -0.92819E-01 11088   0.198E+00 0.941E-03
CGA:   4    -0.334646229930E+03   -0.31259E-01   -0.31209E-01 11088   0.516E-01-0.735E-03
CGA:   5    -0.334655123581E+03   -0.88937E-02   -0.88354E-02 11088   0.164E-01-0.108E-02
CGA:   6    -0.334658347180E+03   -0.32236E-02   -0.32175E-02 11088   0.652E-02-0.255E-03
CGA:   7    -0.334659764219E+03   -0.14170E-02   -0.14176E-02 11088   0.268E-02 0.258E-03
CGA:   8    -0.334660447760E+03   -0.68354E-03   -0.68360E-03 11088   0.111E-02-0.247E-05
CGA:   9    -0.334660726791E+03   -0.27903E-03   -0.27987E-03 11088   0.517E-03-0.296E-04
CGA:  10    -0.334660852374E+03   -0.12558E-03   -0.13082E-03 11088   0.361E-03-0.152E-03
CGA:  11    -0.334660910020E+03   -0.57646E-04   -0.56980E-04 11088   0.233E-03-0.175E-03
CGA:  12    -0.334660937283E+03   -0.27263E-04   -0.27180E-04 11088   0.832E-04-0.582E-04
CGA:  13    -0.334660953410E+03   -0.16128E-04   -0.16132E-04 11088   0.359E-04-0.145E-06
CGA:  14    -0.334660964625E+03   -0.11215E-04   -0.11793E-04 11088   0.363E-04-0.576E-05
CGA:  15    -0.334660969721E+03   -0.50955E-05   -0.50162E-05 11088   0.186E-04-0.114E-05
  27 F= -.33466097E+03 E0= -.33466097E+03  d E =-.562591E-01  mag=     6.0000
       N       E                     dE             d eps       ncg     rms          ort
SDA:   1    -0.334593565794E+03    0.67399E-01    0.00000E+00 11088   0.174E+00 0.000E+00
CGA:   2    -0.334648075638E+03   -0.54510E-01   -0.54429E-01 11088   0.780E-01 0.114E-02
CGA:   3    -0.334660519126E+03   -0.12443E-01   -0.12479E-01 11088   0.298E-01 0.291E-03
CGA:   4    -0.334665363815E+03   -0.48447E-02   -0.48184E-02 11088   0.620E-02-0.319E-03
CGA:   5    -0.334666536749E+03   -0.11729E-02   -0.11568E-02 11088   0.242E-02-0.329E-03
CGA:   6    -0.334666958950E+03   -0.42220E-03   -0.41967E-03 11088   0.872E-03-0.485E-04
CGA:   7    -0.334667155178E+03   -0.19623E-03   -0.19621E-03 11088   0.389E-03-0.531E-05
CGA:   8    -0.334667239822E+03   -0.84644E-04   -0.84708E-04 11088   0.176E-03 0.479E-05
CGA:   9    -0.334667287578E+03   -0.47756E-04   -0.58306E-04 11088   0.276E-03-0.112E-03
CGA:  10    -0.334667325189E+03   -0.37611E-04   -0.32586E-04 11088   0.571E-04-0.424E-04
CGA:  11    -0.334667324730E+03    0.45914E-06   -0.24176E-04 11088   0.300E-03-0.912E-04
CGA:  12    -0.334667359542E+03   -0.34812E-04   -0.31153E-04 11088   0.351E-04-0.261E-04
CGA:  13    -0.334667365347E+03   -0.58052E-05   -0.56843E-05 11088   0.355E-05-0.199E-05
  28 F= -.33466737E+03 E0= -.33466736E+03  d E =-.639563E-02  mag=     6.0000
       N       E                     dE             d eps       ncg     rms          ort
SDA:   1    -0.334648803483E+03    0.18556E-01    0.00000E+00 11088   0.468E-01 0.000E+00
CGA:   2    -0.334660944819E+03   -0.12141E-01   -0.12121E-01 11088   0.225E-01 0.788E-03
CGA:   3    -0.334664849754E+03   -0.39049E-02   -0.39044E-02 11088   0.820E-02-0.119E-04
CGA:   4    -0.334666110365E+03   -0.12606E-02   -0.12525E-02 11088   0.197E-02-0.104E-03
CGA:   5    -0.334666435218E+03   -0.32485E-03   -0.32153E-03 11088   0.592E-03-0.535E-04
CGA:   6    -0.334666559560E+03   -0.12434E-03   -0.12355E-03 11088   0.257E-03-0.758E-04
CGA:   7    -0.334666607389E+03   -0.47829E-04   -0.47693E-04 11088   0.101E-03-0.112E-04
CGA:   8    -0.334666626811E+03   -0.19422E-04   -0.19676E-04 11088   0.350E-04 0.122E-04
CGA:   9    -0.334666646637E+03   -0.19826E-04    0.32812E-04 11088   0.152E-04 0.364E-05
CGA:  10    -0.334666660852E+03   -0.14214E-04    0.20875E-05 11088   0.725E-05 0.573E-06
CGA:  11    -0.334666669957E+03   -0.91056E-05    0.48902E-06 11088   0.358E-05-0.153E-06
  29 F= -.33466667E+03 E0= -.33466666E+03  d E =0.695390E-03  mag=     6.0000
       N       E                     dE             d eps       ncg     rms          ort
SDA:   1    -0.334636300735E+03    0.30360E-01    0.00000E+00 11088   0.794E-01 0.000E+00
CGA:   2    -0.334655031421E+03   -0.18731E-01   -0.18713E-01 11088   0.347E-01 0.137E-02
CGA:   3    -0.334661279210E+03   -0.62478E-02   -0.62412E-02 11088   0.136E-01-0.146E-03
CGA:   4    -0.334663332571E+03   -0.20534E-02   -0.20494E-02 11088   0.302E-02-0.599E-04
CGA:   5    -0.334663810192E+03   -0.47762E-03   -0.47758E-03 11088   0.804E-03-0.148E-05
CGA:   6    -0.334663980882E+03   -0.17069E-03   -0.17047E-03 11088   0.324E-03-0.828E-04
CGA:   7    -0.334664030647E+03   -0.49764E-04   -0.51105E-04 11088   0.102E-03 0.345E-04
CGA:   8    -0.334664051114E+03   -0.20468E-04   -0.21205E-04 11088   0.402E-04 0.286E-04
CGA:   9    -0.334664064636E+03   -0.13522E-04   -0.24671E-04 11088   0.986E-04-0.416E-04
CGA:  10    -0.334664078413E+03   -0.13777E-04   -0.14200E-04 11088   0.153E-04 0.522E-05
CGA:  11    -0.334664086306E+03   -0.78931E-05    0.15831E-04 11088   0.766E-05-0.268E-05
  30 F= -.33466409E+03 E0= -.33466408E+03  d E =0.258365E-02  mag=     6.0000
       N       E                     dE             d eps       ncg     rms          ort
SDA:   1    -0.334554935668E+03    0.10914E+00    0.00000E+00 11088   0.296E+00 0.000E+00
CGA:   2    -0.334626093619E+03   -0.71158E-01   -0.71110E-01 11088   0.122E+00 0.233E-02
CGA:   3    -0.334648102995E+03   -0.22009E-01   -0.21995E-01 11088   0.481E-01-0.373E-03
CGA:   4    -0.334655270136E+03   -0.71671E-02   -0.71547E-02 11088   0.103E-01-0.190E-03
CGA:   5    -0.334656864791E+03   -0.15947E-02   -0.15994E-02 11088   0.270E-02 0.774E-04
CGA:   6    -0.334657393635E+03   -0.52884E-03   -0.52794E-03 11088   0.893E-03-0.471E-04
CGA:   7    -0.334657570933E+03   -0.17730E-03   -0.17775E-03 11088   0.322E-03 0.461E-04
CGA:   8    -0.334657650527E+03   -0.79594E-04   -0.78709E-04 11088   0.134E-03 0.429E-04
CGA:   9    -0.334657699220E+03   -0.48692E-04   -0.50826E-04 11088   0.891E-04-0.176E-04
CGA:  10    -0.334657709409E+03   -0.10189E-04   -0.11998E-04 11088   0.341E-04 0.283E-04
CGA:  11    -0.334657712515E+03   -0.31062E-05   -0.51433E-05 11088   0.129E-04 0.201E-04
  31 F= -.33465771E+03 E0= -.33465771E+03  d E =0.637379E-02  mag=     6.0000
       N       E                     dE             d eps       ncg     rms          ort
SDA:   1    -0.334528726151E+03    0.12898E+00    0.00000E+00 11088   0.351E+00 0.000E+00
CGA:   2    -0.334614721423E+03   -0.85995E-01   -0.85859E-01 11088   0.128E+00 0.392E-02
CGA:   3    -0.334639685257E+03   -0.24964E-01   -0.24950E-01 11088   0.563E-01-0.735E-03
CGA:   4    -0.334647826557E+03   -0.81413E-02   -0.81243E-02 11088   0.116E-01-0.268E-03
CGA:   5    -0.334649693339E+03   -0.18668E-02   -0.18695E-02 11088   0.342E-02 0.551E-04
CGA:   6    -0.334650351432E+03   -0.65809E-03   -0.65746E-03 11088   0.114E-02-0.429E-04
CGA:   7    -0.334650573879E+03   -0.22245E-03   -0.22355E-03 11088   0.428E-03 0.138E-03
CGA:   8    -0.334650685626E+03   -0.11175E-03   -0.10997E-03 11088   0.183E-03 0.747E-04
CGA:   9    -0.334650738056E+03   -0.52430E-04   -0.51203E-04 11088   0.800E-04 0.396E-04
CGA:  10    -0.334650750609E+03   -0.12553E-04   -0.15008E-04 11088   0.303E-04 0.454E-04
CGA:  11    -0.334650752804E+03   -0.21952E-05   -0.37846E-05 11088   0.149E-04 0.196E-04
  32 F= -.33465075E+03 E0= -.33465075E+03  d E =0.695971E-02  mag=     6.0000
       N       E                     dE             d eps       ncg     rms          ort
SDA:   1    -0.334611033072E+03    0.39718E-01    0.00000E+00 11088   0.106E+00 0.000E+00
CGA:   2    -0.334636082739E+03   -0.25050E-01   -0.24985E-01 11088   0.498E-01 0.164E-02
CGA:   3    -0.334645069074E+03   -0.89863E-02   -0.89842E-02 11088   0.194E-01-0.113E-03
CGA:   4    -0.334648093481E+03   -0.30244E-02   -0.30073E-02 11088   0.482E-02-0.408E-03
CGA:   5    -0.334648875030E+03   -0.78155E-03   -0.77698E-03 11088   0.142E-02-0.147E-03
CGA:   6    -0.334649145013E+03   -0.26998E-03   -0.27013E-03 11088   0.495E-03-0.643E-04
CGA:   7    -0.334649243120E+03   -0.98106E-04   -0.97884E-04 11088   0.189E-03 0.175E-04
CGA:   8    -0.334649293732E+03   -0.50613E-04   -0.50964E-04 11088   0.859E-04-0.543E-05
CGA:   9    -0.334649317354E+03   -0.23621E-04   -0.26494E-04 11088   0.606E-04-0.241E-04
CGA:  10    -0.334649323880E+03   -0.65259E-05   -0.67420E-05 11088   0.229E-04 0.435E-05
  33 F= -.33464932E+03 E0= -.33464932E+03  d E =0.142892E-02  mag=     6.0000
       N       E                     dE             d eps       ncg     rms          ort
SDA:   1    -0.334631095972E+03    0.18221E-01    0.00000E+00 11088   0.542E-01 0.000E+00
CGA:   2    -0.334647035115E+03   -0.15939E-01   -0.16031E-01 11088   0.240E-01-0.976E-03
CGA:   3    -0.334650913286E+03   -0.38782E-02   -0.39000E-02 11088   0.806E-02 0.548E-03
CGA:   4    -0.334652179400E+03   -0.12661E-02   -0.12622E-02 11088   0.198E-02-0.813E-04
CGA:   5    -0.334652532865E+03   -0.35346E-03   -0.35064E-03 11088   0.702E-03-0.134E-03
CGA:   6    -0.334652641584E+03   -0.10872E-03   -0.11024E-03 11088   0.198E-03 0.489E-04
CGA:   7    -0.334652693610E+03   -0.52025E-04   -0.53147E-04 11088   0.108E-03-0.210E-04
CGA:   8    -0.334652719080E+03   -0.25471E-04   -0.28332E-04 11088   0.722E-04-0.306E-04
CGA:   9    -0.334652724510E+03   -0.54297E-05   -0.67387E-05 11088   0.285E-04 0.175E-04
  34 F= -.33465272E+03 E0= -.33465272E+03  d E =-.340063E-02  mag=     6.0000
       N       E                     dE             d eps       ncg     rms          ort
SDA:   1    -0.334648324499E+03    0.43946E-02    0.00000E+00 11088   0.138E-01 0.000E+00
CGA:   2    -0.334651597015E+03   -0.32725E-02   -0.32655E-02 11088   0.784E-02 0.167E-03
CGA:   3    -0.334652922525E+03   -0.13255E-02   -0.13301E-02 11088   0.234E-02 0.147E-03
CGA:   4    -0.334653295045E+03   -0.37252E-03   -0.36676E-03 11088   0.565E-03-0.135E-03
CGA:   5    -0.334653397934E+03   -0.10289E-03   -0.10270E-03 11088   0.241E-03-0.126E-03
CGA:   6    -0.334653428389E+03   -0.30455E-04   -0.30142E-04 11088   0.629E-04-0.935E-05
CGA:   7    -0.334653434712E+03   -0.63232E-05   -0.76865E-05 11088   0.191E-04 0.208E-04
  35 F= -.33465343E+03 E0= -.33465343E+03  d E =-.710202E-03  mag=     6.0000
       N       E                     dE             d eps       ncg     rms          ort
SDA:   1    -0.334424437004E+03    0.22899E+00    0.00000E+00 11088   0.578E+00 0.000E+00
CGA:   2    -0.334585133867E+03   -0.16070E+00   -0.16040E+00 11088   0.324E+00 0.302E-02
CGA:   3    -0.334636801215E+03   -0.51667E-01   -0.51695E-01 11088   0.859E-01 0.788E-03
CGA:   4    -0.334649470702E+03   -0.12669E-01   -0.12624E-01 11088   0.198E-01-0.113E-02
CGA:   5    -0.334652775988E+03   -0.33053E-02   -0.32876E-02 11088   0.586E-02-0.979E-03
CGA:   6    -0.334653792626E+03   -0.10166E-02   -0.10162E-02 11088   0.172E-02-0.163E-03
CGA:   7    -0.334654097237E+03   -0.30461E-03   -0.30509E-03 11088   0.499E-03 0.151E-03
CGA:   8    -0.334654219944E+03   -0.12271E-03   -0.12020E-03 11088   0.199E-03 0.685E-04
CGA:   9    -0.334654280211E+03   -0.60267E-04   -0.58721E-04 11088   0.976E-04 0.212E-04
CGA:  10    -0.334654020525E+03    0.25969E-03   -0.14157E-03 11088   0.187E-02-0.379E-03
CGA:  11    -0.334654272477E+03   -0.25195E-03   -0.25735E-03 11088   0.379E-03 0.245E-04
CGA:  12    -0.334654330660E+03   -0.58184E-04   -0.61635E-04 11088   0.120E-03 0.201E-04
CGA:  13    -0.334654363872E+03   -0.33212E-04   -0.32964E-04 11088   0.516E-04-0.370E-05
CGA:  14    -0.334654380294E+03   -0.16422E-04   -0.16421E-04 11088   0.286E-04 0.237E-06
CGA:  15    -0.334653948153E+03    0.43214E-03   -0.23547E-03 11088   0.407E-02-0.278E-03
CGA:  16    -0.334654276555E+03   -0.32840E-03   -0.38439E-03 11088   0.336E-03 0.137E-03
CGA:  17    -0.334654335420E+03   -0.58865E-04   -0.70753E-04 11088   0.124E-03 0.325E-04
CGA:  18    -0.334654380772E+03   -0.45352E-04   -0.36774E-04 11088   0.976E-04-0.309E-04
CGA:  19    -0.334654386651E+03   -0.58785E-05   -0.13234E-04 11088   0.408E-04 0.208E-04
  36 F= -.33465439E+03 E0= -.33465438E+03  d E =-.951938E-03  mag=     6.0000
       N       E                     dE             d eps       ncg     rms          ort
SDA:   1    -0.334417839332E+03    0.23654E+00    0.00000E+00 11088   0.611E+00 0.000E+00
CGA:   2    -0.334588187699E+03   -0.17035E+00   -0.17076E+00 11088   0.266E+00 0.167E-02
CGA:   3    -0.334633050726E+03   -0.44863E-01   -0.44876E-01 11088   0.906E-01 0.109E-04
CGA:   4    -0.334646661460E+03   -0.13611E-01   -0.13461E-01 11088   0.202E-01-0.490E-03
CGA:   5    -0.334650043467E+03   -0.33820E-02   -0.33012E-02 11088   0.599E-02-0.281E-03
CGA:   6    -0.334651151621E+03   -0.11082E-02   -0.10979E-02 11088   0.184E-02-0.418E-04
CGA:   7    -0.334651525169E+03   -0.37355E-03   -0.38625E-03 11088   0.704E-03 0.575E-04
CGA:   8    -0.334651697520E+03   -0.17235E-03   -0.17858E-03 11088   0.301E-03 0.358E-04
CGA:   9    -0.334651791038E+03   -0.93518E-04   -0.92283E-04 11088   0.146E-03-0.105E-04
CGA:  10    -0.334651842300E+03   -0.51262E-04   -0.48582E-04 11088   0.839E-04-0.457E-04
CGA:  11    -0.334651864962E+03   -0.22662E-04   -0.20656E-04 11088   0.714E-04-0.470E-04
CGA:  12    -0.334651871708E+03   -0.67456E-05   -0.91746E-05 11088   0.190E-04 0.903E-05
  37 F= -.33465187E+03 E0= -.33465187E+03  d E =0.251494E-02  mag=     6.0000
       N       E                     dE             d eps       ncg     rms          ort
SDA:   1    -0.334456923081E+03    0.19494E+00    0.00000E+00 11088   0.480E+00 0.000E+00
CGA:   2    -0.334605943941E+03   -0.14902E+00   -0.14892E+00 11088   0.217E+00-0.152E-02
CGA:   3    -0.334640488266E+03   -0.34544E-01   -0.34526E-01 11088   0.615E-01-0.956E-04
CGA:   4    -0.334649404912E+03   -0.89166E-02   -0.90241E-02 11088   0.140E-01 0.481E-03
CGA:   5    -0.334651614089E+03   -0.22092E-02   -0.22812E-02 11088   0.387E-02 0.366E-03
CGA:   6    -0.334652350876E+03   -0.73679E-03   -0.74459E-03 11088   0.119E-02 0.481E-04
CGA:   7    -0.334652635108E+03   -0.28423E-03   -0.27487E-03 11088   0.514E-03-0.852E-04
CGA:   8    -0.334652750670E+03   -0.11556E-03   -0.11508E-03 11088   0.214E-03-0.536E-05
CGA:   9    -0.334652805503E+03   -0.54833E-04   -0.55137E-04 11088   0.897E-04 0.440E-05
CGA:  10    -0.334652814435E+03   -0.89325E-05   -0.14450E-04 11088   0.304E-04 0.329E-04
  38 F= -.33465281E+03 E0= -.33465281E+03  d E =-.942728E-03  mag=     6.0000
       N       E                     dE             d eps       ncg     rms          ort
SDA:   1    -0.334618388479E+03    0.34417E-01    0.00000E+00 11088   0.822E-01 0.000E+00
CGA:   2    -0.334640974605E+03   -0.22586E-01   -0.22617E-01 11088   0.414E-01 0.930E-03
CGA:   3    -0.334647803474E+03   -0.68289E-02   -0.68159E-02 11088   0.141E-01-0.115E-03
CGA:   4    -0.334650027189E+03   -0.22237E-02   -0.21981E-02 11088   0.337E-02-0.179E-03
CGA:   5    -0.334650606905E+03   -0.57972E-03   -0.56902E-03 11088   0.106E-02-0.897E-04
CGA:   6    -0.334650805190E+03   -0.19829E-03   -0.19760E-03 11088   0.363E-03-0.753E-05
CGA:   7    -0.334650876452E+03   -0.71262E-04   -0.73464E-04 11088   0.142E-03 0.287E-04
CGA:   8    -0.334650911964E+03   -0.35512E-04   -0.35772E-04 11088   0.679E-04 0.606E-05
CGA:   9    -0.334650924036E+03   -0.12072E-04   -0.13040E-04 11088   0.278E-04 0.107E-04
CGA:  10    -0.334650931966E+03   -0.79300E-05   -0.78898E-05 11088   0.129E-04-0.162E-05
  39 F= -.33465093E+03 E0= -.33465093E+03  d E =0.188247E-02  mag=     6.0000
       N       E                     dE             d eps       ncg     rms          ort
SDA:   1    -0.334640014604E+03    0.10909E-01    0.00000E+00 11088   0.282E-01 0.000E+00
CGA:   2    -0.334648503854E+03   -0.84893E-02   -0.84766E-02 11088   0.135E-01 0.352E-03
CGA:   3    -0.334650739728E+03   -0.22359E-02   -0.22349E-02 11088   0.414E-02-0.117E-04
CGA:   4    -0.334651385793E+03   -0.64607E-03   -0.63482E-03 11088   0.101E-02-0.105E-03
CGA:   5    -0.334651564863E+03   -0.17907E-03   -0.17402E-03 11088   0.331E-03-0.634E-04
CGA:   6    -0.334651623776E+03   -0.58913E-04   -0.57943E-04 11088   0.110E-03-0.148E-04
CGA:   7    -0.334651641262E+03   -0.17485E-04   -0.18758E-04 11088   0.350E-04 0.178E-04
CGA:   8    -0.334651648533E+03   -0.72711E-05   -0.78347E-05 11088   0.137E-04 0.107E-04
  40 F= -.33465165E+03 E0= -.33465164E+03  d E =-.716567E-03  mag=     6.0000
       N       E                     dE             d eps       ncg     rms          ort
SDA:   1    -0.334638857689E+03    0.12784E-01    0.00000E+00 11088   0.335E-01 0.000E+00
CGA:   2    -0.334647141006E+03   -0.82833E-02   -0.82868E-02 11088   0.109E-01 0.106E-02
CGA:   3    -0.334649390573E+03   -0.22496E-02   -0.22471E-02 11088   0.545E-02-0.466E-04
CGA:   4    -0.334650173107E+03   -0.78253E-03   -0.75750E-03 11088   0.983E-03-0.232E-03
CGA:   5    -0.334650357825E+03   -0.18472E-03   -0.18014E-03 11088   0.361E-03-0.894E-04
CGA:   6    -0.334650420877E+03   -0.63052E-04   -0.60772E-04 11088   0.131E-03-0.417E-04
CGA:   7    -0.334650444205E+03   -0.23328E-04   -0.23500E-04 11088   0.475E-04 0.500E-05
CGA:   8    -0.334650454161E+03   -0.99557E-05   -0.10218E-04 11088   0.184E-04 0.925E-05
CGA:   9    -0.334650459250E+03   -0.50889E-05   -0.10816E-04 11088   0.710E-04-0.223E-04
  41 F= -.33465046E+03 E0= -.33465045E+03  d E =0.118928E-02  mag=     6.0000
       N       E                     dE             d eps       ncg     rms          ort
SDA:   1    -0.333018744576E+03    0.16317E+01    0.00000E+00 11088   0.526E+01 0.000E+00
CGA:   2    -0.334113010246E+03   -0.10943E+01   -0.10951E+01 11088   0.184E+01 0.193E-01
CGA:   3    -0.334449493907E+03   -0.33648E+00   -0.33653E+00 11088   0.827E+00 0.619E-03
CGA:   4    -0.334581154663E+03   -0.13166E+00   -0.13146E+00 11088   0.195E+00-0.275E-02
CGA:   5    -0.334612347933E+03   -0.31193E-01   -0.31121E-01 11088   0.527E-01-0.110E-02
CGA:   6    -0.334622425434E+03   -0.10078E-01   -0.10052E-01 11088   0.176E-01-0.725E-03
CGA:   7    -0.334626221987E+03   -0.37966E-02   -0.37966E-02 11088   0.742E-02 0.251E-05
CGA:   8    -0.334628144864E+03   -0.19229E-02   -0.19184E-02 11088   0.360E-02 0.133E-03
CGA:   9    -0.334629127321E+03   -0.98246E-03   -0.99174E-03 11088   0.202E-02-0.216E-03
CGA:  10    -0.334629495461E+03   -0.36814E-03   -0.36663E-03 11088   0.968E-03-0.410E-04
CGA:  11    -0.334629697350E+03   -0.20189E-03   -0.19970E-03 11088   0.364E-03-0.127E-03
CGA:  12    -0.334629775870E+03   -0.78521E-04   -0.12605E-03 11088   0.550E-03-0.277E-03
CGA:  13    -0.334629831387E+03   -0.55517E-04   -0.59614E-04 11088   0.114E-03 0.322E-04
CGA:  14    -0.334629856680E+03   -0.25292E-04   -0.25378E-04 11088   0.269E-04 0.455E-05
CGA:  15    -0.334629883105E+03   -0.26425E-04    0.29921E-05 11088   0.111E-04 0.883E-05
CGA:  16    -0.334629852142E+03    0.30963E-04   -0.17342E-04 11088   0.350E-03-0.432E-04
CGA:  17    -0.334629943983E+03   -0.91841E-04   -0.57104E-04 11088   0.198E-03-0.136E-03
CGA:  18    -0.334629973072E+03   -0.29089E-04   -0.21781E-04 11088   0.463E-04-0.326E-04
CGA:  19    -0.334629965755E+03    0.73171E-05   -0.19129E-05 11088   0.264E-04 0.269E-04
  42 F= -.33462997E+03 E0= -.33462996E+03  d E =0.204935E-01  mag=     6.0000
       N       E                     dE             d eps       ncg     rms          ort
SDA:   1    -0.334514606833E+03    0.11537E+00    0.00000E+00 11088   0.331E+00 0.000E+00
CGA:   2    -0.334597785001E+03   -0.83178E-01   -0.82963E-01 11088   0.137E+00-0.220E-02
CGA:   3    -0.334621883659E+03   -0.24099E-01   -0.24106E-01 11088   0.544E-01 0.305E-04
CGA:   4    -0.334629918178E+03   -0.80345E-02   -0.80987E-02 11088   0.115E-01 0.305E-03
CGA:   5    -0.334631756508E+03   -0.18383E-02   -0.18676E-02 11088   0.327E-02 0.166E-03
CGA:   6    -0.334632378708E+03   -0.62220E-03   -0.62550E-03 11088   0.109E-02 0.232E-04
CGA:   7    -0.334632665382E+03   -0.28667E-03   -0.27631E-03 11088   0.613E-03-0.154E-03
CGA:   8    -0.334632812728E+03   -0.14735E-03   -0.14271E-03 11088   0.328E-03-0.104E-03
CGA:   9    -0.334632899054E+03   -0.86327E-04   -0.86780E-04 11088   0.232E-03-0.114E-03
CGA:  10    -0.334632924587E+03   -0.25533E-04   -0.24636E-04 11088   0.903E-04-0.585E-05
CGA:  11    -0.334632945971E+03   -0.21384E-04   -0.19794E-04 11088   0.405E-04-0.195E-04
CGA:  12    -0.334632952691E+03   -0.67194E-05   -0.15529E-04 11088   0.106E-03-0.471E-04
CGA:  13    -0.334632959830E+03   -0.71395E-05   -0.11667E-04 11088   0.207E-04 0.225E-04
CGA:  14    -0.334632966783E+03   -0.69532E-05   -0.12306E-04 11088   0.450E-04-0.284E-04
  43 F= -.33463297E+03 E0= -.33463296E+03  d E =-.300103E-02  mag=     6.0000
       N       E                     dE             d eps       ncg     rms          ort
SDA:   1    -0.334436148065E+03    0.19681E+00    0.00000E+00 11088   0.658E+00 0.000E+00
CGA:   2    -0.334572522568E+03   -0.13637E+00   -0.13618E+00 11088   0.255E+00-0.253E-02
CGA:   3    -0.334617382206E+03   -0.44860E-01   -0.44796E-01 11088   0.110E+00-0.642E-03
CGA:   4    -0.334634753101E+03   -0.17371E-01   -0.17464E-01 11088   0.258E-01 0.662E-03
CGA:   5    -0.334638771309E+03   -0.40182E-02   -0.40742E-02 11088   0.653E-02 0.422E-03
CGA:   6    -0.334639982902E+03   -0.12116E-02   -0.12292E-02 11088   0.209E-02 0.181E-03
CGA:   7    -0.334640446220E+03   -0.46332E-03   -0.46491E-03 11088   0.898E-03 0.258E-04
CGA:   8    -0.334640677853E+03   -0.23163E-03   -0.23129E-03 11088   0.519E-03-0.186E-04
CGA:   9    -0.334640780185E+03   -0.10233E-03   -0.10390E-03 11088   0.259E-03 0.232E-04
CGA:  10    -0.334640829344E+03   -0.49158E-04   -0.50987E-04 11088   0.910E-04 0.227E-04
CGA:  11    -0.334640843604E+03   -0.14261E-04   -0.17086E-04 11088   0.245E-04 0.306E-04
CGA:  12    -0.334640845480E+03   -0.18759E-05   -0.42128E-05 11088   0.109E-04 0.177E-04
  44 F= -.33464085E+03 E0= -.33464084E+03  d E =-.787870E-02  mag=     6.0000
       N       E                     dE             d eps       ncg     rms          ort
SDA:   1    -0.334520016870E+03    0.12083E+00    0.00000E+00 11088   0.390E+00 0.000E+00
CGA:   2    -0.334586213902E+03   -0.66197E-01   -0.66304E-01 11088   0.177E+00 0.117E-02
CGA:   3    -0.334622027699E+03   -0.35814E-01   -0.35826E-01 11088   0.790E-01 0.249E-03
CGA:   4    -0.334633798418E+03   -0.11771E-01   -0.11765E-01 11088   0.167E-01-0.938E-04
CGA:   5    -0.334636377963E+03   -0.25795E-02   -0.25755E-02 11088   0.436E-02-0.566E-04
CGA:   6    -0.334637189845E+03   -0.81188E-03   -0.81186E-03 11088   0.134E-02-0.221E-05
CGA:   7    -0.334637445820E+03   -0.25597E-03   -0.25843E-03 11088   0.395E-03 0.671E-04
CGA:   8    -0.334637515677E+03   -0.69857E-04   -0.74481E-04 11088   0.123E-03 0.963E-04
CGA:   9    -0.334637536524E+03   -0.20847E-04   -0.24801E-04 11088   0.498E-04 0.623E-04
CGA:  10    -0.334637547553E+03   -0.11029E-04   -0.11039E-04 11088   0.235E-04 0.185E-04
CGA:  11    -0.334637549048E+03   -0.14948E-05   -0.38735E-05 11088   0.146E-04 0.234E-04
  45 F= -.33463755E+03 E0= -.33463754E+03  d E =0.329643E-02  mag=     6.0000
       N       E                     dE             d eps       ncg     rms          ort
SDA:   1    -0.334586091778E+03    0.51456E-01    0.00000E+00 11088   0.173E+00 0.000E+00
CGA:   2    -0.334616098540E+03   -0.30007E-01   -0.30031E-01 11088   0.790E-01 0.557E-03
CGA:   3    -0.334631867818E+03   -0.15769E-01   -0.15770E-01 11088   0.353E-01 0.743E-04
CGA:   4    -0.334637263327E+03   -0.53955E-02   -0.53837E-02 11088   0.780E-02-0.224E-03
CGA:   5    -0.334638470885E+03   -0.12076E-02   -0.12037E-02 11088   0.202E-02-0.804E-04
CGA:   6    -0.334638856438E+03   -0.38555E-03   -0.38473E-03 11088   0.665E-03-0.760E-04
CGA:   7    -0.334638992262E+03   -0.13582E-03   -0.13627E-03 11088   0.240E-03-0.432E-04
CGA:   8    -0.334639045589E+03   -0.53327E-04   -0.54165E-04 11088   0.105E-03-0.221E-04
CGA:   9    -0.334639062609E+03   -0.17021E-04   -0.43951E-04 11088   0.256E-03-0.106E-03
CGA:  10    -0.334639087479E+03   -0.24870E-04   -0.27116E-04 11088   0.378E-04 0.204E-04
CGA:  11    -0.334639097067E+03   -0.95877E-05   -0.10020E-04 11088   0.185E-04-0.129E-04
  46 F= -.33463910E+03 E0= -.33463909E+03  d E =-.154802E-02  mag=     6.0000
