       N       E                     dE             d eps       ncg     rms          ort
DAV:   1     0.259986673427E+04    0.25999E+04   -0.14094E+05 10584   0.165E+03
DAV:   2    -0.125129755998E+03   -0.27250E+04   -0.25192E+04 10584   0.429E+02
DAV:   3    -0.444012485036E+03   -0.31888E+03   -0.31355E+03 10584   0.168E+02
DAV:   4    -0.456205388771E+03   -0.12193E+02   -0.11902E+02 10584   0.316E+01
DAV:   5    -0.456720209545E+03   -0.51482E+00   -0.50671E+00 10584   0.493E+00
SDA:   6    -0.247853489472E+03    0.20887E+03   -0.50671E+00 10584   0.511E+03 0.000E+00
CGA:   7    -0.324633936769E+03   -0.76780E+02   -0.67153E+02 10584   0.286E+03-0.696E+02
CGA:   8    -0.324929054569E+03   -0.29512E+00   -0.19800E+02 10584   0.160E+03-0.443E+02
CGA:   9    -0.332618189673E+03   -0.76891E+01   -0.12562E+02 10584   0.157E+03 0.516E+01
CGA:  10    -0.332974921761E+03   -0.35673E+00   -0.10755E+02 10584   0.182E+03-0.491E+02
CGA:  11    -0.333964212850E+03   -0.98929E+00   -0.67180E+01 10584   0.914E+02-0.606E+02
CGA:  12    -0.337684017760E+03   -0.37198E+01   -0.41035E+01 10584   0.122E+03-0.726E+02
CGA:  13    -0.338706125342E+03   -0.10221E+01   -0.89970E+01 10584   0.734E+02-0.361E+02
CGA:  14    -0.343741444673E+03   -0.50353E+01   -0.34918E+01 10584   0.826E+02-0.682E+02
CGA:  15    -0.342569931659E+03    0.11715E+01   -0.50503E+01 10584   0.501E+02-0.346E+02
CGA:  16    -0.343982949671E+03   -0.14130E+01   -0.75240E+00 10584   0.411E+02 0.360E+02
CGA:  17    -0.345804788252E+03   -0.18218E+01   -0.10045E+01 10584   0.598E+02-0.978E+02
CGA:  18    -0.343790663523E+03    0.20141E+01   -0.35137E+01 10584   0.185E+02-0.895E+01
CGA:  19    -0.344309243754E+03   -0.51858E+00   -0.17548E+00 10584   0.495E+02 0.493E+02
CGA:  20    -0.345847425241E+03   -0.15382E+01   -0.11703E+01 10584   0.647E+02-0.993E+02
CGA:  21    -0.343894162469E+03    0.19533E+01   -0.33829E+01 10584   0.180E+02-0.968E+01
CGA:  22    -0.344324982067E+03   -0.43082E+00   -0.14533E+00 10584   0.478E+02 0.452E+02
CGA:  23    -0.346610979179E+03   -0.22860E+01   -0.95940E+00 10584   0.308E+02-0.797E+02
CGA:  24    -0.345328290296E+03    0.12827E+01   -0.11836E+01 10584   0.963E+02-0.446E+02
CGA:  25    -0.344917176999E+03    0.41111E+00   -0.31751E+01 10584   0.288E+02-0.239E+02
CGA:  26    -0.345738283545E+03   -0.82111E+00   -0.81194E+00 10584   0.894E+02-0.826E+02
CGA:  27    -0.344838964185E+03    0.89932E+00   -0.36087E+01 10584   0.205E+02-0.142E+02
CGA:  28    -0.346779664169E+03   -0.19407E+01   -0.54127E+00 10584   0.317E+02-0.641E+02
CGA:  29    -0.346031159793E+03    0.74850E+00   -0.10763E+01 10584   0.653E+02-0.367E+02
CGA:  30    -0.344432742944E+03    0.15984E+01   -0.23981E+01 10584   0.569E+02-0.365E+02
CGA:  31    -0.345279241732E+03   -0.84650E+00   -0.16873E+01 10584   0.318E+02-0.369E+02
CGA:  32    -0.345209159880E+03    0.70082E-01   -0.95911E+00 10584   0.100E+03-0.988E+02
CGA:  33    -0.345059009535E+03    0.15015E+00   -0.36484E+01 10584   0.172E+02-0.153E+02
CGA:  34    -0.347210183311E+03   -0.21512E+01   -0.35102E+00 10584   0.480E+01 0.244E+02
CGA:  35    -0.347268505585E+03   -0.58322E-01   -0.64599E-01 10584   0.398E+00-0.519E+00
CGA:  36    -0.347286130411E+03   -0.17625E-01   -0.17574E-01 10584   0.704E+00-0.283E-02
CGA:  37    -0.347356266896E+03   -0.70136E-01   -0.75476E-01 10584   0.314E+01-0.126E+00
CGA:  38    -0.347437726138E+03   -0.81459E-01   -0.90446E-01 10584   0.768E+00-0.142E+00
CGA:  39    -0.347453032799E+03   -0.15307E-01   -0.18022E-01 10584   0.486E+00-0.886E-01
CGA:  40    -0.347463157421E+03   -0.10125E-01   -0.10235E-01 10584   0.110E+00-0.600E-02
CGA:  41    -0.347472766710E+03   -0.96093E-02   -0.94924E-02 10584   0.448E+00 0.654E-02
CGA:  42    -0.347490108670E+03   -0.17342E-01   -0.18520E-01 10584   0.210E+00 0.142E-01
CGA:  43    -0.347496395015E+03   -0.62863E-02   -0.64344E-02 10584   0.871E-01 0.666E-02
CGA:  44    -0.347499858342E+03   -0.34633E-02   -0.34382E-02 10584   0.798E-01 0.138E-02
CGA:  45    -0.347502812800E+03   -0.29545E-02   -0.31298E-02 10584   0.876E-01-0.801E-03
CGA:  46    -0.347510794832E+03   -0.79820E-02   -0.10809E-01 10584   0.147E+00-0.513E-01
CGA:  47    -0.347514586666E+03   -0.37918E-02   -0.38356E-02 10584   0.513E-01-0.115E-02
CGA:  48    -0.347516038989E+03   -0.14523E-02   -0.14573E-02 10584   0.333E-01 0.122E-02
CGA:  49    -0.347521357950E+03   -0.53190E-02   -0.46810E-02 10584   0.203E-01 0.844E-02
CGA:  50    -0.347522215035E+03   -0.85709E-03   -0.88614E-03 10584   0.311E-01 0.319E-03
CGA:  51    -0.347523712396E+03   -0.14974E-02   -0.56970E-02 10584   0.413E+00-0.473E-01
CGA:  52    -0.347530087572E+03   -0.63752E-02   -0.63562E-02 10584   0.199E-01-0.195E-02
CGA:  53    -0.347530632145E+03   -0.54457E-03   -0.53507E-03 10584   0.144E-01-0.106E-03
CGA:  54    -0.347532976876E+03   -0.23447E-02   -0.23416E-02 10584   0.518E-01 0.353E-04
CGA:  55    -0.347535507596E+03   -0.25307E-02   -0.24956E-02 10584   0.723E-02 0.150E-02
CGA:  56    -0.347536731056E+03   -0.12235E-02   -0.10069E-02 10584   0.269E-01 0.327E-02
CGA:  57    -0.347538246941E+03   -0.15159E-02   -0.14449E-02 10584   0.236E-01 0.529E-02
CGA:  58    -0.347539839886E+03   -0.15929E-02   -0.16801E-02 10584   0.232E-01 0.461E-02
CGA:  59    -0.347541095760E+03   -0.12559E-02   -0.12377E-02 10584   0.215E-01 0.187E-02
CGA:  60    -0.347543147048E+03   -0.20513E-02   -0.21464E-02 10584   0.526E-01-0.376E-02
CGA:  61    -0.347544586069E+03   -0.14390E-02   -0.10261E-02 10584   0.380E-01 0.110E-01
CGA:  62    -0.347545532919E+03   -0.94685E-03   -0.94948E-03 10584   0.105E-01-0.463E-02
CGA:  63    -0.347546211739E+03   -0.67882E-03   -0.69046E-03 10584   0.336E-01-0.188E-02
CGA:  64    -0.347547003308E+03   -0.79157E-03   -0.51973E-03 10584   0.117E-01 0.590E-02
CGA:  65    -0.347547299206E+03   -0.29590E-03   -0.25977E-03 10584   0.101E-01-0.892E-05
CGA:  66    -0.347547869590E+03   -0.57038E-03   -0.56396E-03 10584   0.405E-01-0.131E-02
CGA:  67    -0.347549379126E+03   -0.15095E-02   -0.12834E-02 10584   0.542E-01 0.113E-02
CGA:  68    -0.347550056491E+03   -0.67736E-03   -0.46710E-03 10584   0.302E-01 0.219E-01
CGA:  69    -0.347550575338E+03   -0.51885E-03   -0.48944E-03 10584   0.184E-01 0.322E-02
CGA:  70    -0.347550890999E+03   -0.31566E-03   -0.36280E-03 10584   0.278E-01 0.115E-03
CGA:  71    -0.347551358073E+03   -0.46707E-03   -0.60620E-03 10584   0.461E-01 0.555E-03
CGA:  72    -0.347552060002E+03   -0.70193E-03   -0.75256E-03 10584   0.439E-01 0.733E-02
CGA:  73    -0.347552638540E+03   -0.57854E-03   -0.55306E-03 10584   0.298E-01 0.122E-01
CGA:  74    -0.347553025001E+03   -0.38646E-03   -0.42622E-03 10584   0.158E-01 0.286E-02
CGA:  75    -0.347553208032E+03   -0.18303E-03   -0.21895E-03 10584   0.134E-01-0.168E-03
CGA:  76    -0.347553452519E+03   -0.24449E-03   -0.28286E-03 10584   0.284E-01 0.313E-03
CGA:  77    -0.347554570300E+03   -0.11178E-02   -0.11495E-02 10584   0.470E-01 0.572E-02
CGA:  78    -0.347555267766E+03   -0.69747E-03   -0.56625E-03 10584   0.169E-01 0.169E-01
CGA:  79    -0.347555584119E+03   -0.31635E-03   -0.31218E-03 10584   0.117E-01 0.612E-03
CGA:  80    -0.347555934507E+03   -0.35039E-03   -0.33867E-03 10584   0.296E-01-0.136E-02
CGA:  81    -0.347556886883E+03   -0.95238E-03   -0.94428E-03 10584   0.654E-01-0.451E-02
SDA:  82    -0.347557492050E+03   -0.60517E-03   -0.35413E-03 10584   0.444E-01 0.228E-01
CGA:  83    -0.347558385771E+03   -0.89372E-03   -0.89133E-03 10584   0.624E-02 0.125E-03
CGA:  84    -0.347559718680E+03   -0.13329E-02   -0.11126E-02 10584   0.211E-01 0.157E-02
CGA:  85    -0.347562339846E+03   -0.26212E-02   -0.30105E-02 10584   0.294E-01-0.489E-02
CGA:  86    -0.347562830151E+03   -0.49030E-03   -0.48242E-03 10584   0.102E-01 0.986E-03
CGA:  87    -0.347563173735E+03   -0.34358E-03   -0.34167E-03 10584   0.928E-02 0.880E-04
CGA:  88    -0.347563548706E+03   -0.37497E-03   -0.37050E-03 10584   0.153E-01-0.822E-03
CGA:  89    -0.347564997179E+03   -0.14485E-02   -0.15077E-02 10584   0.410E-01-0.850E-03
CGA:  90    -0.347565660263E+03   -0.66308E-03   -0.52954E-03 10584   0.708E-02 0.480E-02
CGA:  91    -0.347565793879E+03   -0.13362E-03   -0.13411E-03 10584   0.460E-02 0.211E-03
CGA:  92    -0.347565984334E+03   -0.19045E-03   -0.19308E-03 10584   0.105E-01 0.663E-03
CGA:  93    -0.347566388944E+03   -0.40461E-03   -0.42561E-03 10584   0.143E-01 0.198E-02
CGA:  94    -0.347566891210E+03   -0.50227E-03   -0.54607E-03 10584   0.963E-02 0.319E-02
CGA:  95    -0.347567077850E+03   -0.18664E-03   -0.21550E-03 10584   0.201E-02 0.144E-02
CGA:  96    -0.347567206964E+03   -0.12911E-03   -0.13133E-03 10584   0.752E-02-0.145E-03
CGA:  97    -0.347567554750E+03   -0.34779E-03   -0.85238E-03 10584   0.731E-01-0.769E-02
CGA:  98    -0.347568849717E+03   -0.12950E-02   -0.12796E-02 10584   0.569E-02-0.116E-02
CGA:  99    -0.347569044672E+03   -0.19496E-03   -0.19305E-03 10584   0.191E-02-0.171E-03
CGA: 100    -0.347569528100E+03   -0.48343E-03   -0.38880E-03 10584   0.221E-02 0.580E-03
CGA: 101    -0.347569602607E+03   -0.74507E-04   -0.78215E-04 10584   0.116E-02 0.160E-03
CGA: 102    -0.347569898685E+03   -0.29608E-03   -0.23037E-06 10584   0.164E-01-0.282E-03
CGA: 103    -0.347569955185E+03   -0.56500E-04   -0.28821E-04 10584   0.149E-01 0.116E-01
CGA: 104    -0.347570198308E+03   -0.24312E-03   -0.24500E-03 10584   0.142E-02 0.702E-04
CGA: 105    -0.347570301694E+03   -0.10339E-03   -0.99214E-04 10584   0.235E-02-0.242E-03
CGA: 106    -0.347570597369E+03   -0.29568E-03   -0.34753E-03 10584   0.906E-02-0.573E-03
CGA: 107    -0.347570759122E+03   -0.16175E-03   -0.16475E-03 10584   0.142E-02-0.559E-03
CGA: 108    -0.347570807050E+03   -0.47928E-04   -0.48778E-04 10584   0.249E-02-0.190E-04
CGA: 109    -0.347571144438E+03   -0.33739E-03   -0.38406E-03 10584   0.132E-01-0.769E-03
CGA: 110    -0.347571190655E+03   -0.46216E-04   -0.26108E-04 10584   0.130E-01 0.713E-02
CGA: 111    -0.347571530248E+03   -0.33959E-03   -0.32463E-03 10584   0.186E-02-0.401E-03
CGA: 112    -0.347571565654E+03   -0.35406E-04   -0.36890E-04 10584   0.756E-03 0.190E-04
CGA: 113    -0.347571837343E+03   -0.27169E-03   -0.22954E-03 10584   0.208E-02 0.187E-03
CGA: 114    -0.347571916848E+03   -0.79504E-04   -0.77177E-04 10584   0.148E-02-0.161E-03
CGA: 115    -0.347572009602E+03   -0.92755E-04   -0.91075E-04 10584   0.241E-02-0.521E-04
CGA: 116    -0.347572195899E+03   -0.18630E-03   -0.18481E-03 10584   0.637E-02-0.194E-03
CGA: 117    -0.347572615478E+03   -0.41958E-03   -0.42337E-03 10584   0.415E-02 0.218E-03
CGA: 118    -0.347572803810E+03   -0.18833E-03   -0.18517E-03 10584   0.399E-02-0.339E-03
CGA: 119    -0.347573003261E+03   -0.19945E-03   -0.14910E-03 10584   0.374E-02 0.482E-03
CGA: 120    -0.347573328721E+03   -0.32546E-03   -0.32153E-03 10584   0.847E-02-0.595E-03
CGA: 121    -0.347573480699E+03   -0.15198E-03   -0.13183E-03 10584   0.449E-02 0.846E-03
CGA: 122    -0.347573575116E+03   -0.94417E-04   -0.11626E-03 10584   0.347E-02-0.867E-03
CGA: 123    -0.347573842397E+03   -0.26728E-03   -0.29224E-03 10584   0.815E-02-0.657E-03
CGA: 124    -0.347573943033E+03   -0.10064E-03   -0.76605E-04 10584   0.626E-02 0.260E-02
CGA: 125    -0.347574103975E+03   -0.16094E-03   -0.16604E-03 10584   0.825E-02 0.507E-03
CGA: 126    -0.347574383750E+03   -0.27977E-03   -0.31504E-03 10584   0.189E-01 0.121E-02
CGA: 127    -0.347574598823E+03   -0.21507E-03   -0.14011E-03 10584   0.146E-01 0.158E-01
CGA: 128    -0.347574889868E+03   -0.29104E-03   -0.29667E-03 10584   0.446E-02 0.146E-04
CGA: 129    -0.347575397486E+03   -0.50762E-03   -0.50678E-03 10584   0.137E-01 0.802E-05
CGA: 130    -0.347576015779E+03   -0.61829E-03   -0.63280E-03 10584   0.117E-01 0.769E-03
CGA: 131    -0.347576430647E+03   -0.41487E-03   -0.46226E-03 10584   0.852E-03 0.361E-03
CGA: 132    -0.347576567998E+03   -0.13735E-03   -0.19582E-03 10584   0.720E-02-0.378E-03
CGA: 133    -0.347576687245E+03   -0.11925E-03   -0.11271E-03 10584   0.892E-02-0.315E-04
CGA: 134    -0.347576962467E+03   -0.27522E-03   -0.31561E-03 10584   0.794E-02-0.237E-03
CGA: 135    -0.347577131581E+03   -0.16911E-03   -0.17475E-03 10584   0.109E-02 0.706E-04
CGA: 136    -0.347577172995E+03   -0.41414E-04   -0.43709E-04 10584   0.179E-02 0.105E-03
CGA: 137    -0.347577368622E+03   -0.19563E-03   -0.18207E-03 10584   0.366E-02 0.483E-03
CGA: 138    -0.347577497750E+03   -0.12913E-03   -0.15009E-03 10584   0.174E-02 0.239E-03
CGA: 139    -0.347577569433E+03   -0.71683E-04   -0.80066E-04 10584   0.492E-03 0.421E-03
CGA: 140    -0.347577872528E+03   -0.30310E-03   -0.24972E-04 10584   0.810E-02 0.311E-04
CGA: 141    -0.347578085287E+03   -0.21276E-03   -0.13765E-03 10584   0.935E-02 0.471E-02
CGA: 142    -0.347578264100E+03   -0.17881E-03   -0.18339E-03 10584   0.907E-03-0.473E-04
CGA: 143    -0.347578288704E+03   -0.24604E-04   -0.32681E-04 10584   0.467E-03 0.119E-03
CGA: 144    -0.347578329034E+03   -0.40330E-04   -0.42398E-04 10584   0.157E-02 0.986E-04
CGA: 145    -0.347578466834E+03   -0.13780E-03   -0.14696E-03 10584   0.345E-03 0.398E-03
CGA: 146    -0.347578517945E+03   -0.51112E-04   -0.53778E-04 10584   0.344E-02-0.111E-03
CGA: 147    -0.347578634569E+03   -0.11662E-03   -0.93580E-04 10584   0.105E-01 0.423E-04
CGA: 148    -0.347578703637E+03   -0.69068E-04   -0.37499E-04 10584   0.843E-02 0.836E-02
CGA: 149    -0.347578837071E+03   -0.13343E-03   -0.14773E-03 10584   0.127E-02 0.281E-03
CGA: 150    -0.347578873784E+03   -0.36713E-04   -0.43277E-04 10584   0.470E-03 0.114E-03
CGA: 151    -0.347578918265E+03   -0.44481E-04   -0.44380E-04 10584   0.121E-02 0.169E-03
CGA: 152    -0.347579006302E+03   -0.88037E-04   -0.96706E-04 10584   0.600E-03 0.348E-03
CGA: 153    -0.347579031636E+03   -0.25334E-04   -0.25933E-04 10584   0.612E-03 0.477E-05
CGA: 154    -0.347579106166E+03   -0.74530E-04   -0.68673E-04 10584   0.933E-03 0.192E-03
CGA: 155    -0.347579161167E+03   -0.55001E-04   -0.55386E-04 10584   0.107E-02 0.791E-04
CGA: 156    -0.347579552688E+03   -0.39152E-03   -0.37527E-03 10584   0.522E-02-0.274E-03
CGA: 157    -0.347579631338E+03   -0.78650E-04   -0.54948E-04 10584   0.440E-02 0.181E-02
CGA: 158    -0.347579801770E+03   -0.17043E-03   -0.22846E-03 10584   0.628E-02-0.286E-03
CGA: 159    -0.347579922978E+03   -0.12121E-03   -0.73038E-04 10584   0.423E-02 0.433E-02
CGA: 160    -0.347580036892E+03   -0.11391E-03   -0.12018E-03 10584   0.314E-02 0.112E-03
CGA: 161    -0.347580373292E+03   -0.33640E-03   -0.32004E-03 10584   0.543E-02 0.865E-03
CGA: 162    -0.347580645358E+03   -0.27207E-03   -0.28659E-03 10584   0.301E-02 0.231E-03
CGA: 163    -0.347580760715E+03   -0.11536E-03   -0.12089E-03 10584   0.611E-03 0.164E-03
CGA: 164    -0.347580825526E+03   -0.64810E-04   -0.74339E-04 10584   0.325E-02-0.260E-03
CGA: 165    -0.347580899183E+03   -0.73657E-04   -0.59794E-04 10584   0.274E-02-0.375E-03
CGA: 166    -0.347580960773E+03   -0.61590E-04   -0.49837E-04 10584   0.193E-02-0.141E-03
CGA: 167    -0.347581025567E+03   -0.64794E-04   -0.51299E-04 10584   0.109E-02-0.248E-03
CGA: 168    -0.347581049532E+03   -0.23965E-04   -0.19715E-04 10584   0.938E-03-0.979E-04
CGA: 169    -0.347581097947E+03   -0.48415E-04   -0.50444E-04 10584   0.316E-02 0.166E-03
CGA: 170    -0.347581269251E+03   -0.17130E-03   -0.18836E-03 10584   0.270E-02 0.909E-03
CGA: 171    -0.347581366348E+03   -0.97098E-04   -0.10229E-03 10584   0.145E-02 0.443E-03
CGA: 172    -0.347581472002E+03   -0.10565E-03   -0.10548E-03 10584   0.235E-02-0.605E-04
CGA: 173    -0.347581549742E+03   -0.77740E-04   -0.77533E-04 10584   0.255E-02 0.350E-04
CGA: 174    -0.347581722653E+03   -0.17291E-03   -0.17380E-03 10584   0.427E-02-0.148E-03
CGA: 175    -0.347581829085E+03   -0.10643E-03   -0.10559E-03 10584   0.240E-02-0.393E-03
CGA: 176    -0.347581924344E+03   -0.95259E-04   -0.94123E-04 10584   0.245E-02-0.332E-03
CGA: 177    -0.347582003959E+03   -0.79616E-04   -0.72029E-04 10584   0.194E-02-0.244E-04
CGA: 178    -0.347582067407E+03   -0.63448E-04   -0.59695E-04 10584   0.184E-02 0.281E-04
CGA: 179    -0.347582186896E+03   -0.11949E-03   -0.11843E-03 10584   0.465E-02 0.146E-03
CGA: 180    -0.347582362604E+03   -0.17571E-03   -0.18644E-03 10584   0.104E-02 0.459E-03
CGA: 181    -0.347582414446E+03   -0.51842E-04   -0.53150E-04 10584   0.523E-03 0.164E-03
CGA: 182    -0.347582445353E+03   -0.30907E-04   -0.31922E-04 10584   0.577E-03 0.214E-03
CGA: 183    -0.347582498050E+03   -0.52697E-04   -0.50542E-04 10584   0.211E-03 0.424E-03
CGA: 184    -0.347582504365E+03   -0.63155E-05   -0.67889E-05 10584   0.241E-03 0.181E-04
CGA: 185    -0.347582534658E+03   -0.30293E-04    0.24452E-03 10584   0.156E-03 0.213E-03
CGA: 186    -0.347582542022E+03   -0.73634E-05   -0.65580E-05 10584   0.323E-03-0.580E-04
CGA: 187    -0.347582538427E+03    0.35946E-05   -0.12977E-04 10584   0.498E-02-0.238E-03
CGA: 188    -0.347582609358E+03   -0.70931E-04   -0.80745E-04 10584   0.129E-03 0.122E-03
CGA: 189    -0.347582611145E+03   -0.17870E-05   -0.32174E-05 10584   0.640E-04 0.195E-04
   1 F= -.34758261E+03 E0= -.34757518E+03  d E =-.347583E+03  mag=    18.0000
       N       E                     dE             d eps       ncg     rms          ort
SDA:   1    -0.347579806255E+03    0.28031E-02    0.00000E+00 10584   0.106E+00 0.000E+00
CGA:   2    -0.347581697984E+03   -0.18917E-02   -0.18780E-02 10584   0.116E-01 0.132E-02
CGA:   3    -0.347582004942E+03   -0.30696E-03   -0.31930E-03 10584   0.203E-02 0.365E-03
CGA:   4    -0.347582143016E+03   -0.13807E-03   -0.13764E-03 10584   0.442E-02-0.275E-04
CGA:   5    -0.347582458500E+03   -0.31548E-03   -0.31780E-03 10584   0.871E-03 0.211E-03
CGA:   6    -0.347582484670E+03   -0.26170E-04   -0.28190E-04 10584   0.754E-03 0.361E-04
CGA:   7    -0.347582552542E+03   -0.67872E-04   -0.68897E-04 10584   0.840E-03-0.143E-03
CGA:   8    -0.347582575725E+03   -0.23183E-04   -0.22786E-04 10584   0.238E-03-0.892E-05
CGA:   9    -0.347582581890E+03   -0.61649E-05   -0.69227E-05 10584   0.105E-03 0.153E-04
CGA:  10    -0.347582595287E+03   -0.13396E-04   -0.15465E-04 10584   0.202E-03-0.334E-04
CGA:  11    -0.347582599968E+03   -0.46809E-05   -0.32523E-05 10584   0.742E-04-0.260E-04
   2 F= -.34758260E+03 E0= -.34757514E+03  d E =0.111774E-04  mag=    18.0000
       N       E                     dE             d eps       ncg     rms          ort
SDA:   1    -0.347581003777E+03    0.15915E-02    0.00000E+00 10584   0.428E-01 0.000E+00
CGA:   2    -0.347581984643E+03   -0.98087E-03   -0.98720E-03 10584   0.651E-02-0.101E-02
CGA:   3    -0.347582153125E+03   -0.16848E-03   -0.16429E-03 10584   0.162E-02-0.129E-03
CGA:   4    -0.347582256800E+03   -0.10367E-03   -0.10426E-03 10584   0.331E-02 0.142E-03
CGA:   5    -0.347582484543E+03   -0.22774E-03   -0.22733E-03 10584   0.733E-03-0.720E-04
CGA:   6    -0.347582511536E+03   -0.26993E-04   -0.28431E-04 10584   0.512E-03 0.476E-04
CGA:   7    -0.347582552798E+03   -0.41262E-04   -0.42860E-04 10584   0.998E-03-0.145E-03
CGA:   8    -0.347582572276E+03   -0.19477E-04   -0.19558E-04 10584   0.289E-03 0.120E-05
CGA:   9    -0.347582576728E+03   -0.44520E-05   -0.60768E-05 10584   0.108E-03 0.363E-04
   3 F= -.34758258E+03 E0= -.34757511E+03  d E =0.232400E-04  mag=    18.0000
