       N       E                     dE             d eps       ncg     rms          rms(c)
DAV:   1     0.252617541108E+04    0.25262E+04   -0.13233E+05 26376   0.150E+03
DAV:   2    -0.156287795143E+03   -0.26825E+04   -0.25021E+04 27332   0.417E+02
DAV:   3    -0.438484765003E+03   -0.28220E+03   -0.27817E+03 29064   0.149E+02
DAV:   4    -0.447893569437E+03   -0.94088E+01   -0.93199E+01 33400   0.263E+01
DAV:   5    -0.448566936328E+03   -0.67337E+00   -0.67224E+00 42576   0.495E+00    0.847E+00
DAV:   6    -0.371211481176E+03    0.77355E+02   -0.17873E+01 27976   0.134E+01    0.976E+00
DAV:   7    -0.368025603128E+03    0.31859E+01   -0.24081E+00 28504   0.602E+00    0.338E+00
DAV:   8    -0.368011443378E+03    0.14160E-01   -0.19634E-01 35504   0.148E+00    0.225E+00
DAV:   9    -0.367978646994E+03    0.32796E-01   -0.11157E-01 29528   0.116E+00    0.894E-01
DAV:  10    -0.367971104389E+03    0.75426E-02   -0.23143E-02 30384   0.470E-01    0.250E-01
DAV:  11    -0.367970955631E+03    0.14876E-03   -0.14927E-03 34784   0.137E-01    0.161E-01
DAV:  12    -0.367970715093E+03    0.24054E-03   -0.17225E-04 30064   0.470E-02    0.105E-01
DAV:  13    -0.367970598407E+03    0.11669E-03   -0.12264E-04 29832   0.445E-02    0.412E-02
DAV:  14    -0.367970647687E+03   -0.49280E-04   -0.18597E-05 20160   0.180E-02    0.257E-02
DAV:  15    -0.367970485068E+03    0.16262E-03   -0.13116E-05 17112   0.122E-02    0.193E-02
DAV:  16    -0.367970453887E+03    0.31181E-04   -0.39523E-06 16408   0.703E-03    0.110E-02
DAV:  17    -0.367970459655E+03   -0.57676E-05   -0.16877E-06 15992   0.599E-03
   1 F= -.36797046E+03 E0= -.36797046E+03  d E =-.367970E+03  mag=    20.0000
