       N       E                     dE             d eps       ncg     rms          ort
DAV:   1     0.256449812532E+04    0.25645E+04   -0.13266E+05 10710   0.173E+03
DAV:   2    -0.679149129017E+02   -0.26324E+04   -0.24381E+04 10710   0.436E+02
DAV:   3    -0.414875418508E+03   -0.34696E+03   -0.32841E+03 10710   0.174E+02
DAV:   4    -0.430119448316E+03   -0.15244E+02   -0.15085E+02 10710   0.357E+01
DAV:   5    -0.430633306220E+03   -0.51386E+00   -0.51174E+00 10710   0.500E+00
SDA:   6    -0.353107221086E+03    0.77526E+02   -0.51174E+00 10710   0.216E+02 0.000E+00
CGA:   7    -0.355186453215E+03   -0.20792E+01   -0.21039E+01 10710   0.805E+01-0.423E+00
CGA:   8    -0.355914580962E+03   -0.72813E+00   -0.65873E+00 10710   0.372E+01 0.505E+00
CGA:   9    -0.356234206182E+03   -0.31963E+00   -0.33838E+00 10710   0.778E+00-0.108E+00
CGA:  10    -0.356448458209E+03   -0.21425E+00   -0.21745E+00 10710   0.519E+00-0.314E-01
CGA:  11    -0.356511161355E+03   -0.62703E-01   -0.62737E-01 10710   0.307E+00-0.479E-02
CGA:  12    -0.356548968015E+03   -0.37807E-01   -0.39837E-01 10710   0.246E+00 0.643E-02
CGA:  13    -0.356582218756E+03   -0.33251E-01   -0.32323E-01 10710   0.107E+00-0.111E-01
CGA:  14    -0.356599709795E+03   -0.17491E-01   -0.17498E-01 10710   0.609E-01-0.915E-03
CGA:  15    -0.356610569458E+03   -0.10860E-01   -0.10859E-01 10710   0.323E-01-0.237E-02
CGA:  16    -0.356616463559E+03   -0.58941E-02   -0.59545E-02 10710   0.194E-01-0.535E-02
CGA:  17    -0.356619419183E+03   -0.29556E-02   -0.29588E-02 10710   0.109E-01-0.173E-02
CGA:  18    -0.356621510516E+03   -0.20913E-02   -0.30729E-02 10710   0.290E-01-0.766E-02
CGA:  19    -0.356623392063E+03   -0.18815E-02   -0.20345E-02 10710   0.385E-02 0.663E-03
CGA:  20    -0.356616051273E+03    0.73408E-02   -0.40739E-02 10710   0.941E-01-0.122E-01
CGA:  21    -0.356623929847E+03   -0.78786E-02   -0.87553E-02 10710   0.240E-01 0.303E-03
CGA:  22    -0.356627746331E+03   -0.38165E-02   -0.35593E-02 10710   0.660E-02-0.136E-02
CGA:  23    -0.356628549280E+03   -0.80295E-03   -0.75769E-03 10710   0.218E-02-0.400E-03
CGA:  24    -0.356614265842E+03    0.14283E-01   -0.76759E-02 10710   0.142E+00-0.112E-01
CGA:  25    -0.356626290593E+03   -0.12025E-01   -0.14167E-01 10710   0.461E-01-0.130E-01
CGA:  26    -0.356633111598E+03   -0.68210E-02   -0.62400E-02 10710   0.110E-01-0.642E-03
CGA:  27    -0.356634596373E+03   -0.14848E-02   -0.15441E-02 10710   0.430E-02 0.270E-05
CGA:  28    -0.356635856812E+03   -0.12604E-02   -0.94331E-03 10710   0.382E-02-0.116E-02
CGA:  29    -0.356636701941E+03   -0.84513E-03   -0.56707E-03 10710   0.260E-02-0.107E-02
CGA:  30    -0.356637547648E+03   -0.84571E-03   -0.90092E-03 10710   0.147E-01-0.326E-02
CGA:  31    -0.356639082471E+03   -0.15348E-02   -0.14723E-02 10710   0.271E-02-0.611E-03
CGA:  32    -0.356639879775E+03   -0.79730E-03   -0.60707E-03 10710   0.396E-02-0.900E-03
CGA:  33    -0.356640686492E+03   -0.80672E-03   -0.61148E-03 10710   0.336E-02-0.102E-02
CGA:  34    -0.356641764851E+03   -0.10784E-02   -0.72405E-03 10710   0.599E-02-0.268E-02
CGA:  35    -0.356642443145E+03   -0.67829E-03   -0.65452E-03 10710   0.215E-02-0.161E-03
CGA:  36    -0.356643228602E+03   -0.78546E-03   -0.10289E-02 10710   0.124E-01-0.271E-02
CGA:  37    -0.356644133589E+03   -0.90499E-03   -0.10468E-02 10710   0.173E-02 0.236E-03
CGA:  38    -0.356644600887E+03   -0.46730E-03   -0.31814E-03 10710   0.120E-02-0.708E-03
CGA:  39    -0.356645345946E+03   -0.74506E-03    0.35635E-03 10710   0.268E-02-0.187E-03
CGA:  40    -0.356647865291E+03   -0.25193E-02    0.93390E-03 10710   0.829E-02-0.204E-02
CGA:  41    -0.356648412246E+03   -0.54695E-03   -0.68962E-03 10710   0.172E-02 0.290E-03
CGA:  42    -0.356649068626E+03   -0.65638E-03   -0.68116E-03 10710   0.385E-02-0.149E-02
CGA:  43    -0.356649522402E+03   -0.45378E-03   -0.44378E-03 10710   0.870E-03-0.960E-04
CGA:  44    -0.356649785057E+03   -0.26265E-03   -0.32354E-03 10710   0.941E-02-0.219E-02
CGA:  45    -0.356650269449E+03   -0.48439E-03   -0.65915E-03 10710   0.769E-03 0.397E-03
CGA:  46    -0.356650543366E+03   -0.27392E-03   -0.26735E-03 10710   0.193E-02-0.932E-03
CGA:  47    -0.356650977276E+03   -0.43391E-03   -0.35543E-03 10710   0.571E-03-0.523E-03
CGA:  48    -0.356651541330E+03   -0.56405E-03    0.66868E-04 10710   0.267E-02-0.401E-03
CGA:  49    -0.356651646068E+03   -0.10474E-03   -0.17208E-03 10710   0.187E-03 0.204E-03
CGA:  50    -0.356651973795E+03   -0.32773E-03    0.20701E-04 10710   0.512E-03 0.357E-04
CGA:  51    -0.356653415954E+03   -0.14422E-02    0.35971E-04 10710   0.134E-02 0.124E-03
CGA:  52    -0.356657637046E+03   -0.42211E-02    0.89396E-04 10710   0.110E-02 0.103E-02
CGA:  53    -0.356657758545E+03   -0.12150E-03   -0.10585E-03 10710   0.203E-03-0.756E-04
CGA:  54    -0.356658045411E+03   -0.28687E-03    0.19848E-04 10710   0.438E-03-0.138E-03
CGA:  55    -0.356658114487E+03   -0.69076E-04   -0.56481E-04 10710   0.196E-03-0.725E-04
CGA:  56    -0.356658433083E+03   -0.31860E-03    0.10874E-04 10710   0.501E-03-0.129E-03
CGA:  57    -0.356658494458E+03   -0.61375E-04   -0.54556E-04 10710   0.162E-03-0.394E-04
CGA:  58    -0.356658796320E+03   -0.30186E-03    0.87345E-05 10710   0.422E-03-0.121E-03
CGA:  59    -0.356658828902E+03   -0.32582E-04   -0.38938E-04 10710   0.108E-03 0.303E-04
CGA:  60    -0.356659061095E+03   -0.23219E-03    0.62777E-05 10710   0.203E-03-0.514E-04
CGA:  61    -0.356659610964E+03   -0.54987E-03    0.18033E-05 10710   0.437E-03 0.502E-04
CGA:  62    -0.356661057773E+03   -0.14468E-02    0.20387E-04 10710   0.275E-03 0.203E-03
CGA:  63    -0.356662116010E+03   -0.10582E-02    0.15173E-04 10710   0.184E-02-0.465E-03
CGA:  64    -0.356662151337E+03   -0.35327E-04   -0.10450E-03 10710   0.939E-04 0.292E-03
CGA:  65    -0.356662161573E+03   -0.10237E-04   -0.10437E-04 10710   0.485E-04 0.823E-06
CGA:  66    -0.356662297655E+03   -0.13608E-03    0.14639E-05 10710   0.108E-03-0.453E-04
CGA:  67    -0.356662365103E+03   -0.67447E-04    0.70666E-04 10710   0.137E-03-0.783E-04
CGA:  68    -0.356662492135E+03   -0.12703E-03    0.22922E-04 10710   0.734E-03-0.252E-03
CGA:  69    -0.356662497614E+03   -0.54795E-05   -0.38478E-04 10710   0.461E-04 0.154E-03
   1 F= -.35666250E+03 E0= -.35665640E+03  d E =-.356662E+03  mag=    16.0000
       N       E                     dE             d eps       ncg     rms          ort
SDA:   1    -0.356630578342E+03    0.31914E-01    0.00000E+00 10710   0.292E+00 0.000E+00
CGA:   2    -0.356649639983E+03   -0.19062E-01   -0.21028E-01 10710   0.449E-01-0.448E-02
CGA:   3    -0.356658418443E+03   -0.87785E-02   -0.86833E-02 10710   0.305E-01-0.220E-02
CGA:   4    -0.356662062025E+03   -0.36436E-02   -0.37188E-02 10710   0.679E-02 0.506E-03
CGA:   5    -0.356663265321E+03   -0.12033E-02   -0.12136E-02 10710   0.137E-02 0.202E-03
CGA:   6    -0.356663446139E+03   -0.18082E-03   -0.19388E-03 10710   0.567E-03 0.150E-03
CGA:   7    -0.356663590201E+03   -0.14406E-03   -0.16159E-03 10710   0.108E-02-0.478E-03
CGA:   8    -0.356663661951E+03   -0.71750E-04   -0.78705E-04 10710   0.157E-03 0.427E-04
CGA:   9    -0.356663768391E+03   -0.10644E-03    0.33890E-04 10710   0.777E-04-0.361E-04
CGA:  10    -0.356663831593E+03   -0.63202E-04    0.43888E-05 10710   0.801E-04-0.787E-05
CGA:  11    -0.356663978927E+03   -0.14733E-03    0.20451E-05 10710   0.714E-04-0.213E-04
CGA:  12    -0.356664084441E+03   -0.10551E-03    0.15181E-05 10710   0.671E-04-0.183E-04
CGA:  13    -0.356664264867E+03   -0.18043E-03    0.72115E-06 10710   0.384E-04-0.164E-04
CGA:  14    -0.356664374225E+03   -0.10936E-03    0.40077E-06 10710   0.249E-04 0.127E-05
CGA:  15    -0.356664506937E+03   -0.13271E-03    0.25000E-06 10710   0.241E-04 0.475E-05
CGA:  16    -0.356664643038E+03   -0.13610E-03    0.30673E-06 10710   0.238E-04 0.171E-05
CGA:  17    -0.356664823748E+03   -0.18071E-03    0.17561E-06 10710   0.154E-04 0.701E-05
CGA:  18    -0.356664946070E+03   -0.12232E-03    0.15992E-06 10710   0.959E-05 0.554E-05
CGA:  19    -0.356665053551E+03   -0.10748E-03    0.76835E-07 10710   0.938E-05 0.866E-06
CGA:  20    -0.356665160863E+03   -0.10731E-03    0.46729E-07 10710   0.869E-05-0.847E-06
CGA:  21    -0.356665286765E+03   -0.12590E-03    0.23465E-07 10710   0.670E-05 0.117E-05
CGA:  22    -0.356665391089E+03   -0.10432E-03    0.26316E-07 10710   0.439E-05 0.223E-05
CGA:  23    -0.356665472524E+03   -0.81435E-04    0.19988E-07 10710   0.326E-05 0.210E-05
CGA:  24    -0.356665534090E+03   -0.61566E-04    0.17918E-07 10710   0.320E-05 0.110E-05
CGA:  25    -0.356665603329E+03   -0.69240E-04    0.12494E-07 10710   0.175E-05 0.562E-06
CGA:  26    -0.356665644004E+03   -0.40675E-04    0.49220E-08 10710   0.113E-05 0.670E-06
CGA:  27    -0.356665675399E+03   -0.31396E-04    0.36192E-08 10710   0.828E-06 0.434E-06
CGA:  28    -0.356665701642E+03   -0.26243E-04    0.23501E-08 10710   0.780E-06 0.212E-06
CGA:  29    -0.356665727120E+03   -0.25478E-04    0.17593E-08 10710   0.610E-06 0.269E-06
CGA:  30    -0.356665750298E+03   -0.23179E-04    0.13572E-08 10710   0.521E-06 0.387E-06
CGA:  31    -0.356665750211E+03    0.87159E-07   -0.82630E-08 10710   0.446E-06 0.480E-06
   2 F= -.35666575E+03 E0= -.35665969E+03  d E =-.325260E-02  mag=    16.0000
       N       E                     dE             d eps       ncg     rms          ort
SDA:   1    -0.356665706766E+03    0.43533E-04    0.00000E+00 10710   0.179E-03 0.000E+00
CGA:   2    -0.356665778484E+03   -0.71719E-04    0.74470E-03 10710   0.696E-03-0.294E-03
CGA:   3    -0.356665769781E+03    0.87030E-05   -0.27619E-04 10710   0.828E-04 0.231E-03
CGA:   4    -0.356665762668E+03    0.71134E-05   -0.25178E-05 10710   0.259E-04 0.583E-04
CGA:   5    -0.356665760290E+03    0.23778E-05   -0.58897E-06 10710   0.143E-04 0.189E-04
CGA:   6    -0.356665758924E+03    0.13662E-05   -0.31762E-06 10710   0.921E-05 0.113E-04
   3 F= -.35666576E+03 E0= -.35665970E+03  d E =-.326131E-02  mag=    16.0000
       N       E                     dE             d eps       ncg     rms          ort
SDA:   1    -0.356661878542E+03    0.38817E-02    0.00000E+00 10710   0.178E-01 0.000E+00
CGA:   2    -0.356663467959E+03   -0.15894E-02   -0.17174E-02 10710   0.755E-02 0.201E-02
CGA:   3    -0.356665388122E+03   -0.19202E-02   -0.20818E-02 10710   0.557E-02-0.173E-02
CGA:   4    -0.356665713937E+03   -0.32581E-03   -0.35920E-03 10710   0.149E-02 0.429E-03
CGA:   5    -0.356665840002E+03   -0.12607E-03   -0.14921E-03 10710   0.719E-03 0.373E-03
CGA:   6    -0.356665936874E+03   -0.96872E-04   -0.97211E-04 10710   0.178E-03 0.751E-05
CGA:   7    -0.356665950667E+03   -0.13792E-04   -0.17222E-04 10710   0.820E-04 0.632E-04
CGA:   8    -0.356665962171E+03   -0.11505E-04   -0.12422E-04 10710   0.329E-04 0.260E-04
CGA:   9    -0.356665986394E+03   -0.24222E-04    0.34126E-05 10710   0.177E-04-0.246E-05
CGA:  10    -0.356665989410E+03   -0.30165E-05   -0.39063E-05 10710   0.145E-04-0.962E-05
   4 F= -.35666599E+03 E0= -.35665993E+03  d E =-.230487E-03  mag=    16.0000
       N       E                     dE             d eps       ncg     rms          ort
SDA:   1    -0.356665424926E+03    0.56147E-03    0.00000E+00 10710   0.685E-02 0.000E+00
CGA:   2    -0.356665948264E+03   -0.52334E-03   -0.44459E-03 10710   0.219E-03-0.821E-03
CGA:   3    -0.356665951508E+03   -0.32445E-05   -0.10594E-04 10710   0.393E-04 0.755E-04
CGA:   4    -0.356665953502E+03   -0.19940E-05   -0.33760E-05 10710   0.191E-04 0.165E-04
CGA:   5    -0.356665970764E+03   -0.17262E-04    0.15882E-05 10710   0.101E-04-0.205E-06
CGA:   6    -0.356665984460E+03   -0.13696E-04    0.18722E-06 10710   0.121E-04-0.604E-05
CGA:   7    -0.356665983630E+03    0.82935E-06   -0.25462E-06 10710   0.668E-05 0.887E-05
   5 F= -.35666598E+03 E0= -.35665992E+03  d E =-.224706E-03  mag=    16.0000
       N       E                     dE             d eps       ncg     rms          ort
SDA:   1    -0.356664154165E+03    0.18303E-02    0.00000E+00 10710   0.838E-02 0.000E+00
CGA:   2    -0.356665208986E+03   -0.10548E-02   -0.10347E-02 10710   0.698E-02-0.258E-02
CGA:   3    -0.356665881788E+03   -0.67280E-03   -0.66748E-03 10710   0.230E-02 0.727E-03
CGA:   4    -0.356666010055E+03   -0.12827E-03   -0.16606E-03 10710   0.525E-03 0.569E-03
CGA:   5    -0.356666101255E+03   -0.91200E-04   -0.94179E-04 10710   0.527E-03-0.186E-03
CGA:   6    -0.356666102054E+03   -0.79909E-06   -0.93477E-04 10710   0.953E-03-0.635E-03
CGA:   7    -0.356666151499E+03   -0.49445E-04   -0.70898E-04 10710   0.245E-03 0.348E-03
CGA:   8    -0.356666191516E+03   -0.40017E-04   -0.40449E-04 10710   0.534E-04 0.352E-04
CGA:   9    -0.356666211888E+03   -0.20372E-04    0.15461E-04 10710   0.361E-04 0.747E-06
CGA:  10    -0.356666210406E+03    0.14820E-05   -0.12192E-05 10710   0.233E-04 0.273E-04
   6 F= -.35666621E+03 E0= -.35666014E+03  d E =-.226776E-03  mag=    16.0000
       N       E                     dE             d eps       ncg     rms          ort
SDA:   1    -0.356649222373E+03    0.16990E-01    0.00000E+00 10710   0.688E-01 0.000E+00
CGA:   2    -0.356656977316E+03   -0.77549E-02   -0.76740E-02 10710   0.404E-01-0.739E-02
CGA:   3    -0.356663144345E+03   -0.61670E-02   -0.60244E-02 10710   0.126E-01 0.309E-02
CGA:   4    -0.356664729218E+03   -0.15849E-02   -0.15853E-02 10710   0.357E-02 0.833E-04
CGA:   5    -0.356665392827E+03   -0.66361E-03   -0.10317E-02 10710   0.475E-02-0.225E-02
CGA:   6    -0.356665602054E+03   -0.20923E-03   -0.28625E-03 10710   0.593E-03 0.107E-02
CGA:   7    -0.356665657544E+03   -0.55490E-04   -0.63232E-04 10710   0.217E-03 0.188E-03
CGA:   8    -0.356664674270E+03    0.98327E-03   -0.52944E-03 10710   0.114E-01-0.176E-02
CGA:   9    -0.356665332098E+03   -0.65783E-03   -0.84444E-03 10710   0.191E-02 0.109E-02
CGA:  10    -0.356665717194E+03   -0.38510E-03   -0.36924E-03 10710   0.283E-03-0.344E-03
CGA:  11    -0.356665733758E+03   -0.16563E-04   -0.91169E-04 10710   0.138E-02-0.431E-03
CGA:  12    -0.356665784517E+03   -0.50759E-04   -0.91662E-04 10710   0.112E-03 0.248E-03
CGA:  13    -0.356665787230E+03   -0.27135E-05   -0.93849E-05 10710   0.296E-04 0.447E-04
   7 F= -.35666579E+03 E0= -.35665968E+03  d E =0.196400E-03  mag=    16.0000
       N       E                     dE             d eps       ncg     rms          ort
SDA:   1    -0.356660115594E+03    0.56689E-02    0.00000E+00 10710   0.270E-01 0.000E+00
CGA:   2    -0.356662669560E+03   -0.25540E-02   -0.27708E-02 10710   0.115E-01 0.188E-02
CGA:   3    -0.356665402630E+03   -0.27331E-02   -0.27572E-02 10710   0.780E-02-0.113E-02
CGA:   4    -0.356665961530E+03   -0.55890E-03   -0.62705E-03 10710   0.146E-02 0.553E-03
CGA:   5    -0.356666166128E+03   -0.20460E-03   -0.21702E-03 10710   0.629E-03 0.208E-03
CGA:   6    -0.356666282069E+03   -0.11594E-03   -0.10527E-03 10710   0.447E-03-0.218E-03
CGA:   7    -0.356666281565E+03    0.50445E-06   -0.16089E-04 10710   0.220E-03 0.120E-03
CGA:   8    -0.356666276757E+03    0.48083E-05   -0.11226E-04 10710   0.810E-04 0.110E-03
   8 F= -.35666628E+03 E0= -.35666019E+03  d E =-.293126E-03  mag=    16.0000
       N       E                     dE             d eps       ncg     rms          ort
SDA:   1    -0.356665932731E+03    0.34883E-03    0.00000E+00 10710   0.773E-02 0.000E+00
CGA:   2    -0.356666201915E+03   -0.26918E-03   -0.40616E-03 10710   0.533E-03 0.107E-02
CGA:   3    -0.356666226839E+03   -0.24924E-04   -0.47429E-04 10710   0.336E-03 0.254E-03
CGA:   4    -0.356666307619E+03   -0.80780E-04   -0.80797E-04 10710   0.154E-03-0.273E-04
CGA:   5    -0.356666333895E+03   -0.26276E-04   -0.29238E-04 10710   0.154E-03-0.665E-04
CGA:   6    -0.356666328132E+03    0.57626E-05   -0.20806E-05 10710   0.109E-03 0.558E-04
   9 F= -.35666633E+03 E0= -.35666025E+03  d E =-.344502E-03  mag=    16.0000
       N       E                     dE             d eps       ncg     rms          ort
SDA:   1    -0.356666107437E+03    0.22646E-03    0.00000E+00 10710   0.492E-03 0.000E+00
CGA:   2    -0.356666181392E+03   -0.73955E-04   -0.18129E-03 10710   0.237E-02-0.494E-03
CGA:   3    -0.356666288653E+03   -0.10726E-03   -0.13896E-03 10710   0.121E-03 0.302E-03
CGA:   4    -0.356666302556E+03   -0.13903E-04   -0.13934E-04 10710   0.425E-04 0.485E-06
CGA:   5    -0.356666309839E+03   -0.72833E-05   -0.10526E-04 10710   0.969E-04-0.349E-04
CGA:   6    -0.356666309597E+03    0.24238E-06   -0.44814E-05 10710   0.219E-04 0.421E-04
  10 F= -.35666631E+03 E0= -.35666023E+03  d E =-.325967E-03  mag=    16.0000
       N       E                     dE             d eps       ncg     rms          ort
SDA:   1    -0.356666283057E+03    0.26783E-04    0.00000E+00 10710   0.207E-03 0.000E+00
CGA:   2    -0.356666297633E+03   -0.14577E-04   -0.16605E-04 10710   0.443E-04 0.302E-04
CGA:   3    -0.356666307212E+03   -0.95785E-05   -0.95075E-05 10710   0.296E-04 0.157E-05
CGA:   4    -0.356666309064E+03   -0.18525E-05   -0.26335E-05 10710   0.101E-04 0.130E-04
CGA:   5    -0.356666310566E+03   -0.15014E-05   -0.15334E-05 10710   0.321E-05 0.831E-06
CGA:   6    -0.356666313843E+03   -0.32770E-05    0.10423E-06 10710   0.157E-05 0.258E-06
  11 F= -.35666631E+03 E0= -.35666024E+03  d E =-.330213E-03  mag=    16.0000
