       N       E                     dE             d eps       ncg     rms          ort
DAV:   1     0.274252252789E+04    0.27425E+04   -0.14565E+05  7392   0.164E+03
DAV:   2    -0.111771142418E+03   -0.28543E+04   -0.26483E+04  7392   0.431E+02
DAV:   3    -0.452019397760E+03   -0.34025E+03   -0.33395E+03  7392   0.169E+02
DAV:   4    -0.466980095039E+03   -0.14961E+02   -0.14513E+02  7392   0.326E+01
DAV:   5    -0.467905834440E+03   -0.92574E+00   -0.91396E+00  7392   0.591E+00
SDA:   6    -0.247029965680E+03    0.22088E+03   -0.91396E+00  7392   0.581E+03 0.000E+00
CGA:   7    -0.334045424658E+03   -0.87015E+02   -0.71420E+02  7392   0.208E+03-0.111E+03
CGA:   8    -0.317937624934E+03    0.16108E+02   -0.10255E+02  7392   0.126E+04-0.198E+03
CGA:   9    -0.319419264819E+03   -0.14816E+01   -0.86840E+02  7392   0.590E+03-0.126E+03
CGA:  10    -0.308459174956E+03    0.10960E+02   -0.27046E+02  7392   0.389E+03-0.107E+03
CGA:  11    -0.338585380537E+03   -0.30126E+02   -0.60620E+01  7392   0.896E+03 0.169E+04
CGA:  12    -0.313325719190E+03    0.25260E+02   -0.64070E+02  7392   0.614E+03-0.169E+03
CGA:  13    -0.311543226962E+03    0.17825E+01   -0.18705E+02  7392   0.450E+03-0.564E+01
CGA:  14    -0.341384647137E+03   -0.29841E+02   -0.12468E+02  7392   0.492E+03 0.122E+03
CGA:  15    -0.323098101470E+03    0.18287E+02   -0.36474E+02  7392   0.284E+03-0.859E+02
CGA:  16    -0.334984872669E+03   -0.11887E+02   -0.12956E+02  7392   0.481E+03-0.182E+03
CGA:  17    -0.333980473190E+03    0.10044E+01   -0.26388E+02  7392   0.586E+03-0.428E+03
CGA:  18    -0.337957835629E+03   -0.39774E+01   -0.30994E+02  7392   0.611E+03-0.620E+03
CGA:  19    -0.337118665643E+03    0.83917E+00   -0.32377E+02  7392   0.498E+03-0.513E+03
CGA:  20    -0.336182436874E+03    0.93623E+00   -0.23839E+02  7392   0.669E+03-0.672E+03
CGA:  21    -0.332062485113E+03    0.41200E+01   -0.35003E+02  7392   0.385E+03-0.347E+03
CGA:  22    -0.344573983073E+03   -0.12511E+02   -0.16628E+02  7392   0.560E+03-0.812E+03
CGA:  23    -0.340216326365E+03    0.43577E+01   -0.25306E+02  7392   0.686E+03-0.605E+03
CGA:  24    -0.337499065973E+03    0.27173E+01   -0.31162E+02  7392   0.867E+03-0.750E+03
CGA:  25    -0.337479618096E+03    0.19448E-01   -0.40940E+02  7392   0.594E+03-0.580E+03
CGA:  26    -0.344678101991E+03   -0.71985E+01   -0.24899E+02  7392   0.550E+03-0.740E+03
CGA:  27    -0.347549312804E+03   -0.28712E+01   -0.21584E+02  7392   0.613E+03-0.695E+03
CGA:  28    -0.347620859920E+03   -0.71547E-01   -0.23196E+02  7392   0.362E+03-0.354E+03
CGA:  29    -0.354430031625E+03   -0.68092E+01   -0.11295E+02  7392   0.237E+03-0.368E+03
CGA:  30    -0.356746859677E+03   -0.23168E+01   -0.59441E+01  7392   0.243E+03-0.315E+03
CGA:  31    -0.356309761981E+03    0.43710E+00   -0.62123E+01  7392   0.248E+03-0.231E+03
CGA:  32    -0.355871880985E+03    0.43788E+00   -0.61915E+01  7392   0.324E+03-0.308E+03
CGA:  33    -0.355092198092E+03    0.77968E+00   -0.86257E+01  7392   0.271E+03-0.246E+03
CGA:  34    -0.356977731879E+03   -0.18855E+01   -0.62046E+01  7392   0.304E+03-0.371E+03
CGA:  35    -0.356437406699E+03    0.54033E+00   -0.76755E+01  7392   0.230E+03-0.210E+03
CGA:  36    -0.359193052158E+03   -0.27556E+01   -0.45854E+01  7392   0.166E+03-0.263E+03
CGA:  37    -0.359054556645E+03    0.13850E+00   -0.38408E+01  7392   0.132E+03-0.120E+03
CGA:  38    -0.360656394688E+03   -0.16018E+01   -0.22274E+01  7392   0.367E+02-0.793E+02
CGA:  39    -0.360911556624E+03   -0.25516E+00   -0.65960E+00  7392   0.146E+02-0.184E+02
CGA:  40    -0.361098271510E+03   -0.18671E+00   -0.17841E+00  7392   0.147E+01 0.420E+00
CGA:  41    -0.361986310058E+03   -0.88804E+00   -0.24288E+00  7392   0.194E+01 0.555E+00
CGA:  42    -0.362200178085E+03   -0.21387E+00   -0.24829E+00  7392   0.227E+00 0.538E+00
CGA:  43    -0.362281647299E+03   -0.81469E-01   -0.70752E-01  7392   0.957E-01 0.746E-01
CGA:  44    -0.362327512195E+03   -0.45865E-01   -0.41774E-01  7392   0.239E-01 0.198E-01
CGA:  45    -0.362342062640E+03   -0.14550E-01   -0.15077E-01  7392   0.187E-01-0.992E-03
CGA:  46    -0.362347803034E+03   -0.57404E-02   -0.55720E-02  7392   0.664E-02 0.104E-02
CGA:  47    -0.362352750848E+03   -0.49478E-02   -0.46360E-02  7392   0.696E-02 0.693E-03
CGA:  48    -0.362358375147E+03   -0.56243E-02   -0.46168E-02  7392   0.651E-02 0.244E-02
CGA:  49    -0.362361492984E+03   -0.31178E-02   -0.79529E-03  7392   0.618E-01-0.598E-02
CGA:  50    -0.362370129472E+03   -0.86365E-02   -0.11825E-01  7392   0.187E-01 0.673E-02
CGA:  51    -0.362370519318E+03   -0.38985E-03   -0.36335E-02  7392   0.229E-01 0.617E-02
CGA:  52    -0.362356136110E+03    0.14383E-01   -0.28428E-02  7392   0.104E+00 0.246E-01
CGA:  53    -0.362349847925E+03    0.62882E-02   -0.16028E-01  7392   0.149E+00 0.306E-01
CGA:  54    -0.362270236382E+03    0.79612E-01   -0.18172E-01  7392   0.465E+00 0.155E+00
CGA:  55    -0.362258498691E+03    0.11738E-01   -0.68686E-01  7392   0.563E+00 0.136E+00
CGA:  56    -0.362102330008E+03    0.15617E+00   -0.74254E-01  7392   0.978E+00 0.492E+00
CGA:  57    -0.362145893083E+03   -0.43563E-01   -0.15075E+00  7392   0.859E+00 0.288E+00
CGA:  58    -0.362098284951E+03    0.47608E-01   -0.13428E+00  7392   0.732E+00 0.573E+00
CGA:  59    -0.362200889812E+03   -0.10260E+00   -0.13428E+00  7392   0.430E+00 0.232E+00
CGA:  60    -0.362242567029E+03   -0.41677E-01   -0.82898E-01  7392   0.281E+00 0.241E+00
CGA:  61    -0.362290020011E+03   -0.47453E-01   -0.55909E-01  7392   0.160E+00 0.692E-01
CGA:  62    -0.362321553403E+03   -0.31533E-01   -0.37767E-01  7392   0.546E-01 0.389E-01
CGA:  63    -0.362346977661E+03   -0.25424E-01   -0.23726E-01  7392   0.265E-01 0.163E-01
CGA:  64    -0.362364012298E+03   -0.17035E-01   -0.15970E-01  7392   0.378E-01 0.858E-02
CGA:  65    -0.362364833316E+03   -0.82102E-03   -0.60813E-02  7392   0.571E-01 0.205E-01
CGA:  66    -0.362355741408E+03    0.90919E-02   -0.50179E-02  7392   0.102E+00 0.349E-01
CGA:  67    -0.362338043162E+03    0.17698E-01   -0.85642E-02  7392   0.174E+00 0.623E-01
CGA:  68    -0.362327597444E+03    0.10446E-01   -0.17458E-01  7392   0.254E+00 0.999E-01
CGA:  69    -0.362321581213E+03    0.60162E-02   -0.26184E-01  7392   0.213E+00 0.905E-01
CGA:  70    -0.362305728807E+03    0.15852E-01   -0.24326E-01  7392   0.258E+00 0.235E+00
CGA:  71    -0.362357731853E+03   -0.52003E-01   -0.53842E-01  7392   0.977E-01 0.106E-01
CGA:  72    -0.362368608786E+03   -0.10877E-01   -0.15221E-01  7392   0.342E-01 0.279E-01
CGA:  73    -0.362382419346E+03   -0.13811E-01   -0.13084E-01  7392   0.729E-02 0.644E-02
CGA:  74    -0.360408150754E+03    0.19743E+01   -0.24792E+00  7392   0.246E+01-0.131E+01
CGA:  75    -0.361619341730E+03   -0.12112E+01   -0.82417E+00  7392   0.551E+01-0.229E+01
CGA:  76    -0.362306217559E+03   -0.68688E+00   -0.66392E+00  7392   0.635E+00 0.245E+00
CGA:  77    -0.362377124615E+03   -0.70907E-01   -0.68827E-01  7392   0.835E-01 0.102E-01
CGA:  78    -0.362387635868E+03   -0.10511E-01   -0.10264E-01  7392   0.284E-01-0.109E-02
CGA:  79    -0.362392308234E+03   -0.46724E-02   -0.46689E-02  7392   0.139E-01-0.226E-03
CGA:  80    -0.362394789019E+03   -0.24808E-02   -0.25268E-02  7392   0.711E-02 0.208E-03
CGA:  81    -0.362396334206E+03   -0.15452E-02   -0.15629E-02  7392   0.462E-02 0.143E-03
CGA:  82    -0.362397553802E+03   -0.12196E-02   -0.12144E-02  7392   0.353E-02-0.263E-04
CGA:  83    -0.362398565453E+03   -0.10117E-02   -0.10089E-02  7392   0.299E-02-0.144E-04
CGA:  84    -0.362399501398E+03   -0.93595E-03   -0.93792E-03  7392   0.269E-02 0.110E-03
CGA:  85    -0.362400500418E+03   -0.99902E-03   -0.99816E-03  7392   0.290E-02 0.523E-04
CGA:  86    -0.362401725856E+03   -0.12254E-02   -0.12469E-02  7392   0.373E-02-0.208E-03
CGA:  87    -0.362402929756E+03   -0.12039E-02   -0.12054E-02  7392   0.374E-02-0.137E-04
CGA:  88    -0.362404080416E+03   -0.11507E-02   -0.11648E-02  7392   0.331E-02 0.461E-03
CGA:  89    -0.362405322673E+03   -0.12423E-02   -0.12456E-02  7392   0.271E-02 0.367E-03
CGA:  90    -0.362406380707E+03   -0.10580E-02   -0.10562E-02  7392   0.195E-02 0.746E-04
CGA:  91    -0.362407032505E+03   -0.65180E-03   -0.65183E-03  7392   0.115E-02-0.268E-04
CGA:  92    -0.362407383426E+03   -0.35092E-03   -0.35063E-03  7392   0.671E-03-0.251E-04
CGA:  93    -0.362407665535E+03   -0.28211E-03   -0.29945E-03  7392   0.809E-03-0.159E-03
CGA:  94    -0.362407798636E+03   -0.13310E-03   -0.61555E-03  7392   0.348E-02-0.780E-03
CGA:  95    -0.362409074573E+03   -0.12759E-02   -0.12769E-02  7392   0.101E-02 0.902E-04
CGA:  96    -0.362409410800E+03   -0.33623E-03   -0.32932E-03  7392   0.784E-03-0.115E-03
CGA:  97    -0.362409686151E+03   -0.27535E-03   -0.27889E-03  7392   0.616E-03-0.129E-03
CGA:  98    -0.362409997824E+03   -0.31167E-03   -0.32376E-03  7392   0.677E-03-0.436E-04
CGA:  99    -0.362410244704E+03   -0.24688E-03   -0.47191E-03  7392   0.219E-02-0.625E-03
CGA: 100    -0.362410675655E+03   -0.43095E-03   -0.45733E-03  7392   0.376E-03 0.790E-04
CGA: 101    -0.362410861215E+03   -0.18556E-03   -0.18294E-03  7392   0.192E-03 0.327E-04
CGA: 102    -0.362410979883E+03   -0.11867E-03   -0.13600E-03  7392   0.298E-03-0.664E-04
CGA: 103    -0.362411046526E+03   -0.66643E-04   -0.63216E-04  7392   0.194E-03-0.959E-05
CGA: 104    -0.362411113163E+03   -0.66637E-04   -0.67231E-04  7392   0.188E-03-0.231E-05
CGA: 105    -0.362411064333E+03    0.48830E-04   -0.14280E-03  7392   0.191E-02-0.337E-03
CGA: 106    -0.362411341619E+03   -0.27729E-03   -0.47910E-03  7392   0.247E-03 0.194E-03
CGA: 107    -0.362411409340E+03   -0.67721E-04   -0.81971E-04  7392   0.552E-04 0.161E-04
CGA: 108    -0.362411450213E+03   -0.40873E-04   -0.37826E-04  7392   0.509E-04 0.112E-04
CGA: 109    -0.362411485853E+03   -0.35640E-04   -0.40781E-04  7392   0.130E-03-0.120E-04
CGA: 110    -0.362411488094E+03   -0.22412E-05   -0.11234E-04  7392   0.189E-03 0.292E-04
CGA: 111    -0.362411496972E+03   -0.88782E-05   -0.30141E-04  7392   0.142E-03 0.254E-04
CGA: 112    -0.362411507970E+03   -0.10997E-04   -0.26003E-04  7392   0.131E-03 0.347E-04
CGA: 113    -0.362411529692E+03   -0.21722E-04   -0.31411E-04  7392   0.114E-03 0.349E-04
CGA: 114    -0.362411564763E+03   -0.35071E-04   -0.38268E-04  7392   0.136E-03 0.352E-04
CGA: 115    -0.362411600301E+03   -0.35538E-04   -0.41970E-04  7392   0.142E-03 0.573E-04
CGA: 116    -0.362411629975E+03   -0.29675E-04   -0.40911E-04  7392   0.104E-03 0.631E-04
CGA: 117    -0.362411656927E+03   -0.26951E-04   -0.33055E-04  7392   0.744E-04 0.320E-04
CGA: 118    -0.362411681817E+03   -0.24890E-04   -0.25738E-04  7392   0.585E-04 0.371E-05
CGA: 119    -0.362411699296E+03   -0.17480E-04   -0.17349E-04  7392   0.532E-04-0.333E-06
CGA: 120    -0.362411708948E+03   -0.96517E-05   -0.10769E-04  7392   0.454E-04 0.881E-05
CGA: 121    -0.362411718300E+03   -0.93525E-05   -0.10281E-04  7392   0.329E-04 0.738E-05
   1 F= -.36241172E+03 E0= -.36241172E+03  d E =-.362412E+03  mag=    16.0000
       N       E                     dE             d eps       ncg     rms          ort
SDA:   1    -0.362411877199E+03   -0.16825E-03    0.00000E+00  7392   0.124E-02 0.000E+00
CGA:   2    -0.362412183768E+03   -0.30657E-03   -0.31099E-03  7392   0.635E-03 0.582E-04
CGA:   3    -0.362412299836E+03   -0.11607E-03   -0.11460E-03  7392   0.206E-03-0.101E-04
CGA:   4    -0.362412340308E+03   -0.40472E-04   -0.37708E-04  7392   0.666E-04-0.216E-04
CGA:   5    -0.362412356397E+03   -0.16089E-04   -0.14252E-04  7392   0.436E-04-0.266E-04
CGA:   6    -0.362412364149E+03   -0.77521E-05   -0.70185E-05  7392   0.287E-04-0.201E-04
   2 F= -.36241236E+03 E0= -.36241236E+03  d E =-.645849E-03  mag=    16.0000
       N       E                     dE             d eps       ncg     rms          ort
SDA:   1    -0.362407113402E+03    0.52430E-02    0.00000E+00  7392   0.181E-01 0.000E+00
CGA:   2    -0.362411559405E+03   -0.44460E-02   -0.44592E-02  7392   0.985E-02 0.264E-03
CGA:   3    -0.362413256402E+03   -0.16970E-02   -0.16925E-02  7392   0.271E-02-0.398E-04
CGA:   4    -0.362413764055E+03   -0.50765E-03   -0.49734E-03  7392   0.760E-03-0.102E-03
CGA:   5    -0.362413920023E+03   -0.15597E-03   -0.14799E-03  7392   0.276E-03-0.101E-03
CGA:   6    -0.362413975479E+03   -0.55457E-04   -0.52471E-04  7392   0.111E-03-0.512E-04
CGA:   7    -0.362413992335E+03   -0.16856E-04   -0.17349E-04  7392   0.332E-04 0.595E-05
CGA:   8    -0.362413997112E+03   -0.47774E-05   -0.58794E-05  7392   0.110E-04 0.107E-04
   3 F= -.36241400E+03 E0= -.36241400E+03  d E =-.163296E-02  mag=    16.0000
       N       E                     dE             d eps       ncg     rms          ort
SDA:   1    -0.362398818145E+03    0.15174E-01    0.00000E+00  7392   0.462E-01 0.000E+00
CGA:   2    -0.362408903379E+03   -0.10085E-01   -0.10104E-01  7392   0.260E-01 0.395E-03
CGA:   3    -0.362413567440E+03   -0.46641E-02   -0.46590E-02  7392   0.720E-02-0.772E-04
CGA:   4    -0.362414813396E+03   -0.12460E-02   -0.12310E-02  7392   0.183E-02-0.178E-03
CGA:   5    -0.362415178546E+03   -0.36515E-03   -0.35555E-03  7392   0.602E-03-0.180E-03
CGA:   6    -0.362415298717E+03   -0.12017E-03   -0.11692E-03  7392   0.222E-03-0.951E-04
CGA:   7    -0.362415333876E+03   -0.35158E-04   -0.35733E-04  7392   0.636E-04 0.998E-05
CGA:   8    -0.362415344625E+03   -0.10750E-04   -0.11926E-04  7392   0.205E-04 0.178E-04
CGA:   9    -0.362415352283E+03   -0.76581E-05   -0.78686E-05  7392   0.147E-04-0.363E-05
CGA:  10    -0.362415269320E+03    0.82964E-04   -0.44731E-04  7392   0.421E-03-0.772E-04
CGA:  11    -0.362415335179E+03   -0.65859E-04   -0.70763E-04  7392   0.719E-04 0.175E-04
CGA:  12    -0.362415357688E+03   -0.22509E-04   -0.23516E-04  7392   0.199E-04 0.845E-05
CGA:  13    -0.362415365200E+03   -0.75125E-05   -0.75562E-05  7392   0.789E-05 0.498E-06
   4 F= -.36241537E+03 E0= -.36241537E+03  d E =-.136809E-02  mag=    16.0000
       N       E                     dE             d eps       ncg     rms          ort
SDA:   1    -0.362402066944E+03    0.13291E-01    0.00000E+00  7392   0.404E-01 0.000E+00
CGA:   2    -0.362410663195E+03   -0.85963E-02   -0.86311E-02  7392   0.231E-01 0.150E-03
CGA:   3    -0.362414836069E+03   -0.41729E-02   -0.41592E-02  7392   0.619E-02-0.768E-04
CGA:   4    -0.362415877996E+03   -0.10419E-02   -0.10230E-02  7392   0.152E-02-0.852E-04
CGA:   5    -0.362416172549E+03   -0.29455E-03   -0.27969E-03  7392   0.454E-03-0.766E-04
CGA:   6    -0.362416267557E+03   -0.95008E-04   -0.87932E-04  7392   0.147E-03-0.423E-04
CGA:   7    -0.362416292970E+03   -0.25414E-04   -0.26016E-04  7392   0.428E-04 0.351E-05
CGA:   8    -0.362416301344E+03   -0.83738E-05   -0.92342E-05  7392   0.137E-04 0.592E-05
   5 F= -.36241630E+03 E0= -.36241630E+03  d E =-.936143E-03  mag=    16.0000
       N       E                     dE             d eps       ncg     rms          ort
SDA:   1    -0.362180755951E+03    0.23554E+00    0.00000E+00  7392   0.688E+00 0.000E+00
CGA:   2    -0.362322676058E+03   -0.14192E+00   -0.14214E+00  7392   0.388E+00 0.776E-03
CGA:   3    -0.362393607309E+03   -0.70931E-01   -0.70894E-01  7392   0.107E+00-0.454E-03
CGA:   4    -0.362411055050E+03   -0.17448E-01   -0.17404E-01  7392   0.251E-01-0.285E-03
CGA:   5    -0.362415533593E+03   -0.44785E-02   -0.44727E-02  7392   0.717E-02-0.504E-04
CGA:   6    -0.362416895258E+03   -0.13617E-02   -0.13606E-02  7392   0.206E-02-0.140E-04
CGA:   7    -0.362417323514E+03   -0.42826E-03   -0.42978E-03  7392   0.660E-03 0.131E-04
CGA:   8    -0.362417482122E+03   -0.15861E-03   -0.15896E-03  7392   0.242E-03 0.459E-05
CGA:   9    -0.362417550552E+03   -0.68431E-04   -0.68188E-04  7392   0.993E-04-0.850E-05
CGA:  10    -0.362417575773E+03   -0.25221E-04   -0.25414E-04  7392   0.342E-04 0.463E-05
CGA:  11    -0.362417585772E+03   -0.99992E-05   -0.10046E-04  7392   0.112E-04 0.191E-05
   6 F= -.36241759E+03 E0= -.36241759E+03  d E =-.128443E-02  mag=    16.0000
       N       E                     dE             d eps       ncg     rms          ort
SDA:   1    -0.362270180708E+03    0.14740E+00    0.00000E+00  7392   0.366E+00 0.000E+00
CGA:   2    -0.362374872379E+03   -0.10469E+00   -0.10470E+00  7392   0.199E+00 0.278E-03
CGA:   3    -0.362405771492E+03   -0.30899E-01   -0.30878E-01  7392   0.482E-01-0.179E-03
CGA:   4    -0.362413861771E+03   -0.80903E-02   -0.80841E-02  7392   0.111E-01-0.578E-04
CGA:   5    -0.362415837107E+03   -0.19753E-02   -0.19645E-02  7392   0.311E-02-0.960E-04
CGA:   6    -0.362416464713E+03   -0.62761E-03   -0.61907E-03  7392   0.102E-02-0.100E-03
CGA:   7    -0.362416681101E+03   -0.21639E-03   -0.21545E-03  7392   0.354E-03-0.148E-04
CGA:   8    -0.362416768741E+03   -0.87639E-04   -0.87706E-04  7392   0.143E-03 0.236E-05
CGA:   9    -0.362416814655E+03   -0.45915E-04   -0.46767E-04  7392   0.736E-04-0.183E-04
CGA:  10    -0.362416831791E+03   -0.17135E-04   -0.17115E-04  7392   0.250E-04-0.146E-05
CGA:  11    -0.362416840416E+03   -0.86251E-05   -0.10733E-04  7392   0.220E-04-0.134E-04
   7 F= -.36241684E+03 E0= -.36241684E+03  d E =0.745357E-03  mag=    16.0000
       N       E                     dE             d eps       ncg     rms          ort
SDA:   1    -0.362394774686E+03    0.22057E-01    0.00000E+00  7392   0.702E-01 0.000E+00
CGA:   2    -0.362409164657E+03   -0.14390E-01   -0.14404E-01  7392   0.388E-01 0.136E-03
CGA:   3    -0.362416293810E+03   -0.71292E-02   -0.71524E-02  7392   0.113E-01 0.205E-03
CGA:   4    -0.362418151033E+03   -0.18572E-02   -0.18618E-02  7392   0.273E-02 0.366E-04
CGA:   5    -0.362418648219E+03   -0.49719E-03   -0.49793E-03  7392   0.816E-03 0.739E-05
CGA:   6    -0.362418810424E+03   -0.16220E-03   -0.16130E-03  7392   0.249E-03-0.140E-04
CGA:   7    -0.362418866920E+03   -0.56496E-04   -0.55807E-04  7392   0.100E-03-0.204E-04
CGA:   8    -0.362418885673E+03   -0.18753E-04   -0.19169E-04  7392   0.313E-04 0.800E-05
CGA:   9    -0.362418891009E+03   -0.53368E-05   -0.61454E-05  7392   0.102E-04 0.107E-04
   8 F= -.36241889E+03 E0= -.36241889E+03  d E =-.205059E-02  mag=    16.0000
       N       E                     dE             d eps       ncg     rms          ort
SDA:   1    -0.362405926991E+03    0.12959E-01    0.00000E+00  7392   0.365E-01 0.000E+00
CGA:   2    -0.362414735622E+03   -0.88086E-02   -0.88075E-02  7392   0.221E-01-0.130E-03
CGA:   3    -0.362418399606E+03   -0.36640E-02   -0.36715E-02  7392   0.538E-02 0.780E-04
CGA:   4    -0.362419254640E+03   -0.85503E-03   -0.86247E-03  7392   0.124E-02 0.846E-04
CGA:   5    -0.362419462851E+03   -0.20821E-03   -0.21272E-03  7392   0.343E-03 0.612E-04
CGA:   6    -0.362419529629E+03   -0.66778E-04   -0.67695E-04  7392   0.101E-03 0.180E-04
CGA:   7    -0.362419556805E+03   -0.27176E-04   -0.27620E-04  7392   0.502E-04-0.176E-04
CGA:   8    -0.362419564859E+03   -0.80540E-05   -0.82102E-05  7392   0.170E-04 0.404E-05
   9 F= -.36241956E+03 E0= -.36241956E+03  d E =-.673850E-03  mag=    16.0000
       N       E                     dE             d eps       ncg     rms          ort
SDA:   1    -0.362308727543E+03    0.11083E+00    0.00000E+00  7392   0.282E+00 0.000E+00
CGA:   2    -0.362385931485E+03   -0.77204E-01   -0.77209E-01  7392   0.164E+00-0.209E-03
CGA:   3    -0.362411828932E+03   -0.25897E-01   -0.25915E-01  7392   0.384E-01 0.194E-03
CGA:   4    -0.362418057238E+03   -0.62283E-02   -0.62418E-02  7392   0.865E-02 0.198E-03
CGA:   5    -0.362419567469E+03   -0.15102E-02   -0.15175E-02  7392   0.237E-02 0.142E-03
CGA:   6    -0.362420043675E+03   -0.47621E-03   -0.47687E-03  7392   0.715E-03 0.263E-04
CGA:   7    -0.362420211105E+03   -0.16743E-03   -0.16789E-03  7392   0.274E-03-0.433E-04
CGA:   8    -0.362420272239E+03   -0.61134E-04   -0.60962E-04  7392   0.103E-03 0.118E-04
CGA:   9    -0.362420293972E+03   -0.21733E-04   -0.22214E-04  7392   0.339E-04 0.305E-04
CGA:  10    -0.362420302575E+03   -0.86038E-05   -0.88852E-05  7392   0.136E-04 0.145E-04
  10 F= -.36242030E+03 E0= -.36242030E+03  d E =-.737716E-03  mag=    16.0000
       N       E                     dE             d eps       ncg     rms          ort
SDA:   1    -0.361888881480E+03    0.53141E+00    0.00000E+00  7392   0.124E+01 0.000E+00
CGA:   2    -0.362300715691E+03   -0.41183E+00   -0.41163E+00  7392   0.485E+00 0.156E-02
CGA:   3    -0.362383002448E+03   -0.82287E-01   -0.82310E-01  7392   0.136E+00 0.342E-03
CGA:   4    -0.362404375476E+03   -0.21373E-01   -0.21362E-01  7392   0.285E-01-0.193E-03
CGA:   5    -0.362409887330E+03   -0.55119E-02   -0.55011E-02  7392   0.911E-02-0.398E-03
CGA:   6    -0.362411665706E+03   -0.17784E-02   -0.17729E-02  7392   0.286E-02-0.249E-03
CGA:   7    -0.362412314230E+03   -0.64852E-03   -0.64901E-03  7392   0.110E-02-0.331E-04
CGA:   8    -0.362412587760E+03   -0.27353E-03   -0.27223E-03  7392   0.447E-03 0.414E-04
CGA:   9    -0.362412722964E+03   -0.13520E-03   -0.13497E-03  7392   0.177E-03 0.330E-05
CGA:  10    -0.362412778345E+03   -0.55381E-04   -0.57646E-04  7392   0.773E-04-0.229E-04
CGA:  11    -0.362412797660E+03   -0.19315E-04   -0.19690E-04  7392   0.261E-04-0.596E-05
CGA:  12    -0.362412805046E+03   -0.73863E-05   -0.72852E-05  7392   0.108E-04 0.143E-05
  11 F= -.36241281E+03 E0= -.36241281E+03  d E =0.749753E-02  mag=    16.0000
       N       E                     dE             d eps       ncg     rms          ort
SDA:   1    -0.362317184605E+03    0.95613E-01    0.00000E+00  7392   0.255E+00 0.000E+00
CGA:   2    -0.362389729326E+03   -0.72545E-01   -0.72540E-01  7392   0.133E+00 0.405E-04
CGA:   3    -0.362411895091E+03   -0.22166E-01   -0.22151E-01  7392   0.379E-01-0.241E-03
CGA:   4    -0.362418275686E+03   -0.63806E-02   -0.63784E-02  7392   0.911E-02-0.394E-04
CGA:   5    -0.362419959546E+03   -0.16839E-02   -0.16873E-02  7392   0.286E-02 0.693E-04
CGA:   6    -0.362420517052E+03   -0.55751E-03   -0.56056E-03  7392   0.917E-03 0.810E-04
CGA:   7    -0.362420734322E+03   -0.21727E-03   -0.21726E-03  7392   0.371E-03 0.451E-04
CGA:   8    -0.362420834530E+03   -0.10021E-03   -0.10043E-03  7392   0.149E-03-0.782E-05
CGA:   9    -0.362420878830E+03   -0.44300E-04   -0.46131E-04  7392   0.697E-04-0.214E-04
CGA:  10    -0.362420894349E+03   -0.15520E-04   -0.15645E-04  7392   0.224E-04-0.474E-05
CGA:  11    -0.362420901133E+03   -0.67841E-05   -0.79167E-05  7392   0.129E-04-0.797E-05
  12 F= -.36242090E+03 E0= -.36242090E+03  d E =-.809609E-02  mag=    16.0000
       N       E                     dE             d eps       ncg     rms          ort
SDA:   1    -0.362413815430E+03    0.70789E-02    0.00000E+00  7392   0.185E-01 0.000E+00
CGA:   2    -0.362419453429E+03   -0.56380E-02   -0.56432E-02  7392   0.826E-02-0.147E-03
CGA:   3    -0.362420747403E+03   -0.12940E-02   -0.12900E-02  7392   0.278E-02-0.360E-04
CGA:   4    -0.362421196112E+03   -0.44871E-03   -0.45142E-03  7392   0.658E-03 0.257E-04
CGA:   5    -0.362421290185E+03   -0.94073E-04   -0.99798E-04  7392   0.178E-03 0.517E-04
CGA:   6    -0.362421318066E+03   -0.27881E-04   -0.31929E-04  7392   0.512E-04 0.452E-04
CGA:   7    -0.362421329662E+03   -0.11597E-04   -0.12522E-04  7392   0.245E-04 0.166E-04
CGA:   8    -0.362421338467E+03   -0.88047E-05   -0.88432E-05  7392   0.156E-04-0.161E-05
  13 F= -.36242134E+03 E0= -.36242134E+03  d E =-.437334E-03  mag=    16.0000
       N       E                     dE             d eps       ncg     rms          ort
SDA:   1    -0.362406021483E+03    0.15308E-01    0.00000E+00  7392   0.399E-01 0.000E+00
CGA:   2    -0.362417288220E+03   -0.11267E-01   -0.11274E-01  7392   0.182E-01-0.226E-03
CGA:   3    -0.362420288530E+03   -0.30003E-02   -0.29951E-02  7392   0.572E-02-0.667E-04
CGA:   4    -0.362421225319E+03   -0.93679E-03   -0.94124E-03  7392   0.125E-02 0.542E-04
CGA:   5    -0.362421438771E+03   -0.21345E-03   -0.21757E-03  7392   0.346E-03 0.592E-04
CGA:   6    -0.362421504242E+03   -0.65471E-04   -0.67584E-04  7392   0.110E-03 0.413E-04
CGA:   7    -0.362421533044E+03   -0.28802E-04   -0.28817E-04  7392   0.466E-04 0.117E-04
CGA:   8    -0.362421548756E+03   -0.15712E-04   -0.16121E-04  7392   0.286E-04-0.526E-05
CGA:   9    -0.362421552758E+03   -0.40022E-05   -0.44898E-05  7392   0.105E-04 0.788E-05
  14 F= -.36242155E+03 E0= -.36242155E+03  d E =-.214291E-03  mag=    16.0000
       N       E                     dE             d eps       ncg     rms          ort
SDA:   1    -0.362353371442E+03    0.68177E-01    0.00000E+00  7392   0.167E+00 0.000E+00
CGA:   2    -0.362405697467E+03   -0.52326E-01   -0.52307E-01  7392   0.746E-01 0.176E-03
CGA:   3    -0.362417698142E+03   -0.12001E-01   -0.11994E-01  7392   0.200E-01-0.106E-03
CGA:   4    -0.362420815550E+03   -0.31174E-02   -0.31153E-02  7392   0.393E-02-0.320E-04
CGA:   5    -0.362421552527E+03   -0.73698E-03   -0.73460E-03  7392   0.122E-02-0.598E-04
CGA:   6    -0.362421782782E+03   -0.23026E-03   -0.22930E-03  7392   0.354E-03-0.283E-04
CGA:   7    -0.362421858843E+03   -0.76061E-04   -0.76068E-04  7392   0.129E-03 0.186E-05
CGA:   8    -0.362421892584E+03   -0.33741E-04   -0.33601E-04  7392   0.567E-04 0.391E-05
CGA:   9    -0.362421909368E+03   -0.16784E-04   -0.16507E-04  7392   0.232E-04 0.481E-05
CGA:  10    -0.362421916865E+03   -0.74976E-05   -0.74180E-05  7392   0.895E-05 0.119E-05
CGA:  11    -0.362421885887E+03    0.30979E-04   -0.16819E-04  7392   0.185E-03-0.365E-04
CGA:  12    -0.362421916581E+03   -0.30695E-04   -0.33893E-04  7392   0.202E-04 0.134E-04
CGA:  13    -0.362421921644E+03   -0.50629E-05   -0.56063E-05  7392   0.486E-05 0.358E-05
  15 F= -.36242192E+03 E0= -.36242192E+03  d E =-.368886E-03  mag=    16.0000
       N       E                     dE             d eps       ncg     rms          ort
SDA:   1    -0.362252439079E+03    0.16948E+00    0.00000E+00  7392   0.404E+00 0.000E+00
CGA:   2    -0.362385343439E+03   -0.13290E+00   -0.13294E+00  7392   0.175E+00 0.351E-03
CGA:   3    -0.362412575245E+03   -0.27232E-01   -0.27213E-01  7392   0.453E-01-0.128E-03
CGA:   4    -0.362419825635E+03   -0.72504E-02   -0.72262E-02  7392   0.933E-02-0.110E-03
CGA:   5    -0.362421578229E+03   -0.17526E-02   -0.17343E-02  7392   0.285E-02-0.999E-04
CGA:   6    -0.362422128901E+03   -0.55067E-03   -0.54443E-03  7392   0.819E-03-0.376E-04
CGA:   7    -0.362422304465E+03   -0.17556E-03   -0.17692E-03  7392   0.294E-03 0.988E-05
CGA:   8    -0.362422380071E+03   -0.75605E-04   -0.76561E-04  7392   0.124E-03 0.106E-04
CGA:   9    -0.362422420036E+03   -0.39966E-04   -0.39808E-04  7392   0.565E-04-0.487E-05
CGA:  10    -0.362422437666E+03   -0.17630E-04   -0.17482E-04  7392   0.233E-04-0.777E-05
CGA:  11    -0.362422444564E+03   -0.68980E-05   -0.69242E-05  7392   0.106E-04-0.609E-05
  16 F= -.36242244E+03 E0= -.36242244E+03  d E =-.522920E-03  mag=    16.0000
       N       E                     dE             d eps       ncg     rms          ort
SDA:   1    -0.362352605976E+03    0.69832E-01    0.00000E+00  7392   0.167E+00 0.000E+00
CGA:   2    -0.362408542168E+03   -0.55936E-01   -0.55937E-01  7392   0.700E-01 0.943E-04
CGA:   3    -0.362419429765E+03   -0.10888E-01   -0.10885E-01  7392   0.185E-01-0.218E-04
CGA:   4    -0.362422421800E+03   -0.29920E-02   -0.29890E-02  7392   0.399E-02-0.186E-04
CGA:   5    -0.362423156088E+03   -0.73429E-03   -0.73197E-03  7392   0.123E-02-0.173E-04
CGA:   6    -0.362423387547E+03   -0.23146E-03   -0.23138E-03  7392   0.361E-03-0.824E-06
CGA:   7    -0.362423467817E+03   -0.80270E-04   -0.80815E-04  7392   0.130E-03 0.631E-05
CGA:   8    -0.362423500040E+03   -0.32223E-04   -0.32721E-04  7392   0.515E-04 0.871E-05
CGA:   9    -0.362423515184E+03   -0.15144E-04   -0.15258E-04  7392   0.202E-04 0.456E-05
CGA:  10    -0.362423522038E+03   -0.68537E-05   -0.68669E-05  7392   0.888E-05-0.114E-05
  17 F= -.36242352E+03 E0= -.36242352E+03  d E =-.107747E-02  mag=    16.0000
       N       E                     dE             d eps       ncg     rms          ort
SDA:   1    -0.362417539946E+03    0.59752E-02    0.00000E+00  7392   0.163E-01 0.000E+00
CGA:   2    -0.362421846871E+03   -0.43069E-02   -0.43078E-02  7392   0.839E-02 0.198E-04
CGA:   3    -0.362423214708E+03   -0.13678E-02   -0.13709E-02  7392   0.250E-02 0.201E-04
CGA:   4    -0.362423645924E+03   -0.43122E-03   -0.43153E-03  7392   0.621E-03 0.195E-05
CGA:   5    -0.362423757559E+03   -0.11163E-03   -0.11125E-03  7392   0.192E-03-0.379E-05
CGA:   6    -0.362423797966E+03   -0.40407E-04   -0.39521E-04  7392   0.700E-04-0.122E-04
CGA:   7    -0.362423814888E+03   -0.16922E-04   -0.16764E-04  7392   0.328E-04-0.772E-05
CGA:   8    -0.362423821553E+03   -0.66656E-05   -0.66884E-05  7392   0.106E-04 0.492E-06
  18 F= -.36242382E+03 E0= -.36242382E+03  d E =-.299515E-03  mag=    16.0000
       N       E                     dE             d eps       ncg     rms          ort
SDA:   1    -0.362408851266E+03    0.14964E-01    0.00000E+00  7392   0.353E-01 0.000E+00
CGA:   2    -0.362421622608E+03   -0.12771E-01   -0.12762E-01  7392   0.107E-01 0.105E-03
CGA:   3    -0.362423548864E+03   -0.19263E-02   -0.19206E-02  7392   0.293E-02-0.586E-04
CGA:   4    -0.362423980606E+03   -0.43174E-03   -0.42951E-03  7392   0.649E-03-0.183E-04
CGA:   5    -0.362424110679E+03   -0.13007E-03   -0.12810E-03  7392   0.205E-03-0.295E-04
CGA:   6    -0.362424148366E+03   -0.37687E-04   -0.36826E-04  7392   0.580E-04-0.116E-04
CGA:   7    -0.362424159526E+03   -0.11160E-04   -0.11352E-04  7392   0.183E-04 0.374E-05
CGA:   8    -0.362424163810E+03   -0.42840E-05   -0.43915E-05  7392   0.702E-05 0.351E-05
  19 F= -.36242416E+03 E0= -.36242416E+03  d E =-.342256E-03  mag=    16.0000
       N       E                     dE             d eps       ncg     rms          ort
SDA:   1    -0.360908432973E+03    0.15157E+01    0.00000E+00  7392   0.345E+01 0.000E+00
CGA:   2    -0.362199652972E+03   -0.12912E+01   -0.12912E+01  7392   0.963E+00 0.430E-03
CGA:   3    -0.362371364765E+03   -0.17171E+00   -0.17166E+00  7392   0.259E+00-0.742E-03
CGA:   4    -0.362409914362E+03   -0.38550E-01   -0.38532E-01  7392   0.581E-01-0.204E-03
CGA:   5    -0.362421556450E+03   -0.11642E-01   -0.11627E-01  7392   0.164E-01-0.301E-03
CGA:   6    -0.362424552169E+03   -0.29957E-02   -0.29929E-02  7392   0.476E-02-0.451E-04
CGA:   7    -0.362425635649E+03   -0.10835E-02   -0.10846E-02  7392   0.179E-02 0.618E-04
CGA:   8    -0.362426119639E+03   -0.48399E-03   -0.48350E-03  7392   0.822E-03 0.221E-04
CGA:   9    -0.362426360050E+03   -0.24041E-03   -0.24016E-03  7392   0.322E-03 0.597E-05
CGA:  10    -0.362426453745E+03   -0.93696E-04   -0.94194E-04  7392   0.101E-03-0.121E-04
CGA:  11    -0.362426484112E+03   -0.30367E-04   -0.32151E-04  7392   0.387E-04-0.226E-04
CGA:  12    -0.362426490292E+03   -0.61797E-05   -0.64753E-05  7392   0.127E-04 0.747E-05
  20 F= -.36242649E+03 E0= -.36242649E+03  d E =-.232648E-02  mag=    16.0000
       N       E                     dE             d eps       ncg     rms          ort
SDA:   1    -0.358503412596E+03    0.39231E+01    0.00000E+00  7392   0.895E+01 0.000E+00
CGA:   2    -0.361852810632E+03   -0.33494E+01   -0.33495E+01  7392   0.234E+01-0.598E-03
CGA:   3    -0.362301308408E+03   -0.44850E+00   -0.44846E+00  7392   0.574E+00-0.805E-03
CGA:   4    -0.362387167144E+03   -0.85859E-01   -0.85879E-01  7392   0.149E+00-0.762E-04
CGA:   5    -0.362416563158E+03   -0.29396E-01   -0.29381E-01  7392   0.383E-01-0.310E-03
CGA:   6    -0.362423751202E+03   -0.71880E-02   -0.71888E-02  7392   0.125E-01 0.778E-05
CGA:   7    -0.362426643737E+03   -0.28925E-02   -0.28936E-02  7392   0.470E-02 0.104E-03
CGA:   8    -0.362427945167E+03   -0.13014E-02   -0.12998E-02  7392   0.226E-02 0.485E-04
CGA:   9    -0.362428579946E+03   -0.63478E-03   -0.63276E-03  7392   0.822E-03 0.578E-04
CGA:  10    -0.362428823453E+03   -0.24351E-03   -0.24485E-03  7392   0.264E-03-0.295E-04
CGA:  11    -0.362428901238E+03   -0.77785E-04   -0.81200E-04  7392   0.970E-04-0.475E-04
CGA:  12    -0.362428919634E+03   -0.18396E-04   -0.18673E-04  7392   0.318E-04 0.175E-04
CGA:  13    -0.362428928129E+03   -0.84949E-05   -0.87114E-05  7392   0.161E-04 0.123E-04
  21 F= -.36242893E+03 E0= -.36242893E+03  d E =-.243784E-02  mag=    16.0000
       N       E                     dE             d eps       ncg     rms          ort
SDA:   1    -0.359082357025E+03    0.33466E+01    0.00000E+00  7392   0.764E+01 0.000E+00
CGA:   2    -0.361917022233E+03   -0.28347E+01   -0.28351E+01  7392   0.220E+01-0.346E-02
CGA:   3    -0.362300128452E+03   -0.38311E+00   -0.38330E+00  7392   0.600E+00 0.147E-02
CGA:   4    -0.362390168274E+03   -0.90040E-01   -0.90073E-01  7392   0.133E+00 0.346E-03
CGA:   5    -0.362416316837E+03   -0.26149E-01   -0.26169E-01  7392   0.383E-01 0.360E-03
CGA:   6    -0.362423286146E+03   -0.69693E-02   -0.69853E-02  7392   0.110E-01 0.242E-03
CGA:   7    -0.362425870774E+03   -0.25846E-02   -0.25845E-02  7392   0.429E-02-0.170E-04
CGA:   8    -0.362427033511E+03   -0.11627E-02   -0.11643E-02  7392   0.200E-02-0.544E-04
CGA:   9    -0.362427586983E+03   -0.55347E-03   -0.55210E-03  7392   0.734E-03 0.384E-04
CGA:  10    -0.362427793819E+03   -0.20684E-03   -0.20671E-03  7392   0.212E-03 0.418E-05
CGA:  11    -0.362427850982E+03   -0.57164E-04   -0.57142E-04  7392   0.525E-04 0.104E-05
CGA:  12    -0.362427867515E+03   -0.16532E-04   -0.16805E-04  7392   0.188E-04-0.390E-05
CGA:  13    -0.362427876711E+03   -0.91960E-05    0.46509E-04  7392   0.686E-05 0.480E-05
  22 F= -.36242788E+03 E0= -.36242788E+03  d E =0.105142E-02  mag=    16.0000
       N       E                     dE             d eps       ncg     rms          ort
SDA:   1    -0.362048483860E+03    0.37938E+00    0.00000E+00  7392   0.883E+00 0.000E+00
CGA:   2    -0.362333048425E+03   -0.28456E+00   -0.28454E+00  7392   0.384E+00 0.208E-03
CGA:   3    -0.362394808236E+03   -0.61760E-01   -0.61788E-01  7392   0.106E+00 0.226E-03
CGA:   4    -0.362411907713E+03   -0.17099E-01   -0.17106E-01  7392   0.231E-01 0.626E-04
CGA:   5    -0.362416282915E+03   -0.43752E-02   -0.43771E-02  7392   0.724E-02 0.286E-04
CGA:   6    -0.362417694814E+03   -0.14119E-02   -0.14125E-02  7392   0.229E-02 0.980E-05
CGA:   7    -0.362418247507E+03   -0.55269E-03   -0.55269E-03  7392   0.953E-03-0.258E-04
CGA:   8    -0.362418491704E+03   -0.24420E-03   -0.24456E-03  7392   0.404E-03-0.202E-04
CGA:   9    -0.362418605089E+03   -0.11339E-03   -0.11376E-03  7392   0.154E-03-0.817E-05
CGA:  10    -0.362418645862E+03   -0.40773E-04   -0.40792E-04  7392   0.484E-04-0.734E-06
CGA:  11    -0.362418659506E+03   -0.13644E-04   -0.13610E-04  7392   0.154E-04 0.895E-06
CGA:  12    -0.362418665272E+03   -0.57659E-05   -0.85125E-05  7392   0.216E-04-0.930E-05
  23 F= -.36241867E+03 E0= -.36241867E+03  d E =0.921144E-02  mag=    16.0000
       N       E                     dE             d eps       ncg     rms          ort
SDA:   1    -0.361795299172E+03    0.62336E+00    0.00000E+00  7392   0.147E+01 0.000E+00
CGA:   2    -0.362313591622E+03   -0.51829E+00   -0.51825E+00  7392   0.510E+00 0.318E-03
CGA:   3    -0.362398750011E+03   -0.85158E-01   -0.85115E-01  7392   0.139E+00-0.450E-03
CGA:   4    -0.362420237146E+03   -0.21487E-01   -0.21477E-01  7392   0.303E-01-0.110E-03
CGA:   5    -0.362426117747E+03   -0.58806E-02   -0.58765E-02  7392   0.934E-02-0.720E-04
CGA:   6    -0.362427844635E+03   -0.17269E-02   -0.17257E-02  7392   0.278E-02-0.196E-04
CGA:   7    -0.362428483450E+03   -0.63881E-03   -0.63957E-03  7392   0.105E-02 0.406E-04
CGA:   8    -0.362428757752E+03   -0.27430E-03   -0.27402E-03  7392   0.445E-03 0.326E-04
CGA:   9    -0.362428891455E+03   -0.13370E-03   -0.13335E-03  7392   0.174E-03 0.832E-05
CGA:  10    -0.362428941788E+03   -0.50333E-04   -0.50504E-04  7392   0.572E-04-0.506E-05
CGA:  11    -0.362428958648E+03   -0.16860E-04   -0.17444E-04  7392   0.198E-04-0.944E-05
CGA:  12    -0.362428962406E+03   -0.37577E-05   -0.38302E-05  7392   0.581E-05 0.304E-05
  24 F= -.36242896E+03 E0= -.36242896E+03  d E =-.102971E-01  mag=    16.0000
       N       E                     dE             d eps       ncg     rms          ort
SDA:   1    -0.362421541240E+03    0.74174E-02    0.00000E+00  7392   0.169E-01 0.000E+00
CGA:   2    -0.362427499718E+03   -0.59585E-02   -0.59682E-02  7392   0.640E-02-0.955E-04
CGA:   3    -0.362428466622E+03   -0.96690E-03   -0.97015E-03  7392   0.162E-02 0.302E-04
CGA:   4    -0.362428720285E+03   -0.25366E-03   -0.25594E-03  7392   0.332E-03 0.242E-04
CGA:   5    -0.362428778930E+03   -0.58645E-04   -0.60061E-04  7392   0.902E-04 0.208E-04
CGA:   6    -0.362428795964E+03   -0.17034E-04   -0.17544E-04  7392   0.235E-04 0.851E-05
CGA:   7    -0.362428802166E+03   -0.62024E-05   -0.62030E-05  7392   0.103E-04-0.509E-06
  25 F= -.36242880E+03 E0= -.36242880E+03  d E =0.160239E-03  mag=    16.0000
       N       E                     dE             d eps       ncg     rms          ort
SDA:   1    -0.362232456070E+03    0.19634E+00    0.00000E+00  7392   0.477E+00 0.000E+00
CGA:   2    -0.362379778307E+03   -0.14732E+00   -0.14730E+00  7392   0.255E+00 0.257E-03
CGA:   3    -0.362417184038E+03   -0.37406E-01   -0.37381E-01  7392   0.557E-01-0.294E-03
CGA:   4    -0.362426375502E+03   -0.91915E-02   -0.91824E-02  7392   0.126E-01-0.126E-03
CGA:   5    -0.362428602050E+03   -0.22265E-02   -0.22266E-02  7392   0.348E-02-0.209E-05
CGA:   6    -0.362429269584E+03   -0.66753E-03   -0.66709E-03  7392   0.969E-03-0.116E-04
CGA:   7    -0.362429476854E+03   -0.20727E-03   -0.20719E-03  7392   0.323E-03-0.512E-05
CGA:   8    -0.362429555227E+03   -0.78373E-04   -0.78127E-04  7392   0.125E-03 0.197E-04
CGA:   9    -0.362429593078E+03   -0.37851E-04   -0.37448E-04  7392   0.509E-04 0.800E-05
CGA:  10    -0.362429611183E+03   -0.18105E-04   -0.19008E-04  7392   0.261E-04-0.772E-05
CGA:  11    -0.362429615577E+03   -0.43942E-05   -0.45479E-05  7392   0.777E-05 0.451E-05
  26 F= -.36242962E+03 E0= -.36242962E+03  d E =-.813411E-03  mag=    16.0000
       N       E                     dE             d eps       ncg     rms          ort
SDA:   1    -0.362264569102E+03    0.16504E+00    0.00000E+00  7392   0.380E+00 0.000E+00
CGA:   2    -0.362405349069E+03   -0.14078E+00   -0.14074E+00  7392   0.108E+00 0.308E-03
CGA:   3    -0.362424757500E+03   -0.19408E-01   -0.19392E-01  7392   0.290E-01-0.260E-03
CGA:   4    -0.362429075489E+03   -0.43180E-02   -0.43123E-02  7392   0.660E-02-0.663E-04
CGA:   5    -0.362430384726E+03   -0.13092E-02   -0.13056E-02  7392   0.191E-02-0.102E-03
CGA:   6    -0.362430731596E+03   -0.34687E-03   -0.34518E-03  7392   0.554E-03-0.350E-04
CGA:   7    -0.362430850307E+03   -0.11871E-03   -0.11897E-03  7392   0.190E-03 0.234E-04
CGA:   8    -0.362430899755E+03   -0.49448E-04   -0.49099E-04  7392   0.804E-04 0.186E-04
CGA:   9    -0.362430927126E+03   -0.27371E-04   -0.27325E-04  7392   0.376E-04 0.576E-06
CGA:  10    -0.362430937861E+03   -0.10735E-04   -0.10727E-04  7392   0.129E-04 0.151E-06
CGA:  11    -0.362430941600E+03   -0.37391E-05   -0.37800E-05  7392   0.430E-05-0.755E-06
  27 F= -.36243094E+03 E0= -.36243094E+03  d E =-.132602E-02  mag=    16.0000
       N       E                     dE             d eps       ncg     rms          ort
SDA:   1    -0.362412744737E+03    0.18193E-01    0.00000E+00  7392   0.522E-01 0.000E+00
CGA:   2    -0.362423998190E+03   -0.11253E-01   -0.11259E-01  7392   0.282E-01 0.243E-03
CGA:   3    -0.362429006728E+03   -0.50085E-02   -0.50134E-02  7392   0.837E-02 0.684E-04
CGA:   4    -0.362430420759E+03   -0.14140E-02   -0.14114E-02  7392   0.205E-02-0.446E-04
CGA:   5    -0.362430784940E+03   -0.36418E-03   -0.36255E-03  7392   0.581E-03-0.331E-04
CGA:   6    -0.362430898434E+03   -0.11349E-03   -0.11294E-03  7392   0.182E-03-0.198E-04
CGA:   7    -0.362430936308E+03   -0.37874E-04   -0.37877E-04  7392   0.651E-04 0.172E-06
CGA:   8    -0.362430951629E+03   -0.15321E-04   -0.15270E-04  7392   0.232E-04 0.498E-05
CGA:   9    -0.362430958963E+03   -0.73338E-05   -0.73429E-05  7392   0.110E-04-0.143E-06
  28 F= -.36243096E+03 E0= -.36243096E+03  d E =-.173630E-04  mag=    16.0000
       N       E                     dE             d eps       ncg     rms          ort
SDA:   1    -0.362329864804E+03    0.10109E+00    0.00000E+00  7392   0.234E+00 0.000E+00
CGA:   2    -0.362415284296E+03   -0.85419E-01   -0.85414E-01  7392   0.744E-01 0.287E-04
CGA:   3    -0.362427665955E+03   -0.12382E-01   -0.12369E-01  7392   0.201E-01-0.180E-03
CGA:   4    -0.362430760264E+03   -0.30943E-02   -0.30930E-02  7392   0.419E-02-0.177E-04
CGA:   5    -0.362431592418E+03   -0.83215E-03   -0.83110E-03  7392   0.122E-02-0.340E-04
CGA:   6    -0.362431820116E+03   -0.22770E-03   -0.22695E-03  7392   0.342E-03-0.186E-04
CGA:   7    -0.362431894504E+03   -0.74388E-04   -0.74425E-04  7392   0.122E-03 0.709E-05
CGA:   8    -0.362431925019E+03   -0.30515E-04   -0.30299E-04  7392   0.490E-04 0.127E-04
CGA:   9    -0.362431940454E+03   -0.15435E-04   -0.15147E-04  7392   0.201E-04 0.541E-05
CGA:  10    -0.362431947353E+03   -0.68994E-05   -0.68879E-05  7392   0.794E-05 0.143E-06
  29 F= -.36243195E+03 E0= -.36243195E+03  d E =-.988390E-03  mag=    16.0000
       N       E                     dE             d eps       ncg     rms          ort
SDA:   1    -0.361895942666E+03    0.53600E+00    0.00000E+00  7392   0.124E+01 0.000E+00
CGA:   2    -0.362342387835E+03   -0.44645E+00   -0.44645E+00  7392   0.417E+00-0.927E-04
CGA:   3    -0.362409689304E+03   -0.67301E-01   -0.67266E-01  7392   0.112E+00-0.462E-03
CGA:   4    -0.362427133915E+03   -0.17445E-01   -0.17442E-01  7392   0.231E-01-0.372E-04
CGA:   5    -0.362431626236E+03   -0.44923E-02   -0.44913E-02  7392   0.679E-02-0.299E-04
CGA:   6    -0.362432889854E+03   -0.12636E-02   -0.12625E-02  7392   0.186E-02-0.252E-04
CGA:   7    -0.362433307756E+03   -0.41790E-03   -0.41797E-03  7392   0.683E-03 0.190E-04
CGA:   8    -0.362433485954E+03   -0.17820E-03   -0.17726E-03  7392   0.291E-03 0.343E-04
CGA:   9    -0.362433574549E+03   -0.88595E-04   -0.87767E-04  7392   0.117E-03 0.146E-04
CGA:  10    -0.362433611669E+03   -0.37121E-04   -0.37246E-04  7392   0.412E-04-0.185E-05
CGA:  11    -0.362433623002E+03   -0.11333E-04   -0.11326E-04  7392   0.122E-04 0.144E-06
CGA:  12    -0.362433626230E+03   -0.32283E-05   -0.31772E-05  7392   0.447E-05 0.265E-05
  30 F= -.36243363E+03 E0= -.36243363E+03  d E =-.167888E-02  mag=    16.0000
       N       E                     dE             d eps       ncg     rms          ort
SDA:   1    -0.361795616598E+03    0.63801E+00    0.00000E+00  7392   0.147E+01 0.000E+00
CGA:   2    -0.362335519111E+03   -0.53990E+00   -0.53983E+00  7392   0.426E+00 0.508E-03
CGA:   3    -0.362411112796E+03   -0.75594E-01   -0.75553E-01  7392   0.116E+00-0.613E-03
CGA:   4    -0.362428428914E+03   -0.17316E-01   -0.17306E-01  7392   0.250E-01-0.125E-03
CGA:   5    -0.362433506173E+03   -0.50773E-02   -0.50717E-02  7392   0.709E-02-0.170E-03
CGA:   6    -0.362434801775E+03   -0.12956E-02   -0.12924E-02  7392   0.209E-02-0.650E-04
CGA:   7    -0.362435273697E+03   -0.47192E-03   -0.47207E-03  7392   0.754E-03 0.402E-04
CGA:   8    -0.362435478145E+03   -0.20445E-03   -0.20325E-03  7392   0.343E-03 0.363E-04
CGA:   9    -0.362435589957E+03   -0.11181E-03   -0.11317E-03  7392   0.159E-03-0.166E-04
CGA:  10    -0.362435634387E+03   -0.44430E-04   -0.44915E-04  7392   0.541E-04-0.824E-05
CGA:  11    -0.362435647205E+03   -0.12818E-04   -0.12778E-04  7392   0.155E-04 0.459E-05
CGA:  12    -0.362435651813E+03   -0.46077E-05   -0.44986E-05  7392   0.709E-05 0.399E-05
  31 F= -.36243565E+03 E0= -.36243565E+03  d E =-.202558E-02  mag=    16.0000
       N       E                     dE             d eps       ncg     rms          ort
SDA:   1    -0.361781223956E+03    0.65442E+00    0.00000E+00  7392   0.151E+01 0.000E+00
CGA:   2    -0.362323525781E+03   -0.54230E+00   -0.54209E+00  7392   0.505E+00 0.157E-02
CGA:   3    -0.362406905572E+03   -0.83380E-01   -0.83340E-01  7392   0.136E+00-0.480E-03
CGA:   4    -0.362428131230E+03   -0.21226E-01   -0.21191E-01  7392   0.294E-01-0.421E-03
CGA:   5    -0.362433807256E+03   -0.56760E-02   -0.56607E-02  7392   0.898E-02-0.345E-03
CGA:   6    -0.362435478749E+03   -0.16715E-02   -0.16641E-02  7392   0.254E-02-0.154E-03
CGA:   7    -0.362436038848E+03   -0.56010E-03   -0.56038E-03  7392   0.949E-03 0.317E-04
CGA:   8    -0.362436285692E+03   -0.24684E-03   -0.24576E-03  7392   0.402E-03 0.473E-04
CGA:   9    -0.362436422023E+03   -0.13633E-03   -0.13981E-03  7392   0.209E-03-0.360E-04
CGA:  10    -0.362436479140E+03   -0.57117E-04   -0.59054E-04  7392   0.826E-04-0.270E-04
CGA:  11    -0.362436496972E+03   -0.17833E-04   -0.17804E-04  7392   0.254E-04 0.562E-05
CGA:  12    -0.362436504308E+03   -0.73359E-05   -0.71938E-05  7392   0.130E-04 0.642E-05
  32 F= -.36243650E+03 E0= -.36243650E+03  d E =-.852495E-03  mag=    16.0000
       N       E                     dE             d eps       ncg     rms          ort
SDA:   1    -0.362396850077E+03    0.39647E-01    0.00000E+00  7392   0.103E+00 0.000E+00
CGA:   2    -0.362425243214E+03   -0.28393E-01   -0.28410E-01  7392   0.560E-01-0.593E-03
CGA:   3    -0.362434127787E+03   -0.88846E-02   -0.88772E-02  7392   0.148E-01-0.103E-03
CGA:   4    -0.362436601368E+03   -0.24736E-02   -0.24873E-02  7392   0.348E-02 0.183E-03
CGA:   5    -0.362437181730E+03   -0.58036E-03   -0.59367E-03  7392   0.914E-03 0.190E-03
CGA:   6    -0.362437354554E+03   -0.17282E-03   -0.17879E-03  7392   0.280E-03 0.121E-03
CGA:   7    -0.362437426790E+03   -0.72236E-04   -0.72341E-04  7392   0.117E-03 0.268E-04
CGA:   8    -0.362437463915E+03   -0.37125E-04   -0.37624E-04  7392   0.626E-04-0.803E-05
CGA:   9    -0.362437472968E+03   -0.90532E-05   -0.10242E-04  7392   0.229E-04 0.200E-04
  33 F= -.36243747E+03 E0= -.36243747E+03  d E =-.968660E-03  mag=    16.0000
       N       E                     dE             d eps       ncg     rms          ort
SDA:   1    -0.362273067349E+03    0.16440E+00    0.00000E+00  7392   0.378E+00 0.000E+00
CGA:   2    -0.362412738636E+03   -0.13967E+00   -0.13965E+00  7392   0.110E+00 0.137E-03
CGA:   3    -0.362432128796E+03   -0.19390E-01   -0.19376E-01  7392   0.298E-01-0.260E-03
CGA:   4    -0.362436576015E+03   -0.44472E-02   -0.44441E-02  7392   0.639E-02-0.419E-04
CGA:   5    -0.362437867025E+03   -0.12910E-02   -0.12895E-02  7392   0.182E-02-0.617E-04
CGA:   6    -0.362438197705E+03   -0.33068E-03   -0.32958E-03  7392   0.527E-03-0.260E-04
CGA:   7    -0.362438313416E+03   -0.11571E-03   -0.11572E-03  7392   0.186E-03 0.135E-04
CGA:   8    -0.362438360730E+03   -0.47314E-04   -0.46870E-04  7392   0.771E-04 0.206E-04
CGA:   9    -0.362438386145E+03   -0.25415E-04   -0.24994E-04  7392   0.335E-04 0.624E-05
CGA:  10    -0.362438397224E+03   -0.11079E-04   -0.11058E-04  7392   0.133E-04 0.263E-06
CGA:  11    -0.362438400180E+03   -0.29553E-05   -0.29845E-05  7392   0.416E-05 0.313E-05
  34 F= -.36243840E+03 E0= -.36243840E+03  d E =-.927212E-03  mag=    16.0000
       N       E                     dE             d eps       ncg     rms          ort
SDA:   1    -0.360905306518E+03    0.15331E+01    0.00000E+00  7392   0.352E+01 0.000E+00
CGA:   2    -0.362204388033E+03   -0.12991E+01   -0.12988E+01  7392   0.981E+00 0.157E-02
CGA:   3    -0.362385799383E+03   -0.18141E+00   -0.18138E+00  7392   0.254E+00-0.590E-03
CGA:   4    -0.362423610377E+03   -0.37811E-01   -0.37783E-01  7392   0.591E-01-0.363E-03
CGA:   5    -0.362435504939E+03   -0.11895E-01   -0.11884E-01  7392   0.162E-01-0.390E-03
CGA:   6    -0.362438489618E+03   -0.29847E-02   -0.29793E-02  7392   0.494E-02-0.132E-03
CGA:   7    -0.362439620664E+03   -0.11310E-02   -0.11308E-02  7392   0.186E-02 0.516E-04
CGA:   8    -0.362440121148E+03   -0.50048E-03   -0.49761E-03  7392   0.848E-03 0.718E-04
CGA:   9    -0.362440390709E+03   -0.26956E-03   -0.27228E-03  7392   0.377E-03-0.335E-04
CGA:  10    -0.362440499749E+03   -0.10904E-03   -0.11172E-03  7392   0.134E-03-0.351E-04
CGA:  11    -0.362440529968E+03   -0.30219E-04   -0.30108E-04  7392   0.377E-04 0.936E-05
CGA:  12    -0.362440543082E+03   -0.13114E-04   -0.12906E-04  7392   0.197E-04 0.242E-05
CGA:  13    -0.362440550569E+03   -0.74874E-05   -0.69612E-05  7392   0.129E-04 0.568E-05
  35 F= -.36244055E+03 E0= -.36244055E+03  d E =-.215039E-02  mag=    16.0000
       N       E                     dE             d eps       ncg     rms          ort
SDA:   1    -0.356572469769E+03    0.58681E+01    0.00000E+00  7392   0.135E+02 0.000E+00
CGA:   2    -0.361561902902E+03   -0.49894E+01   -0.49902E+01  7392   0.350E+01-0.356E-02
CGA:   3    -0.362257229319E+03   -0.69533E+00   -0.69542E+00  7392   0.800E+00 0.227E-03
CGA:   4    -0.362380085692E+03   -0.12286E+00   -0.12281E+00  7392   0.221E+00-0.578E-03
CGA:   5    -0.362423295741E+03   -0.43210E-01   -0.43192E-01  7392   0.553E-01-0.392E-03
CGA:   6    -0.362433986411E+03   -0.10691E-01   -0.10690E-01  7392   0.188E-01-0.304E-04
CGA:   7    -0.362438423024E+03   -0.44366E-02   -0.44367E-02  7392   0.733E-02 0.340E-04
CGA:   8    -0.362440459541E+03   -0.20365E-02   -0.20317E-02  7392   0.348E-02 0.126E-03
CGA:   9    -0.362441448760E+03   -0.98922E-03   -0.98745E-03  7392   0.127E-02 0.450E-04
CGA:  10    -0.362441834545E+03   -0.38579E-03   -0.39116E-03  7392   0.425E-03-0.882E-04
CGA:  11    -0.362441945579E+03   -0.11103E-03   -0.11174E-03  7392   0.132E-03-0.190E-04
CGA:  12    -0.362441989368E+03   -0.43789E-04   -0.44674E-04  7392   0.659E-04-0.826E-05
CGA:  13    -0.362442017356E+03   -0.27988E-04   -0.28831E-04  7392   0.518E-04-0.405E-05
CGA:  14    -0.362442037422E+03   -0.20066E-04   -0.18775E-04  7392   0.276E-04 0.104E-04
CGA:  15    -0.362442054008E+03   -0.16586E-04   -0.17975E-04  7392   0.275E-04-0.523E-05
CGA:  16    -0.362442062631E+03   -0.86227E-05   -0.82708E-05  7392   0.192E-04 0.382E-05
  36 F= -.36244206E+03 E0= -.36244206E+03  d E =-.151206E-02  mag=    16.0000
       N       E                     dE             d eps       ncg     rms          ort
SDA:   1    -0.361407588672E+03    0.10345E+01    0.00000E+00  7392   0.246E+01 0.000E+00
CGA:   2    -0.362213511574E+03   -0.80592E+00   -0.80599E+00  7392   0.112E+01-0.196E-02
CGA:   3    -0.362380738185E+03   -0.16723E+00   -0.16729E+00  7392   0.269E+00 0.184E-03
CGA:   4    -0.362425100406E+03   -0.44362E-01   -0.44435E-01  7392   0.589E-01 0.567E-03
CGA:   5    -0.362435607437E+03   -0.10507E-01   -0.10561E-01  7392   0.171E-01 0.531E-03
CGA:   6    -0.362438848474E+03   -0.32410E-02   -0.32677E-02  7392   0.483E-02 0.319E-03
CGA:   7    -0.362439945210E+03   -0.10967E-02   -0.10988E-02  7392   0.178E-02 0.454E-04
CGA:   8    -0.362440442831E+03   -0.49762E-03   -0.49813E-03  7392   0.842E-03-0.443E-04
CGA:   9    -0.362440663156E+03   -0.22033E-03   -0.22024E-03  7392   0.310E-03 0.563E-04
CGA:  10    -0.362440742628E+03   -0.79472E-04   -0.80761E-04  7392   0.959E-04 0.579E-04
CGA:  11    -0.362440776063E+03   -0.33434E-04   -0.33294E-04  7392   0.383E-04 0.519E-05
CGA:  12    -0.362440787888E+03   -0.11826E-04   -0.11690E-04  7392   0.170E-04 0.593E-05
CGA:  13    -0.362440793511E+03   -0.56230E-05   -0.55345E-05  7392   0.927E-05 0.643E-05
  37 F= -.36244079E+03 E0= -.36244079E+03  d E =0.126912E-02  mag=    16.0000
       N       E                     dE             d eps       ncg     rms          ort
SDA:   1    -0.361759096929E+03    0.68169E+00    0.00000E+00  7392   0.158E+01 0.000E+00
CGA:   2    -0.362331232769E+03   -0.57214E+00   -0.57203E+00  7392   0.447E+00 0.802E-03
CGA:   3    -0.362417498443E+03   -0.86266E-01   -0.86250E-01  7392   0.113E+00-0.232E-03
CGA:   4    -0.362434275667E+03   -0.16777E-01   -0.16765E-01  7392   0.275E-01-0.107E-03
CGA:   5    -0.362439773890E+03   -0.54982E-02   -0.54940E-02  7392   0.745E-02-0.684E-04
CGA:   6    -0.362441151846E+03   -0.13780E-02   -0.13833E-02  7392   0.239E-02 0.687E-04
CGA:   7    -0.362441709892E+03   -0.55805E-03   -0.55924E-03  7392   0.905E-03 0.449E-04
CGA:   8    -0.362441978989E+03   -0.26910E-03   -0.27094E-03  7392   0.489E-03-0.505E-04
CGA:   9    -0.362442111112E+03   -0.13212E-03   -0.13288E-03  7392   0.188E-03-0.263E-04
CGA:  10    -0.362442159006E+03   -0.47894E-04   -0.47909E-04  7392   0.540E-04-0.198E-05
CGA:  11    -0.362442171893E+03   -0.12887E-04   -0.12981E-04  7392   0.145E-04 0.522E-05
CGA:  12    -0.362442174449E+03   -0.25566E-05   -0.30173E-05  7392   0.569E-05 0.659E-05
  38 F= -.36244217E+03 E0= -.36244217E+03  d E =-.138094E-02  mag=    16.0000
       N       E                     dE             d eps       ncg     rms          ort
SDA:   1    -0.361315333013E+03    0.11268E+01    0.00000E+00  7392   0.259E+01 0.000E+00
CGA:   2    -0.362271346159E+03   -0.95601E+00   -0.95587E+00  7392   0.713E+00 0.112E-02
CGA:   3    -0.362403859317E+03   -0.13251E+00   -0.13247E+00  7392   0.184E+00-0.566E-03
CGA:   4    -0.362431346025E+03   -0.27487E-01   -0.27454E-01  7392   0.432E-01-0.334E-03
CGA:   5    -0.362439997151E+03   -0.86511E-02   -0.86351E-02  7392   0.118E-01-0.324E-03
CGA:   6    -0.362442166592E+03   -0.21694E-02   -0.21622E-02  7392   0.356E-02-0.116E-03
CGA:   7    -0.362442977002E+03   -0.81041E-03   -0.81089E-03  7392   0.132E-02 0.314E-04
CGA:   8    -0.362443327810E+03   -0.35081E-03   -0.34982E-03  7392   0.590E-03 0.524E-04
CGA:   9    -0.362443517400E+03   -0.18959E-03   -0.19172E-03  7392   0.265E-03-0.319E-04
CGA:  10    -0.362443593340E+03   -0.75940E-04   -0.78022E-04  7392   0.947E-04-0.332E-04
CGA:  11    -0.362443613719E+03   -0.20379E-04   -0.20394E-04  7392   0.244E-04 0.274E-05
CGA:  12    -0.362443622379E+03   -0.86602E-05   -0.90571E-05  7392   0.138E-04-0.366E-05
  39 F= -.36244362E+03 E0= -.36244362E+03  d E =-.144793E-02  mag=    16.0000
       N       E                     dE             d eps       ncg     rms          ort
SDA:   1    -0.361937242247E+03    0.50637E+00    0.00000E+00  7392   0.117E+01 0.000E+00
CGA:   2    -0.362364592599E+03   -0.42735E+00   -0.42732E+00  7392   0.322E+00 0.234E-03
CGA:   3    -0.362426690916E+03   -0.62098E-01   -0.62126E-01  7392   0.788E-01 0.329E-03
CGA:   4    -0.362438550407E+03   -0.11859E-01   -0.11833E-01  7392   0.198E-01-0.234E-03
CGA:   5    -0.362442468455E+03   -0.39180E-02   -0.39110E-02  7392   0.513E-02-0.120E-03
CGA:   6    -0.362443418941E+03   -0.95049E-03   -0.95022E-03  7392   0.161E-02-0.501E-05
CGA:   7    -0.362443793677E+03   -0.37474E-03   -0.37474E-03  7392   0.611E-03-0.377E-07
CGA:   8    -0.362443955328E+03   -0.16165E-03   -0.16135E-03  7392   0.279E-03 0.228E-04
CGA:   9    -0.362444035170E+03   -0.79842E-04   -0.79405E-04  7392   0.105E-03 0.191E-04
CGA:  10    -0.362444069978E+03   -0.34807E-04   -0.35163E-04  7392   0.415E-04-0.582E-05
CGA:  11    -0.362444081237E+03   -0.11260E-04   -0.11295E-04  7392   0.146E-04-0.112E-05
CGA:  12    -0.362444086375E+03   -0.51374E-05   -0.51860E-05  7392   0.857E-05-0.473E-06
  40 F= -.36244409E+03 E0= -.36244409E+03  d E =-.463996E-03  mag=    16.0000
       N       E                     dE             d eps       ncg     rms          ort
SDA:   1    -0.361662757791E+03    0.78132E+00    0.00000E+00  7392   0.179E+01 0.000E+00
CGA:   2    -0.362323207025E+03   -0.66045E+00   -0.66062E+00  7392   0.508E+00-0.168E-02
CGA:   3    -0.362415425066E+03   -0.92218E-01   -0.92268E-01  7392   0.133E+00 0.422E-03
CGA:   4    -0.362435242471E+03   -0.19817E-01   -0.19849E-01  7392   0.300E-01 0.255E-03
CGA:   5    -0.362441171184E+03   -0.59287E-02   -0.59457E-02  7392   0.821E-02 0.259E-03
CGA:   6    -0.362442662549E+03   -0.14914E-02   -0.15034E-02  7392   0.237E-02 0.154E-03
CGA:   7    -0.362443234710E+03   -0.57216E-03   -0.57215E-03  7392   0.929E-03-0.915E-06
CGA:   8    -0.362443500389E+03   -0.26568E-03   -0.26749E-03  7392   0.485E-03-0.534E-04
CGA:   9    -0.362443616224E+03   -0.11584E-03   -0.11592E-03  7392   0.162E-03 0.387E-04
CGA:  10    -0.362443658823E+03   -0.42598E-04   -0.42875E-04  7392   0.473E-04 0.250E-04
CGA:  11    -0.362443676993E+03   -0.18170E-04   -0.19716E-04  7392   0.278E-04-0.146E-04
CGA:  12    -0.362443680222E+03   -0.32297E-05   -0.35898E-05  7392   0.122E-04 0.488E-05
  41 F= -.36244368E+03 E0= -.36244368E+03  d E =0.406152E-03  mag=    16.0000
       N       E                     dE             d eps       ncg     rms          ort
SDA:   1    -0.362423584328E+03    0.20093E-01    0.00000E+00  7392   0.493E-01 0.000E+00
CGA:   2    -0.362437168007E+03   -0.13584E-01   -0.13582E-01  7392   0.266E-01 0.665E-04
CGA:   3    -0.362441446580E+03   -0.42786E-02   -0.42621E-02  7392   0.764E-02-0.182E-03
CGA:   4    -0.362442791113E+03   -0.13445E-02   -0.13384E-02  7392   0.185E-02-0.863E-04
CGA:   5    -0.362443113595E+03   -0.32248E-03   -0.32216E-03  7392   0.527E-03-0.518E-05
CGA:   6    -0.362443220090E+03   -0.10650E-03   -0.10652E-03  7392   0.183E-03 0.354E-06
CGA:   7    -0.362443261153E+03   -0.41062E-04   -0.41197E-04  7392   0.694E-04 0.857E-05
CGA:   8    -0.362443278708E+03   -0.17556E-04   -0.17544E-04  7392   0.264E-04 0.535E-05
CGA:   9    -0.362443288396E+03   -0.96872E-05   -0.12371E-04  7392   0.281E-04-0.137E-04
  42 F= -.36244329E+03 E0= -.36244329E+03  d E =0.391827E-03  mag=    16.0000
       N       E                     dE             d eps       ncg     rms          ort
SDA:   1    -0.362193831166E+03    0.24945E+00    0.00000E+00  7392   0.573E+00 0.000E+00
CGA:   2    -0.362407310615E+03   -0.21348E+00   -0.21343E+00  7392   0.145E+00 0.395E-03
CGA:   3    -0.362437038669E+03   -0.29728E-01   -0.29727E-01  7392   0.310E-01-0.347E-04
CGA:   4    -0.362441948900E+03   -0.49102E-02   -0.48946E-02  7392   0.918E-02-0.176E-03
CGA:   5    -0.362443685704E+03   -0.17368E-02   -0.17306E-02  7392   0.221E-02-0.115E-03
CGA:   6    -0.362444108687E+03   -0.42298E-03   -0.42134E-03  7392   0.770E-03-0.343E-04
CGA:   7    -0.362444274965E+03   -0.16628E-03   -0.16635E-03  7392   0.277E-03 0.361E-05
CGA:   8    -0.362444345873E+03   -0.70908E-04   -0.70562E-04  7392   0.119E-03 0.227E-04
CGA:   9    -0.362444384386E+03   -0.38513E-04   -0.38637E-04  7392   0.525E-04-0.205E-05
CGA:  10    -0.362444401423E+03   -0.17037E-04   -0.19106E-04  7392   0.292E-04-0.161E-04
CGA:  11    -0.362444405252E+03   -0.38287E-05   -0.39504E-05  7392   0.918E-05 0.228E-05
  43 F= -.36244441E+03 E0= -.36244441E+03  d E =-.111686E-02  mag=    16.0000
       N       E                     dE             d eps       ncg     rms          ort
SDA:   1    -0.362260793375E+03    0.18361E+00    0.00000E+00  7392   0.419E+00 0.000E+00
CGA:   2    -0.362414520445E+03   -0.15373E+00   -0.15376E+00  7392   0.132E+00-0.282E-03
CGA:   3    -0.362436338466E+03   -0.21818E-01   -0.21857E-01  7392   0.354E-01 0.452E-03
CGA:   4    -0.362441764189E+03   -0.54257E-02   -0.54307E-02  7392   0.742E-02 0.519E-04
CGA:   5    -0.362443234971E+03   -0.14708E-02   -0.14714E-02  7392   0.221E-02 0.139E-04
CGA:   6    -0.362443622032E+03   -0.38706E-03   -0.39074E-03  7392   0.577E-03 0.587E-04
CGA:   7    -0.362443758220E+03   -0.13619E-03   -0.13628E-03  7392   0.216E-03 0.167E-04
CGA:   8    -0.362443826571E+03   -0.68351E-04   -0.71426E-04  7392   0.140E-03-0.359E-04
CGA:   9    -0.362443856231E+03   -0.29660E-04   -0.29646E-04  7392   0.507E-04 0.912E-06
CGA:  10    -0.362443866139E+03   -0.99080E-05   -0.10340E-04  7392   0.154E-04 0.115E-04
  44 F= -.36244387E+03 E0= -.36244387E+03  d E =0.539113E-03  mag=    16.0000
       N       E                     dE             d eps       ncg     rms          ort
SDA:   1    -0.361519444137E+03    0.92441E+00    0.00000E+00  7392   0.220E+01 0.000E+00
CGA:   2    -0.362247510236E+03   -0.72807E+00   -0.72819E+00  7392   0.927E+00-0.133E-02
CGA:   3    -0.362390541636E+03   -0.14303E+00   -0.14305E+00  7392   0.242E+00 0.288E-03
CGA:   4    -0.362429551276E+03   -0.39010E-01   -0.39015E-01  7392   0.518E-01 0.485E-04
CGA:   5    -0.362438807634E+03   -0.92564E-02   -0.92616E-02  7392   0.150E-01 0.889E-04
CGA:   6    -0.362441664895E+03   -0.28573E-02   -0.28617E-02  7392   0.416E-02 0.110E-03
CGA:   7    -0.362442585858E+03   -0.92096E-03   -0.92124E-03  7392   0.153E-02 0.312E-04
CGA:   8    -0.362442986475E+03   -0.40062E-03   -0.39999E-03  7392   0.659E-03 0.199E-04
CGA:   9    -0.362443170766E+03   -0.18429E-03   -0.18256E-03  7392   0.253E-03 0.395E-04
CGA:  10    -0.362443245102E+03   -0.74336E-04   -0.73642E-04  7392   0.836E-04 0.161E-04
CGA:  11    -0.362443274350E+03   -0.29248E-04   -0.30957E-04  7392   0.399E-04-0.150E-04
CGA:  12    -0.362443285859E+03   -0.11508E-04   -0.13728E-04  7392   0.305E-04-0.124E-04
CGA:  13    -0.362443291653E+03   -0.57945E-05   -0.14882E-04  7392   0.580E-04-0.200E-04
CGA:  14    -0.362443309145E+03   -0.17492E-04   -0.17779E-04  7392   0.188E-04-0.827E-05
CGA:  15    -0.362443316235E+03   -0.70896E-05   -0.89727E-05  7392   0.188E-04-0.671E-05
CGA:  16    -0.362443287466E+03    0.28769E-04   -0.16414E-04  7392   0.176E-03-0.346E-04
CGA:  17    -0.362443334884E+03   -0.47418E-04   -0.46938E-04  7392   0.311E-04-0.192E-05
CGA:  18    -0.362443352426E+03   -0.17542E-04   -0.18619E-04  7392   0.311E-04-0.116E-04
CGA:  19    -0.362443355664E+03   -0.32378E-05   -0.39965E-05  7392   0.117E-04 0.241E-05
  45 F= -.36244336E+03 E0= -.36244336E+03  d E =0.510475E-03  mag=    16.0000
       N       E                     dE             d eps       ncg     rms          ort
SDA:   1    -0.361268821753E+03    0.11745E+01    0.00000E+00  7392   0.273E+01 0.000E+00
CGA:   2    -0.362237594271E+03   -0.96877E+00   -0.96895E+00  7392   0.896E+00 0.294E-03
CGA:   3    -0.362389922874E+03   -0.15233E+00   -0.15231E+00  7392   0.251E+00 0.249E-03
CGA:   4    -0.362428539296E+03   -0.38616E-01   -0.38586E-01  7392   0.528E-01-0.983E-04
CGA:   5    -0.362438851416E+03   -0.10312E-01   -0.10283E-01  7392   0.159E-01-0.126E-03
CGA:   6    -0.362441809164E+03   -0.29577E-02   -0.29455E-02  7392   0.460E-02-0.523E-04
CGA:   7    -0.362442867580E+03   -0.10584E-02   -0.10620E-02  7392   0.173E-02 0.179E-04
CGA:   8    -0.362443317052E+03   -0.44947E-03   -0.45428E-03  7392   0.764E-03 0.311E-04
CGA:   9    -0.362443546452E+03   -0.22940E-03   -0.22882E-03  7392   0.307E-03-0.534E-05
CGA:  10    -0.362443637224E+03   -0.90773E-04   -0.89333E-04  7392   0.104E-03-0.134E-04
CGA:  11    -0.362443665316E+03   -0.28092E-04   -0.27771E-04  7392   0.302E-04-0.277E-05
CGA:  12    -0.362443677005E+03   -0.11689E-04   -0.11759E-04  7392   0.192E-04-0.691E-05
CGA:  13    -0.362443683538E+03   -0.65328E-05   -0.67101E-05  7392   0.145E-04-0.285E-05
  46 F= -.36244368E+03 E0= -.36244368E+03  d E =-.327874E-03  mag=    16.0000
       N       E                     dE             d eps       ncg     rms          ort
SDA:   1    -0.361755811078E+03    0.68787E+00    0.00000E+00  7392   0.166E+01 0.000E+00
CGA:   2    -0.362284699659E+03   -0.52889E+00   -0.52912E+00  7392   0.722E+00 0.133E-02
CGA:   3    -0.362397956313E+03   -0.11326E+00   -0.11321E+00  7392   0.201E+00-0.804E-04
CGA:   4    -0.362431086016E+03   -0.33130E-01   -0.33074E-01  7392   0.433E-01-0.258E-03
CGA:   5    -0.362438852483E+03   -0.77665E-02   -0.77350E-02  7392   0.129E-01-0.169E-03
CGA:   6    -0.362441431348E+03   -0.25789E-02   -0.25584E-02  7392   0.404E-02-0.124E-03
CGA:   7    -0.362442338514E+03   -0.90717E-03   -0.90554E-03  7392   0.154E-02-0.128E-04
CGA:   8    -0.362442728738E+03   -0.39022E-03   -0.39252E-03  7392   0.645E-03 0.234E-04
CGA:   9    -0.362442927031E+03   -0.19829E-03   -0.19686E-03  7392   0.274E-03-0.304E-04
CGA:  10    -0.362443005162E+03   -0.78130E-04   -0.76842E-04  7392   0.972E-04-0.249E-04
CGA:  11    -0.362443023372E+03   -0.18210E-04   -0.19902E-04  7392   0.253E-04 0.143E-04
CGA:  12    -0.362443027706E+03   -0.43346E-05   -0.57564E-05  7392   0.103E-04 0.102E-04
  47 F= -.36244303E+03 E0= -.36244303E+03  d E =0.655832E-03  mag=    16.0000
       N       E                     dE             d eps       ncg     rms          ort
SDA:   1    -0.362371372293E+03    0.71651E-01    0.00000E+00  7392   0.185E+00 0.000E+00
CGA:   2    -0.362422823451E+03   -0.51451E-01   -0.51427E-01  7392   0.972E-01-0.534E-03
CGA:   3    -0.362438280787E+03   -0.15457E-01   -0.15467E-01  7392   0.279E-01 0.279E-04
CGA:   4    -0.362443136302E+03   -0.48555E-02   -0.48814E-02  7392   0.668E-02 0.181E-03
CGA:   5    -0.362444287463E+03   -0.11512E-02   -0.11764E-02  7392   0.189E-02 0.190E-03
CGA:   6    -0.362444649365E+03   -0.36190E-03   -0.37736E-03  7392   0.615E-03 0.145E-03
CGA:   7    -0.362444805196E+03   -0.15583E-03   -0.15796E-03  7392   0.259E-03 0.379E-04
CGA:   8    -0.362444886885E+03   -0.81689E-04   -0.81911E-04  7392   0.138E-03-0.348E-04
CGA:   9    -0.362444913048E+03   -0.26163E-04   -0.27012E-04  7392   0.436E-04 0.130E-04
CGA:  10    -0.362444919762E+03   -0.67142E-05   -0.84067E-05  7392   0.146E-04 0.150E-04
  48 F= -.36244492E+03 E0= -.36244492E+03  d E =-.189206E-02  mag=    16.0000
       N       E                     dE             d eps       ncg     rms          ort
SDA:   1    -0.362229988595E+03    0.21492E+00    0.00000E+00  7392   0.503E+00 0.000E+00
CGA:   2    -0.362408783660E+03   -0.17880E+00   -0.17880E+00  7392   0.164E+00-0.715E-04
CGA:   3    -0.362436394474E+03   -0.27611E-01   -0.27613E-01  7392   0.460E-01 0.557E-06
CGA:   4    -0.362443465158E+03   -0.70707E-02   -0.70660E-02  7392   0.961E-02-0.418E-04
CGA:   5    -0.362445326126E+03   -0.18610E-02   -0.18569E-02  7392   0.287E-02-0.526E-04
CGA:   6    -0.362445857118E+03   -0.53099E-03   -0.52929E-03  7392   0.805E-03-0.208E-04
CGA:   7    -0.362446039382E+03   -0.18226E-03   -0.18249E-03  7392   0.300E-03 0.610E-05
CGA:   8    -0.362446115772E+03   -0.76390E-04   -0.76531E-04  7392   0.126E-03 0.141E-04
CGA:   9    -0.362446154364E+03   -0.38592E-04   -0.38486E-04  7392   0.515E-04 0.370E-05
CGA:  10    -0.362446170218E+03   -0.15854E-04   -0.15939E-04  7392   0.187E-04-0.231E-05
CGA:  11    -0.362446175927E+03   -0.57092E-05   -0.59550E-05  7392   0.785E-05-0.365E-05
  49 F= -.36244618E+03 E0= -.36244618E+03  d E =-.125617E-02  mag=    16.0000
       N       E                     dE             d eps       ncg     rms          ort
SDA:   1    -0.362404470876E+03    0.41699E-01    0.00000E+00  7392   0.969E-01 0.000E+00
CGA:   2    -0.362437983345E+03   -0.33512E-01   -0.33525E-01  7392   0.395E-01-0.340E-03
CGA:   3    -0.362443830780E+03   -0.58474E-02   -0.58743E-02  7392   0.103E-01 0.158E-03
CGA:   4    -0.362445430370E+03   -0.15996E-02   -0.16180E-02  7392   0.212E-02 0.126E-03
CGA:   5    -0.362445803611E+03   -0.37324E-03   -0.38165E-03  7392   0.608E-03 0.717E-04
CGA:   6    -0.362445915652E+03   -0.11204E-03   -0.11662E-03  7392   0.167E-03 0.443E-04
CGA:   7    -0.362445955949E+03   -0.40298E-04   -0.40400E-04  7392   0.661E-04 0.173E-05
CGA:   8    -0.362445976910E+03   -0.20961E-04   -0.21384E-04  7392   0.404E-04-0.106E-04
CGA:   9    -0.362445982525E+03   -0.56148E-05   -0.64405E-05  7392   0.143E-04 0.896E-05
  50 F= -.36244598E+03 E0= -.36244598E+03  d E =0.193402E-03  mag=    16.0000
       N       E                     dE             d eps       ncg     rms          ort
SDA:   1    -0.362366623172E+03    0.79354E-01    0.00000E+00  7392   0.183E+00 0.000E+00
CGA:   2    -0.362433951824E+03   -0.67329E-01   -0.67307E-01  7392   0.494E-01 0.220E-03
CGA:   3    -0.362443451842E+03   -0.95000E-02   -0.95004E-02  7392   0.130E-01 0.273E-05
CGA:   4    -0.362445417265E+03   -0.19654E-02   -0.19522E-02  7392   0.318E-02-0.110E-03
CGA:   5    -0.362446041551E+03   -0.62429E-03   -0.61937E-03  7392   0.867E-03-0.714E-04
CGA:   6    -0.362446200156E+03   -0.15860E-03   -0.15788E-03  7392   0.262E-03-0.967E-05
CGA:   7    -0.362446259225E+03   -0.59069E-04   -0.59168E-04  7392   0.978E-04 0.331E-05
CGA:   8    -0.362446285850E+03   -0.26625E-04   -0.26634E-04  7392   0.476E-04-0.743E-06
CGA:   9    -0.362446301216E+03   -0.15366E-04   -0.16118E-04  7392   0.262E-04-0.902E-05
CGA:  10    -0.362446307919E+03   -0.67029E-05   -0.73827E-05  7392   0.132E-04-0.793E-05
  51 F= -.36244631E+03 E0= -.36244631E+03  d E =-.325394E-03  mag=    16.0000
       N       E                     dE             d eps       ncg     rms          ort
SDA:   1    -0.362315774841E+03    0.13053E+00    0.00000E+00  7392   0.307E+00 0.000E+00
CGA:   2    -0.362419477149E+03   -0.10370E+00   -0.10367E+00  7392   0.111E+00 0.561E-03
CGA:   3    -0.362437988094E+03   -0.18511E-01   -0.18489E-01  7392   0.340E-01-0.199E-03
CGA:   4    -0.362443432483E+03   -0.54444E-02   -0.54222E-02  7392   0.693E-02-0.190E-03
CGA:   5    -0.362444766450E+03   -0.13340E-02   -0.13193E-02  7392   0.224E-02-0.181E-03
CGA:   6    -0.362445189179E+03   -0.42273E-03   -0.41630E-03  7392   0.743E-03-0.828E-04
CGA:   7    -0.362445343583E+03   -0.15440E-03   -0.15487E-03  7392   0.265E-03 0.944E-05
CGA:   8    -0.362445411376E+03   -0.67792E-04   -0.67884E-04  7392   0.113E-03 0.919E-05
CGA:   9    -0.362445452576E+03   -0.41200E-04   -0.50147E-04  7392   0.111E-03-0.532E-04
CGA:  10    -0.362445468563E+03   -0.15987E-04   -0.16132E-04  7392   0.557E-04-0.306E-04
CGA:  11    -0.362445477965E+03   -0.94025E-05   -0.92261E-05  7392   0.270E-04-0.423E-05
  52 F= -.36244548E+03 E0= -.36244548E+03  d E =0.829954E-03  mag=    16.0000
       N       E                     dE             d eps       ncg     rms          ort
SDA:   1    -0.362423839553E+03    0.21629E-01    0.00000E+00  7392   0.537E-01 0.000E+00
CGA:   2    -0.362441764329E+03   -0.17925E-01   -0.17950E-01  7392   0.199E-01-0.394E-03
CGA:   3    -0.362445160275E+03   -0.33959E-02   -0.34051E-02  7392   0.682E-02 0.861E-04
CGA:   4    -0.362446190571E+03   -0.10303E-02   -0.10443E-02  7392   0.138E-02 0.119E-03
CGA:   5    -0.362446426929E+03   -0.23636E-03   -0.24510E-03  7392   0.445E-03 0.993E-04
CGA:   6    -0.362446512528E+03   -0.85599E-04   -0.89302E-04  7392   0.137E-03 0.523E-04
CGA:   7    -0.362446555858E+03   -0.43330E-04   -0.43512E-04  7392   0.758E-04-0.640E-05
CGA:   8    -0.362446574667E+03   -0.18809E-04   -0.18838E-04  7392   0.358E-04-0.640E-05
CGA:   9    -0.362446579927E+03   -0.52594E-05   -0.59809E-05  7392   0.121E-04 0.978E-05
  53 F= -.36244658E+03 E0= -.36244658E+03  d E =-.110196E-02  mag=    16.0000
       N       E                     dE             d eps       ncg     rms          ort
SDA:   1    -0.362394939534E+03    0.51635E-01    0.00000E+00  7392   0.120E+00 0.000E+00
CGA:   2    -0.362438759021E+03   -0.43819E-01   -0.43833E-01  7392   0.318E-01-0.113E-03
CGA:   3    -0.362445054352E+03   -0.62953E-02   -0.63009E-02  7392   0.796E-02 0.101E-03
CGA:   4    -0.362446264043E+03   -0.12097E-02   -0.12065E-02  7392   0.203E-02-0.328E-04
CGA:   5    -0.362446651495E+03   -0.38745E-03   -0.38697E-03  7392   0.515E-03-0.914E-05
CGA:   6    -0.362446748319E+03   -0.96824E-04   -0.96998E-04  7392   0.161E-03 0.319E-05
CGA:   7    -0.362446787733E+03   -0.39414E-04   -0.39429E-04  7392   0.655E-04-0.473E-05
CGA:   8    -0.362446804492E+03   -0.16759E-04   -0.16719E-04  7392   0.303E-04 0.171E-05
CGA:   9    -0.362446812298E+03   -0.78060E-05   -0.77657E-05  7392   0.104E-04 0.460E-05
  54 F= -.36244681E+03 E0= -.36244681E+03  d E =-.232371E-03  mag=    16.0000
