       N       E                     dE             d eps       ncg     rms          rms(c)
DAV:   1     0.251708346736E+04    0.25171E+04   -0.13297E+05 26360   0.150E+03
DAV:   2    -0.158003494472E+03   -0.26751E+04   -0.24969E+04 27268   0.414E+02
DAV:   3    -0.439708829697E+03   -0.28171E+03   -0.27760E+03 28984   0.148E+02
DAV:   4    -0.448992983316E+03   -0.92842E+01   -0.91922E+01 33040   0.262E+01
DAV:   5    -0.449576363774E+03   -0.58338E+00   -0.58224E+00 41200   0.487E+00    0.846E+00
DAV:   6    -0.371968630707E+03    0.77608E+02   -0.17879E+01 27856   0.134E+01    0.975E+00
DAV:   7    -0.368858451068E+03    0.31102E+01   -0.23283E+00 28832   0.594E+00    0.341E+00
DAV:   8    -0.368844299730E+03    0.14151E-01   -0.19665E-01 35352   0.146E+00    0.229E+00
DAV:   9    -0.368808465279E+03    0.35834E-01   -0.11396E-01 29520   0.114E+00    0.884E-01
DAV:  10    -0.368800748921E+03    0.77164E-02   -0.22835E-02 31008   0.465E-01    0.237E-01
DAV:  11    -0.368800710600E+03    0.38321E-04   -0.13778E-03 34552   0.132E-01    0.159E-01
DAV:  12    -0.368800516271E+03    0.19433E-03   -0.13519E-04 30984   0.399E-02    0.108E-01
DAV:  13    -0.368800394901E+03    0.12137E-03   -0.13781E-04 30056   0.467E-02    0.383E-02
DAV:  14    -0.368800539842E+03   -0.14494E-03   -0.21928E-05 21672   0.203E-02    0.265E-02
DAV:  15    -0.368800385081E+03    0.15476E-03   -0.14291E-05 16672   0.130E-02    0.233E-02
DAV:  16    -0.368800366474E+03    0.18607E-04   -0.45954E-06 16200   0.778E-03    0.131E-02
DAV:  17    -0.368800363521E+03    0.29526E-05   -0.20426E-06 15920   0.723E-03
   1 F= -.36880036E+03 E0= -.36880036E+03  d E =-.368800E+03  mag=    20.0000
