       N       E                     dE             d eps       ncg     rms          ort
DAV:   1     0.259413105224E+04    0.25941E+04   -0.14099E+05 10584   0.165E+03
DAV:   2    -0.126881663015E+03   -0.27210E+04   -0.25173E+04 10584   0.427E+02
DAV:   3    -0.444095291541E+03   -0.31721E+03   -0.31208E+03 10584   0.167E+02
DAV:   4    -0.456044008178E+03   -0.11949E+02   -0.11664E+02 10584   0.314E+01
DAV:   5    -0.456575260675E+03   -0.53125E+00   -0.52282E+00 10584   0.493E+00
SDA:   6    -0.247611696819E+03    0.20896E+03   -0.52282E+00 10584   0.528E+03 0.000E+00
CGA:   7    -0.323365716490E+03   -0.75754E+02   -0.69691E+02 10584   0.215E+03-0.640E+02
CGA:   8    -0.327766058939E+03   -0.44003E+01   -0.17014E+02 10584   0.147E+03-0.216E+02
CGA:   9    -0.336980023278E+03   -0.92140E+01   -0.11924E+02 10584   0.940E+02-0.251E+01
CGA:  10    -0.334970305640E+03    0.20097E+01   -0.61456E+01 10584   0.228E+03-0.535E+02
CGA:  11    -0.338279829315E+03   -0.33095E+01   -0.19040E+02 10584   0.878E+02-0.420E+02
CGA:  12    -0.342616275315E+03   -0.43364E+01   -0.40957E+01 10584   0.870E+02-0.629E+01
CGA:  13    -0.341446080919E+03    0.11702E+01   -0.35899E+01 10584   0.961E+02-0.860E+02
CGA:  14    -0.345150257735E+03   -0.37042E+01   -0.48976E+01 10584   0.333E+02-0.678E+02
CGA:  15    -0.345278475765E+03   -0.12822E+00   -0.18303E+01 10584   0.265E+02-0.196E+02
CGA:  16    -0.346146955219E+03   -0.86848E+00   -0.67651E+00 10584   0.162E+01 0.299E+01
CGA:  17    -0.346269825956E+03   -0.12287E+00   -0.11033E+00 10584   0.307E+01 0.107E+00
CGA:  18    -0.346526759237E+03   -0.25693E+00   -0.20597E+00 10584   0.544E+01 0.338E+00
CGA:  19    -0.346811740491E+03   -0.28498E+00   -0.40223E+00 10584   0.937E+01-0.103E+00
CGA:  20    -0.347046635490E+03   -0.23489E+00   -0.32970E+00 10584   0.201E+01-0.193E+01
CGA:  21    -0.347080948108E+03   -0.34313E-01   -0.73753E-01 10584   0.117E+01-0.633E+00
CGA:  22    -0.347121117140E+03   -0.40169E-01   -0.27394E-01 10584   0.738E+00 0.311E+00
CGA:  23    -0.347160869455E+03   -0.39752E-01   -0.36859E-01 10584   0.699E+00 0.803E-01
CGA:  24    -0.347198284097E+03   -0.37415E-01   -0.34203E-01 10584   0.813E+00 0.837E-01
CGA:  25    -0.347224327199E+03   -0.26043E-01   -0.30019E-01 10584   0.506E+00-0.953E-01
CGA:  26    -0.347236702771E+03   -0.12376E-01   -0.15434E-01 10584   0.458E+00-0.537E-01
CGA:  27    -0.347253923673E+03   -0.17221E-01   -0.16686E-01 10584   0.464E+00 0.180E-01
CGA:  28    -0.347273948347E+03   -0.20025E-01   -0.18924E-01 10584   0.616E+00 0.225E-01
CGA:  29    -0.347301474175E+03   -0.27526E-01   -0.23121E-01 10584   0.625E+00 0.108E+00
CGA:  30    -0.347318264953E+03   -0.16791E-01   -0.12401E-01 10584   0.400E+00 0.242E+00
CGA:  31    -0.347332604773E+03   -0.14340E-01   -0.13148E-01 10584   0.379E+00 0.441E-01
CGA:  32    -0.347344370114E+03   -0.11765E-01   -0.11505E-01 10584   0.566E+00 0.532E-02
CGA:  33    -0.347359186709E+03   -0.14817E-01   -0.18075E-01 10584   0.738E+00-0.642E-01
CGA:  34    -0.347370469793E+03   -0.11283E-01   -0.88857E-02 10584   0.481E+00 0.163E+00
CGA:  35    -0.347378985438E+03   -0.85156E-02   -0.73990E-02 10584   0.291E+00 0.881E-01
CGA:  36    -0.347383882504E+03   -0.48971E-02   -0.45042E-02 10584   0.264E+00 0.436E-01
CGA:  37    -0.347388086634E+03   -0.42041E-02   -0.39297E-02 10584   0.333E+00 0.416E-01
CGA:  38    -0.347393362981E+03   -0.52763E-02   -0.53100E-02 10584   0.535E+00 0.300E-01
CGA:  39    -0.347400087875E+03   -0.67249E-02   -0.85150E-02 10584   0.857E+00-0.525E-01
CGA:  40    -0.347406369579E+03   -0.62817E-02   -0.83419E-02 10584   0.777E+00-0.753E-01
CGA:  41    -0.347411139519E+03   -0.47699E-02   -0.56596E-02 10584   0.367E+00-0.379E-01
CGA:  42    -0.347413433388E+03   -0.22939E-02   -0.27675E-02 10584   0.163E+00-0.349E-01
CGA:  43    -0.347414802739E+03   -0.13694E-02   -0.14644E-02 10584   0.144E+00-0.727E-02
CGA:  44    -0.347417077274E+03   -0.22745E-02   -0.22700E-02 10584   0.264E+00-0.452E-02
CGA:  45    -0.347422595731E+03   -0.55185E-02   -0.53633E-02 10584   0.558E+00-0.602E-02
SDA:  46    -0.347431674865E+03   -0.90791E-02   -0.89014E-02 10584   0.615E+00-0.267E-01
CGA:  47    -0.347447564403E+03   -0.15890E-01   -0.15137E-01 10584   0.101E+00 0.148E-01
CGA:  48    -0.347458465922E+03   -0.10902E-01   -0.10840E-01 10584   0.152E+00 0.114E-02
CGA:  49    -0.347481086573E+03   -0.22621E-01   -0.28552E-01 10584   0.309E+00-0.503E-01
CGA:  50    -0.347491930997E+03   -0.10844E-01   -0.10751E-01 10584   0.201E+00-0.132E-01
CGA:  51    -0.347497181457E+03   -0.52505E-02   -0.50464E-02 10584   0.473E-01 0.183E-02
CGA:  52    -0.347500904403E+03   -0.37229E-02   -0.36733E-02 10584   0.102E+00 0.260E-02
CGA:  53    -0.347507341427E+03   -0.64370E-02   -0.64244E-02 10584   0.132E+00 0.565E-02
CGA:  54    -0.347511810881E+03   -0.44695E-02   -0.46373E-02 10584   0.278E-01 0.408E-02
CGA:  55    -0.347513068753E+03   -0.12579E-02   -0.12593E-02 10584   0.280E-01 0.335E-03
CGA:  56    -0.347514426765E+03   -0.13580E-02   -0.13484E-02 10584   0.350E-01-0.530E-03
CGA:  57    -0.347517000539E+03   -0.25738E-02   -0.26408E-02 10584   0.583E-01-0.266E-02
CGA:  58    -0.347518798641E+03   -0.17981E-02   -0.18221E-02 10584   0.361E-01-0.142E-02
CGA:  59    -0.347519890340E+03   -0.10917E-02   -0.10301E-02 10584   0.112E-01-0.222E-03
CGA:  60    -0.347520358857E+03   -0.46852E-03   -0.46681E-03 10584   0.181E-01 0.152E-03
CGA:  61    -0.347521773070E+03   -0.14142E-02   -0.13494E-02 10584   0.524E-01 0.303E-02
CGA:  62    -0.347524772189E+03   -0.29991E-02   -0.29963E-02 10584   0.350E-01 0.466E-02
CGA:  63    -0.347525580561E+03   -0.80837E-03   -0.98362E-03 10584   0.862E-02 0.163E-02
CGA:  64    -0.347525979328E+03   -0.39877E-03   -0.40783E-03 10584   0.138E-01 0.105E-02
CGA:  65    -0.347527482480E+03   -0.15032E-02   -0.18719E-02 10584   0.573E-01-0.637E-02
CGA:  66    -0.347527872679E+03   -0.39020E-03   -0.28803E-03 10584   0.598E-01 0.804E-02
CGA:  67    -0.347528958311E+03   -0.10856E-02   -0.10248E-02 10584   0.201E-01 0.266E-02
CGA:  68    -0.347529262139E+03   -0.30383E-03   -0.32783E-03 10584   0.823E-02-0.140E-02
CGA:  69    -0.347529526271E+03   -0.26413E-03   -0.27244E-03 10584   0.158E-01 0.388E-03
CGA:  70    -0.347530253887E+03   -0.72762E-03   -0.72394E-03 10584   0.273E-01 0.190E-03
CGA:  71    -0.347531009784E+03   -0.75590E-03   -0.68115E-03 10584   0.414E-01 0.253E-02
CGA:  72    -0.347531853978E+03   -0.84419E-03   -0.75185E-03 10584   0.455E-01 0.583E-02
CGA:  73    -0.347532575320E+03   -0.72134E-03   -0.78483E-03 10584   0.259E-01-0.150E-02
CGA:  74    -0.347532866368E+03   -0.29105E-03   -0.36580E-03 10584   0.101E-01-0.363E-02
CGA:  75    -0.347533068169E+03   -0.20180E-03   -0.20687E-03 10584   0.133E-01-0.493E-03
CGA:  76    -0.347533814820E+03   -0.74665E-03   -0.80492E-03 10584   0.302E-01-0.290E-02
SDA:  77    -0.347534280764E+03   -0.46594E-03   -0.33449E-03 10584   0.243E-01 0.222E-02
CGA:  78    -0.347535207388E+03   -0.92662E-03   -0.92529E-03 10584   0.545E-02-0.250E-03
CGA:  79    -0.347535944508E+03   -0.73712E-03   -0.74566E-03 10584   0.254E-01-0.117E-03
CGA:  80    -0.347537562948E+03   -0.16184E-02   -0.16730E-02 10584   0.405E-02-0.248E-02
CGA:  81    -0.347537880991E+03   -0.31804E-03   -0.29352E-03 10584   0.516E-02 0.731E-03
CGA:  82    -0.347538626627E+03   -0.74564E-03   -0.61046E-03 10584   0.117E-02 0.260E-02
CGA:  83    -0.347538742130E+03   -0.11550E-03   -0.12629E-03 10584   0.565E-02-0.197E-03
CGA:  84    -0.347539295566E+03   -0.55344E-03   -0.59517E-03 10584   0.124E-01-0.278E-03
CGA:  85    -0.347539656250E+03   -0.36068E-03   -0.23130E-03 10584   0.507E-02 0.393E-02
CGA:  86    -0.347539791538E+03   -0.13529E-03   -0.12969E-03 10584   0.280E-02 0.281E-03
CGA:  87    -0.347539866533E+03   -0.74995E-04   -0.79042E-04 10584   0.388E-02 0.135E-03
CGA:  88    -0.347539987948E+03   -0.12141E-03   -0.12768E-03 10584   0.603E-02 0.127E-03
CGA:  89    -0.347540158948E+03   -0.17100E-03   -0.17808E-03 10584   0.617E-02-0.471E-04
CGA:  90    -0.347540311909E+03   -0.15296E-03   -0.15647E-03 10584   0.455E-02-0.144E-03
CGA:  91    -0.347540410604E+03   -0.98695E-04   -0.10630E-03 10584   0.251E-02-0.299E-04
CGA:  92    -0.347540478332E+03   -0.67728E-04   -0.72226E-04 10584   0.268E-02 0.216E-03
CGA:  93    -0.347540604639E+03   -0.12631E-03   -0.12590E-03 10584   0.387E-02 0.104E-03
CGA:  94    -0.347540707787E+03   -0.10315E-03   -0.90384E-04 10584   0.381E-02 0.215E-03
CGA:  95    -0.347540799207E+03   -0.91420E-04   -0.80273E-04 10584   0.384E-02-0.735E-04
CGA:  96    -0.347540870147E+03   -0.70939E-04   -0.62457E-04 10584   0.309E-02-0.187E-03
CGA:  97    -0.347540916858E+03   -0.46711E-04   -0.42735E-04 10584   0.203E-02-0.190E-03
CGA:  98    -0.347540947067E+03   -0.30210E-04   -0.29108E-04 10584   0.163E-02-0.857E-04
CGA:  99    -0.347540978751E+03   -0.31684E-04   -0.31891E-04 10584   0.224E-02-0.224E-04
CGA: 100    -0.347541044947E+03   -0.66197E-04   -0.66182E-04 10584   0.446E-02-0.210E-04
CGA: 101    -0.347541136794E+03   -0.91846E-04   -0.74939E-04 10584   0.424E-02 0.450E-03
CGA: 102    -0.347541194814E+03   -0.58021E-04   -0.45088E-04 10584   0.270E-02 0.645E-03
CGA: 103    -0.347541233153E+03   -0.38339E-04   -0.30958E-04 10584   0.206E-02 0.648E-04
CGA: 104    -0.347541263349E+03   -0.30196E-04   -0.23372E-04 10584   0.236E-02-0.122E-03
CGA: 105    -0.347541293753E+03   -0.30403E-04   -0.22140E-04 10584   0.279E-02-0.146E-03
CGA: 106    -0.347541324191E+03   -0.30438E-04   -0.21956E-04 10584   0.293E-02-0.104E-03
CGA: 107    -0.347541352724E+03   -0.28533E-04   -0.21662E-04 10584   0.304E-02-0.650E-04
CGA: 108    -0.347541379310E+03   -0.26586E-04   -0.21838E-04 10584   0.330E-02-0.202E-04
CGA: 109    -0.347541404315E+03   -0.25005E-04   -0.22536E-04 10584   0.337E-02-0.331E-05
CGA: 110    -0.347541425438E+03   -0.21123E-04   -0.20952E-04 10584   0.292E-02-0.477E-04
CGA: 111    -0.347541440810E+03   -0.15372E-04   -0.16064E-04 10584   0.222E-02-0.464E-04
CGA: 112    -0.347541452522E+03   -0.11712E-04   -0.11997E-04 10584   0.181E-02-0.179E-04
SDA: 113    -0.347541463945E+03   -0.11423E-04   -0.10874E-04 10584   0.184E-02-0.357E-04
CGA: 114    -0.347541568653E+03   -0.10471E-03   -0.13760E-04 10584   0.174E-01-0.144E-02
CGA: 115    -0.347541895787E+03   -0.32713E-03   -0.34140E-03 10584   0.250E-02 0.626E-03
CGA: 116    -0.347541983767E+03   -0.87980E-04   -0.89064E-04 10584   0.156E-02 0.135E-03
CGA: 117    -0.347542722179E+03   -0.73841E-03   -0.42559E-03 10584   0.541E-02 0.908E-03
CGA: 118    -0.347542838253E+03   -0.11607E-03   -0.11519E-03 10584   0.829E-03 0.484E-04
CGA: 119    -0.347542891315E+03   -0.53063E-04   -0.50889E-04 10584   0.207E-02-0.171E-03
CGA: 120    -0.347543177298E+03   -0.28598E-03   -0.32888E-03 10584   0.138E-01-0.259E-03
CGA: 121    -0.347543237532E+03   -0.60234E-04   -0.30791E-04 10584   0.128E-01 0.118E-01
CGA: 122    -0.347543519593E+03   -0.28206E-03   -0.30450E-03 10584   0.503E-03 0.217E-03
CGA: 123    -0.347543533781E+03   -0.14187E-04   -0.14708E-04 10584   0.285E-03 0.203E-04
CGA: 124    -0.347543587908E+03   -0.54128E-04   -0.48694E-04 10584   0.123E-02 0.584E-04
CGA: 125    -0.347543658433E+03   -0.70524E-04   -0.67933E-04 10584   0.681E-03-0.834E-04
CGA: 126    -0.347543704330E+03   -0.45898E-04   -0.45786E-04 10584   0.132E-02-0.422E-04
CGA: 127    -0.347543771095E+03   -0.66764E-04   -0.44060E-04 10584   0.686E-03 0.336E-03
CGA: 128    -0.347543804876E+03   -0.33782E-04   -0.28579E-04 10584   0.794E-03 0.270E-04
CGA: 129    -0.347543839157E+03   -0.34281E-04   -0.27407E-04 10584   0.747E-03 0.334E-04
CGA: 130    -0.347543855170E+03   -0.16013E-04   -0.11744E-04 10584   0.297E-03 0.453E-04
CGA: 131    -0.347543867625E+03   -0.12455E-04   -0.91591E-05 10584   0.516E-03-0.795E-04
CGA: 132    -0.347543882343E+03   -0.14718E-04   -0.10253E-04 10584   0.777E-03-0.109E-03
CGA: 133    -0.347543891914E+03   -0.95714E-05   -0.72839E-05 10584   0.415E-03-0.147E-04
   1 F= -.34754389E+03 E0= -.34753350E+03  d E =-.347544E+03  mag=    18.0000
       N       E                     dE             d eps       ncg     rms          ort
SDA:   1    -0.347152987979E+03    0.39089E+00    0.00000E+00 10584   0.201E+02 0.000E+00
CGA:   2    -0.347478968690E+03   -0.32598E+00   -0.42309E+00 10584   0.395E+01-0.626E+01
CGA:   3    -0.347531266268E+03   -0.52298E-01   -0.57350E-01 10584   0.315E+00-0.204E+00
CGA:   4    -0.347537021564E+03   -0.57553E-02   -0.57460E-02 10584   0.683E-01 0.242E-02
CGA:   5    -0.347538678923E+03   -0.16574E-02   -0.16665E-02 10584   0.257E-01 0.697E-03
CGA:   6    -0.347540030839E+03   -0.13519E-02   -0.13520E-02 10584   0.533E-01-0.123E-03
CGA:   7    -0.347542570462E+03   -0.25396E-02   -0.25348E-02 10584   0.237E-01-0.184E-02
CGA:   8    -0.347543036162E+03   -0.46570E-03   -0.45772E-03 10584   0.820E-02-0.191E-03
CGA:   9    -0.347543348283E+03   -0.31212E-03   -0.31728E-03 10584   0.696E-02 0.498E-03
CGA:  10    -0.347543710632E+03   -0.36235E-03   -0.36215E-03 10584   0.120E-01 0.261E-03
CGA:  11    -0.347544131547E+03   -0.42091E-03   -0.41600E-03 10584   0.191E-02-0.345E-03
CGA:  12    -0.347544173650E+03   -0.42103E-04   -0.43846E-04 10584   0.998E-03 0.718E-04
CGA:  13    -0.347544201429E+03   -0.27779E-04   -0.31194E-04 10584   0.604E-03 0.207E-03
CGA:  14    -0.347544249270E+03   -0.47841E-04   -0.46706E-04 10584   0.144E-02 0.601E-04
CGA:  15    -0.347544298799E+03   -0.49529E-04   -0.47902E-04 10584   0.395E-03-0.101E-03
CGA:  16    -0.347544308101E+03   -0.93016E-05   -0.10396E-04 10584   0.232E-03 0.621E-04
   2 F= -.34754431E+03 E0= -.34753454E+03  d E =-.416187E-03  mag=    18.0000
       N       E                     dE             d eps       ncg     rms          ort
SDA:   1    -0.347538598437E+03    0.57004E-02    0.00000E+00 10584   0.270E+00 0.000E+00
CGA:   2    -0.347543608637E+03   -0.50102E-02   -0.51158E-02 10584   0.182E-01 0.101E-02
CGA:   3    -0.347543940823E+03   -0.33219E-03   -0.33821E-03 10584   0.166E-02 0.341E-03
CGA:   4    -0.347544248336E+03   -0.30751E-03   -0.28229E-03 10584   0.501E-02 0.200E-03
CGA:   5    -0.347544422509E+03   -0.17417E-03   -0.17000E-03 10584   0.116E-02-0.252E-03
CGA:   6    -0.347544487964E+03   -0.65455E-04   -0.67049E-04 10584   0.152E-02-0.119E-03
CGA:   7    -0.347544564011E+03   -0.76046E-04   -0.77368E-04 10584   0.484E-03-0.148E-03
CGA:   8    -0.347544576363E+03   -0.12353E-04   -0.12743E-04 10584   0.226E-03 0.197E-04
CGA:   9    -0.347544572638E+03    0.37252E-05   -0.13333E-04 10584   0.376E-02-0.322E-03
CGA:  10    -0.347544622354E+03   -0.49716E-04   -0.55444E-04 10584   0.223E-03 0.814E-04
CGA:  11    -0.347544638220E+03   -0.15866E-04   -0.16456E-04 10584   0.270E-03 0.592E-04
CGA:  12    -0.347544661077E+03   -0.22857E-04   -0.21998E-04 10584   0.356E-03-0.495E-04
CGA:  13    -0.347544667882E+03   -0.68050E-05   -0.71013E-05 10584   0.119E-03 0.397E-05
   3 F= -.34754467E+03 E0= -.34753495E+03  d E =-.359781E-03  mag=    18.0000
