       N       E                     dE             d eps       ncg     rms          ort
DAV:   1     0.263311591823E+04    0.26331E+04   -0.14411E+05  7392   0.164E+03
DAV:   2    -0.102444399802E+03   -0.27356E+04   -0.25244E+04  7392   0.425E+02
DAV:   3    -0.427926302674E+03   -0.32548E+03   -0.31843E+03  7392   0.164E+02
DAV:   4    -0.441230142511E+03   -0.13304E+02   -0.13140E+02  7392   0.320E+01
DAV:   5    -0.442046051737E+03   -0.81591E+00   -0.81329E+00  7392   0.590E+00
SDA:   6    -0.346985290895E+03    0.95061E+02   -0.81329E+00  7392   0.343E+03 0.000E+00
CGA:   7    -0.342797242272E+03    0.41880E+01   -0.17089E+02  7392   0.522E+03-0.395E+03
CGA:   8    -0.346486329940E+03   -0.36891E+01   -0.26025E+02  7392   0.226E+03-0.225E+03
CGA:   9    -0.361024986926E+03   -0.14539E+02   -0.44814E+01  7392   0.133E+02 0.518E+02
CGA:  10    -0.361534143080E+03   -0.50916E+00   -0.75550E+00  7392   0.434E+01 0.182E+01
CGA:  11    -0.362096385663E+03   -0.56224E+00   -0.63004E+00  7392   0.185E+01 0.525E+00
CGA:  12    -0.362353203141E+03   -0.25682E+00   -0.28288E+00  7392   0.388E+00 0.250E+00
CGA:  13    -0.362512534225E+03   -0.15933E+00   -0.17136E+00  7392   0.188E+00-0.517E-01
CGA:  14    -0.362559686407E+03   -0.47152E-01   -0.50301E-01  7392   0.804E-01-0.231E-01
CGA:  15    -0.362578030348E+03   -0.18344E-01   -0.19072E-01  7392   0.303E-01-0.825E-02
CGA:  16    -0.362585324898E+03   -0.72945E-02   -0.73084E-02  7392   0.851E-02-0.101E-03
CGA:  17    -0.362587038215E+03   -0.17133E-02   -0.16982E-02  7392   0.241E-02 0.223E-02
CGA:  18    -0.362587790133E+03   -0.75192E-03   -0.71375E-03  7392   0.126E-02 0.938E-03
CGA:  19    -0.362588375678E+03   -0.58554E-03   -0.56388E-03  7392   0.799E-03 0.175E-03
CGA:  20    -0.362588592242E+03   -0.21656E-03   -0.20702E-03  7392   0.461E-03 0.376E-03
CGA:  21    -0.362588720547E+03   -0.12830E-03   -0.13121E-03  7392   0.266E-03 0.301E-03
CGA:  22    -0.362588847151E+03   -0.12660E-03    0.15338E-03  7392   0.153E-03 0.175E-03
CGA:  23    -0.362588912356E+03   -0.65205E-04    0.32519E-03  7392   0.119E-03 0.130E-03
CGA:  24    -0.362588969730E+03   -0.57373E-04    0.64327E-04  7392   0.100E-03 0.107E-03
CGA:  25    -0.362589013235E+03   -0.43506E-04    0.14691E-03  7392   0.884E-04 0.928E-04
CGA:  26    -0.362589052275E+03   -0.39040E-04    0.10038E-03  7392   0.800E-04 0.832E-04
CGA:  27    -0.362589086002E+03   -0.33727E-04    0.20466E-03  7392   0.736E-04 0.762E-04
CGA:  28    -0.362589117506E+03   -0.31504E-04    0.13598E-03  7392   0.685E-04 0.706E-04
CGA:  29    -0.362589146360E+03   -0.28853E-04    0.18088E-03  7392   0.642E-04 0.660E-04
CGA:  30    -0.362589173947E+03   -0.27587E-04    0.10910E-03  7392   0.604E-04 0.620E-04
CGA:  31    -0.362589199714E+03   -0.25767E-04    0.11910E-03  7392   0.571E-04 0.585E-04
CGA:  32    -0.362589224792E+03   -0.25078E-04    0.69295E-04  7392   0.541E-04 0.553E-04
CGA:  33    -0.362589248136E+03   -0.23344E-04    0.84320E-04  7392   0.513E-04 0.524E-04
CGA:  34    -0.362589271596E+03   -0.23460E-04    0.40827E-04  7392   0.488E-04 0.498E-04
CGA:  35    -0.362589292370E+03   -0.20774E-04    0.10083E-03  7392   0.466E-04 0.473E-04
CGA:  36    -0.362589315567E+03   -0.23197E-04    0.20695E-04  7392   0.446E-04 0.449E-04
CGA:  37    -0.362589387713E+03   -0.72146E-04   -0.44387E-04  7392   0.748E-04 0.349E-04
CGA:  38    -0.362589459562E+03   -0.71849E-04    0.92468E-05  7392   0.155E-03-0.366E-04
CGA:  39    -0.362589498311E+03   -0.38749E-04    0.11624E-02  7392   0.307E-03 0.358E-04
CGA:  40    -0.362589523468E+03   -0.25157E-04   -0.48380E-04  7392   0.969E-04 0.202E-03
CGA:  41    -0.362589588620E+03   -0.65152E-04    0.27249E-04  7392   0.891E-04-0.456E-04
CGA:  42    -0.362589588267E+03    0.35249E-06   -0.47898E-05  7392   0.750E-04 0.380E-04
   1 F= -.36258959E+03 E0= -.36258959E+03  d E =-.362590E+03  mag=    16.0000
       N       E                     dE             d eps       ncg     rms          ort
SDA:   1    -0.362580692221E+03    0.88964E-02    0.00000E+00  7392   0.250E-01 0.000E+00
CGA:   2    -0.362586244572E+03   -0.55524E-02   -0.55525E-02  7392   0.128E-01 0.602E-03
CGA:   3    -0.362588663662E+03   -0.24191E-02   -0.24011E-02  7392   0.426E-02-0.480E-03
CGA:   4    -0.362589357215E+03   -0.69355E-03   -0.68274E-03  7392   0.126E-02-0.203E-03
CGA:   5    -0.362589526429E+03   -0.16921E-03   -0.17556E-03  7392   0.312E-03 0.890E-04
CGA:   6    -0.362589588098E+03   -0.61670E-04   -0.62624E-04  7392   0.114E-03 0.366E-04
CGA:   7    -0.362589615977E+03   -0.27878E-04   -0.62915E-04  7392   0.323E-03-0.125E-03
CGA:   8    -0.362589644735E+03   -0.28759E-04   -0.36808E-04  7392   0.461E-04 0.714E-04
CGA:   9    -0.362589653717E+03   -0.89818E-05   -0.97492E-05  7392   0.219E-04 0.160E-04
CGA:  10    -0.362589669536E+03   -0.15819E-04    0.14312E-04  7392   0.148E-04 0.662E-05
CGA:  11    -0.362589683020E+03   -0.13483E-04    0.35032E-05  7392   0.157E-04 0.102E-04
CGA:  12    -0.362589682347E+03    0.67278E-06   -0.11778E-05  7392   0.111E-04 0.129E-04
   2 F= -.36258968E+03 E0= -.36258968E+03  d E =-.940794E-04  mag=    16.0000
       N       E                     dE             d eps       ncg     rms          ort
SDA:   1    -0.362588871319E+03    0.81170E-03    0.00000E+00  7392   0.260E-02 0.000E+00
CGA:   2    -0.362589513892E+03   -0.64257E-03   -0.65289E-03  7392   0.167E-02-0.237E-03
CGA:   3    -0.362589723334E+03   -0.20944E-03   -0.21850E-03  7392   0.387E-03 0.138E-03
CGA:   4    -0.362589772659E+03   -0.49325E-04   -0.56154E-04  7392   0.102E-03 0.943E-04
CGA:   5    -0.362589802828E+03   -0.30170E-04   -0.32091E-04  7392   0.763E-04-0.377E-04
CGA:   6    -0.362589813448E+03   -0.10620E-04   -0.14319E-04  7392   0.783E-04-0.398E-04
CGA:   7    -0.362589823908E+03   -0.10461E-04   -0.11735E-04  7392   0.186E-04 0.212E-04
CGA:   8    -0.362589830699E+03   -0.67909E-05   -0.70504E-05  7392   0.117E-04-0.284E-05
   3 F= -.36258983E+03 E0= -.36258983E+03  d E =-.242432E-03  mag=    16.0000
       N       E                     dE             d eps       ncg     rms          ort
SDA:   1    -0.362589091645E+03    0.73226E-03    0.00000E+00  7392   0.218E-02 0.000E+00
CGA:   2    -0.362589621960E+03   -0.53031E-03   -0.53710E-03  7392   0.147E-02-0.194E-03
CGA:   3    -0.362589808827E+03   -0.18687E-03   -0.19542E-03  7392   0.340E-03 0.126E-03
CGA:   4    -0.362589849022E+03   -0.40195E-04   -0.47151E-04  7392   0.829E-04 0.847E-04
CGA:   5    -0.362589872964E+03   -0.23942E-04   -0.24884E-04  7392   0.576E-04-0.273E-04
CGA:   6    -0.362589877534E+03   -0.45697E-05   -0.15678E-04  7392   0.108E-03-0.561E-04
CGA:   7    -0.362589888300E+03   -0.10766E-04   -0.13468E-04  7392   0.224E-04 0.291E-04
CGA:   8    -0.362589892020E+03   -0.37206E-05   -0.43407E-05  7392   0.827E-05 0.104E-04
CGA:   9    -0.362589846994E+03    0.45027E-04   -0.24283E-04  7392   0.292E-03-0.544E-04
CGA:  10    -0.362589889626E+03   -0.42632E-04   -0.49087E-04  7392   0.448E-04 0.300E-04
CGA:  11    -0.362589905307E+03   -0.15681E-04   -0.15274E-04  7392   0.104E-04-0.653E-05
CGA:  12    -0.362589918527E+03   -0.13220E-04    0.16193E-05  7392   0.577E-05-0.529E-06
CGA:  13    -0.362589918223E+03    0.30397E-06   -0.62475E-06  7392   0.303E-05 0.365E-05
   4 F= -.36258992E+03 E0= -.36258992E+03  d E =-.329956E-03  mag=    16.0000
