 vasp.6.1.2 22Jul20 (build Mar 19 2021 09:51:12) complex                        
  
 executed on             LinuxIFC date 2021.07.25  19:06:35
 running on   12 total cores
 distrk:  each k-point on   12 cores,    1 groups
 distr:  one band on NCORE=   4 cores,    3 groups


--------------------------------------------------------------------------------------------------------


 INCAR:
 POTCAR:    PAW_PBE Si 05Jan2001                  
 POTCAR:    PAW_PBE Ni_pv 06Sep2000               
 POTCAR:    PAW_PBE O 08Apr2002                   
 POTCAR:    PAW_PBE Si 05Jan2001                  
   VRHFIN =Si: s2p2                                                                                 
   LEXCH  = PE                                                                                      
   EATOM  =   103.0669 eV,    7.5752 Ry                                                             
                                                                                                    
   TITEL  = PAW_PBE Si 05Jan2001                                                                    
   LULTRA =        F    use ultrasoft PP ?                                                          
   IUNSCR =        1    unscreen: 0-lin 1-nonlin 2-no                                               
   RPACOR =    1.500    partial core radius                                                         
   POMASS =   28.085; ZVAL   =    4.000    mass and valenz                                          
   RCORE  =    1.900    outmost cutoff radius                                                       
   RWIGS  =    2.480; RWIGS  =    1.312    wigner-seitz radius (au A)                               
   ENMAX  =  245.345; ENMIN  =  184.009 eV                                                          
   ICORE  =        2    local potential                                                             
   LCOR   =        T    correct aug charges                                                         
   LPAW   =        T    paw PP                                                                      
   EAUG   =  322.069                                                                                
   DEXC   =    0.000                                                                                
   RMAX   =    1.950    core radius for proj-oper                                                   
   RAUG   =    1.300    factor for augmentation sphere                                              
   RDEP   =    1.993    radius for radial grids                                                     
   RDEPT  =    1.837    core radius for aug-charge                                                  
                                                                                                    
   Atomic configuration                                                                             
    6 entries                                                                                       
     n  l   j            E        occ.                                                              
     1  0  0.50     -1785.8828   2.0000                                                             
     2  0  0.50      -139.4969   2.0000                                                             
     2  1  1.50       -95.5546   6.0000                                                             
     3  0  0.50       -10.8127   2.0000                                                             
     3  1  0.50        -4.0811   2.0000                                                             
     3  2  1.50        -4.0817   0.0000                                                             
   Description                                                                                      
     l       E           TYP  RCUT    TYP  RCUT                                                     
     0    -10.8127223     23  1.900                                                                 
     0     -7.6451159     23  1.900                                                                 
     1     -4.0811372     23  1.900                                                                 
     1      2.4879257     23  1.900                                                                 
     2     -4.0817478      7  1.900                                                                 
  local pseudopotential read in
  partial core-charges read in
  partial kinetic energy density read in
  atomic valenz-charges read in
  non local Contribution for L=           0  read in
    real space projection operators read in
  non local Contribution for L=           0  read in
    real space projection operators read in
  non local Contribution for L=           1  read in
    real space projection operators read in
  non local Contribution for L=           1  read in
    real space projection operators read in
    PAW grid and wavefunctions read in
 
   number of l-projection  operators is LMAX  =           4
   number of lm-projection operators is LMMAX =           8
 
 POTCAR:    PAW_PBE Ni_pv 06Sep2000               
   VRHFIN =Ni:                                                                                      
   LEXCH  = PE                                                                                      
   EATOM  =  3501.1230 eV,  257.3253 Ry                                                             
                                                                                                    
   TITEL  = PAW_PBE Ni_pv 06Sep2000                                                                 
   LULTRA =        F    use ultrasoft PP ?                                                          
   IUNSCR =        1    unscreen: 0-lin 1-nonlin 2-no                                               
   RPACOR =    1.500    partial core radius                                                         
   POMASS =   58.690; ZVAL   =   16.000    mass and valenz                                          
   RCORE  =    2.000    outmost cutoff radius                                                       
   RWIGS  =    2.000; RWIGS  =    1.058    wigner-seitz radius (au A)                               
   ENMAX  =  367.986; ENMIN  =  275.989 eV                                                          
   RCLOC  =    1.301    cutoff for local pot                                                        
   LCOR   =        T    correct aug charges                                                         
   LPAW   =        T    paw PP                                                                      
   EAUG   =  703.443                                                                                
   DEXC   =    0.000                                                                                
   RMAX   =    2.041    core radius for proj-oper                                                   
   RAUG   =    1.300    factor for augmentation sphere                                              
   RDEP   =    2.103    radius for radial grids                                                     
   RDEPT  =    1.618    core radius for aug-charge                                                  
                                                                                                    
   Atomic configuration                                                                             
    8 entries                                                                                       
     n  l   j            E        occ.                                                              
     1  0  0.50     -8206.4253   2.0000                                                             
     2  0  0.50      -976.1748   2.0000                                                             
     2  1  1.50      -839.0571   6.0000                                                             
     3  0  0.50      -105.9991   2.0000                                                             
     3  1  1.50       -66.4603   6.0000                                                             
     3  2  2.50        -4.6458   9.0000                                                             
     4  0  0.50        -4.4926   1.0000                                                             
     4  3  2.50        -1.3606   0.0000                                                             
   Description                                                                                      
     l       E           TYP  RCUT    TYP  RCUT                                                     
     1    -66.4602962     23  1.700                                                                 
     1     -1.3605826     23  1.700                                                                 
     2     -4.6457867     23  2.000                                                                 
     2     -6.0063693     23  2.000                                                                 
     0     -4.4925576     23  1.900                                                                 
     0     16.3626226     23  1.900                                                                 
  local pseudopotential read in
  partial core-charges read in
  partial kinetic energy density read in
  atomic valenz-charges read in
  non local Contribution for L=           1  read in
    real space projection operators read in
  non local Contribution for L=           1  read in
    real space projection operators read in
  non local Contribution for L=           2  read in
    real space projection operators read in
  non local Contribution for L=           2  read in
    real space projection operators read in
  non local Contribution for L=           0  read in
    real space projection operators read in
  non local Contribution for L=           0  read in
    real space projection operators read in
    PAW grid and wavefunctions read in
 
   number of l-projection  operators is LMAX  =           6
   number of lm-projection operators is LMMAX =          18
 
 POTCAR:    PAW_PBE O 08Apr2002                   
   VRHFIN =O: s2p4                                                                                  
   LEXCH  = PE                                                                                      
   EATOM  =   432.3788 eV,   31.7789 Ry                                                             
                                                                                                    
   TITEL  = PAW_PBE O 08Apr2002                                                                     
   LULTRA =        F    use ultrasoft PP ?                                                          
   IUNSCR =        1    unscreen: 0-lin 1-nonlin 2-no                                               
   RPACOR =    1.200    partial core radius                                                         
   POMASS =   16.000; ZVAL   =    6.000    mass and valenz                                          
   RCORE  =    1.520    outmost cutoff radius                                                       
   RWIGS  =    1.550; RWIGS  =    0.820    wigner-seitz radius (au A)                               
   ENMAX  =  400.000; ENMIN  =  300.000 eV                                                          
   ICORE  =        2    local potential                                                             
   LCOR   =        T    correct aug charges                                                         
   LPAW   =        T    paw PP                                                                      
   EAUG   =  605.392                                                                                
   DEXC   =    0.000                                                                                
   RMAX   =    1.553    core radius for proj-oper                                                   
   RAUG   =    1.300    factor for augmentation sphere                                              
   RDEP   =    1.550    radius for radial grids                                                     
   RDEPT  =    1.329    core radius for aug-charge                                                  
                                                                                                    
   Atomic configuration                                                                             
    4 entries                                                                                       
     n  l   j            E        occ.                                                              
     1  0  0.50      -514.6923   2.0000                                                             
     2  0  0.50       -23.9615   2.0000                                                             
     2  1  0.50        -9.0305   4.0000                                                             
     3  2  1.50        -9.5241   0.0000                                                             
   Description                                                                                      
     l       E           TYP  RCUT    TYP  RCUT                                                     
     0    -23.9615318     23  1.200                                                                 
     0     -9.5240782     23  1.200                                                                 
     1     -9.0304911     23  1.520                                                                 
     1      8.1634956     23  1.520                                                                 
     2     -9.5240782      7  1.500                                                                 
  local pseudopotential read in
  partial core-charges read in
  partial kinetic energy density read in
  kinetic energy density of atom read in
  atomic valenz-charges read in
  non local Contribution for L=           0  read in
    real space projection operators read in
  non local Contribution for L=           0  read in
    real space projection operators read in
  non local Contribution for L=           1  read in
    real space projection operators read in
  non local Contribution for L=           1  read in
    real space projection operators read in
    PAW grid and wavefunctions read in
 
   number of l-projection  operators is LMAX  =           4
   number of lm-projection operators is LMMAX =           8
 
 Optimization of the real space projectors (new method)

 maximal supplied QI-value         = 19.84
 optimisation between [QCUT,QGAM] = [ 11.51, 23.22] = [ 37.09,150.92] Ry 
 Optimized for a Real-space Cutoff    1.21 Angstroem

   l    n(q)    QCUT    max X(q) W(low)/X(q) W(high)/X(q)  e(spline) 
   0      8    11.508   159.560    0.71E-04    0.15E-03    0.51E-07
   0      8    11.508   115.863    0.70E-04    0.15E-03    0.51E-07
   1      8    11.508    88.339    0.16E-03    0.38E-04    0.82E-07
   1      8    11.508    48.592    0.15E-03    0.36E-04    0.79E-07
 Optimization of the real space projectors (new method)

 maximal supplied QI-value         = 18.90
 optimisation between [QCUT,QGAM] = [ 11.53, 23.24] = [ 37.21,151.29] Ry 
 Optimized for a Real-space Cutoff    1.36 Angstroem

   l    n(q)    QCUT    max X(q) W(low)/X(q) W(high)/X(q)  e(spline) 
   1      9    11.527     2.836    0.16E-04    0.30E-04    0.95E-07
   1      9    11.527     4.023    0.73E-04    0.81E-04    0.21E-06
   2      9    11.527    73.368    0.15E-03    0.29E-03    0.28E-06
   2      9    11.527    69.010    0.15E-03    0.29E-03    0.29E-06
   0      9    11.527    54.797    0.43E-04    0.28E-04    0.85E-07
   0      9    11.527    24.266    0.33E-04    0.24E-04    0.75E-07
 Optimization of the real space projectors (new method)

 maximal supplied QI-value         = 24.76
 optimisation between [QCUT,QGAM] = [ 11.64, 23.27] = [ 37.91,151.63] Ry 
 Optimized for a Real-space Cutoff    1.14 Angstroem

   l    n(q)    QCUT    max X(q) W(low)/X(q) W(high)/X(q)  e(spline) 
   0      8    11.635    20.381    0.10E-03    0.33E-03    0.24E-06
   0      8    11.635    15.268    0.11E-03    0.35E-03    0.26E-06
   1      7    11.635     5.964    0.24E-03    0.31E-03    0.30E-06
   1      7    11.635     5.382    0.22E-03    0.25E-03    0.26E-06
  PAW_PBE Si 05Jan2001                  :
 energy of atom  1       EATOM= -103.0669
 kinetic energy error for atom=    0.0005 (will be added to EATOM!!)
  PAW_PBE Ni_pv 06Sep2000               :
 energy of atom  2       EATOM=-3501.1230
 kinetic energy error for atom=    0.0575 (will be added to EATOM!!)
  PAW_PBE O 08Apr2002                   :
 energy of atom  3       EATOM= -432.3788
 kinetic energy error for atom=    0.0208 (will be added to EATOM!!)
 
 
 POSCAR: Si4 Ni8 O16
  positions in direct lattice
  velocities in cartesian coordinates

 METAGGA = SCAN     LMAXTAU =  6    LMIXTAU =  F

 exchange correlation table for  LEXCH =        8
   RHO(1)=    0.500       N(1)  =     2000
   RHO(2)=  100.500       N(2)  =     4000
 


--------------------------------------------------------------------------------------------------------


 ion  position               nearest neighbor table
   1  0.071  0.595  0.250-  13 1.61  21 1.64  27 1.64  18 1.66   5 2.68   7 2.68   9 2.72
   2  0.429  0.095  0.250-  14 1.61  28 1.64  22 1.64  17 1.66   6 2.68   8 2.68  10 2.72
   3  0.929  0.405  0.750-  15 1.61  25 1.64  23 1.64  20 1.66   7 2.68   5 2.68  11 2.72
   4  0.571  0.905  0.750-  16 1.61  26 1.64  24 1.64  19 1.66   8 2.68   6 2.68  12 2.72
   5  0.500  0.500  1.000-  13 2.06  15 2.06  20 2.06  18 2.07  25 2.11  21 2.11   3 2.68   1 2.68

   6  0.000  1.000  0.500-  16 2.06  14 2.06  17 2.06  19 2.07  22 2.11  26 2.11   2 2.68   4 2.68

   7  0.500  0.500  0.500-  13 2.06  15 2.06  20 2.06  18 2.07  23 2.11  27 2.11   3 2.68   1 2.68

   8  0.000  1.000  0.000-  16 2.06  14 2.06  17 2.06  19 2.07  28 2.11  24 2.11   2 2.68   4 2.68

   9  0.504  0.773  0.250-  17 2.03  26 2.05  24 2.05  13 2.10  21 2.16  27 2.16   1 2.72
  10  0.996  0.273  0.250-  18 2.03  23 2.05  25 2.05  14 2.10  28 2.16  22 2.16   2 2.72
  11  0.496  0.227  0.750-  19 2.03  22 2.05  28 2.05  15 2.10  25 2.16  23 2.16   3 2.72
  12  0.004  0.727  0.750-  20 2.03  27 2.05  21 2.05  16 2.10  24 2.16  26 2.16   4 2.72
  13  0.729  0.594  0.250-   1 1.61   7 2.06   5 2.06   9 2.10
  14  0.771  0.094  0.250-   2 1.61   8 2.06   6 2.06  10 2.10
  15  0.271  0.406  0.750-   3 1.61   7 2.06   5 2.06  11 2.10
  16  0.229  0.906  0.750-   4 1.61   6 2.06   8 2.06  12 2.10
  17  0.283  0.945  0.250-   2 1.66   9 2.03   6 2.06   8 2.06
  18  0.217  0.445  0.250-   1 1.66  10 2.03   5 2.07   7 2.07
  19  0.717  0.055  0.750-   4 1.66  11 2.03   8 2.07   6 2.07
  20  0.783  0.555  0.750-   3 1.66  12 2.03   7 2.06   5 2.06
  21  0.224  0.663  0.029-   1 1.64  12 2.05   5 2.11   9 2.16
  22  0.276  0.163  0.471-   2 1.64  11 2.05   6 2.11  10 2.16
  23  0.776  0.337  0.529-   3 1.64  10 2.05   7 2.11  11 2.16
  24  0.724  0.837  0.971-   4 1.64   9 2.05   8 2.11  12 2.16
  25  0.776  0.337  0.971-   3 1.64  10 2.05   5 2.11  11 2.16
  26  0.724  0.837  0.529-   4 1.64   9 2.05   6 2.11  12 2.16
  27  0.224  0.663  0.471-   1 1.64  12 2.05   7 2.11   9 2.16
  28  0.276  0.163  0.029-   2 1.64  11 2.05   8 2.11  10 2.16
 

IMPORTANT INFORMATION: All symmetrisations will be switched off!
NOSYMM: (Re-)initialisation of all symmetry stuff for point group C_1.


----------------------------------------------------------------------------------------

                                     Primitive cell                                     

  volume of cell :     280.9022

  direct lattice vectors                    reciprocal lattice vectors
     4.713515930 -0.000000090  0.000000526     0.212155855  0.000000004 -0.000000024
    -0.000000203 10.102006351 -0.000000779     0.000000002  0.098990237  0.000000007
     0.000000657 -0.000000445  5.899327602    -0.000000019  0.000000013  0.169510844

  length of vectors
     4.713515930 10.102006351  5.899327602     0.212155855  0.098990237  0.169510844

  position of ions in fractional coordinates (direct lattice)
     0.071302094  0.594543853  0.250000123
     0.428726459  0.094606548  0.249999926
     0.928726375  0.405393469  0.749999946
     0.571302206  0.905456151  0.749999996
     0.500132911  0.500035287  0.999919698
     0.000133511  0.999964589  0.499919321
     0.500133286  0.500035375  0.500080564
     0.000133028  0.999964719  0.000080380
     0.504063787  0.773240024  0.250000101
     0.995821212  0.273241418  0.249999917
     0.495821204  0.226758592  0.749999904
     0.004063878  0.726760034  0.750000156
     0.728772591  0.593532585  0.250000041
     0.771218504  0.093563281  0.249999981
     0.271218449  0.406436705  0.749999983
     0.228772673  0.906467414  0.749999995
     0.283105981  0.945205221  0.249999921
     0.216965986  0.445186158  0.250000033
     0.716966088  0.054813833  0.749999887
     0.783105896  0.554794777  0.750000129
     0.223962760  0.663469452  0.029390396
     0.275915706  0.163479536  0.470565821
     0.775915718  0.336520487  0.529434030
     0.723962739  0.836530583  0.970609752
     0.775915644  0.336520422  0.970565756
     0.723962830  0.836530534  0.529390249
     0.223962723  0.663469426  0.470609874
     0.275915760  0.163479527  0.029434121

  ion indices of the primitive-cell ions
   primitive index   ion index
                 1           1
                 2           2
                 3           3
                 4           4
                 5           5
                 6           6
                 7           7
                 8           8
                 9           9
                10          10
                11          11
                12          12
                13          13
                14          14
                15          15
                16          16
                17          17
                18          18
                19          19
                20          20
                21          21
                22          22
                23          23
                24          24
                25          25
                26          26
                27          27
                28          28

----------------------------------------------------------------------------------------

 
 
 KPOINTS: K-points file                           

Automatic generation of k-mesh.
Space group operators:
 irot       det(A)        alpha          n_x          n_y          n_z        tau_x        tau_y        tau_z
    1     1.000000     0.000000     1.000000     0.000000     0.000000     0.000000     0.000000     0.000000
 
 Subroutine IBZKPT returns following result:
 ===========================================
 
 Found     86 irreducible k-points:
 
 Following reciprocal coordinates:
            Coordinates               Weight
  0.000000  0.000000  0.000000      1.000000
  0.142857 -0.000000  0.000000      2.000000
  0.285714  0.000000  0.000000      2.000000
  0.428571  0.000000 -0.000000      2.000000
 -0.000000  0.250000 -0.000000      2.000000
  0.142857  0.250000  0.000000      2.000000
  0.142857 -0.250000  0.000000      2.000000
  0.285714  0.250000  0.000000      2.000000
  0.285714 -0.250000  0.000000      2.000000
  0.428571  0.250000 -0.000000      2.000000
  0.428571 -0.250000  0.000000      2.000000
 -0.000000  0.500000 -0.000000      1.000000
  0.142857  0.500000  0.000000      2.000000
  0.285714  0.500000  0.000000      2.000000
  0.428571  0.500000  0.000000      2.000000
  0.000000  0.000000  0.166667      2.000000
  0.142857  0.000000  0.166667      2.000000
  0.142857 -0.000000 -0.166667      2.000000
  0.285714  0.000000  0.166667      2.000000
  0.285714 -0.000000 -0.166667      2.000000
  0.428571  0.000000  0.166667      2.000000
  0.428571 -0.000000 -0.166667      2.000000
  0.000000  0.250000  0.166667      2.000000
  0.000000 -0.250000  0.166667      2.000000
  0.142857  0.250000  0.166667      2.000000
  0.142857 -0.250000 -0.166667      2.000000
 -0.142857 -0.250000  0.166667      2.000000
 -0.142857  0.250000 -0.166667      2.000000
  0.285714  0.250000  0.166667      2.000000
  0.285714 -0.250000 -0.166667      2.000000
 -0.285714 -0.250000  0.166667      2.000000
 -0.285714  0.250000 -0.166667      2.000000
  0.428571  0.250000  0.166667      2.000000
  0.428571 -0.250000 -0.166667      2.000000
 -0.428571 -0.250000  0.166667      2.000000
 -0.428571  0.250000 -0.166667      2.000000
  0.000000  0.500000  0.166667      2.000000
  0.142857  0.500000  0.166667      2.000000
  0.142857  0.500000 -0.166667      2.000000
  0.285714  0.500000  0.166667      2.000000
  0.285714  0.500000 -0.166667      2.000000
  0.428571  0.500000  0.166667      2.000000
  0.428571  0.500000 -0.166667      2.000000
  0.000000  0.000000  0.333333      2.000000
  0.142857  0.000000  0.333333      2.000000
  0.142857 -0.000000 -0.333333      2.000000
  0.285714  0.000000  0.333333      2.000000
  0.285714 -0.000000 -0.333333      2.000000
  0.428571  0.000000  0.333333      2.000000
  0.428571 -0.000000 -0.333333      2.000000
  0.000000  0.250000  0.333333      2.000000
  0.000000 -0.250000  0.333333      2.000000
  0.142857  0.250000  0.333333      2.000000
  0.142857 -0.250000 -0.333333      2.000000
 -0.142857 -0.250000  0.333333      2.000000
 -0.142857  0.250000 -0.333333      2.000000
  0.285714  0.250000  0.333333      2.000000
  0.285714 -0.250000 -0.333333      2.000000
 -0.285714 -0.250000  0.333333      2.000000
 -0.285714  0.250000 -0.333333      2.000000
  0.428571  0.250000  0.333333      2.000000
  0.428571 -0.250000 -0.333333      2.000000
 -0.428571 -0.250000  0.333333      2.000000
 -0.428571  0.250000 -0.333333      2.000000
  0.000000  0.500000  0.333333      2.000000
  0.142857  0.500000  0.333333      2.000000
  0.142857  0.500000 -0.333333      2.000000
  0.285714  0.500000  0.333333      2.000000
  0.285714  0.500000 -0.333333      2.000000
  0.428571  0.500000  0.333333      2.000000
  0.428571  0.500000 -0.333333      2.000000
  0.000000  0.000000  0.500000      1.000000
  0.142857  0.000000  0.500000      2.000000
  0.285714  0.000000  0.500000      2.000000
  0.428571  0.000000  0.500000      2.000000
  0.000000  0.250000  0.500000      2.000000
  0.142857  0.250000  0.500000      2.000000
  0.142857 -0.250000  0.500000      2.000000
  0.285714  0.250000  0.500000      2.000000
  0.285714 -0.250000  0.500000      2.000000
  0.428571  0.250000  0.500000      2.000000
  0.428571 -0.250000  0.500000      2.000000
  0.000000  0.500000  0.500000      1.000000
  0.142857  0.500000  0.500000      2.000000
  0.285714  0.500000  0.500000      2.000000
  0.428571  0.500000  0.500000      2.000000
 
 Following cartesian coordinates:
            Coordinates               Weight
  0.000000  0.000000  0.000000      1.000000
  0.030308  0.000000 -0.000000      2.000000
  0.060616  0.000000 -0.000000      2.000000
  0.090924  0.000000 -0.000000      2.000000
  0.000000  0.024748  0.000000      2.000000
  0.030308  0.024748 -0.000000      2.000000
  0.030308 -0.024748 -0.000000      2.000000
  0.060616  0.024748 -0.000000      2.000000
  0.060616 -0.024748 -0.000000      2.000000
  0.090924  0.024748 -0.000000      2.000000
  0.090924 -0.024748 -0.000000      2.000000
  0.000000  0.049495  0.000000      1.000000
  0.030308  0.049495  0.000000      2.000000
  0.060616  0.049495 -0.000000      2.000000
  0.090924  0.049495 -0.000000      2.000000
 -0.000000  0.000000  0.028252      2.000000
  0.030308  0.000000  0.028252      2.000000
  0.030308 -0.000000 -0.028252      2.000000
  0.060616  0.000000  0.028252      2.000000
  0.060616 -0.000000 -0.028252      2.000000
  0.090924  0.000000  0.028252      2.000000
  0.090924 -0.000000 -0.028252      2.000000
 -0.000000  0.024748  0.028252      2.000000
 -0.000000 -0.024748  0.028252      2.000000
  0.030308  0.024748  0.028252      2.000000
  0.030308 -0.024748 -0.028252      2.000000
 -0.030308 -0.024748  0.028252      2.000000
 -0.030308  0.024748 -0.028252      2.000000
  0.060616  0.024748  0.028252      2.000000
  0.060616 -0.024748 -0.028252      2.000000
 -0.060616 -0.024748  0.028252      2.000000
 -0.060616  0.024748 -0.028252      2.000000
  0.090924  0.024748  0.028252      2.000000
  0.090924 -0.024748 -0.028252      2.000000
 -0.090924 -0.024748  0.028252      2.000000
 -0.090924  0.024748 -0.028252      2.000000
 -0.000000  0.049495  0.028252      2.000000
  0.030308  0.049495  0.028252      2.000000
  0.030308  0.049495 -0.028252      2.000000
  0.060616  0.049495  0.028252      2.000000
  0.060616  0.049495 -0.028252      2.000000
  0.090924  0.049495  0.028252      2.000000
  0.090924  0.049495 -0.028252      2.000000
 -0.000000  0.000000  0.056504      2.000000
  0.030308  0.000000  0.056504      2.000000
  0.030308 -0.000000 -0.056504      2.000000
  0.060616  0.000000  0.056504      2.000000
  0.060616 -0.000000 -0.056504      2.000000
  0.090924  0.000000  0.056504      2.000000
  0.090924 -0.000000 -0.056504      2.000000
 -0.000000  0.024748  0.056504      2.000000
 -0.000000 -0.024748  0.056504      2.000000
  0.030308  0.024748  0.056504      2.000000
  0.030308 -0.024748 -0.056504      2.000000
 -0.030308 -0.024748  0.056504      2.000000
 -0.030308  0.024748 -0.056504      2.000000
  0.060616  0.024748  0.056504      2.000000
  0.060616 -0.024748 -0.056504      2.000000
 -0.060616 -0.024748  0.056504      2.000000
 -0.060616  0.024748 -0.056504      2.000000
  0.090924  0.024748  0.056504      2.000000
  0.090924 -0.024748 -0.056504      2.000000
 -0.090924 -0.024748  0.056504      2.000000
 -0.090924  0.024748 -0.056504      2.000000
 -0.000000  0.049495  0.056504      2.000000
  0.030308  0.049495  0.056504      2.000000
  0.030308  0.049495 -0.056504      2.000000
  0.060616  0.049495  0.056504      2.000000
  0.060616  0.049495 -0.056504      2.000000
  0.090924  0.049495  0.056504      2.000000
  0.090924  0.049495 -0.056504      2.000000
 -0.000000  0.000000  0.084755      1.000000
  0.030308  0.000000  0.084755      2.000000
  0.060616  0.000000  0.084755      2.000000
  0.090924  0.000000  0.084755      2.000000
 -0.000000  0.024748  0.084755      2.000000
  0.030308  0.024748  0.084755      2.000000
  0.030308 -0.024748  0.084755      2.000000
  0.060616  0.024748  0.084755      2.000000
  0.060616 -0.024748  0.084755      2.000000
  0.090924  0.024748  0.084755      2.000000
  0.090924 -0.024748  0.084755      2.000000
 -0.000000  0.049495  0.084755      1.000000
  0.030308  0.049495  0.084755      2.000000
  0.060616  0.049495  0.084755      2.000000
  0.090924  0.049495  0.084755      2.000000
 


--------------------------------------------------------------------------------------------------------




 Dimension of arrays:
   k-points           NKPTS =     86   k-points in BZ     NKDIM =     86   number of bands    NBANDS=    153
   number of dos      NEDOS =    301   number of ions     NIONS =     28
   non local maximal  LDIM  =      6   non local SUM 2l+1 LMDIM =     18
   total plane-waves  NPLWV = 138240
   max r-space proj   IRMAX =   5267   max aug-charges    IRDMAX=  16652
   dimension x,y,z NGX =    36 NGY =   80 NGZ =   48
   dimension x,y,z NGXF=    72 NGYF=  160 NGZF=   96
   support grid    NGXF=    72 NGYF=  160 NGZF=   96
   ions per type =               4   8  16
   NGX,Y,Z   is equivalent  to a cutoff of  12.70, 13.17, 13.53 a.u.
   NGXF,Y,Z  is equivalent  to a cutoff of  25.39, 26.33, 27.05 a.u.

 SYSTEM =  unknown system                          
 POSCAR =  Si4 Ni8 O16                             

 Startparameter for this run:
   NWRITE =      2    write-flag & timer
   PREC   = accura    normal or accurate (medium, high low for compatibility)
   ISTART =      0    job   : 0-new  1-cont  2-samecut
   ICHARG =      1    charge: 1-file 2-atom 10-const
   ISPIN  =      2    spin polarized calculation?
   LNONCOLLINEAR =      F non collinear calculations
   LSORBIT =      F    spin-orbit coupling
   INIWAV =      1    electr: 0-lowe 1-rand  2-diag
   LASPH  =      T    aspherical Exc in radial PAW
   METAGGA=      F    non-selfconsistent MetaGGA calc.

 Electronic Relaxation 1
   ENCUT  =  520.0 eV  38.22 Ry    6.18 a.u.   8.76 18.78 10.97*2*pi/ulx,y,z
   ENINI  =  520.0     initial cutoff
   ENAUG  =  703.4 eV  augmentation charge cutoff
   NELM   =    100;   NELMIN=  6; NELMDL= -5     # of ELM steps 
   EDIFF  = 0.1E-04   stopping-criterion for ELM
   LREAL  =      T    real-space projection
   NLSPLINE    = F    spline interpolate recip. space projectors
   LCOMPAT=      F    compatible to vasp.4.4
   GGA_COMPAT  = T    GGA compatible to vasp.4.4-vasp.4.6
   LMAXPAW     = -100 max onsite density
   LMAXMIX     =    4 max onsite mixed and CHGCAR
   VOSKOWN=      0    Vosko Wilk Nusair interpolation
   ROPT   =   -0.00025  -0.00025  -0.00025
 Ionic relaxation
   EDIFFG = -.3E-01   stopping-criterion for IOM
   NSW    =     99    number of steps for IOM
   NBLOCK =      1;   KBLOCK =     99    inner block; outer block 
   IBRION =      2    ionic relax: 0-MD 1-quasi-New 2-CG
   NFREE  =      1    steps in history (QN), initial steepest desc. (CG)
   ISIF   =      3    stress and relaxation
   IWAVPR =     11    prediction:  0-non 1-charg 2-wave 3-comb
   ISYM   =      0    0-nonsym 1-usesym 2-fastsym
   LCORR  =      T    Harris-Foulkes like correction to forces

   POTIM  = 0.5000    time-step for ionic-motion
   TEIN   =    0.0    initial temperature
   TEBEG  =    0.0;   TEEND  =   0.0 temperature during run
   SMASS  =  -3.00    Nose mass-parameter (am)
   estimated Nose-frequenzy (Omega)   =  0.10E-29 period in steps = 0.13E+47 mass=  -0.508E-27a.u.
   SCALEE = 1.0000    scale energy and forces
   NPACO  =    256;   APACO  = 16.0  distance and # of slots for P.C.
   PSTRESS=    0.0 pullay stress

  Mass of Ions in am
   POMASS =  28.09 58.69 16.00
  Ionic Valenz
   ZVAL   =   4.00 16.00  6.00
  Atomic Wigner-Seitz radii
   RWIGS  =  -1.00 -1.00 -1.00
  virtual crystal weights 
   VCA    =   1.00  1.00  1.00
   NELECT =     240.0000    total number of electrons
   NUPDOWN=      -1.0000    fix difference up-down

 DOS related values:
   EMIN   =  10.00;   EMAX   =-10.00  energy-range for DOS
   EFERMI =   0.00
   ISMEAR =     0;   SIGMA  =   0.05  broadening in eV -4-tet -1-fermi 0-gaus

 Electronic relaxation 2 (details)
   IALGO  =     38    algorithm
   LDIAG  =      T    sub-space diagonalisation (order eigenvalues)
   LSUBROT=      F    optimize rotation matrix (better conditioning)
   TURBO    =      0    0=normal 1=particle mesh
   IRESTART =      0    0=no restart 2=restart with 2 vectors
   NREBOOT  =      0    no. of reboots
   NMIN     =      0    reboot dimension
   EREF     =   0.00    reference energy to select bands
   IMIX   =      4    mixing-type and parameters
     AMIX     =   0.40;   BMIX     =  1.00
     AMIX_MAG =   1.60;   BMIX_MAG =  1.00
     AMIN     =   0.10
     WC   =   100.;   INIMIX=   1;  MIXPRE=   1;  MAXMIX= -45

 Intra band minimization:
   WEIMIN = 0.0010     energy-eigenvalue tresh-hold
   EBREAK =  0.16E-07  absolut break condition
   DEPER  =   0.30     relativ break condition  

   TIME   =   0.40     timestep for ELM

  volume/ion in A,a.u.               =      10.03        67.70
  Fermi-wavevector in a.u.,A,eV,Ry     =   1.553437  2.935570 32.833107  2.413165
  Thomas-Fermi vector in A             =   2.657668
 
 Write flags
   LWAVE        =      F    write WAVECAR
   LDOWNSAMPLE  =      F    k-point downsampling of WAVECAR
   LCHARG       =      T    write CHGCAR
   LVTOT        =      F    write LOCPOT, total local potential
   LVHAR        =      F    write LOCPOT, Hartree potential only
   LELF         =      F    write electronic localiz. function (ELF)
   LORBIT       =     11    0 simple, 1 ext, 2 COOP (PROOUT), +10 PAW based schemes


 Dipole corrections
   LMONO  =      F    monopole corrections only (constant potential shift)
   LDIPOL =      F    correct potential (dipole corrections)
   IDIPOL =      0    1-x, 2-y, 3-z, 4-all directions 
   EPSILON=  1.0000000 bulk dielectric constant

 LDA+U is selected, type is set to LDAUTYPE =  2
   angular momentum for each species LDAUL =    -1    2   -1
   U (eV)           for each species LDAUU =   0.0  2.5  0.0
   J (eV)           for each species LDAUJ =   0.0  0.0  0.0
 Exchange correlation treatment:
   GGA     =    --    GGA type
   LEXCH   =     8    internal setting for exchange type
   VOSKOWN=      0    Vosko Wilk Nusair interpolation
   LHFCALC =     F    Hartree Fock is set to
   LHFONE  =     F    Hartree Fock one center treatment
   AEXX    =    0.0000 exact exchange contribution

 Linear response parameters
   LEPSILON=     F    determine dielectric tensor
   LRPA    =     F    only Hartree local field effects (RPA)
   LNABLA  =     F    use nabla operator in PAW spheres
   LVEL    =     F    velocity operator in full k-point grid
   LINTERFAST=   F  fast interpolation
   KINTER  =     0    interpolate to denser k-point grid
   CSHIFT  =0.1000    complex shift for real part using Kramers Kronig
   OMEGAMAX=  -1.0    maximum frequency
   DEG_THRESHOLD= 0.2000000E-02 threshold for treating states as degnerate
   RTIME   =   -0.100 relaxation time in fs
  (WPLASMAI=    0.000 imaginary part of plasma frequency in eV, 0.658/RTIME)
   DFIELD  = 0.0000000 0.0000000 0.0000000 field for delta impulse in time
 
 Orbital magnetization related:
   ORBITALMAG=     F  switch on orbital magnetization
   LCHIMAG   =     F  perturbation theory with respect to B field
   DQ        =  0.001000  dq finite difference perturbation B field
   LLRAUG    =     F  two centre corrections for induced B field



--------------------------------------------------------------------------------------------------------


 conjugate gradient relaxation of ions
 charge density and potential will be updated during run
 spin polarized calculation
 Variant of blocked Davidson
 Davidson routine will perform the subspace rotation
 perform sub-space diagonalisation
    after iterative eigenvector-optimisation
 modified Broyden-mixing scheme, WC =      100.0
 initial mixing is a Kerker type mixing with AMIX =  0.4000 and BMIX =      1.0000
 Hartree-type preconditioning will be used
 using additional bands           33
 real space projection scheme for non local part
 use partial core corrections
 calculate Harris-corrections to forces 
   (improved forces if not selfconsistent)
 use gradient corrections 
 use of overlap-Matrix (Vanderbilt PP)
 Gauss-broadening in eV      SIGMA  =   0.05


--------------------------------------------------------------------------------------------------------


  energy-cutoff  :      520.00
  volume of cell :      280.90
      direct lattice vectors                 reciprocal lattice vectors
     4.713515930 -0.000000090  0.000000526     0.212155855  0.000000004 -0.000000024
    -0.000000203 10.102006351 -0.000000779     0.000000002  0.098990237  0.000000007
     0.000000657 -0.000000445  5.899327602    -0.000000019  0.000000013  0.169510844

  length of vectors
     4.713515930 10.102006351  5.899327602     0.212155855  0.098990237  0.169510844


 
 k-points in units of 2pi/SCALE and weight: K-points file                           
   0.00000000  0.00000000  0.00000000       0.006
   0.03030798  0.00000000 -0.00000000       0.012
   0.06061596  0.00000000 -0.00000001       0.012
   0.09092394  0.00000000 -0.00000001       0.012
   0.00000000  0.02474756  0.00000000       0.012
   0.03030798  0.02474756 -0.00000000       0.012
   0.03030798 -0.02474756 -0.00000001       0.012
   0.06061596  0.02474756 -0.00000000       0.012
   0.06061596 -0.02474756 -0.00000001       0.012
   0.09092394  0.02474756 -0.00000001       0.012
   0.09092394 -0.02474756 -0.00000001       0.012
   0.00000000  0.04949512  0.00000000       0.006
   0.03030798  0.04949512  0.00000000       0.012
   0.06061596  0.04949512 -0.00000000       0.012
   0.09092394  0.04949512 -0.00000001       0.012
  -0.00000000  0.00000000  0.02825181       0.012
   0.03030798  0.00000000  0.02825180       0.012
   0.03030798 -0.00000000 -0.02825181       0.012
   0.06061596  0.00000000  0.02825180       0.012
   0.06061596 -0.00000000 -0.02825181       0.012
   0.09092393  0.00000000  0.02825180       0.012
   0.09092394 -0.00000000 -0.02825182       0.012
  -0.00000000  0.02474756  0.02825181       0.012
  -0.00000000 -0.02474756  0.02825181       0.012
   0.03030798  0.02474756  0.02825181       0.012
   0.03030798 -0.02474756 -0.02825181       0.012
  -0.03030798 -0.02474756  0.02825181       0.012
  -0.03030798  0.02474756 -0.02825180       0.012
   0.06061596  0.02474756  0.02825180       0.012
   0.06061596 -0.02474756 -0.02825182       0.012
  -0.06061596 -0.02474756  0.02825181       0.012
  -0.06061595  0.02474756 -0.02825180       0.012
   0.09092393  0.02474756  0.02825180       0.012
   0.09092394 -0.02474756 -0.02825182       0.012
  -0.09092394 -0.02474756  0.02825182       0.012
  -0.09092393  0.02474756 -0.02825180       0.012
  -0.00000000  0.04949512  0.02825181       0.012
   0.03030798  0.04949512  0.02825181       0.012
   0.03030798  0.04949512 -0.02825181       0.012
   0.06061596  0.04949512  0.02825180       0.012
   0.06061596  0.04949512 -0.02825181       0.012
   0.09092394  0.04949512  0.02825180       0.012
   0.09092394  0.04949512 -0.02825181       0.012
  -0.00000001  0.00000000  0.05650361       0.012
   0.03030797  0.00000000  0.05650361       0.012
   0.03030799 -0.00000000 -0.05650362       0.012
   0.06061595  0.00000001  0.05650361       0.012
   0.06061596 -0.00000000 -0.05650362       0.012
   0.09092393  0.00000001  0.05650360       0.012
   0.09092394 -0.00000000 -0.05650362       0.012
  -0.00000001  0.02474756  0.05650362       0.012
  -0.00000001 -0.02474755  0.05650361       0.012
   0.03030797  0.02474756  0.05650361       0.012
   0.03030799 -0.02474756 -0.05650362       0.012
  -0.03030799 -0.02474756  0.05650362       0.012
  -0.03030797  0.02474755 -0.05650361       0.012
   0.06061595  0.02474756  0.05650361       0.012
   0.06061596 -0.02474756 -0.05650362       0.012
  -0.06061597 -0.02474756  0.05650362       0.012
  -0.06061595  0.02474755 -0.05650361       0.012
   0.09092393  0.02474757  0.05650361       0.012
   0.09092394 -0.02474756 -0.05650363       0.012
  -0.09092394 -0.02474756  0.05650362       0.012
  -0.09092393  0.02474755 -0.05650360       0.012
  -0.00000001  0.04949512  0.05650362       0.012
   0.03030797  0.04949512  0.05650361       0.012
   0.03030799  0.04949511 -0.05650361       0.012
   0.06061595  0.04949512  0.05650361       0.012
   0.06061597  0.04949512 -0.05650362       0.012
   0.09092393  0.04949512  0.05650361       0.012
   0.09092394  0.04949512 -0.05650362       0.012
  -0.00000001  0.00000001  0.08475542       0.006
   0.03030797  0.00000001  0.08475542       0.012
   0.06061595  0.00000001  0.08475542       0.012
   0.09092393  0.00000001  0.08475541       0.012
  -0.00000001  0.02474757  0.08475542       0.012
   0.03030797  0.02474757  0.08475542       0.012
   0.03030797 -0.02474755  0.08475542       0.012
   0.06061595  0.02474757  0.08475542       0.012
   0.06061595 -0.02474755  0.08475541       0.012
   0.09092393  0.02474757  0.08475541       0.012
   0.09092393 -0.02474755  0.08475541       0.012
  -0.00000001  0.04949512  0.08475543       0.006
   0.03030797  0.04949513  0.08475542       0.012
   0.06061595  0.04949513  0.08475542       0.012
   0.09092393  0.04949513  0.08475542       0.012
 
 k-points in reciprocal lattice and weights: K-points file                           
   0.00000000  0.00000000  0.00000000       0.006
   0.14285714 -0.00000000  0.00000000       0.012
   0.28571429  0.00000000  0.00000000       0.012
   0.42857143  0.00000000 -0.00000000       0.012
  -0.00000000  0.25000000 -0.00000000       0.012
   0.14285714  0.25000000  0.00000000       0.012
   0.14285714 -0.25000000  0.00000000       0.012
   0.28571429  0.25000000  0.00000000       0.012
   0.28571429 -0.25000000  0.00000000       0.012
   0.42857143  0.25000000 -0.00000000       0.012
   0.42857143 -0.25000000  0.00000000       0.012
  -0.00000000  0.50000000 -0.00000000       0.006
   0.14285714  0.50000000  0.00000000       0.012
   0.28571429  0.50000000  0.00000000       0.012
   0.42857143  0.50000000  0.00000000       0.012
   0.00000000  0.00000000  0.16666667       0.012
   0.14285714  0.00000000  0.16666667       0.012
   0.14285714 -0.00000000 -0.16666667       0.012
   0.28571429  0.00000000  0.16666667       0.012
   0.28571429 -0.00000000 -0.16666667       0.012
   0.42857143  0.00000000  0.16666667       0.012
   0.42857143 -0.00000000 -0.16666667       0.012
   0.00000000  0.25000000  0.16666667       0.012
   0.00000000 -0.25000000  0.16666667       0.012
   0.14285714  0.25000000  0.16666667       0.012
   0.14285714 -0.25000000 -0.16666667       0.012
  -0.14285714 -0.25000000  0.16666667       0.012
  -0.14285714  0.25000000 -0.16666667       0.012
   0.28571429  0.25000000  0.16666667       0.012
   0.28571429 -0.25000000 -0.16666667       0.012
  -0.28571429 -0.25000000  0.16666667       0.012
  -0.28571429  0.25000000 -0.16666667       0.012
   0.42857143  0.25000000  0.16666667       0.012
   0.42857143 -0.25000000 -0.16666667       0.012
  -0.42857143 -0.25000000  0.16666667       0.012
  -0.42857143  0.25000000 -0.16666667       0.012
   0.00000000  0.50000000  0.16666667       0.012
   0.14285714  0.50000000  0.16666667       0.012
   0.14285714  0.50000000 -0.16666667       0.012
   0.28571429  0.50000000  0.16666667       0.012
   0.28571429  0.50000000 -0.16666667       0.012
   0.42857143  0.50000000  0.16666667       0.012
   0.42857143  0.50000000 -0.16666667       0.012
   0.00000000  0.00000000  0.33333333       0.012
   0.14285714  0.00000000  0.33333333       0.012
   0.14285714 -0.00000000 -0.33333333       0.012
   0.28571429  0.00000000  0.33333333       0.012
   0.28571429 -0.00000000 -0.33333333       0.012
   0.42857143  0.00000000  0.33333333       0.012
   0.42857143 -0.00000000 -0.33333333       0.012
   0.00000000  0.25000000  0.33333333       0.012
   0.00000000 -0.25000000  0.33333333       0.012
   0.14285714  0.25000000  0.33333333       0.012
   0.14285714 -0.25000000 -0.33333333       0.012
  -0.14285714 -0.25000000  0.33333333       0.012
  -0.14285714  0.25000000 -0.33333333       0.012
   0.28571429  0.25000000  0.33333333       0.012
   0.28571429 -0.25000000 -0.33333333       0.012
  -0.28571429 -0.25000000  0.33333333       0.012
  -0.28571429  0.25000000 -0.33333333       0.012
   0.42857143  0.25000000  0.33333333       0.012
   0.42857143 -0.25000000 -0.33333333       0.012
  -0.42857143 -0.25000000  0.33333333       0.012
  -0.42857143  0.25000000 -0.33333333       0.012
   0.00000000  0.50000000  0.33333333       0.012
   0.14285714  0.50000000  0.33333333       0.012
   0.14285714  0.50000000 -0.33333333       0.012
   0.28571429  0.50000000  0.33333333       0.012
   0.28571429  0.50000000 -0.33333333       0.012
   0.42857143  0.50000000  0.33333333       0.012
   0.42857143  0.50000000 -0.33333333       0.012
   0.00000000  0.00000000  0.50000000       0.006
   0.14285714  0.00000000  0.50000000       0.012
   0.28571429  0.00000000  0.50000000       0.012
   0.42857143  0.00000000  0.50000000       0.012
   0.00000000  0.25000000  0.50000000       0.012
   0.14285714  0.25000000  0.50000000       0.012
   0.14285714 -0.25000000  0.50000000       0.012
   0.28571429  0.25000000  0.50000000       0.012
   0.28571429 -0.25000000  0.50000000       0.012
   0.42857143  0.25000000  0.50000000       0.012
   0.42857143 -0.25000000  0.50000000       0.012
   0.00000000  0.50000000  0.50000000       0.006
   0.14285714  0.50000000  0.50000000       0.012
   0.28571429  0.50000000  0.50000000       0.012
   0.42857143  0.50000000  0.50000000       0.012
 
 position of ions in fractional coordinates (direct lattice) 
   0.07130209  0.59454385  0.25000012
   0.42872646  0.09460655  0.24999993
   0.92872638  0.40539347  0.74999995
   0.57130221  0.90545615  0.75000000
   0.50013291  0.50003529  0.99991970
   0.00013351  0.99996459  0.49991932
   0.50013329  0.50003537  0.50008056
   0.00013303  0.99996472  0.00008038
   0.50406379  0.77324002  0.25000010
   0.99582121  0.27324142  0.24999992
   0.49582120  0.22675859  0.74999990
   0.00406388  0.72676003  0.75000016
   0.72877259  0.59353259  0.25000004
   0.77121850  0.09356328  0.24999998
   0.27121845  0.40643671  0.74999998
   0.22877267  0.90646741  0.74999999
   0.28310598  0.94520522  0.24999992
   0.21696599  0.44518616  0.25000003
   0.71696609  0.05481383  0.74999989
   0.78310590  0.55479478  0.75000013
   0.22396276  0.66346945  0.02939040
   0.27591571  0.16347954  0.47056582
   0.77591572  0.33652049  0.52943403
   0.72396274  0.83653058  0.97060975
   0.77591564  0.33652042  0.97056576
   0.72396283  0.83653053  0.52939025
   0.22396272  0.66346943  0.47060987
   0.27591576  0.16347953  0.02943412
 
 position of ions in cartesian coordinates  (Angst):
   0.33608360  6.00608566  1.47483220
   2.02080914  0.95571580  1.47483162
   4.37756698  4.09528698  4.42449555
   2.69284236  9.14692340  4.42449527
   2.35738500  5.05135915  5.89885375
   0.00062943 10.10164840  2.94918707
   2.35738644  5.05136026  2.95013895
   0.00062683 10.10164994  0.00047341
   2.37591270  7.81127547  1.47483216
   4.69381926  2.76028634  1.47483172
   2.33706159  2.29071636  4.42449522
   0.01915550  7.34173414  4.42449606
   3.43508126  5.99586977  1.47483206
   3.63515085  0.94517668  1.47483212
   1.27839289  4.10582582  4.42449543
   1.07832395  9.15713922  4.42449509
   1.33442452  9.54846901  1.47483084
   1.02267271  4.49727327  1.47483186
   3.37943156  0.55372929  4.42449537
   3.69118250  5.60453996  4.42449644
   1.05565192  6.70237259  0.17338318
   1.30053335  1.65147108  2.77602196
   3.65729138  3.39953179  3.12330493
   3.41241037  8.45063677  5.72594463
   3.65729132  3.39953094  5.72568550
   3.41241051  8.45063646  3.12304624
   1.05565204  6.70237212  2.77628142
   1.30053332  1.65147118  0.17364154
 


--------------------------------------------------------------------------------------------------------


 k-point   1 :   0.0000 0.0000 0.0000  plane waves:    7525
 k-point   2 :   0.1429-0.0000 0.0000  plane waves:    7543
 k-point   3 :   0.2857 0.0000 0.0000  plane waves:    7554
 k-point   4 :   0.4286 0.0000-0.0000  plane waves:    7554
 k-point   5 :  -0.0000 0.2500-0.0000  plane waves:    7534
 k-point   6 :   0.1429 0.2500 0.0000  plane waves:    7535
 k-point   7 :   0.1429-0.2500 0.0000  plane waves:    7535
 k-point   8 :   0.2857 0.2500 0.0000  plane waves:    7554
 k-point   9 :   0.2857-0.2500 0.0000  plane waves:    7554
 k-point  10 :   0.4286 0.2500-0.0000  plane waves:    7564
 k-point  11 :   0.4286-0.2500 0.0000  plane waves:    7564
 k-point  12 :  -0.0000 0.5000-0.0000  plane waves:    7554
 k-point  13 :   0.1429 0.5000 0.0000  plane waves:    7558
 k-point  14 :   0.2857 0.5000 0.0000  plane waves:    7552
 k-point  15 :   0.4286 0.5000 0.0000  plane waves:    7558
 k-point  16 :   0.0000 0.0000 0.1667  plane waves:    7576
 k-point  17 :   0.1429 0.0000 0.1667  plane waves:    7550
 k-point  18 :   0.1429-0.0000-0.1667  plane waves:    7550
 k-point  19 :   0.2857 0.0000 0.1667  plane waves:    7560
 k-point  20 :   0.2857-0.0000-0.1667  plane waves:    7560
 k-point  21 :   0.4286 0.0000 0.1667  plane waves:    7557
 k-point  22 :   0.4286-0.0000-0.1667  plane waves:    7557
 k-point  23 :   0.0000 0.2500 0.1667  plane waves:    7560
 k-point  24 :   0.0000-0.2500 0.1667  plane waves:    7560
 k-point  25 :   0.1429 0.2500 0.1667  plane waves:    7553
 k-point  26 :   0.1429-0.2500-0.1667  plane waves:    7553
 k-point  27 :  -0.1429-0.2500 0.1667  plane waves:    7553
 k-point  28 :  -0.1429 0.2500-0.1667  plane waves:    7553
 k-point  29 :   0.2857 0.2500 0.1667  plane waves:    7558
 k-point  30 :   0.2857-0.2500-0.1667  plane waves:    7558
 k-point  31 :  -0.2857-0.2500 0.1667  plane waves:    7558
 k-point  32 :  -0.2857 0.2500-0.1667  plane waves:    7558
 k-point  33 :   0.4286 0.2500 0.1667  plane waves:    7561
 k-point  34 :   0.4286-0.2500-0.1667  plane waves:    7561
 k-point  35 :  -0.4286-0.2500 0.1667  plane waves:    7561
 k-point  36 :  -0.4286 0.2500-0.1667  plane waves:    7561
 k-point  37 :   0.0000 0.5000 0.1667  plane waves:    7566
 k-point  38 :   0.1429 0.5000 0.1667  plane waves:    7546
 k-point  39 :   0.1429 0.5000-0.1667  plane waves:    7546
 k-point  40 :   0.2857 0.5000 0.1667  plane waves:    7554
 k-point  41 :   0.2857 0.5000-0.1667  plane waves:    7554
 k-point  42 :   0.4286 0.5000 0.1667  plane waves:    7580
 k-point  43 :   0.4286 0.5000-0.1667  plane waves:    7580
 k-point  44 :   0.0000 0.0000 0.3333  plane waves:    7566
 k-point  45 :   0.1429 0.0000 0.3333  plane waves:    7554
 k-point  46 :   0.1429-0.0000-0.3333  plane waves:    7554
 k-point  47 :   0.2857 0.0000 0.3333  plane waves:    7553
 k-point  48 :   0.2857-0.0000-0.3333  plane waves:    7553
 k-point  49 :   0.4286 0.0000 0.3333  plane waves:    7578
 k-point  50 :   0.4286-0.0000-0.3333  plane waves:    7578
 k-point  51 :   0.0000 0.2500 0.3333  plane waves:    7564
 k-point  52 :   0.0000-0.2500 0.3333  plane waves:    7564
 k-point  53 :   0.1429 0.2500 0.3333  plane waves:    7578
 k-point  54 :   0.1429-0.2500-0.3333  plane waves:    7578
 k-point  55 :  -0.1429-0.2500 0.3333  plane waves:    7578
 k-point  56 :  -0.1429 0.2500-0.3333  plane waves:    7578
 k-point  57 :   0.2857 0.2500 0.3333  plane waves:    7565
 k-point  58 :   0.2857-0.2500-0.3333  plane waves:    7565
 k-point  59 :  -0.2857-0.2500 0.3333  plane waves:    7565
 k-point  60 :  -0.2857 0.2500-0.3333  plane waves:    7565
 k-point  61 :   0.4286 0.2500 0.3333  plane waves:    7566
 k-point  62 :   0.4286-0.2500-0.3333  plane waves:    7566
 k-point  63 :  -0.4286-0.2500 0.3333  plane waves:    7566
 k-point  64 :  -0.4286 0.2500-0.3333  plane waves:    7566
 k-point  65 :   0.0000 0.5000 0.3333  plane waves:    7568
 k-point  66 :   0.1429 0.5000 0.3333  plane waves:    7582
 k-point  67 :   0.1429 0.5000-0.3333  plane waves:    7582
 k-point  68 :   0.2857 0.5000 0.3333  plane waves:    7560
 k-point  69 :   0.2857 0.5000-0.3333  plane waves:    7560
 k-point  70 :   0.4286 0.5000 0.3333  plane waves:    7566
 k-point  71 :   0.4286 0.5000-0.3333  plane waves:    7566
 k-point  72 :   0.0000 0.0000 0.5000  plane waves:    7578
 k-point  73 :   0.1429 0.0000 0.5000  plane waves:    7570
 k-point  74 :   0.2857 0.0000 0.5000  plane waves:    7572
 k-point  75 :   0.4286 0.0000 0.5000  plane waves:    7574
 k-point  76 :   0.0000 0.2500 0.5000  plane waves:    7572
 k-point  77 :   0.1429 0.2500 0.5000  plane waves:    7574
 k-point  78 :   0.1429-0.2500 0.5000  plane waves:    7574
 k-point  79 :   0.2857 0.2500 0.5000  plane waves:    7570
 k-point  80 :   0.2857-0.2500 0.5000  plane waves:    7570
 k-point  81 :   0.4286 0.2500 0.5000  plane waves:    7566
 k-point  82 :   0.4286-0.2500 0.5000  plane waves:    7566
 k-point  83 :   0.0000 0.5000 0.5000  plane waves:    7584
 k-point  84 :   0.1429 0.5000 0.5000  plane waves:    7600
 k-point  85 :   0.2857 0.5000 0.5000  plane waves:    7580
 k-point  86 :   0.4286 0.5000 0.5000  plane waves:    7540

 maximum and minimum number of plane-waves per node :      1927     1867

 maximum number of plane-waves:      7600
 maximum index in each direction: 
   IXMAX=    9   IYMAX=   19   IZMAX=   11
   IXMIN=   -9   IYMIN=  -19   IZMIN=  -11


 real space projection operators:
  total allocation   :       9559.47 KBytes
  max/ min on nodes  :       2398.19       2381.55


 parallel 3D FFT for wavefunctions:
    minimum data exchange during FFTs selected (reduces bandwidth)
 parallel 3D FFT for charge:
    minimum data exchange during FFTs selected (reduces bandwidth)


 total amount of memory used by VASP MPI-rank0   332893. kBytes
=======================================================================

   base      :      30000. kBytes
   nonlr-proj:       5421. kBytes
   fftplans  :       4176. kBytes
   grid      :      14761. kBytes
   one-center:        217. kBytes
   wavefun   :     278318. kBytes
 
     INWAV:  cpu time    0.0000: real time    0.0000
 Broyden mixing: mesh for mixing (old mesh)
   NGX = 17   NGY = 37   NGZ = 21
  (NGX  = 72   NGY  =160   NGZ  = 96)
  gives a total of  13209 points

 initial charge density was supplied:
 number of electron     240.0000015 magnetization      15.9999992
 keeping initial charge density in first step


--------------------------------------------------------------------------------------------------------


 Maximum index for non-local projection operator         1285
 Maximum index for augmentation-charges         1329 (set IRDMAX)


--------------------------------------------------------------------------------------------------------


 First call to EWALD:  gamma=   0.271
 Maximum number of real-space cells 4x 2x 3
 Maximum number of reciprocal cells 2x 4x 3

    FEWALD:  cpu time    0.0012: real time    0.0012


--------------------------------------- Iteration      1(   1)  ---------------------------------------


    POTLOK:  cpu time    0.3547: real time    0.3547
    SETDIJ:  cpu time    1.4676: real time    1.4679
atom =   5  type =  2  l = 2
 
 onsite density matrix
 
spin component  1
 
  0.9714  0.0015  0.0126  0.0017  0.0068
  0.0015  0.9567 -0.0008  0.0162 -0.0031
  0.0126 -0.0008  0.9581 -0.0003  0.0043
  0.0017  0.0162 -0.0003  0.9743 -0.0031
  0.0068 -0.0031  0.0043 -0.0031  0.9524
 
spin component  2
 
  0.3948 -0.0395 -0.3294 -0.0091 -0.1992
 -0.0395  0.6895 -0.0100 -0.3761  0.0136
 -0.3294 -0.0100  0.7484  0.0181 -0.1211
 -0.0091 -0.3761  0.0181  0.3759  0.0415
 -0.1992  0.0136 -0.1211  0.0415  0.8704
 
 occupancies and eigenvectors
 
  o =  0.1157  v =  0.0000  0.0000  0.0000  0.0000  0.0000 -0.5701 -0.4343 -0.3173 -0.6000 -0.1606      0.0000  0.0000  0.0000  0.0000  0.0000  0.0000  0.0000  0.0000  0.0000  0.0000
  o =  0.1296  v =  0.0000  0.0000  0.0000  0.0000  0.0000  0.5869 -0.3445  0.3741 -0.5751  0.2575      0.0000  0.0000  0.0000  0.0000  0.0000  0.0000  0.0000  0.0000  0.0000  0.0000
  o =  0.9410  v =  0.0000  0.0000  0.0000  0.0000  0.0000  0.2322 -0.7871 -0.1701  0.4984 -0.2219      0.0000  0.0000  0.0000  0.0000  0.0000  0.0000  0.0000  0.0000  0.0000  0.0000
  o =  0.9462  v =  0.0000  0.0000  0.0000  0.0000  0.0000 -0.0935 -0.1167 -0.3795  0.1321  0.9034      0.0000  0.0000  0.0000  0.0000  0.0000  0.0000  0.0000  0.0000  0.0000  0.0000
  o =  0.9465  v = -0.1556  0.8240  0.1021 -0.4370  0.3088  0.0000  0.0000  0.0000  0.0000  0.0000      0.0000  0.0000  0.0000  0.0000  0.0000  0.0000  0.0000  0.0000  0.0000  0.0000
  o =  0.9466  v =  0.0000  0.0000  0.0000  0.0000  0.0000  0.5176  0.2443 -0.7658 -0.2085 -0.2061      0.0000  0.0000  0.0000  0.0000  0.0000  0.0000  0.0000  0.0000  0.0000  0.0000
  o =  0.9499  v = -0.0528 -0.1698 -0.3911  0.2252  0.8744  0.0000  0.0000  0.0000  0.0000  0.0000      0.0000  0.0000  0.0000  0.0000  0.0000  0.0000  0.0000  0.0000  0.0000  0.0000
  o =  0.9505  v =  0.5409  0.1763 -0.7660 -0.1978 -0.2247  0.0000  0.0000  0.0000  0.0000  0.0000      0.0000  0.0000  0.0000  0.0000  0.0000  0.0000  0.0000  0.0000  0.0000  0.0000
  o =  0.9812  v = -0.8114  0.0636 -0.4989  0.0918 -0.2835  0.0000  0.0000  0.0000  0.0000  0.0000      0.0000  0.0000  0.0000  0.0000  0.0000  0.0000  0.0000  0.0000  0.0000  0.0000
  o =  0.9847  v =  0.1488  0.5070  0.0320  0.8430 -0.0954  0.0000  0.0000  0.0000  0.0000  0.0000      0.0000  0.0000  0.0000  0.0000  0.0000  0.0000  0.0000  0.0000  0.0000  0.0000
atom =   6  type =  2  l = 2
 
 onsite density matrix
 
spin component  1
 
  0.9714  0.0015 -0.0126 -0.0017 -0.0068
  0.0015  0.9567  0.0008 -0.0162  0.0031
 -0.0126  0.0008  0.9581 -0.0003  0.0043
 -0.0017 -0.0162 -0.0003  0.9743 -0.0031
 -0.0068  0.0031  0.0043 -0.0031  0.9524
 
spin component  2
 
  0.3948 -0.0395  0.3294  0.0091  0.1992
 -0.0395  0.6895  0.0100  0.3761 -0.0136
  0.3294  0.0100  0.7484  0.0181 -0.1211
  0.0091  0.3761  0.0181  0.3759  0.0415
  0.1992 -0.0136 -0.1211  0.0415  0.8704
 
 occupancies and eigenvectors
 
  o =  0.1157  v =  0.0000  0.0000  0.0000  0.0000  0.0000  0.5701  0.4343 -0.3173 -0.6000 -0.1606      0.0000  0.0000  0.0000  0.0000  0.0000  0.0000  0.0000  0.0000  0.0000  0.0000
  o =  0.1296  v =  0.0000  0.0000  0.0000  0.0000  0.0000 -0.5869  0.3445  0.3741 -0.5751  0.2575      0.0000  0.0000  0.0000  0.0000  0.0000  0.0000  0.0000  0.0000  0.0000  0.0000
  o =  0.9410  v =  0.0000  0.0000  0.0000  0.0000  0.0000 -0.2322  0.7871 -0.1701  0.4984 -0.2219      0.0000  0.0000  0.0000  0.0000  0.0000  0.0000  0.0000  0.0000  0.0000  0.0000
  o =  0.9462  v =  0.0000  0.0000  0.0000  0.0000  0.0000  0.0933  0.1165 -0.3797  0.1320  0.9034      0.0000  0.0000  0.0000  0.0000  0.0000  0.0000  0.0000  0.0000  0.0000  0.0000
  o =  0.9465  v = -0.1556  0.8240 -0.1021  0.4370 -0.3088  0.0000  0.0000  0.0000  0.0000  0.0000      0.0000  0.0000  0.0000  0.0000  0.0000  0.0000  0.0000  0.0000  0.0000  0.0000
  o =  0.9466  v =  0.0000  0.0000  0.0000  0.0000  0.0000 -0.5176 -0.2443 -0.7657 -0.2086 -0.2064      0.0000  0.0000  0.0000  0.0000  0.0000  0.0000  0.0000  0.0000  0.0000  0.0000
  o =  0.9499  v =  0.0527  0.1697 -0.3914  0.2251  0.8744  0.0000  0.0000  0.0000  0.0000  0.0000      0.0000  0.0000  0.0000  0.0000  0.0000  0.0000  0.0000  0.0000  0.0000  0.0000
  o =  0.9505  v =  0.5409  0.1764  0.7658  0.1979  0.2250  0.0000  0.0000  0.0000  0.0000  0.0000      0.0000  0.0000  0.0000  0.0000  0.0000  0.0000  0.0000  0.0000  0.0000  0.0000
  o =  0.9812  v = -0.8114  0.0635  0.4989 -0.0918  0.2835  0.0000  0.0000  0.0000  0.0000  0.0000      0.0000  0.0000  0.0000  0.0000  0.0000  0.0000  0.0000  0.0000  0.0000  0.0000
  o =  0.9847  v =  0.1487  0.5070 -0.0320 -0.8430  0.0954  0.0000  0.0000  0.0000  0.0000  0.0000      0.0000  0.0000  0.0000  0.0000  0.0000  0.0000  0.0000  0.0000  0.0000  0.0000
atom =   7  type =  2  l = 2
 
 onsite density matrix
 
spin component  1
 
  0.9714 -0.0015  0.0126 -0.0017  0.0068
 -0.0015  0.9567  0.0008  0.0162  0.0031
  0.0126  0.0008  0.9581  0.0003  0.0043
 -0.0017  0.0162  0.0003  0.9743  0.0031
  0.0068  0.0031  0.0043  0.0031  0.9524
 
spin component  2
 
  0.3948  0.0395 -0.3294  0.0091 -0.1992
  0.0395  0.6895  0.0100 -0.3761 -0.0136
 -0.3294  0.0100  0.7484 -0.0181 -0.1211
  0.0091 -0.3761 -0.0181  0.3759 -0.0415
 -0.1992 -0.0136 -0.1211 -0.0415  0.8704
 
 occupancies and eigenvectors
 
  o =  0.1157  v =  0.0000  0.0000  0.0000  0.0000  0.0000  0.5701 -0.4343  0.3172 -0.6000  0.1606      0.0000  0.0000  0.0000  0.0000  0.0000  0.0000  0.0000  0.0000  0.0000  0.0000
  o =  0.1296  v =  0.0000  0.0000  0.0000  0.0000  0.0000 -0.5869 -0.3445 -0.3741 -0.5750 -0.2575      0.0000  0.0000  0.0000  0.0000  0.0000  0.0000  0.0000  0.0000  0.0000  0.0000
  o =  0.9410  v =  0.0000  0.0000  0.0000  0.0000  0.0000  0.2322  0.7871 -0.1701 -0.4984 -0.2219      0.0000  0.0000  0.0000  0.0000  0.0000  0.0000  0.0000  0.0000  0.0000  0.0000
  o =  0.9462  v =  0.0000  0.0000  0.0000  0.0000  0.0000  0.0935 -0.1167  0.3796  0.1321 -0.9034      0.0000  0.0000  0.0000  0.0000  0.0000  0.0000  0.0000  0.0000  0.0000  0.0000
  o =  0.9465  v = -0.1556 -0.8240  0.1021  0.4370  0.3089  0.0000  0.0000  0.0000  0.0000  0.0000      0.0000  0.0000  0.0000  0.0000  0.0000  0.0000  0.0000  0.0000  0.0000  0.0000
  o =  0.9466  v =  0.0000  0.0000  0.0000  0.0000  0.0000 -0.5176  0.2443  0.7658 -0.2085  0.2062      0.0000  0.0000  0.0000  0.0000  0.0000  0.0000  0.0000  0.0000  0.0000  0.0000
  o =  0.9499  v = -0.0527  0.1698 -0.3913 -0.2252  0.8744  0.0000  0.0000  0.0000  0.0000  0.0000      0.0000  0.0000  0.0000  0.0000  0.0000  0.0000  0.0000  0.0000  0.0000  0.0000
  o =  0.9505  v =  0.5409 -0.1764 -0.7659  0.1979 -0.2249  0.0000  0.0000  0.0000  0.0000  0.0000      0.0000  0.0000  0.0000  0.0000  0.0000  0.0000  0.0000  0.0000  0.0000  0.0000
  o =  0.9812  v = -0.8114 -0.0636 -0.4989 -0.0918 -0.2835  0.0000  0.0000  0.0000  0.0000  0.0000      0.0000  0.0000  0.0000  0.0000  0.0000  0.0000  0.0000  0.0000  0.0000  0.0000
  o =  0.9847  v =  0.1488 -0.5070  0.0320 -0.8430 -0.0954  0.0000  0.0000  0.0000  0.0000  0.0000      0.0000  0.0000  0.0000  0.0000  0.0000  0.0000  0.0000  0.0000  0.0000  0.0000
atom =   8  type =  2  l = 2
 
 onsite density matrix
 
spin component  1
 
  0.9714 -0.0015 -0.0126  0.0017 -0.0068
 -0.0015  0.9567 -0.0008 -0.0162 -0.0031
 -0.0126 -0.0008  0.9581  0.0003  0.0043
  0.0017 -0.0162  0.0003  0.9743  0.0031
 -0.0068 -0.0031  0.0043  0.0031  0.9524
 
spin component  2
 
  0.3948  0.0395  0.3294 -0.0091  0.1992
  0.0395  0.6895 -0.0100  0.3761  0.0136
  0.3294 -0.0100  0.7484 -0.0181 -0.1211
 -0.0091  0.3761 -0.0181  0.3759 -0.0415
  0.1992  0.0136 -0.1211 -0.0415  0.8704
 
 occupancies and eigenvectors
 
  o =  0.1157  v =  0.0000  0.0000  0.0000  0.0000  0.0000 -0.5701  0.4343  0.3173 -0.6000  0.1606      0.0000  0.0000  0.0000  0.0000  0.0000  0.0000  0.0000  0.0000  0.0000  0.0000
  o =  0.1296  v =  0.0000  0.0000  0.0000  0.0000  0.0000  0.5869  0.3445 -0.3741 -0.5751 -0.2575      0.0000  0.0000  0.0000  0.0000  0.0000  0.0000  0.0000  0.0000  0.0000  0.0000
  o =  0.9410  v =  0.0000  0.0000  0.0000  0.0000  0.0000 -0.2322 -0.7871 -0.1701 -0.4984 -0.2219      0.0000  0.0000  0.0000  0.0000  0.0000  0.0000  0.0000  0.0000  0.0000  0.0000
  o =  0.9462  v =  0.0000  0.0000  0.0000  0.0000  0.0000 -0.0935  0.1166  0.3795  0.1321 -0.9034      0.0000  0.0000  0.0000  0.0000  0.0000  0.0000  0.0000  0.0000  0.0000  0.0000
  o =  0.9465  v = -0.1556 -0.8240 -0.1021 -0.4370 -0.3088  0.0000  0.0000  0.0000  0.0000  0.0000      0.0000  0.0000  0.0000  0.0000  0.0000  0.0000  0.0000  0.0000  0.0000  0.0000
  o =  0.9466  v =  0.0000  0.0000  0.0000  0.0000  0.0000  0.5176 -0.2443  0.7658 -0.2085  0.2061      0.0000  0.0000  0.0000  0.0000  0.0000  0.0000  0.0000  0.0000  0.0000  0.0000
  o =  0.9499  v =  0.0528 -0.1698 -0.3911 -0.2252  0.8745  0.0000  0.0000  0.0000  0.0000  0.0000      0.0000  0.0000  0.0000  0.0000  0.0000  0.0000  0.0000  0.0000  0.0000  0.0000
  o =  0.9505  v =  0.5409 -0.1764  0.7660 -0.1979  0.2247  0.0000  0.0000  0.0000  0.0000  0.0000      0.0000  0.0000  0.0000  0.0000  0.0000  0.0000  0.0000  0.0000  0.0000  0.0000
  o =  0.9812  v = -0.8114 -0.0636  0.4989  0.0918  0.2835  0.0000  0.0000  0.0000  0.0000  0.0000      0.0000  0.0000  0.0000  0.0000  0.0000  0.0000  0.0000  0.0000  0.0000  0.0000
  o =  0.9847  v =  0.1488 -0.5070 -0.0320  0.8430  0.0954  0.0000  0.0000  0.0000  0.0000  0.0000      0.0000  0.0000  0.0000  0.0000  0.0000  0.0000  0.0000  0.0000  0.0000  0.0000
atom =   9  type =  2  l = 2
 
 onsite density matrix
 
spin component  1
 
  0.9692  0.0000  0.0130  0.0000  0.0084
  0.0000  0.9610  0.0000  0.0125  0.0000
  0.0130  0.0000  0.9600 -0.0000  0.0065
  0.0000  0.0125 -0.0000  0.9689  0.0000
  0.0084  0.0000  0.0065  0.0000  0.9529
 
spin component  2
 
  0.4353  0.0000 -0.3441  0.0000 -0.2193
  0.0000  0.6830  0.0000 -0.3914 -0.0000
 -0.3441  0.0000  0.7128  0.0000 -0.1480
  0.0000 -0.3914  0.0000  0.3671 -0.0000
 -0.2193 -0.0000 -0.1480 -0.0000  0.8499
 
 occupancies and eigenvectors
 
  o =  0.1030  v =  0.0000  0.0000  0.0000  0.0000  0.0000 -0.0000  0.5593 -0.0000  0.8289 -0.0000      0.0000  0.0000  0.0000  0.0000  0.0000  0.0000  0.0000  0.0000  0.0000  0.0000
  o =  0.1085  v =  0.0000  0.0000  0.0000  0.0000  0.0000  0.7806  0.0000  0.5269  0.0000  0.3362      0.0000  0.0000  0.0000  0.0000  0.0000  0.0000  0.0000  0.0000  0.0000  0.0000
  o =  0.9443  v =  0.0000  0.0000  0.0000  0.0000  0.0000 -0.2303  0.0000 -0.2575 -0.0000  0.9384      0.0000  0.0000  0.0000  0.0000  0.0000  0.0000  0.0000  0.0000  0.0000  0.0000
  o =  0.9451  v =  0.0000  0.0000  0.0000  0.0000  0.0000 -0.5810  0.0000  0.8100 -0.0000  0.0796      0.0000  0.0000  0.0000  0.0000  0.0000  0.0000  0.0000  0.0000  0.0000  0.0000
  o =  0.9471  v =  0.0000  0.0000  0.0000  0.0000  0.0000  0.0000  0.8289 -0.0000 -0.5593 -0.0000      0.0000  0.0000  0.0000  0.0000  0.0000  0.0000  0.0000  0.0000  0.0000  0.0000
  o =  0.9489  v = -0.1443  0.0000 -0.3706 -0.0000  0.9175  0.0000  0.0000  0.0000  0.0000  0.0000      0.0000  0.0000  0.0000  0.0000  0.0000  0.0000  0.0000  0.0000  0.0000  0.0000
  o =  0.9509  v =  0.6291 -0.0000 -0.7501  0.0000 -0.2041  0.0000  0.0000  0.0000  0.0000  0.0000      0.0000  0.0000  0.0000  0.0000  0.0000  0.0000  0.0000  0.0000  0.0000  0.0000
  o =  0.9518  v = -0.0000 -0.8062  0.0000  0.5916  0.0000  0.0000  0.0000  0.0000  0.0000  0.0000      0.0000  0.0000  0.0000  0.0000  0.0000  0.0000  0.0000  0.0000  0.0000  0.0000
  o =  0.9780  v =  0.0000 -0.5916  0.0000 -0.8062  0.0000  0.0000  0.0000  0.0000  0.0000  0.0000      0.0000  0.0000  0.0000  0.0000  0.0000  0.0000  0.0000  0.0000  0.0000  0.0000
  o =  0.9823  v = -0.7638 -0.0000 -0.5477 -0.0000 -0.3414  0.0000  0.0000  0.0000  0.0000  0.0000      0.0000  0.0000  0.0000  0.0000  0.0000  0.0000  0.0000  0.0000  0.0000  0.0000
atom =  10  type =  2  l = 2
 
 onsite density matrix
 
spin component  1
 
  0.9692 -0.0000 -0.0130  0.0000 -0.0084
 -0.0000  0.9610  0.0000 -0.0125 -0.0000
 -0.0130  0.0000  0.9600 -0.0000  0.0065
  0.0000 -0.0125 -0.0000  0.9689 -0.0000
 -0.0084 -0.0000  0.0065 -0.0000  0.9529
 
spin component  2
 
  0.4347  0.0000  0.3442 -0.0000  0.2189
  0.0000  0.6831  0.0000  0.3913  0.0000
  0.3442  0.0000  0.7130 -0.0000 -0.1475
 -0.0000  0.3913 -0.0000  0.3671 -0.0000
  0.2189  0.0000 -0.1475 -0.0000  0.8504
 
 occupancies and eigenvectors
 
  o =  0.1031  v =  0.0000  0.0000  0.0000  0.0000  0.0000  0.0000  0.5593 -0.0000 -0.8290 -0.0000      0.0000  0.0000  0.0000  0.0000  0.0000  0.0000  0.0000  0.0000  0.0000  0.0000
  o =  0.1086  v =  0.0000  0.0000  0.0000  0.0000  0.0000  0.7811 -0.0000 -0.5267  0.0000 -0.3353      0.0000  0.0000  0.0000  0.0000  0.0000  0.0000  0.0000  0.0000  0.0000  0.0000
  o =  0.9443  v =  0.0000  0.0000  0.0000  0.0000  0.0000 -0.2386 -0.0000  0.2445 -0.0000 -0.9398      0.0000  0.0000  0.0000  0.0000  0.0000  0.0000  0.0000  0.0000  0.0000  0.0000
  o =  0.9451  v =  0.0000  0.0000  0.0000  0.0000  0.0000 -0.5770  0.0000 -0.8141  0.0000 -0.0653      0.0000  0.0000  0.0000  0.0000  0.0000  0.0000  0.0000  0.0000  0.0000  0.0000
  o =  0.9471  v =  0.0000  0.0000  0.0000  0.0000  0.0000 -0.0000 -0.8290 -0.0000 -0.5593  0.0000      0.0000  0.0000  0.0000  0.0000  0.0000  0.0000  0.0000  0.0000  0.0000  0.0000
  o =  0.9489  v = -0.1435 -0.0000  0.3708 -0.0000 -0.9176  0.0000  0.0000  0.0000  0.0000  0.0000      0.0000  0.0000  0.0000  0.0000  0.0000  0.0000  0.0000  0.0000  0.0000  0.0000
  o =  0.9509  v = -0.6290  0.0000 -0.7500  0.0000 -0.2047  0.0000  0.0000  0.0000  0.0000  0.0000      0.0000  0.0000  0.0000  0.0000  0.0000  0.0000  0.0000  0.0000  0.0000  0.0000
  o =  0.9518  v =  0.0000 -0.8061 -0.0000 -0.5917  0.0000  0.0000  0.0000  0.0000  0.0000  0.0000      0.0000  0.0000  0.0000  0.0000  0.0000  0.0000  0.0000  0.0000  0.0000  0.0000
  o =  0.9780  v =  0.0000  0.5917 -0.0000 -0.8061 -0.0000  0.0000  0.0000  0.0000  0.0000  0.0000      0.0000  0.0000  0.0000  0.0000  0.0000  0.0000  0.0000  0.0000  0.0000  0.0000
  o =  0.9823  v = -0.7640  0.0000  0.5478 -0.0000  0.3408  0.0000  0.0000  0.0000  0.0000  0.0000      0.0000  0.0000  0.0000  0.0000  0.0000  0.0000  0.0000  0.0000  0.0000  0.0000
atom =  11  type =  2  l = 2
 
 onsite density matrix
 
spin component  1
 
  0.9692  0.0000  0.0130  0.0000  0.0084
  0.0000  0.9610 -0.0000  0.0125  0.0000
  0.0130 -0.0000  0.9600  0.0000  0.0065
  0.0000  0.0125  0.0000  0.9689  0.0000
  0.0084  0.0000  0.0065  0.0000  0.9529
 
spin component  2
 
  0.4347  0.0000 -0.3442 -0.0000 -0.2189
  0.0000  0.6831  0.0000 -0.3913 -0.0000
 -0.3442  0.0000  0.7130 -0.0000 -0.1475
 -0.0000 -0.3913 -0.0000  0.3671 -0.0000
 -0.2189 -0.0000 -0.1475 -0.0000  0.8504
 
 occupancies and eigenvectors
 
  o =  0.1031  v =  0.0000  0.0000  0.0000  0.0000  0.0000  0.0000 -0.5593  0.0000 -0.8290  0.0000      0.0000  0.0000  0.0000  0.0000  0.0000  0.0000  0.0000  0.0000  0.0000  0.0000
  o =  0.1086  v =  0.0000  0.0000  0.0000  0.0000  0.0000  0.7811  0.0000  0.5267  0.0000  0.3353      0.0000  0.0000  0.0000  0.0000  0.0000  0.0000  0.0000  0.0000  0.0000  0.0000
  o =  0.9443  v =  0.0000  0.0000  0.0000  0.0000  0.0000  0.2385 -0.0000  0.2445  0.0000 -0.9398      0.0000  0.0000  0.0000  0.0000  0.0000  0.0000  0.0000  0.0000  0.0000  0.0000
  o =  0.9451  v =  0.0000  0.0000  0.0000  0.0000  0.0000 -0.5770 -0.0000  0.8141  0.0000  0.0654      0.0000  0.0000  0.0000  0.0000  0.0000  0.0000  0.0000  0.0000  0.0000  0.0000
  o =  0.9471  v =  0.0000  0.0000  0.0000  0.0000  0.0000 -0.0000  0.8290  0.0000 -0.5593 -0.0000      0.0000  0.0000  0.0000  0.0000  0.0000  0.0000  0.0000  0.0000  0.0000  0.0000
  o =  0.9489  v = -0.1435  0.0000 -0.3708 -0.0000  0.9175  0.0000  0.0000  0.0000  0.0000  0.0000      0.0000  0.0000  0.0000  0.0000  0.0000  0.0000  0.0000  0.0000  0.0000  0.0000
  o =  0.9509  v =  0.6290 -0.0000 -0.7499  0.0000 -0.2047  0.0000  0.0000  0.0000  0.0000  0.0000      0.0000  0.0000  0.0000  0.0000  0.0000  0.0000  0.0000  0.0000  0.0000  0.0000
  o =  0.9518  v = -0.0000 -0.8061  0.0000  0.5917  0.0000  0.0000  0.0000  0.0000  0.0000  0.0000      0.0000  0.0000  0.0000  0.0000  0.0000  0.0000  0.0000  0.0000  0.0000  0.0000
  o =  0.9780  v =  0.0000 -0.5917  0.0000 -0.8061  0.0000  0.0000  0.0000  0.0000  0.0000  0.0000      0.0000  0.0000  0.0000  0.0000  0.0000  0.0000  0.0000  0.0000  0.0000  0.0000
  o =  0.9823  v = -0.7640 -0.0000 -0.5478 -0.0000 -0.3409  0.0000  0.0000  0.0000  0.0000  0.0000      0.0000  0.0000  0.0000  0.0000  0.0000  0.0000  0.0000  0.0000  0.0000  0.0000
atom =  12  type =  2  l = 2
 
 onsite density matrix
 
spin component  1
 
  0.9692 -0.0000 -0.0130  0.0000 -0.0084
 -0.0000  0.9610  0.0000 -0.0125 -0.0000
 -0.0130  0.0000  0.9600 -0.0000  0.0065
  0.0000 -0.0125 -0.0000  0.9689 -0.0000
 -0.0084 -0.0000  0.0065 -0.0000  0.9529
 
spin component  2
 
  0.4353  0.0000  0.3441 -0.0000  0.2193
  0.0000  0.6830  0.0000  0.3914 -0.0000
  0.3441  0.0000  0.7128 -0.0000 -0.1480
 -0.0000  0.3914 -0.0000  0.3671 -0.0000
  0.2193 -0.0000 -0.1480 -0.0000  0.8499
 
 occupancies and eigenvectors
 
  o =  0.1030  v =  0.0000  0.0000  0.0000  0.0000  0.0000 -0.0000 -0.5593  0.0000  0.8289  0.0000      0.0000  0.0000  0.0000  0.0000  0.0000  0.0000  0.0000  0.0000  0.0000  0.0000
  o =  0.1085  v =  0.0000  0.0000  0.0000  0.0000  0.0000  0.7806 -0.0000 -0.5269  0.0000 -0.3361      0.0000  0.0000  0.0000  0.0000  0.0000  0.0000  0.0000  0.0000  0.0000  0.0000
  o =  0.9443  v =  0.0000  0.0000  0.0000  0.0000  0.0000  0.2306  0.0000 -0.2571  0.0000  0.9385      0.0000  0.0000  0.0000  0.0000  0.0000  0.0000  0.0000  0.0000  0.0000  0.0000
  o =  0.9451  v =  0.0000  0.0000  0.0000  0.0000  0.0000 -0.5809 -0.0000 -0.8101 -0.0000 -0.0791      0.0000  0.0000  0.0000  0.0000  0.0000  0.0000  0.0000  0.0000  0.0000  0.0000
  o =  0.9471  v =  0.0000  0.0000  0.0000  0.0000  0.0000  0.0000 -0.8289  0.0000 -0.5593  0.0000      0.0000  0.0000  0.0000  0.0000  0.0000  0.0000  0.0000  0.0000  0.0000  0.0000
  o =  0.9489  v =  0.1444  0.0000 -0.3705  0.0000  0.9175  0.0000  0.0000  0.0000  0.0000  0.0000      0.0000  0.0000  0.0000  0.0000  0.0000  0.0000  0.0000  0.0000  0.0000  0.0000
  o =  0.9509  v = -0.6290 -0.0000 -0.7502 -0.0000 -0.2039  0.0000  0.0000  0.0000  0.0000  0.0000      0.0000  0.0000  0.0000  0.0000  0.0000  0.0000  0.0000  0.0000  0.0000  0.0000
  o =  0.9518  v =  0.0000 -0.8062  0.0000 -0.5916  0.0000  0.0000  0.0000  0.0000  0.0000  0.0000      0.0000  0.0000  0.0000  0.0000  0.0000  0.0000  0.0000  0.0000  0.0000  0.0000
  o =  0.9780  v =  0.0000  0.5916 -0.0000 -0.8062 -0.0000  0.0000  0.0000  0.0000  0.0000  0.0000      0.0000  0.0000  0.0000  0.0000  0.0000  0.0000  0.0000  0.0000  0.0000  0.0000
  o =  0.9823  v = -0.7639  0.0000  0.5477 -0.0000  0.3414  0.0000  0.0000  0.0000  0.0000  0.0000      0.0000  0.0000  0.0000  0.0000  0.0000  0.0000  0.0000  0.0000  0.0000  0.0000
     EDDAV:  cpu time  380.8100: real time  380.8625
       DOS:  cpu time    0.0183: real time    0.0183
    --------------------------------------------
      LOOP:  cpu time  382.6506: real time  382.7034

 eigenvalue-minimisations  : 61686
 total energy-change (2. order) : 0.3114033E+04  (-0.1459179E+05)
 number of electron     240.0000015 magnetization      15.9999992
 augmentation part      240.0000015 magnetization      15.9999992

 Free energy of the ion-electron system (eV)
  ---------------------------------------------------
  alpha Z        PSCENC =      1065.15944898
  Ewald energy   TEWEN  =    -21670.00202985
  -Hartree energ DENC   =    -12064.48557092
  -exchange      EXHF   =         0.00000000
  -V(xc)+E(xc)   XCENC  =      1369.90573756
  PAW double counting   =     41612.68183362   -42762.99824519
  entropy T*S    EENTRO =        -0.00523806
  eigenvalues    EBANDS =       225.25966516
  atomic energy  EATOM  =     35338.51728253
  Solvation  Ediel_sol  =         0.00000000
  ---------------------------------------------------
  free energy    TOTEN  =      3114.03288382 eV

  energy without entropy =     3114.03812188  energy(sigma->0) =     3114.03550285


--------------------------------------------------------------------------------------------------------




--------------------------------------- Iteration      1(   2)  ---------------------------------------


     EDDAV:  cpu time  355.9714: real time  355.9913
       DOS:  cpu time    0.0188: real time    0.0188
    --------------------------------------------
      LOOP:  cpu time  355.9902: real time  356.0101

 eigenvalue-minimisations  : 54270
 total energy-change (2. order) :-0.3122802E+04  (-0.2941999E+04)
 number of electron     240.0000015 magnetization      15.9999992
 augmentation part      240.0000015 magnetization      15.9999992

 Free energy of the ion-electron system (eV)
  ---------------------------------------------------
  alpha Z        PSCENC =      1065.15944898
  Ewald energy   TEWEN  =    -21670.00202985
  -Hartree energ DENC   =    -12064.48557092
  -exchange      EXHF   =         0.00000000
  -V(xc)+E(xc)   XCENC  =      1369.90573756
  PAW double counting   =     41612.68183362   -42762.99824519
  entropy T*S    EENTRO =        -0.00686796
  eigenvalues    EBANDS =     -2897.54091059
  atomic energy  EATOM  =     35338.51728253
  Solvation  Ediel_sol  =         0.00000000
  ---------------------------------------------------
  free energy    TOTEN  =        -8.76932183 eV

  energy without entropy =       -8.76245388  energy(sigma->0) =       -8.76588786


--------------------------------------------------------------------------------------------------------




--------------------------------------- Iteration      1(   3)  ---------------------------------------


     EDDAV:  cpu time  387.9565: real time  388.1042
       DOS:  cpu time    0.0045: real time    0.0045
    --------------------------------------------
      LOOP:  cpu time  387.9610: real time  388.1087

 eigenvalue-minimisations  : 57978
 total energy-change (2. order) :-0.3601035E+03  (-0.3474503E+03)
 number of electron     240.0000015 magnetization      15.9999992
[...]
    142      14.1774      0.00000
    143      14.1783      0.00000
    144      14.1783      0.00000
    145      15.4356      0.00000
    146      15.4356      0.00000
    147      15.4376      0.00000
    148      15.4376      0.00000
    149      16.3504      0.00000
    150      16.3504      0.00000
    151      16.3520      0.00000
    152      16.3520      0.00000
    153      16.9935      0.00000


--------------------------------------------------------------------------------------------------------


 soft charge-density along one line, spin component           1
         0         1         2         3         4         5         6         7         8         9
 total charge-density along one line
 
 soft charge-density along one line, spin component           2
         0         1         2         3         4         5         6         7         8         9
 total charge-density along one line
 
 pseudopotential strength for first ion, spin component:           1
 18.240  25.448  -0.000   0.000  -0.003  -0.000   0.000  -0.006
 25.448  35.509  -0.000   0.000  -0.004  -0.001   0.000  -0.008
 -0.000  -0.000   4.140   0.000   0.000   7.717   0.000  -0.000
  0.000   0.000   0.000   4.140  -0.000   0.000   7.717  -0.000
 -0.003  -0.004   0.000  -0.000   4.144  -0.000  -0.000   7.724
 -0.000  -0.001   7.717   0.000  -0.000  14.396   0.000  -0.000
  0.000   0.000   0.000   7.717  -0.000   0.000  14.395  -0.000
 -0.006  -0.008  -0.000  -0.000   7.724  -0.000  -0.000  14.408
 pseudopotential strength for first ion, spin component:           2
 18.239  25.447  -0.000   0.000  -0.003  -0.001   0.000  -0.005
 25.447  35.507  -0.000   0.000  -0.004  -0.001   0.000  -0.007
 -0.000  -0.000   4.140   0.000   0.000   7.718   0.000   0.000
  0.000   0.000   0.000   4.140  -0.000   0.000   7.717  -0.000
 -0.003  -0.004   0.000  -0.000   4.143   0.000  -0.000   7.723
 -0.001  -0.001   7.718   0.000   0.000  14.397   0.000   0.000
  0.000   0.000   0.000   7.717  -0.000   0.000  14.396  -0.000
 -0.005  -0.007   0.000  -0.000   7.723   0.000  -0.000  14.406
 total augmentation occupancy for first ion, spin component:           1
 16.560  -9.111  -0.085  -0.000   0.550   0.036   0.000  -0.242
 -9.111   5.164   0.057   0.000  -0.348  -0.023  -0.000   0.151
 -0.085   0.057   6.574   0.000   0.077  -2.260  -0.000  -0.027
 -0.000   0.000   0.000   6.956   0.000  -0.000  -2.399  -0.000
  0.550  -0.348   0.077   0.000   8.232  -0.027  -0.000  -2.915
  0.036  -0.023  -2.260  -0.000  -0.027   0.798   0.000   0.010
  0.000  -0.000  -0.000  -2.399  -0.000   0.000   0.850   0.000
 -0.242   0.151  -0.027  -0.000  -2.915   0.010   0.000   1.057
 total augmentation occupancy for first ion, spin component:           2
  0.039  -0.027   0.000  -0.000  -0.004   0.000   0.000   0.002
 -0.027   0.018   0.001   0.000   0.003  -0.000  -0.000  -0.002
  0.000   0.001   0.019   0.000   0.000  -0.007  -0.000  -0.000
 -0.000   0.000   0.000   0.019  -0.000  -0.000  -0.007   0.000
 -0.004   0.003   0.000  -0.000   0.031  -0.000   0.000  -0.008
  0.000  -0.000  -0.007  -0.000  -0.000   0.003  -0.000   0.000
  0.000  -0.000  -0.000  -0.007   0.000  -0.000   0.003  -0.000
  0.002  -0.002  -0.000   0.000  -0.008   0.000  -0.000   0.003


------------------------ aborting loop because EDIFF is reached ----------------------------------------


 


 total charge     
 
# of ion       s       p       d       tot
------------------------------------------
    1        0.669   1.016   0.000   1.685
    2        0.669   1.016   0.000   1.685
    3        0.669   1.016   0.000   1.685
    4        0.669   1.016   0.000   1.685
    5        0.214   6.180   7.869  14.263
    6        0.214   6.180   7.869  14.263
    7        0.214   6.180   7.869  14.263
    8        0.214   6.180   7.869  14.263
    9        0.201   6.166   7.838  14.206
   10        0.202   6.166   7.838  14.206
   11        0.202   6.166   7.838  14.206
   12        0.201   6.166   7.838  14.206
   13        1.564   3.622   0.000   5.185
   14        1.564   3.622   0.000   5.185
   15        1.564   3.622   0.000   5.185
   16        1.564   3.622   0.000   5.185
   17        1.565   3.602   0.000   5.166
   18        1.565   3.601   0.000   5.166
   19        1.565   3.601   0.000   5.166
   20        1.565   3.602   0.000   5.166
   21        1.565   3.589   0.000   5.154
   22        1.565   3.589   0.000   5.154
   23        1.565   3.589   0.000   5.154
   24        1.565   3.589   0.000   5.154
   25        1.565   3.589   0.000   5.154
   26        1.565   3.589   0.000   5.154
   27        1.565   3.589   0.000   5.154
   28        1.565   3.589   0.000   5.154
--------------------------------------------------
tot         29.377 111.055  62.827 203.259
 


 magnetization (x)
 
# of ion       s       p       d       tot
------------------------------------------
    1       -0.000   0.005   0.000   0.005
    2       -0.000   0.005   0.000   0.005
    3       -0.000   0.005   0.000   0.005
    4       -0.000   0.005   0.000   0.005
    5       -0.004  -0.000   1.734   1.730
    6       -0.004  -0.000   1.734   1.730
    7       -0.004  -0.000   1.734   1.730
    8       -0.004  -0.000   1.734   1.730
    9       -0.002   0.002   1.764   1.763
   10       -0.003   0.002   1.764   1.762
   11       -0.003   0.002   1.764   1.762
   12       -0.002   0.002   1.764   1.763
   13        0.013   0.081   0.000   0.094
   14        0.013   0.081   0.000   0.094
   15        0.013   0.081   0.000   0.094
   16        0.013   0.081   0.000   0.094
   17        0.013   0.097   0.000   0.110
   18        0.013   0.097   0.000   0.110
   19        0.013   0.097   0.000   0.110
   20        0.013   0.097   0.000   0.110
   21        0.012   0.095   0.000   0.107
   22        0.012   0.095   0.000   0.107
   23        0.012   0.095   0.000   0.107
   24        0.012   0.095   0.000   0.107
   25        0.012   0.095   0.000   0.107
   26        0.012   0.095   0.000   0.107
   27        0.012   0.095   0.000   0.107
   28        0.012   0.095   0.000   0.107
--------------------------------------------------
tot          0.177   1.493  13.990  15.661
 
    CHARGE:  cpu time    3.4695: real time    3.4696
    FORLOC:  cpu time    0.0158: real time    0.0158
    FORNL :  cpu time   47.2389: real time   47.2421
    STRESS:  cpu time  881.4009: real time  881.4539
    FORCOR:  cpu time    0.3224: real time    0.3224
    FORHAR:  cpu time    0.0360: real time    0.0360
    MIXING:  cpu time    0.0077: real time    0.0077
    OFIELD:  cpu time    0.0000: real time    0.0000

  FORCE on cell =-STRESS in cart. coord.  units (eV):
  Direction    XX          YY          ZZ          XY          YZ          ZX
  --------------------------------------------------------------------------------------
  Alpha Z  1065.15945  1065.15945  1065.15945
  Ewald   -8031.39046 -7051.01027 -6587.66606     0.00005     0.00052    -0.00113
  Hartree  3152.85791  4327.76251  4583.89330     0.00000     0.00033    -0.00075
  E(xc)   -1623.42468 -1621.22480 -1621.63584     0.00000     0.00000    -0.00000
  Local     759.48372 -1435.78513 -2140.80194    -0.00005    -0.00086     0.00190
  n-local  -935.26120  -951.85757  -945.42293    -0.00000     0.00000    -0.00000
  augment  1600.07165  1605.42327  1601.62538     0.00000     0.00000    -0.00000
  Kinetic  4012.51441  4061.45075  4044.90780     0.00001     0.00001    -0.00004
  Fock        0.00000     0.00000     0.00000     0.00000     0.00000     0.00000
  -------------------------------------------------------------------------------------
  Total       0.01078    -0.08178     0.05916     0.00001     0.00001    -0.00003
  in kB       0.06150    -0.46644     0.33742     0.00003     0.00005    -0.00018
  external pressure =       -0.02 kB  Pullay stress =        0.00 kB


 VOLUME and BASIS-vectors are now :
 -----------------------------------------------------------------------------
  energy-cutoff  :      520.00
  volume of cell :      280.90
      direct lattice vectors                 reciprocal lattice vectors
     4.713515930 -0.000000090  0.000000526     0.212155855  0.000000004 -0.000000024
    -0.000000203 10.102006351 -0.000000779     0.000000002  0.098990237  0.000000007
     0.000000657 -0.000000445  5.899327602    -0.000000019  0.000000013  0.169510844

  length of vectors
     4.713515930 10.102006351  5.899327602     0.212155855  0.098990237  0.169510844


 FORCES acting on ions
    electron-ion (+dipol)            ewald-force                    non-local-force                 convergence-correction
 -----------------------------------------------------------------------------------------------
   0.866E+02 -.206E+02 -.691E-04   -.847E+02 0.205E+02 0.616E-04   -.184E+01 0.786E-01 0.602E-05   0.993E-04 0.787E-04 -.520E-07
   -.868E+02 -.208E+02 0.535E-04   0.849E+02 0.207E+02 -.506E-04   0.184E+01 0.613E-01 -.212E-06   -.101E-03 0.820E-04 0.344E-06
   -.868E+02 0.208E+02 0.690E-05   0.849E+02 -.207E+02 0.661E-05   0.184E+01 -.613E-01 -.107E-04   -.101E-03 -.820E-04 0.509E-06
   0.866E+02 0.206E+02 -.743E-05   -.847E+02 -.205E+02 -.256E-05   -.184E+01 -.786E-01 0.533E-05   0.984E-04 -.787E-04 0.644E-06
   0.489E+00 -.989E-02 -.694E+00   -.482E+00 -.319E-01 0.703E+00   -.612E-03 0.452E-01 -.964E-02   0.169E-04 -.272E-04 -.488E-05
   0.490E+00 0.102E-01 -.696E+00   -.483E+00 0.315E-01 0.704E+00   -.620E-03 -.452E-01 -.964E-02   0.242E-04 0.317E-04 -.912E-05
   0.489E+00 -.102E-01 0.695E+00   -.483E+00 -.315E-01 -.703E+00   -.601E-03 0.452E-01 0.962E-02   0.141E-04 -.279E-04 0.126E-04
   0.489E+00 0.987E-02 0.695E+00   -.483E+00 0.319E-01 -.704E+00   -.606E-03 -.452E-01 0.965E-02   0.200E-04 0.286E-04 0.226E-05
   -.352E+02 -.127E+03 0.195E-03   0.366E+02 0.131E+03 -.184E-03   -.132E+01 -.351E+01 -.110E-04   0.265E-03 -.143E-03 -.143E-05
   0.351E+02 -.128E+03 -.212E-04   -.365E+02 0.131E+03 0.257E-05   0.145E+01 -.355E+01 -.156E-05   -.345E-04 -.313E-03 0.874E-07
   0.351E+02 0.128E+03 0.208E-03   -.365E+02 -.131E+03 -.217E-03   0.145E+01 0.355E+01 0.552E-05   -.337E-04 0.305E-03 0.108E-05
   -.352E+02 0.127E+03 -.216E-03   0.366E+02 -.131E+03 0.243E-03   -.132E+01 0.351E+01 -.145E-04   0.264E-03 0.144E-03 -.229E-05
   -.219E+03 -.379E+02 0.298E-03   0.199E+03 0.395E+02 -.333E-03   0.199E+02 -.161E+01 0.372E-04   -.783E-03 0.610E-04 -.974E-08
   0.219E+03 -.379E+02 -.469E-03   -.199E+03 0.394E+02 0.514E-03   -.199E+02 -.159E+01 -.464E-04   0.785E-03 0.629E-04 0.271E-07
   0.219E+03 0.379E+02 0.132E-03   -.199E+03 -.394E+02 -.131E-03   -.199E+02 0.159E+01 -.833E-07   0.785E-03 -.618E-04 0.414E-06
   -.219E+03 0.379E+02 -.156E-03   0.199E+03 -.395E+02 0.160E-03   0.199E+02 0.161E+01 -.517E-05   -.783E-03 -.600E-04 -.415E-06
   -.112E+03 0.432E+02 0.764E-03   0.106E+03 -.646E+02 -.822E-03   0.618E+01 0.214E+02 0.543E-04   -.400E-03 -.776E-03 0.930E-07
   0.112E+03 0.433E+02 -.570E-03   -.105E+03 -.647E+02 0.608E-03   -.624E+01 0.214E+02 -.328E-04   0.400E-03 -.779E-03 -.553E-06
   0.112E+03 -.433E+02 0.440E-03   -.105E+03 0.647E+02 -.487E-03   -.624E+01 -.214E+02 0.439E-04   0.401E-03 0.783E-03 0.459E-06
   -.112E+03 -.432E+02 -.334E-03   0.106E+03 0.646E+02 0.376E-03   0.618E+01 -.214E+02 -.415E-04   -.399E-03 0.776E-03 -.769E-07
   0.818E+02 -.525E+02 0.182E+02   -.724E+02 0.647E+02 -.367E+02   -.938E+01 -.122E+02 0.185E+02   0.374E-03 0.430E-03 -.646E-03
   -.819E+02 -.529E+02 -.184E+02   0.725E+02 0.651E+02 0.369E+02   0.939E+01 -.122E+02 -.185E+02   -.379E-03 0.432E-03 0.642E-03
   -.819E+02 0.529E+02 0.184E+02   0.725E+02 -.651E+02 -.369E+02   0.939E+01 0.122E+02 0.185E+02   -.380E-03 -.435E-03 -.639E-03
   0.818E+02 0.525E+02 -.182E+02   -.724E+02 -.647E+02 0.367E+02   -.938E+01 0.122E+02 -.185E+02   0.375E-03 -.431E-03 0.647E-03
   -.819E+02 0.529E+02 -.184E+02   0.725E+02 -.651E+02 0.369E+02   0.939E+01 0.122E+02 -.185E+02   -.378E-03 -.434E-03 0.639E-03
   0.818E+02 0.525E+02 0.182E+02   -.724E+02 -.647E+02 -.367E+02   -.938E+01 0.122E+02 0.185E+02   0.375E-03 -.431E-03 -.647E-03
   0.818E+02 -.525E+02 -.182E+02   -.724E+02 0.647E+02 0.367E+02   -.938E+01 -.122E+02 -.185E+02   0.375E-03 0.431E-03 0.646E-03
   -.819E+02 -.529E+02 0.184E+02   0.725E+02 0.651E+02 -.369E+02   0.939E+01 -.122E+02 0.185E+02   -.378E-03 0.432E-03 -.642E-03
 -----------------------------------------------------------------------------------------------
   -.546E-01 0.788E-04 0.201E-04   0.995E-13 0.853E-13 0.711E-13   0.144E+00 -.123E-03 -.324E-04   0.521E-03 -.167E-05 0.808E-06
 
 
 POSITION                                       TOTAL-FORCE (eV/Angst)
 -----------------------------------------------------------------------------------
      0.33608      6.00609      1.47483        -0.002460     -0.006548     -0.000001
      2.02081      0.95572      1.47483        -0.001075     -0.007157      0.000003
      4.37757      4.09529      4.42450        -0.001076      0.007158      0.000003
      2.69284      9.14692      4.42450        -0.002462      0.006553     -0.000003
      2.35738      5.05136      5.89885         0.001895      0.002788      0.000325
      0.00063     10.10165      2.94919         0.001905     -0.002809      0.000332
      2.35739      5.05136      2.95014         0.001912      0.002802     -0.000330
      0.00063     10.10165      0.00047         0.001896     -0.002796     -0.000326
      2.37591      7.81128      1.47483        -0.003228      0.000508      0.000001
      4.69382      2.76029      1.47483         0.022662     -0.008915     -0.000021
      2.33706      2.29072      4.42450         0.022665      0.008911     -0.000004
      0.01916      7.34173      4.42450        -0.003241     -0.000536      0.000013
      3.43508      5.99587      1.47483        -0.005677     -0.008126      0.000002
      3.63515      0.94518      1.47483         0.001253     -0.007692     -0.000001
      1.27839      4.10583      4.42450         0.001250      0.007697      0.000002
      1.07832      9.15714      4.42450        -0.005675      0.008130     -0.000001
      1.33442      9.54847      1.47483        -0.008616     -0.004755     -0.000003
      1.02267      4.49727      1.47483         0.004632     -0.004956      0.000005
      3.37943      0.55373      4.42450         0.004635      0.004963     -0.000002
      3.69118      5.60454      4.42450        -0.008616      0.004761      0.000001
      1.05565      6.70237      0.17338         0.000559     -0.018062     -0.003232
      1.30053      1.65147      2.77602        -0.006204     -0.017686      0.003337
      3.65729      3.39953      3.12330        -0.006206      0.017693     -0.003333
      3.41241      8.45064      5.72594         0.000561      0.018066      0.003233
      3.65729      3.39953      5.72569        -0.006205      0.017690      0.003343
      3.41241      8.45064      3.12305         0.000562      0.018066     -0.003232
      1.05565      6.70237      2.77628         0.000562     -0.018063      0.003230
      1.30053      1.65147      0.17364        -0.006208     -0.017685     -0.003341
 -----------------------------------------------------------------------------------
    total drift:                                0.090251     -0.000046     -0.000011


--------------------------------------------------------------------------------------------------------



  FREE ENERGIE OF THE ION-ELECTRON SYSTEM (eV)
  ---------------------------------------------------
  free  energy   TOTEN  =      -320.78698031 eV

  energy  without entropy=     -320.78698031  energy(sigma->0) =     -320.78698031
 


--------------------------------------------------------------------------------------------------------


    POTLOK:  cpu time    2.0196: real time    2.0197


--------------------------------------------------------------------------------------------------------




--------------------------------------------------------------------------------------------------------


  
 reached required accuracy - stopping structural energy minimisation
     LOOP+:  cpu time 9316.1718: real time 9317.2193
    4ORBIT:  cpu time    0.0000: real time    0.0000
 


 total charge     
 
# of ion       s       p       d       tot
------------------------------------------
    1        0.669   1.016   0.000   1.685
    2        0.669   1.016   0.000   1.685
    3        0.669   1.016   0.000   1.685
    4        0.669   1.016   0.000   1.685
    5        0.214   6.180   7.869  14.263
    6        0.214   6.180   7.869  14.263
    7        0.214   6.180   7.869  14.263
    8        0.214   6.180   7.869  14.263
    9        0.201   6.166   7.838  14.206
   10        0.202   6.166   7.838  14.206
   11        0.202   6.166   7.838  14.206
   12        0.201   6.166   7.838  14.206
   13        1.564   3.622   0.000   5.185
   14        1.564   3.622   0.000   5.185
   15        1.564   3.622   0.000   5.185
   16        1.564   3.622   0.000   5.185
   17        1.565   3.602   0.000   5.166
   18        1.565   3.601   0.000   5.166
   19        1.565   3.601   0.000   5.166
   20        1.565   3.602   0.000   5.166
   21        1.565   3.589   0.000   5.154
   22        1.565   3.589   0.000   5.154
   23        1.565   3.589   0.000   5.154
   24        1.565   3.589   0.000   5.154
   25        1.565   3.589   0.000   5.154
   26        1.565   3.589   0.000   5.154
   27        1.565   3.589   0.000   5.154
   28        1.565   3.589   0.000   5.154
--------------------------------------------------
tot         29.377 111.055  62.827 203.259
 


 magnetization (x)
 
# of ion       s       p       d       tot
------------------------------------------
    1       -0.000   0.005   0.000   0.005
    2       -0.000   0.005   0.000   0.005
    3       -0.000   0.005   0.000   0.005
    4       -0.000   0.005   0.000   0.005
    5       -0.004  -0.000   1.734   1.730
    6       -0.004  -0.000   1.734   1.730
    7       -0.004  -0.000   1.734   1.730
    8       -0.004  -0.000   1.734   1.730
    9       -0.002   0.002   1.764   1.763
   10       -0.003   0.002   1.764   1.762
   11       -0.003   0.002   1.764   1.762
   12       -0.002   0.002   1.764   1.763
   13        0.013   0.081   0.000   0.094
   14        0.013   0.081   0.000   0.094
   15        0.013   0.081   0.000   0.094
   16        0.013   0.081   0.000   0.094
   17        0.013   0.097   0.000   0.110
   18        0.013   0.097   0.000   0.110
   19        0.013   0.097   0.000   0.110
   20        0.013   0.097   0.000   0.110
   21        0.012   0.095   0.000   0.107
   22        0.012   0.095   0.000   0.107
   23        0.012   0.095   0.000   0.107
   24        0.012   0.095   0.000   0.107
   25        0.012   0.095   0.000   0.107
   26        0.012   0.095   0.000   0.107
   27        0.012   0.095   0.000   0.107
   28        0.012   0.095   0.000   0.107
--------------------------------------------------
tot          0.177   1.493  13.990  15.661
 

 total amount of memory used by VASP MPI-rank0   332893. kBytes
=======================================================================

   base      :      30000. kBytes
   nonlr-proj:       5421. kBytes
   fftplans  :       4176. kBytes
   grid      :      14761. kBytes
   one-center:        217. kBytes
   wavefun   :     278318. kBytes
 
  
  
 General timing and accounting informations for this job:
 ========================================================
  
                  Total CPU time used (sec):     9356.859
                            User time (sec):     9352.063
                          System time (sec):        4.796
                         Elapsed time (sec):     9358.170
  
                   Maximum memory used (kb):      583044.
                   Average memory used (kb):           0.
  
                          Minor page faults:       126554
                          Major page faults:            0
                 Voluntary context switches:           64
