       N       E                     dE             d eps       ncg     rms          ort
DAV:   1     0.258097188314E+04    0.25810E+04   -0.13873E+05 10269   0.157E+03
DAV:   2     0.736154184592E+01   -0.25736E+04   -0.23988E+04 10269   0.413E+02
DAV:   3    -0.263583309072E+03   -0.27094E+03   -0.26725E+03 10269   0.149E+02
DAV:   4    -0.271524241186E+03   -0.79409E+01   -0.78349E+01 10269   0.254E+01
DAV:   5    -0.271884334788E+03   -0.36009E+00   -0.35906E+00 10269   0.425E+00
SDA:   6    -0.154630181163E+03    0.11725E+03   -0.35906E+00 10269   0.435E+03 0.000E+00
CGA:   7    -0.196274625130E+03   -0.41644E+02   -0.49353E+02 10269   0.105E+04-0.169E+03
CGA:   8    -0.210532899038E+03   -0.14258E+02   -0.18422E+02 10269   0.242E+03-0.517E+02
CGA:   9    -0.218810558896E+03   -0.82777E+01   -0.16190E+02 10269   0.130E+03-0.733E+02
CGA:  10    -0.225554544460E+03   -0.67440E+01   -0.86408E+01 10269   0.395E+02 0.831E+01
CGA:  11    -0.228382786516E+03   -0.28282E+01   -0.15408E+01 10269   0.273E+02 0.343E+02
CGA:  12    -0.230558131787E+03   -0.21753E+01   -0.11750E+01 10269   0.278E+02-0.110E+02
CGA:  13    -0.229404122585E+03    0.11540E+01   -0.54550E+00 10269   0.282E+03-0.571E+02
CGA:  14    -0.231627369119E+03   -0.22232E+01   -0.20170E+02 10269   0.125E+02-0.522E+01
CGA:  15    -0.231977139749E+03   -0.34977E+00   -0.18639E+00 10269   0.104E+02 0.111E+02
CGA:  16    -0.232225134682E+03   -0.24799E+00   -0.12666E+00 10269   0.944E+01 0.100E+02
CGA:  17    -0.232419371009E+03   -0.19424E+00   -0.98299E-01 10269   0.882E+01 0.924E+01
CGA:  18    -0.232580431220E+03   -0.16106E+00   -0.80859E-01 10269   0.842E+01 0.877E+01
CGA:  19    -0.232720960484E+03   -0.14053E+00   -0.69836E-01 10269   0.825E+01 0.857E+01
CGA:  20    -0.232851174553E+03   -0.13021E+00   -0.63724E-01 10269   0.835E+01 0.868E+01
CGA:  21    -0.232982514516E+03   -0.13134E+00   -0.62564E-01 10269   0.890E+01 0.931E+01
CGA:  22    -0.233131621292E+03   -0.14911E+00   -0.68497E-01 10269   0.996E+01 0.106E+02
CGA:  23    -0.233316309397E+03   -0.18469E+00   -0.83417E-01 10269   0.109E+02 0.121E+02
CGA:  24    -0.233529493033E+03   -0.21318E+00   -0.99637E-01 10269   0.997E+01 0.121E+02
CGA:  25    -0.233709837441E+03   -0.18034E+00   -0.91946E-01 10269   0.701E+01 0.923E+01
CGA:  26    -0.233844783696E+03   -0.13495E+00   -0.75738E-01 10269   0.383E+01 0.522E+01
CGA:  27    -0.233997611239E+03   -0.15283E+00   -0.11026E+00 10269   0.325E+01 0.116E+01
CGA:  28    -0.234436716559E+03   -0.43911E+00   -0.10054E+01 10269   0.485E+02-0.516E+01
CGA:  29    -0.235073824611E+03   -0.63711E+00   -0.23267E+01 10269   0.370E+01-0.243E+01
CGA:  30    -0.235390327562E+03   -0.31650E+00   -0.23704E+00 10269   0.928E+00-0.174E+00
CGA:  31    -0.235533220544E+03   -0.14289E+00   -0.13327E+00 10269   0.129E+01 0.125E+00
CGA:  32    -0.235635942927E+03   -0.10272E+00   -0.11167E+00 10269   0.377E+00 0.205E+00
CGA:  33    -0.235741358436E+03   -0.10542E+00   -0.10207E+00 10269   0.342E+00 0.162E-01
CGA:  34    -0.235779414384E+03   -0.38056E-01   -0.37487E-01 10269   0.443E-01 0.448E-01
CGA:  35    -0.235788938212E+03   -0.95238E-02   -0.92982E-02 10269   0.183E-01 0.235E-02
CGA:  36    -0.235792391018E+03   -0.34528E-02   -0.34251E-02 10269   0.956E-02 0.338E-03
CGA:  37    -0.235795584259E+03   -0.31932E-02   -0.31634E-02 10269   0.566E-02 0.147E-03
CGA:  38    -0.235796682167E+03   -0.10979E-02   -0.10969E-02 10269   0.245E-02 0.511E-05
CGA:  39    -0.235797247110E+03   -0.56494E-03   -0.56899E-03 10269   0.605E-03-0.364E-04
CGA:  40    -0.235797401265E+03   -0.15415E-03   -0.15298E-03 10269   0.393E-03 0.897E-05
CGA:  41    -0.235797488526E+03   -0.87261E-04   -0.86703E-04 10269   0.160E-03 0.667E-05
CGA:  42    -0.235797542737E+03   -0.54211E-04   -0.54409E-04 10269   0.797E-04-0.101E-05
CGA:  43    -0.235797561509E+03   -0.18772E-04   -0.19126E-04 10269   0.492E-04-0.376E-05
CGA:  44    -0.235797572773E+03   -0.11263E-04   -0.11581E-04 10269   0.187E-04-0.333E-05
CGA:  45    -0.235797578817E+03   -0.60440E-05   -0.60349E-05 10269   0.977E-05 0.449E-07
   1 F= -.23579758E+03 E0= -.23579758E+03  d E =-.235798E+03  mag=    18.0000
