 vasp.6.3.0 20Jan22 (build Apr 15 2022 04:40:24) complex                         
 executed on              LinuxNV date 2022.06.10  02:12:54
 running    1 mpi-ranks, with    4 threads/rank
 distrk:  each k-point on    1 cores,    1 groups
 distr:  one band on NCORE=   1 cores,    1 groups


--------------------------------------------------------------------------------------------------------


 INCAR:
   ALGO = ALL
   EDIFF = 1E-5
   EDIFFG = -0.03
   ENCUT = 520
   IBRION = 2
   ICHARG = 2
   ISIF = 3
   ISYM = 0
   ISPIN = 2
   LREAL = Auto
   NELMIN = 6
   NELM = 150
   NSW = 199
   PREC = Accurate
   ISMEAR = 0
   SIGMA = 0.05
   MAGMOM = 1*0.6 2*4.0 2*5.0 6*0.6 24*0.6
   LWAVE = False
   LORBIT = 11
   LPLANE = True
   NCORE = 16
   NSIM = 4

 POTCAR:    PAW_PBE Ca_sv 06Sep2000               
 POTCAR:    PAW_PBE Mn_pv 02Aug2007               
 POTCAR:    PAW_PBE S 06Sep2000                   
 POTCAR:    PAW_PBE O 08Apr2002                   
 POTCAR:    PAW_PBE Ca_sv 06Sep2000               
   VRHFIN =Ca: 3s3p4s                                                                               
   LEXCH  = PE                                                                                      
   EATOM  =  1006.0909 eV,   73.9456 Ry                                                             
                                                                                                    
   TITEL  = PAW_PBE Ca_sv 06Sep2000                                                                 
   LULTRA =        F    use ultrasoft PP ?                                                          
   IUNSCR =        1    unscreen: 0-lin 1-nonlin 2-no                                               
   RPACOR =    2.000    partial core radius                                                         
   POMASS =   40.078; ZVAL   =   10.000    mass and valenz                                          
   RCORE  =    2.300    outmost cutoff radius                                                       
   RWIGS  =    2.500; RWIGS  =    1.323    wigner-seitz radius (au A)                               
   ENMAX  =  266.622; ENMIN  =  199.967 eV                                                          
   RCLOC  =    1.808    cutoff for local pot                                                        
   LCOR   =        T    correct aug charges                                                         
   LPAW   =        T    paw PP                                                                      
   EAUG   =  420.852                                                                                
   RMAX   =    2.359    core radius for proj-oper                                                   
   RAUG   =    1.300    factor for augmentation sphere                                              
   RDEP   =    2.392    radius for radial grids                                                     
   RDEPT  =    1.987    core radius for aug-charge                                                  
                                                                                                    
   Atomic configuration                                                                             
    7 entries                                                                                       
     n  l   j            E        occ.                                                              
     1  0  0.50     -3949.1705   2.0000                                                             
     2  0  0.50      -414.3434   2.0000                                                             
     2  1  1.50      -334.7047   6.0000                                                             
     3  0  0.50       -47.0896   2.0000                                                             
     4  0  0.50        -3.7663   2.0000                                                             
     3  1  1.50       -28.0061   6.0000                                                             
     3  2  1.50        -4.0817   0.0000                                                             
   Description                                                                                      
     l       E           TYP  RCUT    TYP  RCUT                                                     
     0    -47.0896403     23  2.300                                                                 
     0     -3.7663320     23  2.300                                                                 
     1    -28.0060855     23  2.300                                                                 
     1      6.8029130     23  2.300                                                                 
     2     -4.0817478     23  2.300                                                                 
     2      0.4464412     23  2.300                                                                 
  local pseudopotential read in
  partial core-charges read in
  partial kinetic energy density read in
  atomic valenz-charges read in
  non local Contribution for L=            0  read in
    real space projection operators read in
  non local Contribution for L=            0  read in
    real space projection operators read in
  non local Contribution for L=            1  read in
    real space projection operators read in
  non local Contribution for L=            1  read in
    real space projection operators read in
  non local Contribution for L=            2  read in
    real space projection operators read in
  non local Contribution for L=            2  read in
    real space projection operators read in
    PAW grid and wavefunctions read in
 
   number of l-projection  operators is LMAX  =            6
   number of lm-projection operators is LMMAX =           18
 
 POTCAR:    PAW_PBE Mn_pv 02Aug2007               
   VRHFIN =Mn: 3p4s3d                                                                               
   LEXCH  = PE                                                                                      
   EATOM  =  2025.2664 eV,  148.8529 Ry                                                             
                                                                                                    
   TITEL  = PAW_PBE Mn_pv 02Aug2007                                                                 
   LULTRA =        F    use ultrasoft PP ?                                                          
   IUNSCR =        1    unscreen: 0-lin 1-nonlin 2-no                                               
   RPACOR =    2.080    partial core radius                                                         
   POMASS =   54.938; ZVAL   =   13.000    mass and valenz                                          
   RCORE  =    2.300    outmost cutoff radius                                                       
   RWIGS  =    2.500; RWIGS  =    1.323    wigner-seitz radius (au A)                               
   ENMAX  =  269.864; ENMIN  =  202.398 eV                                                          
   ICORE  =        3    local potential                                                             
   LCOR   =        T    correct aug charges                                                         
   LPAW   =        T    paw PP                                                                      
   EAUG   =  569.085                                                                                
   DEXC   =    0.000                                                                                
   RMAX   =    2.343    core radius for proj-oper                                                   
   RAUG   =    1.300    factor for augmentation sphere                                              
   RDEP   =    2.338    radius for radial grids                                                     
   RDEPT  =    1.798    core radius for aug-charge                                                  
                                                                                                    
   Atomic configuration                                                                             
    8 entries                                                                                       
     n  l   j            E        occ.                                                              
     1  0  0.50     -6424.8287   2.0000                                                             
     2  0  0.50      -739.1154   2.0000                                                             
     2  1  1.50      -625.3949   6.0000                                                             
     3  0  0.50       -81.6100   2.0000                                                             
     3  1  1.50       -50.4667   6.0000                                                             
     3  2  2.50        -3.3745   6.0000                                                             
     4  0  0.50        -4.1331   1.0000                                                             
     4  3  2.50        -1.3606   0.0000                                                             
   Description                                                                                      
     l       E           TYP  RCUT    TYP  RCUT                                                     
     1    -50.4666628     23  2.000                                                                 
     1     -1.3605826     23  2.000                                                                 
     2     -3.3744729     23  2.300                                                                 
     2     -4.7350555     23  2.300                                                                 
     0     -4.1331431     23  2.300                                                                 
     0      7.6656591     23  2.300                                                                 
     3      9.5240782     23  2.300                                                                 
  local pseudopotential read in
  partial core-charges read in
  partial kinetic energy density read in
  atomic valenz-charges read in
  non local Contribution for L=            1  read in
    real space projection operators read in
  non local Contribution for L=            1  read in
    real space projection operators read in
  non local Contribution for L=            2  read in
    real space projection operators read in
  non local Contribution for L=            2  read in
    real space projection operators read in
  non local Contribution for L=            0  read in
    real space projection operators read in
  non local Contribution for L=            0  read in
    real space projection operators read in
    PAW grid and wavefunctions read in
 
   number of l-projection  operators is LMAX  =            6
   number of lm-projection operators is LMMAX =           18
 
 POTCAR:    PAW_PBE S 06Sep2000                   
   VRHFIN =S : s2p4                                                                                 
   LEXCH  = PE                                                                                      
   EATOM  =   276.8230 eV,   20.3459 Ry                                                             
                                                                                                    
   TITEL  = PAW_PBE S 06Sep2000                                                                     
   LULTRA =        F    use ultrasoft PP ?                                                          
   IUNSCR =        1    unscreen: 0-lin 1-nonlin 2-no                                               
   RPACOR =    1.500    partial core radius                                                         
   POMASS =   32.066; ZVAL   =    6.000    mass and valenz                                          
   RCORE  =    1.900    outmost cutoff radius                                                       
   RWIGS  =    2.200; RWIGS  =    1.164    wigner-seitz radius (au A)                               
   ENMAX  =  258.689; ENMIN  =  194.016 eV                                                          
   ICORE  =        2    local potential                                                             
   LCOR   =        T    correct aug charges                                                         
   LPAW   =        T    paw PP                                                                      
   EAUG   =  335.092                                                                                
   DEXC   =    0.000                                                                                
   RMAX   =    1.942    core radius for proj-oper                                                   
   RAUG   =    1.300    factor for augmentation sphere                                              
   RDEP   =    1.954    radius for radial grids                                                     
   RDEPT  =    1.744    core radius for aug-charge                                                  
                                                                                                    
   Atomic configuration                                                                             
    6 entries                                                                                       
     n  l   j            E        occ.                                                              
     1  0  0.50     -2405.8406   2.0000                                                             
     2  0  0.50      -211.7007   2.0000                                                             
     2  1  1.50      -156.4958   6.0000                                                             
     3  0  0.50       -17.2562   2.0000                                                             
     3  1  0.50        -7.0085   4.0000                                                             
     3  2  1.50        -6.8029   0.0000                                                             
   Description                                                                                      
     l       E           TYP  RCUT    TYP  RCUT                                                     
     0    -17.2561641     23  1.900                                                                 
     0    -15.8743224     23  1.900                                                                 
     1     -7.0085400     23  1.900                                                                 
     1     -2.7779785     23  1.900                                                                 
     2     -6.8029130     23  1.900                                                                 
  local pseudopotential read in
  partial core-charges read in
  partial kinetic energy density read in
  atomic valenz-charges read in
  non local Contribution for L=            0  read in
    real space projection operators read in
  non local Contribution for L=            0  read in
    real space projection operators read in
  non local Contribution for L=            1  read in
    real space projection operators read in
  non local Contribution for L=            1  read in
    real space projection operators read in
    PAW grid and wavefunctions read in
 
   number of l-projection  operators is LMAX  =            4
   number of lm-projection operators is LMMAX =            8
 
 POTCAR:    PAW_PBE O 08Apr2002                   
   VRHFIN =O: s2p4                                                                                  
   LEXCH  = PE                                                                                      
   EATOM  =   432.3788 eV,   31.7789 Ry                                                             
                                                                                                    
   TITEL  = PAW_PBE O 08Apr2002                                                                     
   LULTRA =        F    use ultrasoft PP ?                                                          
   IUNSCR =        1    unscreen: 0-lin 1-nonlin 2-no                                               
   RPACOR =    1.200    partial core radius                                                         
   POMASS =   16.000; ZVAL   =    6.000    mass and valenz                                          
   RCORE  =    1.520    outmost cutoff radius                                                       
   RWIGS  =    1.550; RWIGS  =    0.820    wigner-seitz radius (au A)                               
   ENMAX  =  400.000; ENMIN  =  300.000 eV                                                          
   ICORE  =        2    local potential                                                             
   LCOR   =        T    correct aug charges                                                         
   LPAW   =        T    paw PP                                                                      
   EAUG   =  605.392                                                                                
   DEXC   =    0.000                                                                                
   RMAX   =    1.553    core radius for proj-oper                                                   
   RAUG   =    1.300    factor for augmentation sphere                                              
   RDEP   =    1.550    radius for radial grids                                                     
   RDEPT  =    1.329    core radius for aug-charge                                                  
                                                                                                    
   Atomic configuration                                                                             
    4 entries                                                                                       
     n  l   j            E        occ.                                                              
     1  0  0.50      -514.6923   2.0000                                                             
     2  0  0.50       -23.9615   2.0000                                                             
     2  1  0.50        -9.0305   4.0000                                                             
     3  2  1.50        -9.5241   0.0000                                                             
   Description                                                                                      
     l       E           TYP  RCUT    TYP  RCUT                                                     
     0    -23.9615318     23  1.200                                                                 
     0     -9.5240782     23  1.200                                                                 
     1     -9.0304911     23  1.520                                                                 
     1      8.1634956     23  1.520                                                                 
     2     -9.5240782      7  1.500                                                                 
  local pseudopotential read in
  partial core-charges read in
  partial kinetic energy density read in
  kinetic energy density of atom read in
  atomic valenz-charges read in
  non local Contribution for L=            0  read in
    real space projection operators read in
  non local Contribution for L=            0  read in
    real space projection operators read in
  non local Contribution for L=            1  read in
    real space projection operators read in
  non local Contribution for L=            1  read in
    real space projection operators read in
    PAW grid and wavefunctions read in
 
   number of l-projection  operators is LMAX  =            4
   number of lm-projection operators is LMMAX =            8
 
 Optimization of the real space projectors (new method)

 maximal supplied QI-value         = 16.25
 optimisation between [QCUT,QGAM] = [ 11.54, 23.24] = [ 37.28,151.24] Ry 
 Optimized for a Real-space Cutoff    1.58 Angstroem

   l    n(q)    QCUT    max X(q) W(low)/X(q) W(high)/X(q)  e(spline) 
   0     11    11.539    11.817    0.25E-04    0.22E-05    0.26E-07
   0     11    11.539     8.461    0.39E-04    0.49E-05    0.55E-07
   1     11    11.539     3.957    0.21E-05    0.44E-05    0.32E-07
   1     11    11.539     4.314    0.56E-04    0.44E-04    0.19E-06
   2     10    11.539    14.565    0.25E-03    0.21E-04    0.75E-06
   2     10    11.539    14.552    0.23E-03    0.22E-04    0.72E-06
 Optimization of the real space projectors (new method)

 maximal supplied QI-value         = 16.25
 optimisation between [QCUT,QGAM] = [ 11.54, 23.24] = [ 37.28,151.24] Ry 
 Optimized for a Real-space Cutoff    1.45 Angstroem

   l    n(q)    QCUT    max X(q) W(low)/X(q) W(high)/X(q)  e(spline) 
   1     10    11.539     3.658    0.56E-04    0.12E-03    0.13E-06
   1     10    11.539     5.612    0.11E-03    0.23E-03    0.24E-06
   2      9    11.539    55.373    0.45E-04    0.92E-04    0.22E-06
   2      9    11.539    50.863    0.47E-04    0.95E-04    0.22E-06
   0     10    11.539    79.536    0.46E-04    0.27E-04    0.11E-06
   0     10    11.539    38.668    0.38E-04    0.25E-04    0.10E-06
 Optimization of the real space projectors (new method)

 maximal supplied QI-value         = 19.84
 optimisation between [QCUT,QGAM] = [ 11.51, 23.22] = [ 37.09,150.92] Ry 
 Optimized for a Real-space Cutoff    1.21 Angstroem

   l    n(q)    QCUT    max X(q) W(low)/X(q) W(high)/X(q)  e(spline) 
   0      8    11.508   187.594    0.96E-04    0.18E-03    0.54E-07
   0      8    11.508   164.243    0.96E-04    0.18E-03    0.54E-07
   1      8    11.508    67.533    0.18E-03    0.65E-04    0.94E-07
   1      8    11.508    50.729    0.18E-03    0.63E-04    0.92E-07
 Optimization of the real space projectors (new method)

 maximal supplied QI-value         = 24.76
 optimisation between [QCUT,QGAM] = [ 11.64, 23.27] = [ 37.91,151.63] Ry 
 Optimized for a Real-space Cutoff    1.14 Angstroem

   l    n(q)    QCUT    max X(q) W(low)/X(q) W(high)/X(q)  e(spline) 
   0      8    11.635    20.381    0.10E-03    0.33E-03    0.24E-06
   0      8    11.635    15.268    0.11E-03    0.35E-03    0.26E-06
   1      7    11.635     5.964    0.24E-03    0.31E-03    0.30E-06
   1      7    11.635     5.382    0.22E-03    0.25E-03    0.26E-06
  PAW_PBE Ca_sv 06Sep2000               :
 energy of atom  1       EATOM=-1006.0909
 kinetic energy error for atom=    0.0022 (will be added to EATOM!!)
  PAW_PBE Mn_pv 02Aug2007               :
 energy of atom  2       EATOM=-2025.2664
 kinetic energy error for atom=    0.0058 (will be added to EATOM!!)
  PAW_PBE S 06Sep2000                   :
 energy of atom  3       EATOM= -276.8230
 kinetic energy error for atom=    0.0016 (will be added to EATOM!!)
  PAW_PBE O 08Apr2002                   :
 energy of atom  4       EATOM= -432.3788
 kinetic energy error for atom=    0.0208 (will be added to EATOM!!)
 
 
 POSCAR: Mn4 S6 O24
  positions in direct lattice
  velocities in cartesian coordinates
 exchange correlation table for  LEXCH =        8
   RHO(1)=    0.500       N(1)  =     2000
   RHO(2)=  100.500       N(2)  =     4000
 


--------------------------------------------------------------------------------------------------------


 ion  position               nearest neighbor table
   1  0.499  0.494  0.500-  12 2.42  23 2.42  21 2.48  16 2.49  14 2.55  19 2.57
   2  0.648  0.649  0.647-  25 2.08  27 2.10  29 2.11  16 2.22  12 2.24  14 2.25
   3  0.157  0.146  0.148-  28 1.94  17 1.95  24 1.96  15 1.97  26 2.19  13 2.21
   4  0.838  0.849  0.847-  33 1.94  18 1.94  35 1.96  22 1.97  31 2.20  20 2.21
   5  0.348  0.346  0.347-  32 2.09  34 2.09  30 2.11  21 2.22  23 2.23  19 2.26
   6  0.953  0.242  0.537-  30 1.46  22 1.49  14 1.49  24 1.51
   7  0.447  0.056  0.750-  25 1.47  31 1.48  21 1.50  17 1.50
   8  0.548  0.939  0.245-  32 1.47  26 1.48  16 1.50  18 1.50
   9  0.748  0.464  0.042-  13 1.46  27 1.47  23 1.51  33 1.53
  10  0.246  0.531  0.953-  20 1.46  34 1.47  12 1.51  28 1.53
  11  0.042  0.753  0.458-  29 1.46  15 1.49  19 1.49  35 1.51
  12  0.383  0.608  0.748-  10 1.51   2 2.24   1 2.42
  13  0.945  0.340  0.015-   9 1.46   3 2.21
  14  0.754  0.372  0.611-   6 1.49   2 2.25   1 2.55
  15  0.022  0.958  0.325-  11 1.49   3 1.97
  16  0.631  0.741  0.372-   8 1.50   2 2.22   1 2.49
  17  0.307  0.020  0.959-   7 1.50   3 1.95
  18  0.688  0.974  0.036-   8 1.50   4 1.94
  19  0.241  0.623  0.385-  11 1.49   5 2.26   1 2.57
  20  0.050  0.656  0.980-  10 1.46   4 2.21
  21  0.362  0.254  0.623-   7 1.50   5 2.22   1 2.48
  22  0.973  0.036  0.669-   6 1.49   4 1.97
  23  0.612  0.387  0.247-   9 1.51   5 2.23   1 2.42
  24  0.986  0.271  0.340-   6 1.51   3 1.96
  25  0.480  0.906  0.701-   7 1.47   2 2.08
  26  0.370  0.945  0.274-   8 1.48   3 2.19
  27  0.698  0.488  0.902-   9 1.47   2 2.10
  28  0.285  0.335  0.966-  10 1.53   3 1.94
  29  0.906  0.705  0.473-  11 1.46   2 2.11
  30  0.090  0.290  0.521-   6 1.46   5 2.11
  31  0.624  0.053  0.720-   7 1.48   4 2.20
  32  0.516  0.088  0.294-   8 1.47   5 2.09
  33  0.709  0.661  0.027-   9 1.53   4 1.94
  34  0.297  0.506  0.093-  10 1.47   5 2.09
  35  0.008  0.724  0.655-  11 1.51   4 1.96
 

IMPORTANT INFORMATION: All symmetrisations will be switched off!
NOSYMM: (Re-)initialisation of all symmetry stuff for point group C_1.


----------------------------------------------------------------------------------------

                                     Primitive cell                                     

  volume of cell :     472.0504

  direct lattice vectors                    reciprocal lattice vectors
     7.804629141  0.082453078  5.014548745     0.133556936 -0.048028478 -0.007658168
     2.796284681  6.995131210  4.896433493    -0.000216831  0.144469813 -0.002038009
     0.568469792  0.129271368  9.103270325    -0.073453390 -0.051250339  0.115165341

  length of vectors
     9.277108044  8.984772096  9.121918636     0.142136685  0.144484350  0.145893981

  position of ions in fractional coordinates (direct lattice)
     0.498648941  0.494120467  0.499553244
     0.648080305  0.649282970  0.646637066
     0.156630628  0.145884018  0.147561806
     0.837750114  0.849309460  0.847288977
     0.347520670  0.345588283  0.347304060
     0.952817444  0.241523219  0.537108541
     0.446600626  0.055548900  0.750029744
     0.547992007  0.939421350  0.244984661
     0.748255410  0.463831234  0.041965945
     0.246323924  0.531490004  0.952567925
     0.042361356  0.753142614  0.457681854
     0.382658617  0.608138921  0.747726077
     0.944842752  0.339758517  0.015090128
     0.754383686  0.371854693  0.610875702
     0.021627260  0.958484208  0.325124171
     0.631312792  0.740695320  0.371749959
     0.307252772  0.020290165  0.959231291
     0.687578104  0.974358571  0.035708944
     0.240839487  0.622728936  0.384882975
     0.049838072  0.656060954  0.979500998
     0.362193113  0.253521940  0.623266073
     0.973450856  0.036229717  0.669461543
     0.612310119  0.386948890  0.247064625
     0.985979359  0.271466982  0.340146051
     0.480394247  0.905746086  0.701266816
     0.369998985  0.945007870  0.274385303
     0.698130732  0.488227148  0.902358273
     0.284933452  0.334965940  0.966324442
     0.906082023  0.704810506  0.473238023
     0.089644585  0.289539588  0.520878414
     0.623603853  0.053111047  0.719834818
     0.516494007  0.087863254  0.294101639
     0.709047830  0.660926918  0.027373809
     0.296604730  0.506036406  0.092619637
     0.007665930  0.723932969  0.654955080

  ion indices of the primitive-cell ions
   primitive index   ion index
                 1           1
                 2           2
                 3           3
                 4           4
                 5           5
                 6           6
                 7           7
                 8           8
                 9           9
                10          10
                11          11
                12          12
                13          13
                14          14
                15          15
                16          16
                17          17
                18          18
                19          19
                20          20
                21          21
                22          22
                23          23
                24          24
                25          25
                26          26
                27          27
                28          28
                29          29
                30          30
                31          31
                32          32
                33          33
                34          34
                35          35

----------------------------------------------------------------------------------------

 
 
 KPOINTS: Fully automatic kpoint scheme           

Automatic generation of k-mesh.
 Grid dimensions derived from RKLEN:
 generate k-points for:    5    5    5

 Generating k-lattice:

  Cartesian coordinates                     Fractional coordinates (reciprocal lattice)
     0.026711387 -0.009605696 -0.001531634     0.200000000 -0.000000000 -0.000000000
    -0.000043366  0.028893963 -0.000407602     0.000000000  0.200000000  0.000000000
    -0.014690678 -0.010250068  0.023033068     0.000000000 -0.000000000  0.200000000

  Length of vectors
     0.028427337  0.028896870  0.029178796

  Shift w.r.t. Gamma in fractional coordinates (k-lattice)
     0.000000000  0.000000000  0.000000000

 
 Subroutine IBZKPT returns following result:
 ===========================================
 
 Found     63 irreducible k-points:
 
 Following reciprocal coordinates:
            Coordinates               Weight
  0.000000  0.000000  0.000000      1.000000
  0.200000  0.000000  0.000000      2.000000
  0.400000  0.000000  0.000000      2.000000
  0.000000  0.200000  0.000000      2.000000
  0.200000  0.200000  0.000000      2.000000
  0.400000  0.200000  0.000000      2.000000
 -0.400000  0.200000  0.000000      2.000000
 -0.200000  0.200000  0.000000      2.000000
  0.000000  0.400000  0.000000      2.000000
  0.200000  0.400000  0.000000      2.000000
  0.400000  0.400000  0.000000      2.000000
 -0.400000  0.400000  0.000000      2.000000
 -0.200000  0.400000  0.000000      2.000000
  0.000000  0.000000  0.200000      2.000000
  0.200000  0.000000  0.200000      2.000000
  0.400000  0.000000  0.200000      2.000000
 -0.400000  0.000000  0.200000      2.000000
 -0.200000  0.000000  0.200000      2.000000
  0.000000  0.200000  0.200000      2.000000
  0.200000  0.200000  0.200000      2.000000
  0.400000  0.200000  0.200000      2.000000
 -0.400000  0.200000  0.200000      2.000000
 -0.200000  0.200000  0.200000      2.000000
  0.000000  0.400000  0.200000      2.000000
  0.200000  0.400000  0.200000      2.000000
  0.400000  0.400000  0.200000      2.000000
 -0.400000  0.400000  0.200000      2.000000
 -0.200000  0.400000  0.200000      2.000000
  0.000000 -0.400000  0.200000      2.000000
  0.200000 -0.400000  0.200000      2.000000
  0.400000 -0.400000  0.200000      2.000000
 -0.400000 -0.400000  0.200000      2.000000
 -0.200000 -0.400000  0.200000      2.000000
  0.000000 -0.200000  0.200000      2.000000
  0.200000 -0.200000  0.200000      2.000000
  0.400000 -0.200000  0.200000      2.000000
 -0.400000 -0.200000  0.200000      2.000000
 -0.200000 -0.200000  0.200000      2.000000
  0.000000  0.000000  0.400000      2.000000
  0.200000  0.000000  0.400000      2.000000
  0.400000  0.000000  0.400000      2.000000
 -0.400000  0.000000  0.400000      2.000000
 -0.200000  0.000000  0.400000      2.000000
  0.000000  0.200000  0.400000      2.000000
  0.200000  0.200000  0.400000      2.000000
  0.400000  0.200000  0.400000      2.000000
 -0.400000  0.200000  0.400000      2.000000
 -0.200000  0.200000  0.400000      2.000000
  0.000000  0.400000  0.400000      2.000000
  0.200000  0.400000  0.400000      2.000000
  0.400000  0.400000  0.400000      2.000000
 -0.400000  0.400000  0.400000      2.000000
 -0.200000  0.400000  0.400000      2.000000
  0.000000 -0.400000  0.400000      2.000000
  0.200000 -0.400000  0.400000      2.000000
  0.400000 -0.400000  0.400000      2.000000
 -0.400000 -0.400000  0.400000      2.000000
 -0.200000 -0.400000  0.400000      2.000000
  0.000000 -0.200000  0.400000      2.000000
  0.200000 -0.200000  0.400000      2.000000
  0.400000 -0.200000  0.400000      2.000000
 -0.400000 -0.200000  0.400000      2.000000
 -0.200000 -0.200000  0.400000      2.000000
 
 Following cartesian coordinates:
            Coordinates               Weight
  0.000000  0.000000  0.000000      1.000000
  0.026711 -0.009606 -0.001532      2.000000
  0.053423 -0.019211 -0.003063      2.000000
 -0.000043  0.028894 -0.000408      2.000000
  0.026668  0.019288 -0.001939      2.000000
  0.053379  0.009683 -0.003471      2.000000
 -0.053466  0.048105  0.002656      2.000000
 -0.026755  0.038500  0.001124      2.000000
 -0.000087  0.057788 -0.000815      2.000000
  0.026625  0.048182 -0.002347      2.000000
  0.053336  0.038577 -0.003878      2.000000
 -0.053510  0.076999  0.002248      2.000000
 -0.026798  0.067394  0.000716      2.000000
 -0.014691 -0.010250  0.023033      2.000000
  0.012021 -0.019856  0.021501      2.000000
  0.038732 -0.029461  0.019970      2.000000
 -0.068113  0.008961  0.026096      2.000000
 -0.041402 -0.000644  0.024565      2.000000
 -0.014734  0.018644  0.022625      2.000000
  0.011977  0.009038  0.021094      2.000000
  0.038689 -0.000567  0.019562      2.000000
 -0.068157  0.037855  0.025689      2.000000
 -0.041445  0.028250  0.024157      2.000000
 -0.014777  0.047538  0.022218      2.000000
  0.011934  0.037932  0.020686      2.000000
  0.038645  0.028326  0.019155      2.000000
 -0.068200  0.066749  0.025281      2.000000
 -0.041489  0.057144  0.023749      2.000000
 -0.014604 -0.068038  0.023848      2.000000
  0.012107 -0.077644  0.022317      2.000000
  0.038819 -0.087249  0.020785      2.000000
 -0.068027 -0.048827  0.026912      2.000000
 -0.041315 -0.058432  0.025380      2.000000
 -0.014647 -0.039144  0.023441      2.000000
  0.012064 -0.048750  0.021909      2.000000
  0.038775 -0.058355  0.020377      2.000000
 -0.068070 -0.019933  0.026504      2.000000
 -0.041359 -0.029538  0.024972      2.000000
 -0.029381 -0.020500  0.046066      2.000000
 -0.002670 -0.030106  0.044535      2.000000
  0.024041 -0.039712  0.043003      2.000000
 -0.082804 -0.001289  0.049129      2.000000
 -0.056093 -0.010894  0.047598      2.000000
 -0.029425  0.008394  0.045659      2.000000
 -0.002713 -0.001212  0.044127      2.000000
  0.023998 -0.010818  0.042595      2.000000
 -0.082847  0.027605  0.048722      2.000000
 -0.056136  0.018000  0.047190      2.000000
 -0.029468  0.037288  0.045251      2.000000
 -0.002757  0.027682  0.043719      2.000000
  0.023955  0.018076  0.042188      2.000000
 -0.082891  0.056499  0.048314      2.000000
 -0.056179  0.046893  0.046783      2.000000
 -0.029295 -0.078288  0.046881      2.000000
 -0.002583 -0.087894  0.045350      2.000000
  0.024128 -0.097499  0.043818      2.000000
 -0.082717 -0.059077  0.049945      2.000000
 -0.056006 -0.068682  0.048413      2.000000
 -0.029338 -0.049394  0.046474      2.000000
 -0.002627 -0.059000  0.044942      2.000000
  0.024085 -0.068605  0.043410      2.000000
 -0.082761 -0.030183  0.049537      2.000000
 -0.056049 -0.039788  0.048005      2.000000
 


--------------------------------------------------------------------------------------------------------




 Dimension of arrays:
   k-points           NKPTS =     63   k-points in BZ     NKDIM =     63   number of bands    NBANDS=    163
   number of dos      NEDOS =    301   number of ions     NIONS =     35
   non local maximal  LDIM  =      6   non local SUM 2l+1 LMDIM =     18
   total plane-waves  NPLWV = 343000
   max r-space proj   IRMAX =  12051   max aug-charges    IRDMAX=  34864
   dimension x,y,z NGX =    70 NGY =   70 NGZ =   70
   dimension x,y,z NGXF=   140 NGYF=  140 NGZF=  140
   support grid    NGXF=   140 NGYF=  140 NGZF=  140
   ions per type =               1   4   6  24
   NGX,Y,Z   is equivalent  to a cutoff of  12.54, 12.95, 12.76 a.u.
   NGXF,Y,Z  is equivalent  to a cutoff of  25.09, 25.90, 25.51 a.u.

 SYSTEM =  unknown system                          
 POSCAR =  Mn4 S6 O24                              

 Startparameter for this run:
   NWRITE =      2    write-flag & timer
   PREC   = accura    normal or accurate (medium, high low for compatibility)
   ISTART =      0    job   : 0-new  1-cont  2-samecut
   ICHARG =      2    charge: 1-file 2-atom 10-const
   ISPIN  =      2    spin polarized calculation?
   LNONCOLLINEAR =      F non collinear calculations
   LSORBIT =      F    spin-orbit coupling
   INIWAV =      1    electr: 0-lowe 1-rand  2-diag
   LASPH  =      F    aspherical Exc in radial PAW
 Electronic Relaxation 1
   ENCUT  =  520.0 eV  38.22 Ry    6.18 a.u.  17.25 16.71 16.96*2*pi/ulx,y,z
   ENINI  =  520.0     initial cutoff
   ENAUG  =  605.4 eV  augmentation charge cutoff
   NELM   =    150;   NELMIN=  6; NELMDL= -5     # of ELM steps 
   EDIFF  = 0.1E-04   stopping-criterion for ELM
   LREAL  =      T    real-space projection
   NLSPLINE    = F    spline interpolate recip. space projectors
   LCOMPAT=      F    compatible to vasp.4.4
   GGA_COMPAT  = T    GGA compatible to vasp.4.4-vasp.4.6
   LMAXPAW     = -100 max onsite density
   LMAXMIX     =    2 max onsite mixed and CHGCAR
   VOSKOWN=      0    Vosko Wilk Nusair interpolation
   ROPT   =   -0.00025  -0.00025  -0.00025  -0.00025
 Ionic relaxation
   EDIFFG = -.3E-01   stopping-criterion for IOM
   NSW    =    199    number of steps for IOM
   NBLOCK =      1;   KBLOCK =    199    inner block; outer block 
   IBRION =      2    ionic relax: 0-MD 1-quasi-New 2-CG
   NFREE  =      1    steps in history (QN), initial steepest desc. (CG)
   ISIF   =      3    stress and relaxation
   IWAVPR =     11    prediction:  0-non 1-charg 2-wave 3-comb
   ISYM   =      0    0-nonsym 1-usesym 2-fastsym
   LCORR  =      T    Harris-Foulkes like correction to forces

   POTIM  = 0.5000    time-step for ionic-motion
   TEIN   =    0.0    initial temperature
   TEBEG  =    0.0;   TEEND  =   0.0 temperature during run
   SMASS  =  -3.00    Nose mass-parameter (am)
   estimated Nose-frequenzy (Omega)   =  0.10E-29 period in steps = 0.13E+47 mass=  -0.197E-26a.u.
   SCALEE = 1.0000    scale energy and forces
   NPACO  =    256;   APACO  = 10.0  distance and # of slots for P.C.
   PSTRESS=    0.0 pullay stress

  Mass of Ions in am
   POMASS =  40.08 54.94 32.07 16.00
  Ionic Valenz
   ZVAL   =  10.00 13.00  6.00  6.00
  Atomic Wigner-Seitz radii
   RWIGS  =  -1.00 -1.00 -1.00 -1.00
  virtual crystal weights 
   VCA    =   1.00  1.00  1.00  1.00
   NELECT =     242.0000    total number of electrons
   NUPDOWN=      -1.0000    fix difference up-down

 DOS related values:
   EMIN   =  10.00;   EMAX   =-10.00  energy-range for DOS
   EFERMI =   0.00
   ISMEAR =     0;   SIGMA  =   0.05  broadening in eV -4-tet -1-fermi 0-gaus

 Electronic relaxation 2 (details)
   IALGO  =     58    algorithm
   LDIAG  =      T    sub-space diagonalisation (order eigenvalues)
   LSUBROT=      F    optimize rotation matrix (better conditioning)
   TURBO    =      0    0=normal 1=particle mesh
   IRESTART =      0    0=no restart 2=restart with 2 vectors
   NREBOOT  =      0    no. of reboots
   NMIN     =      0    reboot dimension
   EREF     =   0.00    reference energy to select bands
   IMIX   =      4    mixing-type and parameters
     AMIX     =   0.40;   BMIX     =  1.00
     AMIX_MAG =   1.60;   BMIX_MAG =  1.00
     AMIN     =   0.10
     WC   =   100.;   INIMIX=   1;  MIXPRE=   1;  MAXMIX= -45

 Intra band minimization:
   WEIMIN = 0.0010     energy-eigenvalue tresh-hold
   EBREAK =  0.15E-07  absolut break condition
   DEPER  =   0.30     relativ break condition  

   TIME   =   0.40     timestep for ELM

  volume/ion in A,a.u.               =      13.49        91.02
  Fermi-wavevector in a.u.,A,eV,Ry     =   1.310239  2.475993 23.357476  1.716726
  Thomas-Fermi vector in A             =   2.440783
 
 Write flags
   LWAVE        =      F    write WAVECAR
   LDOWNSAMPLE  =      F    k-point downsampling of WAVECAR
   LCHARG       =      T    write CHGCAR
   LVTOT        =      F    write LOCPOT, total local potential
   LVHAR        =      F    write LOCPOT, Hartree potential only
   LELF         =      F    write electronic localiz. function (ELF)
   LORBIT       =     11    0 simple, 1 ext, 2 COOP (PROOUT), +10 PAW based schemes


 Dipole corrections
   LMONO  =      F    monopole corrections only (constant potential shift)
   LDIPOL =      F    correct potential (dipole corrections)
   IDIPOL =      0    1-x, 2-y, 3-z, 4-all directions 
   EPSILON=  1.0000000 bulk dielectric constant

 Exchange correlation treatment:
   GGA     =    --    GGA type
   LEXCH   =     8    internal setting for exchange type
   LIBXC   =     F    Libxc                    
   VOSKOWN =     0    Vosko Wilk Nusair interpolation
   LHFCALC =     F    Hartree Fock is set to
   LHFONE  =     F    Hartree Fock one center treatment
   AEXX    =    0.0000 exact exchange contribution

 Linear response parameters
   LEPSILON=     F    determine dielectric tensor
   LRPA    =     F    only Hartree local field effects (RPA)
   LNABLA  =     F    use nabla operator in PAW spheres
   LVEL    =     F    velocity operator in full k-point grid
   CSHIFT  =0.1000    complex shift for real part using Kramers Kronig
   OMEGAMAX=  -1.0    maximum frequency
   DEG_THRESHOLD= 0.2000000E-02 threshold for treating states as degnerate
   RTIME   =   -0.100 relaxation time in fs
  (WPLASMAI=    0.000 imaginary part of plasma frequency in eV, 0.658/RTIME)
   DFIELD  = 0.0000000 0.0000000 0.0000000 field for delta impulse in time
 
  Optional k-point grid parameters
   LKPOINTS_OPT  =     F    use optional k-point grid
   KPOINTS_OPT_MODE=     1    mode for optional k-point grid
 
 Orbital magnetization related:
   ORBITALMAG=     F  switch on orbital magnetization
   LCHIMAG   =     F  perturbation theory with respect to B field
   DQ        =  0.001000  dq finite difference perturbation B field
   LLRAUG    =     F  two centre corrections for induced B field



--------------------------------------------------------------------------------------------------------


 conjugate gradient relaxation of ions
 charge density and potential will be updated during run
 spin polarized calculation
 Conjugate gradient for all bands (Freysoldt, et al. PRB 79, 241103 (2009))
 preconditioned conjugated gradient                                        
 perform sub-space diagonalisation
    before iterative eigenvector-optimisation
 modified Broyden-mixing scheme, WC =      100.0
 initial mixing is a Kerker type mixing with AMIX =  0.4000 and BMIX =      1.0000
 Hartree-type preconditioning will be used
 using additional bands            42
 real space projection scheme for non local part
 use partial core corrections
 no Harris-corrections to forces 
 use gradient corrections 
 use of overlap-Matrix (Vanderbilt PP)
 Gauss-broadening in eV      SIGMA  =   0.05


--------------------------------------------------------------------------------------------------------


  energy-cutoff  :      520.00
  volume of cell :      472.05
      direct lattice vectors                 reciprocal lattice vectors
     7.804629141  0.082453078  5.014548745     0.133556936 -0.048028478 -0.007658168
     2.796284681  6.995131210  4.896433493    -0.000216831  0.144469813 -0.002038009
     0.568469792  0.129271368  9.103270325    -0.073453390 -0.051250339  0.115165341

  length of vectors
     9.277108044  8.984772096  9.121918636     0.142136685  0.144484350  0.145893981


 
 k-points in units of 2pi/SCALE and weight: Fully automatic kpoint scheme           
   0.00000000  0.00000000  0.00000000       0.008
   0.02671139 -0.00960570 -0.00153163       0.016
   0.05342277 -0.01921139 -0.00306327       0.016
  -0.00004337  0.02889396 -0.00040760       0.016
   0.02666802  0.01928827 -0.00193924       0.016
   0.05337941  0.00968257 -0.00347087       0.016
  -0.05346614  0.04810535  0.00265567       0.016
  -0.02675475  0.03849966  0.00112403       0.016
  -0.00008673  0.05778793 -0.00081520       0.016
   0.02662465  0.04818223 -0.00234684       0.016
   0.05333604  0.03857653 -0.00387847       0.016
  -0.05350951  0.07699932  0.00224806       0.016
  -0.02679812  0.06739362  0.00071643       0.016
  -0.01469068 -0.01025007  0.02303307       0.016
   0.01202071 -0.01985576  0.02150143       0.016
   0.03873210 -0.02946146  0.01996980       0.016
  -0.06811345  0.00896132  0.02609634       0.016
  -0.04140207 -0.00064437  0.02456470       0.016
  -0.01473404  0.01864389  0.02262547       0.016
   0.01197734  0.00903820  0.02109383       0.016
   0.03868873 -0.00056750  0.01956220       0.016
  -0.06815682  0.03785529  0.02568873       0.016
  -0.04144543  0.02824959  0.02415710       0.016
  -0.01477741  0.04753786  0.02221786       0.016
   0.01193398  0.03793216  0.02068623       0.016
   0.03864536  0.02832647  0.01915460       0.016
  -0.06820018  0.06674925  0.02528113       0.016
  -0.04148880  0.05714355  0.02374950       0.016
  -0.01460395 -0.06803799  0.02384827       0.016
   0.01210744 -0.07764369  0.02231664       0.016
   0.03881883 -0.08724938  0.02078500       0.016
  -0.06802672 -0.04882660  0.02691154       0.016
  -0.04131533 -0.05843230  0.02537991       0.016
  -0.01464731 -0.03914403  0.02344067       0.016
   0.01206408 -0.04874973  0.02190904       0.016
   0.03877546 -0.05835542  0.02037740       0.016
  -0.06807009 -0.01993264  0.02650394       0.016
  -0.04135870 -0.02953833  0.02497230       0.016
  -0.02938136 -0.02050014  0.04606614       0.016
  -0.00266997 -0.03010583  0.04453450       0.016
   0.02404142 -0.03971153  0.04300287       0.016
  -0.08280413 -0.00128874  0.04912940       0.016
  -0.05609274 -0.01089444  0.04759777       0.016
  -0.02942472  0.00839383  0.04565853       0.016
  -0.00271334 -0.00121187  0.04412690       0.016
   0.02399805 -0.01081756  0.04259527       0.016
  -0.08284750  0.02760522  0.04872180       0.016
  -0.05613611  0.01799952  0.04719017       0.016
  -0.02946809  0.03728779  0.04525093       0.016
  -0.00275670  0.02768209  0.04371930       0.016
   0.02395469  0.01807640  0.04218767       0.016
  -0.08289086  0.05649918  0.04831420       0.016
  -0.05617948  0.04689349  0.04678257       0.016
  -0.02929462 -0.07828806  0.04688134       0.016
  -0.00258324 -0.08789376  0.04534971       0.016
   0.02412815 -0.09749945  0.04381807       0.016
  -0.08271740 -0.05907667  0.04994461       0.016
  -0.05600601 -0.06868237  0.04841297       0.016
  -0.02933799 -0.04939410  0.04647374       0.016
  -0.00262660 -0.05899979  0.04494210       0.016
   0.02408478 -0.06860549  0.04341047       0.016
  -0.08276076 -0.03018271  0.04953701       0.016
  -0.05604938 -0.03978840  0.04800537       0.016
 
 k-points in reciprocal lattice and weights: Fully automatic kpoint scheme           
   0.00000000  0.00000000  0.00000000       0.008
   0.20000000  0.00000000  0.00000000       0.016
   0.40000000  0.00000000  0.00000000       0.016
   0.00000000  0.20000000  0.00000000       0.016
   0.20000000  0.20000000  0.00000000       0.016
   0.40000000  0.20000000  0.00000000       0.016
  -0.40000000  0.20000000  0.00000000       0.016
  -0.20000000  0.20000000  0.00000000       0.016
   0.00000000  0.40000000  0.00000000       0.016
   0.20000000  0.40000000  0.00000000       0.016
   0.40000000  0.40000000  0.00000000       0.016
  -0.40000000  0.40000000  0.00000000       0.016
  -0.20000000  0.40000000  0.00000000       0.016
   0.00000000  0.00000000  0.20000000       0.016
   0.20000000  0.00000000  0.20000000       0.016
   0.40000000  0.00000000  0.20000000       0.016
  -0.40000000  0.00000000  0.20000000       0.016
  -0.20000000  0.00000000  0.20000000       0.016
   0.00000000  0.20000000  0.20000000       0.016
   0.20000000  0.20000000  0.20000000       0.016
   0.40000000  0.20000000  0.20000000       0.016
  -0.40000000  0.20000000  0.20000000       0.016
  -0.20000000  0.20000000  0.20000000       0.016
   0.00000000  0.40000000  0.20000000       0.016
   0.20000000  0.40000000  0.20000000       0.016
   0.40000000  0.40000000  0.20000000       0.016
  -0.40000000  0.40000000  0.20000000       0.016
  -0.20000000  0.40000000  0.20000000       0.016
   0.00000000 -0.40000000  0.20000000       0.016
   0.20000000 -0.40000000  0.20000000       0.016
   0.40000000 -0.40000000  0.20000000       0.016
  -0.40000000 -0.40000000  0.20000000       0.016
  -0.20000000 -0.40000000  0.20000000       0.016
   0.00000000 -0.20000000  0.20000000       0.016
   0.20000000 -0.20000000  0.20000000       0.016
   0.40000000 -0.20000000  0.20000000       0.016
  -0.40000000 -0.20000000  0.20000000       0.016
  -0.20000000 -0.20000000  0.20000000       0.016
   0.00000000  0.00000000  0.40000000       0.016
   0.20000000  0.00000000  0.40000000       0.016
   0.40000000  0.00000000  0.40000000       0.016
  -0.40000000  0.00000000  0.40000000       0.016
  -0.20000000  0.00000000  0.40000000       0.016
   0.00000000  0.20000000  0.40000000       0.016
   0.20000000  0.20000000  0.40000000       0.016
   0.40000000  0.20000000  0.40000000       0.016
  -0.40000000  0.20000000  0.40000000       0.016
  -0.20000000  0.20000000  0.40000000       0.016
   0.00000000  0.40000000  0.40000000       0.016
   0.20000000  0.40000000  0.40000000       0.016
   0.40000000  0.40000000  0.40000000       0.016
  -0.40000000  0.40000000  0.40000000       0.016
  -0.20000000  0.40000000  0.40000000       0.016
   0.00000000 -0.40000000  0.40000000       0.016
   0.20000000 -0.40000000  0.40000000       0.016
   0.40000000 -0.40000000  0.40000000       0.016
  -0.40000000 -0.40000000  0.40000000       0.016
  -0.20000000 -0.40000000  0.40000000       0.016
   0.00000000 -0.20000000  0.40000000       0.016
   0.20000000 -0.20000000  0.40000000       0.016
   0.40000000 -0.20000000  0.40000000       0.016
  -0.40000000 -0.20000000  0.40000000       0.016
  -0.20000000 -0.20000000  0.40000000       0.016
 
 position of ions in fractional coordinates (direct lattice) 
   0.49864894  0.49412047  0.49955324
   0.64808030  0.64928297  0.64663707
   0.15663063  0.14588402  0.14756181
   0.83775011  0.84930946  0.84728898
   0.34752067  0.34558828  0.34730406
   0.95281744  0.24152322  0.53710854
   0.44660063  0.05554890  0.75002974
   0.54799201  0.93942135  0.24498466
   0.74825541  0.46383123  0.04196594
   0.24632392  0.53149000  0.95256792
   0.04236136  0.75314261  0.45768185
   0.38265862  0.60813892  0.74772608
   0.94484275  0.33975852  0.01509013
   0.75438369  0.37185469  0.61087570
   0.02162726  0.95848421  0.32512417
   0.63131279  0.74069532  0.37174996
   0.30725277  0.02029016  0.95923129
   0.68757810  0.97435857  0.03570894
   0.24083949  0.62272894  0.38488297
   0.04983807  0.65606095  0.97950100
   0.36219311  0.25352194  0.62326607
   0.97345086  0.03622972  0.66946154
   0.61231012  0.38694889  0.24706463
   0.98597936  0.27146698  0.34014605
   0.48039425  0.90574609  0.70126682
   0.36999898  0.94500787  0.27438530
   0.69813073  0.48822715  0.90235827
   0.28493345  0.33496594  0.96632444
   0.90608202  0.70481051  0.47323802
   0.08964458  0.28953959  0.52087841
   0.62360385  0.05311105  0.71983482
   0.51649401  0.08786325  0.29410164
   0.70904783  0.66092692  0.02737381
   0.29660473  0.50603641  0.09261964
   0.00766593  0.72393297  0.65495508
 
 position of ions in cartesian coordinates  (Angst):
   5.55745248  3.56213057  9.46749565
   7.24120009  4.67884744 12.31551317
   1.71426164  1.05246804  2.84303831
   9.39489817  6.11963639 16.07262667
   3.87606504  2.49098601  6.59641213
   8.41708445  1.83748210 10.84999614
   4.06725205  0.52235281  9.33921561
   7.04303029  6.64822873  9.57790839
   7.16071652  3.31168130  6.40530935
   3.95017032  3.86129224 12.50909211
   2.69679414  5.33098939  8.06653745
   5.11209783  4.38222250 11.70332468
   8.33278709  2.45651132  6.53893453
   7.27476086  2.74234236 11.16462219
   3.03381072  6.74853528  7.76129835
   7.20968581  5.28137126 10.17665451
   3.00002503  0.29126744 10.37222519
   8.11117551  6.87707513  8.54384403
   3.83978461  4.42568292  7.76054593
   2.78031759  4.71996319 12.37893663
   3.89001038  1.88385363  8.73134789
   8.07930018  0.42023785 11.15310257
   6.00132142  2.78918349  7.21422451
   8.64766496  2.02421534  9.36990303
   6.68067184  6.46607642 13.22770724
   5.68619564  6.67643176  8.98034971
   7.32683697  3.58942508 14.10579364
   3.70978630  2.49154243 11.86566375
   9.31150651  5.06612735 12.30266389
   1.80538150  2.10009354  6.60893548
   5.42471476  0.51599083  9.93999757
   4.44392275  0.69522043  5.69748768
   7.39755636  4.68527234  7.04093079
   3.78256323  3.57622010  4.80825408
   2.45647459  5.14930512  9.54536395
 


--------------------------------------------------------------------------------------------------------


 k-point   1 :   0.0000 0.0000 0.0000  plane waves:   12705
 k-point   2 :   0.2000 0.0000 0.0000  plane waves:   12719
 k-point   3 :   0.4000 0.0000 0.0000  plane waves:   12715
 k-point   4 :   0.0000 0.2000 0.0000  plane waves:   12704
 k-point   5 :   0.2000 0.2000 0.0000  plane waves:   12694
 k-point   6 :   0.4000 0.2000 0.0000  plane waves:   12695
 k-point   7 :  -0.4000 0.2000 0.0000  plane waves:   12708
 k-point   8 :  -0.2000 0.2000 0.0000  plane waves:   12718
 k-point   9 :   0.0000 0.4000 0.0000  plane waves:   12710
 k-point  10 :   0.2000 0.4000 0.0000  plane waves:   12707
 k-point  11 :   0.4000 0.4000 0.0000  plane waves:   12689
 k-point  12 :  -0.4000 0.4000 0.0000  plane waves:   12678
 k-point  13 :  -0.2000 0.4000 0.0000  plane waves:   12711
 k-point  14 :   0.0000 0.0000 0.2000  plane waves:   12711
 k-point  15 :   0.2000 0.0000 0.2000  plane waves:   12723
 k-point  16 :   0.4000 0.0000 0.2000  plane waves:   12740
 k-point  17 :  -0.4000 0.0000 0.2000  plane waves:   12710
 k-point  18 :  -0.2000 0.0000 0.2000  plane waves:   12715
 k-point  19 :   0.0000 0.2000 0.2000  plane waves:   12721
 k-point  20 :   0.2000 0.2000 0.2000  plane waves:   12733
 k-point  21 :   0.4000 0.2000 0.2000  plane waves:   12728
 k-point  22 :  -0.4000 0.2000 0.2000  plane waves:   12707
 k-point  23 :  -0.2000 0.2000 0.2000  plane waves:   12705
 k-point  24 :   0.0000 0.4000 0.2000  plane waves:   12717
 k-point  25 :   0.2000 0.4000 0.2000  plane waves:   12715
 k-point  26 :   0.4000 0.4000 0.2000  plane waves:   12690
 k-point  27 :  -0.4000 0.4000 0.2000  plane waves:   12689
 k-point  28 :  -0.2000 0.4000 0.2000  plane waves:   12709
 k-point  29 :   0.0000-0.4000 0.2000  plane waves:   12710
 k-point  30 :   0.2000-0.4000 0.2000  plane waves:   12717
 k-point  31 :   0.4000-0.4000 0.2000  plane waves:   12708
 k-point  32 :  -0.4000-0.4000 0.2000  plane waves:   12689
 k-point  33 :  -0.2000-0.4000 0.2000  plane waves:   12693
 k-point  34 :   0.0000-0.2000 0.2000  plane waves:   12704
 k-point  35 :   0.2000-0.2000 0.2000  plane waves:   12681
 k-point  36 :   0.4000-0.2000 0.2000  plane waves:   12718
 k-point  37 :  -0.4000-0.2000 0.2000  plane waves:   12703
 k-point  38 :  -0.2000-0.2000 0.2000  plane waves:   12708
 k-point  39 :   0.0000 0.0000 0.4000  plane waves:   12692
 k-point  40 :   0.2000 0.0000 0.4000  plane waves:   12701
 k-point  41 :   0.4000 0.0000 0.4000  plane waves:   12718
 k-point  42 :  -0.4000 0.0000 0.4000  plane waves:   12722
 k-point  43 :  -0.2000 0.0000 0.4000  plane waves:   12712
 k-point  44 :   0.0000 0.2000 0.4000  plane waves:   12732
 k-point  45 :   0.2000 0.2000 0.4000  plane waves:   12702
 k-point  46 :   0.4000 0.2000 0.4000  plane waves:   12725
 k-point  47 :  -0.4000 0.2000 0.4000  plane waves:   12727
 k-point  48 :  -0.2000 0.2000 0.4000  plane waves:   12740
 k-point  49 :   0.0000 0.4000 0.4000  plane waves:   12723
 k-point  50 :   0.2000 0.4000 0.4000  plane waves:   12714
 k-point  51 :   0.4000 0.4000 0.4000  plane waves:   12719
 k-point  52 :  -0.4000 0.4000 0.4000  plane waves:   12738
 k-point  53 :  -0.2000 0.4000 0.4000  plane waves:   12719
 k-point  54 :   0.0000-0.4000 0.4000  plane waves:   12717
 k-point  55 :   0.2000-0.4000 0.4000  plane waves:   12718
 k-point  56 :   0.4000-0.4000 0.4000  plane waves:   12721
 k-point  57 :  -0.4000-0.4000 0.4000  plane waves:   12724
 k-point  58 :  -0.2000-0.4000 0.4000  plane waves:   12719
 k-point  59 :   0.0000-0.2000 0.4000  plane waves:   12693
 k-point  60 :   0.2000-0.2000 0.4000  plane waves:   12699
 k-point  61 :   0.4000-0.2000 0.4000  plane waves:   12724
 k-point  62 :  -0.4000-0.2000 0.4000  plane waves:   12699
 k-point  63 :  -0.2000-0.2000 0.4000  plane waves:   12696

 maximum and minimum number of plane-waves per node :     12740    12678

 maximum number of plane-waves:     12740
 maximum index in each direction: 
   IXMAX=   17   IYMAX=   17   IZMAX=   16
   IXMIN=  -17   IYMIN=  -17   IZMIN=  -17


 serial   3D FFT for wavefunctions
 parallel 3D FFT for charge:
    minimum data exchange during FFTs selected (reduces bandwidth)


 total amount of memory used by VASP MPI-rank0 13328976. kBytes
=======================================================================

   base      :      30000. kBytes
   nonlr-proj:      24314. kBytes
   fftplans  :      94700. kBytes
   grid      :     294156. kBytes
   one-center:       1088. kBytes
   wavefun   :   12884718. kBytes
 
     INWAV:  cpu time      0.0000: real time      0.0000
 Broyden mixing: mesh for mixing (old mesh)
   NGX = 35   NGY = 33   NGZ = 33
  (NGX  =140   NGY  =140   NGZ  =140)
  gives a total of  38115 points

 initial charge density was supplied:
 charge density of overlapping atoms calculated
 number of electron     242.0000000 magnetization      36.6000000
 keeping initial charge density in first step


--------------------------------------------------------------------------------------------------------


 Maximum index for non-local projection operator         11666
 Maximum index for augmentation-charges         33650 (set IRDMAX)


--------------------------------------------------------------------------------------------------------


 First call to EWALD:  gamma=   0.228
 Maximum number of real-space cells 3x 3x 3
 Maximum number of reciprocal cells 3x 3x 3

    FEWALD:  cpu time      0.0164: real time      0.0044


--------------------------------------- Iteration      1(   1)  ---------------------------------------


    POTLOK:  cpu time      0.0862: real time      0.1122
    SETDIJ:  cpu time      0.2507: real time      0.0683
    TRIAL :  cpu time     36.2050: real time     35.6272
    CORREC:  cpu time      0.0126: real time      0.0127
    --------------------------------------------
      LOOP:  cpu time     39.6290: real time     38.9041

 eigenvalue-minimisations  : 43460
 total energy-change (2. order) : 0.2580972E+04  (-0.1387350E+05)
 number of electron     242.0000000 magnetization      36.6000000
 augmentation part      242.0000000 magnetization      36.6000000

 Free energy of the ion-electron system (eV)
  ---------------------------------------------------
  alpha Z        PSCENC =       617.62374051
  Ewald energy   TEWEN  =    -11838.86313202
  -Hartree energ DENC   =     -8218.13944193
  -exchange      EXHF   =         0.00000000
  -V(xc)+E(xc)   XCENC  =      1074.30753765
  PAW double counting   =     16944.50228969   -17160.63930450
  entropy T*S    EENTRO =        -0.01232891
  eigenvalues    EBANDS =        17.54118382
  atomic energy  EATOM  =     21144.65133882
  ---------------------------------------------------
  free energy    TOTEN  =      2580.97188314 eV

  energy without entropy =     2580.98421205  energy(sigma->0) =     2580.97804759


--------------------------------------------------------------------------------------------------------




--------------------------------------- Iteration      1(   2)  ---------------------------------------


    TRIAL :  cpu time     37.1415: real time     36.5357
    CORREC:  cpu time      0.0126: real time      0.0126
    --------------------------------------------
      LOOP:  cpu time     37.1542: real time     36.5494

 eigenvalue-minimisations  : 45400
 total energy-change (2. order) :-0.2573610E+04  (-0.2398778E+04)
 number of electron     242.0000000 magnetization      36.6000000
 augmentation part      242.0000000 magnetization      36.6000000

 Free energy of the ion-electron system (eV)
  ---------------------------------------------------
  alpha Z        PSCENC =       617.62374051
  Ewald energy   TEWEN  =    -11838.86313202
  -Hartree energ DENC   =     -8218.13944193
  -exchange      EXHF   =         0.00000000
  -V(xc)+E(xc)   XCENC  =      1074.30753765
  PAW double counting   =     16944.50228969   -17160.63930450
  entropy T*S    EENTRO =        -0.00402966
  eigenvalues    EBANDS =     -2556.07745672
  atomic energy  EATOM  =     21144.65133882
  ---------------------------------------------------
  free energy    TOTEN  =         7.36154185 eV

  energy without entropy =        7.36557151  energy(sigma->0) =        7.36355668


--------------------------------------------------------------------------------------------------------




--------------------------------------- Iteration      1(   3)  ---------------------------------------


    TRIAL :  cpu time     39.0003: real time     38.4734
    CORREC:  cpu time      0.0103: real time      0.0104
    --------------------------------------------
      LOOP:  cpu time     39.0108: real time     38.4843

 eigenvalue-minimisations  : 48132
 total energy-change (2. order) :-0.2709449E+03  (-0.2672546E+03)
 number of electron     242.0000000 magnetization      36.6000000
 augmentation part      242.0000000 magnetization      36.6000000

 Free energy of the ion-electron system (eV)
  ---------------------------------------------------
  alpha Z        PSCENC =       617.62374051
  Ewald energy   TEWEN  =    -11838.86313202
  -Hartree energ DENC   =     -8218.13944193
  -exchange      EXHF   =         0.00000000
  -V(xc)+E(xc)   XCENC  =      1074.30753765
  PAW double counting   =     16944.50228969   -17160.63930450
  entropy T*S    EENTRO =        -0.00000386
  eigenvalues    EBANDS =     -2827.02633343
  atomic energy  EATOM  =     21144.65133882
  ---------------------------------------------------
  free energy    TOTEN  =      -263.58330907 eV

  energy without entropy =     -263.58330521  energy(sigma->0) =     -263.58330714


--------------------------------------------------------------------------------------------------------




--------------------------------------- Iteration      1(   4)  ---------------------------------------


    TRIAL :  cpu time     42.7748: real time     42.2270
    CORREC:  cpu time      0.0113: real time      0.0114
    --------------------------------------------
      LOOP:  cpu time     42.7862: real time     42.2385

 eigenvalue-minimisations  : 54288
 total energy-change (2. order) :-0.7940932E+01  (-0.7834861E+01)
 number of electron     242.0000000 magnetization      36.6000000
 augmentation part      242.0000000 magnetization      36.6000000

 Free energy of the ion-electron system (eV)
  ---------------------------------------------------
  alpha Z        PSCENC =       617.62374051
  Ewald energy   TEWEN  =    -11838.86313202
  -Hartree energ DENC   =     -8218.13944193
  -exchange      EXHF   =         0.00000000
  -V(xc)+E(xc)   XCENC  =      1074.30753765
  PAW double counting   =     16944.50228969   -17160.63930450
  entropy T*S    EENTRO =        -0.00002468
  eigenvalues    EBANDS =     -2834.96724473
  atomic energy  EATOM  =     21144.65133882
  ---------------------------------------------------
  free energy    TOTEN  =      -271.52424119 eV

  energy without entropy =     -271.52421650  energy(sigma->0) =     -271.52422885


--------------------------------------------------------------------------------------------------------




--------------------------------------- Iteration      1(   5)  ---------------------------------------


    TRIAL :  cpu time     48.3902: real time     47.7569
    CORREC:  cpu time      0.0111: real time      0.0112
    CHARGE:  cpu time      3.2259: real time      3.1746
    --------------------------------------------
      LOOP:  cpu time     51.6274: real time     50.9432

 eigenvalue-minimisations  : 63864
 total energy-change (2. order) :-0.3600936E+00  (-0.3590646E+00)
 number of electron     242.0000004 magnetization      18.0000004
 augmentation part       44.9915320 magnetization      11.1682286

 Free energy of the ion-electron system (eV)
  ---------------------------------------------------
  alpha Z        PSCENC =       617.62374051
  Ewald energy   TEWEN  =    -11838.86313202
  -Hartree energ DENC   =     -8218.13944193
  -exchange      EXHF   =         0.00000000
  -V(xc)+E(xc)   XCENC  =      1074.30753765
  PAW double counting   =     16944.50228969   -17160.63930450
  entropy T*S    EENTRO =        -0.00002797
  eigenvalues    EBANDS =     -2835.32733504
  atomic energy  EATOM  =     21144.65133882
  ---------------------------------------------------
  free energy    TOTEN  =      -271.88433479 eV

  energy without entropy =     -271.88430681  energy(sigma->0) =     -271.88432080


--------------------------------------------------------------------------------------------------------




--------------------------------------- Iteration      1(   6)  ---------------------------------------


    POTLOK:  cpu time      0.0865: real time      0.0858
    SETDIJ:  cpu time      0.2621: real time      0.0715
    TRIAL :  cpu time     50.3458: real time     49.2856
    CORREC:  cpu time     10.2617: real time     10.0186
    CHARGE:  cpu time      3.1661: real time      3.1183
    --------------------------------------------
      LOOP:  cpu time     64.1225: real time     62.5799

 eigenvalue-minimisations  :     0
 total energy-change (2. order) : 0.1172542E+03  (-0.4935272E+02)
 number of electron     242.0000005 magnetization      18.0000004
 augmentation part       44.8537589 magnetization      11.9984725

 Free energy of the ion-electron system (eV)
  ---------------------------------------------------
  alpha Z        PSCENC =       617.62374051
  Ewald energy   TEWEN  =    -11838.86313202
  -Hartree energ DENC   =     -8602.30211483
  -exchange      EXHF   =         0.00000000
  -V(xc)+E(xc)   XCENC  =      1123.33096170
  PAW double counting   =     48181.13526184   -48415.85028469
  entropy T*S    EENTRO =        -0.00974087
  eigenvalues    EBANDS =     -2364.35592452
  atomic energy  EATOM  =     21144.65133882
  ---------------------------------------------------
  free energy    TOTEN  =      -154.63018116 eV

  energy without entropy =     -154.62044029  energy(sigma->0) =     -154.62531073


--------------------------------------------------------------------------------------------------------




--------------------------------------- Iteration      1(   7)  ---------------------------------------


    POTLOK:  cpu time      0.0753: real time      0.0747
    SETDIJ:  cpu time      0.2515: real time      0.0684
    TRIAL :  cpu time     50.2529: real time     49.1978
    CORREC:  cpu time     10.2785: real time     10.0364
    CHARGE:  cpu time      3.1778: real time      3.1301
    --------------------------------------------
      LOOP:  cpu time     64.0364: real time     62.5080

 eigenvalue-minimisations  :     0
 total energy-change (2. order) :-0.4164444E+02  (-0.1842174E+02)
 number of electron     242.0000005 magnetization      18.0000004
 augmentation part       44.4191092 magnetization      12.1466423

 Free energy of the ion-electron system (eV)
  ---------------------------------------------------
  alpha Z        PSCENC =       617.62374051
  Ewald energy   TEWEN  =    -11838.86313202
  -Hartree energ DENC   =     -8477.99998594
  -exchange      EXHF   =         0.00000000
  -V(xc)+E(xc)   XCENC  =      1105.84063357
  PAW double counting   =     46218.52230681   -46482.58518874
  entropy T*S    EENTRO =        -0.01546839
  eigenvalues    EBANDS =     -2483.45459726
  atomic energy  EATOM  =     21144.65133882
  ---------------------------------------------------
  free energy    TOTEN  =      -196.27462513 eV

  energy without entropy =     -196.25915674  energy(sigma->0) =     -196.26689094


--------------------------------------------------------------------------------------------------------




--------------------------------------- Iteration      1(   8)  ---------------------------------------


    POTLOK:  cpu time      0.0755: real time      0.0748
    SETDIJ:  cpu time      0.2492: real time      0.0678
    TRIAL :  cpu time     50.2023: real time     49.1777
    CORREC:  cpu time     10.2567: real time     10.0169
    CHARGE:  cpu time      3.1854: real time      3.1378
    --------------------------------------------
      LOOP:  cpu time     63.9694: real time     62.4757

 eigenvalue-minimisations  :     0
 total energy-change (2. order) :-0.1425827E+02  (-0.1619022E+02)
 number of electron     242.0000006 magnetization      18.0000005
 augmentation part       43.8371083 magnetization      12.3780510

 Free energy of the ion-electron system (eV)
  ---------------------------------------------------
  alpha Z        PSCENC =       617.62374051
  Ewald energy   TEWEN  =    -11838.86313202
  -Hartree energ DENC   =     -8329.39935289
  -exchange      EXHF   =         0.00000000
  -V(xc)+E(xc)   XCENC  =      1094.33553303
  PAW double counting   =     44633.26937293   -44906.61134506
  entropy T*S    EENTRO =        -0.02556452
  eigenvalues    EBANDS =     -2625.52358597
  atomic energy  EATOM  =     21144.65133882
  ---------------------------------------------------
  free energy    TOTEN  =      -210.53289904 eV

  energy without entropy =     -210.50733452  energy(sigma->0) =     -210.52011678


--------------------------------------------------------------------------------------------------------




--------------------------------------- Iteration      1(   9)  ---------------------------------------


    POTLOK:  cpu time      0.0753: real time      0.0748
    SETDIJ:  cpu time      0.2495: real time      0.0679
    TRIAL :  cpu time     50.2512: real time     49.1855
    CORREC:  cpu time     10.2572: real time     10.0149
    CHARGE:  cpu time      3.1594: real time      3.1115
    --------------------------------------------
      LOOP:  cpu time     63.9929: real time     62.4551

 eigenvalue-minimisations  :     0
 total energy-change (2. order) :-0.8277660E+01  (-0.8640825E+01)
 number of electron     242.0000005 magnetization      18.0000004
 augmentation part       43.1077576 magnetization      12.3906596

 Free energy of the ion-electron system (eV)
  ---------------------------------------------------
  alpha Z        PSCENC =       617.62374051
  Ewald energy   TEWEN  =    -11838.86313202
  -Hartree energ DENC   =     -8234.80763300
  -exchange      EXHF   =         0.00000000
  -V(xc)+E(xc)   XCENC  =      1087.19239937
  PAW double counting   =     43197.79460165   -43471.63619383
  entropy T*S    EENTRO =        -0.00302685
  eigenvalues    EBANDS =     -2720.74011588
  atomic energy  EATOM  =     21144.65133882
  ---------------------------------------------------
  free energy    TOTEN  =      -218.81055890 eV

  energy without entropy =     -218.80753205  energy(sigma->0) =     -218.80904547


--------------------------------------------------------------------------------------------------------




--------------------------------------- Iteration      1(  10)  ---------------------------------------


    POTLOK:  cpu time      0.0751: real time      0.0746
    SETDIJ:  cpu time      0.2515: real time      0.0683
    TRIAL :  cpu time     50.2253: real time     49.1889
    CORREC:  cpu time     10.2546: real time     10.0104
    CHARGE:  cpu time      3.1631: real time      3.1162
    --------------------------------------------
      LOOP:  cpu time     63.9699: real time     62.4593

 eigenvalue-minimisations  :     0
 total energy-change (2. order) :-0.6743986E+01  (-0.1540822E+01)
 number of electron     242.0000005 magnetization      18.0000004
 augmentation part       43.0434648 magnetization      12.3363086

 Free energy of the ion-electron system (eV)
  ---------------------------------------------------
  alpha Z        PSCENC =       617.62374051
  Ewald energy   TEWEN  =    -11838.86313202
  -Hartree energ DENC   =     -8232.93196333
  -exchange      EXHF   =         0.00000000
  -V(xc)+E(xc)   XCENC  =      1085.41279378
  PAW double counting   =     41699.28517909   -41961.36582153
  entropy T*S    EENTRO =        -0.00903636
  eigenvalues    EBANDS =     -2739.36365293
  atomic energy  EATOM  =     21144.65133882
  ---------------------------------------------------
  free energy    TOTEN  =      -225.55454446 eV

  energy without entropy =     -225.54550810  energy(sigma->0) =     -225.55002628


--------------------------------------------------------------------------------------------------------




--------------------------------------- Iteration      1(  11)  ---------------------------------------


    POTLOK:  cpu time      0.0753: real time      0.0747
    SETDIJ:  cpu time      0.2502: real time      0.0680
    TRIAL :  cpu time     50.2422: real time     49.1554
    CORREC:  cpu time     10.2601: real time     10.0172
    CHARGE:  cpu time      3.1707: real time      3.1237
    --------------------------------------------
      LOOP:  cpu time     63.9990: real time     62.4397

 eigenvalue-minimisations  :     0
 total energy-change (2. order) :-0.2828242E+01  (-0.1174985E+01)
 number of electron     242.0000005 magnetization      18.0000004
 augmentation part       43.0882491 magnetization      12.2849684

 Free energy of the ion-electron system (eV)
  ---------------------------------------------------
  alpha Z        PSCENC =       617.62374051
  Ewald energy   TEWEN  =    -11838.86313202
  -Hartree energ DENC   =     -8254.49638869
  -exchange      EXHF   =         0.00000000
  -V(xc)+E(xc)   XCENC  =      1086.76674694
  PAW double counting   =     41439.42877246   -41697.92984756
  entropy T*S    EENTRO =        -0.02091583
  eigenvalues    EBANDS =     -2725.55498063
  atomic energy  EATOM  =     21144.65133882
  ---------------------------------------------------
  free energy    TOTEN  =      -228.38278652 eV

  energy without entropy =     -228.36187069  energy(sigma->0) =     -228.37232860


--------------------------------------------------------------------------------------------------------




--------------------------------------- Iteration      1(  12)  ---------------------------------------


    POTLOK:  cpu time      0.0753: real time      0.0747
    SETDIJ:  cpu time      0.2496: real time      0.0680
    TRIAL :  cpu time     50.2915: real time     49.2080
    CORREC:  cpu time     10.2644: real time     10.0222
    CHARGE:  cpu time      3.1663: real time      3.1193
    --------------------------------------------
      LOOP:  cpu time     64.0474: real time     62.4927

 eigenvalue-minimisations  :     0
 total energy-change (2. order) :-0.2175345E+01  (-0.5455039E+00)
 number of electron     242.0000005 magnetization      18.0000004
 augmentation part       43.1525436 magnetization      12.2163376

 Free energy of the ion-electron system (eV)
  ---------------------------------------------------
  alpha Z        PSCENC =       617.62374051
  Ewald energy   TEWEN  =    -11838.86313202
  -Hartree energ DENC   =     -8277.76977482
  -exchange      EXHF   =         0.00000000
  -V(xc)+E(xc)   XCENC  =      1088.25764590
  PAW double counting   =     41367.47019508   -41624.48321150
  entropy T*S    EENTRO =        -0.02453206
  eigenvalues    EBANDS =     -2707.42401794
  atomic energy  EATOM  =     21144.65133882
  ---------------------------------------------------
  free energy    TOTEN  =      -230.55813179 eV

  energy without entropy =     -230.53359972  energy(sigma->0) =     -230.54586576


--------------------------------------------------------------------------------------------------------




--------------------------------------- Iteration      1(  13)  ---------------------------------------


    POTLOK:  cpu time      0.0752: real time      0.0747
    SETDIJ:  cpu time      0.2510: real time      0.0681
    TRIAL :  cpu time     50.2630: real time     49.1950
    CORREC:  cpu time     10.2536: real time     10.0076
    CHARGE:  cpu time      3.1636: real time      3.1166
    --------------------------------------------
      LOOP:  cpu time     64.0067: real time     62.4627

 eigenvalue-minimisations  :     0
 total energy-change (2. order) : 0.1154009E+01  (-0.2016985E+02)
 number of electron     242.0000005 magnetization      18.0000004
 augmentation part       43.2170356 magnetization      12.1983967

 Free energy of the ion-electron system (eV)
  ---------------------------------------------------
  alpha Z        PSCENC =       617.62374051
  Ewald energy   TEWEN  =    -11838.86313202
  -Hartree energ DENC   =     -8312.18176586
  -exchange      EXHF   =         0.00000000
  -V(xc)+E(xc)   XCENC  =      1090.37754719
  PAW double counting   =     41281.62477650   -41536.75071292
  entropy T*S    EENTRO =        -0.00195913
  eigenvalues    EBANDS =     -2675.86138275
  atomic energy  EATOM  =     21144.65133882
  ---------------------------------------------------
  free energy    TOTEN  =      -229.40412258 eV

  energy without entropy =     -229.40216346  energy(sigma->0) =     -229.40314302


--------------------------------------------------------------------------------------------------------




--------------------------------------- Iteration      1(  14)  ---------------------------------------


    POTLOK:  cpu time      0.0755: real time      0.0749
    SETDIJ:  cpu time      0.2503: real time      0.0679
    TRIAL :  cpu time     50.1991: real time     49.1575
    CORREC:  cpu time     10.2573: real time     10.0137
    CHARGE:  cpu time      3.1664: real time      3.1184
    --------------------------------------------
      LOOP:  cpu time     63.9489: real time     62.4329

 eigenvalue-minimisations  :     0
 total energy-change (2. order) :-0.2223247E+01  (-0.1863906E+00)
 number of electron     242.0000005 magnetization      18.0000004
 augmentation part       43.2236289 magnetization      12.1901781

 Free energy of the ion-electron system (eV)
  ---------------------------------------------------
  alpha Z        PSCENC =       617.62374051
  Ewald energy   TEWEN  =    -11838.86313202
  -Hartree energ DENC   =     -8317.51347606
  -exchange      EXHF   =         0.00000000
  -V(xc)+E(xc)   XCENC  =      1091.61026913
  PAW double counting   =     41123.61089827   -41377.30687873
  entropy T*S    EENTRO =        -0.00151203
  eigenvalues    EBANDS =     -2675.43816991
  atomic energy  EATOM  =     21144.65133882
  ---------------------------------------------------
  free energy    TOTEN  =      -231.62736912 eV

  energy without entropy =     -231.62585709  energy(sigma->0) =     -231.62661310


[...]
  0.000  -0.000  -0.000  -0.000   0.000  -0.000  -0.000  -0.000  -0.000  -0.000   0.000  -0.000   0.000   0.000   0.000  -0.000
  0.000  -0.000  -0.000  -0.000  -0.000   0.000   0.000  -0.000   0.000   0.000  -0.000   0.000  -0.000  -0.000  -0.000   0.000
 -0.000   0.000  -0.000  -0.000  -0.000   0.000   0.000  -0.000  -0.000  -0.000  -0.000  -0.000  -0.000   0.000   0.000  -0.000
  0.000   0.000  -0.000  -0.000  -0.000  -0.000  -0.000   0.000  -0.000   0.000   0.000   0.000  -0.000   0.000  -0.000   0.000
 -0.000  -0.000  -0.000  -0.000  -0.000   0.000  -0.000  -0.000   0.001  -0.000  -0.000  -0.000   0.000  -0.000   0.000   0.000
 -0.000  -0.000  -0.000   0.000  -0.000   0.000  -0.000   0.000  -0.000   0.001  -0.000  -0.001  -0.000   0.000  -0.000   0.000
 -0.000  -0.000  -0.000   0.000   0.000  -0.000  -0.000   0.000  -0.000  -0.000   0.000  -0.000  -0.000   0.000   0.000   0.000
 -0.000  -0.001  -0.000   0.000  -0.000   0.000  -0.000   0.000  -0.000  -0.001  -0.000   0.001  -0.000   0.000   0.000   0.000
  0.000   0.000  -0.000   0.000   0.000  -0.000  -0.000  -0.000   0.000  -0.000  -0.000  -0.000   0.001  -0.000   0.000   0.000
  0.000   0.000  -0.000   0.000   0.000  -0.000   0.000   0.000  -0.000   0.000   0.000   0.000  -0.000   0.000  -0.000  -0.000
  0.000   0.000   0.000   0.000   0.000  -0.000   0.000  -0.000   0.000  -0.000   0.000   0.000   0.000  -0.000   0.000  -0.000
  0.000   0.000   0.000   0.000  -0.000   0.000  -0.000   0.000   0.000   0.000   0.000   0.000   0.000  -0.000  -0.000  -0.000
  0.000   0.000   0.000  -0.000   0.000  -0.000   0.000  -0.000   0.000   0.000   0.000  -0.000   0.000  -0.000  -0.000  -0.000
 -0.000  -0.000   0.000   0.000   0.000   0.000   0.000   0.000  -0.000   0.000   0.000   0.000  -0.000   0.000  -0.000  -0.000


------------------------ aborting loop because EDIFF is reached ----------------------------------------





 total charge

# of ion       s       p       d       tot
------------------------------------------
    1        2.011   5.850   0.164   8.025
    2        0.165   6.152   4.902  11.220
    3        0.244   6.270   4.818  11.333
    4        0.245   6.270   4.819  11.334
    5        0.165   6.152   4.903  11.220
    6        1.224   2.258   0.000   3.482
    7        1.225   2.259   0.000   3.485
    8        1.225   2.259   0.000   3.484
    9        1.225   2.259   0.000   3.484
   10        1.225   2.259   0.000   3.484
   11        1.224   2.258   0.000   3.481
   12        1.576   3.576   0.000   5.152
   13        1.583   3.582   0.000   5.165
   14        1.578   3.575   0.000   5.153
   15        1.575   3.587   0.000   5.163
   16        1.577   3.576   0.000   5.153
   17        1.577   3.571   0.000   5.148
   18        1.577   3.571   0.000   5.148
   19        1.578   3.574   0.000   5.152
   20        1.583   3.582   0.000   5.165
   21        1.577   3.577   0.000   5.153
   22        1.575   3.588   0.000   5.163
   23        1.575   3.576   0.000   5.152
   24        1.574   3.577   0.000   5.151
   25        1.576   3.596   0.000   5.172
   26        1.580   3.571   0.000   5.151
   27        1.575   3.598   0.000   5.173
   28        1.575   3.559   0.000   5.134
   29        1.579   3.592   0.000   5.171
   30        1.579   3.592   0.000   5.171
   31        1.580   3.569   0.000   5.149
   32        1.576   3.594   0.000   5.171
   33        1.575   3.560   0.000   5.134
   34        1.575   3.599   0.000   5.174
   35        1.574   3.578   0.000   5.152
--------------------------------------------------
tot         48.029 130.167  19.607 197.803



 magnetization (x)

# of ion       s       p       d       tot
------------------------------------------
    1        0.000   0.000   0.002   0.002
    2        0.019   0.020   4.426   4.465
    3        0.024   0.023   3.722   3.769
    4        0.025   0.023   3.718   3.766
    5        0.019   0.020   4.427   4.467
    6        0.007   0.015   0.000   0.022
    7        0.007   0.017   0.000   0.023
    8        0.007   0.017   0.000   0.024
    9        0.007   0.016   0.000   0.023
   10        0.007   0.016   0.000   0.023
   11        0.007   0.015   0.000   0.022
   12        0.005   0.007   0.000   0.012
   13        0.009   0.035   0.000   0.044
   14        0.005   0.010   0.000   0.015
   15        0.003   0.014   0.000   0.017
   16        0.005   0.028   0.000   0.033
   17        0.003   0.008   0.000   0.011
   18        0.003   0.008   0.000   0.012
   19        0.005   0.010   0.000   0.014
   20        0.009   0.035   0.000   0.044
   21        0.005   0.028   0.000   0.033
   22        0.003   0.014   0.000   0.017
   23        0.005   0.007   0.000   0.012
   24        0.002   0.009   0.000   0.012
   25        0.007   0.008   0.000   0.014
   26        0.008   0.040   0.000   0.048
   27        0.007   0.029   0.000   0.035
   28        0.003   0.008   0.000   0.010
   29        0.006   0.013   0.000   0.019
   30        0.006   0.013   0.000   0.019
   31        0.008   0.040   0.000   0.048
   32        0.007   0.008   0.000   0.014
   33        0.003   0.009   0.000   0.011
   34        0.007   0.029   0.000   0.035
   35        0.002   0.010   0.000   0.012
--------------------------------------------------
tot          0.252   0.602  16.295  17.149
 
    FORLOC:  cpu time      0.0199: real time      0.0198
    FORNL :  cpu time     15.1843: real time     14.4921
    STRESS:  cpu time     45.7102: real time     43.5571
    FORCOR:  cpu time      0.0754: real time      0.0720
    OFIELD:  cpu time      0.0210: real time      0.0210

  FORCE on cell =-STRESS in cart. coord.  units (eV):
  Direction    XX          YY          ZZ          XY          YZ          ZX
  --------------------------------------------------------------------------------------
  Alpha Z   617.62374   617.62374   617.62374
  Ewald   -4002.52306 -3955.31450 -3881.08096   229.39471   220.72032  -249.06099
  Hartree  2742.34977  2829.08277  2802.35203   121.44767    86.89702  -233.07250
  E(xc)   -1221.49856 -1221.56729 -1221.21619     0.32177     0.42453    -0.00270
  Local   -2612.86958 -2748.53952 -2795.31147  -340.26868  -292.92177   475.83724
  n-local  -388.27947  -393.21381  -392.94395    -0.47543     2.33262     1.19762
  augment   491.23325   490.53639   492.28407    -4.60415    -4.98077     5.05554
  Kinetic  4374.18927  4381.63790  4378.39375    -5.90799   -12.47804    -0.02778
  Fock        0.00000     0.00000     0.00000     0.00000     0.00000     0.00000
  -------------------------------------------------------------------------------------
  Total       0.22536     0.24567     0.10100    -0.09211    -0.00610    -0.07357
  in kB       0.76490     0.83384     0.34281    -0.31264    -0.02071    -0.24969
  external pressure =        0.65 kB  Pullay stress =        0.00 kB


 VOLUME and BASIS-vectors are now :
 -----------------------------------------------------------------------------
  energy-cutoff  :      520.00
  volume of cell :      472.05
      direct lattice vectors                 reciprocal lattice vectors
     7.804629141  0.082453078  5.014548745     0.133556936 -0.048028478 -0.007658168
     2.796284681  6.995131210  4.896433493    -0.000216831  0.144469813 -0.002038009
     0.568469792  0.129271368  9.103270325    -0.073453390 -0.051250339  0.115165341

  length of vectors
     9.277108044  8.984772096  9.121918636     0.142136685  0.144484350  0.145893981


 FORCES acting on ions:
    Electron-Ion                     Ewald-Force                    Non-Local-Force
 -----------------------------------------------------------------------------------------------
   -.107E+00 -.434E+01 0.256E+01   0.119E+00 0.431E+01 -.253E+01   -.120E-01 0.279E-01 -.245E-01
   -.105E+02 -.137E+02 -.220E+02   0.112E+02 0.144E+02 0.232E+02   -.667E+00 -.788E+00 -.125E+01
   0.932E+02 0.487E+02 0.110E+03   -.923E+02 -.485E+02 -.111E+03   -.876E+00 -.142E+00 0.322E+00
   -.926E+02 -.477E+02 -.110E+03   0.917E+02 0.475E+02 0.111E+03   0.866E+00 0.189E+00 -.362E+00
   0.972E+01 0.111E+02 0.237E+02   -.103E+02 -.119E+02 -.249E+02   0.642E+00 0.822E+00 0.124E+01
   -.563E+01 0.540E+01 -.821E+02   0.679E+01 -.464E+01 0.840E+02   -.120E+01 -.780E+00 -.196E+01
   0.676E+02 0.162E+02 0.463E+02   -.657E+02 -.170E+02 -.472E+02   -.201E+01 0.884E+00 0.889E+00
   -.664E+02 -.140E+02 -.457E+02   0.644E+02 0.148E+02 0.466E+02   0.210E+01 -.926E+00 -.906E+00
   0.129E+02 0.825E+02 0.440E+02   -.107E+02 -.854E+02 -.462E+02   -.225E+01 0.298E+01 0.216E+01
   -.124E+02 -.834E+02 -.448E+02   0.103E+02 0.863E+02 0.469E+02   0.222E+01 -.299E+01 -.213E+01
   0.384E+01 -.522E+01 0.819E+02   -.490E+01 0.437E+01 -.838E+02   0.109E+01 0.867E+00 0.196E+01
   -.861E+01 -.129E+03 0.507E+02   0.361E+02 0.147E+03 -.721E+02   -.275E+02 -.175E+02 0.214E+02
   -.519E+02 0.135E+03 0.152E+03   0.896E+02 -.161E+03 -.154E+03   -.378E+02 0.259E+02 0.158E+01
   0.104E+03 0.909E+01 -.637E+02   -.138E+03 0.124E+02 0.737E+02   0.340E+02 -.215E+02 -.999E+01
   0.143E+03 -.596E+02 0.165E+03   -.145E+03 0.975E+02 -.177E+03   0.246E+01 -.379E+02 0.116E+02
   -.107E+03 0.857E+02 0.582E+01   0.116E+03 -.123E+03 0.679E+01   -.923E+01 0.373E+02 -.126E+02
   0.168E+03 0.157E+03 0.110E+03   -.198E+03 -.174E+03 -.914E+02   0.298E+02 0.171E+02 -.189E+02
   -.167E+03 -.155E+03 -.112E+03   0.197E+03 0.172E+03 0.928E+02   -.297E+02 -.170E+02 0.188E+02
   -.107E+03 -.872E+01 0.605E+02   0.142E+03 -.130E+02 -.701E+02   -.342E+02 0.217E+02 0.961E+01
   0.515E+02 -.136E+03 -.153E+03   -.892E+02 0.163E+03 0.154E+03   0.377E+02 -.261E+02 -.171E+01
   0.112E+03 -.844E+02 -.311E+01   -.122E+03 0.122E+03 -.980E+01   0.974E+01 -.372E+02 0.129E+02
   -.144E+03 0.614E+02 -.165E+03   0.146E+03 -.994E+02 0.177E+03   -.244E+01 0.380E+02 -.115E+02
   0.847E+01 0.126E+03 -.510E+02   -.358E+02 -.144E+03 0.725E+02   0.274E+02 0.174E+02 -.215E+02
   0.753E+02 -.126E+03 0.253E+02   -.762E+02 0.141E+03 -.599E+02   0.840E+00 -.145E+02 0.346E+02
   0.146E+03 0.198E+02 0.904E+02   -.156E+03 -.470E+02 -.121E+03   0.105E+02 0.271E+02 0.303E+02
   0.109E+03 0.888E+02 -.265E+02   -.149E+03 -.929E+02 0.117E+02   0.400E+02 0.407E+01 0.149E+02
   0.424E+02 0.141E+03 0.101E+03   -.561E+02 -.143E+03 -.141E+03   0.137E+02 0.140E+01 0.400E+02
   -.127E+03 0.112E+02 0.783E+02   0.133E+03 -.404E+02 -.982E+02   -.610E+01 0.292E+02 0.199E+02
   0.123E+02 -.191E+02 0.194E+03   -.437E+02 0.917E+01 -.223E+03   0.314E+02 0.991E+01 0.286E+02
   -.135E+02 0.193E+02 -.193E+03   0.451E+02 -.951E+01 0.222E+03   -.316E+02 -.984E+01 -.285E+02
   -.110E+03 -.870E+02 0.243E+02   0.150E+03 0.915E+02 -.923E+01   -.398E+02 -.447E+01 -.151E+02
   -.147E+03 -.187E+02 -.914E+02   0.158E+03 0.454E+02 0.122E+03   -.110E+02 -.267E+02 -.306E+02
   0.130E+03 -.118E+02 -.782E+02   -.136E+03 0.412E+02 0.979E+02   0.637E+01 -.294E+02 -.197E+02
   -.420E+02 -.141E+03 -.101E+03   0.556E+02 0.142E+03 0.140E+03   -.136E+02 -.117E+01 -.399E+02
   -.757E+02 0.126E+03 -.239E+02   0.763E+02 -.140E+03 0.585E+02   -.596E+00 0.144E+02 -.345E+02
 -----------------------------------------------------------------------------------------------
   -.624E-01 -.546E+00 0.408E+00   -.114E-12 0.114E-12 0.924E-13   0.615E-01 0.541E+00 -.405E+00
 
 
 POSITION                                       TOTAL-FORCE (eV/Angst)
 -----------------------------------------------------------------------------------
      5.55745      3.56213      9.46750        -0.000062      0.001075     -0.001111
      7.24120      4.67885     12.31551        -0.011286     -0.021227     -0.009704
      1.71426      1.05247      2.84304        -0.007400      0.015867      0.008515
      9.39490      6.11964     16.07263         0.013622     -0.013263     -0.010796
      3.87607      2.49099      6.59641         0.013110      0.017252      0.012297
      8.41708      1.83748     10.85000         0.003170      0.008514     -0.009174
      4.06725      0.52235      9.33922         0.016886      0.008618     -0.015005
      7.04303      6.64823      9.57791        -0.017344     -0.004273      0.011993
      7.16072      3.31168      6.40531        -0.007011     -0.014328     -0.015934
      3.95017      3.86129     12.50909         0.008077      0.011948      0.012706
      2.69679      5.33099      8.06654        -0.001322     -0.010198      0.007919
      5.11210      4.38222     11.70332         0.001454      0.010416     -0.002803
      8.33279      2.45651      6.53893        -0.008317      0.016314     -0.010217
      7.27476      2.74234     11.16462        -0.005846      0.004814      0.004581
      3.03381      6.74854      7.76130        -0.011109     -0.016278     -0.008888
      7.20969      5.28137     10.17665        -0.003535      0.008859     -0.006320
      3.00003      0.29127     10.37223        -0.002651      0.005291     -0.019012
      8.11118      6.87708      8.54384         0.003886     -0.006709      0.021287
      3.83978      4.42568      7.76055         0.006787     -0.005252     -0.009845
      2.78032      4.71996     12.37894         0.011475     -0.017177      0.008993
      3.89001      1.88385      8.73135         0.005275     -0.016879      0.004796
      8.07930      0.42024     11.15310         0.004964      0.010364      0.011550
      6.00132      2.78918      7.21422        -0.003750     -0.008600      0.002499
      8.64766      2.02422      9.36990        -0.000068     -0.001392      0.007634
      6.68067      6.46608     13.22771        -0.006945      0.002369     -0.001728
      5.68620      6.67643      8.98035         0.021460     -0.005201      0.003584
      7.32684      3.58943     14.10579        -0.000238      0.013044      0.001520
      3.70979      2.49154     11.86566        -0.016385     -0.012077     -0.007651
      9.31151      5.06613     12.30266         0.007614      0.001168      0.011858
      1.80538      2.10009      6.60894        -0.004456     -0.000439     -0.017090
      5.42471      0.51599      9.94000        -0.024410      0.007444     -0.002277
      4.44392      0.69522      5.69749         0.004379      0.005232      0.006366
      7.39756      4.68527      7.04093         0.014937      0.015277      0.011690
      3.78256      3.57622      4.80825        -0.004128     -0.013235     -0.002535
      2.45647      5.14931      9.54536        -0.000834      0.002661      0.000303
 -----------------------------------------------------------------------------------
    total drift:                               -0.000845     -0.005646      0.003286


--------------------------------------------------------------------------------------------------------



  FREE ENERGIE OF THE ION-ELECTRON SYSTEM (eV)
  ---------------------------------------------------
  free  energy   TOTEN  =      -235.79757882 eV

  energy  without entropy=     -235.79757670  energy(sigma->0) =     -235.79757776
 


--------------------------------------------------------------------------------------------------------


    POTLOK:  cpu time      0.3901: real time      0.1974


--------------------------------------------------------------------------------------------------------




--------------------------------------------------------------------------------------------------------


  
 reached required accuracy - stopping structural energy minimisation
     LOOP+:  cpu time   2841.1731: real time   2773.5410
    4ORBIT:  cpu time      0.0017: real time      0.0023



 total charge

# of ion       s       p       d       tot
------------------------------------------
    1        2.011   5.850   0.164   8.025
    2        0.165   6.152   4.902  11.220
    3        0.244   6.270   4.818  11.333
    4        0.245   6.270   4.819  11.334
    5        0.165   6.152   4.903  11.220
    6        1.224   2.258   0.000   3.482
    7        1.225   2.259   0.000   3.485
    8        1.225   2.259   0.000   3.484
    9        1.225   2.259   0.000   3.484
   10        1.225   2.259   0.000   3.484
   11        1.224   2.258   0.000   3.481
   12        1.576   3.576   0.000   5.152
   13        1.583   3.582   0.000   5.165
   14        1.578   3.575   0.000   5.153
   15        1.575   3.587   0.000   5.163
   16        1.577   3.576   0.000   5.153
   17        1.577   3.571   0.000   5.148
   18        1.577   3.571   0.000   5.148
   19        1.578   3.574   0.000   5.152
   20        1.583   3.582   0.000   5.165
   21        1.577   3.577   0.000   5.153
   22        1.575   3.588   0.000   5.163
   23        1.575   3.576   0.000   5.152
   24        1.574   3.577   0.000   5.151
   25        1.576   3.596   0.000   5.172
   26        1.580   3.571   0.000   5.151
   27        1.575   3.598   0.000   5.173
   28        1.575   3.559   0.000   5.134
   29        1.579   3.592   0.000   5.171
   30        1.579   3.592   0.000   5.171
   31        1.580   3.569   0.000   5.149
   32        1.576   3.594   0.000   5.171
   33        1.575   3.560   0.000   5.134
   34        1.575   3.599   0.000   5.174
   35        1.574   3.578   0.000   5.152
--------------------------------------------------
tot         48.029 130.167  19.607 197.803



 magnetization (x)

# of ion       s       p       d       tot
------------------------------------------
    1        0.000   0.000   0.002   0.002
    2        0.019   0.020   4.426   4.465
    3        0.024   0.023   3.722   3.769
    4        0.025   0.023   3.718   3.766
    5        0.019   0.020   4.427   4.467
    6        0.007   0.015   0.000   0.022
    7        0.007   0.017   0.000   0.023
    8        0.007   0.017   0.000   0.024
    9        0.007   0.016   0.000   0.023
   10        0.007   0.016   0.000   0.023
   11        0.007   0.015   0.000   0.022
   12        0.005   0.007   0.000   0.012
   13        0.009   0.035   0.000   0.044
   14        0.005   0.010   0.000   0.015
   15        0.003   0.014   0.000   0.017
   16        0.005   0.028   0.000   0.033
   17        0.003   0.008   0.000   0.011
   18        0.003   0.008   0.000   0.012
   19        0.005   0.010   0.000   0.014
   20        0.009   0.035   0.000   0.044
   21        0.005   0.028   0.000   0.033
   22        0.003   0.014   0.000   0.017
   23        0.005   0.007   0.000   0.012
   24        0.002   0.009   0.000   0.012
   25        0.007   0.008   0.000   0.014
   26        0.008   0.040   0.000   0.048
   27        0.007   0.029   0.000   0.035
   28        0.003   0.008   0.000   0.010
   29        0.006   0.013   0.000   0.019
   30        0.006   0.013   0.000   0.019
   31        0.008   0.040   0.000   0.048
   32        0.007   0.008   0.000   0.014
   33        0.003   0.009   0.000   0.011
   34        0.007   0.029   0.000   0.035
   35        0.002   0.010   0.000   0.012
--------------------------------------------------
tot          0.252   0.602  16.295  17.149
 

 total amount of memory used by VASP MPI-rank0 13328976. kBytes
=======================================================================

   base      :      30000. kBytes
   nonlr-proj:      24314. kBytes
   fftplans  :      94700. kBytes
   grid      :     294156. kBytes
   one-center:       1088. kBytes
   wavefun   :   12884718. kBytes
 
  
  
 General timing and accounting informations for this job:
 ========================================================
  
                  Total CPU time used (sec):     2875.684
                            User time (sec):     2336.307
                          System time (sec):      539.377
                         Elapsed time (sec):     2807.064
  
                   Maximum memory used (kb):    15348796.
                   Average memory used (kb):          N/A
  
                          Minor page faults:      9290441
                          Major page faults:         2736
                 Voluntary context switches:      6075695
