       N       E                     dE             d eps       ncg     rms          rms(c)
DAV:   1     0.221832938595E+04    0.22183E+04   -0.12164E+05 39456   0.152E+03
DAV:   2    -0.220249671497E+02   -0.22404E+04   -0.20942E+04 40800   0.411E+02
DAV:   3    -0.262204368947E+03   -0.24018E+03   -0.22915E+03 44112   0.145E+02
DAV:   4    -0.270066579846E+03   -0.78622E+01   -0.78031E+01 45992   0.283E+01
DAV:   5    -0.270532177143E+03   -0.46560E+00   -0.46520E+00 63624   0.550E+00    0.264E-01
DAV:   6    -0.270565469894E+03   -0.33293E-01   -0.72944E-02 53256   0.678E-01    0.575E-01
DAV:   7    -0.270566200097E+03   -0.73020E-03   -0.14402E-02 56952   0.241E-01    0.799E-01
DAV:   8    -0.270565512230E+03    0.68787E-03   -0.50847E-03 54096   0.148E-01    0.122E-01
DAV:   9    -0.270565798449E+03   -0.28622E-03   -0.11572E-03 46504   0.778E-02    0.271E-01
DAV:  10    -0.270565695392E+03    0.10306E-03   -0.81588E-04 35680   0.649E-02    0.808E-02
DAV:  11    -0.270565721894E+03   -0.26501E-04   -0.36226E-05 28936   0.214E-02    0.730E-02
DAV:  12    -0.270565724814E+03   -0.29206E-05   -0.39812E-05 24376   0.176E-02
   1 F= -.27056572E+03 E0= -.27055457E+03  d E =-.270566E+03  mag=     4.0000
