       N       E                     dE             d eps       ncg     rms          ort
DAV:   1     0.258718710716E+04    0.25872E+04   -0.16034E+05 11088   0.163E+03
DAV:   2    -0.150552262455E+03   -0.27377E+04   -0.25679E+04 11088   0.443E+02
DAV:   3    -0.422320480231E+03   -0.27177E+03   -0.26612E+03 11088   0.155E+02
DAV:   4    -0.431936439919E+03   -0.96160E+01   -0.95071E+01 11088   0.300E+01
DAV:   5    -0.432634389660E+03   -0.69795E+00   -0.69664E+00 11088   0.594E+00
SDA:   6    -0.349477829642E+03    0.83157E+02   -0.69664E+00 11088   0.207E+02 0.000E+00
CGA:   7    -0.352760132824E+03   -0.32823E+01   -0.32921E+01 11088   0.483E+01 0.559E-01
CGA:   8    -0.353563495944E+03   -0.80336E+00   -0.80176E+00 11088   0.167E+01-0.137E+00
CGA:   9    -0.353946257954E+03   -0.38276E+00   -0.38808E+00 11088   0.117E+01-0.127E+00
CGA:  10    -0.354110895325E+03   -0.16464E+00   -0.16229E+00 11088   0.346E+00-0.488E-01
CGA:  11    -0.354181550423E+03   -0.70655E-01   -0.70958E-01 11088   0.168E+00-0.167E-01
CGA:  12    -0.354214575755E+03   -0.33025E-01   -0.33113E-01 11088   0.606E-01-0.873E-02
CGA:  13    -0.354227310059E+03   -0.12734E-01   -0.12802E-01 11088   0.233E-01-0.255E-02
CGA:  14    -0.354232276433E+03   -0.49664E-02   -0.49733E-02 11088   0.749E-02-0.277E-03
CGA:  15    -0.354234399333E+03   -0.21229E-02   -0.26889E-02 11088   0.644E-02-0.346E-02
CGA:  16    -0.354235210148E+03   -0.81081E-03   -0.84196E-03 11088   0.313E-02-0.892E-03
CGA:  17    -0.354235554744E+03   -0.34460E-03   -0.39796E-03 11088   0.137E-02 0.856E-03
CGA:  18    -0.354235674007E+03   -0.11926E-03   -0.19839E-03 11088   0.618E-03 0.849E-03
CGA:  19    -0.354235738351E+03   -0.64343E-04   -0.88389E-04 11088   0.298E-03 0.406E-03
CGA:  20    -0.354235750803E+03   -0.12452E-04   -0.33794E-04 11088   0.208E-03 0.249E-03
CGA:  21    -0.354235756112E+03   -0.53088E-05   -0.21729E-04 11088   0.158E-03 0.181E-03
CGA:  22    -0.354235758321E+03   -0.22089E-05   -0.15355E-04 11088   0.126E-03 0.141E-03
CGA:  23    -0.354235758857E+03   -0.53649E-06   -0.11417E-04 11088   0.104E-03 0.114E-03
   1 F= -.35423576E+03 E0= -.35423576E+03  d E =-.354236E+03  mag=     8.0000
