       N       E                     dE             d eps       ncg     rms          ort
DAV:   1     0.258734545783E+04    0.25873E+04   -0.14106E+05 10584   0.164E+03
DAV:   2    -0.127840256434E+03   -0.27152E+04   -0.25120E+04 10584   0.427E+02
DAV:   3    -0.444468082179E+03   -0.31663E+03   -0.31157E+03 10584   0.167E+02
DAV:   4    -0.456235839009E+03   -0.11768E+02   -0.11532E+02 10584   0.312E+01
DAV:   5    -0.456756608237E+03   -0.52077E+00   -0.51398E+00 10584   0.490E+00
SDA:   6    -0.246895988183E+03    0.20986E+03   -0.51398E+00 10584   0.521E+03 0.000E+00
CGA:   7    -0.323461823282E+03   -0.76566E+02   -0.69405E+02 10584   0.168E+03-0.739E+02
CGA:   8    -0.329421296995E+03   -0.59595E+01   -0.13685E+02 10584   0.151E+03-0.187E+02
CGA:   9    -0.339796876253E+03   -0.10376E+02   -0.11360E+02 10584   0.318E+02-0.150E+02
CGA:  10    -0.343066030867E+03   -0.32692E+01   -0.35289E+01 10584   0.460E+02-0.178E+00
CGA:  11    -0.344069036807E+03   -0.10030E+01   -0.27084E+01 10584   0.347E+02-0.179E+02
CGA:  12    -0.345204351786E+03   -0.11353E+01   -0.11846E+01 10584   0.992E+01-0.506E+01
CGA:  13    -0.346309457085E+03   -0.11051E+01   -0.11279E+01 10584   0.697E+01 0.166E+00
CGA:  14    -0.346819853520E+03   -0.51040E+00   -0.51398E+00 10584   0.327E+01-0.104E+01
CGA:  15    -0.347014950540E+03   -0.19510E+00   -0.18713E+00 10584   0.205E+01 0.102E+00
CGA:  16    -0.347172589600E+03   -0.15764E+00   -0.15692E+00 10584   0.201E+01-0.619E-01
CGA:  17    -0.347270827113E+03   -0.98238E-01   -0.99656E-01 10584   0.871E+00-0.531E-01
CGA:  18    -0.347329761538E+03   -0.58934E-01   -0.63311E-01 10584   0.117E+01-0.385E-01
CGA:  19    -0.347408623239E+03   -0.78862E-01   -0.81860E-01 10584   0.767E+00-0.415E-01
CGA:  20    -0.347453497797E+03   -0.44875E-01   -0.44320E-01 10584   0.516E+00 0.122E-01
CGA:  21    -0.347496155047E+03   -0.42657E-01   -0.41819E-01 10584   0.581E+00 0.983E-02
CGA:  22    -0.347541851362E+03   -0.45696E-01   -0.50518E-01 10584   0.444E+00 0.869E-02
CGA:  23    -0.347569711753E+03   -0.27860E-01   -0.29091E-01 10584   0.195E+00 0.159E-02
CGA:  24    -0.347597175572E+03   -0.27464E-01   -0.27706E-01 10584   0.328E+00-0.967E-02
CGA:  25    -0.347620940904E+03   -0.23765E-01   -0.22848E-01 10584   0.220E+00 0.937E-02
CGA:  26    -0.347633209103E+03   -0.12268E-01   -0.12795E-01 10584   0.120E+00-0.640E-02
CGA:  27    -0.347645684680E+03   -0.12476E-01   -0.12534E-01 10584   0.192E+00 0.532E-03
CGA:  28    -0.347659440589E+03   -0.13756E-01   -0.12555E-01 10584   0.845E-01 0.827E-02
CGA:  29    -0.347664960707E+03   -0.55201E-02   -0.52448E-02 10584   0.893E-01 0.496E-02
CGA:  30    -0.347672075461E+03   -0.71148E-02   -0.71579E-02 10584   0.943E-01 0.439E-02
CGA:  31    -0.347676153024E+03   -0.40776E-02   -0.42742E-02 10584   0.510E-01 0.372E-02
CGA:  32    -0.347679066387E+03   -0.29134E-02   -0.30103E-02 10584   0.443E-01 0.315E-02
CGA:  33    -0.347681179005E+03   -0.21126E-02   -0.21170E-02 10584   0.296E-01 0.306E-02
CGA:  34    -0.347683284559E+03   -0.21056E-02   -0.21108E-02 10584   0.473E-01 0.673E-03
CGA:  35    -0.347686120529E+03   -0.28360E-02   -0.27528E-02 10584   0.375E-01 0.672E-03
CGA:  36    -0.347687459640E+03   -0.13391E-02   -0.12582E-02 10584   0.174E-01 0.125E-02
SDA:  37    -0.347688238545E+03   -0.77890E-03   -0.72016E-03 10584   0.157E-01 0.108E-03
CGA:  38    -0.347689379714E+03   -0.11412E-02   -0.11223E-02 10584   0.148E-01-0.848E-03
CGA:  39    -0.347692487635E+03   -0.31079E-02   -0.38504E-02 10584   0.449E-01-0.402E-02
CGA:  40    -0.347694091896E+03   -0.16043E-02   -0.14686E-02 10584   0.148E-01-0.813E-04
CGA:  41    -0.347694853318E+03   -0.76142E-03   -0.76379E-03 10584   0.953E-02 0.187E-03
CGA:  42    -0.347695359156E+03   -0.50584E-03   -0.53600E-03 10584   0.784E-02 0.456E-03
CGA:  43    -0.347696018739E+03   -0.65958E-03   -0.67552E-03 10584   0.106E-01 0.133E-02
CGA:  44    -0.347696721315E+03   -0.70258E-03   -0.74697E-03 10584   0.574E-02 0.130E-02
CGA:  45    -0.347697038160E+03   -0.31684E-03   -0.31227E-03 10584   0.305E-02-0.135E-03
CGA:  46    -0.347697430993E+03   -0.39283E-03   -0.60032E-03 10584   0.166E-01-0.187E-02
CGA:  47    -0.347697909144E+03   -0.47815E-03   -0.47814E-03 10584   0.210E-02 0.642E-03
CGA:  48    -0.347698140835E+03   -0.23169E-03   -0.23188E-03 10584   0.157E-02 0.144E-04
CGA:  49    -0.347698273523E+03   -0.13269E-03   -0.13324E-03 10584   0.283E-02 0.922E-04
CGA:  50    -0.347698755219E+03   -0.48170E-03   -0.46063E-03 10584   0.139E-02 0.340E-03
CGA:  51    -0.347698851625E+03   -0.96406E-04   -0.97669E-04 10584   0.253E-02 0.895E-04
CGA:  52    -0.347699302797E+03   -0.45117E-03   -0.51632E-03 10584   0.420E-02-0.982E-03
CGA:  53    -0.347699313508E+03   -0.10711E-04   -0.20830E-04 10584   0.242E-02 0.460E-03
CGA:  54    -0.347699332662E+03   -0.19154E-04   -0.26681E-04 10584   0.126E-02 0.272E-03
CGA:  55    -0.347699351757E+03   -0.19096E-04   -0.22177E-04 10584   0.175E-02 0.957E-04
CGA:  56    -0.347699399164E+03   -0.47406E-04   -0.44633E-04 10584   0.425E-02 0.433E-04
CGA:  57    -0.347699491024E+03   -0.91860E-04   -0.68949E-04 10584   0.619E-02 0.601E-03
CGA:  58    -0.347699598203E+03   -0.10718E-03   -0.72080E-04 10584   0.470E-02 0.163E-02
CGA:  59    -0.347699679724E+03   -0.81520E-04   -0.58790E-04 10584   0.290E-02 0.706E-03
CGA:  60    -0.347699728271E+03   -0.48547E-04   -0.36440E-04 10584   0.273E-02 0.269E-03
CGA:  61    -0.347699769193E+03   -0.40922E-04   -0.32007E-04 10584   0.309E-02 0.398E-03
CGA:  62    -0.347699806851E+03   -0.37658E-04   -0.31265E-04 10584   0.288E-02 0.679E-03
CGA:  63    -0.347699836202E+03   -0.29352E-04   -0.27396E-04 10584   0.225E-02 0.602E-03
CGA:  64    -0.347699856528E+03   -0.20326E-04   -0.21558E-04 10584   0.202E-02 0.333E-03
CGA:  65    -0.347699875384E+03   -0.18856E-04   -0.20683E-04 10584   0.265E-02 0.239E-03
CGA:  66    -0.347699903383E+03   -0.27999E-04   -0.28442E-04 10584   0.442E-02 0.344E-03
CGA:  67    -0.347699950768E+03   -0.47386E-04   -0.42133E-04 10584   0.680E-02 0.896E-03
CGA:  68    -0.347700019893E+03   -0.69125E-04   -0.59578E-04 10584   0.793E-02 0.121E-02
CGA:  69    -0.347700079777E+03   -0.59884E-04   -0.61781E-04 10584   0.637E-02-0.864E-03
CGA:  70    -0.347700104941E+03   -0.25163E-04   -0.25560E-04 10584   0.440E-02-0.700E-03
CGA:  71    -0.347700121917E+03   -0.16976E-04   -0.15768E-04 10584   0.299E-02-0.242E-03
CGA:  72    -0.347700135099E+03   -0.13182E-04   -0.11936E-04 10584   0.226E-02-0.104E-03
CGA:  73    -0.347700146334E+03   -0.11236E-04   -0.10303E-04 10584   0.214E-02-0.664E-04
CGA:  74    -0.347700158093E+03   -0.11758E-04   -0.11186E-04 10584   0.254E-02-0.659E-04
CGA:  75    -0.347700172740E+03   -0.14647E-04   -0.14564E-04 10584   0.339E-02-0.981E-04
CGA:  76    -0.347700191851E+03   -0.19111E-04   -0.19794E-04 10584   0.438E-02-0.187E-03
SDA:  77    -0.347700214769E+03   -0.22918E-04   -0.24373E-04 10584   0.496E-02-0.330E-03
CGA:  78    -0.347700426472E+03   -0.21170E-03   -0.21200E-03 10584   0.375E-02-0.354E-04
CGA:  79    -0.347700893598E+03   -0.46713E-03   -0.43879E-03 10584   0.578E-02 0.336E-03
CGA:  80    -0.347702365812E+03   -0.14722E-02   -0.82257E-04 10584   0.128E-02 0.162E-03
CGA:  81    -0.347702424769E+03   -0.58957E-04   -0.62195E-04 10584   0.119E-02 0.157E-03
CGA:  82    -0.347702515544E+03   -0.90775E-04   -0.90751E-04 10584   0.576E-03 0.402E-03
CGA:  83    -0.347702637335E+03   -0.12179E-03   -0.10609E-03 10584   0.109E-02 0.222E-03
CGA:  84    -0.347702690158E+03   -0.52823E-04   -0.58322E-04 10584   0.485E-03 0.209E-03
CGA:  85    -0.347702772297E+03   -0.82139E-04    0.10745E-02 10584   0.268E-03 0.444E-03
CGA:  86    -0.347702810915E+03   -0.38618E-04    0.30207E-03 10584   0.301E-03 0.147E-03
CGA:  87    -0.347702831936E+03   -0.21021E-04   -0.20981E-04 10584   0.130E-02-0.211E-03
CGA:  88    -0.347702853171E+03   -0.21236E-04   -0.23943E-04 10584   0.161E-03 0.625E-04
CGA:  89    -0.347702879515E+03   -0.26344E-04    0.34671E-04 10584   0.219E-03 0.149E-03
CGA:  90    -0.347702894478E+03   -0.14963E-04   -0.15135E-04 10584   0.855E-03-0.101E-03
CGA:  91    -0.347702662916E+03    0.23156E-03   -0.15418E-03 10584   0.384E-01-0.169E-02
CGA:  92    -0.347703260433E+03   -0.59752E-03   -0.61019E-03 10584   0.524E-03 0.689E-03
CGA:  93    -0.347703282991E+03   -0.22558E-04   -0.26293E-04 10584   0.672E-03 0.133E-03
CGA:  94    -0.347703315392E+03   -0.32401E-04   -0.42408E-04 10584   0.186E-03 0.389E-03
CGA:  95    -0.347703328751E+03   -0.13359E-04   -0.13470E-04 10584   0.342E-03 0.464E-04
CGA:  96    -0.347703367225E+03   -0.38474E-04   -0.39912E-04 10584   0.123E-02-0.785E-04
CGA:  97    -0.347703430293E+03   -0.63068E-04   -0.64218E-04 10584   0.168E-02 0.128E-03
CGA:  98    -0.347703480342E+03   -0.50050E-04   -0.58989E-04 10584   0.134E-02 0.215E-03
CGA:  99    -0.347703540826E+03   -0.60484E-04   -0.60439E-04 10584   0.657E-03 0.874E-04
CGA: 100    -0.347703596881E+03   -0.56055E-04   -0.59055E-04 10584   0.348E-02-0.214E-03
CGA: 101    -0.347703643134E+03   -0.46254E-04   -0.28927E-04 10584   0.467E-02 0.106E-02
CGA: 102    -0.347703732805E+03   -0.89670E-04   -0.63674E-04 10584   0.251E-02 0.270E-02
CGA: 103    -0.347703798753E+03   -0.65948E-04   -0.70810E-04 10584   0.102E-02 0.128E-03
CGA: 104    -0.347703856867E+03   -0.58114E-04   -0.56105E-04 10584   0.624E-03-0.180E-03
CGA: 105    -0.347703920788E+03   -0.63921E-04   -0.59966E-04 10584   0.142E-02 0.747E-04
CGA: 106    -0.347703993346E+03   -0.72558E-04   -0.70567E-04 10584   0.527E-03-0.110E-03
CGA: 107    -0.347704007295E+03   -0.13949E-04   -0.15125E-04 10584   0.143E-03 0.360E-04
CGA: 108    -0.347704029096E+03   -0.21801E-04    0.38116E-04 10584   0.988E-04 0.117E-03
CGA: 109    -0.347704035168E+03   -0.60726E-05   -0.61193E-05 10584   0.201E-03 0.312E-04
CGA: 110    -0.347704032912E+03    0.22564E-05   -0.19059E-04 10584   0.724E-02-0.366E-03
CGA: 111    -0.347704136026E+03   -0.10311E-03   -0.11964E-03 10584   0.442E-03 0.207E-03
CGA: 112    -0.347704158672E+03   -0.22646E-04   -0.26195E-04 10584   0.199E-03 0.676E-04
CGA: 113    -0.347704174782E+03   -0.16110E-04   -0.15774E-04 10584   0.605E-03-0.884E-05
CGA: 114    -0.347704199905E+03   -0.25123E-04   -0.31592E-04 10584   0.409E-03 0.126E-03
CGA: 115    -0.347704204163E+03   -0.42581E-05   -0.91782E-05 10584   0.105E-03 0.561E-04
CGA: 116    -0.347704216104E+03   -0.11941E-04   -0.11998E-04 10584   0.381E-03-0.414E-04
CGA: 117    -0.347704230499E+03   -0.14395E-04   -0.81376E-05 10584   0.630E-03-0.947E-04
CGA: 118    -0.347704266577E+03   -0.36079E-04   -0.27135E-04 10584   0.245E-02-0.196E-03
CGA: 119    -0.347704344285E+03   -0.77707E-04   -0.49072E-04 10584   0.443E-02 0.122E-03
CGA: 120    -0.347704448720E+03   -0.10444E-03   -0.82824E-04 10584   0.158E-02 0.618E-03
CGA: 121    -0.347704470805E+03   -0.22085E-04   -0.29027E-04 10584   0.610E-03-0.615E-04
CGA: 122    -0.347704488315E+03   -0.17510E-04   -0.27556E-04 10584   0.156E-02 0.249E-03
CGA: 123    -0.347704602304E+03   -0.11399E-03   -0.12976E-03 10584   0.244E-03 0.836E-03
CGA: 124    -0.347704611220E+03   -0.89166E-05   -0.10616E-04 10584   0.318E-03 0.449E-04
CGA: 125    -0.347704657815E+03   -0.46595E-04   -0.78416E-04 10584   0.145E-02-0.246E-03
CGA: 126    -0.347704677152E+03   -0.19336E-04   -0.27120E-04 10584   0.226E-03 0.119E-03
CGA: 127    -0.347704685055E+03   -0.79034E-05   -0.89274E-05 10584   0.236E-04 0.219E-04
   1 F= -.34770469E+03 E0= -.34769968E+03  d E =-.347705E+03  mag=    18.0000
       N       E                     dE             d eps       ncg     rms          ort
SDA:   1    -0.347690513415E+03    0.14164E-01    0.00000E+00 10584   0.816E+00 0.000E+00
CGA:   2    -0.347703267952E+03   -0.12755E-01   -0.13220E-01 10584   0.880E-02-0.369E-01
CGA:   3    -0.347703575280E+03   -0.30733E-03   -0.32218E-03 10584   0.719E-02 0.417E-03
CGA:   4    -0.347704061227E+03   -0.48595E-03   -0.48682E-03 10584   0.578E-02 0.624E-04
CGA:   5    -0.347704446443E+03   -0.38522E-03   -0.38821E-03 10584   0.424E-02 0.418E-03
CGA:   6    -0.347704599007E+03   -0.15256E-03   -0.15071E-03 10584   0.152E-02-0.713E-04
CGA:   7    -0.347704686915E+03   -0.87909E-04   -0.90959E-04 10584   0.124E-02 0.296E-03
CGA:   8    -0.347704761302E+03   -0.74387E-04   -0.74600E-04 10584   0.859E-03 0.659E-05
CGA:   9    -0.347704780262E+03   -0.18960E-04   -0.25329E-04 10584   0.134E-03 0.157E-03
CGA:  10    -0.347704795497E+03   -0.15235E-04   -0.50808E-04 10584   0.103E-02-0.141E-03
CGA:  11    -0.347704810955E+03   -0.15458E-04   -0.19994E-04 10584   0.155E-03 0.752E-04
CGA:  12    -0.347704818568E+03   -0.76132E-05   -0.80791E-05 10584   0.543E-04 0.160E-04
   2 F= -.34770482E+03 E0= -.34769980E+03  d E =-.133513E-03  mag=    18.0000
       N       E                     dE             d eps       ncg     rms          ort
SDA:   1    -0.347697806722E+03    0.70042E-02    0.00000E+00 10584   0.392E+00 0.000E+00
CGA:   2    -0.347704381300E+03   -0.65746E-02   -0.67230E-02 10584   0.484E-02-0.842E-02
CGA:   3    -0.347704603330E+03   -0.22203E-03   -0.22517E-03 10584   0.154E-02 0.122E-03
CGA:   4    -0.347704660320E+03   -0.56990E-04   -0.60907E-04 10584   0.145E-02 0.120E-03
CGA:   5    -0.347704828300E+03   -0.16798E-03   -0.16688E-03 10584   0.819E-03 0.277E-04
CGA:   6    -0.347704840896E+03   -0.12595E-04   -0.18616E-04 10584   0.264E-03 0.122E-03
CGA:   7    -0.347704876409E+03   -0.35513E-04   -0.31404E-04 10584   0.177E-03 0.118E-03
CGA:   8    -0.347704886690E+03   -0.10281E-04   -0.92670E-05 10584   0.209E-03-0.304E-04
CGA:   9    -0.347704891643E+03   -0.49532E-05   -0.67974E-05 10584   0.125E-03 0.623E-04
   3 F= -.34770489E+03 E0= -.34769986E+03  d E =-.730755E-04  mag=    18.0000
