       N       E                     dE             d eps       ncg     rms          ort
DAV:   1     0.295783652452E+04    0.29578E+04   -0.13960E+05 11088   0.176E+03
DAV:   2     0.158905250873E+02   -0.29419E+04   -0.27146E+04 11088   0.453E+02
DAV:   3    -0.410109484214E+03   -0.42600E+03   -0.40798E+03 11088   0.189E+02
DAV:   4    -0.431990426429E+03   -0.21881E+02   -0.21600E+02 11088   0.421E+01
DAV:   5    -0.433087512175E+03   -0.10971E+01   -0.10925E+01 11088   0.703E+00
SDA:   6    -0.323181753405E+03    0.10991E+03   -0.10925E+01 11088   0.157E+04 0.000E+00
CGA:   7    -0.215525492029E+03    0.10766E+03   -0.11637E+03 11088   0.274E+04-0.123E+04
CGA:   8    -0.296493154447E+03   -0.80968E+02   -0.15230E+03 11088   0.451E+03-0.529E+03
CGA:   9    -0.317157050834E+03   -0.20664E+02   -0.12956E+02 11088   0.200E+04 0.188E+04
CGA:  10    -0.176787894026E+03    0.14037E+03   -0.13291E+03 11088   0.251E+04-0.113E+04
CGA:  11    -0.294069058409E+03   -0.11728E+03   -0.11764E+03 11088   0.426E+03-0.713E+03
CGA:  12    -0.317811397587E+03   -0.23742E+02   -0.89409E+01 11088   0.794E+03 0.138E+02
CGA:  13    -0.331822185710E+03   -0.14011E+02   -0.23595E+02 11088   0.130E+04-0.194E+04
CGA:  14    -0.340050682409E+03   -0.82285E+01   -0.70922E+02 11088   0.315E+03-0.243E+03
CGA:  15    -0.356531678894E+03   -0.16481E+02   -0.90158E+01 11088   0.438E+01-0.138E+01
CGA:  16    -0.357151069622E+03   -0.61939E+00   -0.61959E+00 11088   0.930E+00 0.368E-01
CGA:  17    -0.357568159928E+03   -0.41709E+00   -0.46783E+00 11088   0.535E+00-0.113E+00
CGA:  18    -0.357714400537E+03   -0.14624E+00   -0.15927E+00 11088   0.270E+00-0.671E-01
CGA:  19    -0.357783302284E+03   -0.68902E-01   -0.73761E-01 11088   0.733E-01-0.323E-01
CGA:  20    -0.357802106964E+03   -0.18805E-01   -0.18514E-01 11088   0.197E-01 0.286E-02
CGA:  21    -0.357810084053E+03   -0.79771E-02   -0.82605E-02 11088   0.108E-01-0.116E-02
CGA:  22    -0.357813941976E+03   -0.38579E-02   -0.59091E-02 11088   0.134E-01-0.518E-02
CGA:  23    -0.357815618043E+03   -0.16761E-02   -0.16816E-02 11088   0.634E-02-0.146E-03
CGA:  24    -0.357817052603E+03   -0.14346E-02   -0.14328E-02 11088   0.346E-02 0.139E-03
CGA:  25    -0.357817931056E+03   -0.87845E-03   -0.19880E-02 11088   0.592E-02-0.316E-02
CGA:  26    -0.357819737115E+03   -0.18061E-02   -0.18365E-02 11088   0.116E-02-0.393E-03
CGA:  27    -0.357820310742E+03   -0.57363E-03    0.10192E-02 11088   0.381E-03 0.365E-03
CGA:  28    -0.357820585123E+03   -0.27438E-03    0.36783E-03 11088   0.269E-03 0.286E-03
CGA:  29    -0.357820666120E+03   -0.80997E-04   -0.74759E-04 11088   0.181E-03 0.149E-03
CGA:  30    -0.357820798345E+03   -0.13223E-03    0.40325E-04 11088   0.144E-03 0.143E-03
CGA:  31    -0.357820877539E+03   -0.79194E-04    0.11271E-03 11088   0.126E-03 0.131E-03
CGA:  32    -0.357820967548E+03   -0.90009E-04    0.30180E-04 11088   0.113E-03 0.118E-03
CGA:  33    -0.357821040886E+03   -0.73338E-04    0.37489E-04 11088   0.103E-03 0.107E-03
CGA:  34    -0.357821114913E+03   -0.74027E-04    0.24033E-04 11088   0.944E-04 0.979E-04
CGA:  35    -0.357821178624E+03   -0.63711E-04    0.27027E-04 11088   0.873E-04 0.902E-04
CGA:  36    -0.357821243555E+03   -0.64931E-04    0.18551E-04 11088   0.813E-04 0.836E-04
CGA:  37    -0.357821298236E+03   -0.54681E-04    0.23559E-04 11088   0.763E-04 0.779E-04
CGA:  38    -0.357821358871E+03   -0.60635E-04    0.13602E-04 11088   0.723E-04 0.725E-04
CGA:  39    -0.357821403347E+03   -0.44476E-04    0.29643E-04 11088   0.698E-04 0.671E-04
CGA:  40    -0.357821464773E+03   -0.61427E-04    0.97988E-05 11088   0.690E-04 0.611E-04
CGA:  41    -0.357821538567E+03   -0.73794E-04   -0.98486E-07 11088   0.116E-02-0.286E-04
CGA:  42    -0.357805707658E+03    0.15831E-01   -0.95674E-02 11088   0.556E-01-0.700E-02
CGA:  43    -0.357812608799E+03   -0.69011E-02   -0.67114E-02 11088   0.673E-02-0.919E-04
CGA:  44    -0.357807227498E+03    0.53813E-02   -0.14310E-02 11088   0.561E-01 0.497E-02
CGA:  45    -0.357617921549E+03    0.18931E+00   -0.76810E-02 11088   0.161E+01 0.583E-01
CGA:  46    -0.356534310575E+03    0.10836E+01   -0.41478E+00 11088   0.953E+01 0.527E+00
CGA:  47    -0.349645734437E+03    0.68886E+01   -0.25141E+01 11088   0.293E+02 0.414E+01
CGA:  48    -0.343915845482E+03    0.57299E+01   -0.10478E+02 11088   0.589E+02 0.277E+01
CGA:  49    -0.329752088305E+03    0.14164E+02   -0.15381E+02 11088   0.511E+02 0.528E+01
CGA:  50    -0.327135730719E+03    0.26164E+01   -0.14831E+02 11088   0.564E+02 0.843E+01
CGA:  51    -0.323862693817E+03    0.32730E+01   -0.16724E+02 11088   0.532E+02 0.867E+01
CGA:  52    -0.329794592029E+03   -0.59319E+01   -0.15929E+02 11088   0.595E+02 0.163E+02
CGA:  53    -0.328707572819E+03    0.10870E+01   -0.18848E+02 11088   0.474E+02 0.999E+01
CGA:  54    -0.333437623404E+03   -0.47301E+01   -0.13090E+02 11088   0.587E+02 0.148E+02
CGA:  55    -0.328184911585E+03    0.52527E+01   -0.16552E+02 11088   0.503E+02 0.113E+02
CGA:  56    -0.333901582579E+03   -0.57167E+01   -0.12645E+02 11088   0.618E+02 0.219E+02
CGA:  57    -0.324875900447E+03    0.90257E+01   -0.17363E+02 11088   0.549E+02 0.200E+02
CGA:  58    -0.326091072706E+03   -0.12152E+01   -0.14397E+02 11088   0.215E+03 0.852E+01
CGA:  59    -0.268739928988E+03    0.57351E+02   -0.43629E+02 11088   0.119E+03-0.212E+02
CGA:  60    -0.264906176472E+03    0.38338E+01   -0.12385E+02 11088   0.838E+02 0.427E+02
CGA:  61    -0.285658173478E+03   -0.20752E+02   -0.21351E+02 11088   0.121E+03 0.562E+02
CGA:  62    -0.308784449714E+03   -0.23126E+02   -0.20156E+02 11088   0.873E+02 0.748E+02
CGA:  63    -0.331771553118E+03   -0.22987E+02   -0.21288E+02 11088   0.381E+02 0.210E+02
CGA:  64    -0.340295056122E+03   -0.85235E+01   -0.81969E+01 11088   0.183E+02 0.100E+02
CGA:  65    -0.344666324774E+03   -0.43713E+01   -0.30259E+01 11088   0.111E+02 0.187E+02
CGA:  66    -0.345147735018E+03   -0.48141E+00   -0.10214E+01 11088   0.130E+02 0.273E+01
CGA:  67    -0.348198158726E+03   -0.30504E+01   -0.20745E+01 11088   0.671E+01 0.717E+01
CGA:  68    -0.348782330549E+03   -0.58417E+00   -0.31276E+00 11088   0.512E+01 0.599E+01
CGA:  69    -0.348612279856E+03    0.17005E+00   -0.59779E+00 11088   0.150E+02-0.101E+01
CGA:  70    -0.352206769093E+03   -0.35945E+01   -0.34384E+01 11088   0.142E+02-0.566E+01
CGA:  71    -0.352362684956E+03   -0.15592E+00   -0.15938E+00 11088   0.116E+02 0.131E+02
CGA:  72    -0.352853549846E+03   -0.49086E+00   -0.26403E+00 11088   0.766E+01 0.102E+02
CGA:  73    -0.353172412494E+03   -0.31886E+00   -0.18407E+00 11088   0.428E+01 0.564E+01
CGA:  74    -0.353468317664E+03   -0.29591E+00   -0.17401E+00 11088   0.263E+01 0.296E+01
CGA:  75    -0.354121348814E+03   -0.65303E+00   -0.62144E+00 11088   0.648E+01-0.272E+00
CGA:  76    -0.354816882621E+03   -0.69553E+00   -0.80648E+00 11088   0.340E+01-0.547E+00
CGA:  77    -0.355450551908E+03   -0.63367E+00   -0.65479E+00 11088   0.138E+01 0.121E+00
CGA:  78    -0.355240253818E+03    0.21030E+00   -0.92247E+00 11088   0.105E+02-0.184E+01
CGA:  79    -0.355709822224E+03   -0.46957E+00   -0.10363E+01 11088   0.957E+01-0.631E+01
CGA:  80    -0.356432564891E+03   -0.72274E+00   -0.32597E+00 11088   0.125E+01 0.461E+01
CGA:  81    -0.356383104500E+03    0.49460E-01   -0.16520E+00 11088   0.421E+01-0.989E+00
CGA:  82    -0.356381890154E+03    0.12143E-02   -0.32141E+00 11088   0.605E+01-0.423E+01
CGA:  83    -0.356443946641E+03   -0.62056E-01   -0.46592E+00 11088   0.404E+01-0.335E+01
CGA:  84    -0.356594440815E+03   -0.15049E+00   -0.27380E+00 11088   0.373E+01-0.443E+01
CGA:  85    -0.356596771817E+03   -0.23310E-02   -0.29076E+00 11088   0.311E+01-0.231E+01
CGA:  86    -0.356690213105E+03   -0.93441E-01   -0.20455E+00 11088   0.322E+01-0.358E+01
CGA:  87    -0.356698225529E+03   -0.80124E-02   -0.24234E+00 11088   0.260E+01-0.195E+01
CGA:  88    -0.356798509418E+03   -0.10028E+00   -0.16044E+00 11088   0.201E+01-0.236E+01
CGA:  89    -0.356824374599E+03   -0.25865E-01   -0.14487E+00 11088   0.164E+01-0.116E+01
CGA:  90    -0.356883402878E+03   -0.59028E-01   -0.10013E+00 11088   0.115E+01-0.113E+01
CGA:  91    -0.356913741961E+03   -0.30339E-01   -0.84296E-01 11088   0.105E+01-0.536E+00
CGA:  92    -0.357204335787E+03   -0.29059E+00   -0.27653E+00 11088   0.918E+00-0.118E-02
CGA:  93    -0.357314922481E+03   -0.11059E+00   -0.13482E+00 11088   0.434E+00 0.119E+00
CGA:  94    -0.357412027801E+03   -0.97105E-01   -0.97105E-01 11088   0.590E+00-0.232E-01
CGA:  95    -0.357576136822E+03   -0.16411E+00   -0.16072E+00 11088   0.152E+00 0.355E-01
CGA:  96    -0.357608303663E+03   -0.32167E-01   -0.32108E-01 11088   0.656E-01 0.730E-02
CGA:  97    -0.357586255926E+03    0.22048E-01   -0.25939E-01 11088   0.531E+00-0.116E+00
CGA:  98    -0.357674068089E+03   -0.87812E-01   -0.88644E-01 11088   0.772E-01-0.446E-02
CGA:  99    -0.357699893002E+03   -0.25825E-01   -0.25780E-01 11088   0.192E-01-0.315E-02
CGA: 100    -0.357712648333E+03   -0.12755E-01   -0.14895E-01 11088   0.202E-01-0.378E-02
CGA: 101    -0.357716629381E+03   -0.39810E-02   -0.41271E-02 11088   0.590E-02 0.872E-03
CGA: 102    -0.357718647199E+03   -0.20178E-02   -0.20254E-02 11088   0.347E-02 0.136E-03
CGA: 103    -0.357720775279E+03   -0.21281E-02   -0.22220E-02 11088   0.710E-02-0.317E-03
CGA: 104    -0.357723763046E+03   -0.29878E-02   -0.30948E-02 11088   0.130E-01-0.619E-03
CGA: 105    -0.357726632347E+03   -0.28693E-02   -0.31307E-02 11088   0.143E-01 0.124E-02
CGA: 106    -0.357729318976E+03   -0.26866E-02   -0.33749E-02 11088   0.146E-01 0.415E-02
CGA: 107    -0.357726350888E+03    0.29681E-02   -0.20436E-02 11088   0.361E-01 0.896E-02
CGA: 108    -0.357724143369E+03    0.22075E-02   -0.53873E-02 11088   0.468E-01 0.159E-01
CGA: 109    -0.357693048920E+03    0.31094E-01   -0.56018E-02 11088   0.162E+00 0.381E-01
CGA: 110    -0.357682016934E+03    0.11032E-01   -0.21298E-01 11088   0.220E+00 0.763E-01
CGA: 111    -0.357604062849E+03    0.77954E-01   -0.29048E-01 11088   0.419E+00 0.240E+00
CGA: 112    -0.357628184351E+03   -0.24122E-01   -0.66901E-01 11088   0.338E+00 0.185E+00
CGA: 113    -0.357702054351E+03   -0.73870E-01   -0.94853E-01 11088   0.118E+00 0.361E-01
CGA: 114    -0.357705972482E+03   -0.39181E-02   -0.20254E-01 11088   0.534E-01 0.423E-01
CGA: 115    -0.357730823220E+03   -0.24851E-01   -0.24728E-01 11088   0.168E-01 0.921E-02
CGA: 116    -0.357733958721E+03   -0.31355E-02   -0.37858E-02 11088   0.861E-02 0.428E-02
CGA: 117    -0.357735354280E+03   -0.13956E-02   -0.18777E-02 11088   0.543E-02 0.287E-02
CGA: 118    -0.357737076023E+03   -0.17217E-02   -0.17906E-02 11088   0.241E-02 0.194E-02
CGA: 119    -0.357738551663E+03   -0.14756E-02   -0.13024E-02 11088   0.169E-02 0.169E-02
CGA: 120    -0.335252211746E+03    0.22486E+02   -0.28112E+01 11088   0.825E+02-0.157E+00
CGA: 121    -0.338154405541E+03   -0.29022E+01   -0.53191E+01 11088   0.165E+03-0.197E+02
CGA: 122    -0.339001421904E+03   -0.84702E+00   -0.10688E+02 11088   0.881E+02 0.151E+02
CGA: 123    -0.339489145686E+03   -0.48772E+00   -0.95877E+01 11088   0.361E+02-0.236E+01
CGA: 124    -0.341283488782E+03   -0.17943E+01   -0.23833E+01 11088   0.219E+02 0.113E+02
CGA: 125    -0.342058804982E+03   -0.77532E+00   -0.38797E+01 11088   0.765E+02-0.184E+02
CGA: 126    -0.344850322509E+03   -0.27915E+01   -0.69747E+01 11088   0.145E+02-0.134E+02
CGA: 127    -0.346646631911E+03   -0.17963E+01   -0.64097E+00 11088   0.787E+01 0.811E+01
CGA: 128    -0.349250265887E+03   -0.26036E+01   -0.37512E+01 11088   0.124E+03-0.815E+01
CGA: 129    -0.355899794279E+03   -0.66495E+01   -0.84936E+01 11088   0.101E+02 0.230E+02
CGA: 130    -0.356531190838E+03   -0.63140E+00   -0.48865E+00 11088   0.523E+01 0.685E+01
CGA: 131    -0.356419899393E+03    0.11129E+00   -0.40240E+00 11088   0.549E+01 0.250E+01
CGA: 132    -0.354873879949E+03    0.15460E+01   -0.23779E+00 11088   0.149E+02 0.484E+01
CGA: 133    -0.356057515901E+03   -0.11836E+01   -0.27209E+01 11088   0.100E+02 0.486E+01
CGA: 134    -0.356821483423E+03   -0.76397E+00   -0.21812E+01 11088   0.524E+01 0.445E+00
CGA: 135    -0.357298233204E+03   -0.47675E+00   -0.97934E+00 11088   0.162E+01 0.134E+01
CGA: 136    -0.357621861738E+03   -0.32363E+00   -0.43129E+00 11088   0.186E+00 0.210E+00
CGA: 137    -0.357668650576E+03   -0.46789E-01   -0.51573E-01 11088   0.334E-01-0.196E-02
CGA: 138    -0.357052930206E+03    0.61572E+00    0.38156E+00 11088   0.308E+00-0.128E+00
CGA: 139    -0.356999890342E+03    0.53040E-01   -0.70696E-01 11088   0.898E+00 0.229E+00
CGA: 140    -0.356740015508E+03    0.25987E+00   -0.17538E+00 11088   0.177E+01 0.234E+00
CGA: 141    -0.355787701641E+03    0.95231E+00   -0.30001E+00 11088   0.970E+01 0.944E+00
CGA: 142    -0.356989924701E+03   -0.12022E+01   -0.29521E+01 11088   0.348E+01 0.394E+00
CGA: 143    -0.357570893404E+03   -0.58097E+00   -0.10582E+01 11088   0.266E-01 0.235E-01
CGA: 144    -0.357697897390E+03   -0.12700E+00    0.16205E-02 11088   0.902E-01 0.566E-01
CGA: 145    -0.357726231253E+03   -0.28334E-01   -0.32783E-01 11088   0.465E-01 0.112E-01
CGA: 146    -0.357742511184E+03   -0.16280E-01   -0.18528E-01 11088   0.115E-01 0.561E-02
CGA: 147    -0.357747046361E+03   -0.45352E-02   -0.49274E-02 11088   0.243E-02 0.127E-02
CGA: 148    -0.357748070918E+03   -0.10246E-02   -0.10775E-02 11088   0.111E-02 0.418E-03
CGA: 149    -0.357749159330E+03   -0.10884E-02   -0.13472E-02 11088   0.395E-02-0.477E-03
CGA: 150    -0.357749546775E+03   -0.38745E-03   -0.37688E-03 11088   0.265E-02 0.188E-03
   1 F= -.35774955E+03 E0= -.35774955E+03  d E =-.357750E+03  mag=    12.0000
       N       E                     dE             d eps       ncg     rms          ort
SDA:   1    -0.357305341622E+03    0.44382E+00    0.00000E+00 11088   0.146E+01 0.000E+00
CGA:   2    -0.357565829292E+03   -0.26049E+00   -0.26048E+00 11088   0.699E+00 0.260E-02
CGA:   3    -0.357696452272E+03   -0.13062E+00   -0.13111E+00 11088   0.269E+00 0.175E-02
CGA:   4    -0.357737528046E+03   -0.41076E-01   -0.41309E-01 11088   0.685E-01 0.821E-03
CGA:   5    -0.357748415720E+03   -0.10888E-01   -0.10909E-01 11088   0.185E-01 0.879E-04
CGA:   6    -0.357751754852E+03   -0.33391E-02   -0.33848E-02 11088   0.586E-02 0.201E-03
CGA:   7    -0.357752900430E+03   -0.11456E-02   -0.12083E-02 11088   0.225E-02 0.334E-03
CGA:   8    -0.357753471508E+03   -0.57108E-03   -0.60079E-03 11088   0.120E-02 0.229E-03
CGA:   9    -0.357753862962E+03   -0.39145E-03   -0.40083E-03 11088   0.853E-03 0.128E-03
CGA:  10    -0.357754237324E+03   -0.37436E-03   -0.37242E-03 11088   0.915E-03 0.816E-04
CGA:  11    -0.357754813695E+03   -0.57637E-03   -0.63282E-03 11088   0.206E-02-0.227E-03
CGA:  12    -0.357755567458E+03   -0.75376E-03   -0.89641E-03 11088   0.423E-02-0.889E-03
CGA:  13    -0.357756539681E+03   -0.97222E-03   -0.10974E-02 11088   0.660E-02-0.184E-02
CGA:  14    -0.357757675174E+03   -0.11355E-02   -0.96830E-03 11088   0.615E-02-0.130E-02
CGA:  15    -0.357759277674E+03   -0.16025E-02   -0.14350E-02 11088   0.539E-02-0.167E-02
CGA:  16    -0.357760429477E+03   -0.11518E-02   -0.10411E-02 11088   0.467E-02-0.117E-02
CGA:  17    -0.357761435566E+03   -0.10061E-02   -0.90396E-03 11088   0.404E-02-0.736E-03
CGA:  18    -0.357762259252E+03   -0.82369E-03   -0.77500E-03 11088   0.365E-02-0.162E-03
CGA:  19    -0.357762990589E+03   -0.73134E-03   -0.79601E-03 11088   0.345E-02 0.400E-03
CGA:  20    -0.357763930229E+03   -0.93964E-03   -0.10317E-02 11088   0.385E-02 0.838E-03
CGA:  21    -0.357765333266E+03   -0.14030E-02   -0.14610E-02 11088   0.475E-02 0.107E-02
CGA:  22    -0.357767387683E+03   -0.20544E-02   -0.20764E-02 11088   0.586E-02 0.152E-02
CGA:  23    -0.357770434381E+03   -0.30467E-02   -0.29912E-02 11088   0.725E-02 0.970E-03
CGA:  24    -0.357773573468E+03   -0.31391E-02   -0.31334E-02 11088   0.839E-02 0.283E-03
CGA:  25    -0.357776162509E+03   -0.25890E-02   -0.24966E-02 11088   0.889E-02-0.884E-03
CGA:  26    -0.357777666174E+03   -0.15037E-02   -0.13275E-02 11088   0.832E-02-0.114E-02
CGA:  27    -0.357778915025E+03   -0.12489E-02   -0.11674E-02 11088   0.729E-02-0.780E-03
CGA:  28    -0.357780109033E+03   -0.11940E-02   -0.10977E-02 11088   0.669E-02-0.405E-03
CGA:  29    -0.357781150183E+03   -0.10412E-02   -0.10348E-02 11088   0.623E-02-0.256E-03
CGA:  30    -0.357782116992E+03   -0.96681E-03   -0.90226E-03 11088   0.555E-02-0.763E-05
CGA:  31    -0.357782889761E+03   -0.77277E-03   -0.73491E-03 11088   0.479E-02-0.167E-03
SDA:  32    -0.357783476668E+03   -0.58691E-03   -0.56606E-03 11088   0.418E-02-0.255E-03
CGA:  33    -0.357786887330E+03   -0.34107E-02   -0.29909E-02 11088   0.332E-02 0.102E-02
CGA:  34    -0.357789727560E+03   -0.28402E-02   -0.24846E-02 11088   0.260E-02 0.121E-02
CGA:  35    -0.357791673446E+03   -0.19459E-02   -0.17854E-02 11088   0.256E-02 0.905E-03
CGA:  36    -0.357793807405E+03   -0.21340E-02   -0.21370E-02 11088   0.373E-02 0.148E-04
CGA:  37    -0.357795189282E+03   -0.13819E-02   -0.13662E-02 11088   0.194E-02 0.997E-03
CGA:  38    -0.357796640360E+03   -0.14511E-02   -0.13382E-02 11088   0.280E-02 0.497E-03
CGA:  39    -0.357798442212E+03   -0.18019E-02   -0.20295E-02 11088   0.478E-02-0.105E-02
CGA:  40    -0.357799152798E+03   -0.71059E-03   -0.73138E-03 11088   0.415E-02 0.624E-04
CGA:  41    -0.357799781011E+03   -0.62821E-03   -0.69486E-03 11088   0.227E-02 0.548E-03
CGA:  42    -0.357800245005E+03   -0.46399E-03   -0.53225E-03 11088   0.201E-02 0.463E-03
CGA:  43    -0.357800682881E+03   -0.43788E-03   -0.48174E-03 11088   0.123E-02 0.345E-03
CGA:  44    -0.357800893963E+03   -0.21108E-03   -0.26405E-03 11088   0.101E-02 0.344E-03
CGA:  45    -0.357801009422E+03   -0.11546E-03   -0.21454E-03 11088   0.922E-03 0.606E-03
CGA:  46    -0.357801177960E+03   -0.16854E-03   -0.21240E-03 11088   0.487E-03 0.472E-03
CGA:  47    -0.357801609044E+03   -0.43108E-03   -0.36915E-03 11088   0.653E-03 0.143E-03
CGA:  48    -0.357801745302E+03   -0.13626E-03   -0.19312E-03 11088   0.251E-03 0.506E-03
CGA:  49    -0.357801865699E+03   -0.12040E-03   -0.10639E-03 11088   0.172E-03 0.157E-03
CGA:  50    -0.357801991732E+03   -0.12603E-03    0.35452E-03 11088   0.154E-03 0.120E-03
CGA:  51    -0.357802010481E+03   -0.18749E-04   -0.33454E-04 11088   0.125E-03 0.120E-03
CGA:  52    -0.357802404588E+03   -0.39411E-03   -0.15238E-03 11088   0.405E-03 0.488E-04
CGA:  53    -0.357802464854E+03   -0.60266E-04   -0.13824E-03 11088   0.550E-04 0.209E-03
CGA:  54    -0.357802569395E+03   -0.10454E-03    0.26535E-04 11088   0.883E-04 0.305E-04
CGA:  55    -0.357802562340E+03    0.70553E-05   -0.13557E-04 11088   0.455E-04 0.472E-04
CGA:  56    -0.357802614610E+03   -0.52269E-04    0.11285E-02 11088   0.453E-04 0.441E-04
CGA:  57    -0.357802684485E+03   -0.69875E-04    0.36145E-04 11088   0.542E-04 0.396E-04
CGA:  58    -0.357802689709E+03   -0.52240E-05   -0.14873E-04 11088   0.518E-04 0.328E-04
CGA:  59    -0.357802763688E+03   -0.73979E-04    0.49458E-04 11088   0.118E-03 0.160E-04
CGA:  60    -0.357803419998E+03   -0.65631E-03   -0.72991E-04 11088   0.181E-02 0.981E-05
CGA:  61    -0.357804475194E+03   -0.10552E-02   -0.66266E-03 11088   0.364E-03 0.964E-04
CGA:  62    -0.357804511633E+03   -0.36439E-04   -0.83144E-04 11088   0.762E-03-0.388E-04
CGA:  63    -0.357791882305E+03    0.12629E-01   -0.29510E-04 11088   0.829E-01 0.265E-02
CGA:  64    -0.357524118223E+03    0.26776E+00   -0.14045E-01 11088   0.160E+01 0.635E-01
CGA:  65    -0.352997067107E+03    0.45271E+01   -0.27558E+00 11088   0.246E+02 0.125E+01
CGA:  66    -0.339893382725E+03    0.13104E+02   -0.70390E+01 11088   0.520E+02 0.639E+01
CGA:  67    -0.327294769793E+03    0.12599E+02   -0.16856E+02 11088   0.794E+02 0.216E+02
CGA:  68    -0.317295594982E+03    0.99992E+01   -0.32186E+02 11088   0.112E+03 0.204E+02
CGA:  69    -0.303030361583E+03    0.14265E+02   -0.39743E+02 11088   0.145E+03 0.363E+02
CGA:  70    -0.295382585161E+03    0.76478E+01   -0.56579E+02 11088   0.135E+03 0.219E+02
CGA:  71    -0.296193319395E+03   -0.81073E+00   -0.45878E+02 11088   0.104E+03 0.252E+02
CGA:  72    -0.302894990216E+03   -0.67017E+01   -0.35422E+02 11088   0.745E+02 0.160E+02
CGA:  73    -0.316001964470E+03   -0.13107E+02   -0.24120E+02 11088   0.686E+02 0.256E+02
CGA:  74    -0.316024108714E+03   -0.22144E-01   -0.24090E+02 11088   0.642E+02 0.211E+02
CGA:  75    -0.308301392533E+03    0.77227E+01   -0.20902E+02 11088   0.943E+02 0.174E+02
CGA:  76    -0.283289189099E+03    0.25012E+02   -0.63220E+01 11088   0.959E+02 0.136E+02
CGA:  77    -0.278600756189E+03    0.46884E+01   -0.24909E+02 11088   0.336E+03-0.895E+02
CGA:  78    -0.237356419158E+03    0.41244E+02   -0.58404E+02 11088   0.379E+03-0.475E+02
CGA:  79    -0.280658091366E+03   -0.43302E+02   -0.27828E+02 11088   0.155E+03-0.416E+02
CGA:  80    -0.284604915921E+03   -0.39468E+01   -0.82835E+01 11088   0.184E+03 0.118E+03
CGA:  81    -0.288268461740E+03   -0.36635E+01   -0.98157E+01 11088   0.114E+03 0.561E+02
CGA:  82    -0.291397735810E+03   -0.31293E+01   -0.10661E+02 11088   0.999E+02 0.405E+02
CGA:  83    -0.293353194649E+03   -0.19555E+01   -0.17407E+02 11088   0.176E+03 0.173E+02
CGA:  84    -0.275315483786E+03    0.18038E+02   -0.10518E+02 11088   0.124E+03 0.733E+02
CGA:  85    -0.286782979844E+03   -0.11467E+02   -0.27516E+02 11088   0.210E+03-0.438E+02
CGA:  86    -0.260736403614E+03    0.26047E+02   -0.12669E+02 11088   0.205E+03 0.161E+02
CGA:  87    -0.249350644399E+03    0.11386E+02   -0.14836E+02 11088   0.150E+03 0.744E+02
CGA:  88    -0.283019596655E+03   -0.33669E+02   -0.34079E+02 11088   0.101E+03 0.202E+02
CGA:  89    -0.281051757915E+03    0.19678E+01   -0.14884E+02 11088   0.144E+03 0.272E+02
CGA:  90    -0.272419944908E+03    0.86318E+01   -0.11864E+02 11088   0.940E+02 0.236E+02
CGA:  91    -0.289206044717E+03   -0.16786E+02   -0.18889E+02 11088   0.156E+03 0.164E+02
CGA:  92    -0.262738255685E+03    0.26468E+02   -0.17628E+02 11088   0.171E+03-0.143E+02
CGA:  93    -0.255919144340E+03    0.68191E+01   -0.15046E+02 11088   0.152E+03 0.259E+02
CGA:  94    -0.259392464520E+03   -0.34733E+01   -0.18297E+02 11088   0.123E+03 0.624E+02
CGA:  95    -0.273441126141E+03   -0.14049E+02   -0.23410E+02 11088   0.935E+02 0.451E+02
CGA:  96    -0.276426873878E+03   -0.29857E+01   -0.16047E+02 11088   0.107E+03 0.280E+02
CGA:  97    -0.269159525161E+03    0.72673E+01   -0.11392E+02 11088   0.105E+03 0.220E+02
CGA:  98    -0.280931496189E+03   -0.11772E+02   -0.18082E+02 11088   0.754E+02 0.266E+02
CGA:  99    -0.284994622526E+03   -0.40631E+01   -0.12947E+02 11088   0.114E+03 0.196E+02
CGA: 100    -0.278475720680E+03    0.65189E+01   -0.16243E+02 11088   0.943E+02 0.150E+02
CGA: 101    -0.287760990214E+03   -0.92853E+01   -0.14831E+02 11088   0.868E+02 0.238E+02
CGA: 102    -0.294870636621E+03   -0.71096E+01   -0.15420E+02 11088   0.628E+02 0.245E+02
CGA: 103    -0.306171511464E+03   -0.11301E+02   -0.14058E+02 11088   0.543E+02 0.149E+02
CGA: 104    -0.314324624630E+03   -0.81531E+01   -0.10379E+02 11088   0.530E+02 0.111E+02
CGA: 105    -0.321829073717E+03   -0.75044E+01   -0.98867E+01 11088   0.367E+02 0.101E+02
CGA: 106    -0.326651792233E+03   -0.48227E+01   -0.59506E+01 11088   0.595E+02 0.443E+00
CGA: 107    -0.331259940854E+03   -0.46081E+01   -0.71798E+01 11088   0.227E+02 0.679E+01
CGA: 108    -0.336954403709E+03   -0.56945E+01   -0.56596E+01 11088   0.275E+02 0.340E+01
CGA: 109    -0.340122840494E+03   -0.31684E+01   -0.41044E+01 11088   0.176E+02 0.174E+01
CGA: 110    -0.343129321094E+03   -0.30065E+01   -0.27748E+01 11088   0.191E+02 0.148E+00
SDA: 111    -0.344527598048E+03   -0.13983E+01   -0.16935E+01 11088   0.287E+02-0.291E+01
CGA: 112    -0.345117659883E+03   -0.59006E+00   -0.24996E+01 11088   0.273E+02-0.739E+01
CGA: 113    -0.347955515170E+03   -0.28379E+01   -0.16038E+01 11088   0.142E+02-0.417E+01
CGA: 114    -0.348660554339E+03   -0.70504E+00   -0.97733E+00 11088   0.365E+02-0.321E+01
CGA: 115    -0.351144938276E+03   -0.24844E+01   -0.28108E+01 11088   0.950E+01-0.378E+00
CGA: 116    -0.351727684989E+03   -0.58275E+00   -0.58838E+00 11088   0.365E+01-0.118E+00
CGA: 117    -0.353169605743E+03   -0.14419E+01   -0.14796E+01 11088   0.681E+01-0.811E+00
CGA: 118    -0.353529889304E+03   -0.36028E+00   -0.36469E+00 11088   0.401E+01 0.102E+00
CGA: 119    -0.353768665886E+03   -0.23878E+00   -0.19728E+00 11088   0.128E+01 0.747E+00
CGA: 120    -0.354064624424E+03   -0.29596E+00   -0.31177E+00 11088   0.534E+01-0.334E+00
CGA: 121    -0.354237881037E+03   -0.17326E+00   -0.15637E+00 11088   0.482E+01 0.193E+00
CGA: 122    -0.354424574558E+03   -0.18669E+00   -0.22430E+00 11088   0.258E+01-0.121E+01
CGA: 123    -0.354502930062E+03   -0.78356E-01   -0.11418E+00 11088   0.176E+01-0.446E+00
CGA: 124    -0.354693841433E+03   -0.19091E+00   -0.19212E+00 11088   0.270E+01-0.110E+00
CGA: 125    -0.354993397110E+03   -0.29956E+00   -0.27468E+00 11088   0.145E+01-0.122E+00
CGA: 126    -0.355119146529E+03   -0.12575E+00   -0.10981E+00 11088   0.121E+01 0.880E-01
CGA: 127    -0.355289634107E+03   -0.17049E+00   -0.16567E+00 11088   0.201E+01-0.909E-01
CGA: 128    -0.355373389637E+03   -0.83756E-01   -0.10109E+00 11088   0.146E+01-0.213E+00
CGA: 129    -0.355458184945E+03   -0.84795E-01   -0.10011E+00 11088   0.111E+01-0.412E-01
CGA: 130    -0.355589310743E+03   -0.13113E+00   -0.13032E+00 11088   0.954E+00-0.375E-01
CGA: 131    -0.355715048509E+03   -0.12574E+00   -0.12548E+00 11088   0.809E+00-0.481E-01
CGA: 132    -0.355804513818E+03   -0.89465E-01   -0.87384E-01 11088   0.691E+00-0.507E-01
CGA: 133    -0.355888603699E+03   -0.84090E-01   -0.84135E-01 11088   0.625E+00-0.884E-02
CGA: 134    -0.355961196080E+03   -0.72592E-01   -0.72141E-01 11088   0.418E+00-0.121E-01
CGA: 135    -0.356008022669E+03   -0.46827E-01   -0.41271E-01 11088   0.412E+00 0.554E-03
CGA: 136    -0.356044816450E+03   -0.36794E-01   -0.37027E-01 11088   0.973E+00-0.435E-01
CGA: 137    -0.356097879515E+03   -0.53063E-01   -0.42956E-01 11088   0.525E+00-0.191E-01
CGA: 138    -0.356131063054E+03   -0.33184E-01   -0.37218E-01 11088   0.335E+00-0.232E-01
CGA: 139    -0.356168121799E+03   -0.37059E-01   -0.36752E-01 11088   0.289E+00-0.273E-01
CGA: 140    -0.356205056044E+03   -0.36934E-01   -0.37568E-01 11088   0.321E+00-0.341E-01
CGA: 141    -0.356237694472E+03   -0.32638E-01   -0.32183E-01 11088   0.286E+00-0.135E-01
SDA: 142    -0.356263914708E+03   -0.26220E-01   -0.25576E-01 11088   0.250E+00 0.354E-02
CGA: 143    -0.356383340663E+03   -0.11943E+00   -0.11758E+00 11088   0.353E+00 0.236E-01
CGA: 144    -0.354057779976E+03    0.23256E+01   -0.23810E+00 11088   0.949E+02-0.681E+01
CGA: 145    -0.356129496057E+03   -0.20717E+01   -0.80669E+01 11088   0.291E+01-0.516E+01
CGA: 146    -0.356601091782E+03   -0.47160E+00   -0.36294E+00 11088   0.227E+00 0.600E+00
CGA: 147    -0.356624873714E+03   -0.23782E-01   -0.13894E-01 11088   0.221E+00 0.232E+00
CGA: 148    -0.356714999089E+03   -0.90125E-01    0.52788E-01 11088   0.544E+00 0.406E+00
CGA: 149    -0.356889541552E+03   -0.17454E+00    0.10750E+01 11088   0.854E+00 0.612E+00
CGA: 150    -0.357410374860E+03   -0.52083E+00   -0.36911E+00 11088   0.405E+00 0.322E+00
   2 F= -.35741037E+03 E0= -.35740921E+03  d E =0.339172E+00  mag=    11.9365
       N       E                     dE             d eps       ncg     rms          ort
SDA:   1    -0.357595097039E+03   -0.70556E+00    0.00000E+00 11088   0.335E+00 0.000E+00
CGA:   2    -0.357651032386E+03   -0.55935E-01   -0.55941E-01 11088   0.148E+00 0.306E-02
CGA:   3    -0.357681769737E+03   -0.30737E-01   -0.30791E-01 11088   0.699E-01-0.137E-02
CGA:   4    -0.357693560646E+03   -0.11791E-01   -0.11791E-01 11088   0.259E-01-0.284E-02
CGA:   5    -0.357698534121E+03   -0.49735E-02   -0.50609E-02 11088   0.136E-01-0.258E-02
CGA:   6    -0.357701674844E+03   -0.31407E-02   -0.35200E-02 11088   0.130E-01-0.327E-02
CGA:   7    -0.357704327847E+03   -0.26530E-02   -0.35083E-02 11088   0.143E-01-0.474E-02
CGA:   8    -0.357706593069E+03   -0.22652E-02   -0.25639E-02 11088   0.917E-02-0.308E-02
CGA:   9    -0.357708447156E+03   -0.18541E-02   -0.18874E-02 11088   0.540E-02-0.492E-03
CGA:  10    -0.357709967390E+03   -0.15202E-02   -0.14754E-02 11088   0.421E-02 0.440E-03
CGA:  11    -0.357711632322E+03   -0.16649E-02   -0.15460E-02 11088   0.393E-02 0.811E-03
CGA:  12    -0.357713700680E+03   -0.20684E-02   -0.19098E-02 11088   0.391E-02 0.758E-03
CGA:  13    -0.357715940598E+03   -0.22399E-02   -0.22383E-02 11088   0.460E-02 0.689E-05
CGA:  14    -0.357717968350E+03   -0.20278E-02   -0.19730E-02 11088   0.449E-02 0.124E-03
CGA:  15    -0.357720325920E+03   -0.23576E-02   -0.24313E-02 11088   0.625E-02-0.531E-03
CGA:  16    -0.357721693293E+03   -0.13674E-02   -0.45701E-02 11088   0.180E-01-0.548E-02
CGA:  17    -0.357727460990E+03   -0.57677E-02   -0.57664E-02 11088   0.556E-02 0.368E-04
CGA:  18    -0.357730047035E+03   -0.25860E-02   -0.28813E-02 11088   0.487E-02-0.125E-02
CGA:  19    -0.357731306083E+03   -0.12590E-02   -0.12347E-02 11088   0.269E-02 0.792E-03
CGA:  20    -0.357732673014E+03   -0.13669E-02   -0.13379E-02 11088   0.191E-02 0.214E-03
CGA:  21    -0.357733881254E+03   -0.12082E-02   -0.14799E-02 11088   0.424E-02-0.677E-03
CGA:  22    -0.357734534252E+03   -0.65300E-03   -0.68262E-03 11088   0.388E-02 0.355E-03
CGA:  23    -0.357735658914E+03   -0.11247E-02   -0.11598E-02 11088   0.419E-02 0.682E-03
CGA:  24    -0.357737976461E+03   -0.23175E-02   -0.23306E-02 11088   0.560E-02-0.253E-03
CGA:  25    -0.357740213209E+03   -0.22367E-02   -0.23401E-02 11088   0.108E-01-0.924E-03
CGA:  26    -0.357743562745E+03   -0.33495E-02   -0.33070E-02 11088   0.155E-01 0.129E-02
CGA:  27    -0.357749216459E+03   -0.56537E-02   -0.56724E-02 11088   0.184E-01 0.216E-02
CGA:  28    -0.357758186767E+03   -0.89703E-02   -0.88081E-02 11088   0.267E-01-0.585E-03
CGA:  29    -0.357766387473E+03   -0.82007E-02   -0.76665E-02 11088   0.319E-01-0.104E-01
CGA:  30    -0.357769510570E+03   -0.31231E-02   -0.24104E-02 11088   0.331E-01-0.342E-02
CGA:  31    -0.357774157848E+03   -0.46473E-02   -0.36556E-02 11088   0.258E-01 0.246E-03
CGA:  32    -0.357777171225E+03   -0.30134E-02   -0.28668E-02 11088   0.211E-01-0.632E-03
CGA:  33    -0.357779383771E+03   -0.22125E-02   -0.22340E-02 11088   0.198E-01 0.871E-03
CGA:  34    -0.357781364233E+03   -0.19805E-02   -0.22911E-02 11088   0.181E-01 0.934E-03
CGA:  35    -0.357783099909E+03   -0.17357E-02   -0.20382E-02 11088   0.148E-01 0.336E-03
CGA:  36    -0.357784568575E+03   -0.14687E-02   -0.16073E-02 11088   0.122E-01 0.703E-03
CGA:  37    -0.357785888416E+03   -0.13198E-02   -0.14169E-02 11088   0.108E-01 0.101E-02
CGA:  38    -0.357786988472E+03   -0.11001E-02   -0.12380E-02 11088   0.892E-02 0.109E-02
CGA:  39    -0.357787793384E+03   -0.80491E-03   -0.96650E-03 11088   0.686E-02 0.111E-02
CGA:  40    -0.357788408027E+03   -0.61464E-03   -0.76377E-03 11088   0.575E-02 0.975E-03
CGA:  41    -0.357788980907E+03   -0.57288E-03   -0.70234E-03 11088   0.550E-02 0.884E-03
CGA:  42    -0.357789589541E+03   -0.60863E-03   -0.71069E-03 11088   0.520E-02 0.786E-03
CGA:  43    -0.357790170244E+03   -0.58070E-03   -0.65485E-03 11088   0.471E-02 0.617E-03
CGA:  44    -0.357790694883E+03   -0.52464E-03   -0.59002E-03 11088   0.480E-02 0.597E-03
CGA:  45    -0.357791243800E+03   -0.54892E-03   -0.63115E-03 11088   0.539E-02 0.838E-03
CGA:  46    -0.357791854498E+03   -0.61070E-03   -0.72224E-03 11088   0.556E-02 0.119E-02
SDA:  47    -0.357792481271E+03   -0.62677E-03   -0.74773E-03 11088   0.540E-02 0.131E-02
CGA:  48    -0.357796613212E+03   -0.41319E-02   -0.53702E-04 11088   0.138E-01-0.259E-02
CGA:  49    -0.357799455566E+03   -0.28424E-02   -0.29546E-02 11088   0.127E-01-0.230E-02
CGA:  50    -0.357804126757E+03   -0.46712E-02   -0.47316E-02 11088   0.921E-02-0.748E-03
CGA:  51    -0.357806673308E+03   -0.25466E-02   -0.26035E-02 11088   0.551E-02 0.765E-03
CGA:  52    -0.357809405320E+03   -0.27320E-02   -0.27070E-02 11088   0.435E-02 0.240E-03
CGA:  53    -0.357811285940E+03   -0.18806E-02   -0.18871E-02 11088   0.409E-02-0.183E-03
CGA:  54    -0.357812550038E+03   -0.12641E-02   -0.13074E-02 11088   0.282E-02 0.108E-02
CGA:  55    -0.357813367640E+03   -0.81760E-03   -0.94970E-03 11088   0.170E-02 0.123E-02
CGA:  56    -0.357814097607E+03   -0.72997E-03   -0.76722E-03 11088   0.885E-03 0.707E-03
CGA:  57    -0.357814604922E+03   -0.50731E-03   -0.50362E-03 11088   0.746E-03 0.895E-04
CGA:  58    -0.357814900240E+03   -0.29532E-03   -0.29618E-03 11088   0.645E-03 0.155E-03
CGA:  59    -0.357815353786E+03   -0.45355E-03   -0.49547E-03 11088   0.137E-02-0.175E-03
CGA:  60    -0.357815678892E+03   -0.32511E-03   -0.52592E-03 11088   0.219E-02-0.134E-02
CGA:  61    -0.357816415563E+03   -0.73667E-03   -0.75848E-03 11088   0.601E-03 0.536E-03
CGA:  62    -0.357816690807E+03   -0.27524E-03   -0.27853E-03 11088   0.246E-03 0.267E-03
CGA:  63    -0.357816829951E+03   -0.13914E-03   -0.13826E-03 11088   0.134E-03 0.153E-03
CGA:  64    -0.357816560100E+03    0.26985E-03   -0.16705E-03 11088   0.258E-02-0.293E-03
CGA:  65    -0.357817149736E+03   -0.58964E-03   -0.65333E-03 11088   0.174E-03 0.143E-03
CGA:  66    -0.357817187115E+03   -0.37380E-04   -0.62500E-04 11088   0.631E-04 0.744E-04
CGA:  67    -0.357817205082E+03   -0.17967E-04   -0.31811E-04 11088   0.509E-04 0.450E-04
CGA:  68    -0.357817279282E+03   -0.74200E-04    0.12757E-03 11088   0.466E-04 0.329E-04
CGA:  69    -0.357817306786E+03   -0.27503E-04   -0.28504E-04 11088   0.470E-04 0.290E-04
CGA:  70    -0.357817358659E+03   -0.51873E-04   -0.48808E-04 11088   0.104E-03 0.778E-05
CGA:  71    -0.357817669579E+03   -0.31092E-03   -0.22050E-03 11088   0.502E-04 0.780E-04
CGA:  72    -0.357817666408E+03    0.31706E-05   -0.11227E-04 11088   0.247E-04 0.271E-04
CGA:  73    -0.357817674227E+03   -0.78189E-05   -0.11862E-04 11088   0.200E-04 0.182E-04
CGA:  74    -0.357817686366E+03   -0.12139E-04   -0.12864E-04 11088   0.193E-04 0.162E-04
CGA:  75    -0.357817715556E+03   -0.29190E-04    0.62948E-04 11088   0.243E-04 0.130E-04
CGA:  76    -0.357817711225E+03    0.43308E-05   -0.42467E-05 11088   0.161E-04 0.167E-04
CGA:  77    -0.357817732396E+03   -0.21171E-04   -0.16192E-04 11088   0.160E-04 0.144E-04
CGA:  78    -0.357817756310E+03   -0.23914E-04    0.51691E-04 11088   0.209E-04 0.106E-04
CGA:  79    -0.357817752659E+03    0.36503E-05   -0.36406E-05 11088   0.139E-04 0.144E-04
CGA:  80    -0.357817774107E+03   -0.21448E-04   -0.15800E-04 11088   0.148E-04 0.118E-04
CGA:  81    -0.357817793214E+03   -0.19107E-04   -0.20520E-04 11088   0.663E-04-0.680E-06
CGA:  82    -0.357817723473E+03    0.69740E-04   -0.85194E-05 11088   0.401E-03 0.443E-04
CGA:  83    -0.357817199690E+03    0.52378E-03   -0.50564E-04 11088   0.276E-02 0.310E-03
CGA:  84    -0.357812788579E+03    0.44111E-02   -0.29746E-03 11088   0.222E-01 0.235E-02
CGA:  85    -0.357792319157E+03    0.20469E-01   -0.28567E-02 11088   0.109E+00 0.189E-01
CGA:  86    -0.357752641986E+03    0.39677E-01   -0.18345E-01 11088   0.220E+00 0.697E-01
CGA:  87    -0.357699823368E+03    0.52819E-01   -0.38989E-01 11088   0.361E+00 0.143E+00
CGA:  88    -0.357666629121E+03    0.33194E-01   -0.74993E-01 11088   0.398E+00 0.187E+00
CGA:  89    -0.357680695882E+03   -0.14067E-01   -0.97045E-01 11088   0.339E+00 0.194E+00
CGA:  90    -0.357729942286E+03   -0.49246E-01   -0.12141E+00 11088   0.164E+00 0.206E+00
CGA:  91    -0.357772013283E+03   -0.42071E-01   -0.53006E-01 11088   0.880E-01 0.522E-01
CGA:  92    -0.357800438440E+03   -0.28425E-01   -0.36051E-01 11088   0.454E-01 0.205E-01
CGA:  93    -0.357804519859E+03   -0.40814E-02   -0.13420E-01 11088   0.289E-01 0.218E-01
CGA:  94    -0.357812346760E+03   -0.78269E-02   -0.12551E-01 11088   0.451E-02 0.257E-02
CGA:  95    -0.357813677643E+03   -0.13309E-02   -0.16146E-02 11088   0.114E-02-0.120E-02
CGA:  96    -0.357814710183E+03   -0.10325E-02    0.60097E-03 11088   0.114E-02 0.684E-03
CGA:  97    -0.357816692709E+03   -0.19825E-02   -0.10805E-02 11088   0.115E-02 0.206E-02
CGA:  98    -0.357817018555E+03   -0.32585E-03   -0.36982E-03 11088   0.473E-03 0.136E-03
CGA:  99    -0.356965133901E+03    0.85188E+00   -0.94120E-03 11088   0.141E+01-0.199E+00
CGA: 100    -0.357705992420E+03   -0.74086E+00   -0.73115E+00 11088   0.771E+00-0.208E+00
CGA: 101    -0.357813523760E+03   -0.10753E+00   -0.10432E+00 11088   0.879E-02 0.939E-02
CGA: 102    -0.357816795582E+03   -0.32718E-02   -0.30316E-02 11088   0.215E-02-0.140E-02
CGA: 103    -0.357817453100E+03   -0.65752E-03   -0.60385E-03 11088   0.904E-03-0.301E-03
CGA: 104    -0.357817772710E+03   -0.31961E-03   -0.28567E-03 11088   0.486E-03-0.244E-03
CGA: 105    -0.357817840143E+03   -0.67433E-04   -0.86372E-04 11088   0.114E-03 0.744E-04
CGA: 106    -0.357817856903E+03   -0.16760E-04   -0.26671E-04 11088   0.518E-04 0.353E-04
CGA: 107    -0.357817885110E+03   -0.28207E-04   -0.55690E-04 11088   0.172E-03-0.789E-04
CGA: 108    -0.357817925977E+03   -0.40867E-04   -0.47249E-04 11088   0.149E-04 0.296E-04
CGA: 109    -0.357817926931E+03   -0.95410E-06   -0.35997E-05 11088   0.752E-05 0.967E-05
   3 F= -.35781793E+03 E0= -.35781793E+03  d E =-.683802E-01  mag=    12.0000
       N       E                     dE             d eps       ncg     rms          ort
SDA:   1    -0.357782109807E+03    0.35816E-01    0.00000E+00 11088   0.129E+00 0.000E+00
CGA:   2    -0.357804791591E+03   -0.22682E-01   -0.22667E-01 11088   0.614E-01-0.249E-03
CGA:   3    -0.357816476938E+03   -0.11685E-01   -0.11559E-01 11088   0.241E-01-0.490E-03
CGA:   4    -0.357820209061E+03   -0.37321E-02   -0.36560E-02 11088   0.626E-02-0.269E-03
CGA:   5    -0.357821185879E+03   -0.97682E-03   -0.96946E-03 11088   0.166E-02-0.298E-04
CGA:   6    -0.357821501349E+03   -0.31547E-03   -0.30450E-03 11088   0.522E-03-0.499E-04
CGA:   7    -0.357821645529E+03   -0.14418E-03   -0.12665E-03 11088   0.289E-03-0.122E-03
CGA:   8    -0.357821716644E+03   -0.71115E-04   -0.62728E-04 11088   0.181E-03-0.807E-04
CGA:   9    -0.357821759165E+03   -0.42521E-04   -0.38750E-04 11088   0.103E-03-0.442E-04
CGA:  10    -0.357821788194E+03   -0.29029E-04   -0.28731E-04 11088   0.817E-04-0.306E-04
CGA:  11    -0.357821794362E+03   -0.61687E-05   -0.10545E-04 11088   0.411E-04 0.225E-04
   4 F= -.35782179E+03 E0= -.35782179E+03  d E =-.722476E-01  mag=    12.0000
       N       E                     dE             d eps       ncg     rms          ort
SDA:   1    -0.357808792471E+03    0.12996E-01    0.00000E+00 11088   0.449E-01 0.000E+00
CGA:   2    -0.357816749494E+03   -0.79570E-02   -0.79369E-02 11088   0.216E-01-0.149E-03
CGA:   3    -0.357820879278E+03   -0.41298E-02   -0.40709E-02 11088   0.869E-02-0.378E-03
CGA:   4    -0.357822228910E+03   -0.13496E-02   -0.13124E-02 11088   0.227E-02-0.202E-03
CGA:   5    -0.357822574241E+03   -0.34533E-03   -0.34239E-03 11088   0.588E-03-0.173E-04
CGA:   6    -0.357822688394E+03   -0.11415E-03   -0.10971E-03 11088   0.205E-03-0.335E-04
CGA:   7    -0.357822748940E+03   -0.60546E-04   -0.60335E-04 11088   0.217E-03-0.108E-03
CGA:   8    -0.357822775303E+03   -0.26364E-04   -0.28264E-04 11088   0.415E-04 0.103E-04
CGA:   9    -0.357822790271E+03   -0.14968E-04   -0.15629E-04 11088   0.413E-04-0.121E-04
CGA:  10    -0.357822808601E+03   -0.18330E-04    0.22379E-03 11088   0.377E-04 0.397E-05
CGA:  11    -0.357822823374E+03   -0.14773E-04   -0.14386E-04 11088   0.313E-04 0.951E-05
CGA:  12    -0.357822829810E+03   -0.64364E-05   -0.83450E-05 11088   0.197E-04 0.195E-04
   5 F= -.35782283E+03 E0= -.35782283E+03  d E =-.732830E-01  mag=    12.0000
       N       E                     dE             d eps       ncg     rms          ort
SDA:   1    -0.357821148538E+03    0.16748E-02    0.00000E+00 11088   0.546E-02 0.000E+00
CGA:   2    -0.357822145598E+03   -0.99706E-03   -0.99091E-03 11088   0.262E-02-0.506E-04
CGA:   3    -0.357822687223E+03   -0.54163E-03   -0.52525E-03 11088   0.115E-02-0.163E-03
CGA:   4    -0.357822865770E+03   -0.17855E-03   -0.16690E-03 11088   0.310E-03-0.814E-04
CGA:   5    -0.357822910665E+03   -0.44895E-04   -0.44006E-04 11088   0.907E-04-0.648E-05
CGA:   6    -0.357822931256E+03   -0.20591E-04   -0.19680E-04 11088   0.467E-04-0.146E-04
CGA:   7    -0.357822871361E+03    0.59895E-04   -0.39771E-04 11088   0.801E-03-0.136E-03
CGA:   8    -0.357822957846E+03   -0.86486E-04   -0.95679E-04 11088   0.102E-03 0.461E-04
CGA:   9    -0.357822974134E+03   -0.16288E-04   -0.19519E-04 11088   0.269E-04 0.253E-04
CGA:  10    -0.357822979900E+03   -0.57657E-05   -0.66531E-05 11088   0.120E-04 0.862E-05
   6 F= -.35782298E+03 E0= -.35782298E+03  d E =-.734331E-01  mag=    12.0000
       N       E                     dE             d eps       ncg     rms          ort
SDA:   1    -0.357822556148E+03    0.41799E-03    0.00000E+00 11088   0.125E-02 0.000E+00
CGA:   2    -0.357822785590E+03   -0.22944E-03   -0.22645E-03 11088   0.591E-03-0.288E-04
CGA:   3    -0.357822916967E+03   -0.13138E-03   -0.12595E-03 11088   0.315E-03-0.857E-04
CGA:   4    -0.357822962933E+03   -0.45966E-04   -0.41246E-04 11088   0.949E-04-0.377E-04
CGA:   5    -0.357822974955E+03   -0.12022E-04   -0.12161E-04 11088   0.300E-04 0.108E-05
CGA:   6    -0.357822981952E+03   -0.69966E-05   -0.69673E-05 11088   0.188E-04-0.805E-06
CGA:   7    -0.357822974057E+03    0.78945E-05   -0.16029E-04 11088   0.208E-03-0.390E-04
CGA:   8    -0.357822995619E+03   -0.21562E-04   -0.25685E-04 11088   0.316E-04 0.240E-04
CGA:   9    -0.357823000282E+03   -0.46630E-05   -0.60804E-05 11088   0.106E-04 0.125E-04
   7 F= -.35782300E+03 E0= -.35782300E+03  d E =-.734535E-01  mag=    12.0000
