       N       E                     dE             d eps       ncg     rms          ort
DAV:   1     0.225443688969E+04    0.22544E+04   -0.13745E+05 10080   0.155E+03
DAV:   2    -0.246578673647E+03   -0.25010E+04   -0.23561E+04 10080   0.415E+02
DAV:   3    -0.480111510708E+03   -0.23353E+03   -0.23014E+03 10080   0.143E+02
DAV:   4    -0.486922014557E+03   -0.68105E+01   -0.67425E+01 10080   0.227E+01
DAV:   5    -0.487197653367E+03   -0.27564E+00   -0.27527E+00 10080   0.365E+00
SDA:   6    -0.247930463266E+03    0.23927E+03   -0.27527E+00 10080   0.697E+03 0.000E+00
CGA:   7    -0.293637031381E+03   -0.45707E+02   -0.73574E+02 10080   0.784E+03-0.114E+03
CGA:   8    -0.326535523624E+03   -0.32898E+02   -0.30598E+02 10080   0.195E+03-0.102E+03
CGA:   9    -0.349192396900E+03   -0.22657E+02   -0.68409E+01 10080   0.280E+03-0.486E+03
CGA:  10    -0.327759870641E+03    0.21433E+02   -0.19250E+02 10080   0.481E+03-0.110E+03
CGA:  11    -0.348741498094E+03   -0.20982E+02   -0.13048E+02 10080   0.404E+03 0.482E+02
CGA:  12    -0.336597883645E+03    0.12144E+02   -0.28012E+02 10080   0.496E+03-0.263E+03
CGA:  13    -0.351463418826E+03   -0.14866E+02   -0.21212E+02 10080   0.416E+03-0.163E+03
CGA:  14    -0.345881287731E+03    0.55821E+01   -0.17333E+02 10080   0.248E+03-0.102E+03
CGA:  15    -0.364007600961E+03   -0.18126E+02   -0.79708E+01 10080   0.259E+03-0.844E+02
CGA:  16    -0.359660080767E+03    0.43475E+01   -0.69474E+01 10080   0.447E+03-0.117E+03
CGA:  17    -0.358841427519E+03    0.81865E+00   -0.15091E+02 10080   0.226E+03 0.983E+01
CGA:  18    -0.361358973895E+03   -0.25175E+01   -0.13957E+02 10080   0.220E+03-0.101E+03
CGA:  19    -0.362984257700E+03   -0.16253E+01   -0.43824E+01 10080   0.160E+03-0.956E+02
CGA:  20    -0.360453920926E+03    0.25303E+01   -0.30424E+01 10080   0.431E+03-0.321E+02
CGA:  21    -0.359856764552E+03    0.59716E+00   -0.15638E+02 10080   0.143E+03-0.103E+03
CGA:  22    -0.366500117578E+03   -0.66434E+01   -0.61399E+01 10080   0.104E+03 0.217E+02
CGA:  23    -0.369808476467E+03   -0.33084E+01   -0.37204E+01 10080   0.249E+02-0.332E+02
CGA:  24    -0.370614640520E+03   -0.80616E+00   -0.63445E+00 10080   0.207E+02 0.368E+01
CGA:  25    -0.371454532587E+03   -0.83989E+00   -0.95940E+00 10080   0.225E+02-0.473E+01
CGA:  26    -0.371950898523E+03   -0.49637E+00   -0.60446E+00 10080   0.174E+02-0.185E+01
CGA:  27    -0.372224261070E+03   -0.27336E+00   -0.49598E+00 10080   0.180E+02-0.764E+01
CGA:  28    -0.372570145829E+03   -0.34588E+00   -0.29684E+00 10080   0.148E+02 0.138E+01
CGA:  29    -0.372835602044E+03   -0.26546E+00   -0.33830E+00 10080   0.766E+01-0.396E+01
CGA:  30    -0.373005442645E+03   -0.16984E+00   -0.17053E+00 10080   0.102E+02-0.184E+00
CGA:  31    -0.373309131573E+03   -0.30369E+00   -0.31200E+00 10080   0.967E+01-0.576E+00
CGA:  32    -0.373529984471E+03   -0.22085E+00   -0.22995E+00 10080   0.669E+01-0.752E+00
CGA:  33    -0.373690398453E+03   -0.16041E+00   -0.16640E+00 10080   0.626E+01-0.501E+00
CGA:  34    -0.373841304883E+03   -0.15091E+00   -0.18424E+00 10080   0.646E+01-0.124E+01
CGA:  35    -0.373951367706E+03   -0.11006E+00   -0.11747E+00 10080   0.431E+01-0.521E+00
CGA:  36    -0.374050969807E+03   -0.99602E-01   -0.10922E+00 10080   0.464E+01-0.437E+00
CGA:  37    -0.374206652587E+03   -0.15568E+00   -0.16189E+00 10080   0.615E+01-0.217E+00
CGA:  38    -0.374374323451E+03   -0.16767E+00   -0.17674E+00 10080   0.415E+01-0.432E+00
CGA:  39    -0.374479127405E+03   -0.10480E+00   -0.10868E+00 10080   0.260E+01-0.239E+00
CGA:  40    -0.374565222740E+03   -0.86095E-01   -0.90558E-01 10080   0.204E+01-0.122E+00
CGA:  41    -0.374632753558E+03   -0.67531E-01   -0.68243E-01 10080   0.968E+00-0.743E-01
CGA:  42    -0.374670635056E+03   -0.37881E-01   -0.38302E-01 10080   0.848E+00-0.324E-01
SDA:  43    -0.374734391752E+03   -0.63757E-01   -0.64863E-01 10080   0.141E+01-0.650E-01
CGA:  44    -0.374801746480E+03   -0.67355E-01   -0.66686E-01 10080   0.158E+00-0.114E-01
CGA:  45    -0.374884508484E+03   -0.82762E-01   -0.18929E-01 10080   0.957E-01 0.442E-01
CGA:  46    -0.374929917902E+03   -0.45409E-01   -0.47820E-01 10080   0.265E+00-0.106E-01
CGA:  47    -0.374947231653E+03   -0.17314E-01   -0.16273E-01 10080   0.969E-01 0.620E-03
CGA:  48    -0.374957073885E+03   -0.98422E-02   -0.96733E-02 10080   0.122E+00-0.736E-02
CGA:  49    -0.374969013794E+03   -0.11940E-01   -0.11584E-01 10080   0.562E-01-0.151E-01
CGA:  50    -0.374971754572E+03   -0.27408E-02   -0.24292E-02 10080   0.245E-01-0.206E-02
CGA:  51    -0.374974705045E+03   -0.29505E-02   -0.29744E-02 10080   0.561E-01-0.316E-02
CGA:  52    -0.374978766926E+03   -0.40619E-02   -0.38615E-02 10080   0.368E-01-0.496E-02
CGA:  53    -0.374980382765E+03   -0.16158E-02   -0.14403E-02 10080   0.150E-01-0.266E-02
CGA:  54    -0.374982010821E+03   -0.16281E-02   -0.16510E-02 10080   0.397E-01-0.469E-02
CGA:  55    -0.374984391061E+03   -0.23802E-02   -0.20385E-02 10080   0.476E-01-0.843E-02
CGA:  56    -0.374985957250E+03   -0.15662E-02   -0.11807E-02 10080   0.204E-01-0.265E-02
CGA:  57    -0.374986736855E+03   -0.77960E-03   -0.66402E-03 10080   0.146E-01-0.115E-02
CGA:  58    -0.374987596084E+03   -0.85923E-03   -0.81452E-03 10080   0.252E-01-0.850E-03
CGA:  59    -0.374988880584E+03   -0.12845E-02   -0.12266E-02 10080   0.270E-01-0.876E-03
CGA:  60    -0.374989769982E+03   -0.88940E-03   -0.84446E-03 10080   0.127E-01-0.926E-03
CGA:  61    -0.374990235324E+03   -0.46534E-03   -0.42750E-03 10080   0.971E-02-0.731E-03
CGA:  62    -0.374990898980E+03   -0.66366E-03   -0.62725E-03 10080   0.214E-01-0.157E-02
CGA:  63    -0.374992048961E+03   -0.11500E-02   -0.10424E-02 10080   0.301E-01-0.331E-02
CGA:  64    -0.374992897668E+03   -0.84871E-03   -0.69802E-03 10080   0.149E-01-0.137E-02
CGA:  65    -0.374993268077E+03   -0.37041E-03   -0.33815E-03 10080   0.753E-02-0.320E-03
CGA:  66    -0.374993486198E+03   -0.21812E-03   -0.23649E-03 10080   0.855E-02 0.366E-03
CGA:  67    -0.374993830013E+03   -0.34381E-03   -0.39444E-03 10080   0.141E-01 0.135E-02
CGA:  68    -0.374994401769E+03   -0.57176E-03   -0.66633E-03 10080   0.132E-01 0.239E-02
CGA:  69    -0.374994796223E+03   -0.39445E-03   -0.46590E-03 10080   0.659E-02 0.135E-02
CGA:  70    -0.374995036412E+03   -0.24019E-03   -0.25275E-03 10080   0.567E-02 0.256E-03
CGA:  71    -0.374995400177E+03   -0.36376E-03   -0.35743E-03 10080   0.113E-01-0.574E-03
CGA:  72    -0.374995932980E+03   -0.53280E-03   -0.49994E-03 10080   0.148E-01-0.157E-02
CGA:  73    -0.374996334900E+03   -0.40192E-03   -0.35295E-03 10080   0.803E-02-0.120E-02
SDA:  74    -0.374996519978E+03   -0.18508E-03   -0.17147E-03 10080   0.397E-02-0.356E-03
CGA:  75    -0.374997053304E+03   -0.53333E-03   -0.46914E-03 10080   0.274E-02 0.125E-02
CGA:  76    -0.374997549404E+03   -0.49610E-03   -0.46291E-03 10080   0.180E-02 0.561E-03
CGA:  77    -0.374997284715E+03    0.26469E-03   -0.26040E-03 10080   0.208E-01-0.316E-02
CGA:  78    -0.374998236032E+03   -0.95132E-03   -0.93481E-03 10080   0.141E-02-0.187E-03
CGA:  79    -0.374997504816E+03    0.73122E-03   -0.48185E-03 10080   0.129E-01-0.272E-02
CGA:  80    -0.374998439819E+03   -0.93500E-03   -0.10210E-02 10080   0.521E-02 0.570E-03
CGA:  81    -0.374998809129E+03   -0.36931E-03   -0.45832E-03 10080   0.647E-03 0.634E-03
CGA:  82    -0.374998871919E+03   -0.62790E-04   -0.71961E-04 10080   0.514E-03 0.777E-04
CGA:  83    -0.374999030691E+03   -0.15877E-03   -0.18912E-03 10080   0.447E-03-0.261E-03
CGA:  84    -0.374999095501E+03   -0.64810E-04   -0.57677E-04 10080   0.669E-03-0.802E-04
CGA:  85    -0.374999207240E+03   -0.11174E-03   -0.10539E-03 10080   0.509E-03-0.299E-03
CGA:  86    -0.374999246157E+03   -0.38917E-04   -0.34598E-04 10080   0.581E-03-0.487E-04
CGA:  87    -0.374999354126E+03   -0.10797E-03   -0.10818E-03 10080   0.363E-03 0.126E-03
CGA:  88    -0.374999432853E+03   -0.78727E-04   -0.74561E-04 10080   0.117E-02-0.107E-03
CGA:  89    -0.374999599336E+03   -0.16648E-03   -0.21625E-03 10080   0.401E-02-0.901E-03
CGA:  90    -0.374999855118E+03   -0.25578E-03   -0.24955E-03 10080   0.133E-02-0.295E-04
CGA:  91    -0.375000089110E+03   -0.23399E-03   -0.23173E-03 10080   0.332E-03-0.865E-04
CGA:  92    -0.375000111916E+03   -0.22805E-04   -0.21965E-04 10080   0.109E-03-0.588E-05
CGA:  93    -0.375000153870E+03   -0.41954E-04    0.80231E-03 10080   0.649E-04 0.523E-04
CGA:  94    -0.375000173560E+03   -0.19690E-04   -0.44257E-04 10080   0.109E-02-0.919E-04
CGA:  95    -0.375000228679E+03   -0.55118E-04   -0.59372E-04 10080   0.903E-04 0.311E-04
CGA:  96    -0.375000265740E+03   -0.37061E-04    0.38083E-02 10080   0.627E-04 0.418E-04
CGA:  97    -0.375000307418E+03   -0.41679E-04    0.64685E-04 10080   0.180E-03 0.120E-04
CGA:  98    -0.375000424487E+03   -0.11707E-03    0.57438E-04 10080   0.317E-03 0.925E-04
CGA:  99    -0.375000448605E+03   -0.24118E-04   -0.28889E-04 10080   0.166E-03 0.445E-04
CGA: 100    -0.375000479688E+03   -0.31083E-04   -0.31483E-04 10080   0.524E-04 0.146E-04
CGA: 101    -0.375000509213E+03   -0.29525E-04    0.15834E-04 10080   0.548E-04 0.496E-04
CGA: 102    -0.375000535234E+03   -0.26021E-04    0.22564E-04 10080   0.594E-04 0.302E-04
CGA: 103    -0.375000546247E+03   -0.11013E-04   -0.14820E-04 10080   0.489E-03-0.664E-04
CGA: 104    -0.375000567913E+03   -0.21666E-04   -0.23229E-04 10080   0.444E-04 0.111E-04
CGA: 105    -0.375000585728E+03   -0.17815E-04    0.93785E-04 10080   0.983E-04 0.228E-04
CGA: 106    -0.375000600395E+03   -0.14667E-04   -0.11706E-04 10080   0.163E-03-0.429E-04
CGA: 107    -0.375000649827E+03   -0.49432E-04    0.18236E-04 10080   0.337E-03 0.733E-04
CGA: 108    -0.375000733238E+03   -0.83411E-04   -0.80444E-04 10080   0.853E-03-0.149E-03
CGA: 109    -0.375000946840E+03   -0.21360E-03    0.19247E-03 10080   0.267E-02 0.119E-03
CGA: 110    -0.375001479666E+03   -0.53283E-03   -0.49548E-03 10080   0.300E-02-0.169E-02
CGA: 111    -0.375001617317E+03   -0.13765E-03   -0.14341E-03 10080   0.425E-04 0.429E-04
CGA: 112    -0.375001622045E+03   -0.47279E-05   -0.42343E-05 10080   0.508E-04-0.627E-05
CGA: 113    -0.375001642154E+03   -0.20109E-04    0.10607E-04 10080   0.315E-04 0.205E-04
CGA: 114    -0.375001649601E+03   -0.74479E-05   -0.67652E-05 10080   0.135E-03-0.361E-04
   1 F= -.37500165E+03 E0= -.37499362E+03  d E =-.375002E+03  mag=     8.0000
       N       E                     dE             d eps       ncg     rms          ort
SDA:   1    -0.375049546442E+03   -0.47904E-01    0.00000E+00 10080   0.947E-02 0.000E+00
CGA:   2    -0.375050877057E+03   -0.13306E-02   -0.13384E-02 10080   0.907E-02 0.331E-03
CGA:   3    -0.375051640668E+03   -0.76361E-03   -0.78824E-03 10080   0.157E-02 0.328E-03
CGA:   4    -0.375051909024E+03   -0.26836E-03   -0.26841E-03 10080   0.191E-02-0.966E-05
CGA:   5    -0.375052091373E+03   -0.18235E-03   -0.17171E-03 10080   0.264E-03-0.151E-03
CGA:   6    -0.375052140083E+03   -0.48710E-04   -0.56164E-04 10080   0.458E-03-0.992E-04
CGA:   7    -0.375052160214E+03   -0.20131E-04   -0.17262E-04 10080   0.112E-03-0.286E-04
CGA:   8    -0.375052165138E+03   -0.49239E-05   -0.61930E-05 10080   0.840E-04 0.133E-04
   2 F= -.37505217E+03 E0= -.37504413E+03  d E =-.505155E-01  mag=     8.0000
       N       E                     dE             d eps       ncg     rms          ort
SDA:   1    -0.372738813304E+03    0.23133E+01    0.00000E+00 10080   0.133E+02 0.000E+00
CGA:   2    -0.374809640359E+03   -0.20708E+01   -0.20601E+01 10080   0.115E+02 0.769E+00
CGA:   3    -0.375876709156E+03   -0.10671E+01   -0.91003E+00 10080   0.180E+01 0.126E+01
CGA:   4    -0.376329278883E+03   -0.45257E+00   -0.45296E+00 10080   0.231E+01-0.663E-02
CGA:   5    -0.376475288187E+03   -0.14601E+00   -0.14218E+00 10080   0.305E+00 0.315E-01
CGA:   6    -0.376540226946E+03   -0.64939E-01   -0.65140E-01 10080   0.263E+00-0.298E-02
CGA:   7    -0.376555674693E+03   -0.15448E-01   -0.15488E-01 10080   0.754E-01-0.116E-02
CGA:   8    -0.376573702721E+03   -0.18028E-01   -0.18026E-01 10080   0.436E-01 0.210E-04
CGA:   9    -0.376578017771E+03   -0.43151E-02   -0.42795E-02 10080   0.435E-01-0.634E-03
CGA:  10    -0.376585059291E+03   -0.70415E-02   -0.70737E-02 10080   0.144E-01-0.164E-02
CGA:  11    -0.376586727944E+03   -0.16687E-02   -0.16620E-02 10080   0.158E-01-0.256E-03
CGA:  12    -0.376588846786E+03   -0.21188E-02   -0.21161E-02 10080   0.323E-02-0.341E-03
CGA:  13    -0.376589445158E+03   -0.59837E-03   -0.61190E-03 10080   0.617E-02-0.274E-03
CGA:  14    -0.376590021894E+03   -0.57674E-03   -0.55490E-03 10080   0.135E-02-0.455E-03
CGA:  15    -0.376590201541E+03   -0.17965E-03   -0.17953E-03 10080   0.192E-02-0.139E-03
CGA:  16    -0.376590455622E+03   -0.25408E-03   -0.25408E-03 10080   0.583E-03-0.199E-05
CGA:  17    -0.376590530128E+03   -0.74506E-04   -0.72489E-04 10080   0.947E-03-0.103E-03
CGA:  18    -0.376590656219E+03   -0.12609E-03   -0.20767E-03 10080   0.715E-03-0.672E-03
CGA:  19    -0.376590743523E+03   -0.87305E-04   -0.91606E-04 10080   0.299E-03 0.201E-03
CGA:  20    -0.376590778336E+03   -0.34812E-04   -0.39053E-04 10080   0.120E-03 0.913E-04
CGA:  21    -0.376590604559E+03    0.17378E-03   -0.10053E-03 10080   0.176E-02-0.430E-03
CGA:  22    -0.376590740928E+03   -0.13637E-03   -0.14816E-03 10080   0.900E-03 0.687E-04
CGA:  23    -0.376590904914E+03   -0.16399E-03   -0.16912E-03 10080   0.133E-03 0.667E-04
CGA:  24    -0.376590936870E+03   -0.31956E-04   -0.22966E-04 10080   0.323E-03-0.969E-04
CGA:  25    -0.376590951836E+03   -0.14966E-04   -0.16602E-04 10080   0.245E-04 0.879E-05
CGA:  26    -0.376590969091E+03   -0.17254E-04    0.68702E-05 10080   0.330E-04 0.116E-04
CGA:  27    -0.376590998989E+03   -0.29898E-04    0.20434E-04 10080   0.119E-03-0.181E-04
CGA:  28    -0.376591004052E+03   -0.50630E-05   -0.65716E-05 10080   0.153E-04 0.840E-05
   3 F= -.37659100E+03 E0= -.37658279E+03  d E =-.153884E+01  mag=     8.0000
       N       E                     dE             d eps       ncg     rms          ort
SDA:   1    -0.367602535964E+03    0.89885E+01    0.00000E+00 10080   0.425E+02 0.000E+00
CGA:   2    -0.372600694622E+03   -0.49982E+01   -0.60727E+01 10080   0.365E+02-0.627E+00
CGA:   3    -0.375144963051E+03   -0.25443E+01   -0.15279E+01 10080   0.145E+02 0.236E+02
CGA:   4    -0.375966169500E+03   -0.82121E+00   -0.63032E+00 10080   0.389E+01 0.337E+01
CGA:   5    -0.376811648936E+03   -0.84548E+00   -0.84552E+00 10080   0.131E+02-0.102E-01
CGA:   6    -0.377519643727E+03   -0.70799E+00   -0.73701E+00 10080   0.413E+01-0.285E+00
CGA:   7    -0.377647217182E+03   -0.12757E+00   -0.17342E+00 10080   0.143E+01-0.969E+00
CGA:   8    -0.377779592092E+03   -0.13237E+00   -0.13270E+00 10080   0.140E+01 0.597E-03
CGA:   9    -0.377851542971E+03   -0.71951E-01   -0.70166E-01 10080   0.335E+00 0.321E-01
CGA:  10    -0.377901988526E+03   -0.50446E-01   -0.50528E-01 10080   0.652E+00 0.131E-02
CGA:  11    -0.377951168699E+03   -0.49180E-01   -0.50042E-01 10080   0.181E+00-0.743E-02
CGA:  12    -0.377964958846E+03   -0.13790E-01   -0.13707E-01 10080   0.144E+00-0.541E-03
CGA:  13    -0.377983366059E+03   -0.18407E-01   -0.18321E-01 10080   0.116E+00-0.241E-02
CGA:  14    -0.377990915978E+03   -0.75499E-02   -0.74369E-02 10080   0.347E-01-0.211E-02
CGA:  15    -0.377994978254E+03   -0.40623E-02   -0.40512E-02 10080   0.479E-01-0.392E-03
CGA:  16    -0.377999468416E+03   -0.44902E-02   -0.45168E-02 10080   0.129E-01 0.402E-03
CGA:  17    -0.378000455780E+03   -0.98736E-03   -0.10035E-02 10080   0.116E-01 0.205E-03
CGA:  18    -0.378002607900E+03   -0.21521E-02   -0.21515E-02 10080   0.768E-02-0.506E-05
CGA:  19    -0.378003069789E+03   -0.46189E-03   -0.46228E-03 10080   0.346E-02-0.613E-04
CGA:  20    -0.378003796771E+03   -0.72698E-03   -0.71483E-03 10080   0.425E-02 0.201E-03
CGA:  21    -0.378004093468E+03   -0.29670E-03   -0.29701E-03 10080   0.139E-02-0.827E-05
CGA:  22    -0.378004408049E+03   -0.31458E-03   -0.40116E-03 10080   0.388E-02-0.616E-03
CGA:  23    -0.378004539381E+03   -0.13133E-03   -0.11050E-03 10080   0.193E-02-0.208E-03
CGA:  24    -0.378004614916E+03   -0.75535E-04   -0.76464E-04 10080   0.915E-03 0.667E-05
CGA:  25    -0.378004686332E+03   -0.71416E-04   -0.77907E-04 10080   0.160E-02 0.107E-03
CGA:  26    -0.378004855571E+03   -0.16924E-03   -0.17583E-03 10080   0.138E-02 0.146E-03
CGA:  27    -0.378004941795E+03   -0.86224E-04   -0.79823E-04 10080   0.503E-03-0.773E-04
CGA:  28    -0.378004981773E+03   -0.39978E-04   -0.12784E-03 10080   0.347E-02-0.659E-03
CGA:  29    -0.378005150695E+03   -0.16892E-03   -0.18287E-03 10080   0.293E-03 0.156E-03
CGA:  30    -0.378005200856E+03   -0.50161E-04   -0.47967E-04 10080   0.257E-03 0.113E-03
CGA:  31    -0.378005250040E+03   -0.49183E-04   -0.49184E-04 10080   0.168E-03 0.158E-05
CGA:  32    -0.378005262351E+03   -0.12311E-04   -0.65854E-04 10080   0.775E-03-0.213E-03
CGA:  33    -0.378005318867E+03   -0.56517E-04   -0.54097E-04 10080   0.194E-03-0.291E-04
CGA:  34    -0.378005366664E+03   -0.47796E-04   -0.42857E-04 10080   0.477E-04 0.599E-04
CGA:  35    -0.378005375894E+03   -0.92299E-05   -0.23241E-04 10080   0.660E-03-0.629E-04
CGA:  36    -0.378005405392E+03   -0.29499E-04   -0.29692E-04 10080   0.335E-04 0.196E-05
CGA:  37    -0.378005421819E+03   -0.16426E-04   -0.12786E-04 10080   0.634E-04 0.164E-04
CGA:  38    -0.378005441740E+03   -0.19921E-04   -0.20093E-04 10080   0.178E-03-0.412E-05
CGA:  39    -0.378005142217E+03    0.29952E-03   -0.13767E-03 10080   0.277E-02-0.647E-03
CGA:  40    -0.378005363378E+03   -0.22116E-03   -0.23221E-03 10080   0.162E-02 0.476E-04
CGA:  41    -0.378005620085E+03   -0.25671E-03   -0.28211E-03 10080   0.506E-03 0.202E-03
CGA:  42    -0.378005664999E+03   -0.44914E-04   -0.45302E-04 10080   0.170E-03 0.306E-05
CGA:  43    -0.378005707899E+03   -0.42900E-04   -0.79666E-04 10080   0.858E-03-0.199E-03
CGA:  44    -0.378005733596E+03   -0.25697E-04   -0.50629E-04 10080   0.193E-03 0.107E-03
CGA:  45    -0.378005728884E+03    0.47118E-05   -0.15914E-04 10080   0.702E-04 0.100E-03
   4 F= -.37800573E+03 E0= -.37799765E+03  d E =-.141472E+01  mag=     8.0000
       N       E                     dE             d eps       ncg     rms          ort
SDA:   1    -0.373480806812E+03    0.45249E+01    0.00000E+00 10080   0.183E+02 0.000E+00
CGA:   2    -0.376380399822E+03   -0.28996E+01   -0.30117E+01 10080   0.154E+02-0.142E+00
CGA:   3    -0.377391439354E+03   -0.10110E+01   -0.71508E+00 10080   0.332E+01 0.601E+01
CGA:   4    -0.377688845093E+03   -0.29741E+00   -0.28416E+00 10080   0.323E+01 0.142E+00
CGA:   5    -0.378101960232E+03   -0.41312E+00   -0.41106E+00 10080   0.447E+01 0.195E-03
CGA:   6    -0.378277058178E+03   -0.17510E+00   -0.18511E+00 10080   0.807E+00-0.252E+00
CGA:   7    -0.378318311763E+03   -0.41254E-01   -0.41521E-01 10080   0.615E+00-0.698E-02
CGA:   8    -0.378377272484E+03   -0.58961E-01   -0.59267E-01 10080   0.558E+00 0.764E-03
CGA:   9    -0.378403958747E+03   -0.26686E-01   -0.27225E-01 10080   0.167E+00-0.362E-02
CGA:  10    -0.378415695877E+03   -0.11737E-01   -0.11954E-01 10080   0.162E+00 0.350E-04
CGA:  11    -0.378432505376E+03   -0.16809E-01   -0.16936E-01 10080   0.170E+00 0.648E-03
CGA:  12    -0.378442608093E+03   -0.10103E-01   -0.10097E-01 10080   0.573E-01 0.243E-03
CGA:  13    -0.378446855553E+03   -0.42475E-02   -0.41862E-02 10080   0.537E-01-0.984E-03
CGA:  14    -0.378453733664E+03   -0.68781E-02   -0.67389E-02 10080   0.539E-01-0.298E-02
CGA:  15    -0.378456469080E+03   -0.27354E-02   -0.25841E-02 10080   0.149E-01-0.121E-02
CGA:  16    -0.378457777272E+03   -0.13082E-02   -0.13217E-02 10080   0.207E-01 0.180E-03
CGA:  17    -0.378459812674E+03   -0.20354E-02   -0.21122E-02 10080   0.116E-01 0.120E-02
CGA:  18    -0.378460428771E+03   -0.61610E-03   -0.65869E-03 10080   0.497E-02 0.323E-03
CGA:  19    -0.378461257974E+03   -0.82920E-03   -0.83023E-03 10080   0.940E-02-0.143E-03
CGA:  20    -0.378461887318E+03   -0.62934E-03   -0.60937E-03 10080   0.293E-02-0.260E-03
CGA:  21    -0.378462092950E+03   -0.20563E-03   -0.21635E-03 10080   0.295E-02 0.125E-03
CGA:  22    -0.378462432743E+03   -0.33979E-03   -0.35680E-03 10080   0.281E-02 0.534E-03
CGA:  23    -0.378462637380E+03   -0.20464E-03   -0.22217E-03 10080   0.112E-02 0.211E-03
CGA:  24    -0.378462824273E+03   -0.18689E-03   -0.19262E-03 10080   0.246E-02-0.306E-03
CGA:  25    -0.378463037559E+03   -0.21329E-03   -0.19349E-03 10080   0.216E-02-0.620E-03
CGA:  26    -0.378463125865E+03   -0.88306E-04   -0.72970E-04 10080   0.951E-03-0.172E-03
CGA:  27    -0.378463190361E+03   -0.64496E-04   -0.65272E-04 10080   0.143E-02 0.508E-05
CGA:  28    -0.378463369886E+03   -0.17952E-03   -0.18061E-03 10080   0.230E-02 0.109E-03
CGA:  29    -0.378463506793E+03   -0.13691E-03   -0.13917E-03 10080   0.696E-03-0.123E-04
CGA:  30    -0.378463573787E+03   -0.66995E-04   -0.65071E-04 10080   0.109E-02-0.660E-04
CGA:  31    -0.378463716870E+03   -0.14308E-03   -0.14742E-03 10080   0.148E-02-0.239E-03
SDA:  32    -0.378463778198E+03   -0.61328E-04   -0.54005E-04 10080   0.636E-03-0.119E-03
CGA:  33    -0.378463888344E+03   -0.11015E-03   -0.10474E-03 10080   0.421E-03 0.133E-03
CGA:  34    -0.378463940792E+03   -0.52448E-04   -0.53418E-04 10080   0.208E-03 0.457E-04
CGA:  35    -0.378463909084E+03    0.31708E-04   -0.14054E-03 10080   0.192E-02-0.358E-03
CGA:  36    -0.378463998717E+03   -0.89633E-04   -0.99187E-04 10080   0.230E-03 0.104E-03
CGA:  37    -0.378464028762E+03   -0.30044E-04   -0.31901E-04 10080   0.149E-03 0.148E-03
CGA:  38    -0.378464042834E+03   -0.14072E-04   -0.15019E-04 10080   0.127E-03 0.221E-04
CGA:  39    -0.378464060791E+03   -0.17957E-04   -0.18882E-04 10080   0.369E-04 0.748E-04
CGA:  40    -0.378464063627E+03   -0.28361E-05   -0.34485E-05 10080   0.306E-04 0.129E-04
   5 F= -.37846406E+03 E0= -.37845684E+03  d E =-.458335E+00  mag=     8.0000
       N       E                     dE             d eps       ncg     rms          ort
SDA:   1    -0.374719606108E+03    0.37445E+01    0.00000E+00 10080   0.135E+02 0.000E+00
CGA:   2    -0.377289820778E+03   -0.25702E+01   -0.25696E+01 10080   0.825E+01 0.111E-01
CGA:   3    -0.377917797642E+03   -0.62798E+00   -0.60948E+00 10080   0.253E+01 0.160E+00
CGA:   4    -0.378427120252E+03   -0.50932E+00   -0.50988E+00 10080   0.147E+01-0.962E-02
CGA:   5    -0.378544616928E+03   -0.11750E+00   -0.11698E+00 10080   0.329E+00 0.239E-02
CGA:   6    -0.378611185046E+03   -0.66568E-01   -0.66597E-01 10080   0.811E-01-0.437E-03
CGA:   7    -0.378626685388E+03   -0.15500E-01   -0.15445E-01 10080   0.766E-01 0.113E-02
CGA:   8    -0.378634231031E+03   -0.75456E-02   -0.75619E-02 10080   0.304E-01 0.541E-03
CGA:   9    -0.378642210364E+03   -0.79793E-02   -0.81131E-02 10080   0.291E-01-0.108E-02
CGA:  10    -0.378644897064E+03   -0.26867E-02   -0.26663E-02 10080   0.153E-01-0.428E-03
CGA:  11    -0.378648307945E+03   -0.34109E-02   -0.34899E-02 10080   0.104E-01-0.940E-03
CGA:  12    -0.378649186109E+03   -0.87816E-03   -0.87165E-03 10080   0.410E-02-0.120E-03
CGA:  13    -0.378650286826E+03   -0.11007E-02   -0.11372E-02 10080   0.126E-02-0.276E-03
CGA:  14    -0.378650603686E+03   -0.31686E-03   -0.32578E-03 10080   0.185E-02-0.734E-04
CGA:  15    -0.378650786500E+03   -0.18281E-03   -0.17612E-03 10080   0.506E-03-0.116E-03
CGA:  16    -0.378650935352E+03   -0.14885E-03   -0.23962E-03 10080   0.172E-02-0.264E-03
CGA:  17    -0.378651045680E+03   -0.11033E-03   -0.10727E-03 10080   0.302E-03-0.286E-04
CGA:  18    -0.378651127030E+03   -0.81350E-04   -0.88985E-04 10080   0.454E-03-0.586E-04
CGA:  19    -0.378651163749E+03   -0.36719E-04   -0.31731E-04 10080   0.173E-03-0.569E-04
CGA:  20    -0.378651201707E+03   -0.37958E-04   -0.77659E-04 10080   0.700E-03-0.119E-03
CGA:  21    -0.378651254247E+03   -0.52541E-04   -0.52726E-04 10080   0.185E-03 0.180E-05
CGA:  22    -0.378651296234E+03   -0.41986E-04   -0.47376E-04 10080   0.152E-03-0.744E-04
CGA:  23    -0.378651314681E+03   -0.18448E-04   -0.20665E-04 10080   0.317E-03-0.536E-04
CGA:  24    -0.378651359160E+03   -0.44479E-04   -0.64406E-04 10080   0.241E-03-0.163E-03
CGA:  25    -0.378651382309E+03   -0.23148E-04   -0.25504E-04 10080   0.189E-03 0.269E-04
CGA:  26    -0.378651420441E+03   -0.38133E-04   -0.38310E-04 10080   0.603E-04 0.236E-04
CGA:  27    -0.378651433776E+03   -0.13334E-04   -0.14545E-04 10080   0.203E-03-0.484E-04
CGA:  28    -0.378651447020E+03   -0.13244E-04   -0.11879E-04 10080   0.197E-04-0.998E-05
CGA:  29    -0.378651450591E+03   -0.35715E-05   -0.90169E-05 10080   0.224E-03-0.184E-04
CGA:  30    -0.378651462359E+03   -0.11768E-04   -0.11533E-04 10080   0.126E-04-0.116E-05
CGA:  31    -0.378651464271E+03   -0.19117E-05   -0.20451E-05 10080   0.148E-04 0.473E-05
CGA:  32    -0.378651472265E+03   -0.79943E-05   -0.14787E-04 10080   0.184E-03-0.134E-04
CGA:  33    -0.378651486154E+03   -0.13888E-04   -0.13858E-04 10080   0.341E-04 0.297E-06
CGA:  34    -0.378651493638E+03   -0.74839E-05   -0.12285E-04 10080   0.625E-04-0.321E-04
   6 F= -.37865149E+03 E0= -.37864501E+03  d E =-.187430E+00  mag=     8.0000
       N       E                     dE             d eps       ncg     rms          ort
SDA:   1    -0.373958242083E+03    0.46932E+01    0.00000E+00 10080   0.143E+02 0.000E+00
CGA:   2    -0.376949074131E+03   -0.29908E+01   -0.29910E+01 10080   0.121E+02 0.671E-01
CGA:   3    -0.377854277122E+03   -0.90520E+00   -0.76260E+00 10080   0.254E+01 0.209E+01
CGA:   4    -0.378401194089E+03   -0.54692E+00   -0.54690E+00 10080   0.308E+01 0.216E-02
CGA:   5    -0.378589228710E+03   -0.18803E+00   -0.19418E+00 10080   0.536E+00-0.673E-01
CGA:   6    -0.378645491803E+03   -0.56263E-01   -0.56000E-01 10080   0.423E+00 0.215E-03
CGA:   7    -0.378684282741E+03   -0.38791E-01   -0.38681E-01 10080   0.117E+00 0.709E-03
CGA:   8    -0.378694286585E+03   -0.10004E-01   -0.10024E-01 10080   0.729E-01 0.500E-03
CGA:   9    -0.378705601607E+03   -0.11315E-01   -0.11320E-01 10080   0.433E-01 0.144E-03
CGA:  10    -0.378709418407E+03   -0.38168E-02   -0.37936E-02 10080   0.282E-01-0.321E-03
CGA:  11    -0.378714726360E+03   -0.53080E-02   -0.53269E-02 10080   0.250E-01-0.123E-02
CGA:  12    -0.378716849953E+03   -0.21236E-02   -0.20606E-02 10080   0.102E-01-0.564E-03
CGA:  13    -0.378718803860E+03   -0.19539E-02   -0.19661E-02 10080   0.154E-01-0.474E-03
CGA:  14    -0.378720057199E+03   -0.12533E-02   -0.12195E-02 10080   0.316E-02-0.397E-03
CGA:  15    -0.378720737943E+03   -0.68074E-03   -0.73387E-03 10080   0.819E-02-0.754E-03
CGA:  16    -0.378721249526E+03   -0.51158E-03   -0.44897E-03 10080   0.222E-02-0.650E-03
CGA:  17    -0.378721388297E+03   -0.13877E-03   -0.12714E-03 10080   0.163E-02-0.120E-03
CGA:  18    -0.378721676679E+03   -0.28838E-03   -0.29437E-03 10080   0.270E-02-0.206E-03
CGA:  19    -0.378721828074E+03   -0.15140E-03   -0.12921E-03 10080   0.762E-03-0.212E-03
CGA:  20    -0.378721938325E+03   -0.11025E-03   -0.10834E-03 10080   0.242E-02-0.598E-03
CGA:  21    -0.378722086246E+03   -0.14792E-03   -0.14089E-03 10080   0.337E-03-0.715E-04
CGA:  22    -0.378721718258E+03    0.36799E-03   -0.21342E-03 10080   0.798E-02-0.852E-03
CGA:  23    -0.378722185722E+03   -0.46746E-03   -0.47665E-03 10080   0.978E-03 0.375E-04
CGA:  24    -0.378722349781E+03   -0.16406E-03   -0.16864E-03 10080   0.655E-03 0.482E-04
CGA:  25    -0.378722430752E+03   -0.80971E-04   -0.71911E-04 10080   0.125E-03-0.564E-04
CGA:  26    -0.378722507158E+03   -0.76406E-04    0.45847E-04 10080   0.127E-03-0.215E-04
CGA:  27    -0.378722569573E+03   -0.62416E-04    0.81032E-04 10080   0.447E-03-0.114E-03
CGA:  28    -0.378722593351E+03   -0.23778E-04   -0.26563E-04 10080   0.692E-04 0.149E-04
CGA:  29    -0.378722608911E+03   -0.15560E-04   -0.15674E-04 10080   0.614E-04 0.443E-05
CGA:  30    -0.378722646830E+03   -0.37919E-04    0.41363E-04 10080   0.177E-03-0.460E-04
CGA:  31    -0.378722674530E+03   -0.27699E-04   -0.18808E-04 10080   0.889E-04-0.642E-04
CGA:  32    -0.378722729270E+03   -0.54741E-04    0.64176E-05 10080   0.319E-04-0.509E-05
CGA:  33    -0.378722749509E+03   -0.20239E-04    0.84557E-05 10080   0.228E-04 0.149E-04
CGA:  34    -0.378722777963E+03   -0.28454E-04    0.49390E-05 10080   0.683E-04-0.835E-06
CGA:  35    -0.378722890871E+03   -0.11291E-03    0.29559E-05 10080   0.125E-03 0.544E-05
CGA:  36    -0.378723108538E+03   -0.21767E-03    0.65659E-05 10080   0.637E-03-0.171E-03
CGA:  37    -0.378723150901E+03   -0.42364E-04   -0.41188E-04 10080   0.752E-04-0.572E-05
CGA:  38    -0.378723106587E+03    0.44314E-04   -0.54963E-04 10080   0.671E-03-0.195E-03
CGA:  39    -0.378723148942E+03   -0.42355E-04   -0.54154E-04 10080   0.255E-03 0.704E-04
CGA:  40    -0.378723172267E+03   -0.23325E-04   -0.32673E-04 10080   0.248E-04 0.726E-04
CGA:  41    -0.378723179415E+03   -0.71481E-05   -0.60107E-05 10080   0.641E-04-0.227E-04
   7 F= -.37872318E+03 E0= -.37871752E+03  d E =-.716858E-01  mag=     8.0000
       N       E                     dE             d eps       ncg     rms          ort
SDA:   1    -0.364852030082E+03    0.13871E+02    0.00000E+00 10080   0.377E+02 0.000E+00
CGA:   2    -0.372908059964E+03   -0.80560E+01   -0.80713E+01 10080   0.418E+02 0.478E+00
CGA:   3    -0.375972028270E+03   -0.30640E+01   -0.22026E+01 10080   0.929E+01 0.160E+02
CGA:   4    -0.376987911441E+03   -0.10159E+01   -0.97712E+00 10080   0.985E+01 0.293E+00
CGA:   5    -0.377975137623E+03   -0.98723E+00   -0.98215E+00 10080   0.736E+01 0.541E-01
CGA:   6    -0.378293411716E+03   -0.31827E+00   -0.32369E+00 10080   0.201E+01-0.183E+00
CGA:   7    -0.378417154841E+03   -0.12374E+00   -0.11899E+00 10080   0.139E+01 0.595E-01
CGA:   8    -0.378522082833E+03   -0.10493E+00   -0.10649E+00 10080   0.924E+00-0.223E-01
CGA:   9    -0.378572784250E+03   -0.50701E-01   -0.51714E-01 10080   0.307E+00-0.151E-01
CGA:  10    -0.378590796659E+03   -0.18012E-01   -0.17916E-01 10080   0.220E+00 0.343E-02
CGA:  11    -0.378616655221E+03   -0.25859E-01   -0.25974E-01 10080   0.242E+00 0.738E-03
CGA:  12    -0.378629596371E+03   -0.12941E-01   -0.13155E-01 10080   0.725E-01-0.528E-02
CGA:  13    -0.378636274061E+03   -0.66777E-02   -0.65943E-02 10080   0.860E-01-0.210E-02
CGA:  14    -0.378644530329E+03   -0.82563E-02   -0.80900E-02 10080   0.534E-01-0.289E-02
CGA:  15    -0.378648128462E+03   -0.35981E-02   -0.35126E-02 10080   0.240E-01-0.150E-02
CGA:  16    -0.378650038844E+03   -0.19104E-02   -0.18603E-02 10080   0.182E-01-0.783E-03
CGA:  17    -0.378652478543E+03   -0.24397E-02   -0.24299E-02 10080   0.216E-01-0.969E-03
CGA:  18    -0.378653847933E+03   -0.13694E-02   -0.13135E-02 10080   0.636E-02-0.840E-03
CGA:  19    -0.378654726333E+03   -0.87840E-03   -0.87811E-03 10080   0.139E-01-0.183E-02
CGA:  20    -0.378655875969E+03   -0.11496E-02   -0.99004E-03 10080   0.960E-02-0.368E-02
CGA:  21    -0.378656314698E+03   -0.43873E-03   -0.34294E-03 10080   0.515E-02-0.116E-02
CGA:  22    -0.378656798442E+03   -0.48374E-03   -0.46877E-03 10080   0.874E-02-0.471E-03
CGA:  23    -0.378657410491E+03   -0.61205E-03   -0.59715E-03 10080   0.513E-02-0.272E-03
CGA:  24    -0.378657734098E+03   -0.32361E-03   -0.29139E-03 10080   0.318E-02-0.481E-03
CGA:  25    -0.378658107418E+03   -0.37332E-03   -0.56900E-03 10080   0.112E-01-0.286E-02
CGA:  26    -0.378658823075E+03   -0.71566E-03   -0.70578E-03 10080   0.912E-03-0.114E-03
CGA:  27    -0.378659016621E+03   -0.19355E-03   -0.38974E-03 10080   0.495E-02-0.643E-03
CGA:  28    -0.378659305557E+03   -0.28894E-03   -0.27348E-03 10080   0.269E-03-0.202E-03
CGA:  29    -0.378659358428E+03   -0.52872E-04   -0.54621E-04 10080   0.365E-03-0.237E-04
CGA:  30    -0.378659460701E+03   -0.10227E-03    0.31669E-03 10080   0.193E-03 0.526E-04
CGA:  31    -0.378659582221E+03   -0.12152E-03    0.16967E-04 10080   0.134E-03 0.140E-03
CGA:  32    -0.378659636183E+03   -0.53962E-04    0.23351E-04 10080   0.102E-03 0.285E-04
CGA:  33    -0.378659714803E+03   -0.78620E-04    0.71537E-05 10080   0.642E-04 0.800E-04
CGA:  34    -0.378659748970E+03   -0.34166E-04    0.53354E-05 10080   0.565E-04 0.410E-04
CGA:  35    -0.378659786325E+03   -0.37356E-04    0.30858E-05 10080   0.576E-04 0.357E-04
CGA:  36    -0.378659821220E+03   -0.34894E-04    0.36897E-05 10080   0.670E-04 0.276E-04
CGA:  37    -0.378659901373E+03   -0.80154E-04    0.38831E-05 10080   0.532E-04 0.882E-04
CGA:  38    -0.378659934455E+03   -0.33082E-04    0.32430E-05 10080   0.520E-04 0.251E-04
CGA:  39    -0.378660002302E+03   -0.67846E-04    0.25983E-05 10080   0.474E-04 0.732E-04
CGA:  40    -0.378660036337E+03   -0.34035E-04    0.22393E-05 10080   0.463E-04 0.224E-04
CGA:  41    -0.378660100661E+03   -0.64324E-04    0.21209E-05 10080   0.423E-04 0.655E-04
CGA:  42    -0.378660130660E+03   -0.29999E-04    0.20428E-05 10080   0.413E-04 0.201E-04
CGA:  43    -0.378660191803E+03   -0.61143E-04    0.17358E-05 10080   0.379E-04 0.586E-04
CGA:  44    -0.378660222450E+03   -0.30648E-04    0.14795E-05 10080   0.370E-04 0.181E-04
CGA:  45    -0.378660280281E+03   -0.57831E-04    0.14509E-05 10080   0.340E-04 0.527E-04
CGA:  46    -0.378660307399E+03   -0.27118E-04    0.13639E-05 10080   0.332E-04 0.164E-04
CGA:  47    -0.378660362571E+03   -0.55172E-04    0.12061E-05 10080   0.307E-04 0.475E-04
CGA:  48    -0.378660390217E+03   -0.27647E-04    0.10209E-05 10080   0.300E-04 0.149E-04
CGA:  49    -0.378660442319E+03   -0.52102E-04    0.10290E-05 10080   0.278E-04 0.430E-04
CGA:  50    -0.378660466871E+03   -0.24552E-04    0.95191E-06 10080   0.271E-04 0.135E-04
CGA:  51    -0.378660516840E+03   -0.49968E-04    0.86685E-06 10080   0.252E-04 0.391E-04
CGA:  52    -0.378660541903E+03   -0.25063E-04    0.73052E-06 10080   0.247E-04 0.124E-04
CGA:  53    -0.378660589136E+03   -0.47233E-04    0.75259E-06 10080   0.230E-04 0.356E-04
CGA:  54    -0.378660611495E+03   -0.22359E-04    0.68763E-06 10080   0.225E-04 0.113E-04
CGA:  55    -0.378660657032E+03   -0.45537E-04    0.64089E-06 10080   0.210E-04 0.325E-04
CGA:  56    -0.378660679875E+03   -0.22843E-04    0.53806E-06 10080   0.206E-04 0.104E-04
CGA:  57    -0.378660722943E+03   -0.43068E-04    0.56382E-06 10080   0.193E-04 0.298E-04
CGA:  58    -0.378660743403E+03   -0.20460E-04    0.50932E-06 10080   0.188E-04 0.958E-05
CGA:  59    -0.378660785085E+03   -0.41682E-04    0.48395E-06 10080   0.177E-04 0.274E-04
CGA:  60    -0.378660805972E+03   -0.20887E-04    0.40483E-06 10080   0.173E-04 0.884E-05
CGA:  61    -0.378660845377E+03   -0.39405E-04    0.43003E-06 10080   0.163E-04 0.252E-04
CGA:  62    -0.378660864161E+03   -0.18784E-04    0.38365E-06 10080   0.159E-04 0.816E-05
CGA:  63    -0.378660884130E+03   -0.19969E-04    0.33520E-06 10080   0.156E-04 0.788E-05
CGA:  64    -0.378660921578E+03   -0.37448E-04    0.35921E-06 10080   0.147E-04 0.226E-04
CGA:  65    -0.378660939077E+03   -0.17499E-04    0.33000E-06 10080   0.143E-04 0.727E-05
CGA:  66    -0.378660975030E+03   -0.35953E-04    0.31501E-06 10080   0.135E-04 0.208E-04
CGA:  67    -0.378660993366E+03   -0.18336E-04    0.25730E-06 10080   0.132E-04 0.672E-05
CGA:  68    -0.378661027733E+03   -0.34367E-04    0.27830E-06 10080   0.124E-04 0.192E-04
CGA:  69    -0.378661043785E+03   -0.16052E-04    0.25366E-06 10080   0.122E-04 0.621E-05
CGA:  70    -0.378661076776E+03   -0.32990E-04    0.24465E-06 10080   0.115E-04 0.177E-04
CGA:  71    -0.378661093606E+03   -0.16830E-04    0.19869E-06 10080   0.112E-04 0.575E-05
CGA:  72    -0.378661108723E+03   -0.15117E-04    0.21551E-06 10080   0.109E-04 0.557E-05
CGA:  73    -0.378661139846E+03   -0.31123E-04    0.20765E-06 10080   0.103E-04 0.160E-04
CGA:  74    -0.378661155785E+03   -0.15939E-04    0.16842E-06 10080   0.101E-04 0.517E-05
CGA:  75    -0.378661185578E+03   -0.29793E-04    0.18390E-06 10080   0.956E-05 0.147E-04
CGA:  76    -0.378661199462E+03   -0.13884E-04    0.16743E-06 10080   0.932E-05 0.478E-05
CGA:  77    -0.378661214542E+03   -0.15081E-04    0.14303E-06 10080   0.909E-05 0.465E-05
CGA:  78    -0.378661242704E+03   -0.28161E-04    0.15652E-06 10080   0.862E-05 0.133E-04
CGA:  79    -0.378661255826E+03   -0.13123E-04    0.14262E-06 10080   0.840E-05 0.431E-05
CGA:  80    -0.378661282848E+03   -0.27022E-04    0.13870E-06 10080   0.797E-05 0.123E-04
CGA:  81    -0.378661296724E+03   -0.13876E-04    0.11203E-06 10080   0.776E-05 0.400E-05
CGA:  82    -0.378661309125E+03   -0.12400E-04    0.12106E-06 10080   0.756E-05 0.391E-05
CGA:  83    -0.378661322632E+03   -0.13507E-04    0.10297E-06 10080   0.736E-05 0.382E-05
CGA:  84    -0.378661334697E+03   -0.12065E-04    0.11124E-06 10080   0.717E-05 0.374E-05
CGA:  85    -0.378661347857E+03   -0.13160E-04    0.94532E-07 10080   0.698E-05 0.366E-05
CGA:  86    -0.378661359592E+03   -0.11736E-04    0.10229E-06 10080   0.680E-05 0.358E-05
CGA:  87    -0.378661372438E+03   -0.12846E-04    0.86685E-07 10080   0.662E-05 0.350E-05
CGA:  88    -0.378661383827E+03   -0.11389E-04    0.94533E-07 10080   0.646E-05 0.342E-05
CGA:  89    -0.378661396428E+03   -0.12601E-04    0.79374E-07 10080   0.632E-05 0.334E-05
CGA:  90    -0.378661407377E+03   -0.10948E-04    0.89324E-07 10080   0.623E-05 0.322E-05
CGA:  91    -0.378661419914E+03   -0.12537E-04    0.73780E-07 10080   0.630E-05 0.303E-05
CGA:  92    -0.378661442791E+03   -0.22877E-04    0.88718E-07 10080   0.591E-05 0.895E-05
CGA:  93    -0.378661453473E+03   -0.10682E-04    0.79401E-07 10080   0.579E-05 0.274E-05
CGA:  94    -0.378661475241E+03   -0.21768E-04    0.75866E-07 10080   0.550E-05 0.824E-05
CGA:  95    -0.378661486592E+03   -0.11352E-04    0.63246E-07 10080   0.536E-05 0.254E-05
CGA:  96    -0.378661507492E+03   -0.20900E-04    0.67201E-07 10080   0.511E-05 0.763E-05
CGA:  97    -0.378661517229E+03   -0.97370E-05    0.64475E-07 10080   0.496E-05 0.236E-05
   8 F= -.37866152E+03 E0= -.37865664E+03  d E =0.616622E-01  mag=     8.0000
       N       E                     dE             d eps       ncg     rms          ort
SDA:   1    -0.375424451385E+03    0.32371E+01    0.00000E+00 10080   0.848E+01 0.000E+00
CGA:   2    -0.378068166475E+03   -0.26437E+01   -0.26461E+01 10080   0.301E+01-0.142E-01
CGA:   3    -0.378530975251E+03   -0.46281E+00   -0.46295E+00 10080   0.175E+01-0.221E-01
CGA:   4    -0.378733127215E+03   -0.20215E+00   -0.20290E+00 10080   0.316E+00 0.113E-01
CGA:   5    -0.378781321824E+03   -0.48195E-01   -0.48198E-01 10080   0.188E+00-0.210E-02
CGA:   6    -0.378801661029E+03   -0.20339E-01   -0.20255E-01 10080   0.460E-01-0.610E-03
CGA:   7    -0.378810524259E+03   -0.88632E-02   -0.88918E-02 10080   0.266E-01-0.591E-03
CGA:   8    -0.378813851306E+03   -0.33270E-02   -0.33417E-02 10080   0.121E-01 0.695E-03
CGA:   9    -0.378816729665E+03   -0.28784E-02   -0.28922E-02 10080   0.497E-02-0.152E-03
CGA:  10    -0.378817853964E+03   -0.11243E-02   -0.11230E-02 10080   0.510E-02 0.241E-04
CGA:  11    -0.378818518175E+03   -0.66421E-03   -0.65168E-03 10080   0.211E-02-0.417E-03
CGA:  12    -0.378818930540E+03   -0.41237E-03   -0.43807E-03 10080   0.228E-02-0.362E-03
CGA:  13    -0.378819226064E+03   -0.29552E-03   -0.29378E-03 10080   0.101E-02-0.495E-03
CGA:  14    -0.378819421920E+03   -0.19586E-03   -0.35826E-03 10080   0.290E-02-0.557E-03
CGA:  15    -0.378819632865E+03   -0.21095E-03   -0.20671E-03 10080   0.591E-03-0.354E-04
CGA:  16    -0.378819791787E+03   -0.15892E-03   -0.15091E-03 10080   0.317E-03 0.888E-04
CGA:  17    -0.378819863451E+03   -0.71664E-04   -0.77859E-04 10080   0.666E-03-0.151E-03
CGA:  18    -0.378819931663E+03   -0.68212E-04   -0.80737E-04 10080   0.786E-03-0.226E-03
CGA:  19    -0.378819961253E+03   -0.29590E-04   -0.27781E-04 10080   0.330E-03-0.139E-04
CGA:  20    -0.378819986104E+03   -0.24851E-04   -0.26613E-04 10080   0.384E-03 0.200E-04
CGA:  21    -0.378820047960E+03   -0.61856E-04   -0.61703E-04 10080   0.577E-03-0.127E-04
CGA:  22    -0.378820101988E+03   -0.54028E-04   -0.44420E-04 10080   0.241E-03-0.113E-03
CGA:  23    -0.378820090892E+03    0.11095E-04   -0.56578E-04 10080   0.182E-02-0.522E-03
CGA:  24    -0.378820221229E+03   -0.13034E-03   -0.13432E-03 10080   0.163E-03 0.568E-04
CGA:  25    -0.378820247268E+03   -0.26040E-04   -0.26568E-04 10080   0.901E-04 0.903E-04
CGA:  26    -0.378820264557E+03   -0.17288E-04   -0.17926E-04 10080   0.148E-03-0.175E-04
CGA:  27    -0.378820284908E+03   -0.20351E-04   -0.20286E-04 10080   0.539E-04 0.125E-04
CGA:  28    -0.378820288605E+03   -0.36970E-05   -0.43532E-05 10080   0.155E-04 0.740E-05
   9 F= -.37882029E+03 E0= -.37881571E+03  d E =-.158771E+00  mag=     8.0000
       N       E                     dE             d eps       ncg     rms          ort
SDA:   1    -0.377569605736E+03    0.12507E+01    0.00000E+00 10080   0.349E+01 0.000E+00
CGA:   2    -0.378537253027E+03   -0.96765E+00   -0.97006E+00 10080   0.146E+01-0.207E-01
CGA:   3    -0.378747520237E+03   -0.21027E+00   -0.21088E+00 10080   0.809E+00 0.156E-01
CGA:   4    -0.378851079481E+03   -0.10356E+00   -0.10350E+00 10080   0.136E+00 0.305E-02
CGA:   5    -0.378872654656E+03   -0.21575E-01   -0.21575E-01 10080   0.680E-01 0.175E-03
CGA:   6    -0.378880203862E+03   -0.75492E-02   -0.75185E-02 10080   0.211E-01-0.697E-03
CGA:   7    -0.378884061429E+03   -0.38576E-02   -0.38667E-02 10080   0.110E-01-0.341E-03
CGA:   8    -0.378885637514E+03   -0.15761E-02   -0.15684E-02 10080   0.687E-02-0.415E-03
CGA:   9    -0.378887012454E+03   -0.13749E-02   -0.13872E-02 10080   0.293E-02-0.241E-03
CGA:  10    -0.378887707843E+03   -0.69539E-03   -0.72425E-03 10080   0.317E-02-0.306E-03
CGA:  11    -0.378888077931E+03   -0.37009E-03   -0.36380E-03 10080   0.109E-02-0.159E-03
CGA:  12    -0.378888282678E+03   -0.20475E-03   -0.45033E-03 10080   0.400E-02-0.910E-03
CGA:  13    -0.378888551024E+03   -0.26835E-03   -0.26824E-03 10080   0.462E-03 0.201E-04
CGA:  14    -0.378888664067E+03   -0.11304E-03   -0.21181E-03 10080   0.117E-02-0.349E-03
CGA:  15    -0.378888761503E+03   -0.97435E-04   -0.98345E-04 10080   0.266E-03 0.130E-04
CGA:  16    -0.378888802887E+03   -0.41384E-04   -0.11227E-03 10080   0.856E-03-0.301E-03
CGA:  17    -0.378888879440E+03   -0.76553E-04   -0.72684E-04 10080   0.242E-03-0.320E-04
CGA:  18    -0.378888822454E+03    0.56986E-04   -0.13386E-03 10080   0.166E-02-0.493E-03
CGA:  19    -0.378888958391E+03   -0.13594E-03   -0.14424E-03 10080   0.472E-03 0.751E-04
CGA:  20    -0.378889044940E+03   -0.86549E-04   -0.85468E-04 10080   0.572E-04-0.367E-04
CGA:  21    -0.378889093012E+03   -0.48072E-04    0.41755E-05 10080   0.356E-04 0.149E-04
CGA:  22    -0.378889140698E+03   -0.47686E-04    0.27373E-05 10080   0.418E-04 0.857E-05
CGA:  23    -0.378889203772E+03   -0.63074E-04    0.25636E-05 10080   0.357E-04 0.340E-04
CGA:  24    -0.378889220980E+03   -0.17208E-04    0.17706E-04 10080   0.243E-04 0.768E-05
CGA:  25    -0.378889249171E+03   -0.28191E-04    0.21535E-05 10080   0.281E-04 0.472E-05
CGA:  26    -0.378889309836E+03   -0.60664E-04    0.95891E-06 10080   0.251E-04 0.239E-04
CGA:  27    -0.378889332038E+03   -0.22203E-04    0.20868E-05 10080   0.247E-04 0.143E-05
CGA:  28    -0.378889366726E+03   -0.34687E-04    0.11317E-05 10080   0.177E-04 0.377E-05
CGA:  29    -0.378889403821E+03   -0.37095E-04    0.58320E-06 10080   0.175E-04 0.155E-04
CGA:  30    -0.378889421329E+03   -0.17508E-04    0.11713E-05 10080   0.229E-04-0.161E-05
CGA:  31    -0.378889454862E+03   -0.33533E-04    0.68833E-06 10080   0.148E-04 0.395E-05
CGA:  32    -0.378889491301E+03   -0.36438E-04    0.40929E-06 10080   0.211E-04 0.778E-05
CGA:  33    -0.378889505204E+03   -0.13903E-04    0.33076E-05 10080   0.372E-04-0.138E-04
CGA:  34    -0.378889512282E+03   -0.70782E-05   -0.55996E-05 10080   0.386E-04-0.289E-04
CGA:  35    -0.378889506141E+03    0.61411E-05   -0.13699E-04 10080   0.499E-03-0.126E-03
CGA:  36    -0.378889543055E+03   -0.36914E-04   -0.36848E-04 10080   0.388E-05 0.284E-05
CGA:  37    -0.378889555595E+03   -0.12540E-04    0.55106E-07 10080   0.405E-05 0.360E-05
CGA:  38    -0.378889567516E+03   -0.11921E-04    0.63258E-07 10080   0.516E-05 0.276E-05
CGA:  39    -0.378889579486E+03   -0.11971E-04    0.10704E-06 10080   0.110E-04-0.143E-06
CGA:  40    -0.378889616142E+03   -0.36655E-04    0.13978E-06 10080   0.103E-04 0.949E-05
CGA:  41    -0.378889625316E+03   -0.91739E-05    0.83049E-06 10080   0.335E-04-0.123E-04
  10 F= -.37888963E+03 E0= -.37888535E+03  d E =-.693367E-01  mag=     8.0000
       N       E                     dE             d eps       ncg     rms          ort
SDA:   1    -0.377152974306E+03    0.17366E+01    0.00000E+00 10080   0.441E+01 0.000E+00
CGA:   2    -0.378461945054E+03   -0.13090E+01   -0.13089E+01 10080   0.244E+01-0.310E-02
CGA:   3    -0.378718816002E+03   -0.25687E+00   -0.24178E+00 10080   0.855E+00 0.113E+00
CGA:   4    -0.378866842961E+03   -0.14803E+00   -0.14826E+00 10080   0.133E+00 0.630E-02
CGA:   5    -0.378893793924E+03   -0.26951E-01   -0.26959E-01 10080   0.399E-01-0.131E-02
CGA:   6    -0.378899805900E+03   -0.60120E-02   -0.59859E-02 10080   0.203E-01-0.574E-03
CGA:   7    -0.378902564952E+03   -0.27591E-02   -0.27507E-02 10080   0.612E-02-0.117E-03
CGA:   8    -0.378904074069E+03   -0.15091E-02   -0.15424E-02 10080   0.451E-02-0.532E-03
CGA:   9    -0.378904613373E+03   -0.53930E-03   -0.53795E-03 10080   0.242E-02-0.880E-05
CGA:  10    -0.378905257104E+03   -0.64373E-03   -0.71225E-03 10080   0.191E-02-0.656E-03
CGA:  11    -0.378905521571E+03   -0.26447E-03   -0.25962E-03 10080   0.178E-02-0.490E-03
CGA:  12    -0.378905720858E+03   -0.19929E-03   -0.45985E-03 10080   0.292E-02-0.172E-02
CGA:  13    -0.378906043325E+03   -0.32247E-03   -0.31508E-03 10080   0.114E-02-0.672E-04
CGA:  14    -0.378906300671E+03   -0.25735E-03   -0.28750E-03 10080   0.970E-03-0.507E-03
CGA:  15    -0.378906413531E+03   -0.11286E-03   -0.11948E-03 10080   0.115E-02-0.330E-03
CGA:  16    -0.378904988303E+03    0.14252E-02   -0.63512E-03 10080   0.173E-01-0.322E-02
CGA:  17    -0.378906386644E+03   -0.13983E-02   -0.14099E-02 10080   0.310E-02 0.320E-03
CGA:  18    -0.378907115841E+03   -0.72920E-03   -0.73110E-03 10080   0.101E-02-0.383E-03
CGA:  19    -0.378907270870E+03   -0.15503E-03   -0.15701E-03 10080   0.731E-03 0.423E-04
CGA:  20    -0.378907431540E+03   -0.16067E-03   -0.16038E-03 10080   0.224E-03-0.194E-04
CGA:  21    -0.378907543670E+03   -0.11213E-03    0.16463E-03 10080   0.130E-03 0.181E-04
CGA:  22    -0.378907628669E+03   -0.84999E-04    0.44036E-04 10080   0.198E-03-0.653E-04
CGA:  23    -0.378907638012E+03   -0.93431E-05   -0.14326E-04 10080   0.351E-04 0.340E-04
CGA:  24    -0.378907656521E+03   -0.18509E-04    0.11047E-03 10080   0.428E-04 0.659E-05
CGA:  25    -0.378907715730E+03   -0.59209E-04    0.32381E-05 10080   0.731E-04-0.149E-04
CGA:  26    -0.378907845846E+03   -0.13012E-03    0.96609E-06 10080   0.107E-03-0.101E-04
CGA:  27    -0.378908044151E+03   -0.19830E-03    0.25116E-05 10080   0.218E-03-0.912E-04
CGA:  28    -0.378908072610E+03   -0.28459E-04   -0.26062E-04 10080   0.116E-03-0.239E-04
CGA:  29    -0.378908096467E+03   -0.23857E-04   -0.23686E-04 10080   0.263E-04 0.985E-05
CGA:  30    -0.378908136256E+03   -0.39790E-04    0.13242E-05 10080   0.311E-04-0.329E-05
CGA:  31    -0.378908192799E+03   -0.56543E-04    0.73829E-06 10080   0.227E-04-0.311E-05
CGA:  32    -0.378908221733E+03   -0.28934E-04    0.93003E-06 10080   0.154E-04 0.676E-05
CGA:  33    -0.378908245648E+03   -0.23916E-04    0.11682E-05 10080   0.260E-04-0.451E-05
CGA:  34    -0.378908311633E+03   -0.65985E-04    0.26262E-06 10080   0.414E-04 0.462E-05
CGA:  35    -0.378908459319E+03   -0.14769E-03    0.84043E-06 10080   0.646E-04-0.139E-04
CGA:  36    -0.378908699320E+03   -0.24000E-03    0.37150E-06 10080   0.691E-04-0.419E-04
CGA:  37    -0.378908695509E+03    0.38113E-05   -0.35581E-05 10080   0.340E-04 0.459E-04
  11 F= -.37890870E+03 E0= -.37890540E+03  d E =-.190702E-01  mag=     8.0000
       N       E                     dE             d eps       ncg     rms          ort
SDA:   1    -0.365039328875E+03    0.13869E+02    0.00000E+00 10080   0.338E+02 0.000E+00
CGA:   2    -0.375637470207E+03   -0.10598E+02   -0.10557E+02 10080   0.148E+02 0.291E+00
CGA:   3    -0.377701183799E+03   -0.20637E+01   -0.20138E+01 10080   0.631E+01 0.258E+00
CGA:   4    -0.378477736137E+03   -0.77655E+00   -0.77905E+00 10080   0.121E+01 0.791E-01
CGA:   5    -0.378700843159E+03   -0.22311E+00   -0.22299E+00 10080   0.332E+00-0.713E-02
CGA:   6    -0.378753880949E+03   -0.53038E-01   -0.53086E-01 10080   0.149E+00-0.698E-03
CGA:   7    -0.378775632884E+03   -0.21752E-01   -0.21790E-01 10080   0.474E-01 0.109E-02
CGA:   8    -0.378786256030E+03   -0.10623E-01   -0.10654E-01 10080   0.254E-01-0.962E-03
CGA:   9    -0.378790412245E+03   -0.41562E-02   -0.41356E-02 10080   0.152E-01-0.805E-03
CGA:  10    -0.378793748484E+03   -0.33362E-02   -0.34068E-02 10080   0.750E-02-0.174E-02
CGA:  11    -0.378795080319E+03   -0.13318E-02   -0.13380E-02 10080   0.501E-02-0.715E-03
CGA:  12    -0.378796013451E+03   -0.93313E-03   -0.95236E-03 10080   0.260E-02-0.114E-02
CGA:  13    -0.378796347613E+03   -0.33416E-03   -0.79177E-03 10080   0.726E-02-0.226E-02
CGA:  14    -0.378796956382E+03   -0.60877E-03   -0.61395E-03 10080   0.112E-02 0.244E-04
CGA:  15    -0.378797265744E+03   -0.30936E-03   -0.29889E-03 10080   0.475E-03 0.155E-03
CGA:  16    -0.378797503060E+03   -0.23732E-03    0.61373E-03 10080   0.340E-03 0.152E-03
CGA:  17    -0.378797726107E+03   -0.22305E-03    0.19489E-03 10080   0.191E-03 0.198E-03
CGA:  18    -0.378797776286E+03   -0.50178E-04   -0.48041E-04 10080   0.176E-03 0.434E-04
CGA:  19    -0.378797900425E+03   -0.12414E-03    0.53442E-04 10080   0.151E-03 0.102E-03
CGA:  20    -0.378797995974E+03   -0.95549E-04    0.27999E-04 10080   0.173E-03-0.346E-05
CGA:  21    -0.378798135579E+03   -0.13960E-03    0.16832E-04 10080   0.146E-03 0.757E-04
CGA:  22    -0.378798242314E+03   -0.10674E-03    0.86810E-04 10080   0.121E-03 0.126E-03
CGA:  23    -0.378798264193E+03   -0.21879E-04   -0.20533E-04 10080   0.148E-03-0.379E-04
CGA:  24    -0.378798340092E+03   -0.75898E-04    0.12131E-04 10080   0.135E-03 0.713E-04
CGA:  25    -0.378798444184E+03   -0.10409E-03    0.70292E-04 10080   0.304E-03-0.555E-04
CGA:  26    -0.378798661081E+03   -0.21690E-03    0.90517E-05 10080   0.929E-03-0.617E-05
CGA:  27    -0.378799261004E+03   -0.59992E-03    0.14592E-03 10080   0.464E-03-0.487E-03
CGA:  28    -0.378799278110E+03   -0.17106E-04   -0.37575E-04 10080   0.102E-03 0.170E-03
CGA:  29    -0.378799271715E+03    0.63954E-05   -0.68618E-05 10080   0.522E-04 0.904E-04
  12 F= -.37879927E+03 E0= -.37879759E+03  d E =0.109424E+00  mag=     8.0000
       N       E                     dE             d eps       ncg     rms          ort
SDA:   1    -0.371679834349E+03    0.71194E+01    0.00000E+00 10080   0.183E+02 0.000E+00
CGA:   2    -0.377230267390E+03   -0.55504E+01   -0.55533E+01 10080   0.626E+01-0.233E-01
CGA:   3    -0.378493680337E+03   -0.12634E+01   -0.12636E+01 10080   0.191E+01 0.115E-02
CGA:   4    -0.378755235523E+03   -0.26156E+00   -0.26246E+00 10080   0.570E+00 0.318E-02
CGA:   5    -0.378840100585E+03   -0.84865E-01   -0.84472E-01 10080   0.153E+00-0.194E-02
CGA:   6    -0.378869383742E+03   -0.29283E-01   -0.29282E-01 10080   0.481E-01 0.110E-03
CGA:   7    -0.378879447597E+03   -0.10064E-01   -0.10019E-01 10080   0.252E-01 0.213E-02
CGA:   8    -0.378884397455E+03   -0.49499E-02   -0.49506E-02 10080   0.153E-01-0.293E-03
CGA:   9    -0.378887455582E+03   -0.30581E-02   -0.30397E-02 10080   0.650E-02 0.127E-02
CGA:  10    -0.378889171773E+03   -0.17162E-02   -0.16723E-02 10080   0.329E-02 0.863E-03
CGA:  11    -0.378889831031E+03   -0.65926E-03   -0.66637E-03 10080   0.169E-02 0.719E-03
CGA:  12    -0.378890317845E+03   -0.48681E-03   -0.47471E-03 10080   0.937E-03 0.286E-03
CGA:  13    -0.378890472280E+03   -0.15444E-03   -0.17180E-03 10080   0.522E-03 0.510E-03
CGA:  14    -0.378890585462E+03   -0.11318E-03   -0.10933E-03 10080   0.437E-03 0.187E-03
CGA:  15    -0.378890650923E+03   -0.65461E-04   -0.82377E-04 10080   0.229E-03 0.329E-03
CGA:  16    -0.378890737951E+03   -0.87028E-04   -0.70429E-04 10080   0.234E-03 0.137E-03
CGA:  17    -0.378890747779E+03   -0.98276E-05   -0.23160E-04 10080   0.164E-03 0.141E-03
CGA:  18    -0.378890778495E+03   -0.30716E-04   -0.30865E-04 10080   0.165E-03 0.134E-03
CGA:  19    -0.378890791681E+03   -0.13186E-04   -0.20803E-04 10080   0.150E-03 0.121E-03
CGA:  20    -0.378890825312E+03   -0.33632E-04   -0.31278E-04 10080   0.180E-03 0.102E-03
CGA:  21    -0.378890832032E+03   -0.67199E-05   -0.16648E-04 10080   0.127E-03 0.105E-03
CGA:  22    -0.378890858795E+03   -0.26763E-04   -0.25070E-04 10080   0.131E-03 0.106E-03
CGA:  23    -0.378890865278E+03   -0.64825E-05   -0.14065E-04 10080   0.114E-03 0.100E-03
CGA:  24    -0.378890887832E+03   -0.22555E-04   -0.21541E-04 10080   0.117E-03 0.952E-04
CGA:  25    -0.378890892979E+03   -0.51466E-05   -0.12120E-04 10080   0.101E-03 0.916E-04
CGA:  26    -0.378890911387E+03   -0.18408E-04   -0.18130E-04 10080   0.101E-03 0.888E-04
CGA:  27    -0.378890916309E+03   -0.49226E-05   -0.10815E-04 10080   0.914E-04 0.854E-04
CGA:  28    -0.378890931467E+03   -0.15158E-04   -0.15442E-04 10080   0.894E-04 0.826E-04
CGA:  29    -0.378890936217E+03   -0.47500E-05   -0.97708E-05 10080   0.830E-04 0.796E-04
CGA:  30    -0.378890948699E+03   -0.12481E-04   -0.13228E-04 10080   0.803E-04 0.770E-04
CGA:  31    -0.378890953391E+03   -0.46924E-05   -0.89484E-05 10080   0.759E-04 0.743E-04
CGA:  32    -0.378890963664E+03   -0.10273E-04   -0.11398E-04 10080   0.731E-04 0.719E-04
CGA:  33    -0.378890968326E+03   -0.46615E-05   -0.82706E-05 10080   0.699E-04 0.695E-04
  13 F= -.37889097E+03 E0= -.37888886E+03  d E =-.916966E-01  mag=     8.0000
       N       E                     dE             d eps       ncg     rms          ort
SDA:   1    -0.374123261844E+03    0.47677E+01    0.00000E+00 10080   0.117E+02 0.000E+00
CGA:   2    -0.377865285551E+03   -0.37420E+01   -0.37423E+01 10080   0.456E+01 0.679E-03
CGA:   3    -0.378576395276E+03   -0.71111E+00   -0.71176E+00 10080   0.181E+01 0.273E-01
CGA:   4    -0.378822649916E+03   -0.24625E+00   -0.24436E+00 10080   0.398E+00-0.406E-02
CGA:   5    -0.378893544483E+03   -0.70895E-01   -0.70929E-01 10080   0.107E+00-0.372E-02
CGA:   6    -0.378910679473E+03   -0.17135E-01   -0.17139E-01 10080   0.499E-01 0.164E-02
CGA:   7    -0.378918756951E+03   -0.80775E-02   -0.80681E-02 10080   0.198E-01-0.127E-02
CGA:   8    -0.378922841373E+03   -0.40844E-02   -0.40969E-02 10080   0.963E-02-0.222E-03
CGA:   9    -0.378924896918E+03   -0.20555E-02   -0.21788E-02 10080   0.888E-02-0.204E-02
CGA:  10    -0.378926035829E+03   -0.11389E-02   -0.11328E-02 10080   0.260E-02-0.576E-03
CGA:  11    -0.378926769859E+03   -0.73403E-03   -0.85856E-03 10080   0.151E-02-0.685E-03
CGA:  12    -0.378926999998E+03   -0.23014E-03   -0.35870E-03 10080   0.278E-02-0.903E-03
CGA:  13    -0.378927267994E+03   -0.26800E-03   -0.26613E-03 10080   0.505E-03-0.515E-05
CGA:  14    -0.378927397545E+03   -0.12955E-03   -0.12254E-03 10080   0.250E-03 0.117E-03
CGA:  15    -0.378926279140E+03    0.11184E-02   -0.60426E-03 10080   0.173E-01-0.148E-02
CGA:  16    -0.378927500215E+03   -0.12211E-02   -0.13074E-02 10080   0.816E-03 0.113E-02
CGA:  17    -0.378927634705E+03   -0.13449E-03   -0.14555E-03 10080   0.565E-03 0.723E-04
CGA:  18    -0.378927758558E+03   -0.12385E-03   -0.11771E-03 10080   0.103E-03-0.476E-04
CGA:  19    -0.378927821807E+03   -0.63249E-04    0.20552E-03 10080   0.207E-03-0.352E-04
CGA:  20    -0.378927925406E+03   -0.10360E-03    0.97436E-04 10080   0.425E-03-0.196E-03
CGA:  21    -0.378927923835E+03    0.15711E-05   -0.32226E-04 10080   0.101E-03 0.145E-03
  14 F= -.37892792E+03 E0= -.37892580E+03  d E =-.369555E-01  mag=     8.0000
       N       E                     dE             d eps       ncg     rms          ort
SDA:   1    -0.378473050366E+03    0.45488E+00    0.00000E+00 10080   0.126E+01 0.000E+00
CGA:   2    -0.378847689815E+03   -0.37464E+00   -0.37469E+00 10080   0.642E+00-0.336E-02
CGA:   3    -0.378930735156E+03   -0.83045E-01   -0.84934E-01 10080   0.251E+00-0.847E-02
CGA:   4    -0.378968328092E+03   -0.37593E-01   -0.37601E-01 10080   0.452E-01 0.166E-02
CGA:   5    -0.378977043049E+03   -0.87150E-02   -0.86911E-02 10080   0.143E-01-0.352E-03
CGA:   6    -0.378979315345E+03   -0.22723E-02   -0.22710E-02 10080   0.587E-02 0.448E-04
CGA:   7    -0.378980583480E+03   -0.12681E-02   -0.12317E-02 10080   0.302E-02-0.649E-03
CGA:   8    -0.378981174275E+03   -0.59079E-03   -0.57503E-03 10080   0.182E-02-0.319E-03
CGA:   9    -0.378981523461E+03   -0.34919E-03   -0.33079E-03 10080   0.106E-02-0.319E-03
CGA:  10    -0.378981745247E+03   -0.22179E-03   -0.22016E-03 10080   0.679E-03-0.291E-03
CGA:  11    -0.378981874571E+03   -0.12932E-03   -0.14440E-03 10080   0.981E-03-0.413E-03
CGA:  12    -0.378981956909E+03   -0.82337E-04   -0.86766E-04 10080   0.181E-03 0.313E-04
CGA:  13    -0.378981878764E+03    0.78145E-04   -0.17203E-03 10080   0.124E-02-0.373E-03
CGA:  14    -0.378982057268E+03   -0.17850E-03   -0.18981E-03 10080   0.426E-03 0.898E-04
CGA:  15    -0.378982139536E+03   -0.82269E-04   -0.72103E-04 10080   0.972E-04-0.845E-04
CGA:  16    -0.378982152964E+03   -0.13427E-04   -0.12786E-04 10080   0.402E-04-0.561E-05
CGA:  17    -0.378982181494E+03   -0.28531E-04    0.12081E-04 10080   0.290E-04-0.957E-05
CGA:  18    -0.378982214334E+03   -0.32839E-04    0.16427E-05 10080   0.333E-04-0.573E-05
CGA:  19    -0.378982267939E+03   -0.53605E-04    0.12816E-05 10080   0.135E-04 0.995E-05
CGA:  20    -0.378982293932E+03   -0.25993E-04    0.13046E-05 10080   0.880E-05 0.658E-05
CGA:  21    -0.378982324715E+03   -0.30784E-04    0.50821E-06 10080   0.107E-04 0.614E-06
CGA:  22    -0.378982361482E+03   -0.36767E-04    0.30225E-06 10080   0.691E-05 0.278E-05
CGA:  23    -0.378982390820E+03   -0.29338E-04    0.21674E-06 10080   0.696E-05 0.338E-05
CGA:  24    -0.378982427810E+03   -0.36990E-04    0.24097E-06 10080   0.589E-05-0.301E-06
CGA:  25    -0.378982456930E+03   -0.29120E-04    0.85831E-07 10080   0.392E-05 0.245E-06
CGA:  26    -0.378982479908E+03   -0.22978E-04    0.56746E-07 10080   0.256E-05 0.836E-06
CGA:  27    -0.378982492744E+03   -0.12835E-04    0.61049E-07 10080   0.333E-05-0.118E-05
CGA:  28    -0.378982508033E+03   -0.15290E-04    0.15872E-07 10080   0.267E-05-0.282E-05
CGA:  29    -0.378982508260E+03   -0.22697E-06   -0.39268E-06 10080   0.110E-05 0.140E-05
  15 F= -.37898251E+03 E0= -.37898075E+03  d E =-.545844E-01  mag=     8.0000
       N       E                     dE             d eps       ncg     rms          ort
SDA:   1    -0.378791825964E+03    0.19068E+00    0.00000E+00 10080   0.461E+00 0.000E+00
CGA:   2    -0.378949268197E+03   -0.15744E+00   -0.15765E+00 10080   0.149E+00-0.242E-02
CGA:   3    -0.378978334586E+03   -0.29066E-01   -0.29106E-01 10080   0.341E-01 0.608E-03
CGA:   4    -0.378983668826E+03   -0.53342E-02   -0.53758E-02 10080   0.917E-02 0.481E-03
CGA:   5    -0.378985198601E+03   -0.15298E-02   -0.14999E-02 10080   0.335E-02-0.336E-03
CGA:   6    -0.378985683298E+03   -0.48470E-03   -0.48898E-03 10080   0.913E-03 0.570E-04
CGA:   7    -0.378985884212E+03   -0.20091E-03   -0.20093E-03 10080   0.352E-03 0.184E-05
CGA:   8    -0.378985953832E+03   -0.69620E-04   -0.70756E-04 10080   0.186E-03 0.301E-04
CGA:   9    -0.378985983537E+03   -0.29705E-04   -0.33414E-04 10080   0.687E-04 0.515E-04
CGA:  10    -0.378985998730E+03   -0.15193E-04   -0.16763E-04 10080   0.298E-04 0.367E-04
CGA:  11    -0.378986009166E+03   -0.10436E-04   -0.11846E-04 10080   0.664E-04-0.843E-05
CGA:  12    -0.378986010347E+03   -0.11813E-05   -0.42908E-05 10080   0.364E-04 0.207E-04
  16 F= -.37898601E+03 E0= -.37898430E+03  d E =-.350209E-02  mag=     8.0000
       N       E                     dE             d eps       ncg     rms          ort
SDA:   1    -0.346971152783E+03    0.32015E+02    0.00000E+00 10080   0.813E+02 0.000E+00
CGA:   2    -0.369960914900E+03   -0.22990E+02   -0.22895E+02 10080   0.398E+02 0.108E+01
CGA:   3    -0.374713759722E+03   -0.47528E+01   -0.36750E+01 10080   0.126E+02 0.103E+02
CGA:   4    -0.377332486363E+03   -0.26187E+01   -0.26186E+01 10080   0.436E+01 0.226E-01
CGA:   5    -0.377960301598E+03   -0.62782E+00   -0.63007E+00 10080   0.219E+01-0.115E-02
CGA:   6    -0.378195000649E+03   -0.23470E+00   -0.22129E+00 10080   0.697E+00 0.905E-01
CGA:   7    -0.378291390033E+03   -0.96389E-01   -0.96499E-01 10080   0.316E+00-0.339E-02
CGA:   8    -0.378340301965E+03   -0.48912E-01   -0.48908E-01 10080   0.125E+00 0.744E-04
CGA:   9    -0.378361177423E+03   -0.20875E-01   -0.20892E-01 10080   0.119E+00 0.193E-02
CGA:  10    -0.378377413113E+03   -0.16236E-01   -0.15959E-01 10080   0.489E-01-0.445E-02
CGA:  11    -0.378385778903E+03   -0.83658E-02   -0.83253E-02 10080   0.381E-01-0.191E-02
CGA:  12    -0.378390843137E+03   -0.50642E-02   -0.49886E-02 10080   0.121E-01-0.114E-02
CGA:  13    -0.378394010393E+03   -0.31673E-02   -0.32320E-02 10080   0.645E-02-0.775E-03
CGA:  14    -0.378394927296E+03   -0.91690E-03   -0.91572E-03 10080   0.576E-02 0.695E-05
CGA:  15    -0.378396047042E+03   -0.11197E-02   -0.11183E-02 10080   0.493E-02-0.188E-02
CGA:  16    -0.378396427028E+03   -0.37999E-03   -0.40079E-03 10080   0.250E-02 0.292E-03
CGA:  17    -0.378396819101E+03   -0.39207E-03   -0.42092E-03 10080   0.193E-02 0.889E-03
CGA:  18    -0.378397186597E+03   -0.36750E-03   -0.37128E-03 10080   0.177E-02 0.800E-04
CGA:  19    -0.378397449538E+03   -0.26294E-03   -0.27645E-03 10080   0.965E-03 0.361E-03
CGA:  20    -0.378397640037E+03   -0.19050E-03   -0.19301E-03 10080   0.888E-03 0.135E-03
CGA:  21    -0.378397794695E+03   -0.15466E-03   -0.15182E-03 10080   0.890E-03-0.818E-04
CGA:  22    -0.378397822544E+03   -0.27849E-04   -0.66059E-04 10080   0.525E-03 0.376E-03
CGA:  23    -0.378397818548E+03    0.39963E-05   -0.41876E-04 10080   0.298E-03 0.377E-03
CGA:  24    -0.378397852715E+03   -0.34167E-04   -0.39769E-04 10080   0.166E-03 0.149E-03
CGA:  25    -0.378397860955E+03   -0.82403E-05   -0.21969E-04 10080   0.988E-04 0.169E-03
CGA:  26    -0.378397918289E+03   -0.57333E-04   -0.47628E-04 10080   0.175E-03 0.303E-04
CGA:  27    -0.378397924100E+03   -0.58110E-05   -0.19870E-04 10080   0.656E-04 0.150E-03
  17 F= -.37839792E+03 E0= -.37839374E+03  d E =0.588086E+00  mag=     8.0000
       N       E                     dE             d eps       ncg     rms          ort
SDA:   1    -0.361132465358E+03    0.17265E+02    0.00000E+00 10080   0.527E+02 0.000E+00
CGA:   2    -0.371100776255E+03   -0.99683E+01   -0.99642E+01 10080   0.513E+02-0.130E+00
CGA:   3    -0.375739349693E+03   -0.46386E+01   -0.46023E+01 10080   0.988E+01 0.512E+01
CGA:   4    -0.377809609694E+03   -0.20703E+01   -0.20748E+01 10080   0.478E+01-0.116E+00
CGA:   5    -0.378222968273E+03   -0.41336E+00   -0.42046E+00 10080   0.194E+01-0.125E-01
CGA:   6    -0.378515143425E+03   -0.29218E+00   -0.29193E+00 10080   0.522E+00-0.936E-02
CGA:   7    -0.378568955073E+03   -0.53812E-01   -0.54051E-01 10080   0.298E+00 0.213E-02
CGA:   8    -0.378617828768E+03   -0.48874E-01   -0.48863E-01 10080   0.103E+00 0.385E-02
CGA:   9    -0.378634597863E+03   -0.16769E-01   -0.16769E-01 10080   0.973E-01-0.598E-03
CGA:  10    -0.378647589476E+03   -0.12992E-01   -0.12909E-01 10080   0.308E-01-0.386E-02
CGA:  11    -0.378653145159E+03   -0.55557E-02   -0.55768E-02 10080   0.292E-01-0.731E-03
CGA:  12    -0.378656409084E+03   -0.32639E-02   -0.32446E-02 10080   0.715E-02-0.224E-03
CGA:  13    -0.378658218448E+03   -0.18094E-02   -0.19221E-02 10080   0.928E-02-0.991E-03
CGA:  14    -0.378658975198E+03   -0.75675E-03   -0.73943E-03 10080   0.219E-02-0.242E-03
CGA:  15    -0.378659503053E+03   -0.52785E-03   -0.71996E-03 10080   0.577E-02-0.109E-02
CGA:  16    -0.378659720974E+03   -0.21792E-03   -0.16512E-03 10080   0.288E-02-0.478E-03
CGA:  17    -0.378659868965E+03   -0.14799E-03   -0.14195E-03 10080   0.178E-02-0.613E-04
CGA:  18    -0.378659996960E+03   -0.12799E-03   -0.15310E-03 10080   0.217E-02 0.355E-03
CGA:  19    -0.378660121850E+03   -0.12489E-03   -0.17106E-03 10080   0.809E-03 0.515E-03
CGA:  20    -0.378660181867E+03   -0.60017E-04   -0.69575E-04 10080   0.635E-03 0.120E-03
CGA:  21    -0.378660324682E+03   -0.14281E-03   -0.17167E-03 10080   0.180E-02-0.323E-03
CGA:  22    -0.378660443239E+03   -0.11856E-03   -0.12001E-03 10080   0.224E-03 0.182E-04
CGA:  23    -0.378660457589E+03   -0.14350E-04   -0.21831E-04 10080   0.112E-03 0.149E-03
CGA:  24    -0.378660465106E+03   -0.75162E-05   -0.10778E-04 10080   0.770E-04 0.687E-04
CGA:  25    -0.378660477110E+03   -0.12004E-04   -0.11605E-04 10080   0.685E-04 0.436E-04
CGA:  26    -0.378660479402E+03   -0.22926E-05   -0.49974E-05 10080   0.447E-04 0.392E-04
  18 F= -.37866048E+03 E0= -.37865603E+03  d E =-.262555E+00  mag=     8.0000
       N       E                     dE             d eps       ncg     rms          ort
SDA:   1    -0.376484422640E+03    0.21761E+01    0.00000E+00 10080   0.629E+01 0.000E+00
CGA:   2    -0.377990456240E+03   -0.15060E+01   -0.15017E+01 10080   0.668E+01 0.373E-01
CGA:   3    -0.378607224684E+03   -0.61677E+00   -0.60420E+00 10080   0.115E+01 0.116E+00
CGA:   4    -0.378853797528E+03   -0.24657E+00   -0.24684E+00 10080   0.326E+00-0.395E-02
CGA:   5    -0.378900383552E+03   -0.46586E-01   -0.46585E-01 10080   0.143E+00-0.603E-03
CGA:   6    -0.378919412884E+03   -0.19029E-01   -0.19004E-01 10080   0.392E-01-0.229E-02
CGA:   7    -0.378926516635E+03   -0.71038E-02   -0.71162E-02 10080   0.268E-01-0.273E-03
CGA:   8    -0.378929757709E+03   -0.32411E-02   -0.32218E-02 10080   0.110E-01-0.802E-03
CGA:   9    -0.378932225513E+03   -0.24678E-02   -0.25455E-02 10080   0.568E-02-0.825E-03
CGA:  10    -0.378933136211E+03   -0.91070E-03   -0.94173E-03 10080   0.548E-02-0.102E-02
CGA:  11    -0.378933879120E+03   -0.74291E-03   -0.76738E-03 10080   0.206E-02-0.122E-02
CGA:  12    -0.378933768311E+03    0.11081E-03   -0.74557E-03 10080   0.126E-01-0.271E-02
CGA:  13    -0.378934601630E+03   -0.83332E-03   -0.84830E-03 10080   0.957E-03 0.237E-03
CGA:  14    -0.378934843283E+03   -0.24165E-03   -0.32771E-03 10080   0.235E-02-0.491E-03
CGA:  15    -0.378935037719E+03   -0.19444E-03   -0.18253E-03 10080   0.294E-03-0.124E-03
CGA:  16    -0.378935155038E+03   -0.11732E-03    0.87098E-04 10080   0.203E-03 0.839E-04
CGA:  17    -0.378935281365E+03   -0.12633E-03    0.47747E-04 10080   0.143E-03 0.892E-04
CGA:  18    -0.378935433101E+03   -0.15174E-03    0.13976E-04 10080   0.785E-04 0.145E-03
CGA:  19    -0.378935492758E+03   -0.59657E-04    0.50823E-05 10080   0.704E-04 0.463E-04
CGA:  20    -0.378935538310E+03   -0.45552E-04    0.61896E-05 10080   0.110E-03 0.119E-04
CGA:  21    -0.378935672730E+03   -0.13442E-03    0.50225E-05 10080   0.604E-04 0.106E-03
CGA:  22    -0.378935723072E+03   -0.50342E-04    0.33385E-05 10080   0.107E-03-0.385E-05
CGA:  23    -0.378935851745E+03   -0.12867E-03    0.29156E-05 10080   0.966E-04 0.873E-04
CGA:  24    -0.378935840142E+03    0.11603E-04   -0.31887E-04 10080   0.134E-02-0.264E-03
CGA:  25    -0.378935952123E+03   -0.11198E-03   -0.93123E-04 10080   0.629E-04-0.181E-03
CGA:  26    -0.378935990662E+03   -0.38539E-04    0.42147E-05 10080   0.690E-04-0.223E-05
CGA:  27    -0.378936080436E+03   -0.89774E-04    0.18870E-05 10080   0.263E-04 0.547E-04
CGA:  28    -0.378936119242E+03   -0.38806E-04    0.66099E-06 10080   0.328E-04 0.164E-04
CGA:  29    -0.378936151516E+03   -0.32274E-04    0.14524E-05 10080   0.566E-04 0.182E-05
CGA:  30    -0.378936251515E+03   -0.99999E-04    0.12825E-05 10080   0.453E-04 0.559E-04
CGA:  31    -0.378936286433E+03   -0.34919E-04    0.29949E-05 10080   0.103E-03-0.292E-04
CGA:  32    -0.378936303312E+03   -0.16879E-04   -0.13926E-04 10080   0.146E-03-0.869E-04
CGA:  33    -0.378936326621E+03   -0.23309E-04   -0.26502E-04 10080   0.523E-03-0.238E-03
CGA:  34    -0.378936361052E+03   -0.34431E-04   -0.33275E-04 10080   0.179E-04-0.847E-05
CGA:  35    -0.378936392875E+03   -0.31824E-04    0.31457E-06 10080   0.166E-04 0.160E-04
CGA:  36    -0.378936422314E+03   -0.29439E-04    0.30427E-06 10080   0.173E-04 0.139E-04
CGA:  37    -0.378936451286E+03   -0.28971E-04    0.34252E-06 10080   0.200E-04 0.112E-04
CGA:  38    -0.378936478800E+03   -0.27514E-04    0.50751E-06 10080   0.274E-04 0.557E-05
CGA:  39    -0.378936545850E+03   -0.67050E-04    0.58801E-06 10080   0.191E-04 0.329E-04
CGA:  40    -0.378936571856E+03   -0.26006E-04    0.48781E-06 10080   0.273E-04 0.263E-05
CGA:  41    -0.378936635366E+03   -0.63510E-04    0.48185E-06 10080   0.213E-04 0.295E-04
CGA:  42    -0.378936658862E+03   -0.23496E-04    0.73048E-06 10080   0.346E-04-0.474E-05
CGA:  43    -0.378936722018E+03   -0.63156E-04    0.35350E-06 10080   0.414E-04 0.252E-04
CGA:  44    -0.378936742144E+03   -0.20126E-04    0.68540E-05 10080   0.820E-04-0.385E-04
CGA:  45    -0.378936753839E+03   -0.11695E-04   -0.15884E-04 10080   0.296E-03-0.135E-03
CGA:  46    -0.378936782881E+03   -0.29043E-04   -0.23843E-04 10080   0.257E-04-0.607E-04
CGA:  47    -0.378936806068E+03   -0.23187E-04    0.64457E-06 10080   0.146E-04 0.274E-05
CGA:  48    -0.378936840467E+03   -0.34399E-04    0.23001E-06 10080   0.825E-05 0.131E-04
CGA:  49    -0.378936859936E+03   -0.19469E-04    0.10393E-06 10080   0.852E-05 0.721E-05
CGA:  50    -0.378936880239E+03   -0.20303E-04    0.10614E-06 10080   0.971E-05 0.605E-05
CGA:  51    -0.378936897863E+03   -0.17625E-04    0.16691E-06 10080   0.133E-04 0.340E-05
CGA:  52    -0.378936943583E+03   -0.45720E-04    0.20863E-06 10080   0.866E-05 0.168E-04
CGA:  53    -0.378936962498E+03   -0.18915E-04    0.11956E-06 10080   0.118E-04 0.291E-05
CGA:  54    -0.378937004301E+03   -0.41803E-04    0.17526E-06 10080   0.787E-05 0.148E-04
CGA:  55    -0.378937019821E+03   -0.15520E-04    0.12257E-06 10080   0.108E-04 0.230E-05
CGA:  56    -0.378937059577E+03   -0.39755E-04    0.14138E-06 10080   0.749E-05 0.131E-04
CGA:  57    -0.378937075835E+03   -0.16258E-04    0.10420E-06 10080   0.105E-04 0.130E-05
CGA:  58    -0.378937112769E+03   -0.36934E-04    0.11895E-06 10080   0.812E-05 0.116E-04
CGA:  59    -0.378937126422E+03   -0.13653E-04    0.15340E-06 10080   0.123E-04-0.954E-06
CGA:  60    -0.378937162930E+03   -0.36508E-04    0.91016E-07 10080   0.128E-04 0.101E-04
CGA:  61    -0.378937176425E+03   -0.13494E-04    0.44496E-06 10080   0.220E-04-0.872E-05
CGA:  62    -0.378937187022E+03   -0.10597E-04    0.35062E-05 10080   0.425E-04-0.227E-04
CGA:  63    -0.378936720523E+03    0.46650E-03   -0.25831E-03 10080   0.876E-02-0.576E-03
CGA:  64    -0.378937275889E+03   -0.55537E-03   -0.55732E-03 10080   0.245E-04 0.148E-03
CGA:  65    -0.378937290240E+03   -0.14351E-04    0.13340E-03 10080   0.219E-03-0.666E-04
CGA:  66    -0.378937303999E+03   -0.13758E-04   -0.14703E-04 10080   0.390E-05 0.563E-05
CGA:  67    -0.378937320863E+03   -0.16864E-04    0.79587E-07 10080   0.142E-04-0.154E-05
CGA:  68    -0.378937402265E+03   -0.81402E-04    0.70453E-07 10080   0.516E-04 0.312E-05
CGA:  69    -0.378937721106E+03   -0.31884E-03    0.10150E-05 10080   0.453E-04-0.828E-05
CGA:  70    -0.378937987331E+03   -0.26622E-03    0.43079E-06 10080   0.112E-03-0.479E-04
CGA:  71    -0.378937990648E+03   -0.33167E-05   -0.61841E-05 10080   0.197E-05 0.138E-04
  19 F= -.37893799E+03 E0= -.37893467E+03  d E =-.277511E+00  mag=     8.0000
       N       E                     dE             d eps       ncg     rms          ort
SDA:   1    -0.378849688072E+03    0.88299E-01    0.00000E+00 10080   0.276E+00 0.000E+00
CGA:   2    -0.378932292348E+03   -0.82604E-01   -0.82420E-01 10080   0.114E+00 0.365E-02
CGA:   3    -0.378948846891E+03   -0.16555E-01   -0.16494E-01 10080   0.551E-01-0.171E-03
CGA:   4    -0.378957134437E+03   -0.82875E-02   -0.81973E-02 10080   0.101E-01-0.890E-03
CGA:   5    -0.378958722660E+03   -0.15882E-02   -0.15959E-02 10080   0.414E-02 0.129E-03
CGA:   6    -0.378959328769E+03   -0.60611E-03   -0.59463E-03 10080   0.144E-02-0.118E-03
CGA:   7    -0.378959559525E+03   -0.23076E-03   -0.23900E-03 10080   0.605E-03 0.140E-03
CGA:   8    -0.378959668942E+03   -0.10942E-03   -0.11142E-03 10080   0.399E-03 0.347E-04
CGA:   9    -0.378959739385E+03   -0.70443E-04   -0.72240E-04 10080   0.150E-03 0.346E-04
CGA:  10    -0.378959793961E+03   -0.54576E-04   -0.60584E-04 10080   0.164E-03-0.400E-04
CGA:  11    -0.378959818776E+03   -0.24815E-04   -0.21592E-04 10080   0.131E-03-0.629E-04
CGA:  12    -0.378959831241E+03   -0.12465E-04   -0.32065E-04 10080   0.197E-03-0.114E-03
CGA:  13    -0.378959851705E+03   -0.20464E-04   -0.21149E-04 10080   0.850E-04 0.624E-05
CGA:  14    -0.378959876297E+03   -0.24592E-04   -0.35426E-04 10080   0.138E-03-0.620E-04
CGA:  15    -0.378959893736E+03   -0.17438E-04   -0.16568E-04 10080   0.640E-04-0.682E-05
CGA:  16    -0.378959903709E+03   -0.99729E-05   -0.21715E-04 10080   0.197E-03-0.941E-04
CGA:  17    -0.378959915153E+03   -0.11444E-04   -0.15101E-04 10080   0.363E-04 0.234E-04
CGA:  18    -0.378959924518E+03   -0.93646E-05   -0.93629E-05 10080   0.850E-05-0.611E-05
  20 F= -.37895992E+03 E0= -.37895676E+03  d E =-.219339E-01  mag=     8.0000
       N       E                     dE             d eps       ncg     rms          ort
SDA:   1    -0.378691921239E+03    0.26799E+00    0.00000E+00 10080   0.799E+00 0.000E+00
CGA:   2    -0.378905712957E+03   -0.21379E+00   -0.21365E+00 10080   0.270E+00 0.371E-02
CGA:   3    -0.378954816154E+03   -0.49103E-01   -0.49050E-01 10080   0.158E+00 0.374E-03
CGA:   4    -0.378972374552E+03   -0.17558E-01   -0.17446E-01 10080   0.315E-01-0.841E-03
CGA:   5    -0.378977847814E+03   -0.54733E-02   -0.54714E-02 10080   0.791E-02-0.146E-04
CGA:   6    -0.378979252002E+03   -0.14042E-02   -0.14018E-02 10080   0.359E-02-0.443E-04
CGA:   7    -0.378979721863E+03   -0.46986E-03   -0.49285E-03 10080   0.145E-02 0.293E-03
CGA:   8    -0.378980058609E+03   -0.33675E-03   -0.33684E-03 10080   0.773E-03 0.127E-03
CGA:   9    -0.378980212083E+03   -0.15347E-03   -0.15558E-03 10080   0.570E-03 0.730E-04
CGA:  10    -0.378980345097E+03   -0.13301E-03   -0.13302E-03 10080   0.258E-03 0.226E-04
CGA:  11    -0.378980403941E+03   -0.58844E-04   -0.58670E-04 10080   0.173E-03 0.334E-04
CGA:  12    -0.378980441035E+03   -0.37094E-04   -0.36255E-04 10080   0.134E-03-0.293E-04
CGA:  13    -0.378980458366E+03   -0.17332E-04   -0.17812E-04 10080   0.475E-04 0.942E-05
CGA:  14    -0.378980462218E+03   -0.38518E-05   -0.39543E-04 10080   0.227E-03-0.631E-04
CGA:  15    -0.378980490168E+03   -0.27949E-04   -0.28805E-04 10080   0.909E-04 0.853E-05
CGA:  16    -0.378980505041E+03   -0.14873E-04   -0.14939E-04 10080   0.163E-04 0.111E-05
CGA:  17    -0.378980513922E+03   -0.88818E-05    0.10803E-04 10080   0.122E-04 0.669E-05
CGA:  18    -0.378980448086E+03    0.65836E-04   -0.35507E-04 10080   0.953E-03-0.731E-04
CGA:  19    -0.378980524600E+03   -0.76514E-04   -0.73401E-04 10080   0.100E-03-0.639E-05
CGA:  20    -0.378980538906E+03   -0.14306E-04   -0.18193E-04 10080   0.332E-04 0.180E-04
CGA:  21    -0.378980549617E+03   -0.10711E-04   -0.84158E-05 10080   0.357E-04-0.130E-04
CGA:  22    -0.378980553573E+03   -0.39560E-05   -0.34920E-05 10080   0.139E-04-0.206E-05
  21 F= -.37898055E+03 E0= -.37897763E+03  d E =-.206291E-01  mag=     8.0000
       N       E                     dE             d eps       ncg     rms          ort
SDA:   1    -0.378590339089E+03    0.39021E+00    0.00000E+00 10080   0.111E+01 0.000E+00
CGA:   2    -0.378892289330E+03   -0.30195E+00   -0.30205E+00 10080   0.344E+00 0.823E-03
CGA:   3    -0.378970343542E+03   -0.78054E-01   -0.78079E-01 10080   0.915E-01 0.189E-03
CGA:   4    -0.378985661258E+03   -0.15318E-01   -0.15262E-01 10080   0.249E-01-0.377E-03
CGA:   5    -0.378989131058E+03   -0.34698E-02   -0.34636E-02 10080   0.975E-02 0.138E-03
CGA:   6    -0.378990499117E+03   -0.13681E-02   -0.13776E-02 10080   0.302E-02 0.579E-04
CGA:   7    -0.378991093832E+03   -0.59472E-03   -0.61663E-03 10080   0.150E-02 0.196E-03
CGA:   8    -0.378991380710E+03   -0.28688E-03   -0.28501E-03 10080   0.116E-02-0.108E-04
CGA:   9    -0.378991585048E+03   -0.20434E-03   -0.21400E-03 10080   0.462E-03 0.840E-04
CGA:  10    -0.378991726326E+03   -0.14128E-03   -0.14191E-03 10080   0.193E-03 0.488E-04
CGA:  11    -0.378991769229E+03   -0.42902E-04   -0.46105E-04 10080   0.121E-03 0.391E-04
CGA:  12    -0.378991795558E+03   -0.26329E-04   -0.25271E-04 10080   0.817E-04-0.837E-05
CGA:  13    -0.378991803119E+03   -0.75607E-05   -0.10548E-04 10080   0.277E-04 0.200E-04
  22 F= -.37899180E+03 E0= -.37898901E+03  d E =-.112495E-01  mag=     8.0000
       N       E                     dE             d eps       ncg     rms          ort
SDA:   1    -0.377853322862E+03    0.11385E+01    0.00000E+00 10080   0.287E+01 0.000E+00
CGA:   2    -0.378735244348E+03   -0.88192E+00   -0.88193E+00 10080   0.102E+01-0.703E-03
CGA:   3    -0.378922442709E+03   -0.18720E+00   -0.18654E+00 10080   0.397E+00 0.264E-02
CGA:   4    -0.378968573730E+03   -0.46131E-01   -0.46219E-01 10080   0.955E-01-0.217E-02
CGA:   5    -0.378983290002E+03   -0.14716E-01   -0.14652E-01 10080   0.271E-01-0.101E-03
CGA:   6    -0.378987306408E+03   -0.40164E-02   -0.40062E-02 10080   0.111E-01-0.724E-04
CGA:   7    -0.378988928891E+03   -0.16225E-02   -0.16513E-02 10080   0.354E-02 0.318E-03
CGA:   8    -0.378989756464E+03   -0.82757E-03   -0.82544E-03 10080   0.206E-02-0.912E-04
CGA:   9    -0.378990095546E+03   -0.33908E-03   -0.34133E-03 10080   0.121E-02 0.384E-04
CGA:  10    -0.378990432976E+03   -0.33743E-03   -0.34459E-03 10080   0.791E-03-0.200E-03
CGA:  11    -0.378990531954E+03   -0.98979E-04   -0.10376E-03 10080   0.412E-03 0.561E-04
CGA:  12    -0.378990632516E+03   -0.10056E-03   -0.99700E-04 10080   0.234E-03-0.570E-04
CGA:  13    -0.378990672674E+03   -0.40158E-04   -0.36939E-04 10080   0.182E-03-0.555E-04
CGA:  14    -0.378990659866E+03    0.12808E-04   -0.77631E-04 10080   0.819E-03-0.279E-03
CGA:  15    -0.378990720871E+03   -0.61005E-04   -0.71568E-04 10080   0.191E-03 0.692E-04
CGA:  16    -0.378990757582E+03   -0.36712E-04   -0.38709E-04 10080   0.477E-04 0.345E-04
CGA:  17    -0.378990772280E+03   -0.14697E-04   -0.16469E-04 10080   0.137E-03-0.349E-04
CGA:  18    -0.378990784717E+03   -0.12437E-04   -0.11375E-04 10080   0.125E-04-0.565E-05
CGA:  19    -0.378990790934E+03   -0.62172E-05    0.14702E-04 10080   0.710E-05 0.381E-05
CGA:  20    -0.378990744763E+03    0.46171E-04   -0.24903E-04 10080   0.767E-03-0.470E-04
CGA:  21    -0.378990819019E+03   -0.74256E-04   -0.58721E-04 10080   0.480E-04-0.434E-04
CGA:  22    -0.378990825727E+03   -0.67084E-05   -0.77885E-05 10080   0.222E-04 0.459E-05
  23 F= -.37899083E+03 E0= -.37898829E+03  d E =0.977392E-03  mag=     8.0000
       N       E                     dE             d eps       ncg     rms          ort
SDA:   1    -0.376934964089E+03    0.20559E+01    0.00000E+00 10080   0.479E+01 0.000E+00
CGA:   2    -0.378607707243E+03   -0.16727E+01   -0.16727E+01 10080   0.153E+01-0.886E-04
CGA:   3    -0.378893651649E+03   -0.28594E+00   -0.28511E+00 10080   0.441E+00 0.708E-02
CGA:   4    -0.378946906109E+03   -0.53254E-01   -0.53438E-01 10080   0.141E+00-0.555E-02
CGA:   5    -0.378967267753E+03   -0.20362E-01   -0.20110E-01 10080   0.349E-01 0.518E-03
CGA:   6    -0.378973674621E+03   -0.64069E-02   -0.64522E-02 10080   0.116E-01 0.270E-03
CGA:   7    -0.378975373304E+03   -0.16987E-02   -0.17499E-02 10080   0.522E-02 0.340E-03
CGA:   8    -0.378976354321E+03   -0.98102E-03   -0.99412E-03 10080   0.206E-02 0.923E-04
CGA:   9    -0.378976871850E+03   -0.51753E-03   -0.51848E-03 10080   0.156E-02 0.167E-04
[...]
       N       E                     dE             d eps       ncg     rms          ort
SDA:   1    -0.378698302602E+03    0.40689E-01    0.00000E+00 10080   0.111E+00 0.000E+00
CGA:   2    -0.378729270908E+03   -0.30968E-01   -0.30928E-01 10080   0.456E-01-0.396E-03
CGA:   3    -0.378737902660E+03   -0.86318E-02   -0.85647E-02 10080   0.149E-01-0.339E-03
CGA:   4    -0.378739946047E+03   -0.20434E-02   -0.20626E-02 10080   0.359E-02 0.126E-03
CGA:   5    -0.378740547392E+03   -0.60134E-03   -0.59163E-03 10080   0.970E-03-0.494E-04
CGA:   6    -0.378740705364E+03   -0.15797E-03   -0.16232E-03 10080   0.321E-03 0.263E-04
CGA:   7    -0.378740809478E+03   -0.10411E-03   -0.96971E-04 10080   0.356E-03-0.148E-03
CGA:   8    -0.378740858169E+03   -0.48691E-04   -0.34331E-04 10080   0.192E-03-0.886E-04
CGA:   9    -0.378740891332E+03   -0.33163E-04   -0.75741E-04 10080   0.577E-03-0.220E-03
CGA:  10    -0.378740974456E+03   -0.83124E-04   -0.80226E-04 10080   0.139E-03-0.135E-04
CGA:  11    -0.378740990009E+03   -0.15552E-04   -0.19365E-04 10080   0.293E-04 0.205E-04
CGA:  12    -0.378741003340E+03   -0.13331E-04   -0.14000E-04 10080   0.493E-04-0.710E-05
CGA:  13    -0.378741009992E+03   -0.66522E-05   -0.49852E-05 10080   0.179E-04-0.859E-05
  94 F= -.37874101E+03 E0= -.37874049E+03  d E =-.201468E-02  mag=     8.0000
       N       E                     dE             d eps       ncg     rms          ort
SDA:   1    -0.378576332998E+03    0.16467E+00    0.00000E+00 10080   0.398E+00 0.000E+00
CGA:   2    -0.378705244928E+03   -0.12891E+00   -0.12891E+00 10080   0.190E+00 0.153E-03
CGA:   3    -0.378730669481E+03   -0.25425E-01   -0.25334E-01 10080   0.573E-01-0.594E-03
CGA:   4    -0.378739809212E+03   -0.91397E-02   -0.91532E-02 10080   0.104E-01 0.302E-03
CGA:   5    -0.378741744164E+03   -0.19350E-02   -0.19097E-02 10080   0.358E-02-0.227E-03
CGA:   6    -0.378742281361E+03   -0.53720E-03   -0.54015E-03 10080   0.981E-03 0.374E-04
CGA:   7    -0.378742553088E+03   -0.27173E-03   -0.26878E-03 10080   0.509E-03-0.174E-03
CGA:   8    -0.378742666657E+03   -0.11357E-03   -0.11091E-03 10080   0.466E-03-0.118E-03
CGA:   9    -0.378742769580E+03   -0.10292E-03   -0.10447E-03 10080   0.654E-03-0.297E-03
CGA:  10    -0.378742827698E+03   -0.58117E-04   -0.64838E-04 10080   0.141E-03 0.391E-04
CGA:  11    -0.378742877107E+03   -0.49409E-04   -0.56022E-04 10080   0.136E-03-0.680E-04
CGA:  12    -0.378742276529E+03    0.60058E-03   -0.32514E-03 10080   0.349E-02-0.473E-03
CGA:  13    -0.378742778925E+03   -0.50240E-03   -0.47197E-03 10080   0.140E-02-0.109E-03
CGA:  14    -0.378743050360E+03   -0.27143E-03   -0.28044E-03 10080   0.315E-03 0.366E-04
CGA:  15    -0.378743139796E+03   -0.89436E-04   -0.82227E-04 10080   0.174E-03-0.312E-04
CGA:  16    -0.378743161432E+03   -0.21636E-04   -0.20489E-04 10080   0.287E-04-0.290E-05
CGA:  17    -0.378743165837E+03   -0.44057E-05   -0.61168E-05 10080   0.123E-04 0.725E-05
  95 F= -.37874317E+03 E0= -.37874277E+03  d E =-.215585E-02  mag=     8.0000
       N       E                     dE             d eps       ncg     rms          ort
SDA:   1    -0.378684642457E+03    0.58519E-01    0.00000E+00 10080   0.144E+00 0.000E+00
CGA:   2    -0.378730658123E+03   -0.46016E-01   -0.46009E-01 10080   0.660E-01 0.561E-05
CGA:   3    -0.378740308181E+03   -0.96501E-02   -0.96926E-02 10080   0.184E-01 0.229E-04
CGA:   4    -0.378743273377E+03   -0.29652E-02   -0.29389E-02 10080   0.368E-02-0.577E-04
CGA:   5    -0.378743924843E+03   -0.65147E-03   -0.64813E-03 10080   0.122E-02-0.642E-05
CGA:   6    -0.378744147113E+03   -0.22227E-03   -0.20208E-03 10080   0.448E-03-0.907E-04
CGA:   7    -0.378744228733E+03   -0.81620E-04   -0.80239E-04 10080   0.151E-03-0.658E-05
CGA:   8    -0.378744237973E+03   -0.92403E-05   -0.11085E-03 10080   0.124E-02-0.269E-03
CGA:   9    -0.378744341425E+03   -0.10345E-03   -0.12037E-03 10080   0.189E-03 0.700E-04
CGA:  10    -0.378744390553E+03   -0.49128E-04   -0.45999E-04 10080   0.582E-04-0.219E-04
CGA:  11    -0.378744364744E+03    0.25809E-04   -0.45697E-04 10080   0.849E-03-0.137E-03
CGA:  12    -0.378744447186E+03   -0.82442E-04   -0.83772E-04 10080   0.101E-03 0.904E-05
CGA:  13    -0.378744466470E+03   -0.19284E-04   -0.20722E-04 10080   0.269E-04 0.835E-05
CGA:  14    -0.378744497185E+03   -0.30715E-04    0.12512E-04 10080   0.610E-04-0.139E-04
CGA:  15    -0.378744498820E+03   -0.16350E-05   -0.48473E-05 10080   0.817E-05 0.114E-04
  96 F= -.37874450E+03 E0= -.37874415E+03  d E =-.133298E-02  mag=     8.0000
       N       E                     dE             d eps       ncg     rms          ort
SDA:   1    -0.378697516574E+03    0.46981E-01    0.00000E+00 10080   0.130E+00 0.000E+00
CGA:   2    -0.378728738325E+03   -0.31222E-01   -0.31143E-01 10080   0.832E-01 0.413E-03
CGA:   3    -0.378740969148E+03   -0.12231E-01   -0.12237E-01 10080   0.197E-01-0.891E-03
CGA:   4    -0.378744476073E+03   -0.35069E-02   -0.35162E-02 10080   0.416E-02 0.876E-04
CGA:   5    -0.378745153428E+03   -0.67736E-03   -0.65188E-03 10080   0.146E-02-0.134E-03
CGA:   6    -0.378745390683E+03   -0.23726E-03   -0.23408E-03 10080   0.350E-03-0.174E-04
CGA:   7    -0.378745503012E+03   -0.11233E-03   -0.11277E-03 10080   0.317E-03-0.124E-03
CGA:   8    -0.378745566415E+03   -0.63403E-04   -0.53723E-04 10080   0.369E-03-0.161E-03
CGA:   9    -0.378745620730E+03   -0.54315E-04   -0.47492E-04 10080   0.144E-03-0.347E-04
CGA:  10    -0.378745658024E+03   -0.37293E-04   -0.36215E-04 10080   0.616E-04-0.329E-04
CGA:  11    -0.378745697127E+03   -0.39104E-04    0.21851E-04 10080   0.881E-04-0.162E-04
CGA:  12    -0.378745743731E+03   -0.46603E-04    0.60192E-04 10080   0.983E-04-0.398E-04
CGA:  13    -0.378745829194E+03   -0.85463E-04    0.52685E-05 10080   0.591E-04 0.199E-05
CGA:  14    -0.378745888407E+03   -0.59213E-04    0.15706E-04 10080   0.248E-04 0.806E-05
CGA:  15    -0.378745921907E+03   -0.33500E-04    0.46676E-05 10080   0.292E-04-0.163E-05
CGA:  16    -0.378745948122E+03   -0.26215E-04    0.74727E-05 10080   0.315E-04-0.178E-04
CGA:  17    -0.378745955281E+03   -0.71589E-05   -0.56862E-05 10080   0.264E-04-0.114E-04
  97 F= -.37874596E+03 E0= -.37874568E+03  d E =-.145646E-02  mag=     8.0000
       N       E                     dE             d eps       ncg     rms          ort
SDA:   1    -0.378432754370E+03    0.31319E+00    0.00000E+00 10080   0.765E+00 0.000E+00
CGA:   2    -0.378679455911E+03   -0.24670E+00   -0.24668E+00 10080   0.280E+00 0.598E-03
CGA:   3    -0.378731917926E+03   -0.52462E-01   -0.52490E-01 10080   0.699E-01 0.461E-03
CGA:   4    -0.378742880385E+03   -0.10962E-01   -0.10862E-01 10080   0.169E-01-0.870E-03
CGA:   5    -0.378745883444E+03   -0.30031E-02   -0.29764E-02 10080   0.448E-02-0.223E-03
CGA:   6    -0.378746786032E+03   -0.90259E-03   -0.89389E-03 10080   0.147E-02-0.115E-03
CGA:   7    -0.378747134297E+03   -0.34827E-03   -0.34445E-03 10080   0.838E-03-0.118E-03
CGA:   8    -0.378747366921E+03   -0.23262E-03   -0.28822E-03 10080   0.176E-02-0.539E-03
CGA:   9    -0.378747529057E+03   -0.16214E-03   -0.17422E-03 10080   0.308E-03 0.800E-04
CGA:  10    -0.378747643231E+03   -0.11417E-03   -0.14951E-03 10080   0.469E-03-0.181E-03
CGA:  11    -0.378747764591E+03   -0.12136E-03   -0.11572E-03 10080   0.406E-03-0.181E-03
CGA:  12    -0.378747825940E+03   -0.61350E-04   -0.50174E-04 10080   0.331E-03-0.148E-03
CGA:  13    -0.378747343724E+03    0.48222E-03   -0.27359E-03 10080   0.552E-02-0.590E-03
CGA:  14    -0.378748470356E+03   -0.11266E-02   -0.96524E-03 10080   0.928E-03-0.511E-03
CGA:  15    -0.378748560297E+03   -0.89942E-04   -0.98762E-04 10080   0.116E-03 0.304E-04
CGA:  16    -0.378748554175E+03    0.61221E-05   -0.13348E-04 10080   0.413E-04 0.554E-04
  98 F= -.37874855E+03 E0= -.37874842E+03  d E =-.259889E-02  mag=     8.0000
       N       E                     dE             d eps       ncg     rms          ort
SDA:   1    -0.378464478952E+03    0.28408E+00    0.00000E+00 10080   0.721E+00 0.000E+00
CGA:   2    -0.378678007869E+03   -0.21353E+00   -0.21395E+00 10080   0.290E+00 0.319E-02
CGA:   3    -0.378729557933E+03   -0.51550E-01   -0.51493E-01 10080   0.958E-01-0.145E-03
CGA:   4    -0.378743500055E+03   -0.13942E-01   -0.13775E-01 10080   0.191E-01-0.385E-03
CGA:   5    -0.378747205539E+03   -0.37055E-02   -0.36300E-02 10080   0.487E-02-0.365E-03
CGA:   6    -0.378748180109E+03   -0.97457E-03   -0.96826E-03 10080   0.163E-02-0.313E-04
CGA:   7    -0.378748522434E+03   -0.34233E-03   -0.34036E-03 10080   0.831E-03-0.104E-04
CGA:   8    -0.378748731659E+03   -0.20923E-03   -0.20180E-03 10080   0.529E-03-0.590E-04
CGA:   9    -0.378748918790E+03   -0.18713E-03   -0.19609E-03 10080   0.804E-03-0.243E-03
CGA:  10    -0.378749048429E+03   -0.12964E-03   -0.94202E-04 10080   0.494E-03-0.241E-03
CGA:  11    -0.378749062037E+03   -0.13609E-04   -0.24897E-03 10080   0.156E-02-0.653E-03
CGA:  12    -0.378749412611E+03   -0.35057E-03   -0.34453E-03 10080   0.397E-03-0.392E-04
CGA:  13    -0.378749487655E+03   -0.75044E-04   -0.76862E-04 10080   0.284E-03 0.125E-04
CGA:  14    -0.378749582203E+03   -0.94548E-04   -0.93671E-04 10080   0.153E-03-0.227E-04
CGA:  15    -0.378749635685E+03   -0.53482E-04   -0.68989E-04 10080   0.364E-03-0.115E-03
CGA:  16    -0.378749666978E+03   -0.31293E-04   -0.34227E-04 10080   0.345E-04 0.126E-04
CGA:  17    -0.378749677428E+03   -0.10450E-04   -0.10724E-04 10080   0.178E-04 0.551E-05
CGA:  18    -0.378749703380E+03   -0.25952E-04    0.43920E-05 10080   0.362E-04-0.747E-05
CGA:  19    -0.378749736931E+03   -0.33551E-04    0.28017E-05 10080   0.479E-04-0.274E-04
CGA:  20    -0.378749733752E+03    0.31791E-05   -0.42132E-05 10080   0.206E-04 0.285E-04
  99 F= -.37874973E+03 E0= -.37874969E+03  d E =-.117958E-02  mag=     8.0000
       N       E                     dE             d eps       ncg     rms          ort
SDA:   1    -0.378674431716E+03    0.75305E-01    0.00000E+00 10080   0.190E+00 0.000E+00
CGA:   2    -0.378733082229E+03   -0.58651E-01   -0.58617E-01 10080   0.719E-01-0.205E-02
CGA:   3    -0.378747114737E+03   -0.14033E-01   -0.14044E-01 10080   0.173E-01 0.868E-04
CGA:   4    -0.378750025615E+03   -0.29109E-02   -0.29468E-02 10080   0.373E-02 0.246E-03
CGA:   5    -0.378750692386E+03   -0.66677E-03   -0.68716E-03 10080   0.992E-03 0.160E-03
CGA:   6    -0.378750895859E+03   -0.20347E-03   -0.20524E-03 10080   0.391E-03 0.183E-04
CGA:   7    -0.378750980802E+03   -0.84943E-04   -0.83233E-04 10080   0.205E-03-0.180E-04
CGA:   8    -0.378751029767E+03   -0.48965E-04   -0.47949E-04 10080   0.113E-03-0.203E-04
CGA:   9    -0.378751043500E+03   -0.13734E-04   -0.17235E-04 10080   0.408E-04 0.289E-04
CGA:  10    -0.378751046566E+03   -0.30657E-05   -0.70873E-05 10080   0.192E-04 0.274E-04
 100 F= -.37875105E+03 E0= -.37875098E+03  d E =-.131281E-02  mag=     8.0000
       N       E                     dE             d eps       ncg     rms          ort
SDA:   1    -0.378700453389E+03    0.50590E-01    0.00000E+00 10080   0.120E+00 0.000E+00
CGA:   2    -0.378742482612E+03   -0.42029E-01   -0.42003E-01 10080   0.377E-01 0.321E-03
CGA:   3    -0.378749891551E+03   -0.74089E-02   -0.73980E-02 10080   0.836E-02-0.143E-03
CGA:   4    -0.378751357512E+03   -0.14660E-02   -0.14348E-02 10080   0.233E-02-0.316E-03
CGA:   5    -0.378751759834E+03   -0.40232E-03   -0.39502E-03 10080   0.676E-03-0.788E-04
CGA:   6    -0.378751867401E+03   -0.10757E-03   -0.10985E-03 10080   0.199E-03 0.256E-04
CGA:   7    -0.378751929427E+03   -0.62026E-04   -0.75391E-04 10080   0.279E-03-0.122E-03
CGA:   8    -0.378751973209E+03   -0.43782E-04   -0.39692E-04 10080   0.824E-04-0.335E-04
CGA:   9    -0.378751962230E+03    0.10979E-04   -0.41447E-04 10080   0.715E-03-0.165E-03
CGA:  10    -0.378752027101E+03   -0.64870E-04   -0.67050E-04 10080   0.614E-04 0.158E-04
CGA:  11    -0.378752045213E+03   -0.18112E-04   -0.19305E-04 10080   0.305E-04-0.267E-04
CGA:  12    -0.378752064450E+03   -0.19237E-04    0.20775E-05 10080   0.182E-04 0.223E-05
CGA:  13    -0.378752085121E+03   -0.20671E-04    0.26102E-05 10080   0.113E-04 0.203E-05
CGA:  14    -0.378752104231E+03   -0.19111E-04    0.88272E-06 10080   0.725E-05 0.367E-05
CGA:  15    -0.378752124831E+03   -0.20600E-04    0.41862E-06 10080   0.502E-05 0.444E-05
CGA:  16    -0.378752130616E+03   -0.57852E-05    0.56613E-06 10080   0.364E-05 0.103E-05
 101 F= -.37875213E+03 E0= -.37875208E+03  d E =-.108405E-02  mag=     8.0000
       N       E                     dE             d eps       ncg     rms          ort
SDA:   1    -0.378001965785E+03    0.75016E+00    0.00000E+00 10080   0.179E+01 0.000E+00
CGA:   2    -0.378608120722E+03   -0.60615E+00   -0.60593E+00 10080   0.577E+00 0.290E-02
CGA:   3    -0.378723078839E+03   -0.11496E+00   -0.11495E+00 10080   0.124E+00-0.521E-04
CGA:   4    -0.378744293428E+03   -0.21215E-01   -0.21069E-01 10080   0.307E-01-0.163E-02
CGA:   5    -0.378749908770E+03   -0.56153E-02   -0.55992E-02 10080   0.810E-02-0.171E-03
CGA:   6    -0.378751406405E+03   -0.14976E-02   -0.15092E-02 10080   0.258E-02 0.173E-03
CGA:   7    -0.378752004909E+03   -0.59850E-03   -0.59595E-03 10080   0.128E-02-0.897E-04
CGA:   8    -0.378752348686E+03   -0.34378E-03   -0.35372E-03 10080   0.109E-02-0.281E-03
CGA:   9    -0.378752558928E+03   -0.21024E-03   -0.20869E-03 10080   0.661E-03-0.208E-03
CGA:  10    -0.378752708845E+03   -0.14992E-03   -0.15607E-03 10080   0.399E-03-0.157E-03
CGA:  11    -0.378750498005E+03    0.22108E-02   -0.12005E-02 10080   0.181E-01-0.191E-02
CGA:  12    -0.378752357781E+03   -0.18598E-02   -0.19230E-02 10080   0.253E-02 0.573E-03
CGA:  13    -0.378752940934E+03   -0.58315E-03   -0.61339E-03 10080   0.574E-03 0.144E-03
CGA:  14    -0.378753173595E+03   -0.23266E-03   -0.21538E-03 10080   0.668E-03-0.211E-03
CGA:  15    -0.378753211510E+03   -0.37915E-04   -0.51058E-04 10080   0.286E-03 0.439E-04
CGA:  16    -0.378753211636E+03   -0.12601E-06   -0.29559E-04 10080   0.154E-03 0.925E-04
CGA:  17    -0.378753213213E+03   -0.15772E-05   -0.22963E-04 10080   0.886E-04 0.743E-04
CGA:  18    -0.378753235178E+03   -0.21965E-04   -0.21552E-04 10080   0.666E-04-0.171E-05
CGA:  19    -0.378752487270E+03    0.74791E-03   -0.11060E-03 10080   0.366E-02-0.651E-03
CGA:  20    -0.378752939903E+03   -0.45263E-03   -0.60326E-03 10080   0.662E-03 0.556E-03
CGA:  21    -0.378753165528E+03   -0.22563E-03   -0.23168E-03 10080   0.243E-03 0.492E-04
CGA:  22    -0.378753271358E+03   -0.10583E-03   -0.79158E-04 10080   0.381E-03-0.226E-03
CGA:  23    -0.378753282076E+03   -0.10718E-04   -0.35836E-04 10080   0.497E-04 0.796E-04
CGA:  24    -0.378753277581E+03    0.44953E-05   -0.56213E-05 10080   0.281E-04 0.331E-04
CGA:  25    -0.378753288832E+03   -0.11251E-04   -0.11359E-04 10080   0.489E-04-0.527E-05
CGA:  26    -0.378753298174E+03   -0.93428E-05   -0.77926E-05 10080   0.131E-04-0.808E-05
 102 F= -.37875330E+03 E0= -.37875327E+03  d E =-.116756E-02  mag=     8.0000
       N       E                     dE             d eps       ncg     rms          ort
SDA:   1    -0.378355455067E+03    0.39783E+00    0.00000E+00 10080   0.986E+00 0.000E+00
CGA:   2    -0.378661486596E+03   -0.30603E+00   -0.30614E+00 10080   0.370E+00 0.139E-02
CGA:   3    -0.378732641323E+03   -0.71155E-01   -0.71048E-01 10080   0.930E-01-0.171E-03
CGA:   4    -0.378747423904E+03   -0.14783E-01   -0.14701E-01 10080   0.196E-01-0.404E-03
CGA:   5    -0.378751287655E+03   -0.38638E-02   -0.38286E-02 10080   0.476E-02-0.211E-03
CGA:   6    -0.378752264012E+03   -0.97636E-03   -0.98918E-03 10080   0.143E-02 0.983E-04
CGA:   7    -0.378752611412E+03   -0.34740E-03   -0.34572E-03 10080   0.690E-03-0.149E-04
CGA:   8    -0.378752775287E+03   -0.16387E-03   -0.16330E-03 10080   0.372E-03-0.465E-05
CGA:   9    -0.378752892135E+03   -0.11685E-03   -0.11562E-03 10080   0.263E-03-0.752E-04
CGA:  10    -0.378752946906E+03   -0.54771E-04   -0.51718E-04 10080   0.129E-03-0.370E-04
CGA:  11    -0.378752983736E+03   -0.36830E-04   -0.47041E-04 10080   0.202E-03-0.100E-03
CGA:  12    -0.378753004781E+03   -0.21045E-04   -0.24179E-04 10080   0.423E-04 0.157E-04
CGA:  13    -0.378753021204E+03   -0.16423E-04   -0.20929E-04 10080   0.625E-04-0.319E-04
CGA:  14    -0.378753036873E+03   -0.15669E-04   -0.14511E-04 10080   0.258E-04-0.123E-04
CGA:  15    -0.378753043631E+03   -0.67589E-05   -0.58999E-05 10080   0.469E-04-0.235E-04
 103 F= -.37875304E+03 E0= -.37875303E+03  d E =0.254543E-03  mag=     8.0000
       N       E                     dE             d eps       ncg     rms          ort
SDA:   1    -0.378213243721E+03    0.53979E+00    0.00000E+00 10080   0.129E+01 0.000E+00
CGA:   2    -0.378653254090E+03   -0.44001E+00   -0.44018E+00 10080   0.401E+00-0.546E-02
CGA:   3    -0.378734853699E+03   -0.81600E-01   -0.81822E-01 10080   0.802E-01 0.191E-02
CGA:   4    -0.378748921789E+03   -0.14068E-01   -0.14101E-01 10080   0.191E-01 0.283E-03
CGA:   5    -0.378752669372E+03   -0.37476E-02   -0.37526E-02 10080   0.457E-02 0.452E-04
CGA:   6    -0.378753656709E+03   -0.98734E-03   -0.99086E-03 10080   0.147E-02 0.481E-04
CGA:   7    -0.378754034662E+03   -0.37795E-03   -0.37351E-03 10080   0.854E-03-0.115E-03
CGA:   8    -0.378754188350E+03   -0.15369E-03   -0.15564E-03 10080   0.402E-03 0.244E-04
CGA:   9    -0.378754273592E+03   -0.85242E-04   -0.89838E-04 10080   0.137E-03 0.711E-04
CGA:  10    -0.378754313258E+03   -0.39666E-04   -0.40496E-04 10080   0.669E-04 0.299E-04
CGA:  11    -0.378754322471E+03   -0.92133E-05   -0.12818E-04 10080   0.281E-04 0.299E-04
 104 F= -.37875432E+03 E0= -.37875430E+03  d E =-.127884E-02  mag=     8.0000
       N       E                     dE             d eps       ncg     rms          ort
SDA:   1    -0.378668779813E+03    0.85533E-01    0.00000E+00 10080   0.233E+00 0.000E+00
CGA:   2    -0.378728707332E+03   -0.59928E-01   -0.59935E-01 10080   0.103E+00 0.872E-03
CGA:   3    -0.378748014278E+03   -0.19307E-01   -0.19334E-01 10080   0.291E-01 0.288E-03
CGA:   4    -0.378752756880E+03   -0.47426E-02   -0.47134E-02 10080   0.620E-02-0.248E-03
CGA:   5    -0.378753927548E+03   -0.11707E-02   -0.11535E-02 10080   0.169E-02-0.245E-03
CGA:   6    -0.378754209621E+03   -0.28207E-03   -0.28419E-03 10080   0.496E-03 0.302E-04
CGA:   7    -0.378754308231E+03   -0.98610E-04   -0.99613E-04 10080   0.171E-03 0.201E-04
CGA:   8    -0.378754363331E+03   -0.55100E-04   -0.65173E-04 10080   0.203E-03-0.842E-04
CGA:   9    -0.378754380729E+03   -0.17399E-04   -0.15331E-04 10080   0.948E-04-0.194E-04
CGA:  10    -0.378754394994E+03   -0.14265E-04   -0.14196E-04 10080   0.624E-04-0.772E-06
CGA:  11    -0.378754409567E+03   -0.14573E-04   -0.13982E-04 10080   0.465E-04-0.337E-04
CGA:  12    -0.378754420585E+03   -0.11018E-04   -0.16002E-04 10080   0.117E-03-0.487E-04
CGA:  13    -0.378754428563E+03   -0.79772E-05   -0.99740E-05 10080   0.696E-05 0.127E-04
 105 F= -.37875443E+03 E0= -.37875441E+03  d E =-.106091E-03  mag=     8.0000
       N       E                     dE             d eps       ncg     rms          ort
SDA:   1    -0.378728974316E+03    0.25446E-01    0.00000E+00 10080   0.683E-01 0.000E+00
CGA:   2    -0.378748120463E+03   -0.19146E-01   -0.19102E-01 10080   0.270E-01 0.884E-03
CGA:   3    -0.378753554820E+03   -0.54344E-02   -0.54271E-02 10080   0.701E-02-0.196E-03
CGA:   4    -0.378754736165E+03   -0.11813E-02   -0.11758E-02 10080   0.147E-02-0.886E-04
CGA:   5    -0.378755011129E+03   -0.27496E-03   -0.27479E-03 10080   0.355E-03-0.350E-05
CGA:   6    -0.378755090726E+03   -0.79597E-04   -0.79533E-04 10080   0.131E-03-0.254E-04
CGA:   7    -0.378755107601E+03   -0.16875E-04   -0.18961E-04 10080   0.413E-04 0.297E-04
CGA:   8    -0.378755113706E+03   -0.61052E-05   -0.76340E-05 10080   0.175E-04 0.211E-04
CGA:   9    -0.378755118495E+03   -0.47890E-05   -0.10980E-04 10080   0.795E-04-0.151E-04
 106 F= -.37875512E+03 E0= -.37875510E+03  d E =-.689932E-03  mag=     8.0000
