       N       E                     dE             d eps       ncg     rms          ort
DAV:   1     0.283739095681E+04    0.28374E+04   -0.15304E+05  6480   0.161E+03
DAV:   2    -0.199959317744E+03   -0.30374E+04   -0.28699E+04  6480   0.445E+02
DAV:   3    -0.521310851903E+03   -0.32135E+03   -0.31717E+03  6480   0.157E+02
DAV:   4    -0.533177998221E+03   -0.11867E+02   -0.11743E+02  6480   0.281E+01
DAV:   5    -0.533991863083E+03   -0.81386E+00   -0.81243E+00  6480   0.533E+00
SDA:   6    -0.346536028117E+03    0.18746E+03   -0.81243E+00  6480   0.501E+03 0.000E+00
CGA:   7    -0.409811792740E+03   -0.63276E+02   -0.63742E+02  6480   0.499E+02 0.300E+02
CGA:   8    -0.418639118660E+03   -0.88273E+01   -0.88497E+01  6480   0.133E+02 0.504E+00
CGA:   9    -0.421754304303E+03   -0.31152E+01   -0.31164E+01  6480   0.844E+01-0.168E-01
CGA:  10    -0.423296698335E+03   -0.15424E+01   -0.15519E+01  6480   0.315E+01 0.350E+00
CGA:  11    -0.424050480190E+03   -0.75378E+00   -0.75663E+00  6480   0.131E+01-0.744E-01
CGA:  12    -0.424322589262E+03   -0.27211E+00   -0.27230E+00  6480   0.375E+00-0.261E-01
CGA:  13    -0.424409807435E+03   -0.87218E-01   -0.87591E-01  6480   0.134E+00-0.959E-02
CGA:  14    -0.424440956741E+03   -0.31149E-01   -0.30968E-01  6480   0.465E-01 0.502E-02
CGA:  15    -0.424454120453E+03   -0.13164E-01   -0.12945E-01  6480   0.193E-01 0.328E-02
CGA:  16    -0.424460605720E+03   -0.64853E-02   -0.66405E-02  6480   0.914E-02-0.136E-02
CGA:  17    -0.424463221598E+03   -0.26159E-02   -0.26849E-02  6480   0.382E-02-0.680E-03
CGA:  18    -0.424464234484E+03   -0.10129E-02   -0.99602E-03  6480   0.144E-02 0.253E-03
CGA:  19    -0.424464680951E+03   -0.44647E-03   -0.43367E-03  6480   0.620E-03 0.200E-03
CGA:  20    -0.424464933384E+03   -0.25243E-03   -0.25514E-03  6480   0.319E-03-0.205E-04
CGA:  21    -0.424465054182E+03   -0.12080E-03   -0.14251E-03  6480   0.205E-03-0.936E-04
CGA:  22    -0.424465088886E+03   -0.34704E-04   -0.34758E-04  6480   0.108E-03 0.311E-04
CGA:  23    -0.424465105470E+03   -0.16585E-04   -0.20552E-04  6480   0.492E-04 0.524E-04
CGA:  24    -0.424465111487E+03   -0.60170E-05   -0.99008E-05  6480   0.248E-04 0.379E-04
   1 F= -.42446511E+03 E0= -.42446511E+03  d E =-.424465E+03  mag=    18.0000
       N       E                     dE             d eps       ncg     rms          ort
SDA:   1    -0.424466638996E+03   -0.15335E-02    0.00000E+00  6480   0.160E-03 0.000E+00
CGA:   2    -0.424466643386E+03   -0.43909E-05   -0.16313E-04  6480   0.647E-04 0.892E-04
CGA:   3    -0.424466645933E+03   -0.25464E-05   -0.75519E-05  6480   0.341E-04 0.447E-04
CGA:   4    -0.424466649669E+03   -0.37361E-05   -0.52721E-05  6480   0.163E-04 0.225E-04
   2 F= -.42446665E+03 E0= -.42446665E+03  d E =-.153818E-02  mag=    18.0000
       N       E                     dE             d eps       ncg     rms          ort
SDA:   1    -0.424433718922E+03    0.32927E-01    0.00000E+00  6480   0.282E+00 0.000E+00
CGA:   2    -0.424501275863E+03   -0.67557E-01   -0.67519E-01  6480   0.113E+00 0.214E-02
CGA:   3    -0.424523220771E+03   -0.21945E-01   -0.21937E-01  6480   0.368E-01-0.308E-03
CGA:   4    -0.424529883529E+03   -0.66628E-02   -0.66229E-02  6480   0.929E-02-0.983E-03
CGA:   5    -0.424531365420E+03   -0.14819E-02   -0.14708E-02  6480   0.238E-02-0.198E-03
CGA:   6    -0.424531802584E+03   -0.43716E-03   -0.44094E-03  6480   0.718E-03 0.138E-03
CGA:   7    -0.424531963888E+03   -0.16130E-03   -0.16151E-03  6480   0.251E-03 0.888E-04
CGA:   8    -0.424532049431E+03   -0.85543E-04   -0.89233E-04  6480   0.168E-03-0.363E-04
CGA:   9    -0.424532092244E+03   -0.42813E-04   -0.60800E-04  6480   0.169E-03-0.884E-04
CGA:  10    -0.424532122554E+03   -0.30310E-04   -0.30758E-04  6480   0.353E-04 0.935E-05
CGA:  11    -0.424532133727E+03   -0.11173E-04   -0.11026E-04  6480   0.101E-04 0.214E-05
CGA:  12    -0.424532133231E+03    0.49626E-06   -0.99223E-05  6480   0.422E-04-0.150E-04
   3 F= -.42453213E+03 E0= -.42453213E+03  d E =-.654836E-01  mag=    18.0000
       N       E                     dE             d eps       ncg     rms          ort
SDA:   1    -0.423934062079E+03    0.59807E+00    0.00000E+00  6480   0.215E+01 0.000E+00
CGA:   2    -0.424448769581E+03   -0.51471E+00   -0.51484E+00  6480   0.820E+00 0.571E-02
CGA:   3    -0.424608224756E+03   -0.15946E+00   -0.15941E+00  6480   0.271E+00-0.116E-02
CGA:   4    -0.424656517782E+03   -0.48293E-01   -0.48099E-01  6480   0.643E-01-0.254E-02
CGA:   5    -0.424666999681E+03   -0.10482E-01   -0.10453E-01  6480   0.164E-01-0.320E-03
CGA:   6    -0.424670233338E+03   -0.32337E-02   -0.32573E-02  6480   0.536E-02 0.467E-03
CGA:   7    -0.424671501828E+03   -0.12685E-02   -0.12721E-02  6480   0.207E-02 0.228E-03
CGA:   8    -0.424672136828E+03   -0.63500E-03   -0.64249E-03  6480   0.117E-02-0.146E-03
CGA:   9    -0.424672498716E+03   -0.36189E-03   -0.38709E-03  6480   0.701E-03-0.234E-03
CGA:  10    -0.424672661305E+03   -0.16259E-03   -0.16520E-03  6480   0.285E-03-0.644E-04
CGA:  11    -0.424672730921E+03   -0.69616E-04   -0.69384E-04  6480   0.105E-03 0.192E-04
CGA:  12    -0.424672759668E+03   -0.28747E-04   -0.28772E-04  6480   0.455E-04 0.261E-04
CGA:  13    -0.424672777951E+03   -0.18283E-04   -0.17866E-04  6480   0.220E-04 0.710E-05
CGA:  14    -0.424672758402E+03    0.19549E-04   -0.29017E-04  6480   0.142E-03-0.550E-04
CGA:  15    -0.424672782534E+03   -0.24132E-04   -0.27676E-04  6480   0.200E-04 0.325E-04
CGA:  16    -0.424672786471E+03   -0.39371E-05   -0.49619E-05  6480   0.818E-05 0.107E-04
   4 F= -.42467279E+03 E0= -.42467279E+03  d E =-.140653E+00  mag=    18.0000
       N       E                     dE             d eps       ncg     rms          ort
SDA:   1    -0.423683632279E+03    0.98915E+00    0.00000E+00  6480   0.336E+01 0.000E+00
CGA:   2    -0.424474859254E+03   -0.79123E+00   -0.79270E+00  6480   0.115E+01 0.737E-02
CGA:   3    -0.424704619240E+03   -0.22976E+00   -0.22966E+00  6480   0.406E+00-0.268E-03
CGA:   4    -0.424776389247E+03   -0.71770E-01   -0.71351E-01  6480   0.927E-01-0.150E-02
CGA:   5    -0.424791792663E+03   -0.15403E-01   -0.15377E-01  6480   0.233E-01-0.428E-04
CGA:   6    -0.424796585859E+03   -0.47932E-02   -0.48968E-02  6480   0.809E-02 0.392E-03
CGA:   7    -0.424798545119E+03   -0.19593E-02   -0.19967E-02  6480   0.355E-02 0.170E-03
CGA:   8    -0.424799612310E+03   -0.10672E-02   -0.10515E-02  6480   0.201E-02-0.100E-03
CGA:   9    -0.424800273406E+03   -0.66110E-03   -0.64303E-03  6480   0.101E-02-0.164E-03
CGA:  10    -0.424800556930E+03   -0.28352E-03   -0.28065E-03  6480   0.395E-03-0.220E-04
CGA:  11    -0.424800662447E+03   -0.10552E-03   -0.10995E-03  6480   0.143E-03 0.307E-04
CGA:  12    -0.424800710421E+03   -0.47974E-04   -0.49522E-04  6480   0.649E-04 0.153E-04
CGA:  13    -0.424800742509E+03   -0.32087E-04   -0.32795E-04  6480   0.462E-04-0.172E-04
CGA:  14    -0.424800757389E+03   -0.14881E-04   -0.17537E-04  6480   0.351E-04-0.270E-04
CGA:  15    -0.424800760514E+03   -0.31249E-05   -0.63430E-05  6480   0.812E-05 0.133E-04
   5 F= -.42480076E+03 E0= -.42480076E+03  d E =-.127974E+00  mag=    18.0000
       N       E                     dE             d eps       ncg     rms          ort
SDA:   1    -0.422936616538E+03    0.18641E+01    0.00000E+00  6480   0.594E+01 0.000E+00
CGA:   2    -0.424370465295E+03   -0.14338E+01   -0.14354E+01  6480   0.187E+01 0.643E-02
CGA:   3    -0.424760178472E+03   -0.38971E+00   -0.38955E+00  6480   0.681E+00-0.646E-03
CGA:   4    -0.424876801421E+03   -0.11662E+00   -0.11638E+00  6480   0.148E+00-0.171E-02
CGA:   5    -0.424901785307E+03   -0.24984E-01   -0.24993E-01  6480   0.408E-01 0.604E-04
CGA:   6    -0.424910135240E+03   -0.83499E-02   -0.84439E-02  6480   0.149E-01 0.612E-03
CGA:   7    -0.424913832816E+03   -0.36976E-02   -0.37316E-02  6480   0.670E-02 0.316E-03
CGA:   8    -0.424915904630E+03   -0.20718E-02   -0.20684E-02  6480   0.390E-02-0.781E-04
CGA:   9    -0.424917140290E+03   -0.12357E-02   -0.12313E-02  6480   0.185E-02-0.173E-03
CGA:  10    -0.424917662529E+03   -0.52224E-03   -0.52246E-03  6480   0.706E-03 0.396E-05
CGA:  11    -0.424917858791E+03   -0.19626E-03   -0.19953E-03  6480   0.260E-03 0.545E-04
CGA:  12    -0.424917954140E+03   -0.95349E-04   -0.95324E-04  6480   0.125E-03 0.110E-04
CGA:  13    -0.424918010601E+03   -0.56460E-04   -0.62295E-04  6480   0.922E-04-0.419E-04
CGA:  14    -0.424918033550E+03   -0.22950E-04   -0.24711E-04  6480   0.446E-04-0.306E-04
CGA:  15    -0.424918037995E+03   -0.44450E-05   -0.57448E-05  6480   0.203E-04 0.832E-05
   6 F= -.42491804E+03 E0= -.42491804E+03  d E =-.117277E+00  mag=    18.0000
       N       E                     dE             d eps       ncg     rms          ort
SDA:   1    -0.422055496395E+03    0.28625E+01    0.00000E+00  6480   0.867E+01 0.000E+00
CGA:   2    -0.424165927220E+03   -0.21104E+01   -0.21115E+01  6480   0.283E+01 0.459E-02
CGA:   3    -0.424751476463E+03   -0.58555E+00   -0.58553E+00  6480   0.102E+01-0.437E-03
CGA:   4    -0.424924337338E+03   -0.17286E+00   -0.17274E+00  6480   0.211E+00-0.136E-02
CGA:   5    -0.424960787596E+03   -0.36450E-01   -0.36424E-01  6480   0.592E-01-0.208E-03
CGA:   6    -0.424973211354E+03   -0.12424E-01   -0.12466E-01  6480   0.225E-01 0.447E-03
CGA:   7    -0.424978796541E+03   -0.55852E-02   -0.56075E-02  6480   0.103E-01 0.399E-03
CGA:   8    -0.424981985250E+03   -0.31887E-02   -0.31883E-02  6480   0.603E-02 0.902E-04
CGA:   9    -0.424983923153E+03   -0.19379E-02   -0.19404E-02  6480   0.286E-02-0.133E-03
CGA:  10    -0.424984775005E+03   -0.85185E-03   -0.85195E-03  6480   0.112E-02-0.265E-04
CGA:  11    -0.424985096918E+03   -0.32191E-03   -0.32244E-03  6480   0.412E-03 0.477E-04
CGA:  12    -0.424985240983E+03   -0.14406E-03   -0.14350E-03  6480   0.182E-03 0.163E-04
CGA:  13    -0.424985312134E+03   -0.71151E-04   -0.72152E-04  6480   0.838E-04-0.126E-04
CGA:  14    -0.424985341009E+03   -0.28875E-04   -0.29713E-04  6480   0.319E-04-0.112E-04
CGA:  15    -0.424985347385E+03   -0.63761E-05   -0.67918E-05  6480   0.970E-05 0.649E-05
   7 F= -.42498535E+03 E0= -.42498535E+03  d E =-.673094E-01  mag=    18.0000
       N       E                     dE             d eps       ncg     rms          ort
SDA:   1    -0.420185814349E+03    0.47995E+01    0.00000E+00  6480   0.129E+02 0.000E+00
CGA:   2    -0.423678946134E+03   -0.34931E+01   -0.34938E+01  6480   0.508E+01 0.964E-02
CGA:   3    -0.424640439310E+03   -0.96149E+00   -0.96146E+00  6480   0.155E+01-0.544E-03
CGA:   4    -0.424902390786E+03   -0.26195E+00   -0.26179E+00  6480   0.308E+00-0.160E-02
CGA:   5    -0.424956352045E+03   -0.53961E-01   -0.53935E-01  6480   0.869E-01-0.331E-03
CGA:   6    -0.424974823989E+03   -0.18472E-01   -0.18493E-01  6480   0.312E-01 0.293E-03
CGA:   7    -0.424982284648E+03   -0.74607E-02   -0.74797E-02  6480   0.136E-01 0.466E-03
CGA:   8    -0.424986376181E+03   -0.40915E-02   -0.40856E-02  6480   0.750E-02 0.304E-03
CGA:   9    -0.424988824845E+03   -0.24487E-02   -0.24530E-02  6480   0.366E-02-0.109E-03
CGA:  10    -0.424989944229E+03   -0.11194E-02   -0.11219E-02  6480   0.151E-02-0.835E-04
CGA:  11    -0.424990384668E+03   -0.44044E-03   -0.43969E-03  6480   0.586E-03 0.458E-04
CGA:  12    -0.424990599997E+03   -0.21533E-03   -0.21544E-03  6480   0.286E-03-0.180E-05
CGA:  13    -0.424990703149E+03   -0.10315E-03   -0.10331E-03  6480   0.121E-03-0.228E-05
CGA:  14    -0.424990740086E+03   -0.36937E-04   -0.36758E-04  6480   0.356E-04 0.113E-04
CGA:  15    -0.424990751922E+03   -0.11836E-04   -0.11792E-04  6480   0.109E-04 0.347E-05
CGA:  16    -0.424990755044E+03   -0.31224E-05   -0.31946E-05  6480   0.383E-05 0.314E-05
   8 F= -.42499076E+03 E0= -.42499076E+03  d E =-.540766E-02  mag=    18.0000
       N       E                     dE             d eps       ncg     rms          ort
SDA:   1    -0.424697249035E+03    0.29350E+00    0.00000E+00  6480   0.885E+00 0.000E+00
CGA:   2    -0.424918962566E+03   -0.22171E+00   -0.22181E+00  6480   0.345E+00 0.230E-02
CGA:   3    -0.424983959403E+03   -0.64997E-01   -0.64875E-01  6480   0.110E+00-0.127E-02
CGA:   4    -0.425003760672E+03   -0.19801E-01   -0.19691E-01  6480   0.266E-01-0.110E-02
CGA:   5    -0.425008209849E+03   -0.44492E-02   -0.44200E-02  6480   0.696E-02-0.276E-03
CGA:   6    -0.425009670392E+03   -0.14605E-02   -0.14513E-02  6480   0.248E-02-0.155E-03
CGA:   7    -0.425010245310E+03   -0.57492E-03   -0.57208E-03  6480   0.999E-03-0.898E-04
CGA:   8    -0.425010514667E+03   -0.26936E-03   -0.26978E-03  6480   0.482E-03-0.302E-04
CGA:   9    -0.425010660191E+03   -0.14552E-03   -0.14763E-03  6480   0.229E-03-0.430E-04
CGA:  10    -0.425010733897E+03   -0.73706E-04   -0.84632E-04  6480   0.167E-03-0.802E-04
CGA:  11    -0.425010760898E+03   -0.27001E-04   -0.26996E-04  6480   0.634E-04-0.243E-06
CGA:  12    -0.425010771883E+03   -0.10985E-04   -0.12343E-04  6480   0.261E-04 0.170E-04
CGA:  13    -0.425010777136E+03   -0.52530E-05   -0.61947E-05  6480   0.113E-04 0.112E-04
   9 F= -.42501078E+03 E0= -.42501078E+03  d E =-.200221E-01  mag=    18.0000
       N       E                     dE             d eps       ncg     rms          ort
SDA:   1    -0.424881591345E+03    0.12918E+00    0.00000E+00  6480   0.400E+00 0.000E+00
CGA:   2    -0.424976310535E+03   -0.94719E-01   -0.94756E-01  6480   0.148E+00 0.132E-02
CGA:   3    -0.425004871094E+03   -0.28561E-01   -0.28513E-01  6480   0.495E-01-0.716E-03
CGA:   4    -0.425013741101E+03   -0.88700E-02   -0.88335E-02  6480   0.116E-01-0.487E-03
CGA:   5    -0.425015659016E+03   -0.19179E-02   -0.19092E-02  6480   0.294E-02-0.105E-03
CGA:   6    -0.425016285188E+03   -0.62617E-03   -0.62203E-03  6480   0.108E-02-0.119E-03
CGA:   7    -0.425016538171E+03   -0.25298E-03   -0.25275E-03  6480   0.463E-03-0.648E-04
CGA:   8    -0.425016657416E+03   -0.11925E-03   -0.11910E-03  6480   0.220E-03 0.502E-05
CGA:   9    -0.425016726402E+03   -0.68986E-04   -0.69266E-04  6480   0.104E-03-0.454E-05
CGA:  10    -0.425016762971E+03   -0.36569E-04   -0.44379E-04  6480   0.929E-04-0.421E-04
CGA:  11    -0.425016774373E+03   -0.11402E-04   -0.11624E-04  6480   0.401E-04 0.444E-05
CGA:  12    -0.425016780188E+03   -0.58145E-05   -0.68168E-05  6480   0.160E-04 0.105E-04
  10 F= -.42501678E+03 E0= -.42501678E+03  d E =-.600305E-02  mag=    18.0000
       N       E                     dE             d eps       ncg     rms          ort
SDA:   1    -0.424102149126E+03    0.91463E+00    0.00000E+00  6480   0.253E+01 0.000E+00
CGA:   2    -0.424724796033E+03   -0.62265E+00   -0.62267E+00  6480   0.126E+01 0.526E-02
CGA:   3    -0.424948746522E+03   -0.22395E+00   -0.22387E+00  6480   0.319E+00-0.166E-02
CGA:   4    -0.425004154754E+03   -0.55408E-01   -0.55261E-01  6480   0.730E-01-0.209E-02
CGA:   5    -0.425016723628E+03   -0.12569E-01   -0.12544E-01  6480   0.181E-01-0.386E-03
CGA:   6    -0.425020359264E+03   -0.36356E-02   -0.36343E-02  6480   0.566E-02-0.422E-04
CGA:   7    -0.425021621404E+03   -0.12621E-02   -0.12624E-02  6480   0.202E-02 0.168E-04
CGA:   8    -0.425022183139E+03   -0.56174E-03   -0.56018E-03  6480   0.954E-03 0.373E-04
CGA:   9    -0.425022495578E+03   -0.31244E-03   -0.31653E-03  6480   0.492E-03-0.475E-04
CGA:  10    -0.425022654362E+03   -0.15878E-03   -0.16979E-03  6480   0.279E-03-0.920E-04
CGA:  11    -0.425022712668E+03   -0.58306E-04   -0.58166E-04  6480   0.966E-04 0.178E-04
CGA:  12    -0.425022738487E+03   -0.25819E-04   -0.25787E-04  6480   0.413E-04 0.200E-04
CGA:  13    -0.425022754090E+03   -0.15603E-04   -0.15271E-04  6480   0.220E-04 0.579E-05
CGA:  14    -0.425022757723E+03   -0.36337E-05   -0.45414E-05  6480   0.107E-04 0.128E-04
  11 F= -.42502276E+03 E0= -.42502276E+03  d E =-.597754E-02  mag=    18.0000
       N       E                     dE             d eps       ncg     rms          ort
SDA:   1    -0.423100731668E+03    0.19220E+01    0.00000E+00  6480   0.514E+01 0.000E+00
CGA:   2    -0.424427246700E+03   -0.13265E+01   -0.13263E+01  6480   0.266E+01 0.826E-02
CGA:   3    -0.424885861027E+03   -0.45861E+00   -0.45853E+00  6480   0.621E+00-0.249E-02
CGA:   4    -0.424992425355E+03   -0.10656E+00   -0.10638E+00  6480   0.142E+00-0.274E-02
CGA:   5    -0.425017044271E+03   -0.24619E-01   -0.24592E-01  6480   0.355E-01-0.494E-03
CGA:   6    -0.425024181441E+03   -0.71372E-02   -0.71350E-02  6480   0.108E-01-0.795E-04
CGA:   7    -0.425026595538E+03   -0.24141E-02   -0.24143E-02  6480   0.388E-02 0.135E-04
CGA:   8    -0.425027681652E+03   -0.10861E-02   -0.10828E-02  6480   0.184E-02 0.695E-04
CGA:   9    -0.425028272797E+03   -0.59114E-03   -0.59425E-03  6480   0.916E-03-0.382E-04
CGA:  10    -0.425028569576E+03   -0.29678E-03   -0.30613E-03  6480   0.451E-03-0.920E-04
CGA:  11    -0.425028685937E+03   -0.11636E-03   -0.11576E-03  6480   0.165E-03 0.140E-04
CGA:  12    -0.425028740888E+03   -0.54951E-04   -0.54010E-04  6480   0.757E-04 0.131E-04
CGA:  13    -0.425028766284E+03   -0.25396E-04   -0.24520E-04  6480   0.339E-04 0.173E-04
CGA:  14    -0.425028772272E+03   -0.59883E-05   -0.75544E-05  6480   0.153E-04 0.221E-04
  12 F= -.42502877E+03 E0= -.42502877E+03  d E =-.601455E-02  mag=    18.0000
       N       E                     dE             d eps       ncg     rms          ort
SDA:   1    -0.421377075800E+03    0.36517E+01    0.00000E+00  6480   0.980E+01 0.000E+00
CGA:   2    -0.423875550746E+03   -0.24985E+01   -0.24982E+01  6480   0.510E+01 0.154E-01
CGA:   3    -0.424759660718E+03   -0.88411E+00   -0.88408E+00  6480   0.120E+01-0.329E-02
CGA:   4    -0.424964777395E+03   -0.20512E+00   -0.20484E+00  6480   0.273E+00-0.355E-02
CGA:   5    -0.425012174770E+03   -0.47397E-01   -0.47390E-01  6480   0.684E-01-0.247E-03
CGA:   6    -0.425025960387E+03   -0.13786E-01   -0.13787E-01  6480   0.209E-01 0.244E-04
CGA:   7    -0.425030639270E+03   -0.46789E-02   -0.46785E-02  6480   0.741E-02-0.525E-04
CGA:   8    -0.425032694172E+03   -0.20549E-02   -0.20505E-02  6480   0.344E-02 0.960E-04
CGA:   9    -0.425033753919E+03   -0.10597E-02   -0.10579E-02  6480   0.157E-02 0.260E-04
CGA:  10    -0.425034266324E+03   -0.51240E-03   -0.51930E-03  6480   0.724E-03-0.788E-04
CGA:  11    -0.425034471890E+03   -0.20557E-03   -0.20444E-03  6480   0.279E-03 0.204E-04
CGA:  12    -0.425034571381E+03   -0.99491E-04   -0.98597E-04  6480   0.138E-03 0.890E-05
CGA:  13    -0.425034617708E+03   -0.46327E-04   -0.44617E-04  6480   0.607E-04 0.275E-04
CGA:  14    -0.425034629985E+03   -0.12277E-04   -0.14319E-04  6480   0.255E-04 0.356E-04
CGA:  15    -0.425034635932E+03   -0.59467E-05   -0.60884E-05  6480   0.994E-05 0.118E-04
  13 F= -.42503464E+03 E0= -.42503464E+03  d E =-.586366E-02  mag=    18.0000
       N       E                     dE             d eps       ncg     rms          ort
SDA:   1    -0.423404530126E+03    0.16301E+01    0.00000E+00  6480   0.452E+01 0.000E+00
CGA:   2    -0.424492676506E+03   -0.10881E+01   -0.10882E+01  6480   0.233E+01 0.462E-02
CGA:   3    -0.424908562242E+03   -0.41589E+00   -0.41558E+00  6480   0.590E+00-0.545E-02
CGA:   4    -0.425008634191E+03   -0.10007E+00   -0.99868E-01  6480   0.131E+00-0.261E-02
CGA:   5    -0.425031244395E+03   -0.22610E-01   -0.22628E-01  6480   0.328E-01 0.197E-03
CGA:   6    -0.425037864429E+03   -0.66200E-02   -0.66258E-02  6480   0.102E-01 0.144E-03
CGA:   7    -0.425040184575E+03   -0.23201E-02   -0.23185E-02  6480   0.359E-02-0.185E-03
CGA:   8    -0.425041180414E+03   -0.99584E-03   -0.10016E-02  6480   0.172E-02-0.121E-03
CGA:   9    -0.425041676198E+03   -0.49578E-03   -0.49779E-03  6480   0.742E-03-0.337E-04
CGA:  10    -0.425041909241E+03   -0.23304E-03   -0.23702E-03  6480   0.336E-03-0.479E-04
CGA:  11    -0.425042000131E+03   -0.90889E-04   -0.90075E-04  6480   0.124E-03 0.198E-04
CGA:  12    -0.425042040894E+03   -0.40764E-04   -0.39688E-04  6480   0.557E-04 0.197E-04
CGA:  13    -0.425042060839E+03   -0.19944E-04   -0.19205E-04  6480   0.264E-04 0.157E-04
CGA:  14    -0.425042065383E+03   -0.45447E-05   -0.59943E-05  6480   0.128E-04 0.191E-04
  14 F= -.42504207E+03 E0= -.42504207E+03  d E =-.742945E-02  mag=    18.0000
       N       E                     dE             d eps       ncg     rms          ort
SDA:   1    -0.424341386819E+03    0.70067E+00    0.00000E+00  6480   0.192E+01 0.000E+00
CGA:   2    -0.424816688301E+03   -0.47530E+00   -0.47530E+00  6480   0.100E+01-0.180E-02
CGA:   3    -0.424991668002E+03   -0.17498E+00   -0.17527E+00  6480   0.242E+00 0.361E-02
CGA:   4    -0.425032592707E+03   -0.40925E-01   -0.41055E-01  6480   0.542E-01 0.167E-02
CGA:   5    -0.425042134871E+03   -0.95422E-02   -0.95493E-02  6480   0.137E-01 0.946E-04
CGA:   6    -0.425044888511E+03   -0.27536E-02   -0.27555E-02  6480   0.420E-02 0.494E-04
CGA:   7    -0.425045799345E+03   -0.91083E-03   -0.91294E-03  6480   0.138E-02 0.126E-03
CGA:   8    -0.425046176884E+03   -0.37754E-03   -0.37463E-03  6480   0.599E-03 0.915E-04
CGA:   9    -0.425046364633E+03   -0.18775E-03   -0.18500E-03  6480   0.262E-03 0.491E-04
CGA:  10    -0.425046447793E+03   -0.83161E-04   -0.81560E-04  6480   0.109E-03 0.315E-04
CGA:  11    -0.425046487490E+03   -0.39697E-04   -0.39419E-04  6480   0.508E-04 0.321E-05
CGA:  12    -0.425046508139E+03   -0.20648E-04   -0.22699E-04  6480   0.375E-04-0.108E-04
CGA:  13    -0.425046519076E+03   -0.10938E-04   -0.13598E-04  6480   0.261E-04-0.129E-04
CGA:  14    -0.425046530253E+03   -0.11177E-04    0.95582E-05  6480   0.104E-04 0.210E-06
CGA:  15    -0.425046536212E+03   -0.59595E-05    0.17794E-04  6480   0.433E-05 0.726E-07
  15 F= -.42504654E+03 E0= -.42504654E+03  d E =-.447083E-02  mag=    18.0000
       N       E                     dE             d eps       ncg     rms          ort
SDA:   1    -0.424957228892E+03    0.89301E-01    0.00000E+00  6480   0.256E+00 0.000E+00
CGA:   2    -0.425019165390E+03   -0.61936E-01   -0.61939E-01  6480   0.132E+00-0.216E-04
CGA:   3    -0.425042594592E+03   -0.23429E-01   -0.23357E-01  6480   0.337E-01-0.939E-03
CGA:   4    -0.425048337492E+03   -0.57429E-02   -0.57247E-02  6480   0.747E-02-0.219E-03
CGA:   5    -0.425049602105E+03   -0.12646E-02   -0.12690E-02  6480   0.182E-02 0.507E-04
CGA:   6    -0.425049984141E+03   -0.38204E-03   -0.38094E-03  6480   0.584E-03-0.276E-04
CGA:   7    -0.425050120169E+03   -0.13603E-03   -0.13562E-03  6480   0.223E-03-0.379E-04
CGA:   8    -0.425050174243E+03   -0.54074E-04   -0.53989E-04  6480   0.934E-04 0.646E-05
CGA:   9    -0.425050200719E+03   -0.26476E-04   -0.26232E-04  6480   0.368E-04 0.928E-05
CGA:  10    -0.425050215679E+03   -0.14960E-04   -0.16757E-04  6480   0.300E-04-0.109E-04
CGA:  11    -0.425050220559E+03   -0.48805E-05   -0.49205E-05  6480   0.131E-04 0.166E-05
  16 F= -.42505022E+03 E0= -.42505022E+03  d E =-.368435E-02  mag=    18.0000
       N       E                     dE             d eps       ncg     rms          ort
SDA:   1    -0.421224482857E+03    0.38257E+01    0.00000E+00  6480   0.105E+02 0.000E+00
CGA:   2    -0.423800603555E+03   -0.25761E+01   -0.25763E+01  6480   0.545E+01 0.143E-01
CGA:   3    -0.424756143241E+03   -0.95554E+00   -0.95549E+00  6480   0.136E+01-0.350E-02
CGA:   4    -0.424989514448E+03   -0.23337E+00   -0.23310E+00  6480   0.303E+00-0.281E-02
CGA:   5    -0.425041758497E+03   -0.52244E-01   -0.52266E-01  6480   0.752E-01 0.144E-03
CGA:   6    -0.425057048712E+03   -0.15290E-01   -0.15297E-01  6480   0.235E-01 0.157E-03
CGA:   7    -0.425062307883E+03   -0.52592E-02   -0.52584E-02  6480   0.814E-02-0.594E-04
CGA:   8    -0.425064550439E+03   -0.22426E-02   -0.22395E-02  6480   0.377E-02 0.759E-04
CGA:   9    -0.425065692592E+03   -0.11422E-02   -0.11399E-02  6480   0.166E-02 0.364E-04
CGA:  10    -0.425066233975E+03   -0.54138E-03   -0.54939E-03  6480   0.770E-03-0.954E-04
CGA:  11    -0.425066450585E+03   -0.21661E-03   -0.21561E-03  6480   0.295E-03 0.194E-04
CGA:  12    -0.425066549199E+03   -0.98614E-04   -0.96720E-04  6480   0.133E-03 0.266E-04
CGA:  13    -0.425066597048E+03   -0.47850E-04   -0.46153E-04  6480   0.615E-04 0.261E-04
CGA:  14    -0.425066611263E+03   -0.14215E-04   -0.15679E-04  6480   0.256E-04 0.339E-04
CGA:  15    -0.425066618063E+03   -0.67993E-05   -0.67128E-05  6480   0.964E-05 0.103E-04
  17 F= -.42506662E+03 E0= -.42506662E+03  d E =-.163975E-01  mag=    18.0000
       N       E                     dE             d eps       ncg     rms          ort
SDA:   1    -0.417378547091E+03    0.76881E+01    0.00000E+00  6480   0.212E+02 0.000E+00
CGA:   2    -0.422523927031E+03   -0.51454E+01   -0.51472E+01  6480   0.110E+02 0.546E-01
CGA:   3    -0.424453295787E+03   -0.19294E+01   -0.19306E+01  6480   0.272E+01 0.678E-02
CGA:   4    -0.424918470495E+03   -0.46517E+00   -0.46451E+00  6480   0.620E+00-0.427E-02
CGA:   5    -0.425025659710E+03   -0.10719E+00   -0.10720E+00  6480   0.153E+00-0.286E-03
CGA:   6    -0.425056681927E+03   -0.31022E-01   -0.31055E-01  6480   0.481E-01 0.660E-03
CGA:   7    -0.425067424387E+03   -0.10742E-01   -0.10749E-01  6480   0.165E-01 0.267E-03
CGA:   8    -0.425072016215E+03   -0.45918E-02   -0.45876E-02  6480   0.765E-02 0.116E-03
CGA:   9    -0.425074318729E+03   -0.23025E-02   -0.23024E-02  6480   0.331E-02-0.155E-05
CGA:  10    -0.425075352185E+03   -0.10335E-02   -0.10422E-02  6480   0.140E-02-0.131E-03
CGA:  11    -0.425075756452E+03   -0.40427E-03   -0.40256E-03  6480   0.533E-03 0.344E-04
CGA:  12    -0.425075935668E+03   -0.17922E-03   -0.17581E-03  6480   0.244E-03 0.489E-04
CGA:  13    -0.425076028329E+03   -0.92661E-04   -0.89545E-04  6480   0.119E-03 0.387E-04
CGA:  14    -0.425076062943E+03   -0.34614E-04   -0.34977E-04  6480   0.466E-04 0.505E-04
CGA:  15    -0.425076077733E+03   -0.14790E-04   -0.15448E-04  6480   0.186E-04 0.243E-04
CGA:  16    -0.425076087809E+03   -0.10076E-04    0.49896E-04  6480   0.773E-05 0.773E-05
CGA:  17    -0.425076091149E+03   -0.33400E-05   -0.31644E-05  6480   0.496E-05 0.577E-05
  18 F= -.42507609E+03 E0= -.42507609E+03  d E =-.947309E-02  mag=    18.0000
       N       E                     dE             d eps       ncg     rms          ort
SDA:   1    -0.424708494607E+03    0.36759E+00    0.00000E+00  6480   0.987E+00 0.000E+00
CGA:   2    -0.424968751021E+03   -0.26026E+00   -0.26026E+00  6480   0.491E+00-0.855E-03
CGA:   3    -0.425052968530E+03   -0.84218E-01   -0.84338E-01  6480   0.125E+00 0.121E-02
CGA:   4    -0.425074409784E+03   -0.21441E-01   -0.21467E-01  6480   0.277E-01 0.275E-03
CGA:   5    -0.425079219929E+03   -0.48101E-02   -0.48073E-02  6480   0.713E-02-0.469E-04
CGA:   6    -0.425080650328E+03   -0.14304E-02   -0.14336E-02  6480   0.225E-02 0.712E-04
CGA:   7    -0.425081148696E+03   -0.49837E-03   -0.49955E-03  6480   0.787E-03 0.527E-04
CGA:   8    -0.425081385104E+03   -0.23641E-03   -0.23799E-03  6480   0.419E-03-0.294E-04
CGA:   9    -0.425081511546E+03   -0.12644E-03   -0.12952E-03  6480   0.215E-03-0.399E-04
CGA:  10    -0.425081563497E+03   -0.51951E-04   -0.51696E-04  6480   0.771E-04 0.139E-04
CGA:  11    -0.425081583537E+03   -0.20040E-04   -0.20102E-04  6480   0.285E-04 0.165E-04
CGA:  12    -0.425081596012E+03   -0.12474E-04   -0.12665E-04  6480   0.205E-04-0.165E-05
CGA:  13    -0.425081598413E+03   -0.24008E-05   -0.14642E-04  6480   0.513E-04-0.243E-04
CGA:  14    -0.425081611369E+03   -0.12957E-04   -0.12921E-04  6480   0.938E-05-0.132E-05
CGA:  15    -0.425081613921E+03   -0.25516E-05   -0.25501E-05  6480   0.149E-05 0.134E-05
  19 F= -.42508161E+03 E0= -.42508161E+03  d E =-.552277E-02  mag=    18.0000
       N       E                     dE             d eps       ncg     rms          ort
SDA:   1    -0.424654334803E+03    0.42728E+00    0.00000E+00  6480   0.117E+01 0.000E+00
CGA:   2    -0.424941935581E+03   -0.28760E+00   -0.28763E+00  6480   0.606E+00 0.356E-03
CGA:   3    -0.425046728260E+03   -0.10479E+00   -0.10497E+00  6480   0.148E+00 0.158E-02
CGA:   4    -0.425072082542E+03   -0.25354E-01   -0.25410E-01  6480   0.339E-01 0.476E-03
CGA:   5    -0.425077935109E+03   -0.58526E-02   -0.58548E-02  6480   0.825E-02 0.923E-05
CGA:   6    -0.425079620049E+03   -0.16849E-02   -0.16842E-02  6480   0.259E-02-0.148E-04
CGA:   7    -0.425080193948E+03   -0.57390E-03   -0.57392E-03  6480   0.869E-03-0.593E-06
CGA:   8    -0.425080434819E+03   -0.24087E-03   -0.24085E-03  6480   0.402E-03 0.887E-06
CGA:   9    -0.425080554048E+03   -0.11923E-03   -0.11893E-03  6480   0.171E-03 0.783E-05
CGA:  10    -0.425080603806E+03   -0.49758E-04   -0.49418E-04  6480   0.643E-04 0.141E-04
CGA:  11    -0.425080627326E+03   -0.23520E-04   -0.23795E-04  6480   0.319E-04-0.348E-05
CGA:  12    -0.425080639435E+03   -0.12109E-04   -0.14646E-04  6480   0.286E-04-0.115E-04
CGA:  13    -0.425080642631E+03   -0.31955E-05   -0.11807E-04  6480   0.404E-04-0.232E-04
CGA:  14    -0.425080654872E+03   -0.12241E-04   -0.12332E-04  6480   0.134E-04-0.847E-05
CGA:  15    -0.425080656205E+03   -0.13325E-05   -0.18624E-05  6480   0.399E-05 0.444E-05
  20 F= -.42508066E+03 E0= -.42508066E+03  d E =0.957716E-03  mag=    18.0000
       N       E                     dE             d eps       ncg     rms          ort
SDA:   1    -0.425052455338E+03    0.28200E-01    0.00000E+00  6480   0.770E-01 0.000E+00
CGA:   2    -0.425075673371E+03   -0.23218E-01   -0.23235E-01  6480   0.338E-01-0.887E-03
CGA:   3    -0.425081224427E+03   -0.55511E-02   -0.55937E-02  6480   0.837E-02 0.357E-03
CGA:   4    -0.425082594267E+03   -0.13698E-02   -0.13959E-02  6480   0.171E-02 0.230E-03
CGA:   5    -0.425082896223E+03   -0.30196E-03   -0.30612E-03  6480   0.461E-03 0.423E-04
CGA:   6    -0.425082988885E+03   -0.92662E-04   -0.93863E-04  6480   0.138E-03 0.175E-04
CGA:   7    -0.425083022275E+03   -0.33390E-04   -0.33342E-04  6480   0.558E-04-0.160E-05
CGA:   8    -0.425083041472E+03   -0.19197E-04   -0.23981E-04  6480   0.689E-04-0.277E-04
CGA:   9    -0.425083048879E+03   -0.74078E-05   -0.70500E-05  6480   0.369E-04-0.534E-05
  21 F= -.42508305E+03 E0= -.42508305E+03  d E =-.239267E-02  mag=    18.0000
       N       E                     dE             d eps       ncg     rms          ort
SDA:   1    -0.424153900894E+03    0.92914E+00    0.00000E+00  6480   0.247E+01 0.000E+00
CGA:   2    -0.424823532031E+03   -0.66963E+00   -0.66964E+00  6480   0.118E+01-0.183E-02
CGA:   3    -0.425027803856E+03   -0.20427E+00   -0.20411E+00  6480   0.292E+00-0.231E-02
CGA:   4    -0.425077766773E+03   -0.49963E-01   -0.49959E-01  6480   0.655E-01-0.996E-04
CGA:   5    -0.425088837538E+03   -0.11071E-01   -0.11100E-01  6480   0.163E-01 0.331E-03
CGA:   6    -0.425092155850E+03   -0.33183E-02   -0.33232E-02  6480   0.510E-02 0.103E-03
CGA:   7    -0.425093312431E+03   -0.11566E-02   -0.11551E-02  6480   0.188E-02-0.736E-04
CGA:   8    -0.425093851961E+03   -0.53953E-03   -0.54418E-03  6480   0.101E-02-0.965E-04
CGA:   9    -0.425094147374E+03   -0.29541E-03   -0.29941E-03  6480   0.487E-03-0.610E-04
CGA:  10    -0.425094286314E+03   -0.13894E-03   -0.14002E-03  6480   0.197E-03-0.198E-04
CGA:  11    -0.425094339601E+03   -0.53287E-04   -0.52855E-04  6480   0.707E-04 0.159E-04
CGA:  12    -0.425094366591E+03   -0.26990E-04   -0.26854E-04  6480   0.384E-04 0.135E-05
CGA:  13    -0.425094381265E+03   -0.14674E-04   -0.14565E-04  6480   0.203E-04 0.933E-06
CGA:  14    -0.425094384963E+03   -0.36982E-05   -0.42484E-05  6480   0.784E-05 0.900E-05
  22 F= -.42509438E+03 E0= -.42509438E+03  d E =-.113361E-01  mag=    18.0000
       N       E                     dE             d eps       ncg     rms          ort
SDA:   1    -0.406733377864E+03    0.18361E+02    0.00000E+00  6480   0.493E+02 0.000E+00
CGA:   2    -0.419556773110E+03   -0.12823E+02   -0.12823E+02  6480   0.239E+02 0.153E+00
CGA:   3    -0.423753571424E+03   -0.41968E+01   -0.42009E+01  6480   0.583E+01 0.312E-01
CGA:   4    -0.424759952088E+03   -0.10064E+01   -0.10057E+01  6480   0.135E+01-0.305E-02
CGA:   5    -0.424993409337E+03   -0.23346E+00   -0.23363E+00  6480   0.343E+00 0.649E-03
CGA:   6    -0.425064479055E+03   -0.71070E-01   -0.71117E-01  6480   0.112E+00 0.951E-03
CGA:   7    -0.425089937747E+03   -0.25459E-01   -0.25460E-01  6480   0.416E-01 0.610E-05
CGA:   8    -0.425101836030E+03   -0.11898E-01   -0.11906E-01  6480   0.204E-01-0.199E-03
CGA:   9    -0.425107957761E+03   -0.61217E-02   -0.61386E-02  6480   0.898E-02-0.306E-03
CGA:  10    -0.425110671307E+03   -0.27135E-02   -0.27360E-02  6480   0.366E-02-0.374E-03
CGA:  11    -0.425111740121E+03   -0.10688E-02   -0.10665E-02  6480   0.143E-02 0.408E-04
CGA:  12    -0.425112256709E+03   -0.51659E-03   -0.51312E-03  6480   0.729E-03 0.332E-04
CGA:  13    -0.425112545469E+03   -0.28876E-03   -0.28594E-03  6480   0.378E-03 0.220E-04
CGA:  14    -0.425112656653E+03   -0.11118E-03   -0.10963E-03  6480   0.125E-03 0.957E-04
CGA:  15    -0.425112705720E+03   -0.49067E-04   -0.48385E-04  6480   0.441E-04 0.156E-04
CGA:  16    -0.425112518421E+03    0.18730E-03   -0.10169E-03  6480   0.830E-03-0.190E-03
CGA:  17    -0.425112670622E+03   -0.15220E-03   -0.18667E-03  6480   0.958E-04 0.130E-03
CGA:  18    -0.425112728176E+03   -0.57554E-04   -0.72792E-04  6480   0.121E-03-0.845E-04
CGA:  19    -0.425112726943E+03    0.12336E-05   -0.17924E-04  6480   0.309E-04 0.568E-04
  23 F= -.42511273E+03 E0= -.42511273E+03  d E =-.183420E-01  mag=    18.0000
       N       E                     dE             d eps       ncg     rms          ort
SDA:   1    -0.424413391966E+03    0.69934E+00    0.00000E+00  6480   0.203E+01 0.000E+00
CGA:   2    -0.424860796092E+03   -0.44740E+00   -0.44763E+00  6480   0.105E+01 0.119E-03
CGA:   3    -0.425054217108E+03   -0.19342E+00   -0.19410E+00  6480   0.286E+00 0.247E-02
CGA:   4    -0.425102448604E+03   -0.48231E-01   -0.48475E-01  6480   0.684E-01 0.901E-03
CGA:   5    -0.425114403003E+03   -0.11954E-01   -0.11976E-01  6480   0.170E-01 0.722E-04
CGA:   6    -0.425117736431E+03   -0.33334E-02   -0.33280E-02  6480   0.529E-02-0.319E-04
CGA:   7    -0.425118889090E+03   -0.11527E-02   -0.11592E-02  6480   0.177E-02 0.365E-04
CGA:   8    -0.425119302319E+03   -0.41323E-03   -0.42731E-03  6480   0.667E-03 0.975E-04
CGA:   9    -0.425119478071E+03   -0.17575E-03   -0.18457E-03  6480   0.261E-03 0.768E-04
CGA:  10    -0.425119560804E+03   -0.82733E-04   -0.84643E-04  6480   0.115E-03 0.238E-04
CGA:  11    -0.425119601317E+03   -0.40514E-04   -0.40666E-04  6480   0.545E-04 0.349E-05
CGA:  12    -0.425119617216E+03   -0.15899E-04   -0.16421E-04  6480   0.221E-04 0.714E-05
CGA:  13    -0.425119624331E+03   -0.71148E-05   -0.74013E-05  6480   0.961E-05 0.433E-05
  24 F= -.42511962E+03 E0= -.42511962E+03  d E =-.689739E-02  mag=    18.0000
       N       E                     dE             d eps       ncg     rms          ort
SDA:   1    -0.423167135098E+03    0.19525E+01    0.00000E+00  6480   0.518E+01 0.000E+00
CGA:   2    -0.424538189236E+03   -0.13711E+01   -0.13717E+01  6480   0.254E+01 0.229E-02
CGA:   3    -0.424977952874E+03   -0.43976E+00   -0.44012E+00  6480   0.605E+00 0.328E-02
CGA:   4    -0.425082951044E+03   -0.10500E+00   -0.10500E+00  6480   0.139E+00-0.277E-03
CGA:   5    -0.425106754237E+03   -0.23803E-01   -0.23770E-01  6480   0.346E-01-0.242E-03
CGA:   6    -0.425113791345E+03   -0.70371E-02   -0.70495E-02  6480   0.108E-01 0.891E-04
CGA:   7    -0.425116162878E+03   -0.23715E-02   -0.23819E-02  6480   0.379E-02 0.961E-04
CGA:   8    -0.425117246129E+03   -0.10833E-02   -0.10836E-02  6480   0.187E-02 0.925E-05
CGA:   9    -0.425117822088E+03   -0.57596E-03   -0.57596E-03  6480   0.873E-03-0.454E-06
CGA:  10    -0.425118084384E+03   -0.26230E-03   -0.26255E-03  6480   0.352E-03 0.166E-04
CGA:  11    -0.425118203635E+03   -0.11925E-03   -0.11955E-03  6480   0.162E-03-0.165E-04
CGA:  12    -0.425118260278E+03   -0.56643E-04   -0.56959E-04  6480   0.844E-04-0.600E-05
CGA:  13    -0.425118294471E+03   -0.34193E-04   -0.36266E-04  6480   0.533E-04-0.163E-04
CGA:  14    -0.425118298637E+03   -0.41658E-05   -0.34807E-04  6480   0.120E-03-0.633E-04
CGA:  15    -0.425118317154E+03   -0.18517E-04   -0.22738E-04  6480   0.148E-04 0.265E-04
CGA:  16    -0.425118320894E+03   -0.37404E-05   -0.42918E-05  6480   0.536E-05 0.528E-05
  25 F= -.42511832E+03 E0= -.42511832E+03  d E =0.130344E-02  mag=    18.0000
       N       E                     dE             d eps       ncg     rms          ort
SDA:   1    -0.424912641944E+03    0.20568E+00    0.00000E+00  6480   0.569E+00 0.000E+00
CGA:   2    -0.425054320857E+03   -0.14168E+00   -0.14171E+00  6480   0.263E+00 0.481E-04
CGA:   3    -0.425101932218E+03   -0.47611E-01   -0.47639E-01  6480   0.670E-01 0.111E-03
CGA:   4    -0.425113790528E+03   -0.11858E-01   -0.11872E-01  6480   0.157E-01 0.622E-04
CGA:   5    -0.425116417237E+03   -0.26267E-02   -0.26435E-02  6480   0.384E-02 0.107E-03
CGA:   6    -0.425117190425E+03   -0.77319E-03   -0.78507E-03  6480   0.121E-02 0.111E-03
CGA:   7    -0.425117468842E+03   -0.27842E-03   -0.28038E-03  6480   0.455E-03 0.244E-04
CGA:   8    -0.425117614063E+03   -0.14522E-03   -0.14571E-03  6480   0.266E-03-0.353E-04
CGA:   9    -0.425117686196E+03   -0.72133E-04   -0.72116E-04  6480   0.116E-03-0.277E-05
CGA:  10    -0.425117715380E+03   -0.29184E-04   -0.29775E-04  6480   0.415E-04 0.146E-04
CGA:  11    -0.425117729886E+03   -0.14505E-04   -0.14482E-04  6480   0.199E-04 0.189E-05
CGA:  12    -0.425117737583E+03   -0.76973E-05   -0.77645E-05  6480   0.122E-04-0.933E-06
CGA:  13    -0.425117737628E+03   -0.45347E-07   -0.10297E-04  6480   0.423E-04-0.175E-04
CGA:  14    -0.425117750344E+03   -0.12716E-04   -0.12300E-04  6480   0.978E-05-0.101E-04
CGA:  15    -0.425117750504E+03   -0.16007E-06   -0.97604E-06  6480   0.351E-05 0.411E-05
  26 F= -.42511775E+03 E0= -.42511775E+03  d E =0.570390E-03  mag=    18.0000
       N       E                     dE             d eps       ncg     rms          ort
SDA:   1    -0.425066750025E+03    0.51000E-01    0.00000E+00  6480   0.139E+00 0.000E+00
CGA:   2    -0.425103140904E+03   -0.36391E-01   -0.36371E-01  6480   0.749E-01-0.489E-03
CGA:   3    -0.425115949886E+03   -0.12809E-01   -0.12814E-01  6480   0.167E-01 0.135E-04
CGA:   4    -0.425118748965E+03   -0.27991E-02   -0.28186E-02  6480   0.384E-02 0.144E-03
CGA:   5    -0.425119427750E+03   -0.67879E-03   -0.68130E-03  6480   0.969E-03 0.203E-04
CGA:   6    -0.425119639359E+03   -0.21161E-03   -0.20717E-03  6480   0.329E-03-0.601E-04
CGA:   7    -0.425119715046E+03   -0.75687E-04   -0.73901E-04  6480   0.132E-03-0.412E-04
CGA:   8    -0.425119744535E+03   -0.29490E-04   -0.29395E-04  6480   0.522E-04-0.362E-05
CGA:   9    -0.425119757875E+03   -0.13340E-04   -0.13399E-04  6480   0.187E-04 0.366E-05
CGA:  10    -0.425119765203E+03   -0.73277E-05   -0.95682E-05  6480   0.231E-04-0.113E-04
  27 F= -.42511977E+03 E0= -.42511977E+03  d E =-.201470E-02  mag=    18.0000
       N       E                     dE             d eps       ncg     rms          ort
SDA:   1    -0.424898951587E+03    0.22081E+00    0.00000E+00  6480   0.582E+00 0.000E+00
CGA:   2    -0.425056644461E+03   -0.15769E+00   -0.15768E+00  6480   0.301E+00-0.994E-03
CGA:   3    -0.425107054239E+03   -0.50410E-01   -0.50368E-01  6480   0.692E-01-0.478E-03
CGA:   4    -0.425118840319E+03   -0.11786E-01   -0.11806E-01  6480   0.156E-01 0.167E-03
CGA:   5    -0.425121545268E+03   -0.27049E-02   -0.27156E-02  6480   0.387E-02 0.102E-03
CGA:   6    -0.425122348508E+03   -0.80324E-03   -0.79979E-03  6480   0.122E-02-0.575E-04
CGA:   7    -0.425122626276E+03   -0.27777E-03   -0.27581E-03  6480   0.452E-03-0.579E-04
CGA:   8    -0.425122741834E+03   -0.11556E-03   -0.11556E-03  6480   0.202E-03-0.116E-06
CGA:   9    -0.425122801049E+03   -0.59215E-04   -0.59013E-04  6480   0.863E-04 0.684E-05
CGA:  10    -0.425122833028E+03   -0.31979E-04   -0.34845E-04  6480   0.590E-04-0.227E-04
CGA:  11    -0.425122844613E+03   -0.11585E-04   -0.11584E-04  6480   0.230E-04-0.223E-06
CGA:  12    -0.425122850414E+03   -0.58009E-05   -0.58402E-05  6480   0.999E-05 0.255E-05
  28 F= -.42512285E+03 E0= -.42512285E+03  d E =-.308521E-02  mag=    18.0000
       N       E                     dE             d eps       ncg     rms          ort
SDA:   1    -0.406344322182E+03    0.18779E+02    0.00000E+00  6480   0.480E+02 0.000E+00
CGA:   2    -0.420141885693E+03   -0.13798E+02   -0.13795E+02  6480   0.227E+02 0.749E-01
CGA:   3    -0.423849712496E+03   -0.37078E+01   -0.37141E+01  6480   0.543E+01 0.442E-01
CGA:   4    -0.424790425421E+03   -0.94071E+00   -0.94075E+00  6480   0.124E+01 0.344E-02
CGA:   5    -0.425008296490E+03   -0.21787E+00   -0.21812E+00  6480   0.329E+00 0.158E-02
CGA:   6    -0.425075828494E+03   -0.67532E-01   -0.67584E-01  6480   0.105E+00 0.710E-03
CGA:   7    -0.425099991833E+03   -0.24163E-01   -0.24159E-01  6480   0.399E-01-0.243E-03
CGA:   8    -0.425111365177E+03   -0.11373E-01   -0.11380E-01  6480   0.193E-01-0.210E-03
CGA:   9    -0.425117039705E+03   -0.56745E-02   -0.56748E-02  6480   0.801E-02-0.141E-04
CGA:  10    -0.425119445245E+03   -0.24055E-02   -0.24157E-02  6480   0.312E-02-0.230E-03
CGA:  11    -0.425120388687E+03   -0.94344E-03   -0.94678E-03  6480   0.127E-02-0.657E-04
CGA:  12    -0.425120832105E+03   -0.44342E-03   -0.44109E-03  6480   0.644E-03 0.237E-04
CGA:  13    -0.425121105434E+03   -0.27333E-03   -0.27810E-03  6480   0.389E-03-0.312E-04
CGA:  14    -0.425121228345E+03   -0.12291E-03   -0.12073E-03  6480   0.135E-03 0.417E-04
CGA:  15    -0.425121275810E+03   -0.47465E-04   -0.47084E-04  6480   0.421E-04 0.988E-05
CGA:  16    -0.425121282471E+03   -0.66607E-05   -0.35904E-04  6480   0.112E-03-0.568E-04
CGA:  17    -0.425121297300E+03   -0.14829E-04   -0.19651E-04  6480   0.175E-04 0.375E-04
CGA:  18    -0.425121301767E+03   -0.44672E-05   -0.49210E-05  6480   0.444E-05 0.514E-05
  29 F= -.42512130E+03 E0= -.42512130E+03  d E =0.154865E-02  mag=    18.0000
       N       E                     dE             d eps       ncg     rms          ort
SDA:   1    -0.424096240398E+03    0.10251E+01    0.00000E+00  6480   0.269E+01 0.000E+00
CGA:   2    -0.424811851485E+03   -0.71561E+00   -0.71562E+00  6480   0.138E+01-0.102E-02
CGA:   3    -0.425051468067E+03   -0.23962E+00   -0.23978E+00  6480   0.326E+00 0.323E-03
CGA:   4    -0.425106888014E+03   -0.55420E-01   -0.55513E-01  6480   0.783E-01 0.822E-03
CGA:   5    -0.425120337916E+03   -0.13450E-01   -0.13564E-01  6480   0.198E-01 0.103E-02
CGA:   6    -0.425124276247E+03   -0.39383E-02   -0.39842E-02  6480   0.625E-02 0.594E-03
CGA:   7    -0.425125766179E+03   -0.14899E-02   -0.14908E-02  6480   0.237E-02 0.183E-04
CGA:   8    -0.425126446006E+03   -0.67983E-03   -0.68155E-03  6480   0.121E-02-0.102E-03
CGA:   9    -0.425126761438E+03   -0.31543E-03   -0.31531E-03  6480   0.479E-03 0.709E-04
CGA:  10    -0.425126883300E+03   -0.12186E-03   -0.12446E-03  6480   0.173E-03 0.103E-03
CGA:  11    -0.425126938766E+03   -0.55467E-04   -0.55672E-04  6480   0.792E-04 0.429E-04
CGA:  12    -0.425126974053E+03   -0.35287E-04   -0.34917E-04  6480   0.525E-04 0.426E-05
CGA:  13    -0.425126989368E+03   -0.15315E-04   -0.40014E-04  6480   0.111E-03-0.550E-04
CGA:  14    -0.425127016802E+03   -0.27433E-04   -0.27375E-04  6480   0.180E-04-0.122E-05
CGA:  15    -0.425127018512E+03   -0.17099E-05   -0.28958E-05  6480   0.596E-05 0.905E-05
  30 F= -.42512702E+03 E0= -.42512702E+03  d E =-.571674E-02  mag=    18.0000
       N       E                     dE             d eps       ncg     rms          ort
SDA:   1    -0.420055420043E+03    0.50716E+01    0.00000E+00  6480   0.127E+02 0.000E+00
CGA:   2    -0.423861636156E+03   -0.38062E+01   -0.38059E+01  6480   0.585E+01 0.111E-01
CGA:   3    -0.424807910583E+03   -0.94627E+00   -0.94670E+00  6480   0.141E+01 0.260E-02
CGA:   4    -0.425051515321E+03   -0.24360E+00   -0.24343E+00  6480   0.312E+00-0.223E-02
CGA:   5    -0.425106460001E+03   -0.54945E-01   -0.54824E-01  6480   0.827E-01-0.134E-02
CGA:   6    -0.425123091637E+03   -0.16632E-01   -0.16617E-01  6480   0.247E-01-0.248E-03
CGA:   7    -0.425128591146E+03   -0.54995E-02   -0.55115E-02  6480   0.893E-02 0.275E-03
CGA:   8    -0.425131145551E+03   -0.25544E-02   -0.25518E-02  6480   0.438E-02 0.131E-03
CGA:   9    -0.425132563141E+03   -0.14176E-02   -0.14276E-02  6480   0.217E-02-0.177E-03
CGA:  10    -0.425133203391E+03   -0.64025E-03   -0.64523E-03  6480   0.906E-03-0.117E-03
CGA:  11    -0.425133468648E+03   -0.26526E-03   -0.26696E-03  6480   0.363E-03-0.411E-04
CGA:  12    -0.425133596775E+03   -0.12813E-03   -0.12990E-03  6480   0.195E-03-0.175E-04
CGA:  13    -0.425133662366E+03   -0.65591E-04   -0.64133E-04  6480   0.872E-04 0.209E-04
CGA:  14    -0.425133698270E+03   -0.35904E-04   -0.35760E-04  6480   0.363E-04 0.150E-05
CGA:  15    -0.425133712193E+03   -0.13924E-04   -0.14293E-04  6480   0.135E-04-0.363E-05
CGA:  16    -0.425133713858E+03   -0.16645E-05   -0.22417E-05  6480   0.516E-05 0.552E-05
  31 F= -.42513371E+03 E0= -.42513371E+03  d E =-.669535E-02  mag=    18.0000
       N       E                     dE             d eps       ncg     rms          ort
SDA:   1    -0.424397139279E+03    0.73657E+00    0.00000E+00  6480   0.187E+01 0.000E+00
CGA:   2    -0.424928654890E+03   -0.53152E+00   -0.53150E+00  6480   0.923E+00 0.185E-02
CGA:   3    -0.425081883423E+03   -0.15323E+00   -0.15320E+00  6480   0.211E+00-0.544E-03
CGA:   4    -0.425118441622E+03   -0.36558E-01   -0.36521E-01  6480   0.500E-01-0.480E-03
CGA:   5    -0.425127160579E+03   -0.87190E-02   -0.86920E-02  6480   0.128E-01-0.303E-03
CGA:   6    -0.425129754516E+03   -0.25939E-02   -0.25838E-02  6480   0.400E-02-0.171E-03
CGA:   7    -0.425130633384E+03   -0.87887E-03   -0.87769E-03  6480   0.139E-02-0.325E-04
CGA:   8    -0.425131006005E+03   -0.37262E-03   -0.37230E-03  6480   0.617E-03 0.300E-04
CGA:   9    -0.425131201807E+03   -0.19580E-03   -0.19683E-03  6480   0.288E-03-0.195E-04
CGA:  10    -0.425131289198E+03   -0.87391E-04   -0.88410E-04  6480   0.125E-03-0.185E-04
CGA:  11    -0.425131325616E+03   -0.36418E-04   -0.36791E-04  6480   0.512E-04-0.737E-05
CGA:  12    -0.425131344972E+03   -0.19355E-04   -0.22474E-04  6480   0.420E-04-0.157E-04
CGA:  13    -0.425131351942E+03   -0.69709E-05   -0.71890E-05  6480   0.191E-04 0.714E-05
  32 F= -.42513135E+03 E0= -.42513135E+03  d E =0.236192E-02  mag=    18.0000
       N       E                     dE             d eps       ncg     rms          ort
SDA:   1    -0.424863115280E+03    0.26823E+00    0.00000E+00  6480   0.684E+00 0.000E+00
CGA:   2    -0.425064196664E+03   -0.20108E+00   -0.20111E+00  6480   0.326E+00-0.156E-02
CGA:   3    -0.425116852242E+03   -0.52656E-01   -0.52694E-01  6480   0.772E-01 0.183E-03
CGA:   4    -0.425130209725E+03   -0.13357E-01   -0.13383E-01  6480   0.177E-01 0.251E-03
CGA:   5    -0.425133221487E+03   -0.30118E-02   -0.30334E-02  6480   0.445E-02 0.232E-03
CGA:   6    -0.425134096872E+03   -0.87539E-03   -0.88448E-03  6480   0.132E-02 0.146E-03
CGA:   7    -0.425134405913E+03   -0.30904E-03   -0.30931E-03  6480   0.478E-03 0.903E-05
CGA:   8    -0.425134552469E+03   -0.14656E-03   -0.14926E-03  6480   0.272E-03-0.475E-04
CGA:   9    -0.425134618860E+03   -0.66391E-04   -0.66267E-04  6480   0.104E-03 0.854E-05
CGA:  10    -0.425134647285E+03   -0.28425E-04   -0.28346E-04  6480   0.373E-04 0.105E-04
CGA:  11    -0.425134660108E+03   -0.12823E-04   -0.12830E-04  6480   0.177E-04-0.161E-06
CGA:  12    -0.425134664401E+03   -0.42937E-05   -0.43545E-05  6480   0.798E-05 0.496E-05
  33 F= -.42513466E+03 E0= -.42513466E+03  d E =-.331246E-02  mag=    18.0000
       N       E                     dE             d eps       ncg     rms          ort
SDA:   1    -0.425075964428E+03    0.58696E-01    0.00000E+00  6480   0.156E+00 0.000E+00
CGA:   2    -0.425118089240E+03   -0.42125E-01   -0.42127E-01  6480   0.793E-01-0.709E-03
CGA:   3    -0.425131541469E+03   -0.13452E-01   -0.13418E-01  6480   0.184E-01-0.389E-03
CGA:   4    -0.425134675976E+03   -0.31345E-02   -0.31394E-02  6480   0.423E-02 0.489E-04
CGA:   5    -0.425135372128E+03   -0.69615E-03   -0.70722E-03  6480   0.101E-02 0.120E-03
CGA:   6    -0.425135573789E+03   -0.20166E-03   -0.20420E-03  6480   0.300E-03 0.442E-04
CGA:   7    -0.425135652785E+03   -0.78995E-04   -0.79058E-04  6480   0.132E-03-0.312E-04
CGA:   8    -0.425135690158E+03   -0.37374E-04   -0.40740E-04  6480   0.964E-04-0.360E-04
CGA:   9    -0.425135708302E+03   -0.18144E-04   -0.18158E-04  6480   0.383E-04-0.417E-05
CGA:  10    -0.425135716896E+03   -0.85937E-05   -0.86732E-05  6480   0.144E-04 0.418E-05
  34 F= -.42513572E+03 E0= -.42513572E+03  d E =-.105249E-02  mag=    18.0000
       N       E                     dE             d eps       ncg     rms          ort
SDA:   1    -0.417176133945E+03    0.79596E+01    0.00000E+00  6480   0.213E+02 0.000E+00
CGA:   2    -0.422475426651E+03   -0.52993E+01   -0.52996E+01  6480   0.116E+02 0.332E-01
CGA:   3    -0.424547928065E+03   -0.20725E+01   -0.20740E+01  6480   0.258E+01 0.832E-02
CGA:   4    -0.424978434995E+03   -0.43051E+00   -0.43055E+00  6480   0.607E+00 0.130E-02
CGA:   5    -0.425084781223E+03   -0.10635E+00   -0.10651E+00  6480   0.153E+00 0.192E-02
CGA:   6    -0.425115507471E+03   -0.30726E-01   -0.30766E-01  6480   0.470E-01 0.877E-03
CGA:   7    -0.425126149771E+03   -0.10642E-01   -0.10638E-01  6480   0.165E-01-0.357E-03
CGA:   8    -0.425130662900E+03   -0.45131E-02   -0.45229E-02  6480   0.768E-02-0.266E-03
CGA:   9    -0.425132863872E+03   -0.22010E-02   -0.21969E-02  6480   0.324E-02 0.783E-04
CGA:  10    -0.425133838626E+03   -0.97475E-03   -0.97265E-03  6480   0.128E-02 0.368E-04
CGA:  11    -0.425134232826E+03   -0.39420E-03   -0.39104E-03  6480   0.504E-03 0.558E-04
CGA:  12    -0.425134412482E+03   -0.17966E-03   -0.17746E-03  6480   0.248E-03 0.240E-04
CGA:  13    -0.425134523439E+03   -0.11096E-03   -0.12280E-03  6480   0.199E-03-0.542E-04
CGA:  14    -0.425134562184E+03   -0.38745E-04   -0.39158E-04  6480   0.839E-04 0.325E-04
CGA:  15    -0.425134580137E+03   -0.17953E-04   -0.19551E-04  6480   0.281E-04 0.254E-04
CGA:  16    -0.425134592350E+03   -0.12213E-04   -0.12986E-04  6480   0.157E-04-0.815E-05
CGA:  17    -0.425134521572E+03    0.70778E-04   -0.38130E-04  6480   0.259E-03-0.620E-04
CGA:  18    -0.425134583205E+03   -0.61633E-04   -0.65969E-04  6480   0.469E-04 0.189E-04
CGA:  19    -0.425134605839E+03   -0.22634E-04   -0.22276E-04  6480   0.212E-04-0.125E-04
CGA:  20    -0.425134606697E+03   -0.85866E-06   -0.27161E-05  6480   0.762E-05 0.628E-05
  35 F= -.42513461E+03 E0= -.42513461E+03  d E =0.111020E-02  mag=    18.0000
       N       E                     dE             d eps       ncg     rms          ort
SDA:   1    -0.419967672128E+03    0.51669E+01    0.00000E+00  6480   0.128E+02 0.000E+00
CGA:   2    -0.423760932372E+03   -0.37933E+01   -0.37943E+01  6480   0.652E+01-0.418E-02
CGA:   3    -0.424799998818E+03   -0.10391E+01   -0.10399E+01  6480   0.135E+01 0.212E-01
CGA:   4    -0.425033303962E+03   -0.23331E+00   -0.23352E+00  6480   0.319E+00 0.132E-02
CGA:   5    -0.425089913223E+03   -0.56609E-01   -0.56733E-01  6480   0.823E-01 0.324E-03
CGA:   6    -0.425106359819E+03   -0.16447E-01   -0.16456E-01  6480   0.245E-01 0.158E-04
CGA:   7    -0.425111968992E+03   -0.56092E-02   -0.55781E-02  6480   0.894E-02-0.207E-03
CGA:   8    -0.425114446728E+03   -0.24777E-02   -0.24702E-02  6480   0.417E-02-0.802E-04
CGA:   9    -0.425115690087E+03   -0.12434E-02   -0.12461E-02  6480   0.184E-02 0.372E-04
CGA:  10    -0.425116259892E+03   -0.56980E-03   -0.56814E-03  6480   0.739E-03-0.273E-04
CGA:  11    -0.425116477945E+03   -0.21805E-03   -0.21940E-03  6480   0.292E-03 0.204E-04
CGA:  12    -0.425116574386E+03   -0.96441E-04   -0.97698E-04  6480   0.138E-03 0.343E-04
CGA:  13    -0.425116645644E+03   -0.71257E-04   -0.74529E-04  6480   0.119E-03-0.269E-04
CGA:  14    -0.425116671841E+03   -0.26197E-04   -0.27189E-04  6480   0.491E-04 0.118E-04
CGA:  15    -0.425116679004E+03   -0.71636E-05   -0.10126E-04  6480   0.169E-04 0.169E-04
  36 F= -.42511668E+03 E0= -.42511668E+03  d E =0.179277E-01  mag=    18.0000
       N       E                     dE             d eps       ncg     rms          ort
SDA:   1    -0.417485537773E+03    0.76311E+01    0.00000E+00  6480   0.195E+02 0.000E+00
CGA:   2    -0.422843164595E+03   -0.53576E+01   -0.53616E+01  6480   0.106E+02 0.184E-01
CGA:   3    -0.424641141002E+03   -0.17980E+01   -0.18006E+01  6480   0.214E+01 0.256E-01
CGA:   4    -0.425006398645E+03   -0.36526E+00   -0.36494E+00  6480   0.516E+00-0.192E-03
CGA:   5    -0.425098075241E+03   -0.91677E-01   -0.91558E-01  6480   0.134E+00-0.980E-03
CGA:   6    -0.425124589830E+03   -0.26515E-01   -0.26543E-01  6480   0.400E-01 0.187E-03
CGA:   7    -0.425133390078E+03   -0.88002E-02   -0.88560E-02  6480   0.139E-01 0.598E-03
CGA:   8    -0.425137192187E+03   -0.38021E-02   -0.38150E-02  6480   0.622E-02 0.342E-03
CGA:   9    -0.425139163165E+03   -0.19710E-02   -0.19712E-02  6480   0.293E-02-0.618E-04
CGA:  10    -0.425140056821E+03   -0.89366E-03   -0.89385E-03  6480   0.121E-02-0.101E-03
CGA:  11    -0.425140423766E+03   -0.36694E-03   -0.36727E-03  6480   0.487E-03-0.431E-04
CGA:  12    -0.425140597877E+03   -0.17411E-03   -0.17690E-03  6480   0.266E-03-0.403E-04
CGA:  13    -0.425140686141E+03   -0.88263E-04   -0.87730E-04  6480   0.127E-03 0.105E-04
CGA:  14    -0.425140739492E+03   -0.53351E-04   -0.55047E-04  6480   0.639E-04-0.161E-04
CGA:  15    -0.425140760680E+03   -0.21189E-04   -0.31153E-04  6480   0.603E-04-0.414E-04
CGA:  16    -0.425140768509E+03   -0.78288E-05   -0.10585E-04  6480   0.102E-04 0.179E-04
  37 F= -.42514077E+03 E0= -.42514077E+03  d E =-.240895E-01  mag=    18.0000
       N       E                     dE             d eps       ncg     rms          ort
SDA:   1    -0.421977029192E+03    0.31637E+01    0.00000E+00  6480   0.771E+01 0.000E+00
CGA:   2    -0.424449904901E+03   -0.24729E+01   -0.24728E+01  6480   0.271E+01 0.271E-02
CGA:   3    -0.424936919374E+03   -0.48701E+00   -0.48667E+00  6480   0.768E+00-0.382E-02
CGA:   4    -0.425063183468E+03   -0.12626E+00   -0.12601E+00  6480   0.163E+00-0.154E-02
CGA:   5    -0.425092257723E+03   -0.29074E-01   -0.29048E-01  6480   0.460E-01-0.222E-03
CGA:   6    -0.425101296026E+03   -0.90383E-02   -0.90529E-02  6480   0.141E-01 0.131E-03
CGA:   7    -0.425104515744E+03   -0.32197E-02   -0.32203E-02  6480   0.542E-02 0.620E-05
CGA:   8    -0.425106074871E+03   -0.15591E-02   -0.15594E-02  6480   0.283E-02-0.246E-03
CGA:   9    -0.425106916434E+03   -0.84156E-03   -0.84677E-03  6480   0.133E-02-0.198E-03
CGA:  10    -0.425107299974E+03   -0.38354E-03   -0.38669E-03  6480   0.545E-03-0.127E-03
CGA:  11    -0.425107457861E+03   -0.15789E-03   -0.15964E-03  6480   0.236E-03-0.514E-04
CGA:  12    -0.425107521651E+03   -0.63790E-04   -0.63594E-04  6480   0.984E-04 0.313E-04
CGA:  13    -0.425107555213E+03   -0.33562E-04   -0.33366E-04  6480   0.461E-04 0.244E-04
CGA:  14    -0.425107573851E+03   -0.18638E-04   -0.18336E-04  6480   0.199E-04 0.113E-04
CGA:  15    -0.425107579587E+03   -0.57360E-05   -0.61396E-05  6480   0.719E-05 0.882E-05
  38 F= -.42510758E+03 E0= -.42510758E+03  d E =0.331889E-01  mag=    18.0000
       N       E                     dE             d eps       ncg     rms          ort
SDA:   1    -0.422729482637E+03    0.23781E+01    0.00000E+00  6480   0.585E+01 0.000E+00
CGA:   2    -0.424627886281E+03   -0.18984E+01   -0.18985E+01  6480   0.231E+01-0.484E-02
CGA:   3    -0.425012535210E+03   -0.38465E+00   -0.38511E+00  6480   0.579E+00 0.273E-02
CGA:   4    -0.425110802835E+03   -0.98268E-01   -0.98536E-01  6480   0.127E+00 0.214E-02
CGA:   5    -0.425133440160E+03   -0.22637E-01   -0.22698E-01  6480   0.350E-01 0.575E-03
CGA:   6    -0.425140485032E+03   -0.70449E-02   -0.70426E-02  6480   0.107E-01-0.403E-04
CGA:   7    -0.425142939323E+03   -0.24543E-02   -0.24508E-02  6480   0.410E-02-0.877E-04
CGA:   8    -0.425144018751E+03   -0.10794E-02   -0.10799E-02  6480   0.184E-02 0.137E-03
CGA:   9    -0.425144563147E+03   -0.54440E-03   -0.54195E-03  6480   0.762E-03 0.156E-03
CGA:  10    -0.425144804407E+03   -0.24126E-03   -0.23998E-03  6480   0.303E-03 0.616E-04
CGA:  11    -0.425144906417E+03   -0.10201E-03   -0.10130E-03  6480   0.135E-03 0.185E-04
CGA:  12    -0.425144962649E+03   -0.56231E-04   -0.57754E-04  6480   0.906E-04-0.118E-04
CGA:  13    -0.425144997370E+03   -0.34721E-04   -0.45191E-04  6480   0.887E-04-0.394E-04
CGA:  14    -0.425145008504E+03   -0.11134E-04   -0.11330E-04  6480   0.395E-04 0.285E-05
CGA:  15    -0.425145013270E+03   -0.47657E-05   -0.63002E-05  6480   0.149E-04 0.114E-04
  39 F= -.42514501E+03 E0= -.42514501E+03  d E =-.374337E-01  mag=    18.0000
       N       E                     dE             d eps       ncg     rms          ort
SDA:   1    -0.425025643786E+03    0.11936E+00    0.00000E+00  6480   0.290E+00 0.000E+00
CGA:   2    -0.425117883023E+03   -0.92239E-01   -0.92280E-01  6480   0.136E+00-0.102E-02
CGA:   3    -0.425139166226E+03   -0.21283E-01   -0.21369E-01  6480   0.279E-01 0.663E-03
CGA:   4    -0.425143973753E+03   -0.48075E-02   -0.48306E-02  6480   0.645E-02 0.222E-03
CGA:   5    -0.425145150058E+03   -0.11763E-02   -0.11753E-02  6480   0.171E-02-0.143E-04
CGA:   6    -0.425145487452E+03   -0.33739E-03   -0.33715E-03  6480   0.500E-03-0.425E-05
CGA:   7    -0.425145600385E+03   -0.11293E-03   -0.11247E-03  6480   0.182E-03-0.138E-04
CGA:   8    -0.425145653581E+03   -0.53197E-04   -0.54403E-04  6480   0.101E-03-0.240E-04
CGA:   9    -0.425145679099E+03   -0.25517E-04   -0.25654E-04  6480   0.414E-04-0.430E-05
CGA:  10    -0.425145687118E+03   -0.80195E-05   -0.84946E-05  6480   0.126E-04 0.998E-05
  40 F= -.42514569E+03 E0= -.42514569E+03  d E =-.673849E-03  mag=    18.0000
       N       E                     dE             d eps       ncg     rms          ort
SDA:   1    -0.424757488252E+03    0.38819E+00    0.00000E+00  6480   0.978E+00 0.000E+00
CGA:   2    -0.425039193613E+03   -0.28171E+00   -0.28176E+00  6480   0.524E+00-0.207E-02
CGA:   3    -0.425124246207E+03   -0.85053E-01   -0.85244E-01  6480   0.104E+00 0.192E-02
CGA:   4    -0.425141726485E+03   -0.17480E-01   -0.17565E-01  6480   0.240E-01 0.995E-03
CGA:   5    -0.425145999878E+03   -0.42734E-02   -0.42914E-02  6480   0.602E-02 0.248E-03
CGA:   6    -0.425147199526E+03   -0.11996E-02   -0.12050E-02  6480   0.176E-02 0.114E-03
CGA:   7    -0.425147581619E+03   -0.38209E-03   -0.38450E-03  6480   0.566E-03 0.847E-04
CGA:   8    -0.425147734543E+03   -0.15292E-03   -0.15199E-03  6480   0.242E-03 0.606E-04
CGA:   9    -0.425147808282E+03   -0.73739E-04   -0.72393E-04  6480   0.101E-03 0.470E-04
CGA:  10    -0.425147834888E+03   -0.26607E-04   -0.27298E-04  6480   0.386E-04 0.394E-04
CGA:  11    -0.425147843665E+03   -0.87767E-05   -0.10084E-04  6480   0.174E-04 0.242E-04
  41 F= -.42514784E+03 E0= -.42514784E+03  d E =-.215655E-02  mag=    18.0000
       N       E                     dE             d eps       ncg     rms          ort
SDA:   1    -0.411635525253E+03    0.13512E+02    0.00000E+00  6480   0.336E+02 0.000E+00
CGA:   2    -0.421624953604E+03   -0.99894E+01   -0.99848E+01  6480   0.165E+02 0.529E-01
CGA:   3    -0.424319017063E+03   -0.26941E+01   -0.26959E+01  6480   0.348E+01 0.345E-01
CGA:   4    -0.424920865510E+03   -0.60185E+00   -0.60209E+00  6480   0.807E+00 0.426E-02
CGA:   5    -0.425064986900E+03   -0.14412E+00   -0.14418E+00  6480   0.210E+00 0.541E-03
CGA:   6    -0.425107583569E+03   -0.42597E-01   -0.42628E-01  6480   0.648E-01 0.806E-03
CGA:   7    -0.425122043255E+03   -0.14460E-01   -0.14467E-01  6480   0.228E-01 0.550E-03
CGA:   8    -0.425128510742E+03   -0.64675E-02   -0.64644E-02  6480   0.109E-01 0.578E-04
CGA:   9    -0.425131768288E+03   -0.32575E-02   -0.32588E-02  6480   0.464E-02-0.223E-04
CGA:  10    -0.425133115028E+03   -0.13467E-02   -0.13459E-02  6480   0.166E-02 0.162E-04
CGA:  11    -0.425133603639E+03   -0.48861E-03   -0.48576E-03  6480   0.599E-03 0.577E-04
CGA:  12    -0.425133822016E+03   -0.21838E-03   -0.21552E-03  6480   0.304E-03 0.273E-04
CGA:  13    -0.425133964692E+03   -0.14268E-03   -0.16265E-03  6480   0.275E-03-0.771E-04
CGA:  14    -0.425134038723E+03   -0.74031E-04   -0.79286E-04  6480   0.129E-03-0.434E-04
CGA:  15    -0.425134062541E+03   -0.23818E-04   -0.24691E-04  6480   0.459E-04 0.208E-04
CGA:  16    -0.425134071651E+03   -0.91092E-05   -0.10270E-04  6480   0.175E-04 0.155E-04
  42 F= -.42513407E+03 E0= -.42513407E+03  d E =0.137720E-01  mag=    18.0000
       N       E                     dE             d eps       ncg     rms          ort
SDA:   1    -0.422101469547E+03    0.30326E+01    0.00000E+00  6480   0.796E+01 0.000E+00
CGA:   2    -0.424176060632E+03   -0.20746E+01   -0.20746E+01  6480   0.432E+01 0.114E-01
CGA:   3    -0.424932938666E+03   -0.75688E+00   -0.75725E+00  6480   0.927E+00-0.288E-03
CGA:   4    -0.425089506327E+03   -0.15657E+00   -0.15643E+00  6480   0.221E+00-0.141E-02
CGA:   5    -0.425128724069E+03   -0.39218E-01   -0.39212E-01  6480   0.569E-01-0.160E-03
CGA:   6    -0.425140104187E+03   -0.11380E-01   -0.11383E-01  6480   0.175E-01 0.433E-04
CGA:   7    -0.425144015575E+03   -0.39114E-02   -0.39125E-02  6480   0.604E-02 0.411E-04
CGA:   8    -0.425145633113E+03   -0.16175E-02   -0.16155E-02  6480   0.261E-02 0.897E-04
CGA:   9    -0.425146426592E+03   -0.79348E-03   -0.79341E-03  6480   0.112E-02 0.363E-06
CGA:  10    -0.425146781553E+03   -0.35496E-03   -0.36130E-03  6480   0.498E-03-0.874E-04
CGA:  11    -0.425146931024E+03   -0.14947E-03   -0.15476E-03  6480   0.222E-03-0.630E-04
CGA:  12    -0.425147000831E+03   -0.69807E-04   -0.73145E-04  6480   0.115E-03-0.278E-04
CGA:  13    -0.425147035913E+03   -0.35082E-04   -0.34548E-04  6480   0.485E-04 0.651E-05
CGA:  14    -0.425147052028E+03   -0.16116E-04   -0.15736E-04  6480   0.174E-04 0.941E-05
CGA:  15    -0.425147060685E+03   -0.86563E-05   -0.10829E-04  6480   0.152E-04-0.864E-05
  43 F= -.42514706E+03 E0= -.42514706E+03  d E =-.129890E-01  mag=    18.0000
       N       E                     dE             d eps       ncg     rms          ort
SDA:   1    -0.423364814410E+03    0.17822E+01    0.00000E+00  6480   0.446E+01 0.000E+00
CGA:   2    -0.424675404416E+03   -0.13106E+01   -0.13105E+01  6480   0.220E+01 0.382E-02
CGA:   3    -0.425031693337E+03   -0.35629E+00   -0.35613E+00  6480   0.502E+00-0.305E-02
CGA:   4    -0.425119690160E+03   -0.87997E-01   -0.87834E-01  6480   0.114E+00-0.188E-02
CGA:   5    -0.425139675043E+03   -0.19985E-01   -0.19949E-01  6480   0.288E-01-0.442E-03
CGA:   6    -0.425145594395E+03   -0.59194E-02   -0.59023E-02  6480   0.906E-02-0.298E-03
CGA:   7    -0.425147655336E+03   -0.20609E-02   -0.20521E-02  6480   0.322E-02-0.269E-03
CGA:   8    -0.425148529004E+03   -0.87367E-03   -0.87677E-03  6480   0.152E-02-0.151E-03
CGA:   9    -0.425148969431E+03   -0.44043E-03   -0.44544E-03  6480   0.677E-03-0.109E-03
CGA:  10    -0.425149172494E+03   -0.20306E-03   -0.21362E-03  6480   0.326E-03-0.139E-03
CGA:  11    -0.425149256663E+03   -0.84169E-04   -0.91214E-04  6480   0.162E-03-0.836E-04
CGA:  12    -0.425149296820E+03   -0.40157E-04   -0.41016E-04  6480   0.700E-04-0.127E-04
CGA:  13    -0.425149311402E+03   -0.14582E-04   -0.15384E-04  6480   0.274E-04 0.218E-04
CGA:  14    -0.425149315918E+03   -0.45163E-05   -0.62428E-05  6480   0.119E-04 0.174E-04
  44 F= -.42514932E+03 E0= -.42514932E+03  d E =-.225523E-02  mag=    18.0000
       N       E                     dE             d eps       ncg     rms          ort
SDA:   1    -0.424850709724E+03    0.29860E+00    0.00000E+00  6480   0.768E+00 0.000E+00
CGA:   2    -0.425065263194E+03   -0.21455E+00   -0.21457E+00  6480   0.415E+00-0.180E-02
CGA:   3    -0.425134410443E+03   -0.69147E-01   -0.69320E-01  6480   0.837E-01 0.164E-02
CGA:   4    -0.425148568690E+03   -0.14158E-01   -0.14230E-01  6480   0.200E-01 0.749E-03
CGA:   5    -0.425152146784E+03   -0.35781E-02   -0.35874E-02  6480   0.508E-02 0.110E-03
CGA:   6    -0.425153158336E+03   -0.10116E-02   -0.10155E-02  6480   0.154E-02 0.706E-04
CGA:   7    -0.425153485200E+03   -0.32686E-03   -0.33041E-03  6480   0.484E-03 0.874E-04
CGA:   8    -0.425153615115E+03   -0.12992E-03   -0.12973E-03  6480   0.199E-03 0.446E-04
CGA:   9    -0.425153678247E+03   -0.63132E-04   -0.62437E-04  6480   0.853E-04 0.182E-04
CGA:  10    -0.425153698886E+03   -0.20639E-04   -0.21220E-04  6480   0.288E-04 0.244E-04
CGA:  11    -0.425153704845E+03   -0.59591E-05   -0.69322E-05  6480   0.117E-04 0.154E-04
  45 F= -.42515370E+03 E0= -.42515370E+03  d E =-.438893E-02  mag=    18.0000
       N       E                     dE             d eps       ncg     rms          ort
SDA:   1    -0.425020436740E+03    0.13326E+00    0.00000E+00  6480   0.329E+00 0.000E+00
CGA:   2    -0.425121627175E+03   -0.10119E+00   -0.10126E+00  6480   0.161E+00-0.150E-02
CGA:   3    -0.425146638327E+03   -0.25011E-01   -0.25101E-01  6480   0.339E-01 0.818E-03
CGA:   4    -0.425152478599E+03   -0.58403E-02   -0.58846E-02  6480   0.759E-02 0.537E-03
CGA:   5    -0.425153830637E+03   -0.13520E-02   -0.13648E-02  6480   0.191E-02 0.173E-03
CGA:   6    -0.425154207711E+03   -0.37707E-03   -0.38138E-03  6480   0.562E-03 0.842E-04
CGA:   7    -0.425154333229E+03   -0.12552E-03   -0.12653E-03  6480   0.191E-03 0.355E-04
CGA:   8    -0.425154386529E+03   -0.53300E-04   -0.52944E-04  6480   0.862E-04 0.193E-04
CGA:   9    -0.425154408638E+03   -0.22109E-04   -0.22325E-04  6480   0.338E-04 0.263E-04
CGA:  10    -0.425154415465E+03   -0.68267E-05   -0.80426E-05  6480   0.144E-04 0.200E-04
  46 F= -.42515442E+03 E0= -.42515442E+03  d E =-.710619E-03  mag=    18.0000
       N       E                     dE             d eps       ncg     rms          ort
SDA:   1    -0.425008333246E+03    0.14608E+00    0.00000E+00  6480   0.351E+00 0.000E+00
CGA:   2    -0.425122088960E+03   -0.11376E+00   -0.11391E+00  6480   0.167E+00-0.192E-02
CGA:   3    -0.425147176245E+03   -0.25087E-01   -0.25245E-01  6480   0.338E-01 0.166E-02
CGA:   4    -0.425152867215E+03   -0.56910E-02   -0.57450E-02  6480   0.756E-02 0.766E-03
CGA:   5    -0.425154261718E+03   -0.13945E-02   -0.14001E-02  6480   0.201E-02 0.103E-03
CGA:   6    -0.425154656824E+03   -0.39511E-03   -0.39694E-03  6480   0.568E-03 0.478E-04
CGA:   7    -0.425154778568E+03   -0.12174E-03   -0.12244E-03  6480   0.182E-03 0.351E-04
CGA:   8    -0.425154828585E+03   -0.50018E-04   -0.49491E-04  6480   0.800E-04 0.201E-04
CGA:   9    -0.425154848821E+03   -0.20236E-04   -0.20292E-04  6480   0.316E-04 0.264E-04
CGA:  10    -0.425154853810E+03   -0.49885E-05   -0.66158E-05  6480   0.146E-04 0.222E-04
  47 F= -.42515485E+03 E0= -.42515485E+03  d E =-.438345E-03  mag=    18.0000
       N       E                     dE             d eps       ncg     rms          ort
SDA:   1    -0.424850849772E+03    0.30400E+00    0.00000E+00  6480   0.761E+00 0.000E+00
CGA:   2    -0.425076155494E+03   -0.22531E+00   -0.22540E+00  6480   0.372E+00-0.161E-02
CGA:   3    -0.425136310573E+03   -0.60155E-01   -0.60308E-01  6480   0.834E-01 0.217E-02
CGA:   4    -0.425150384569E+03   -0.14074E-01   -0.14119E-01  6480   0.180E-01 0.769E-03
CGA:   5    -0.425153628852E+03   -0.32443E-02   -0.32439E-02  6480   0.484E-02-0.131E-04
CGA:   6    -0.425154607740E+03   -0.97889E-03   -0.97876E-03  6480   0.147E-02-0.879E-05
CGA:   7    -0.425154928182E+03   -0.32044E-03   -0.32045E-03  6480   0.504E-03 0.206E-04
CGA:   8    -0.425155070423E+03   -0.14224E-03   -0.14142E-03  6480   0.244E-03 0.140E-04
CGA:   9    -0.425155143407E+03   -0.72984E-04   -0.71639E-04  6480   0.105E-03 0.209E-04
CGA:  10    -0.425155171559E+03   -0.28152E-04   -0.27650E-04  6480   0.372E-04 0.268E-04
CGA:  11    -0.425155184997E+03   -0.13438E-04   -0.13019E-04  6480   0.170E-04 0.792E-05
CGA:  12    -0.425155193529E+03   -0.85321E-05   -0.10733E-04  6480   0.222E-04-0.759E-05
  48 F= -.42515519E+03 E0= -.42515519E+03  d E =-.339719E-03  mag=    18.0000
       N       E                     dE             d eps       ncg     rms          ort
SDA:   1    -0.424983409056E+03    0.17178E+00    0.00000E+00  6480   0.430E+00 0.000E+00
CGA:   2    -0.425112190780E+03   -0.12878E+00   -0.12890E+00  6480   0.189E+00-0.223E-02
CGA:   3    -0.425143996493E+03   -0.31806E-01   -0.31818E-01  6480   0.488E-01 0.127E-03
CGA:   4    -0.425151906428E+03   -0.79099E-02   -0.79637E-02  6480   0.103E-01 0.663E-03
CGA:   5    -0.425153694832E+03   -0.17884E-02   -0.18002E-02  6480   0.275E-02 0.178E-03
CGA:   6    -0.425154298624E+03   -0.60379E-03   -0.60086E-03  6480   0.958E-03-0.145E-03
CGA:   7    -0.425154521109E+03   -0.22248E-03   -0.22416E-03  6480   0.440E-03-0.132E-03
CGA:   8    -0.425154619378E+03   -0.98269E-04   -0.98582E-04  6480   0.193E-03-0.127E-04
CGA:   9    -0.425154668920E+03   -0.49542E-04   -0.49076E-04  6480   0.719E-04 0.184E-04
CGA:  10    -0.425154696217E+03   -0.27297E-04   -0.29981E-04  6480   0.516E-04-0.187E-04
CGA:  11    -0.425154705888E+03   -0.96707E-05   -0.96640E-05  6480   0.227E-04 0.708E-06
  49 F= -.42515471E+03 E0= -.42515471E+03  d E =0.487641E-03  mag=    18.0000
       N       E                     dE             d eps       ncg     rms          ort
SDA:   1    -0.425102780388E+03    0.51916E-01    0.00000E+00  6480   0.142E+00 0.000E+00
CGA:   2    -0.425138976668E+03   -0.36196E-01   -0.36194E-01  6480   0.683E-01 0.197E-03
CGA:   3    -0.425151071976E+03   -0.12095E-01   -0.12027E-01  6480   0.189E-01-0.101E-02
CGA:   4    -0.425154439369E+03   -0.33674E-02   -0.33369E-02  6480   0.474E-02-0.496E-03
CGA:   5    -0.425155215475E+03   -0.77611E-03   -0.77665E-03  6480   0.114E-02 0.664E-05
CGA:   6    -0.425155427469E+03   -0.21199E-03   -0.21533E-03  6480   0.345E-03 0.733E-04
CGA:   7    -0.425155510588E+03   -0.83119E-04   -0.83173E-04  6480   0.127E-03 0.906E-05
CGA:   8    -0.425155551365E+03   -0.40777E-04   -0.55121E-04  6480   0.160E-03-0.749E-04
CGA:   9    -0.425155576632E+03   -0.25267E-04   -0.25693E-04  6480   0.238E-04 0.519E-05
CGA:  10    -0.425155580703E+03   -0.40715E-05   -0.15161E-04  6480   0.684E-04-0.293E-04
CGA:  11    -0.425155592011E+03   -0.11307E-04   -0.11593E-04  6480   0.826E-05 0.325E-05
CGA:  12    -0.425155593732E+03   -0.17208E-05   -0.17941E-05  6480   0.164E-05 0.163E-05
  50 F= -.42515559E+03 E0= -.42515559E+03  d E =-.887844E-03  mag=    18.0000
       N       E                     dE             d eps       ncg     rms          ort
SDA:   1    -0.425083622440E+03    0.71970E-01    0.00000E+00  6480   0.184E+00 0.000E+00
CGA:   2    -0.425135785373E+03   -0.52163E-01   -0.52171E-01  6480   0.961E-01-0.304E-03
CGA:   3    -0.425151295033E+03   -0.15510E-01   -0.15604E-01  6480   0.204E-01 0.100E-02
CGA:   4    -0.425154712900E+03   -0.34179E-02   -0.34469E-02  6480   0.462E-02 0.352E-03
CGA:   5    -0.425155542261E+03   -0.82936E-03   -0.83076E-03  6480   0.120E-02 0.194E-04
CGA:   6    -0.425155775922E+03   -0.23366E-03   -0.23475E-03  6480   0.350E-03 0.228E-04
CGA:   7    -0.425155843543E+03   -0.67621E-04   -0.69408E-04  6480   0.101E-03 0.403E-04
CGA:   8    -0.425155866957E+03   -0.23414E-04   -0.24046E-04  6480   0.392E-04 0.273E-04
CGA:   9    -0.425155877159E+03   -0.10203E-04   -0.10601E-04  6480   0.178E-04 0.174E-04
CGA:  10    -0.425155880563E+03   -0.34040E-05   -0.42902E-05  6480   0.860E-05 0.131E-04
  51 F= -.42515588E+03 E0= -.42515588E+03  d E =-.286831E-03  mag=    18.0000
       N       E                     dE             d eps       ncg     rms          ort
SDA:   1    -0.425105836493E+03    0.50041E-01    0.00000E+00  6480   0.132E+00 0.000E+00
CGA:   2    -0.425138699939E+03   -0.32863E-01   -0.32873E-01  6480   0.752E-01-0.486E-03
CGA:   3    -0.425151845489E+03   -0.13146E-01   -0.13133E-01  6480   0.167E-01-0.266E-03
CGA:   4    -0.425154534062E+03   -0.26886E-02   -0.27018E-02  6480   0.376E-02 0.201E-03
CGA:   5    -0.425155201899E+03   -0.66784E-03   -0.67044E-03  6480   0.946E-03 0.543E-04
CGA:   6    -0.425155413416E+03   -0.21152E-03   -0.21146E-03  6480   0.349E-03-0.976E-04
CGA:   7    -0.425155486936E+03   -0.73520E-04   -0.74488E-04  6480   0.138E-03-0.555E-04
CGA:   8    -0.425155511805E+03   -0.24869E-04   -0.24921E-04  6480   0.446E-04 0.800E-05
CGA:   9    -0.425155520881E+03   -0.90760E-05   -0.93674E-05  6480   0.146E-04 0.128E-04
  52 F= -.42515552E+03 E0= -.42515552E+03  d E =0.359682E-03  mag=    18.0000
       N       E                     dE             d eps       ncg     rms          ort
SDA:   1    -0.424893510836E+03    0.26200E+00    0.00000E+00  6480   0.664E+00 0.000E+00
CGA:   2    -0.425073990561E+03   -0.18048E+00   -0.18052E+00  6480   0.377E+00-0.112E-02
CGA:   3    -0.425136066389E+03   -0.62076E-01   -0.62028E-01  6480   0.774E-01-0.908E-03
CGA:   4    -0.425148886287E+03   -0.12820E-01   -0.12834E-01  6480   0.179E-01 0.234E-03
CGA:   5    -0.425151983848E+03   -0.30976E-02   -0.31055E-02  6480   0.453E-02 0.165E-03
CGA:   6    -0.425152910035E+03   -0.92619E-03   -0.92487E-03  6480   0.139E-02-0.918E-04
CGA:   7    -0.425153226055E+03   -0.31602E-03   -0.31835E-03  6480   0.517E-03-0.137E-03
CGA:   8    -0.425153353454E+03   -0.12740E-03   -0.13103E-03  6480   0.245E-03-0.568E-04
CGA:   9    -0.425153410154E+03   -0.56700E-04   -0.56393E-04  6480   0.833E-04 0.806E-05
CGA:  10    -0.425153437422E+03   -0.27268E-04   -0.28448E-04  6480   0.389E-04-0.109E-04
CGA:  11    -0.425153445002E+03   -0.75798E-05   -0.19012E-04  6480   0.654E-04-0.341E-04
CGA:  12    -0.425153456298E+03   -0.11296E-04   -0.11794E-04  6480   0.866E-05 0.777E-05
CGA:  13    -0.425153458947E+03   -0.26489E-05   -0.25916E-05  6480   0.264E-05 0.217E-05
  53 F= -.42515346E+03 E0= -.42515346E+03  d E =0.206193E-02  mag=    18.0000
       N       E                     dE             d eps       ncg     rms          ort
SDA:   1    -0.425003489769E+03    0.14997E+00    0.00000E+00  6480   0.370E+00 0.000E+00
CGA:   2    -0.425113077222E+03   -0.10959E+00   -0.10962E+00  6480   0.191E+00-0.933E-03
CGA:   3    -0.425144118401E+03   -0.31041E-01   -0.31150E-01  6480   0.386E-01 0.111E-02
CGA:   4    -0.425150534649E+03   -0.64162E-02   -0.64577E-02  6480   0.889E-02 0.480E-03
CGA:   5    -0.425152100100E+03   -0.15655E-02   -0.15774E-02  6480   0.230E-02 0.164E-03
CGA:   6    -0.425152549093E+03   -0.44899E-03   -0.45358E-03  6480   0.655E-03 0.911E-04
CGA:   7    -0.425152692782E+03   -0.14369E-03   -0.14449E-03  6480   0.210E-03 0.274E-04
CGA:   8    -0.425152753255E+03   -0.60473E-04   -0.60486E-04  6480   0.102E-03-0.409E-06
CGA:   9    -0.425152774444E+03   -0.21189E-04   -0.21882E-04  6480   0.359E-04 0.271E-04
CGA:  10    -0.425152779694E+03   -0.52505E-05   -0.71159E-05  6480   0.155E-04 0.223E-04
  54 F= -.42515278E+03 E0= -.42515278E+03  d E =0.679252E-03  mag=    18.0000
       N       E                     dE             d eps       ncg     rms          ort
SDA:   1    -0.425092090997E+03    0.60683E-01    0.00000E+00  6480   0.163E+00 0.000E+00
CGA:   2    -0.425134134061E+03   -0.42043E-01   -0.42019E-01  6480   0.811E-01 0.968E-03
CGA:   3    -0.425147867364E+03   -0.13733E-01   -0.13790E-01  6480   0.203E-01 0.818E-03
CGA:   4    -0.425151476205E+03   -0.36088E-02   -0.36029E-02  6480   0.485E-02-0.108E-03
CGA:   5    -0.425152363446E+03   -0.88724E-03   -0.87563E-03  6480   0.131E-02-0.241E-03
CGA:   6    -0.425152618220E+03   -0.25477E-03   -0.25320E-03  6480   0.418E-03-0.643E-04
CGA:   7    -0.425152689067E+03   -0.70846E-04   -0.73120E-04  6480   0.113E-03 0.533E-04
CGA:   8    -0.425152710720E+03   -0.21654E-04   -0.23304E-04  6480   0.424E-04 0.401E-04
CGA:   9    -0.425152724434E+03   -0.13714E-04   -0.13552E-04  6480   0.223E-04 0.117E-04
CGA:  10    -0.425152734339E+03   -0.99050E-05   -0.11820E-04  6480   0.228E-04-0.996E-05
  55 F= -.42515273E+03 E0= -.42515273E+03  d E =0.453550E-04  mag=    18.0000
       N       E                     dE             d eps       ncg     rms          ort
SDA:   1    -0.425132404700E+03    0.20320E-01    0.00000E+00  6480   0.557E-01 0.000E+00
CGA:   2    -0.425145531579E+03   -0.13127E-01   -0.13128E-01  6480   0.309E-01-0.211E-03
CGA:   3    -0.425151112533E+03   -0.55810E-02   -0.55543E-02  6480   0.763E-02-0.568E-03
CGA:   4    -0.425152355538E+03   -0.12430E-02   -0.12428E-02  6480   0.178E-02-0.489E-05
CGA:   5    -0.425152652820E+03   -0.29728E-03   -0.30309E-03  6480   0.403E-03 0.109E-03
CGA:   6    -0.425152735224E+03   -0.82404E-04   -0.83089E-04  6480   0.118E-03 0.260E-04
CGA:   7    -0.425152770288E+03   -0.35064E-04   -0.38280E-04  6480   0.748E-04-0.380E-04
CGA:   8    -0.425152783003E+03   -0.12716E-04   -0.13370E-04  6480   0.363E-04-0.164E-04
CGA:   9    -0.425152788217E+03   -0.52139E-05   -0.54004E-05  6480   0.135E-04 0.536E-05
  56 F= -.42515279E+03 E0= -.42515279E+03  d E =-.538781E-04  mag=    18.0000
       N       E                     dE             d eps       ncg     rms          ort
SDA:   1    -0.425142353222E+03    0.10430E-01    0.00000E+00  6480   0.259E-01 0.000E+00
CGA:   2    -0.425149066901E+03   -0.67137E-02   -0.67079E-02  6480   0.140E-01 0.144E-03
CGA:   3    -0.425151552207E+03   -0.24853E-02   -0.24764E-02  6480   0.319E-02-0.194E-03
CGA:   4    -0.425152072207E+03   -0.52000E-03   -0.51904E-03  6480   0.721E-03-0.181E-04
CGA:   5    -0.425152189490E+03   -0.11728E-03   -0.11848E-03  6480   0.181E-03 0.225E-04
CGA:   6    -0.425152228214E+03   -0.38724E-04   -0.38678E-04  6480   0.597E-04-0.608E-05
CGA:   7    -0.425152242971E+03   -0.14757E-04   -0.15693E-04  6480   0.325E-04-0.165E-04
CGA:   8    -0.425152249532E+03   -0.65608E-05   -0.75832E-05  6480   0.211E-04-0.983E-05
  57 F= -.42515225E+03 E0= -.42515225E+03  d E =0.538685E-03  mag=    18.0000
       N       E                     dE             d eps       ncg     rms          ort
SDA:   1    -0.423704291484E+03    0.14480E+01    0.00000E+00  6480   0.379E+01 0.000E+00
CGA:   2    -0.424677266112E+03   -0.97297E+00   -0.97269E+00  6480   0.206E+01 0.578E-02
CGA:   3    -0.425039795082E+03   -0.36253E+00   -0.36251E+00  6480   0.455E+00-0.904E-03
CGA:   4    -0.425115642693E+03   -0.75848E-01   -0.75842E-01  6480   0.104E+00-0.205E-03
CGA:   5    -0.425133456850E+03   -0.17814E-01   -0.17835E-01  6480   0.265E-01 0.402E-03
CGA:   6    -0.425138818398E+03   -0.53615E-02   -0.53638E-02  6480   0.799E-02 0.139E-03
CGA:   7    -0.425140566563E+03   -0.17482E-02   -0.17481E-02  6480   0.265E-02 0.281E-04
CGA:   8    -0.425141292128E+03   -0.72557E-03   -0.72377E-03  6480   0.121E-02 0.307E-04
CGA:   9    -0.425141657272E+03   -0.36514E-03   -0.36283E-03  6480   0.532E-03 0.294E-04
CGA:  10    -0.425141821576E+03   -0.16430E-03   -0.16221E-03  6480   0.221E-03 0.275E-04
CGA:  11    -0.425141893455E+03   -0.71878E-04   -0.70823E-04  6480   0.925E-04 0.133E-04
CGA:  12    -0.425141932610E+03   -0.39155E-04   -0.48217E-04  6480   0.913E-04-0.348E-04
CGA:  13    -0.425141948360E+03   -0.15750E-04   -0.15739E-04  6480   0.483E-04 0.223E-06
CGA:  14    -0.425141957097E+03   -0.87373E-05   -0.93440E-05  6480   0.193E-04 0.117E-04
  58 F= -.42514196E+03 E0= -.42514196E+03  d E =0.102924E-01  mag=    18.0000
       N       E                     dE             d eps       ncg     rms          ort
SDA:   1    -0.424948594974E+03    0.19335E+00    0.00000E+00  6480   0.482E+00 0.000E+00
CGA:   2    -0.425089346241E+03   -0.14075E+00   -0.14081E+00  6480   0.258E+00-0.125E-02
CGA:   3    -0.425130787312E+03   -0.41441E-01   -0.41530E-01  6480   0.545E-01 0.966E-03
CGA:   4    -0.425140119058E+03   -0.93317E-02   -0.93500E-02  6480   0.129E-01 0.256E-03
CGA:   5    -0.425142452401E+03   -0.23333E-02   -0.23314E-02  6480   0.339E-02-0.377E-04
[...]
CGA:   3    -0.424853022051E+03   -0.84795E+00   -0.84766E+00  6480   0.122E+01 0.159E-03
CGA:   4    -0.425046409125E+03   -0.19339E+00   -0.19343E+00  6480   0.246E+00 0.384E-03
CGA:   5    -0.425093327949E+03   -0.46919E-01   -0.47009E-01  6480   0.732E-01 0.615E-03
CGA:   6    -0.425107610099E+03   -0.14282E-01   -0.14317E-01  6480   0.207E-01 0.251E-03
CGA:   7    -0.425112528146E+03   -0.49180E-02   -0.49042E-02  6480   0.856E-02-0.195E-03
CGA:   8    -0.425115024267E+03   -0.24961E-02   -0.24929E-02  6480   0.447E-02-0.260E-03
CGA:   9    -0.425116310794E+03   -0.12865E-02   -0.12873E-02  6480   0.187E-02 0.867E-04
CGA:  10    -0.425116876417E+03   -0.56562E-03   -0.56594E-03  6480   0.702E-03 0.399E-04
CGA:  11    -0.425117123945E+03   -0.24753E-03   -0.25119E-03  6480   0.367E-03-0.813E-04
CGA:  12    -0.425117240212E+03   -0.11627E-03   -0.11648E-03  6480   0.187E-03-0.438E-05
CGA:  13    -0.425117321249E+03   -0.81037E-04   -0.89786E-04  6480   0.144E-03-0.501E-04
CGA:  14    -0.425117361261E+03   -0.40012E-04   -0.42571E-04  6480   0.632E-04-0.307E-04
CGA:  15    -0.425117370202E+03   -0.89409E-05   -0.10329E-04  6480   0.214E-04 0.120E-04
  67 F= -.42511737E+03 E0= -.42511737E+03  d E =0.114945E-01  mag=    18.0000
       N       E                     dE             d eps       ncg     rms          ort
SDA:   1    -0.415780370256E+03    0.93370E+01    0.00000E+00  6480   0.235E+02 0.000E+00
CGA:   2    -0.422831706748E+03   -0.70513E+01   -0.70516E+01  6480   0.100E+02 0.348E-02
CGA:   3    -0.424591336098E+03   -0.17596E+01   -0.17616E+01  6480   0.243E+01 0.766E-02
CGA:   4    -0.424995132160E+03   -0.40380E+00   -0.40392E+00  6480   0.508E+00 0.101E-02
CGA:   5    -0.425085846243E+03   -0.90714E-01   -0.90647E-01  6480   0.149E+00-0.674E-03
CGA:   6    -0.425116026331E+03   -0.30180E-01   -0.30173E-01  6480   0.453E-01-0.156E-03
CGA:   7    -0.425126123213E+03   -0.10097E-01   -0.10103E-01  6480   0.175E-01 0.662E-04
CGA:   8    -0.425131204696E+03   -0.50815E-02   -0.50811E-02  6480   0.902E-02 0.540E-04
CGA:   9    -0.425134017638E+03   -0.28129E-02   -0.28189E-02  6480   0.423E-02-0.213E-03
CGA:  10    -0.425135330338E+03   -0.13127E-02   -0.13237E-02  6480   0.184E-02-0.310E-03
CGA:  11    -0.425135851537E+03   -0.52120E-03   -0.52230E-03  6480   0.737E-03-0.552E-04
CGA:  12    -0.425136095567E+03   -0.24403E-03   -0.24242E-03  6480   0.351E-03 0.307E-04
CGA:  13    -0.425136239009E+03   -0.14344E-03   -0.14357E-03  6480   0.188E-03-0.162E-05
CGA:  14    -0.425136299995E+03   -0.60986E-04   -0.60354E-04  6480   0.634E-04 0.230E-04
CGA:  15    -0.425136319148E+03   -0.19153E-04   -0.19473E-04  6480   0.178E-04 0.138E-04
CGA:  16    -0.425136325499E+03   -0.63511E-05   -0.63563E-05  6480   0.593E-05 0.321E-05
  68 F= -.42513633E+03 E0= -.42513633E+03  d E =-.189553E-01  mag=    18.0000
       N       E                     dE             d eps       ncg     rms          ort
SDA:   1    -0.409836540090E+03    0.15300E+02    0.00000E+00  6480   0.374E+02 0.000E+00
CGA:   2    -0.422155997884E+03   -0.12319E+02   -0.12320E+02  6480   0.115E+02-0.171E-01
CGA:   3    -0.424472443335E+03   -0.23164E+01   -0.23188E+01  6480   0.287E+01 0.850E-02
CGA:   4    -0.424931365271E+03   -0.45892E+00   -0.45899E+00  6480   0.631E+00-0.853E-03
CGA:   5    -0.425055651219E+03   -0.12429E+00   -0.12417E+00  6480   0.193E+00-0.151E-02
CGA:   6    -0.425093829017E+03   -0.38178E-01   -0.38227E-01  6480   0.604E-01 0.504E-03
CGA:   7    -0.425108473788E+03   -0.14645E-01   -0.14647E-01  6480   0.264E-01 0.306E-04
CGA:   8    -0.425116362575E+03   -0.78888E-02   -0.79103E-02  6480   0.138E-01-0.745E-03
CGA:   9    -0.425120331202E+03   -0.39686E-02   -0.39753E-02  6480   0.568E-02-0.264E-03
CGA:  10    -0.425122050044E+03   -0.17188E-02   -0.17331E-02  6480   0.225E-02-0.376E-03
CGA:  11    -0.425122757072E+03   -0.70703E-03   -0.72637E-03  6480   0.114E-02-0.275E-03
CGA:  12    -0.425123076561E+03   -0.31949E-03   -0.31510E-03  6480   0.493E-03 0.122E-03
CGA:  13    -0.425123279941E+03   -0.20338E-03   -0.20161E-03  6480   0.262E-03 0.192E-04
CGA:  14    -0.425123387871E+03   -0.10793E-03   -0.11233E-03  6480   0.131E-03-0.344E-04
CGA:  15    -0.425123400336E+03   -0.12464E-04   -0.19123E-04  6480   0.543E-04 0.540E-04
CGA:  16    -0.425123405539E+03   -0.52034E-05   -0.10224E-04  6480   0.182E-04 0.332E-04
CGA:  17    -0.425123416492E+03   -0.10953E-04    0.30174E-04  6480   0.532E-05 0.754E-05
CGA:  18    -0.425123415797E+03    0.69479E-06   -0.57699E-06  6480   0.428E-05 0.635E-05
  69 F= -.42512342E+03 E0= -.42512342E+03  d E =0.129097E-01  mag=    18.0000
       N       E                     dE             d eps       ncg     rms          ort
SDA:   1    -0.411756853292E+03    0.13367E+02    0.00000E+00  6480   0.332E+02 0.000E+00
CGA:   2    -0.422155356503E+03   -0.10399E+02   -0.10393E+02  6480   0.124E+02 0.643E-01
CGA:   3    -0.424422529310E+03   -0.22672E+01   -0.22677E+01  6480   0.316E+01 0.306E-02
CGA:   4    -0.424944126007E+03   -0.52160E+00   -0.52181E+00  6480   0.655E+00 0.143E-02
CGA:   5    -0.425065196008E+03   -0.12107E+00   -0.12115E+00  6480   0.200E+00 0.104E-02
CGA:   6    -0.425105740114E+03   -0.40544E-01   -0.40566E-01  6480   0.605E-01 0.397E-03
CGA:   7    -0.425119897938E+03   -0.14158E-01   -0.14158E-01  6480   0.252E-01-0.259E-04
CGA:   8    -0.425127277688E+03   -0.73797E-02   -0.73938E-02  6480   0.128E-01-0.293E-03
CGA:   9    -0.425131037290E+03   -0.37596E-02   -0.37559E-02  6480   0.535E-02 0.710E-04
CGA:  10    -0.425132619693E+03   -0.15824E-02   -0.15781E-02  6480   0.199E-02 0.963E-04
CGA:  11    -0.425133303937E+03   -0.68424E-03   -0.70328E-03  6480   0.102E-02-0.202E-03
CGA:  12    -0.425133658846E+03   -0.35491E-03   -0.37285E-03  6480   0.624E-03-0.120E-03
CGA:  13    -0.425133868672E+03   -0.20983E-03   -0.21389E-03  6480   0.294E-03-0.332E-04
CGA:  14    -0.425133973805E+03   -0.10513E-03   -0.11029E-03  6480   0.116E-03-0.413E-04
CGA:  15    -0.425133999949E+03   -0.26143E-04   -0.26339E-04  6480   0.315E-04 0.155E-04
CGA:  16    -0.425134010395E+03   -0.10446E-04   -0.10424E-04  6480   0.105E-04 0.134E-05
CGA:  17    -0.425134006476E+03    0.39188E-05   -0.11369E-04  6480   0.494E-04-0.201E-04
  70 F= -.42513401E+03 E0= -.42513401E+03  d E =-.105907E-01  mag=    18.0000
       N       E                     dE             d eps       ncg     rms          ort
SDA:   1    -0.394947835762E+03    0.30186E+02    0.00000E+00  6480   0.742E+02 0.000E+00
CGA:   2    -0.418845252767E+03   -0.23897E+02   -0.23893E+02  6480   0.252E+02 0.160E+00
CGA:   3    -0.423586648825E+03   -0.47414E+01   -0.47455E+01  6480   0.640E+01 0.282E-01
CGA:   4    -0.424628539674E+03   -0.10419E+01   -0.10424E+01  6480   0.137E+01 0.615E-02
CGA:   5    -0.424893690102E+03   -0.26515E+00   -0.26542E+00  6480   0.442E+00 0.188E-02
CGA:   6    -0.424982674740E+03   -0.88985E-01   -0.89149E-01  6480   0.137E+00 0.138E-02
CGA:   7    -0.425016331809E+03   -0.33657E-01   -0.33639E-01  6480   0.615E-01-0.557E-03
CGA:   8    -0.425034159179E+03   -0.17827E-01   -0.17836E-01  6480   0.305E-01-0.130E-02
CGA:   9    -0.425042747953E+03   -0.85888E-02   -0.85880E-02  6480   0.116E-01 0.248E-03
CGA:  10    -0.425046197291E+03   -0.34493E-02   -0.34492E-02  6480   0.425E-02 0.746E-05
CGA:  11    -0.425047641187E+03   -0.14439E-02   -0.14729E-02  6480   0.223E-02-0.480E-03
CGA:  12    -0.425048353404E+03   -0.71222E-03   -0.71185E-03  6480   0.115E-02 0.302E-05
CGA:  13    -0.425048840632E+03   -0.48723E-03   -0.51514E-03  6480   0.746E-03-0.180E-03
CGA:  14    -0.425049081731E+03   -0.24110E-03   -0.25353E-03  6480   0.313E-03-0.122E-03
CGA:  15    -0.425049129202E+03   -0.47471E-04   -0.54976E-04  6480   0.101E-03 0.783E-04
CGA:  16    -0.425049149597E+03   -0.20395E-04   -0.24203E-04  6480   0.328E-04 0.348E-04
CGA:  17    -0.425049165760E+03   -0.16163E-04   -0.17243E-04  6480   0.228E-04-0.112E-04
CGA:  18    -0.425049165610E+03    0.15006E-06   -0.15597E-05  6480   0.174E-04 0.873E-05
  71 F= -.42504917E+03 E0= -.42504917E+03  d E =0.848409E-01  mag=    18.0000
       N       E                     dE             d eps       ncg     rms          ort
SDA:   1    -0.416625353816E+03    0.84238E+01    0.00000E+00  6480   0.210E+02 0.000E+00
CGA:   2    -0.423274710536E+03   -0.66494E+01   -0.66493E+01  6480   0.751E+01-0.856E-02
CGA:   3    -0.424672393881E+03   -0.13977E+01   -0.13993E+01  6480   0.198E+01 0.779E-02
CGA:   4    -0.424995451365E+03   -0.32306E+00   -0.32335E+00  6480   0.408E+00 0.224E-02
CGA:   5    -0.425072493375E+03   -0.77042E-01   -0.77008E-01  6480   0.127E+00-0.401E-03
CGA:   6    -0.425097913789E+03   -0.25420E-01   -0.25440E-01  6480   0.389E-01 0.244E-03
CGA:   7    -0.425106904321E+03   -0.89905E-02   -0.90032E-02  6480   0.157E-01 0.365E-03
CGA:   8    -0.425111453172E+03   -0.45489E-02   -0.45480E-02  6480   0.769E-02 0.294E-04
CGA:   9    -0.425113813190E+03   -0.23600E-02   -0.23659E-02  6480   0.341E-02-0.138E-03
CGA:  10    -0.425114854781E+03   -0.10416E-02   -0.10492E-02  6480   0.141E-02-0.163E-03
CGA:  11    -0.425115292538E+03   -0.43776E-03   -0.44439E-03  6480   0.668E-03-0.107E-03
CGA:  12    -0.425115517018E+03   -0.22448E-03   -0.22479E-03  6480   0.335E-03-0.396E-05
CGA:  13    -0.425115647907E+03   -0.13089E-03   -0.13260E-03  6480   0.168E-03-0.144E-04
CGA:  14    -0.425115707184E+03   -0.59278E-04   -0.59975E-04  6480   0.616E-04-0.794E-05
CGA:  15    -0.425115719543E+03   -0.12359E-04   -0.13418E-04  6480   0.182E-04 0.182E-04
CGA:  16    -0.425115723275E+03   -0.37323E-05   -0.45079E-05  6480   0.624E-05 0.839E-05
  72 F= -.42511572E+03 E0= -.42511572E+03  d E =-.665577E-01  mag=    18.0000
       N       E                     dE             d eps       ncg     rms          ort
SDA:   1    -0.413183185508E+03    0.11933E+02    0.00000E+00  6480   0.290E+02 0.000E+00
CGA:   2    -0.422821090546E+03   -0.96379E+01   -0.96374E+01  6480   0.920E+01-0.238E-02
CGA:   3    -0.424624551220E+03   -0.18035E+01   -0.18051E+01  6480   0.230E+01 0.666E-02
CGA:   4    -0.424991441827E+03   -0.36689E+00   -0.36701E+00  6480   0.494E+00-0.102E-02
CGA:   5    -0.425088804081E+03   -0.97362E-01   -0.97213E-01  6480   0.152E+00-0.224E-02
CGA:   6    -0.425118714402E+03   -0.29910E-01   -0.29904E-01  6480   0.463E-01-0.195E-03
CGA:   7    -0.425129879990E+03   -0.11166E-01   -0.11165E-01  6480   0.201E-01-0.641E-04
CGA:   8    -0.425135896977E+03   -0.60170E-02   -0.60429E-02  6480   0.106E-01-0.639E-03
CGA:   9    -0.425139015060E+03   -0.31181E-02   -0.31354E-02  6480   0.457E-02-0.401E-03
CGA:  10    -0.425140387576E+03   -0.13725E-02   -0.13955E-02  6480   0.185E-02-0.432E-03
CGA:  11    -0.425140939266E+03   -0.55169E-03   -0.56876E-03  6480   0.895E-03-0.233E-03
CGA:  12    -0.425141177503E+03   -0.23824E-03   -0.23460E-03  6480   0.373E-03 0.122E-03
CGA:  13    -0.425141324686E+03   -0.14718E-03   -0.14399E-03  6480   0.188E-03 0.465E-04
CGA:  14    -0.425141407930E+03   -0.83243E-04   -0.84720E-04  6480   0.938E-04-0.120E-04
CGA:  15    -0.425141416926E+03   -0.89967E-05   -0.14312E-04  6480   0.401E-04 0.448E-04
  73 F= -.42514142E+03 E0= -.42514142E+03  d E =-.256937E-01  mag=    18.0000
       N       E                     dE             d eps       ncg     rms          ort
SDA:   1    -0.423330628238E+03    0.18108E+01    0.00000E+00  6480   0.441E+01 0.000E+00
CGA:   2    -0.424756380060E+03   -0.14258E+01   -0.14254E+01  6480   0.154E+01 0.405E-02
CGA:   3    -0.425042350351E+03   -0.28597E+00   -0.28605E+00  6480   0.425E+00 0.991E-03
CGA:   4    -0.425112237039E+03   -0.69887E-01   -0.70007E-01  6480   0.862E-01 0.119E-02
CGA:   5    -0.425128320038E+03   -0.16083E-01   -0.16125E-01  6480   0.260E-01 0.548E-03
CGA:   6    -0.425133595095E+03   -0.52751E-02   -0.52831E-02  6480   0.792E-02 0.135E-03
CGA:   7    -0.425135437848E+03   -0.18428E-02   -0.18454E-02  6480   0.315E-02 0.111E-03
CGA:   8    -0.425136305701E+03   -0.86785E-03   -0.86537E-03  6480   0.140E-02 0.148E-03
CGA:   9    -0.425136716371E+03   -0.41067E-03   -0.40728E-03  6480   0.552E-03 0.144E-03
CGA:  10    -0.425136879891E+03   -0.16352E-03   -0.16248E-03  6480   0.203E-03 0.964E-04
CGA:  11    -0.425136959098E+03   -0.79207E-04   -0.78530E-04  6480   0.109E-03 0.900E-05
CGA:  12    -0.425137007317E+03   -0.48219E-04   -0.62789E-04  6480   0.134E-03-0.502E-04
CGA:  13    -0.425137019434E+03   -0.12117E-04   -0.13400E-04  6480   0.821E-04 0.142E-04
CGA:  14    -0.425137030708E+03   -0.11274E-04   -0.13914E-04  6480   0.314E-04 0.225E-04
CGA:  15    -0.425137038697E+03   -0.79892E-05   -0.83318E-05  6480   0.157E-04 0.609E-05
  74 F= -.42513704E+03 E0= -.42513704E+03  d E =0.437823E-02  mag=    18.0000
       N       E                     dE             d eps       ncg     rms          ort
SDA:   1    -0.424264315628E+03    0.87272E+00    0.00000E+00  6480   0.212E+01 0.000E+00
CGA:   2    -0.424972467960E+03   -0.70815E+00   -0.70800E+00  6480   0.676E+00 0.232E-02
CGA:   3    -0.425103452305E+03   -0.13098E+00   -0.13082E+00  6480   0.179E+00-0.213E-02
CGA:   4    -0.425131622883E+03   -0.28171E-01   -0.28113E-01  6480   0.386E-01-0.525E-03
CGA:   5    -0.425138772352E+03   -0.71495E-02   -0.71894E-02  6480   0.111E-01 0.485E-03
CGA:   6    -0.425140902571E+03   -0.21302E-02   -0.21487E-02  6480   0.324E-02 0.253E-03
CGA:   7    -0.425141721325E+03   -0.81875E-03   -0.81666E-03  6480   0.144E-02-0.149E-03
CGA:   8    -0.425142142077E+03   -0.42075E-03   -0.43152E-03  6480   0.855E-03-0.198E-03
CGA:   9    -0.425142331622E+03   -0.18955E-03   -0.18975E-03  6480   0.307E-03 0.405E-04
CGA:  10    -0.425142412427E+03   -0.80804E-04   -0.81203E-04  6480   0.109E-03 0.418E-04
CGA:  11    -0.425142453925E+03   -0.41499E-04   -0.42786E-04  6480   0.682E-04-0.155E-04
CGA:  12    -0.425142469938E+03   -0.16013E-04   -0.15956E-04  6480   0.338E-04 0.775E-05
CGA:  13    -0.425142483776E+03   -0.13838E-04   -0.15057E-04  6480   0.300E-04-0.916E-05
CGA:  14    -0.425142498989E+03   -0.15213E-04    0.10819E-04  6480   0.166E-04-0.425E-06
CGA:  15    -0.425142503917E+03   -0.49282E-05   -0.69285E-05  6480   0.163E-04-0.134E-04
  75 F= -.42514250E+03 E0= -.42514250E+03  d E =-.546522E-02  mag=    18.0000
       N       E                     dE             d eps       ncg     rms          ort
SDA:   1    -0.424797096319E+03    0.34540E+00    0.00000E+00  6480   0.844E+00 0.000E+00
CGA:   2    -0.425073882550E+03   -0.27679E+00   -0.27687E+00  6480   0.298E+00-0.163E-02
CGA:   3    -0.425128963841E+03   -0.55081E-01   -0.55096E-01  6480   0.749E-01 0.657E-04
CGA:   4    -0.425140878786E+03   -0.11915E-01   -0.11918E-01  6480   0.153E-01 0.220E-05
CGA:   5    -0.425143786496E+03   -0.29077E-02   -0.28935E-02  6480   0.476E-02-0.193E-03
CGA:   6    -0.425144703939E+03   -0.91744E-03   -0.91163E-03  6480   0.136E-02-0.894E-04
CGA:   7    -0.425145010192E+03   -0.30625E-03   -0.30592E-03  6480   0.542E-03-0.125E-04
CGA:   8    -0.425145160719E+03   -0.15053E-03   -0.15021E-03  6480   0.268E-03 0.131E-04
CGA:   9    -0.425145257118E+03   -0.96399E-04   -0.10168E-03  6480   0.178E-03-0.465E-04
CGA:  10    -0.425145304827E+03   -0.47708E-04   -0.68664E-04  6480   0.177E-03-0.103E-03
CGA:  11    -0.425145330708E+03   -0.25882E-04   -0.29227E-04  6480   0.290E-04 0.311E-04
CGA:  12    -0.425145337354E+03   -0.66454E-05   -0.73156E-05  6480   0.120E-04 0.127E-04
  76 F= -.42514534E+03 E0= -.42514534E+03  d E =-.283344E-02  mag=    18.0000
       N       E                     dE             d eps       ncg     rms          ort
SDA:   1    -0.425045920962E+03    0.99410E-01    0.00000E+00  6480   0.259E+00 0.000E+00
CGA:   2    -0.425115795206E+03   -0.69874E-01   -0.69870E-01  6480   0.123E+00 0.659E-03
CGA:   3    -0.425137433153E+03   -0.21638E-01   -0.21633E-01  6480   0.314E-01-0.102E-03
CGA:   4    -0.425142806977E+03   -0.53738E-02   -0.53335E-02  6480   0.682E-02-0.456E-03
CGA:   5    -0.425144021970E+03   -0.12150E-02   -0.11981E-02  6480   0.189E-02-0.221E-03
CGA:   6    -0.425144392791E+03   -0.37082E-03   -0.36976E-03  6480   0.572E-03-0.222E-04
CGA:   7    -0.425144519169E+03   -0.12638E-03   -0.12650E-03  6480   0.211E-03 0.460E-05
CGA:   8    -0.425144580439E+03   -0.61271E-04   -0.61289E-04  6480   0.109E-03-0.522E-06
CGA:   9    -0.425144617152E+03   -0.36713E-04   -0.38157E-04  6480   0.668E-04-0.143E-04
CGA:  10    -0.425144606334E+03    0.10819E-04   -0.46503E-04  6480   0.285E-03-0.105E-03
CGA:  11    -0.425144646635E+03   -0.40301E-04   -0.44912E-04  6480   0.318E-04 0.369E-04
CGA:  12    -0.425144651097E+03   -0.44625E-05   -0.61483E-05  6480   0.118E-04 0.161E-04
  77 F= -.42514465E+03 E0= -.42514465E+03  d E =0.686257E-03  mag=    18.0000
       N       E                     dE             d eps       ncg     rms          ort
SDA:   1    -0.424894079172E+03    0.25057E+00    0.00000E+00  6480   0.603E+00 0.000E+00
CGA:   2    -0.425092223767E+03   -0.19814E+00   -0.19807E+00  6480   0.212E+00 0.115E-02
CGA:   3    -0.425131355159E+03   -0.39131E-01   -0.39137E-01  6480   0.529E-01 0.231E-04
CGA:   4    -0.425139845613E+03   -0.84905E-02   -0.85033E-02  6480   0.107E-01 0.995E-04
CGA:   5    -0.425141827153E+03   -0.19815E-02   -0.19945E-02  6480   0.313E-02 0.164E-03
CGA:   6    -0.425142434375E+03   -0.60722E-03   -0.61225E-03  6480   0.867E-03 0.726E-04
CGA:   7    -0.425142636603E+03   -0.20223E-03   -0.20274E-03  6480   0.350E-03 0.174E-04
CGA:   8    -0.425142743968E+03   -0.10737E-03   -0.10776E-03  6480   0.195E-03-0.864E-05
CGA:   9    -0.425142794418E+03   -0.50450E-04   -0.50291E-04  6480   0.760E-04 0.269E-04
CGA:  10    -0.425142810497E+03   -0.16079E-04   -0.17733E-04  6480   0.278E-04 0.308E-04
CGA:  11    -0.425142818881E+03   -0.83837E-05   -0.87676E-05  6480   0.132E-04 0.120E-04
CGA:  12    -0.425142825058E+03   -0.61777E-05   -0.13171E-04  6480   0.385E-04-0.157E-04
  78 F= -.42514283E+03 E0= -.42514283E+03  d E =0.182604E-02  mag=    18.0000
       N       E                     dE             d eps       ncg     rms          ort
SDA:   1    -0.425123759837E+03    0.19059E-01    0.00000E+00  6480   0.516E-01 0.000E+00
CGA:   2    -0.425135992524E+03   -0.12233E-01   -0.12230E-01  6480   0.289E-01-0.103E-03
CGA:   3    -0.425141316183E+03   -0.53237E-02   -0.53076E-02  6480   0.717E-02-0.193E-03
CGA:   4    -0.425142455837E+03   -0.11397E-02   -0.11391E-02  6480   0.164E-02-0.571E-05
CGA:   5    -0.425142734827E+03   -0.27899E-03   -0.28234E-03  6480   0.424E-03 0.374E-04
CGA:   6    -0.425142818821E+03   -0.83994E-04   -0.84525E-04  6480   0.127E-03 0.852E-05
CGA:   7    -0.425142849437E+03   -0.30616E-04   -0.30464E-04  6480   0.481E-04-0.871E-05
CGA:   8    -0.425142861190E+03   -0.11753E-04   -0.11795E-04  6480   0.204E-04-0.387E-05
CGA:   9    -0.425142867380E+03   -0.61906E-05   -0.74969E-05  6480   0.171E-04-0.896E-05
  79 F= -.42514287E+03 E0= -.42514287E+03  d E =-.423220E-04  mag=    18.0000
       N       E                     dE             d eps       ncg     rms          ort
SDA:   1    -0.425116547375E+03    0.26314E-01    0.00000E+00  6480   0.667E-01 0.000E+00
CGA:   2    -0.425137119283E+03   -0.20572E-01   -0.20578E-01  6480   0.278E-01-0.139E-03
CGA:   3    -0.425141890907E+03   -0.47716E-02   -0.47735E-02  6480   0.702E-02 0.151E-04
CGA:   4    -0.425143059908E+03   -0.11690E-02   -0.11627E-02  6480   0.151E-02-0.717E-04
CGA:   5    -0.425143343980E+03   -0.28407E-03   -0.27989E-03  6480   0.446E-03-0.654E-04
CGA:   6    -0.425143429339E+03   -0.85359E-04   -0.84844E-04  6480   0.129E-03-0.106E-04
CGA:   7    -0.425143457037E+03   -0.27698E-04   -0.27684E-04  6480   0.466E-04-0.598E-06
CGA:   8    -0.425143470081E+03   -0.13044E-04   -0.13087E-04  6480   0.233E-04-0.114E-05
CGA:   9    -0.425143477397E+03   -0.73154E-05   -0.75507E-05  6480   0.127E-04-0.272E-05
  80 F= -.42514348E+03 E0= -.42514348E+03  d E =-.610016E-03  mag=    18.0000
