       N       E                     dE             d eps       ncg     rms          ort
DAV:   1     0.271257768185E+04    0.27126E+04   -0.14275E+05  6084   0.156E+03
DAV:   2     0.245539788213E+02   -0.26880E+04   -0.25080E+04  6084   0.412E+02
DAV:   3    -0.265558940829E+03   -0.29011E+03   -0.28648E+03  6084   0.149E+02
DAV:   4    -0.274692828792E+03   -0.91339E+01   -0.90270E+01  6084   0.261E+01
DAV:   5    -0.275281138454E+03   -0.58831E+00   -0.58725E+00  6084   0.490E+00
SDA:   6    -0.174168455871E+03    0.10111E+03   -0.58725E+00  6084   0.368E+03 0.000E+00
CGA:   7    -0.230458772201E+03   -0.56290E+02   -0.56700E+02  6084   0.440E+02 0.330E+01
CGA:   8    -0.238159374450E+03   -0.77006E+01   -0.76863E+01  6084   0.146E+02-0.161E+00
CGA:   9    -0.241239831636E+03   -0.30805E+01   -0.30792E+01  6084   0.591E+01 0.524E-01
CGA:  10    -0.242426381346E+03   -0.11865E+01   -0.11864E+01  6084   0.254E+01 0.218E-01
CGA:  11    -0.242985652954E+03   -0.55927E+00   -0.55939E+00  6084   0.881E+00-0.277E-02
CGA:  12    -0.243185846988E+03   -0.20019E+00   -0.20022E+00  6084   0.324E+00-0.471E-03
CGA:  13    -0.243262155529E+03   -0.76309E-01   -0.76314E-01  6084   0.916E-01-0.104E-03
CGA:  14    -0.243285578022E+03   -0.23422E-01   -0.23423E-01  6084   0.317E-01 0.105E-04
CGA:  15    -0.243294574957E+03   -0.89969E-02   -0.89938E-02  6084   0.121E-01 0.431E-04
CGA:  16    -0.243298343235E+03   -0.37683E-02   -0.37695E-02  6084   0.568E-02-0.122E-04
CGA:  17    -0.243300235855E+03   -0.18926E-02   -0.18958E-02  6084   0.265E-02-0.263E-04
CGA:  18    -0.243301186829E+03   -0.95097E-03   -0.95442E-03  6084   0.134E-02-0.243E-04
CGA:  19    -0.243301648985E+03   -0.46216E-03   -0.46423E-03  6084   0.637E-03-0.169E-04
CGA:  20    -0.243301861435E+03   -0.21245E-03   -0.21313E-03  6084   0.260E-03-0.635E-05
CGA:  21    -0.243301954897E+03   -0.93462E-04   -0.93829E-04  6084   0.108E-03-0.292E-05
CGA:  22    -0.243301993774E+03   -0.38877E-04   -0.38777E-04  6084   0.440E-04 0.834E-06
CGA:  23    -0.243302009025E+03   -0.15251E-04   -0.15080E-04  6084   0.161E-04 0.191E-05
CGA:  24    -0.243302014883E+03   -0.58586E-05   -0.57665E-05  6084   0.604E-05 0.104E-05
   1 F= -.24330201E+03 E0= -.24330201E+03  d E =-.243302E+03  mag=    20.0000
       N       E                     dE             d eps       ncg     rms          ort
SDA:   1    -0.243282938323E+03    0.19071E-01    0.00000E+00  6084   0.496E-01 0.000E+00
CGA:   2    -0.243295843737E+03   -0.12905E-01   -0.12906E-01  6084   0.250E-01 0.766E-04
CGA:   3    -0.243300185263E+03   -0.43415E-02   -0.43380E-02  6084   0.716E-02-0.449E-04
CGA:   4    -0.243301468745E+03   -0.12835E-02   -0.12835E-02  6084   0.181E-02 0.360E-06
CGA:   5    -0.243301786598E+03   -0.31785E-03   -0.31873E-03  6084   0.487E-03 0.112E-04
CGA:   6    -0.243301887280E+03   -0.10068E-03   -0.10077E-03  6084   0.167E-03 0.193E-05
CGA:   7    -0.243301927269E+03   -0.39989E-04   -0.39973E-04  6084   0.664E-04-0.147E-05
CGA:   8    -0.243301944307E+03   -0.17038E-04   -0.17033E-04  6084   0.270E-04 0.526E-06
CGA:   9    -0.243301951764E+03   -0.74575E-05   -0.74247E-05  6084   0.930E-05 0.139E-05
   2 F= -.24330195E+03 E0= -.24330195E+03  d E =0.631194E-04  mag=    20.0000
       N       E                     dE             d eps       ncg     rms          ort
SDA:   1    -0.243296590082E+03    0.53542E-02    0.00000E+00  6084   0.146E-01 0.000E+00
CGA:   2    -0.243300396293E+03   -0.38062E-02   -0.38067E-02  6084   0.741E-02-0.452E-04
CGA:   3    -0.243301664278E+03   -0.12680E-02   -0.12700E-02  6084   0.208E-02 0.264E-04
CGA:   4    -0.243302041331E+03   -0.37705E-03   -0.37710E-03  6084   0.522E-03 0.721E-06
CGA:   5    -0.243302138151E+03   -0.96820E-04   -0.96428E-04  6084   0.141E-03-0.660E-05
CGA:   6    -0.243302166729E+03   -0.28578E-04   -0.28549E-04  6084   0.474E-04-0.809E-06
CGA:   7    -0.243302177394E+03   -0.10665E-04   -0.10678E-04  6084   0.174E-04 0.945E-06
CGA:   8    -0.243302182068E+03   -0.46735E-05   -0.46792E-05  6084   0.746E-05-0.231E-06
   3 F= -.24330218E+03 E0= -.24330218E+03  d E =-.167184E-03  mag=    20.0000
       N       E                     dE             d eps       ncg     rms          ort
SDA:   1    -0.243294128764E+03    0.80486E-02    0.00000E+00  6084   0.216E-01 0.000E+00
CGA:   2    -0.243299730053E+03   -0.56013E-02   -0.56014E-02  6084   0.114E-01-0.390E-05
CGA:   3    -0.243301687378E+03   -0.19573E-02   -0.19571E-02  6084   0.305E-02-0.318E-05
CGA:   4    -0.243302212168E+03   -0.52479E-03   -0.52501E-03  6084   0.731E-03 0.330E-05
CGA:   5    -0.243302340787E+03   -0.12862E-03   -0.12867E-03  6084   0.187E-03 0.889E-06
CGA:   6    -0.243302378702E+03   -0.37916E-04   -0.37914E-04  6084   0.567E-04-0.534E-07
CGA:   7    -0.243302391752E+03   -0.13050E-04   -0.13050E-04  6084   0.208E-04 0.700E-07
CGA:   8    -0.243302397320E+03   -0.55683E-05   -0.55653E-05  6084   0.911E-05 0.829E-07
   4 F= -.24330240E+03 E0= -.24330240E+03  d E =-.215252E-03  mag=    20.0000
