       N       E                     dE             d eps       ncg     rms          ort
DAV:   1     0.274204436255E+04    0.27420E+04   -0.14575E+05  7392   0.164E+03
DAV:   2    -0.113671753121E+03   -0.28557E+04   -0.26528E+04  7392   0.430E+02
DAV:   3    -0.452217017637E+03   -0.33855E+03   -0.33240E+03  7392   0.169E+02
DAV:   4    -0.466941440536E+03   -0.14724E+02   -0.14340E+02  7392   0.324E+01
DAV:   5    -0.467827532686E+03   -0.88609E+00   -0.87624E+00  7392   0.589E+00
SDA:   6    -0.243944839082E+03    0.22388E+03   -0.87624E+00  7392   0.586E+03 0.000E+00
CGA:   7    -0.332520829451E+03   -0.88576E+02   -0.71195E+02  7392   0.248E+03-0.118E+03
CGA:   8    -0.319586433418E+03    0.12934E+02   -0.12555E+02  7392   0.961E+03-0.146E+03
CGA:   9    -0.311407691295E+03    0.81787E+01   -0.66453E+02  7392   0.631E+03-0.193E+03
CGA:  10    -0.327419181529E+03   -0.16011E+02   -0.18743E+02  7392   0.396E+03-0.334E+03
CGA:  11    -0.315664267183E+03    0.11755E+02   -0.20333E+02  7392   0.628E+03-0.254E+03
CGA:  12    -0.340217769693E+03   -0.24554E+02   -0.27044E+02  7392   0.297E+03-0.933E+02
CGA:  13    -0.335229608705E+03    0.49882E+01   -0.14677E+02  7392   0.537E+03-0.121E+03
CGA:  14    -0.317490587404E+03    0.17739E+02   -0.17028E+02  7392   0.218E+03-0.889E+02
CGA:  15    -0.322174169645E+03   -0.46836E+01   -0.23843E+01  7392   0.220E+03 0.193E+03
CGA:  16    -0.332122169060E+03   -0.99480E+01   -0.40454E+01  7392   0.257E+03 0.320E+03
CGA:  17    -0.337485907792E+03   -0.53637E+01   -0.60908E+01  7392   0.117E+04-0.647E+03
CGA:  18    -0.316903863491E+03    0.20582E+02   -0.68479E+02  7392   0.267E+03-0.172E+03
CGA:  19    -0.331942409759E+03   -0.15039E+02   -0.40618E+01  7392   0.793E+03 0.105E+04
CGA:  20    -0.340479474780E+03   -0.85371E+01   -0.35332E+02  7392   0.158E+03 0.404E+02
CGA:  21    -0.345294289011E+03   -0.48148E+01   -0.54816E+01  7392   0.130E+04 0.745E+03
CGA:  22    -0.323365139655E+03    0.21929E+02   -0.66375E+02  7392   0.280E+03-0.139E+03
CGA:  23    -0.344115584499E+03   -0.20750E+02   -0.69991E+01  7392   0.926E+03-0.116E+04
CGA:  24    -0.322220933550E+03    0.21895E+02   -0.42401E+02  7392   0.268E+03-0.164E+03
CGA:  25    -0.344178721765E+03   -0.21958E+02   -0.93980E+01  7392   0.105E+03-0.157E+03
CGA:  26    -0.347522179943E+03   -0.33435E+01   -0.20386E+01  7392   0.532E+02 0.556E+02
CGA:  27    -0.350062817425E+03   -0.25406E+01   -0.51532E+00  7392   0.493E+03 0.553E+03
CGA:  28    -0.324157099218E+03    0.25906E+02   -0.15798E+02  7392   0.349E+03-0.140E+03
CGA:  29    -0.333749809778E+03   -0.95927E+01   -0.10094E+02  7392   0.824E+03-0.399E+03
CGA:  30    -0.323479610451E+03    0.10270E+02   -0.31309E+02  7392   0.132E+04-0.721E+03
CGA:  31    -0.338175225613E+03   -0.14696E+02   -0.54248E+02  7392   0.543E+03-0.385E+03
CGA:  32    -0.328575774772E+03    0.95995E+01   -0.11802E+02  7392   0.146E+04-0.848E+03
CGA:  33    -0.326184767261E+03    0.23910E+01   -0.55761E+02  7392   0.570E+03-0.225E+03
CGA:  34    -0.342088684094E+03   -0.15904E+02   -0.18929E+02  7392   0.546E+03 0.675E+02
CGA:  35    -0.339292321823E+03    0.27964E+01   -0.20310E+02  7392   0.238E+04 0.344E+01
CGA:  36    -0.327493899247E+03    0.11798E+02   -0.84242E+02  7392   0.518E+03 0.920E+02
CGA:  37    -0.345333996147E+03   -0.17840E+02   -0.24697E+02  7392   0.901E+02 0.129E+03
CGA:  38    -0.351368444638E+03   -0.60344E+01   -0.24671E+01  7392   0.106E+03 0.184E+03
CGA:  39    -0.355010020267E+03   -0.36416E+01   -0.13867E+01  7392   0.103E+03 0.165E+03
CGA:  40    -0.357459678016E+03   -0.24497E+01   -0.98610E+00  7392   0.737E+02 0.128E+03
CGA:  41    -0.358639273232E+03   -0.11796E+01   -0.70939E+00  7392   0.176E+02 0.385E+02
CGA:  42    -0.358974827837E+03   -0.33555E+00   -0.33116E+00  7392   0.946E+01-0.156E+01
CGA:  43    -0.359245810230E+03   -0.27098E+00   -0.27937E+00  7392   0.111E+02-0.922E-01
CGA:  44    -0.360376033225E+03   -0.11302E+01   -0.11362E+01  7392   0.264E+02-0.382E+00
CGA:  45    -0.360810271654E+03   -0.43424E+00   -0.67495E+00  7392   0.737E+01-0.291E+01
CGA:  46    -0.360967040756E+03   -0.15677E+00   -0.22852E+00  7392   0.185E+01 0.115E-01
CGA:  47    -0.361549933419E+03   -0.58289E+00   -0.45601E+00  7392   0.968E+00 0.710E+00
CGA:  48    -0.361865435955E+03   -0.31550E+00   -0.27202E+00  7392   0.772E+00 0.321E+00
CGA:  49    -0.362047287911E+03   -0.18185E+00   -0.15103E+00  7392   0.324E+00 0.309E+00
CGA:  50    -0.362143333450E+03   -0.96046E-01   -0.87358E-01  7392   0.940E-01 0.846E-01
CGA:  51    -0.362181710798E+03   -0.38377E-01   -0.36641E-01  7392   0.413E-01 0.882E-02
CGA:  52    -0.362196548171E+03   -0.14837E-01   -0.14057E-01  7392   0.172E-01 0.379E-02
CGA:  53    -0.362205095680E+03   -0.85475E-02   -0.85424E-02  7392   0.137E-01 0.990E-05
CGA:  54    -0.362210288675E+03   -0.51930E-02   -0.45769E-02  7392   0.901E-02 0.293E-02
CGA:  55    -0.362216056802E+03   -0.57681E-02   -0.48687E-02  7392   0.996E-02 0.288E-02
CGA:  56    -0.362224280768E+03   -0.82240E-02   -0.93960E-02  7392   0.220E-01-0.206E-02
CGA:  57    -0.362232226485E+03   -0.79457E-02   -0.87267E-02  7392   0.327E-01-0.245E-02
CGA:  58    -0.362240526913E+03   -0.83004E-02   -0.80981E-02  7392   0.255E-01 0.276E-02
CGA:  59    -0.362249064392E+03   -0.85375E-02   -0.80171E-02  7392   0.198E-01 0.588E-02
CGA:  60    -0.362257397413E+03   -0.83330E-02   -0.79162E-02  7392   0.158E-01 0.262E-02
CGA:  61    -0.362265223434E+03   -0.78260E-02   -0.77019E-02  7392   0.191E-01 0.662E-03
CGA:  62    -0.362272269934E+03   -0.70465E-02   -0.67050E-02  7392   0.178E-01 0.249E-02
CGA:  63    -0.362280757754E+03   -0.84878E-02   -0.84415E-02  7392   0.225E-01 0.522E-03
CGA:  64    -0.362289207571E+03   -0.84498E-02   -0.92320E-02  7392   0.281E-01-0.453E-02
CGA:  65    -0.362295070317E+03   -0.58627E-02   -0.59072E-02  7392   0.331E-01-0.332E-02
CGA:  66    -0.362301618853E+03   -0.65485E-02   -0.64184E-02  7392   0.322E-01-0.353E-02
CGA:  67    -0.362306498111E+03   -0.48793E-02   -0.48345E-02  7392   0.300E-01 0.153E-03
CGA:  68    -0.362311723781E+03   -0.52257E-02   -0.51873E-02  7392   0.298E-01 0.667E-03
CGA:  69    -0.362316939346E+03   -0.52156E-02   -0.52431E-02  7392   0.318E-01-0.536E-04
CGA:  70    -0.362322677053E+03   -0.57377E-02   -0.55367E-02  7392   0.363E-01-0.196E-02
CGA:  71    -0.362327968098E+03   -0.52910E-02   -0.51318E-02  7392   0.410E-01-0.108E-02
SDA:  72    -0.362334408589E+03   -0.64405E-02   -0.63971E-02  7392   0.448E-01-0.140E-02
CGA:  73    -0.362360487863E+03   -0.26079E-01   -0.24805E-01  7392   0.341E-01 0.390E-02
CGA:  74    -0.362379998475E+03   -0.19511E-01   -0.20637E-01  7392   0.269E-01-0.343E-02
CGA:  75    -0.362395046465E+03   -0.15048E-01   -0.13851E-01  7392   0.116E-01 0.384E-02
CGA:  76    -0.362406077868E+03   -0.11031E-01   -0.10307E-01  7392   0.894E-02 0.151E-02
CGA:  77    -0.362412709159E+03   -0.66313E-02   -0.85829E-02  7392   0.209E-01-0.382E-02
CGA:  78    -0.362416642209E+03   -0.39331E-02   -0.39218E-02  7392   0.202E-01 0.879E-03
CGA:  79    -0.362421826487E+03   -0.51843E-02   -0.53090E-02  7392   0.122E-01 0.105E-02
CGA:  80    -0.362426504023E+03   -0.46775E-02   -0.46956E-02  7392   0.927E-02-0.159E-03
CGA:  81    -0.362429590547E+03   -0.30865E-02   -0.31019E-02  7392   0.791E-02-0.878E-03
CGA:  82    -0.362432072722E+03   -0.24822E-02   -0.24745E-02  7392   0.696E-02 0.369E-03
CGA:  83    -0.362433920745E+03   -0.18480E-02   -0.19188E-02  7392   0.422E-02 0.116E-02
CGA:  84    -0.362435443621E+03   -0.15229E-02   -0.15290E-02  7392   0.300E-02 0.562E-03
CGA:  85    -0.362436790776E+03   -0.13472E-02   -0.14084E-02  7392   0.308E-02-0.648E-03
CGA:  86    -0.362437601848E+03   -0.81107E-03   -0.81318E-03  7392   0.307E-02-0.197E-03
CGA:  87    -0.362438291354E+03   -0.68951E-03   -0.72489E-03  7392   0.250E-02 0.466E-03
CGA:  88    -0.362439122247E+03   -0.83089E-03   -0.84870E-03  7392   0.215E-02 0.629E-03
CGA:  89    -0.362440015255E+03   -0.89301E-03   -0.89261E-03  7392   0.146E-02 0.172E-04
CGA:  90    -0.362440623835E+03   -0.60858E-03   -0.65555E-03  7392   0.180E-02-0.396E-03
CGA:  91    -0.362440908039E+03   -0.28420E-03   -0.30049E-03  7392   0.160E-02 0.156E-03
CGA:  92    -0.362441264828E+03   -0.35679E-03   -0.39607E-03  7392   0.137E-02 0.388E-03
CGA:  93    -0.362441867892E+03   -0.60306E-03   -0.59823E-03  7392   0.155E-02 0.103E-03
CGA:  94    -0.362442478888E+03   -0.61100E-03   -0.74602E-03  7392   0.219E-02-0.109E-02
CGA:  95    -0.362443214450E+03   -0.73556E-03   -0.73158E-03  7392   0.622E-03 0.485E-03
CGA:  96    -0.362443611524E+03   -0.39707E-03   -0.38624E-03  7392   0.374E-03 0.517E-04
CGA:  97    -0.362443859262E+03   -0.24774E-03   -0.23458E-03  7392   0.439E-03 0.624E-04
CGA:  98    -0.362444119110E+03   -0.25985E-03   -0.24254E-03  7392   0.608E-03 0.102E-03
CGA:  99    -0.362444367990E+03   -0.24888E-03   -0.25018E-03  7392   0.794E-03 0.779E-04
CGA: 100    -0.362444539631E+03   -0.17164E-03   -0.19952E-03  7392   0.782E-03 0.110E-03
CGA: 101    -0.362444753020E+03   -0.21339E-03   -0.23000E-03  7392   0.616E-03 0.692E-04
CGA: 102    -0.362444985214E+03   -0.23219E-03   -0.23177E-03  7392   0.510E-03 0.813E-04
CGA: 103    -0.362445217105E+03   -0.23189E-03   -0.23260E-03  7392   0.385E-03-0.191E-04
CGA: 104    -0.362445354352E+03   -0.13725E-03   -0.17324E-03  7392   0.535E-03-0.281E-03
CGA: 105    -0.362445526096E+03   -0.17174E-03   -0.17655E-03  7392   0.159E-03 0.115E-03
CGA: 106    -0.350936271146E+03    0.11509E+02   -0.14390E+01  7392   0.111E+03-0.107E+02
CGA: 107    -0.358421263718E+03   -0.74850E+01   -0.19408E+02  7392   0.195E+03 0.300E+02
CGA: 108    -0.357297732424E+03    0.11235E+01   -0.72802E+02  7392   0.277E+02-0.390E+01
CGA: 109    -0.353486391144E+03    0.38113E+01   -0.99351E+00  7392   0.329E+03-0.137E+03
CGA: 110    -0.352247025705E+03    0.12394E+01   -0.41041E+02  7392   0.125E+03-0.967E+02
CGA: 111    -0.354519361439E+03   -0.22723E+01   -0.64244E+01  7392   0.383E+02 0.416E+02
CGA: 112    -0.346085287032E+03    0.84341E+01   -0.75965E+01  7392   0.747E+02-0.823E+01
CGA: 113    -0.351750776581E+03   -0.56655E+01   -0.43365E+01  7392   0.483E+02 0.561E+02
CGA: 114    -0.356204461345E+03   -0.44537E+01   -0.84065E+01  7392   0.240E+02 0.548E+01
CGA: 115    -0.359056281251E+03   -0.28518E+01   -0.46456E+01  7392   0.177E+02 0.342E+01
CGA: 116    -0.359886148389E+03   -0.82987E+00   -0.22330E+01  7392   0.561E+01 0.653E+01
CGA: 117    -0.361198800426E+03   -0.13127E+01   -0.18094E+01  7392   0.262E+01 0.135E+01
CGA: 118    -0.361868164386E+03   -0.66936E+00   -0.85913E+00  7392   0.119E+01 0.468E+00
CGA: 119    -0.362106408203E+03   -0.23824E+00   -0.34351E+00  7392   0.443E+00 0.238E+00
CGA: 120    -0.362250563254E+03   -0.14416E+00   -0.16537E+00  7392   0.128E+00 0.509E-01
CGA: 121    -0.362351027414E+03   -0.10046E+00   -0.99755E-01  7392   0.165E+00-0.249E-03
CGA: 122    -0.362387243230E+03   -0.36216E-01   -0.39384E-01  7392   0.664E-01 0.140E-01
CGA: 123    -0.362402466352E+03   -0.15223E-01   -0.16613E-01  7392   0.425E-01 0.417E-02
CGA: 124    -0.362416785743E+03   -0.14319E-01   -0.14418E-01  7392   0.299E-01 0.125E-02
CGA: 125    -0.362424549571E+03   -0.77638E-02   -0.73569E-02  7392   0.176E-01-0.757E-03
CGA: 126    -0.362430198653E+03   -0.56491E-02   -0.55079E-02  7392   0.172E-01-0.106E-02
CGA: 127    -0.362433342790E+03   -0.31441E-02   -0.31623E-02  7392   0.107E-01 0.962E-03
CGA: 128    -0.362435383639E+03   -0.20408E-02   -0.21787E-02  7392   0.862E-02 0.111E-02
CGA: 129    -0.362437557590E+03   -0.21740E-02   -0.22237E-02  7392   0.819E-02 0.681E-03
CGA: 130    -0.362439372628E+03   -0.18150E-02   -0.17381E-02  7392   0.564E-02-0.170E-03
CGA: 131    -0.362440583046E+03   -0.12104E-02   -0.11064E-02  7392   0.510E-02-0.509E-03
CGA: 132    -0.362441476530E+03   -0.89348E-03   -0.84688E-03  7392   0.481E-02-0.121E-03
CGA: 133    -0.362442123644E+03   -0.64711E-03   -0.68653E-03  7392   0.375E-02 0.358E-03
CGA: 134    -0.362442631387E+03   -0.50774E-03   -0.57899E-03  7392   0.318E-02 0.493E-03
CGA: 135    -0.362443167130E+03   -0.53574E-03   -0.57278E-03  7392   0.297E-02 0.329E-03
CGA: 136    -0.362443719234E+03   -0.55210E-03   -0.52252E-03  7392   0.242E-02-0.103E-03
CGA: 137    -0.362444147678E+03   -0.42844E-03   -0.35669E-03  7392   0.200E-02-0.414E-03
CGA: 138    -0.362444444467E+03   -0.29679E-03   -0.23833E-03  7392   0.190E-02-0.343E-03
CGA: 139    -0.362444652132E+03   -0.20767E-03   -0.18987E-03  7392   0.171E-02-0.726E-04
CGA: 140    -0.362444809243E+03   -0.15711E-03   -0.18156E-03  7392   0.145E-02 0.172E-03
CGA: 141    -0.362444945244E+03   -0.13600E-03   -0.17863E-03  7392   0.128E-02 0.291E-03
CGA: 142    -0.362445103395E+03   -0.15815E-03   -0.19167E-03  7392   0.119E-02 0.265E-03
CGA: 143    -0.362445296198E+03   -0.19280E-03   -0.19751E-03  7392   0.103E-02 0.646E-04
SDA: 144    -0.362445475432E+03   -0.17923E-03   -0.15551E-03  7392   0.867E-03-0.202E-03
CGA: 145    -0.362445413170E+03    0.62262E-04   -0.23231E-03  7392   0.476E-02-0.116E-02
CGA: 146    -0.362446277356E+03   -0.86419E-03   -0.98925E-03  7392   0.371E-03 0.519E-03
CGA: 147    -0.362446414586E+03   -0.13723E-03   -0.13714E-03  7392   0.849E-04-0.133E-05
CGA: 148    -0.362446435444E+03   -0.20858E-04   -0.84863E-04  7392   0.255E-03-0.112E-03
CGA: 149    -0.362446457077E+03   -0.21633E-04   -0.45198E-04  7392   0.421E-04 0.837E-04
CGA: 150    -0.362446462175E+03   -0.50983E-05   -0.10206E-04  7392   0.132E-04 0.195E-04
CGA: 151    -0.362446140991E+03    0.32118E-03   -0.17435E-03  7392   0.949E-03-0.159E-03
CGA: 152    -0.362446414674E+03   -0.27368E-03   -0.31328E-03  7392   0.147E-03 0.862E-04
CGA: 153    -0.362446489703E+03   -0.75029E-04   -0.63476E-04  7392   0.327E-04-0.316E-04
CGA: 154    -0.362446488473E+03    0.12293E-05   -0.47005E-05  7392   0.912E-05 0.105E-04
   1 F= -.36244649E+03 E0= -.36244649E+03  d E =-.362446E+03  mag=    16.0000
       N       E                     dE             d eps       ncg     rms          ort
SDA:   1    -0.362448345784E+03   -0.18561E-02    0.00000E+00  7392   0.113E-01 0.000E+00
CGA:   2    -0.362452040734E+03   -0.36949E-02   -0.37071E-02  7392   0.381E-02 0.339E-04
CGA:   3    -0.362452844223E+03   -0.80349E-03   -0.80413E-03  7392   0.133E-02 0.875E-06
CGA:   4    -0.362453045626E+03   -0.20140E-03   -0.20075E-03  7392   0.335E-03-0.165E-05
CGA:   5    -0.362453123634E+03   -0.78009E-04   -0.72144E-04  7392   0.122E-03-0.144E-04
CGA:   6    -0.362453151833E+03   -0.28199E-04   -0.24319E-04  7392   0.557E-04-0.988E-05
CGA:   7    -0.362453164276E+03   -0.12443E-04   -0.12267E-04  7392   0.220E-04-0.533E-06
CGA:   8    -0.362453169318E+03   -0.50419E-05   -0.53080E-05  7392   0.944E-05 0.821E-06
   2 F= -.36245317E+03 E0= -.36245317E+03  d E =-.668085E-02  mag=    16.0000
       N       E                     dE             d eps       ncg     rms          ort
SDA:   1    -0.362413434734E+03    0.39730E-01    0.00000E+00  7392   0.126E+00 0.000E+00
CGA:   2    -0.362454612113E+03   -0.41177E-01   -0.41210E-01  7392   0.434E-01 0.148E-03
CGA:   3    -0.362463522631E+03   -0.89105E-02   -0.89176E-02  7392   0.153E-01 0.182E-04
CGA:   4    -0.362465859587E+03   -0.23370E-02   -0.23369E-02  7392   0.362E-02-0.398E-05
CGA:   5    -0.362466647931E+03   -0.78834E-03   -0.77096E-03  7392   0.132E-02-0.608E-04
CGA:   6    -0.362466907464E+03   -0.25953E-03   -0.24798E-03  7392   0.570E-03-0.395E-04
CGA:   7    -0.362467040801E+03   -0.13334E-03   -0.13250E-03  7392   0.240E-03-0.375E-05
CGA:   8    -0.362467097131E+03   -0.56329E-04   -0.57777E-04  7392   0.985E-04 0.668E-05
CGA:   9    -0.362467132306E+03   -0.35176E-04   -0.33712E-04  7392   0.561E-04-0.128E-04
CGA:  10    -0.362467145640E+03   -0.13334E-04   -0.13535E-04  7392   0.279E-04 0.121E-05
CGA:  11    -0.362467152712E+03   -0.70725E-05   -0.79807E-05  7392   0.167E-04 0.591E-05
CGA:  12    -0.362467165052E+03   -0.12340E-04   -0.13181E-04  7392   0.406E-04-0.377E-05
CGA:  13    -0.362467178439E+03   -0.13387E-04   -0.13329E-04  7392   0.625E-04-0.429E-05
CGA:  14    -0.362467197809E+03   -0.19370E-04   -0.19033E-04  7392   0.647E-04-0.327E-05
CGA:  15    -0.362467220776E+03   -0.22966E-04   -0.22126E-04  7392   0.525E-04-0.114E-04
CGA:  16    -0.362467235778E+03   -0.15002E-04   -0.13923E-04  7392   0.370E-04-0.979E-05
CGA:  17    -0.362467244563E+03   -0.87852E-05   -0.82215E-05  7392   0.209E-04-0.356E-05
CGA:  18    -0.362467251770E+03   -0.72063E-05   -0.10482E-04  7392   0.331E-04-0.234E-04
CGA:  19    -0.362467265318E+03   -0.13549E-04   -0.13371E-04  7392   0.123E-04-0.968E-05
CGA:  20    -0.362467265741E+03   -0.42230E-06   -0.15848E-05  7392   0.542E-05 0.486E-05
   3 F= -.36246727E+03 E0= -.36246727E+03  d E =-.140964E-01  mag=    16.0000
       N       E                     dE             d eps       ncg     rms          ort
SDA:   1    -0.362406109823E+03    0.61155E-01    0.00000E+00  7392   0.152E+00 0.000E+00
CGA:   2    -0.362453909002E+03   -0.47799E-01   -0.47822E-01  7392   0.627E-01 0.240E-03
CGA:   3    -0.362464747070E+03   -0.10838E-01   -0.10845E-01  7392   0.216E-01 0.309E-04
CGA:   4    -0.362468239787E+03   -0.34927E-02   -0.34905E-02  7392   0.504E-02-0.161E-04
CGA:   5    -0.362469223618E+03   -0.98383E-03   -0.96739E-03  7392   0.174E-02-0.912E-04
CGA:   6    -0.362469583102E+03   -0.35948E-03   -0.34657E-03  7392   0.663E-03-0.800E-04
CGA:   7    -0.362469736306E+03   -0.15320E-03   -0.15190E-03  7392   0.280E-03-0.113E-04
CGA:   8    -0.362469799182E+03   -0.62877E-04   -0.64355E-04  7392   0.102E-03 0.127E-04
CGA:   9    -0.362469832972E+03   -0.33790E-04   -0.33454E-04  7392   0.510E-04-0.114E-04
CGA:  10    -0.362469845044E+03   -0.12072E-04   -0.12005E-04  7392   0.193E-04-0.859E-06
CGA:  11    -0.362469848979E+03   -0.39351E-05   -0.44116E-05  7392   0.774E-05 0.447E-05
   4 F= -.36246985E+03 E0= -.36246985E+03  d E =-.258324E-02  mag=    16.0000
       N       E                     dE             d eps       ncg     rms          ort
SDA:   1    -0.362450968264E+03    0.18877E-01    0.00000E+00  7392   0.460E-01 0.000E+00
CGA:   2    -0.362463931602E+03   -0.12963E-01   -0.12968E-01  7392   0.260E-01 0.664E-04
CGA:   3    -0.362467913567E+03   -0.39820E-02   -0.39840E-02  7392   0.645E-02 0.106E-04
CGA:   4    -0.362469003021E+03   -0.10895E-02   -0.10887E-02  7392   0.162E-02-0.641E-05
CGA:   5    -0.362469299180E+03   -0.29616E-03   -0.29061E-03  7392   0.485E-03-0.411E-04
CGA:   6    -0.362469398849E+03   -0.99669E-04   -0.94958E-04  7392   0.191E-03-0.436E-04
CGA:   7    -0.362469437468E+03   -0.38619E-04   -0.37871E-04  7392   0.747E-04-0.878E-05
CGA:   8    -0.362469452924E+03   -0.15457E-04   -0.16066E-04  7392   0.287E-04 0.825E-05
CGA:   9    -0.362469463905E+03   -0.10980E-04   -0.11148E-04  7392   0.224E-04-0.310E-05
CGA:  10    -0.362469471133E+03   -0.72285E-05   -0.76369E-05  7392   0.215E-04-0.481E-05
   5 F= -.36246947E+03 E0= -.36246947E+03  d E =0.377846E-03  mag=    16.0000
       N       E                     dE             d eps       ncg     rms          ort
SDA:   1    -0.362296909199E+03    0.17255E+00    0.00000E+00  7392   0.423E+00 0.000E+00
CGA:   2    -0.362417545375E+03   -0.12064E+00   -0.12063E+00  7392   0.248E+00-0.572E-03
CGA:   3    -0.362455323309E+03   -0.37778E-01   -0.37778E-01  7392   0.586E-01-0.165E-05
CGA:   4    -0.362464699656E+03   -0.93763E-02   -0.94096E-02  7392   0.139E-01 0.243E-03
CGA:   5    -0.362467079838E+03   -0.23802E-02   -0.23983E-02  7392   0.389E-02 0.154E-03
CGA:   6    -0.362467824122E+03   -0.74428E-03   -0.74649E-03  7392   0.118E-02 0.228E-04
CGA:   7    -0.362468088957E+03   -0.26483E-03   -0.26372E-03  7392   0.443E-03-0.207E-04
CGA:   8    -0.362468198022E+03   -0.10907E-03   -0.10911E-03  7392   0.189E-03 0.159E-05
CGA:   9    -0.362468249403E+03   -0.51381E-04   -0.51398E-04  7392   0.782E-04 0.112E-04
CGA:  10    -0.362468272257E+03   -0.22854E-04   -0.22825E-04  7392   0.327E-04 0.981E-05
CGA:  11    -0.362468282391E+03   -0.10135E-04   -0.10118E-04  7392   0.153E-04 0.798E-05
CGA:  12    -0.362468290546E+03   -0.81543E-05   -0.79019E-05  7392   0.160E-04 0.172E-05
   6 F= -.36246829E+03 E0= -.36246829E+03  d E =0.118059E-02  mag=    16.0000
       N       E                     dE             d eps       ncg     rms          ort
SDA:   1    -0.362010746284E+03    0.45754E+00    0.00000E+00  7392   0.106E+01 0.000E+00
CGA:   2    -0.362327171949E+03   -0.31643E+00   -0.31643E+00  7392   0.540E+00-0.232E-03
CGA:   3    -0.362413212865E+03   -0.86041E-01   -0.86036E-01  7392   0.156E+00-0.444E-04
CGA:   4    -0.362438808415E+03   -0.25596E-01   -0.25612E-01  7392   0.379E-01 0.108E-03
CGA:   5    -0.362445581406E+03   -0.67730E-02   -0.67859E-02  7392   0.119E-01 0.130E-03
CGA:   6    -0.362447873551E+03   -0.22921E-02   -0.22930E-02  7392   0.394E-02 0.878E-05
CGA:   7    -0.362448815182E+03   -0.94163E-03   -0.94048E-03  7392   0.170E-02-0.417E-04
CGA:   8    -0.362449221751E+03   -0.40657E-03   -0.40714E-03  7392   0.653E-03 0.243E-04
CGA:   9    -0.362449399349E+03   -0.17760E-03   -0.17745E-03  7392   0.253E-03 0.406E-04
CGA:  10    -0.362449471803E+03   -0.72454E-04   -0.72355E-04  7392   0.982E-04 0.183E-04
CGA:  11    -0.362449503111E+03   -0.31308E-04   -0.30926E-04  7392   0.458E-04 0.132E-04
CGA:  12    -0.362449525662E+03   -0.22551E-04   -0.22712E-04  7392   0.495E-04-0.837E-06
CGA:  13    -0.362449550892E+03   -0.25230E-04   -0.23650E-04  7392   0.601E-04 0.774E-05
CGA:  14    -0.362449583034E+03   -0.32142E-04   -0.28532E-04  7392   0.586E-04 0.294E-04
CGA:  15    -0.362449632048E+03   -0.49014E-04   -0.43394E-04  7392   0.641E-04 0.278E-04
CGA:  16    -0.362449711884E+03   -0.79836E-04   -0.74400E-04  7392   0.119E-03 0.106E-04
CGA:  17    -0.362449792687E+03   -0.80803E-04   -0.75824E-04  7392   0.150E-03 0.204E-04
CGA:  18    -0.362449879985E+03   -0.87298E-04   -0.87766E-04  7392   0.164E-03-0.141E-04
CGA:  19    -0.362449941373E+03   -0.61388E-04   -0.76357E-04  7392   0.168E-03-0.895E-04
CGA:  20    -0.362450012558E+03   -0.71185E-04   -0.70628E-04  7392   0.578E-04 0.838E-05
CGA:  21    -0.362449801772E+03    0.21079E-03   -0.11702E-03  7392   0.125E-02-0.179E-03
CGA:  22    -0.362450018318E+03   -0.21655E-03   -0.25516E-03  7392   0.149E-03 0.856E-04
CGA:  23    -0.362450107084E+03   -0.88766E-04   -0.83757E-04  7392   0.119E-03-0.489E-04
CGA:  24    -0.362450124494E+03   -0.17410E-04   -0.19429E-04  7392   0.415E-04 0.535E-05
CGA:  25    -0.362450128763E+03   -0.42688E-05   -0.86994E-05  7392   0.198E-04 0.110E-04
   7 F= -.36245013E+03 E0= -.36245013E+03  d E =0.181618E-01  mag=    16.0000
       N       E                     dE             d eps       ncg     rms          ort
SDA:   1    -0.362336701717E+03    0.11342E+00    0.00000E+00  7392   0.314E+00 0.000E+00
CGA:   2    -0.362439212217E+03   -0.10251E+00   -0.10259E+00  7392   0.988E-01 0.386E-04
CGA:   3    -0.362463078812E+03   -0.23867E-01   -0.23853E-01  7392   0.257E-01-0.425E-04
CGA:   4    -0.362467279998E+03   -0.42012E-02   -0.41699E-02  7392   0.981E-02-0.811E-04
CGA:   5    -0.362469053646E+03   -0.17736E-02   -0.17606E-02  7392   0.273E-02-0.405E-04
CGA:   6    -0.362469597770E+03   -0.54412E-03   -0.54998E-03  7392   0.126E-02 0.188E-04
CGA:   7    -0.362469899136E+03   -0.30137E-03   -0.30549E-03  7392   0.461E-03 0.163E-04
CGA:   8    -0.362470031569E+03   -0.13243E-03   -0.12941E-03  7392   0.223E-03-0.151E-04
CGA:   9    -0.362470095617E+03   -0.64047E-04   -0.60370E-04  7392   0.921E-04-0.196E-04
CGA:  10    -0.362470124915E+03   -0.29298E-04   -0.27051E-04  7392   0.486E-04-0.164E-04
CGA:  11    -0.362470141160E+03   -0.16245E-04   -0.15414E-04  7392   0.384E-04-0.127E-04
CGA:  12    -0.362470155078E+03   -0.13918E-04   -0.14305E-04  7392   0.404E-04-0.712E-05
CGA:  13    -0.362470130811E+03    0.24267E-04   -0.53508E-04  7392   0.416E-03-0.673E-04
CGA:  14    -0.362470230524E+03   -0.99712E-04   -0.96869E-04  7392   0.493E-04-0.103E-04
CGA:  15    -0.362470245606E+03   -0.15082E-04   -0.15679E-04  7392   0.138E-04 0.349E-05
CGA:  16    -0.362470232745E+03    0.12861E-04   -0.23606E-04  7392   0.145E-03-0.329E-04
CGA:  17    -0.362470255671E+03   -0.22927E-04   -0.30209E-04  7392   0.218E-04 0.216E-04
CGA:  18    -0.362470266538E+03   -0.10867E-04   -0.10393E-04  7392   0.118E-04-0.425E-05
CGA:  19    -0.362470270218E+03   -0.36792E-05   -0.36998E-05  7392   0.494E-05 0.144E-06
   8 F= -.36247027E+03 E0= -.36247027E+03  d E =-.201415E-01  mag=    16.0000
       N       E                     dE             d eps       ncg     rms          ort
SDA:   1    -0.362450575776E+03    0.19691E-01    0.00000E+00  7392   0.506E-01 0.000E+00
CGA:   2    -0.362465857932E+03   -0.15282E-01   -0.15263E-01  7392   0.232E-01-0.752E-04
CGA:   3    -0.362469507354E+03   -0.36494E-02   -0.36486E-02  7392   0.661E-02-0.270E-05
CGA:   4    -0.362470636655E+03   -0.11293E-02   -0.11329E-02  7392   0.170E-02 0.830E-05
CGA:   5    -0.362470918065E+03   -0.28141E-03   -0.28576E-03  7392   0.497E-03 0.117E-04
CGA:   6    -0.362471012208E+03   -0.94144E-04   -0.97223E-04  7392   0.159E-03 0.954E-05
CGA:   7    -0.362471050138E+03   -0.37929E-04   -0.38267E-04  7392   0.746E-04 0.125E-05
CGA:   8    -0.362471070835E+03   -0.20697E-04   -0.20110E-04  7392   0.366E-04-0.273E-05
CGA:   9    -0.362471083652E+03   -0.12817E-04   -0.12168E-04  7392   0.238E-04-0.508E-05
CGA:  10    -0.362471092850E+03   -0.91973E-05   -0.88747E-05  7392   0.251E-04-0.933E-05
CGA:  11    -0.362471098509E+03   -0.56596E-05   -0.10992E-04  7392   0.644E-04-0.211E-04
CGA:  12    -0.362471115214E+03   -0.16705E-04   -0.16203E-04  7392   0.224E-04-0.223E-05
CGA:  13    -0.362471125519E+03   -0.10305E-04   -0.10368E-04  7392   0.185E-04-0.494E-05
CGA:  14    -0.362471129672E+03   -0.41534E-05   -0.14435E-04  7392   0.557E-04-0.193E-04
CGA:  15    -0.362471142486E+03   -0.12814E-04   -0.13414E-04  7392   0.119E-04 0.236E-05
CGA:  16    -0.362471148469E+03   -0.59826E-05   -0.12524E-04  7392   0.364E-04-0.125E-04
   9 F= -.36247115E+03 E0= -.36247115E+03  d E =-.878251E-03  mag=    16.0000
       N       E                     dE             d eps       ncg     rms          ort
SDA:   1    -0.362330556272E+03    0.14059E+00    0.00000E+00  7392   0.361E+00 0.000E+00
CGA:   2    -0.362432168318E+03   -0.10161E+00   -0.10164E+00  7392   0.187E+00 0.230E-04
CGA:   3    -0.362460611115E+03   -0.28443E-01   -0.28431E-01  7392   0.485E-01-0.327E-04
CGA:   4    -0.362468702400E+03   -0.80913E-02   -0.80854E-02  7392   0.120E-01-0.270E-04
CGA:   5    -0.362470711519E+03   -0.20091E-02   -0.20214E-02  7392   0.320E-02 0.409E-04
CGA:   6    -0.362471301325E+03   -0.58981E-03   -0.59741E-03  7392   0.965E-03 0.294E-04
CGA:   7    -0.362471512711E+03   -0.21139E-03   -0.21219E-03  7392   0.353E-03 0.367E-05
CGA:   8    -0.362471601871E+03   -0.89160E-04   -0.89504E-04  7392   0.155E-03 0.206E-05
CGA:   9    -0.362471645406E+03   -0.43535E-04   -0.43855E-04  7392   0.683E-04 0.256E-05
CGA:  10    -0.362471666354E+03   -0.20948E-04   -0.20958E-04  7392   0.310E-04 0.933E-07
CGA:  11    -0.362471677944E+03   -0.11590E-04   -0.11497E-04  7392   0.200E-04-0.389E-05
CGA:  12    -0.362471683384E+03   -0.54403E-05   -0.15264E-04  7392   0.797E-04-0.205E-04
CGA:  13    -0.362471702655E+03   -0.19271E-04   -0.18674E-04  7392   0.184E-04-0.327E-05
CGA:  14    -0.362471711657E+03   -0.90014E-05   -0.11045E-04  7392   0.280E-04-0.936E-05
  10 F= -.36247171E+03 E0= -.36247171E+03  d E =-.563188E-03  mag=    16.0000
       N       E                     dE             d eps       ncg     rms          ort
SDA:   1    -0.361353983179E+03    0.11177E+01    0.00000E+00  7392   0.254E+01 0.000E+00
CGA:   2    -0.362199134799E+03   -0.84515E+00   -0.84524E+00  7392   0.107E+01 0.576E-03
CGA:   3    -0.362370453657E+03   -0.17132E+00   -0.17125E+00  7392   0.310E+00 0.617E-03
CGA:   4    -0.362420515041E+03   -0.50061E-01   -0.50006E-01  7392   0.718E-01-0.293E-03
CGA:   5    -0.362433521387E+03   -0.13006E-01   -0.12991E-01  7392   0.217E-01-0.112E-03
CGA:   6    -0.362437678077E+03   -0.41567E-02   -0.41567E-02  7392   0.719E-02-0.371E-05
CGA:   7    -0.362439319722E+03   -0.16416E-02   -0.16480E-02  7392   0.291E-02 0.458E-04
CGA:   8    -0.362440033222E+03   -0.71350E-03   -0.71747E-03  7392   0.120E-02 0.347E-04
CGA:   9    -0.362440381648E+03   -0.34843E-03   -0.34668E-03  7392   0.492E-03-0.268E-04
CGA:  10    -0.362440519531E+03   -0.13788E-03   -0.13592E-03  7392   0.178E-03-0.296E-04
CGA:  11    -0.362440570085E+03   -0.50553E-04   -0.49800E-04  7392   0.626E-04-0.159E-04
CGA:  12    -0.362440592248E+03   -0.22164E-04   -0.23282E-04  7392   0.452E-04-0.171E-04
CGA:  13    -0.362440595319E+03   -0.30712E-05   -0.29731E-04  7392   0.160E-03-0.478E-04
CGA:  14    -0.362440635711E+03   -0.40391E-04   -0.39334E-04  7392   0.310E-04-0.828E-05
CGA:  15    -0.362440649104E+03   -0.13393E-04   -0.14477E-04  7392   0.210E-04-0.872E-05
CGA:  16    -0.362440661516E+03   -0.12412E-04    0.29339E-04  7392   0.921E-05 0.291E-05
CGA:  17    -0.362440670158E+03   -0.86419E-05    0.19401E-04  7392   0.639E-05 0.351E-05
  11 F= -.36244067E+03 E0= -.36244067E+03  d E =0.310415E-01  mag=    16.0000
       N       E                     dE             d eps       ncg     rms          ort
SDA:   1    -0.362155401709E+03    0.28526E+00    0.00000E+00  7392   0.744E+00 0.000E+00
CGA:   2    -0.362392157551E+03   -0.23676E+00   -0.23675E+00  7392   0.325E+00-0.184E-03
CGA:   3    -0.362448333301E+03   -0.56176E-01   -0.56214E-01  7392   0.106E+00 0.753E-04
CGA:   4    -0.362465334811E+03   -0.17002E-01   -0.17034E-01  7392   0.252E-01 0.150E-03
CGA:   5    -0.362470110466E+03   -0.47757E-02   -0.47875E-02  7392   0.851E-02 0.721E-04
CGA:   6    -0.362471765556E+03   -0.16551E-02   -0.16547E-02  7392   0.297E-02-0.387E-05
CGA:   7    -0.362472504378E+03   -0.73882E-03   -0.73558E-03  7392   0.136E-02-0.372E-04
CGA:   8    -0.362472824851E+03   -0.32047E-03   -0.32036E-03  7392   0.506E-03-0.140E-05
CGA:   9    -0.362472954191E+03   -0.12934E-03   -0.13107E-03  7392   0.174E-03 0.255E-04
CGA:  10    -0.362473000738E+03   -0.46548E-04   -0.47131E-04  7392   0.570E-04 0.889E-05
CGA:  11    -0.362473017727E+03   -0.16988E-04   -0.17036E-04  7392   0.200E-04 0.132E-05
CGA:  12    -0.362473025263E+03   -0.75369E-05   -0.77531E-05  7392   0.131E-04-0.360E-05
  12 F= -.36247303E+03 E0= -.36247303E+03  d E =-.323551E-01  mag=    16.0000
       N       E                     dE             d eps       ncg     rms          ort
SDA:   1    -0.362463288423E+03    0.97293E-02    0.00000E+00  7392   0.252E-01 0.000E+00
CGA:   2    -0.362470579510E+03   -0.72911E-02   -0.72945E-02  7392   0.136E-01 0.669E-04
CGA:   3    -0.362472668467E+03   -0.20890E-02   -0.20965E-02  7392   0.368E-02 0.405E-04
CGA:   4    -0.362473271277E+03   -0.60281E-03   -0.60287E-03  7392   0.923E-03-0.419E-06
CGA:   5    -0.362473433289E+03   -0.16201E-03   -0.16020E-03  7392   0.282E-03-0.128E-04
CGA:   6    -0.362473488461E+03   -0.55172E-04   -0.54174E-04  7392   0.901E-04-0.874E-05
CGA:   7    -0.362473508996E+03   -0.20535E-04   -0.20288E-04  7392   0.377E-04-0.347E-05
CGA:   8    -0.362473517905E+03   -0.89090E-05   -0.89059E-05  7392   0.155E-04-0.600E-07
  13 F= -.36247352E+03 E0= -.36247352E+03  d E =-.492642E-03  mag=    16.0000
       N       E                     dE             d eps       ncg     rms          ort
SDA:   1    -0.362439854439E+03    0.33655E-01    0.00000E+00  7392   0.824E-01 0.000E+00
CGA:   2    -0.362462883660E+03   -0.23029E-01   -0.23031E-01  7392   0.474E-01 0.711E-04
CGA:   3    -0.362470163696E+03   -0.72800E-02   -0.72992E-02  7392   0.117E-01 0.128E-03
CGA:   4    -0.362472085025E+03   -0.19213E-02   -0.19231E-02  7392   0.282E-02 0.115E-04
CGA:   5    -0.362472574566E+03   -0.48954E-03   -0.48820E-03  7392   0.819E-03-0.129E-04
CGA:   6    -0.362472736130E+03   -0.16156E-03   -0.15945E-03  7392   0.275E-03-0.264E-04
CGA:   7    -0.362472795761E+03   -0.59632E-04   -0.58908E-04  7392   0.104E-03-0.142E-04
CGA:   8    -0.362472817508E+03   -0.21747E-04   -0.22042E-04  7392   0.371E-04 0.645E-05
CGA:   9    -0.362472826791E+03   -0.92825E-05   -0.94555E-05  7392   0.132E-04 0.628E-05
  14 F= -.36247283E+03 E0= -.36247283E+03  d E =0.691114E-03  mag=    16.0000
       N       E                     dE             d eps       ncg     rms          ort
SDA:   1    -0.362318300024E+03    0.15452E+00    0.00000E+00  7392   0.374E+00 0.000E+00
CGA:   2    -0.362429493018E+03   -0.11119E+00   -0.11119E+00  7392   0.206E+00 0.132E-05
CGA:   3    -0.362460044613E+03   -0.30552E-01   -0.30581E-01  7392   0.483E-01 0.221E-03
CGA:   4    -0.362467804011E+03   -0.77594E-02   -0.77663E-02  7392   0.119E-01 0.626E-04
CGA:   5    -0.362469805213E+03   -0.20012E-02   -0.20028E-02  7392   0.332E-02 0.149E-04
CGA:   6    -0.362470440476E+03   -0.63526E-03   -0.63246E-03  7392   0.103E-02-0.447E-04
CGA:   7    -0.362470662395E+03   -0.22192E-03   -0.22079E-03  7392   0.364E-03-0.330E-04
CGA:   8    -0.362470743999E+03   -0.81604E-04   -0.81919E-04  7392   0.136E-03 0.185E-04
CGA:   9    -0.362470780627E+03   -0.36628E-04   -0.36510E-04  7392   0.514E-04 0.159E-04
CGA:  10    -0.362470798565E+03   -0.17938E-04   -0.18093E-04  7392   0.250E-04-0.237E-05
CGA:  11    -0.362470804952E+03   -0.63878E-05   -0.63680E-05  7392   0.911E-05 0.130E-05
  15 F= -.36247080E+03 E0= -.36247080E+03  d E =0.202184E-02  mag=    16.0000
       N       E                     dE             d eps       ncg     rms          ort
SDA:   1    -0.362109785509E+03    0.36101E+00    0.00000E+00  7392   0.844E+00 0.000E+00
CGA:   2    -0.362382068647E+03   -0.27228E+00   -0.27233E+00  7392   0.400E+00-0.945E-03
CGA:   3    -0.362441965635E+03   -0.59897E-01   -0.59880E-01  7392   0.100E+00-0.205E-03
CGA:   4    -0.362458020816E+03   -0.16055E-01   -0.16069E-01  7392   0.239E-01 0.129E-03
CGA:   5    -0.362462141059E+03   -0.41202E-02   -0.41334E-02  7392   0.684E-02 0.154E-03
CGA:   6    -0.362463415130E+03   -0.12741E-02   -0.12767E-02  7392   0.206E-02 0.390E-04
CGA:   7    -0.362463870060E+03   -0.45493E-03   -0.45495E-03  7392   0.753E-03 0.463E-06
CGA:   8    -0.362464055605E+03   -0.18555E-03   -0.18555E-03  7392   0.310E-03 0.177E-04
CGA:   9    -0.362464144553E+03   -0.88948E-04   -0.88531E-04  7392   0.130E-03 0.128E-04
CGA:  10    -0.362464183981E+03   -0.39427E-04   -0.39394E-04  7392   0.522E-04 0.725E-06
CGA:  11    -0.362464202206E+03   -0.18225E-04   -0.19821E-04  7392   0.336E-04-0.126E-04
CGA:  12    -0.362464211231E+03   -0.90249E-05   -0.13696E-04  7392   0.464E-04-0.167E-04
  16 F= -.36246421E+03 E0= -.36246421E+03  d E =0.659372E-02  mag=    16.0000
       N       E                     dE             d eps       ncg     rms          ort
SDA:   1    -0.362286120622E+03    0.17808E+00    0.00000E+00  7392   0.432E+00 0.000E+00
CGA:   2    -0.362419330169E+03   -0.13321E+00   -0.13321E+00  7392   0.215E+00-0.122E-03
CGA:   3    -0.362452422843E+03   -0.33093E-01   -0.33039E-01  7392   0.567E-01-0.436E-03
CGA:   4    -0.362461712980E+03   -0.92901E-02   -0.92822E-02  7392   0.137E-01-0.846E-04
CGA:   5    -0.362464130776E+03   -0.24178E-02   -0.24205E-02  7392   0.419E-02 0.270E-04
CGA:   6    -0.362464924738E+03   -0.79396E-03   -0.79517E-03  7392   0.132E-02 0.154E-04
CGA:   7    -0.362465228955E+03   -0.30422E-03   -0.30450E-03  7392   0.535E-03 0.897E-05
CGA:   8    -0.362465363948E+03   -0.13499E-03   -0.13498E-03  7392   0.230E-03-0.226E-05
CGA:   9    -0.362465435405E+03   -0.71458E-04   -0.73282E-04  7392   0.121E-03-0.294E-04
CGA:  10    -0.362465467294E+03   -0.31888E-04   -0.32951E-04  7392   0.583E-04-0.210E-04
CGA:  11    -0.362465484045E+03   -0.16751E-04   -0.19265E-04  7392   0.434E-04-0.185E-04
CGA:  12    -0.362465368415E+03    0.11563E-03   -0.62569E-04  7392   0.759E-03-0.112E-03
CGA:  13    -0.362465520739E+03   -0.15232E-03   -0.15470E-03  7392   0.101E-03 0.804E-05
CGA:  14    -0.362465562244E+03   -0.41505E-04   -0.39926E-04  7392   0.411E-04-0.184E-04
CGA:  15    -0.362465572797E+03   -0.10553E-04   -0.11124E-04  7392   0.131E-04 0.399E-05
CGA:  16    -0.362465546331E+03    0.26466E-04   -0.25574E-04  7392   0.199E-03-0.396E-04
CGA:  17    -0.362465590135E+03   -0.43805E-04   -0.50274E-04  7392   0.197E-04 0.231E-04
CGA:  18    -0.362465618538E+03   -0.28403E-04    0.23563E-04  7392   0.213E-04-0.117E-04
CGA:  19    -0.362465614559E+03    0.39792E-05   -0.18693E-05  7392   0.920E-05 0.136E-04
  17 F= -.36246561E+03 E0= -.36246561E+03  d E =-.140333E-02  mag=    16.0000
       N       E                     dE             d eps       ncg     rms          ort
SDA:   1    -0.362439772509E+03    0.25846E-01    0.00000E+00  7392   0.656E-01 0.000E+00
CGA:   2    -0.362460580140E+03   -0.20808E-01   -0.20865E-01  7392   0.240E-01 0.341E-03
CGA:   3    -0.362465218422E+03   -0.46383E-02   -0.46380E-02  7392   0.872E-02-0.331E-05
CGA:   4    -0.362466552026E+03   -0.13336E-02   -0.13223E-02  7392   0.205E-02-0.388E-04
CGA:   5    -0.362466979169E+03   -0.42714E-03   -0.40718E-03  7392   0.753E-03-0.831E-04
CGA:   6    -0.362467132872E+03   -0.15370E-03   -0.14281E-03  7392   0.291E-03-0.474E-04
CGA:   7    -0.362467196733E+03   -0.63860E-04   -0.63478E-04  7392   0.117E-03-0.213E-05
CGA:   8    -0.362467222451E+03   -0.25719E-04   -0.26722E-04  7392   0.439E-04 0.565E-05
CGA:   9    -0.362467238852E+03   -0.16401E-04   -0.15912E-04  7392   0.282E-04-0.921E-05
CGA:  10    -0.362467246095E+03   -0.72430E-05   -0.67849E-05  7392   0.147E-04-0.503E-05
  18 F= -.36246725E+03 E0= -.36246725E+03  d E =-.163154E-02  mag=    16.0000
       N       E                     dE             d eps       ncg     rms          ort
SDA:   1    -0.362445597537E+03    0.21641E-01    0.00000E+00  7392   0.510E-01 0.000E+00
CGA:   2    -0.362461757099E+03   -0.16160E-01   -0.16155E-01  7392   0.253E-01-0.735E-04
CGA:   3    -0.362465478528E+03   -0.37214E-02   -0.37113E-02  7392   0.608E-02-0.463E-04
CGA:   4    -0.362466457086E+03   -0.97856E-03   -0.97716E-03  7392   0.149E-02-0.727E-05
CGA:   5    -0.362466706378E+03   -0.24929E-03   -0.25050E-03  7392   0.427E-03 0.591E-05
CGA:   6    -0.362466785599E+03   -0.79222E-04   -0.79017E-04  7392   0.123E-03-0.131E-05
CGA:   7    -0.362466813069E+03   -0.27470E-04   -0.27167E-04  7392   0.448E-04-0.246E-05
CGA:   8    -0.362466823930E+03   -0.10860E-04   -0.10925E-04  7392   0.192E-04 0.713E-06
CGA:   9    -0.362466830265E+03   -0.63353E-05   -0.63174E-05  7392   0.111E-04-0.175E-05
  19 F= -.36246683E+03 E0= -.36246683E+03  d E =0.415830E-03  mag=    16.0000
       N       E                     dE             d eps       ncg     rms          ort
SDA:   1    -0.361497859129E+03    0.96896E+00    0.00000E+00  7392   0.229E+01 0.000E+00
CGA:   2    -0.362216718132E+03   -0.71886E+00   -0.71891E+00  7392   0.124E+01 0.972E-03
CGA:   3    -0.362398302633E+03   -0.18158E+00   -0.18137E+00  7392   0.274E+00 0.608E-04
CGA:   4    -0.362442027751E+03   -0.43725E-01   -0.43669E-01  7392   0.680E-01-0.338E-03
CGA:   5    -0.362453719424E+03   -0.11692E-01   -0.11691E-01  7392   0.198E-01-0.323E-04
CGA:   6    -0.362457323094E+03   -0.36037E-02   -0.36074E-02  7392   0.572E-02 0.235E-04
CGA:   7    -0.362458525059E+03   -0.12020E-02   -0.12044E-02  7392   0.200E-02 0.244E-04
CGA:   8    -0.362459012742E+03   -0.48768E-03   -0.48956E-03  7392   0.836E-03 0.318E-04
CGA:   9    -0.362459253150E+03   -0.24041E-03   -0.24032E-03  7392   0.365E-03-0.531E-05
CGA:  10    -0.362459361812E+03   -0.10866E-03   -0.10871E-03  7392   0.148E-03-0.268E-04
CGA:  11    -0.362459401972E+03   -0.40160E-04   -0.40086E-04  7392   0.520E-04-0.126E-04
CGA:  12    -0.362459418924E+03   -0.16952E-04   -0.17875E-04  7392   0.322E-04-0.119E-04
CGA:  13    -0.362459429173E+03   -0.10248E-04   -0.15739E-04  7392   0.515E-04-0.166E-04
CGA:  14    -0.362459444183E+03   -0.15011E-04   -0.14830E-04  7392   0.168E-04-0.592E-05
CGA:  15    -0.362459449002E+03   -0.48186E-05   -0.11698E-04  7392   0.441E-04-0.147E-04
CGA:  16    -0.362459461119E+03   -0.12117E-04   -0.11646E-04  7392   0.101E-04-0.618E-05
CGA:  17    -0.362459465486E+03   -0.43663E-05   -0.48126E-05  7392   0.821E-05-0.204E-05
  20 F= -.36245947E+03 E0= -.36245947E+03  d E =0.736478E-02  mag=    16.0000
       N       E                     dE             d eps       ncg     rms          ort
SDA:   1    -0.360844157352E+03    0.16153E+01    0.00000E+00  7392   0.395E+01 0.000E+00
CGA:   2    -0.361996903932E+03   -0.11527E+01   -0.11529E+01  7392   0.213E+01 0.172E-02
CGA:   3    -0.362321150490E+03   -0.32425E+00   -0.32404E+00  7392   0.525E+00 0.630E-03
CGA:   4    -0.362405897289E+03   -0.84747E-01   -0.84702E-01  7392   0.128E+00-0.319E-03
CGA:   5    -0.362427850967E+03   -0.21954E-01   -0.21973E-01  7392   0.374E-01 0.741E-04
CGA:   6    -0.362434751077E+03   -0.69001E-02   -0.69155E-02  7392   0.113E-01 0.104E-03
CGA:   7    -0.362437163234E+03   -0.24122E-02   -0.24147E-02  7392   0.408E-02 0.228E-04
CGA:   8    -0.362438164551E+03   -0.10013E-02   -0.10037E-02  7392   0.175E-02 0.367E-04
CGA:   9    -0.362438648843E+03   -0.48429E-03   -0.48538E-03  7392   0.726E-03 0.368E-04
CGA:  10    -0.362438862236E+03   -0.21339E-03   -0.21337E-03  7392   0.299E-03-0.176E-05
CGA:  11    -0.362438955920E+03   -0.93684E-04   -0.93897E-04  7392   0.130E-03-0.172E-04
CGA:  12    -0.362439003206E+03   -0.47286E-04   -0.49688E-04  7392   0.101E-03-0.233E-04
CGA:  13    -0.362439042952E+03   -0.39746E-04   -0.46708E-04  7392   0.125E-03-0.274E-04
CGA:  14    -0.362439089580E+03   -0.46629E-04   -0.59151E-04  7392   0.159E-03-0.383E-04
CGA:  15    -0.362439137294E+03   -0.47714E-04   -0.73216E-04  7392   0.203E-03-0.777E-04
CGA:  16    -0.362439179013E+03   -0.41718E-04   -0.54043E-04  7392   0.186E-03-0.736E-04
CGA:  17    -0.362439231701E+03   -0.52688E-04   -0.59980E-04  7392   0.174E-03-0.515E-04
CGA:  18    -0.362439294613E+03   -0.62912E-04   -0.76415E-04  7392   0.190E-03-0.584E-04
CGA:  19    -0.362439352494E+03   -0.57881E-04   -0.74137E-04  7392   0.164E-03-0.813E-04
CGA:  20    -0.362439387307E+03   -0.34813E-04   -0.33630E-04  7392   0.773E-04-0.355E-04
CGA:  21    -0.362439407220E+03   -0.19914E-04   -0.19242E-04  7392   0.344E-04-0.929E-05
CGA:  22    -0.362439417058E+03   -0.98378E-05   -0.98847E-05  7392   0.207E-04 0.801E-06
  21 F= -.36243942E+03 E0= -.36243942E+03  d E =0.200484E-01  mag=    16.0000
       N       E                     dE             d eps       ncg     rms          ort
SDA:   1    -0.360460357898E+03    0.19790E+01    0.00000E+00  7392   0.490E+01 0.000E+00
CGA:   2    -0.361890556627E+03   -0.14302E+01   -0.14307E+01  7392   0.288E+01 0.209E-02
CGA:   3    -0.362321952022E+03   -0.43140E+00   -0.43177E+00  7392   0.642E+00 0.249E-02
CGA:   4    -0.362423741684E+03   -0.10179E+00   -0.10179E+00  7392   0.159E+00 0.276E-03
CGA:   5    -0.362451059346E+03   -0.27318E-01   -0.27367E-01  7392   0.464E-01 0.249E-03
CGA:   6    -0.362459526236E+03   -0.84669E-02   -0.84866E-02  7392   0.136E-01 0.106E-03
CGA:   7    -0.362462398328E+03   -0.28721E-02   -0.28700E-02  7392   0.476E-02-0.197E-04
CGA:   8    -0.362463548517E+03   -0.11502E-02   -0.11542E-02  7392   0.197E-02 0.455E-04
CGA:   9    -0.362464079467E+03   -0.53095E-03   -0.53464E-03  7392   0.793E-03 0.649E-04
CGA:  10    -0.362464310717E+03   -0.23125E-03   -0.23202E-03  7392   0.312E-03 0.193E-04
CGA:  11    -0.362464392371E+03   -0.81654E-04   -0.83649E-04  7392   0.107E-03 0.339E-04
CGA:  12    -0.362464427349E+03   -0.34978E-04   -0.35304E-04  7392   0.554E-04 0.168E-04
CGA:  13    -0.362464455027E+03   -0.27678E-04   -0.26652E-04  7392   0.523E-04 0.103E-04
CGA:  14    -0.362464478220E+03   -0.23193E-04   -0.22188E-04  7392   0.438E-04 0.279E-04
CGA:  15    -0.362464495204E+03   -0.16984E-04   -0.16521E-04  7392   0.223E-04 0.867E-05
CGA:  16    -0.362464506237E+03   -0.11033E-04   -0.10171E-04  7392   0.170E-04 0.158E-04
CGA:  17    -0.362464518443E+03   -0.12206E-04   -0.10215E-04  7392   0.164E-04 0.725E-05
CGA:  18    -0.362464529785E+03   -0.11342E-04   -0.98038E-05  7392   0.143E-04 0.201E-04
CGA:  19    -0.362464544703E+03   -0.14918E-04   -0.13880E-04  7392   0.294E-04 0.163E-05
CGA:  20    -0.362464549195E+03   -0.44922E-05   -0.79509E-05  7392   0.219E-04 0.257E-04
CGA:  21    -0.362464560615E+03   -0.11419E-04   -0.10965E-04  7392   0.110E-04 0.350E-05
CGA:  22    -0.362464567902E+03   -0.72872E-05   -0.61597E-05  7392   0.112E-04 0.107E-04
  22 F= -.36246457E+03 E0= -.36246457E+03  d E =-.251508E-01  mag=    16.0000
       N       E                     dE             d eps       ncg     rms          ort
SDA:   1    -0.361645357758E+03    0.81920E+00    0.00000E+00  7392   0.195E+01 0.000E+00
CGA:   2    -0.362173272461E+03   -0.52791E+00   -0.52856E+00  7392   0.104E+01 0.197E-02
CGA:   3    -0.362341574799E+03   -0.16830E+00   -0.16844E+00  7392   0.316E+00 0.859E-03
CGA:   4    -0.362394913075E+03   -0.53338E-01   -0.53283E-01  7392   0.826E-01-0.206E-03
CGA:   5    -0.362409532272E+03   -0.14619E-01   -0.14563E-01  7392   0.260E-01-0.327E-03
CGA:   6    -0.362414617739E+03   -0.50855E-02   -0.50400E-02  7392   0.904E-02-0.281E-03
CGA:   7    -0.362416674046E+03   -0.20563E-02   -0.20481E-02  7392   0.379E-02-0.676E-04
CGA:   8    -0.362417560252E+03   -0.88621E-03   -0.89642E-03  7392   0.144E-02 0.917E-04
CGA:   9    -0.362417970078E+03   -0.40983E-03   -0.41021E-03  7392   0.607E-03 0.539E-05
CGA:  10    -0.362418158667E+03   -0.18859E-03   -0.18663E-03  7392   0.295E-03-0.579E-04
CGA:  11    -0.362418235586E+03   -0.76920E-04   -0.77779E-04  7392   0.135E-03 0.183E-04
CGA:  12    -0.362418288078E+03   -0.52492E-04   -0.52055E-04  7392   0.110E-03 0.167E-04
CGA:  13    -0.362418371903E+03   -0.83824E-04   -0.91734E-04  7392   0.263E-03-0.194E-04
CGA:  14    -0.362418471788E+03   -0.99886E-04   -0.97702E-04  7392   0.340E-03 0.258E-04
CGA:  15    -0.362418627773E+03   -0.15598E-03   -0.15439E-03  7392   0.335E-03 0.338E-04
CGA:  16    -0.362418802811E+03   -0.17504E-03   -0.17902E-03  7392   0.337E-03-0.288E-04
CGA:  17    -0.362418910660E+03   -0.10785E-03   -0.10813E-03  7392   0.241E-03 0.217E-04
CGA:  18    -0.362419008117E+03   -0.97457E-04   -0.97719E-04  7392   0.170E-03-0.198E-04
CGA:  19    -0.362419080395E+03   -0.72277E-04   -0.89868E-04  7392   0.210E-03-0.816E-04
CGA:  20    -0.362419095380E+03   -0.14986E-04   -0.19432E-04  7392   0.159E-03 0.246E-04
CGA:  21    -0.362419120720E+03   -0.25339E-04   -0.32858E-04  7392   0.752E-04 0.422E-04
CGA:  22    -0.362419149362E+03   -0.28642E-04   -0.28112E-04  7392   0.442E-04-0.753E-05
CGA:  23    -0.362419164633E+03   -0.15271E-04   -0.16743E-04  7392   0.469E-04-0.233E-04
CGA:  24    -0.362419170189E+03   -0.55558E-05   -0.92728E-05  7392   0.150E-04 0.227E-04
CGA:  25    -0.362419180226E+03   -0.10038E-04   -0.11830E-04  7392   0.181E-04-0.101E-04
CGA:  26    -0.362419195107E+03   -0.14880E-04    0.24171E-04  7392   0.598E-05 0.250E-06
CGA:  27    -0.362419194682E+03    0.42487E-06   -0.74266E-06  7392   0.413E-05 0.487E-05
  23 F= -.36241919E+03 E0= -.36241919E+03  d E =0.453732E-01  mag=    16.0000
       N       E                     dE             d eps       ncg     rms          ort
SDA:   1    -0.361765012110E+03    0.65418E+00    0.00000E+00  7392   0.178E+01 0.000E+00
CGA:   2    -0.362240565971E+03   -0.47555E+00   -0.47553E+00  7392   0.986E+00-0.221E-03
CGA:   3    -0.362398474768E+03   -0.15791E+00   -0.15783E+00  7392   0.281E+00-0.509E-03
CGA:   4    -0.362444955880E+03   -0.46481E-01   -0.46495E-01  7392   0.732E-01-0.152E-04
CGA:   5    -0.362457629952E+03   -0.12674E-01   -0.12728E-01  7392   0.226E-01 0.359E-03
CGA:   6    -0.362461871529E+03   -0.42416E-02   -0.42770E-02  7392   0.732E-02 0.282E-03
CGA:   7    -0.362463533799E+03   -0.16623E-02   -0.16664E-02  7392   0.300E-02 0.488E-04
CGA:   8    -0.362464286654E+03   -0.75285E-03   -0.75142E-03  7392   0.124E-02-0.276E-04
CGA:   9    -0.362464614765E+03   -0.32811E-03   -0.32895E-03  7392   0.493E-03 0.271E-04
CGA:  10    -0.362464749152E+03   -0.13439E-03   -0.13509E-03  7392   0.190E-03 0.239E-04
CGA:  11    -0.362464819924E+03   -0.70771E-04   -0.71951E-04  7392   0.121E-03-0.179E-04
CGA:  12    -0.362464867042E+03   -0.47118E-04   -0.53162E-04  7392   0.147E-03-0.321E-04
CGA:  13    -0.362464919877E+03   -0.52835E-04   -0.74516E-04  7392   0.268E-03-0.556E-04
CGA:  14    -0.362464999639E+03   -0.79762E-04   -0.97510E-04  7392   0.342E-03-0.637E-04
CGA:  15    -0.362465110874E+03   -0.11124E-03   -0.11659E-03  7392   0.287E-03-0.463E-04
CGA:  16    -0.362465217291E+03   -0.10642E-03   -0.10903E-03  7392   0.212E-03-0.267E-04
CGA:  17    -0.362465287997E+03   -0.70705E-04   -0.70361E-04  7392   0.130E-03 0.230E-04
CGA:  18    -0.362465339614E+03   -0.51618E-04   -0.51486E-04  7392   0.845E-04 0.246E-04
CGA:  19    -0.362465382121E+03   -0.42506E-04   -0.41578E-04  7392   0.599E-04 0.150E-04
CGA:  20    -0.362465408682E+03   -0.26561E-04   -0.26273E-04  7392   0.369E-04 0.167E-04
CGA:  21    -0.362465425834E+03   -0.17152E-04   -0.17084E-04  7392   0.208E-04 0.106E-04
CGA:  22    -0.362465433114E+03   -0.72802E-05   -0.79320E-05  7392   0.118E-04 0.110E-04
  24 F= -.36246543E+03 E0= -.36246543E+03  d E =-.462384E-01  mag=    16.0000
       N       E                     dE             d eps       ncg     rms          ort
SDA:   1    -0.362453798044E+03    0.11628E-01    0.00000E+00  7392   0.304E-01 0.000E+00
CGA:   2    -0.362462586317E+03   -0.87883E-02   -0.87964E-02  7392   0.178E-01 0.122E-03
CGA:   3    -0.362465218606E+03   -0.26323E-02   -0.26484E-02  7392   0.396E-02 0.770E-04
CGA:   4    -0.362465850708E+03   -0.63210E-03   -0.63168E-03  7392   0.995E-03-0.283E-05
CGA:   5    -0.362466025869E+03   -0.17516E-03   -0.17181E-03  7392   0.300E-03-0.215E-04
CGA:   6    -0.362466081331E+03   -0.55462E-04   -0.54099E-04  7392   0.927E-04-0.999E-05
CGA:   7    -0.362466098315E+03   -0.16984E-04   -0.17518E-04  7392   0.298E-04 0.445E-05
CGA:   8    -0.362466104375E+03   -0.60595E-05   -0.66199E-05  7392   0.116E-04 0.577E-05
  25 F= -.36246610E+03 E0= -.36246610E+03  d E =-.671260E-03  mag=    16.0000
       N       E                     dE             d eps       ncg     rms          ort
SDA:   1    -0.362182615452E+03    0.28348E+00    0.00000E+00  7392   0.791E+00 0.000E+00
CGA:   2    -0.362353894611E+03   -0.17128E+00   -0.17140E+00  7392   0.463E+00 0.966E-03
CGA:   3    -0.362433897760E+03   -0.80003E-01   -0.80088E-01  7392   0.132E+00 0.422E-03
CGA:   4    -0.362454739283E+03   -0.20842E-01   -0.20853E-01  7392   0.320E-01 0.570E-04
CGA:   5    -0.362460134817E+03   -0.53955E-02   -0.54014E-02  7392   0.930E-02 0.404E-04
CGA:   6    -0.362461852928E+03   -0.17181E-02   -0.17166E-02  7392   0.279E-02-0.221E-04
CGA:   7    -0.362462433353E+03   -0.58043E-03   -0.57862E-03  7392   0.938E-03-0.287E-04
CGA:   8    -0.362462642975E+03   -0.20962E-03   -0.21057E-03  7392   0.344E-03 0.215E-04
CGA:   9    -0.362462728510E+03   -0.85535E-04   -0.86390E-04  7392   0.126E-03 0.369E-04
CGA:  10    -0.362462764968E+03   -0.36458E-04   -0.36551E-04  7392   0.513E-04 0.182E-04
CGA:  11    -0.362462779837E+03   -0.14869E-04   -0.15021E-04  7392   0.218E-04 0.136E-04
CGA:  12    -0.362462785746E+03   -0.59094E-05   -0.62961E-05  7392   0.108E-04 0.103E-04
  26 F= -.36246279E+03 E0= -.36246279E+03  d E =0.331863E-02  mag=    16.0000
       N       E                     dE             d eps       ncg     rms          ort
SDA:   1    -0.362342874111E+03    0.11991E+00    0.00000E+00  7392   0.298E+00 0.000E+00
CGA:   2    -0.362428870748E+03   -0.85997E-01   -0.85988E-01  7392   0.171E+00 0.252E-03
CGA:   3    -0.362455524389E+03   -0.26654E-01   -0.26629E-01  7392   0.436E-01-0.243E-03
CGA:   4    -0.362462466060E+03   -0.69417E-02   -0.69333E-02  7392   0.106E-01-0.919E-04
CGA:   5    -0.362464342814E+03   -0.18768E-02   -0.18751E-02  7392   0.338E-02-0.240E-04
CGA:   6    -0.362464968966E+03   -0.62615E-03   -0.62689E-03  7392   0.103E-02 0.107E-04
CGA:   7    -0.362465189623E+03   -0.22066E-03   -0.22150E-03  7392   0.399E-03 0.259E-04
CGA:   8    -0.362465286727E+03   -0.97104E-04   -0.97230E-04  7392   0.157E-03 0.162E-04
CGA:   9    -0.362465333806E+03   -0.47079E-04   -0.47096E-04  7392   0.725E-04-0.416E-06
CGA:  10    -0.362465353571E+03   -0.19765E-04   -0.19722E-04  7392   0.283E-04 0.168E-05
CGA:  11    -0.362465362205E+03   -0.86336E-05   -0.85473E-05  7392   0.129E-04 0.187E-05
  27 F= -.36246536E+03 E0= -.36246536E+03  d E =-.257646E-02  mag=    16.0000
       N       E                     dE             d eps       ncg     rms          ort
SDA:   1    -0.362383205751E+03    0.82148E-01    0.00000E+00  7392   0.219E+00 0.000E+00
CGA:   2    -0.362436217386E+03   -0.53012E-01   -0.53021E-01  7392   0.137E+00 0.791E-03
CGA:   3    -0.362458646066E+03   -0.22429E-01   -0.22419E-01  7392   0.351E-01-0.138E-03
CGA:   4    -0.362464234744E+03   -0.55887E-02   -0.55622E-02  7392   0.895E-02-0.303E-03
CGA:   5    -0.362465762554E+03   -0.15278E-02   -0.15172E-02  7392   0.269E-02-0.149E-03
CGA:   6    -0.362466244386E+03   -0.48183E-03   -0.48086E-03  7392   0.827E-03-0.180E-04
CGA:   7    -0.362466412857E+03   -0.16847E-03   -0.16909E-03  7392   0.280E-03 0.193E-04
CGA:   8    -0.362466479320E+03   -0.66462E-04   -0.66509E-04  7392   0.106E-03 0.137E-04
CGA:   9    -0.362466511559E+03   -0.32240E-04   -0.32462E-04  7392   0.509E-04-0.401E-05
CGA:  10    -0.362466527225E+03   -0.15665E-04   -0.17063E-04  7392   0.333E-04-0.127E-04
CGA:  11    -0.362466533367E+03   -0.61422E-05   -0.61402E-05  7392   0.136E-04 0.100E-05
  28 F= -.36246653E+03 E0= -.36246653E+03  d E =-.117116E-02  mag=    16.0000
       N       E                     dE             d eps       ncg     rms          ort
SDA:   1    -0.362421960559E+03    0.44567E-01    0.00000E+00  7392   0.106E+00 0.000E+00
CGA:   2    -0.362455949498E+03   -0.33989E-01   -0.34003E-01  7392   0.514E-01-0.192E-03
CGA:   3    -0.362463640935E+03   -0.76914E-02   -0.76861E-02  7392   0.129E-01-0.559E-04
CGA:   4    -0.362465713047E+03   -0.20721E-02   -0.20767E-02  7392   0.304E-02 0.555E-04
CGA:   5    -0.362466238843E+03   -0.52580E-03   -0.52711E-03  7392   0.914E-03 0.202E-04
CGA:   6    -0.362466416097E+03   -0.17725E-03   -0.17658E-03  7392   0.290E-03-0.164E-04
CGA:   7    -0.362466479146E+03   -0.63049E-04   -0.63031E-04  7392   0.107E-03-0.175E-05
CGA:   8    -0.362466503109E+03   -0.23963E-04   -0.24025E-04  7392   0.398E-04 0.109E-04
CGA:   9    -0.362466514263E+03   -0.11154E-04   -0.11006E-04  7392   0.155E-04 0.727E-05
CGA:  10    -0.362466519055E+03   -0.47923E-05   -0.47118E-05  7392   0.646E-05 0.317E-05
  29 F= -.36246652E+03 E0= -.36246652E+03  d E =0.143114E-04  mag=    16.0000
       N       E                     dE             d eps       ncg     rms          ort
SDA:   1    -0.362235205085E+03    0.23131E+00    0.00000E+00  7392   0.538E+00 0.000E+00
CGA:   2    -0.362409260955E+03   -0.17406E+00   -0.17414E+00  7392   0.255E+00-0.106E-02
CGA:   3    -0.362447973862E+03   -0.38713E-01   -0.38696E-01  7392   0.663E-01-0.167E-03
CGA:   4    -0.362458565303E+03   -0.10591E-01   -0.10621E-01  7392   0.148E-01 0.370E-03
CGA:   5    -0.362461136145E+03   -0.25708E-02   -0.25855E-02  7392   0.433E-02 0.244E-03
CGA:   6    -0.362461981527E+03   -0.84538E-03   -0.84716E-03  7392   0.138E-02 0.464E-04
CGA:   7    -0.362462305255E+03   -0.32373E-03   -0.32388E-03  7392   0.562E-03-0.365E-04
CGA:   8    -0.362462438963E+03   -0.13371E-03   -0.13352E-03  7392   0.238E-03 0.123E-04
CGA:   9    -0.362462494724E+03   -0.55760E-04   -0.55779E-04  7392   0.826E-04 0.516E-04
CGA:  10    -0.362462515785E+03   -0.21061E-04   -0.21522E-04  7392   0.326E-04 0.307E-04
CGA:  11    -0.362462527774E+03   -0.11989E-04   -0.11639E-04  7392   0.173E-04 0.112E-04
CGA:  12    -0.362462536562E+03   -0.87882E-05   -0.83981E-05  7392   0.153E-04 0.301E-05
  30 F= -.36246254E+03 E0= -.36246254E+03  d E =0.398249E-02  mag=    16.0000
       N       E                     dE             d eps       ncg     rms          ort
SDA:   1    -0.362189946745E+03    0.27258E+00    0.00000E+00  7392   0.655E+00 0.000E+00
CGA:   2    -0.362406409999E+03   -0.21646E+00   -0.21648E+00  7392   0.243E+00-0.253E-03
CGA:   3    -0.362447866386E+03   -0.41456E-01   -0.41418E-01  7392   0.768E-01-0.536E-03
CGA:   4    -0.362459365458E+03   -0.11499E-01   -0.11497E-01  7392   0.170E-01-0.377E-04
CGA:   5    -0.362462444240E+03   -0.30788E-02   -0.30759E-02  7392   0.547E-02-0.551E-04
CGA:   6    -0.362463434671E+03   -0.99043E-03   -0.98865E-03  7392   0.174E-02-0.363E-04
CGA:   7    -0.362463818409E+03   -0.38374E-03   -0.38391E-03  7392   0.672E-03 0.239E-04
CGA:   8    -0.362463983466E+03   -0.16506E-03   -0.16471E-03  7392   0.284E-03 0.270E-04
CGA:   9    -0.362464069682E+03   -0.86216E-04   -0.85877E-04  7392   0.126E-03 0.556E-05
CGA:  10    -0.362464105789E+03   -0.36108E-04   -0.35950E-04  7392   0.524E-04 0.337E-05
CGA:  11    -0.362464122343E+03   -0.16554E-04   -0.16474E-04  7392   0.249E-04 0.112E-05
CGA:  12    -0.362464130512E+03   -0.81684E-05   -0.77498E-05  7392   0.153E-04 0.635E-05
  31 F= -.36246413E+03 E0= -.36246413E+03  d E =-.159395E-02  mag=    16.0000
       N       E                     dE             d eps       ncg     rms          ort
SDA:   1    -0.361912302123E+03    0.55182E+00    0.00000E+00  7392   0.137E+01 0.000E+00
CGA:   2    -0.362292635355E+03   -0.38033E+00   -0.38014E+00  7392   0.724E+00 0.448E-02
CGA:   3    -0.362406740007E+03   -0.11410E+00   -0.11411E+00  7392   0.207E+00 0.110E-03
CGA:   4    -0.362441523162E+03   -0.34783E-01   -0.34716E-01  7392   0.530E-01-0.100E-02
CGA:   5    -0.362450569443E+03   -0.90463E-02   -0.89877E-02  7392   0.164E-01-0.934E-03
CGA:   6    -0.362453742946E+03   -0.31735E-02   -0.31512E-02  7392   0.591E-02-0.633E-03
CGA:   7    -0.362454991677E+03   -0.12487E-02   -0.12478E-02  7392   0.230E-02-0.102E-03
CGA:   8    -0.362455495331E+03   -0.50365E-03   -0.50454E-03  7392   0.831E-03 0.177E-03
CGA:   9    -0.362455745048E+03   -0.24972E-03   -0.24814E-03  7392   0.360E-03 0.322E-04
CGA:  10    -0.362455865898E+03   -0.12085E-03   -0.13448E-03  7392   0.263E-03-0.106E-03
CGA:  11    -0.362455911491E+03   -0.45594E-04   -0.45597E-04  7392   0.116E-03-0.386E-06
CGA:  12    -0.362455937007E+03   -0.25516E-04   -0.25856E-04  7392   0.642E-04 0.243E-04
CGA:  13    -0.362455961022E+03   -0.24015E-04   -0.23052E-04  7392   0.538E-04 0.162E-04
CGA:  14    -0.362455983823E+03   -0.22801E-04   -0.20956E-04  7392   0.504E-04 0.261E-04
CGA:  15    -0.362456006181E+03   -0.22358E-04   -0.21009E-04  7392   0.411E-04 0.364E-04
CGA:  16    -0.362456025373E+03   -0.19192E-04   -0.19510E-04  7392   0.312E-04-0.137E-05
CGA:  17    -0.362456036544E+03   -0.11171E-04   -0.99347E-05  7392   0.189E-04 0.170E-04
CGA:  18    -0.362456046408E+03   -0.98642E-05    0.11586E-02  7392   0.116E-04 0.127E-04
  32 F= -.36245605E+03 E0= -.36245605E+03  d E =0.808410E-02  mag=    16.0000
       N       E                     dE             d eps       ncg     rms          ort
SDA:   1    -0.362246310996E+03    0.20973E+00    0.00000E+00  7392   0.540E+00 0.000E+00
CGA:   2    -0.362406912652E+03   -0.16060E+00   -0.16066E+00  7392   0.256E+00-0.194E-02
CGA:   3    -0.362447543508E+03   -0.40631E-01   -0.40637E-01  7392   0.788E-01 0.552E-04
CGA:   4    -0.362460542395E+03   -0.12999E-01   -0.13052E-01  7392   0.191E-01 0.542E-03
CGA:   5    -0.362463734859E+03   -0.31925E-02   -0.32395E-02  7392   0.574E-02 0.533E-03
CGA:   6    -0.362464809778E+03   -0.10749E-02   -0.10967E-02  7392   0.191E-02 0.328E-03
CGA:   7    -0.362465274350E+03   -0.46457E-03   -0.46575E-03  7392   0.811E-03 0.632E-04
CGA:   8    -0.362465496177E+03   -0.22183E-03   -0.22274E-03  7392   0.386E-03-0.517E-04
CGA:   9    -0.362465580634E+03   -0.84457E-04   -0.84998E-04  7392   0.127E-03 0.392E-04
CGA:  10    -0.362465604110E+03   -0.23476E-04   -0.26082E-04  7392   0.407E-04 0.425E-04
CGA:  11    -0.362465613917E+03   -0.98065E-05   -0.10661E-04  7392   0.171E-04 0.175E-04
  33 F= -.36246561E+03 E0= -.36246561E+03  d E =-.956751E-02  mag=    16.0000
       N       E                     dE             d eps       ncg     rms          ort
SDA:   1    -0.362410914815E+03    0.54689E-01    0.00000E+00  7392   0.128E+00 0.000E+00
CGA:   2    -0.362454485858E+03   -0.43571E-01   -0.43636E-01  7392   0.518E-01-0.687E-03
CGA:   3    -0.362462608094E+03   -0.81222E-02   -0.81188E-02  7392   0.145E-01-0.374E-04
CGA:   4    -0.362464808669E+03   -0.22006E-02   -0.22164E-02  7392   0.309E-02 0.173E-03
CGA:   5    -0.362465347441E+03   -0.53877E-03   -0.54447E-03  7392   0.921E-03 0.870E-04
CGA:   6    -0.362465524573E+03   -0.17713E-03   -0.17805E-03  7392   0.290E-03 0.190E-04
CGA:   7    -0.362465591443E+03   -0.66870E-04   -0.66874E-04  7392   0.119E-03 0.352E-06
CGA:   8    -0.362465619668E+03   -0.28225E-04   -0.28181E-04  7392   0.511E-04 0.133E-04
CGA:   9    -0.362465630075E+03   -0.10407E-04   -0.11211E-04  7392   0.213E-04 0.223E-04
CGA:  10    -0.362465633997E+03   -0.39216E-05   -0.50076E-05  7392   0.114E-04 0.159E-04
  34 F= -.36246563E+03 E0= -.36246563E+03  d E =-.200805E-04  mag=    16.0000
       N       E                     dE             d eps       ncg     rms          ort
SDA:   1    -0.361778755141E+03    0.68687E+00    0.00000E+00  7392   0.170E+01 0.000E+00
CGA:   2    -0.362262216005E+03   -0.48346E+00   -0.48338E+00  7392   0.967E+00 0.968E-03
CGA:   3    -0.362410548835E+03   -0.14833E+00   -0.14833E+00  7392   0.238E+00-0.167E-03
CGA:   4    -0.362447714837E+03   -0.37166E-01   -0.37164E-01  7392   0.540E-01-0.705E-04
CGA:   5    -0.362456927749E+03   -0.92129E-02   -0.92061E-02  7392   0.154E-01-0.129E-03
CGA:   6    -0.362459855689E+03   -0.29279E-02   -0.29251E-02  7392   0.459E-02-0.851E-04
CGA:   7    -0.362460810584E+03   -0.95489E-03   -0.95525E-03  7392   0.155E-02 0.231E-04
CGA:   8    -0.362461189578E+03   -0.37899E-03   -0.37747E-03  7392   0.635E-03 0.803E-04
CGA:   9    -0.362461376654E+03   -0.18708E-03   -0.18457E-03  7392   0.277E-03 0.476E-04
CGA:  10    -0.362461467388E+03   -0.90733E-04   -0.90028E-04  7392   0.127E-03 0.928E-05
CGA:  11    -0.362461506518E+03   -0.39130E-04   -0.38683E-04  7392   0.526E-04 0.684E-05
CGA:  12    -0.362461523329E+03   -0.16812E-04   -0.16171E-04  7392   0.265E-04 0.110E-04
CGA:  13    -0.362461530996E+03   -0.76671E-05   -0.76367E-05  7392   0.162E-04 0.163E-04
  35 F= -.36246153E+03 E0= -.36246153E+03  d E =0.410300E-02  mag=    16.0000
       N       E                     dE             d eps       ncg     rms          ort
SDA:   1    -0.359676499862E+03    0.27850E+01    0.00000E+00  7392   0.698E+01 0.000E+00
CGA:   2    -0.361635513491E+03   -0.19590E+01   -0.19584E+01  7392   0.391E+01 0.933E-02
CGA:   3    -0.362232571165E+03   -0.59706E+00   -0.59704E+00  7392   0.977E+00 0.223E-03
CGA:   4    -0.362387999158E+03   -0.15543E+00   -0.15533E+00  7392   0.227E+00-0.138E-02
CGA:   5    -0.362426385433E+03   -0.38386E-01   -0.38345E-01  7392   0.647E-01-0.729E-03
CGA:   6    -0.362438604859E+03   -0.12219E-01   -0.12210E-01  7392   0.196E-01-0.279E-03
CGA:   7    -0.362442743749E+03   -0.41389E-02   -0.41400E-02  7392   0.688E-02 0.685E-04
CGA:   8    -0.362444442983E+03   -0.16992E-02   -0.16941E-02  7392   0.288E-02 0.256E-03
CGA:   9    -0.362445300694E+03   -0.85771E-03   -0.85158E-03  7392   0.130E-02 0.105E-03
CGA:  10    -0.362445718616E+03   -0.41792E-03   -0.42079E-03  7392   0.620E-03-0.346E-04
CGA:  11    -0.362445897313E+03   -0.17870E-03   -0.17744E-03  7392   0.262E-03 0.204E-04
CGA:  12    -0.362445991502E+03   -0.94188E-04   -0.91399E-04  7392   0.161E-03 0.272E-04
CGA:  13    -0.362446063899E+03   -0.72397E-04   -0.65898E-04  7392   0.123E-03 0.500E-04
CGA:  14    -0.362446132333E+03   -0.68434E-04   -0.60208E-04  7392   0.951E-04 0.655E-04
CGA:  15    -0.362446174139E+03   -0.41806E-04   -0.41801E-04  7392   0.709E-04-0.209E-07
CGA:  16    -0.362446209829E+03   -0.35690E-04   -0.29809E-04  7392   0.506E-04 0.374E-04
CGA:  17    -0.362446244280E+03   -0.34451E-04   -0.35460E-04  7392   0.656E-04-0.241E-05
CGA:  18    -0.362446266040E+03   -0.21761E-04   -0.20211E-04  7392   0.551E-04 0.506E-04
CGA:  19    -0.362446296171E+03   -0.30130E-04   -0.50875E-04  7392   0.123E-03-0.331E-04
CGA:  20    -0.362446312489E+03   -0.16318E-04   -0.23816E-04  7392   0.361E-04 0.567E-04
CGA:  21    -0.362446325860E+03   -0.13371E-04   -0.14202E-04  7392   0.240E-04 0.165E-04
CGA:  22    -0.362446329735E+03   -0.38748E-05   -0.99665E-05  7392   0.440E-03-0.390E-04
CGA:  23    -0.362446395305E+03   -0.65570E-04   -0.10406E-03  7392   0.858E-04 0.113E-03
CGA:  24    -0.362446455208E+03   -0.59903E-04   -0.58904E-04  7392   0.901E-04-0.727E-04
CGA:  25    -0.362446454963E+03    0.24518E-06   -0.16093E-04  7392   0.298E-04 0.428E-04
  36 F= -.36244645E+03 E0= -.36244645E+03  d E =0.150760E-01  mag=    16.0000
       N       E                     dE             d eps       ncg     rms          ort
SDA:   1    -0.361538953574E+03    0.90750E+00    0.00000E+00  7392   0.230E+01 0.000E+00
CGA:   2    -0.362141234262E+03   -0.60228E+00   -0.60294E+00  7392   0.133E+01 0.191E-03
CGA:   3    -0.362354738942E+03   -0.21350E+00   -0.21359E+00  7392   0.360E+00 0.165E-02
CGA:   4    -0.362412833667E+03   -0.58095E-01   -0.58090E-01  7392   0.901E-01 0.222E-03
CGA:   5    -0.362428496837E+03   -0.15663E-01   -0.15733E-01  7392   0.271E-01 0.199E-03
CGA:   6    -0.362433609298E+03   -0.51125E-02   -0.51532E-02  7392   0.847E-02 0.139E-03
CGA:   7    -0.362435517041E+03   -0.19077E-02   -0.19106E-02  7392   0.337E-02 0.104E-04
CGA:   8    -0.362436347614E+03   -0.83057E-03   -0.83206E-03  7392   0.131E-02 0.723E-05
CGA:   9    -0.362436699167E+03   -0.35155E-03   -0.35579E-03  7392   0.522E-03 0.268E-04
CGA:  10    -0.362436843832E+03   -0.14466E-03   -0.14657E-03  7392   0.198E-03 0.132E-04
CGA:  11    -0.362436896471E+03   -0.52640E-04   -0.56114E-04  7392   0.779E-04 0.255E-04
CGA:  12    -0.362436920975E+03   -0.24503E-04   -0.26492E-04  7392   0.470E-04 0.190E-04
CGA:  13    -0.362436946335E+03   -0.25360E-04   -0.24959E-04  7392   0.495E-04 0.153E-04
CGA:  14    -0.362436971701E+03   -0.25367E-04   -0.25687E-04  7392   0.477E-04 0.316E-04
CGA:  15    -0.362436985296E+03   -0.13595E-04   -0.14903E-04  7392   0.213E-04 0.147E-04
CGA:  16    -0.362436997036E+03   -0.11740E-04   -0.11502E-04  7392   0.183E-04 0.160E-04
CGA:  17    -0.362437002533E+03   -0.54967E-05   -0.62173E-05  7392   0.130E-04 0.124E-04
  37 F= -.36243700E+03 E0= -.36243700E+03  d E =0.945243E-02  mag=    16.0000
       N       E                     dE             d eps       ncg     rms          ort
SDA:   1    -0.361694656783E+03    0.74234E+00    0.00000E+00  7392   0.191E+01 0.000E+00
CGA:   2    -0.362246258731E+03   -0.55160E+00   -0.55160E+00  7392   0.952E+00-0.264E-03
CGA:   3    -0.362398170027E+03   -0.15191E+00   -0.15184E+00  7392   0.282E+00 0.127E-04
CGA:   4    -0.362443703138E+03   -0.45533E-01   -0.45581E-01  7392   0.654E-01 0.188E-03
CGA:   5    -0.362455112679E+03   -0.11410E-01   -0.11507E-01  7392   0.200E-01 0.472E-03
CGA:   6    -0.362458908961E+03   -0.37963E-02   -0.38431E-02  7392   0.635E-02 0.258E-03
CGA:   7    -0.362460403944E+03   -0.14950E-02   -0.14940E-02  7392   0.262E-02-0.926E-05
CGA:   8    -0.362461063456E+03   -0.65951E-03   -0.65693E-03  7392   0.109E-02-0.254E-04
CGA:   9    -0.362461350513E+03   -0.28706E-03   -0.29043E-03  7392   0.410E-03 0.415E-04
CGA:  10    -0.362461458739E+03   -0.10823E-03   -0.11077E-03  7392   0.141E-03 0.298E-04
CGA:  11    -0.362461497361E+03   -0.38622E-04   -0.40099E-04  7392   0.492E-04 0.196E-04
CGA:  12    -0.362461514347E+03   -0.16986E-04   -0.17206E-04  7392   0.269E-04 0.717E-05
CGA:  13    -0.362461530341E+03   -0.15994E-04   -0.18039E-04  7392   0.410E-04-0.813E-05
CGA:  14    -0.362461536564E+03   -0.62233E-05   -0.70719E-05  7392   0.332E-04 0.851E-05
  38 F= -.36246154E+03 E0= -.36246154E+03  d E =-.245340E-01  mag=    16.0000
       N       E                     dE             d eps       ncg     rms          ort
SDA:   1    -0.362008338182E+03    0.45319E+00    0.00000E+00  7392   0.111E+01 0.000E+00
CGA:   2    -0.362343428487E+03   -0.33509E+00   -0.33513E+00  7392   0.560E+00 0.833E-03
CGA:   3    -0.362429560352E+03   -0.86132E-01   -0.86102E-01  7392   0.149E+00-0.106E-03
CGA:   4    -0.362453110242E+03   -0.23550E-01   -0.23509E-01  7392   0.333E-01-0.281E-03
CGA:   5    -0.362458863873E+03   -0.57536E-02   -0.57116E-02  7392   0.100E-01-0.296E-03
CGA:   6    -0.362460784311E+03   -0.19204E-02   -0.19007E-02  7392   0.309E-02-0.170E-03
CGA:   7    -0.362461431706E+03   -0.64739E-03   -0.64883E-03  7392   0.109E-02 0.149E-04
CGA:   8    -0.362461694807E+03   -0.26310E-03   -0.26623E-03  7392   0.448E-03 0.546E-04
CGA:   9    -0.362461835259E+03   -0.14045E-03   -0.14046E-03  7392   0.213E-03-0.552E-05
CGA:  10    -0.362461901878E+03   -0.66619E-04   -0.67193E-04  7392   0.102E-03-0.255E-04
CGA:  11    -0.362461928205E+03   -0.26327E-04   -0.26294E-04  7392   0.380E-04-0.853E-05
CGA:  12    -0.362461938017E+03   -0.98118E-05   -0.98674E-05  7392   0.163E-04 0.385E-05
  39 F= -.36246194E+03 E0= -.36246194E+03  d E =-.401453E-03  mag=    16.0000
       N       E                     dE             d eps       ncg     rms          ort
SDA:   1    -0.362092441581E+03    0.36949E+00    0.00000E+00  7392   0.868E+00 0.000E+00
CGA:   2    -0.362371916309E+03   -0.27947E+00   -0.27946E+00  7392   0.332E+00 0.259E-03
CGA:   3    -0.362431409317E+03   -0.59493E-01   -0.59547E-01  7392   0.103E+00 0.441E-03
CGA:   4    -0.362446869131E+03   -0.15460E-01   -0.15443E-01  7392   0.224E-01-0.128E-03
CGA:   5    -0.362451177754E+03   -0.43086E-02   -0.42916E-02  7392   0.743E-02-0.193E-03
CGA:   6    -0.362452585706E+03   -0.14080E-02   -0.14004E-02  7392   0.253E-02-0.897E-04
CGA:   7    -0.362453177751E+03   -0.59205E-03   -0.59217E-03  7392   0.107E-02 0.258E-05
CGA:   8    -0.362453447067E+03   -0.26932E-03   -0.27019E-03  7392   0.480E-03 0.454E-04
CGA:   9    -0.362453591769E+03   -0.14470E-03   -0.14419E-03  7392   0.221E-03 0.277E-04
CGA:  10    -0.362453667335E+03   -0.75566E-04   -0.75277E-04  7392   0.124E-03 0.537E-05
CGA:  11    -0.362453715308E+03   -0.47973E-04   -0.47857E-04  7392   0.969E-04 0.804E-06
CGA:  12    -0.362453760195E+03   -0.44886E-04   -0.42063E-04  7392   0.916E-04 0.180E-04
CGA:  13    -0.362453810565E+03   -0.50370E-04   -0.45417E-04  7392   0.790E-04 0.369E-04
CGA:  14    -0.362453863872E+03   -0.53307E-04   -0.47639E-04  7392   0.625E-04 0.408E-04
CGA:  15    -0.362453887670E+03   -0.23797E-04   -0.23702E-04  7392   0.353E-04 0.117E-05
CGA:  16    -0.362453913991E+03   -0.26321E-04   -0.23215E-04  7392   0.375E-04 0.898E-05
CGA:  17    -0.362453943007E+03   -0.29016E-04   -0.24450E-04  7392   0.252E-04 0.227E-04
CGA:  18    -0.362453954495E+03   -0.11488E-04   -0.10872E-04  7392   0.176E-04 0.606E-05
CGA:  19    -0.362453962972E+03   -0.84773E-05   -0.80486E-05  7392   0.140E-04 0.132E-04
  40 F= -.36245396E+03 E0= -.36245396E+03  d E =0.797504E-02  mag=    16.0000
       N       E                     dE             d eps       ncg     rms          ort
SDA:   1    -0.362114105549E+03    0.33985E+00    0.00000E+00  7392   0.854E+00 0.000E+00
CGA:   2    -0.362369133189E+03   -0.25503E+00   -0.25504E+00  7392   0.440E+00 0.801E-04
CGA:   3    -0.362436915523E+03   -0.67782E-01   -0.67812E-01  7392   0.118E+00 0.163E-03
CGA:   4    -0.362455701037E+03   -0.18786E-01   -0.18815E-01  7392   0.275E-01 0.143E-03
CGA:   5    -0.362460399738E+03   -0.46987E-02   -0.47408E-02  7392   0.815E-02 0.260E-03
CGA:   6    -0.362461923138E+03   -0.15234E-02   -0.15451E-02  7392   0.251E-02 0.160E-03
CGA:   7    -0.362462499044E+03   -0.57591E-03   -0.57669E-03  7392   0.996E-03 0.801E-05
CGA:   8    -0.362462755983E+03   -0.25694E-03   -0.25614E-03  7392   0.431E-03-0.150E-04
CGA:   9    -0.362462866261E+03   -0.11028E-03   -0.11141E-03  7392   0.162E-03 0.249E-04
CGA:  10    -0.362462907915E+03   -0.41654E-04   -0.42920E-04  7392   0.550E-04 0.227E-04
CGA:  11    -0.362462920996E+03   -0.13081E-04   -0.14334E-04  7392   0.198E-04 0.169E-04
CGA:  12    -0.362462925589E+03   -0.45933E-05   -0.54887E-05  7392   0.992E-05 0.103E-04
  41 F= -.36246293E+03 E0= -.36246293E+03  d E =-.896262E-02  mag=    16.0000
       N       E                     dE             d eps       ncg     rms          ort
SDA:   1    -0.362387674674E+03    0.75246E-01    0.00000E+00  7392   0.187E+00 0.000E+00
CGA:   2    -0.362439969149E+03   -0.52294E-01   -0.52294E-01  7392   0.970E-01-0.557E-04
CGA:   3    -0.362455722931E+03   -0.15754E-01   -0.15707E-01  7392   0.290E-01-0.350E-03
CGA:   4    -0.362460416690E+03   -0.46938E-02   -0.46936E-02  7392   0.725E-02-0.846E-05
CGA:   5    -0.362461664074E+03   -0.12474E-02   -0.12580E-02  7392   0.221E-02 0.888E-04
CGA:   6    -0.362462084316E+03   -0.42024E-03   -0.42515E-03  7392   0.701E-03 0.510E-04
CGA:   7    -0.362462248835E+03   -0.16452E-03   -0.16537E-03  7392   0.292E-03 0.168E-04
CGA:   8    -0.362462324060E+03   -0.75225E-04   -0.75255E-04  7392   0.119E-03 0.111E-05
CGA:   9    -0.362462357967E+03   -0.33907E-04   -0.33923E-04  7392   0.502E-04-0.220E-05
CGA:  10    -0.362462371552E+03   -0.13585E-04   -0.13584E-04  7392   0.190E-04-0.439E-06
CGA:  11    -0.362462376788E+03   -0.52359E-05   -0.52347E-05  7392   0.753E-05 0.205E-05
  42 F= -.36246238E+03 E0= -.36246238E+03  d E =0.548801E-03  mag=    16.0000
       N       E                     dE             d eps       ncg     rms          ort
SDA:   1    -0.362349419429E+03    0.11295E+00    0.00000E+00  7392   0.279E+00 0.000E+00
CGA:   2    -0.362432879375E+03   -0.83460E-01   -0.83455E-01  7392   0.147E+00 0.165E-03
CGA:   3    -0.362455484807E+03   -0.22605E-01   -0.22629E-01  7392   0.380E-01 0.154E-03
CGA:   4    -0.362461466498E+03   -0.59817E-02   -0.59783E-02  7392   0.870E-02-0.362E-04
CGA:   5    -0.362463000728E+03   -0.15342E-02   -0.15231E-02  7392   0.264E-02-0.121E-03
CGA:   6    -0.362463514254E+03   -0.51353E-03   -0.50796E-03  7392   0.826E-03-0.809E-04
CGA:   7    -0.362463687300E+03   -0.17305E-03   -0.17273E-03  7392   0.297E-03-0.727E-05
CGA:   8    -0.362463754606E+03   -0.67307E-04   -0.67958E-04  7392   0.111E-03 0.232E-04
CGA:   9    -0.362463785761E+03   -0.31155E-04   -0.31117E-04  7392   0.440E-04 0.145E-04
CGA:  10    -0.362463800246E+03   -0.14485E-04   -0.14393E-04  7392   0.195E-04 0.287E-05
CGA:  11    -0.362463806852E+03   -0.66052E-05   -0.66572E-05  7392   0.923E-05-0.859E-06
  43 F= -.36246381E+03 E0= -.36246381E+03  d E =-.143006E-02  mag=    16.0000
       N       E                     dE             d eps       ncg     rms          ort
SDA:   1    -0.362394429755E+03    0.69370E-01    0.00000E+00  7392   0.171E+00 0.000E+00
CGA:   2    -0.362445839447E+03   -0.51410E-01   -0.51405E-01  7392   0.950E-01 0.697E-04
CGA:   3    -0.362459683250E+03   -0.13844E-01   -0.13856E-01  7392   0.217E-01 0.857E-04
CGA:   4    -0.362463139046E+03   -0.34558E-02   -0.34599E-02  7392   0.539E-02 0.388E-04
CGA:   5    -0.362464031698E+03   -0.89265E-03   -0.89986E-03  7392   0.144E-02 0.828E-04
CGA:   6    -0.362464293479E+03   -0.26178E-03   -0.26485E-03  7392   0.399E-03 0.450E-04
CGA:   7    -0.362464382570E+03   -0.89090E-04   -0.89074E-04  7392   0.144E-03-0.664E-06
CGA:   8    -0.362464419423E+03   -0.36853E-04   -0.36914E-04  7392   0.640E-04-0.461E-05
CGA:   9    -0.362464435569E+03   -0.16146E-04   -0.16089E-04  7392   0.247E-04 0.372E-05
CGA:  10    -0.362464441574E+03   -0.60054E-05   -0.60712E-05  7392   0.807E-05 0.537E-05
  44 F= -.36246444E+03 E0= -.36246444E+03  d E =-.634723E-03  mag=    16.0000
       N       E                     dE             d eps       ncg     rms          ort
SDA:   1    -0.361477621788E+03    0.98681E+00    0.00000E+00  7392   0.243E+01 0.000E+00
CGA:   2    -0.362207408250E+03   -0.72979E+00   -0.72957E+00  7392   0.117E+01 0.234E-02
CGA:   3    -0.362394863520E+03   -0.18746E+00   -0.18739E+00  7392   0.317E+00-0.777E-03
CGA:   4    -0.362443075237E+03   -0.48212E-01   -0.48208E-01  7392   0.660E-01-0.110E-03
CGA:   5    -0.362454400633E+03   -0.11325E-01   -0.11334E-01  7392   0.200E-01 0.115E-03
CGA:   6    -0.362458208857E+03   -0.38082E-02   -0.38053E-02  7392   0.598E-02-0.771E-04
CGA:   7    -0.362459496721E+03   -0.12879E-02   -0.12873E-02  7392   0.228E-02-0.433E-04
CGA:   8    -0.362460088824E+03   -0.59210E-03   -0.59078E-03  7392   0.110E-02 0.391E-04
CGA:   9    -0.362460427353E+03   -0.33853E-03   -0.33813E-03  7392   0.560E-03 0.507E-05
CGA:  10    -0.362460605415E+03   -0.17806E-03   -0.17956E-03  7392   0.272E-03-0.180E-04
CGA:  11    -0.362460684996E+03   -0.79581E-04   -0.79126E-04  7392   0.119E-03 0.693E-05
CGA:  12    -0.362460735478E+03   -0.50482E-04   -0.54567E-04  7392   0.110E-03-0.203E-04
CGA:  13    -0.362460776698E+03   -0.41220E-04   -0.43806E-04  7392   0.102E-03-0.120E-04
CGA:  14    -0.362460811687E+03   -0.34990E-04   -0.33822E-04  7392   0.607E-04 0.981E-05
CGA:  15    -0.362460839125E+03   -0.27438E-04   -0.26884E-04  7392   0.432E-04 0.365E-05
CGA:  16    -0.362460862847E+03   -0.23722E-04   -0.23114E-04  7392   0.444E-04 0.221E-05
CGA:  17    -0.362460894743E+03   -0.31896E-04   -0.40363E-04  7392   0.974E-04-0.155E-04
CGA:  18    -0.362460921510E+03   -0.26767E-04   -0.28756E-04  7392   0.100E-03-0.155E-04
CGA:  19    -0.362460944379E+03   -0.22868E-04   -0.22997E-04  7392   0.505E-04 0.236E-05
CGA:  20    -0.362460956491E+03   -0.12112E-04   -0.12645E-04  7392   0.232E-04 0.702E-05
CGA:  21    -0.362460963000E+03   -0.65090E-05   -0.67385E-05  7392   0.114E-04 0.372E-05
  45 F= -.36246096E+03 E0= -.36246096E+03  d E =0.347857E-02  mag=    16.0000
       N       E                     dE             d eps       ncg     rms          ort
SDA:   1    -0.361888689732E+03    0.57227E+00    0.00000E+00  7392   0.138E+01 0.000E+00
CGA:   2    -0.362331714504E+03   -0.44302E+00   -0.44301E+00  7392   0.590E+00 0.874E-03
CGA:   3    -0.362427264780E+03   -0.95550E-01   -0.95462E-01  7392   0.168E+00-0.521E-03
CGA:   4    -0.362452615907E+03   -0.25351E-01   -0.25333E-01  7392   0.346E-01-0.172E-03
CGA:   5    -0.362458810993E+03   -0.61951E-02   -0.61723E-02  7392   0.111E-01-0.199E-03
CGA:   6    -0.362460896729E+03   -0.20857E-02   -0.20720E-02  7392   0.338E-02-0.138E-03
CGA:   7    -0.362461613136E+03   -0.71641E-03   -0.71712E-03  7392   0.126E-02 0.894E-05
CGA:   8    -0.362461932291E+03   -0.31915E-03   -0.32001E-03  7392   0.568E-03 0.313E-04
CGA:   9    -0.362462111981E+03   -0.17969E-03   -0.18045E-03  7392   0.286E-03-0.250E-04
CGA:  10    -0.362462194369E+03   -0.82388E-04   -0.82784E-04  7392   0.123E-03-0.185E-04
CGA:  11    -0.362462230158E+03   -0.35790E-04   -0.36256E-04  7392   0.534E-04-0.139E-04
CGA:  12    -0.362462248698E+03   -0.18540E-04   -0.22013E-04  7392   0.498E-04-0.192E-04
CGA:  13    -0.362462256600E+03   -0.79024E-05   -0.81599E-05  7392   0.262E-04 0.693E-05
  46 F= -.36246226E+03 E0= -.36246226E+03  d E =-.129360E-02  mag=    16.0000
       N       E                     dE             d eps       ncg     rms          ort
SDA:   1    -0.361819011739E+03    0.64324E+00    0.00000E+00  7392   0.167E+01 0.000E+00
CGA:   2    -0.362260820715E+03   -0.44181E+00   -0.44187E+00  7392   0.928E+00 0.184E-02
CGA:   3    -0.362410520444E+03   -0.14970E+00   -0.14979E+00  7392   0.248E+00 0.436E-03
CGA:   4    -0.362449291172E+03   -0.38771E-01   -0.38757E-01  7392   0.558E-01-0.179E-03
CGA:   5    -0.362458682290E+03   -0.93911E-02   -0.94031E-02  7392   0.160E-01 0.996E-04
CGA:   6    -0.362461680813E+03   -0.29985E-02   -0.30201E-02  7392   0.480E-02 0.262E-03
CGA:   7    -0.362462705237E+03   -0.10244E-02   -0.10299E-02  7392   0.171E-02 0.991E-04
CGA:   8    -0.362463156083E+03   -0.45085E-03   -0.45092E-03  7392   0.798E-03 0.207E-04
CGA:   9    -0.362463380186E+03   -0.22410E-03   -0.22344E-03  7392   0.360E-03 0.468E-04
CGA:  10    -0.362463491142E+03   -0.11096E-03   -0.11012E-03  7392   0.159E-03 0.321E-04
CGA:  11    -0.362463545306E+03   -0.54164E-04   -0.53635E-04  7392   0.774E-04 0.116E-04
CGA:  12    -0.362463572573E+03   -0.27266E-04   -0.26474E-04  7392   0.456E-04 0.151E-04
CGA:  13    -0.362463597726E+03   -0.25154E-04   -0.23955E-04  7392   0.424E-04 0.688E-05
CGA:  14    -0.362463624716E+03   -0.26989E-04   -0.26857E-04  7392   0.475E-04 0.125E-06
CGA:  15    -0.362463644863E+03   -0.20148E-04   -0.19461E-04  7392   0.339E-04 0.526E-05
CGA:  16    -0.362463661459E+03   -0.16596E-04   -0.15939E-04  7392   0.290E-04 0.467E-05
CGA:  17    -0.362463673079E+03   -0.11620E-04   -0.11122E-04  7392   0.231E-04 0.144E-04
CGA:  18    -0.362463685479E+03   -0.12400E-04   -0.11811E-04  7392   0.179E-04 0.158E-04
CGA:  19    -0.362463630826E+03    0.54653E-04   -0.30220E-04  7392   0.343E-03-0.527E-04
CGA:  20    -0.362463702573E+03   -0.71747E-04   -0.80545E-04  7392   0.200E-04 0.270E-04
CGA:  21    -0.362463707108E+03   -0.45346E-05   -0.21046E-04  7392   0.103E-03-0.383E-04
CGA:  22    -0.362463709185E+03   -0.20773E-05   -0.16090E-04  7392   0.187E-04 0.343E-04
  47 F= -.36246371E+03 E0= -.36246371E+03  d E =-.145258E-02  mag=    16.0000
       N       E                     dE             d eps       ncg     rms          ort
SDA:   1    -0.362376091603E+03    0.87616E-01    0.00000E+00  7392   0.223E+00 0.000E+00
CGA:   2    -0.362437453661E+03   -0.61362E-01   -0.61343E-01  7392   0.122E+00-0.679E-04
CGA:   3    -0.362456825429E+03   -0.19372E-01   -0.19406E-01  7392   0.348E-01 0.706E-04
CGA:   4    -0.362462532714E+03   -0.57073E-02   -0.57218E-02  7392   0.887E-02 0.353E-04
CGA:   5    -0.362464065415E+03   -0.15327E-02   -0.15534E-02  7392   0.271E-02 0.654E-04
CGA:   6    -0.362464573240E+03   -0.50783E-03   -0.52085E-03  7392   0.876E-03 0.467E-04
CGA:   7    -0.362464778781E+03   -0.20554E-03   -0.20673E-03  7392   0.377E-03 0.518E-05
CGA:   8    -0.362464876982E+03   -0.98201E-04   -0.96964E-04  7392   0.158E-03-0.675E-05
CGA:   9    -0.362464917146E+03   -0.40165E-04   -0.41295E-04  7392   0.625E-04 0.679E-05
CGA:  10    -0.362464933532E+03   -0.16386E-04   -0.17318E-04  7392   0.247E-04 0.587E-05
CGA:  11    -0.362464942279E+03   -0.87466E-05   -0.89144E-05  7392   0.146E-04 0.193E-05
  48 F= -.36246494E+03 E0= -.36246494E+03  d E =-.123309E-02  mag=    16.0000
       N       E                     dE             d eps       ncg     rms          ort
SDA:   1    -0.362348166338E+03    0.11677E+00    0.00000E+00  7392   0.287E+00 0.000E+00
CGA:   2    -0.362437967060E+03   -0.89801E-01   -0.89833E-01  7392   0.124E+00 0.217E-03
CGA:   3    -0.362458700580E+03   -0.20734E-01   -0.20678E-01  7392   0.359E-01-0.221E-03
CGA:   4    -0.362464077805E+03   -0.53772E-02   -0.53722E-02  7392   0.724E-02-0.319E-04
CGA:   5    -0.362465394378E+03   -0.13166E-02   -0.13020E-02  7392   0.233E-02-0.738E-04
CGA:   6    -0.362465864104E+03   -0.46973E-03   -0.45400E-03  7392   0.759E-03-0.915E-04
CGA:   7    -0.362466023148E+03   -0.15904E-03   -0.15762E-03  7392   0.285E-03-0.101E-04
CGA:   8    -0.362466090715E+03   -0.67567E-04   -0.69305E-04  7392   0.123E-03 0.160E-04
CGA:   9    -0.362466134340E+03   -0.43626E-04   -0.43457E-04  7392   0.730E-04-0.129E-04
CGA:  10    -0.362466155691E+03   -0.21350E-04   -0.21087E-04  7392   0.368E-04-0.105E-04
CGA:  11    -0.362466164829E+03   -0.91380E-05   -0.90593E-05  7392   0.151E-04-0.135E-05
  49 F= -.36246616E+03 E0= -.36246616E+03  d E =-.122255E-02  mag=    16.0000
       N       E                     dE             d eps       ncg     rms          ort
SDA:   1    -0.362439509232E+03    0.26646E-01    0.00000E+00  7392   0.697E-01 0.000E+00
CGA:   2    -0.362457694610E+03   -0.18185E-01   -0.18222E-01  7392   0.407E-01 0.383E-03
CGA:   3    -0.362464119971E+03   -0.64254E-02   -0.64769E-02  7392   0.104E-01 0.271E-03
CGA:   4    -0.362465802987E+03   -0.16830E-02   -0.16749E-02  7392   0.247E-02-0.478E-04
CGA:   5    -0.362466235103E+03   -0.43212E-03   -0.42229E-03  7392   0.698E-03-0.641E-04
CGA:   6    -0.362466367177E+03   -0.13207E-03   -0.13121E-03  7392   0.216E-03-0.710E-05
CGA:   7    -0.362466408079E+03   -0.40902E-04   -0.42180E-04  7392   0.673E-04 0.110E-04
CGA:   8    -0.362466424148E+03   -0.16069E-04   -0.16530E-04  7392   0.270E-04 0.627E-05
CGA:   9    -0.362466434453E+03   -0.10306E-04   -0.10619E-04  7392   0.201E-04-0.555E-05
CGA:  10    -0.362466439324E+03   -0.48704E-05   -0.79027E-05  7392   0.292E-04-0.160E-04
  50 F= -.36246644E+03 E0= -.36246644E+03  d E =-.274495E-03  mag=    16.0000
       N       E                     dE             d eps       ncg     rms          ort
SDA:   1    -0.362415136948E+03    0.51298E-01    0.00000E+00  7392   0.124E+00 0.000E+00
CGA:   2    -0.362455290847E+03   -0.40154E-01   -0.40152E-01  7392   0.530E-01 0.824E-04
CGA:   3    -0.362463833647E+03   -0.85428E-02   -0.85218E-02  7392   0.148E-01-0.149E-03
CGA:   4    -0.362466056593E+03   -0.22229E-02   -0.22187E-02  7392   0.303E-02-0.324E-04
CGA:   5    -0.362466595635E+03   -0.53904E-03   -0.53921E-03  7392   0.940E-03 0.101E-05
CGA:   6    -0.362466770163E+03   -0.17453E-03   -0.17477E-03  7392   0.274E-03 0.214E-05
CGA:   7    -0.362466829729E+03   -0.59566E-04   -0.59583E-04  7392   0.102E-03 0.167E-06
CGA:   8    -0.362466855979E+03   -0.26250E-04   -0.26296E-04  7392   0.475E-04 0.217E-05
CGA:   9    -0.362466869950E+03   -0.13971E-04   -0.13950E-04  7392   0.213E-04 0.214E-05
CGA:  10    -0.362466877319E+03   -0.73694E-05   -0.74717E-05  7392   0.111E-04-0.180E-05
  51 F= -.36246688E+03 E0= -.36246688E+03  d E =-.437996E-03  mag=    16.0000
       N       E                     dE             d eps       ncg     rms          ort
SDA:   1    -0.362337835727E+03    0.12903E+00    0.00000E+00  7392   0.308E+00 0.000E+00
CGA:   2    -0.362436491821E+03   -0.98656E-01   -0.98667E-01  7392   0.147E+00-0.389E-03
CGA:   3    -0.362459064175E+03   -0.22572E-01   -0.22503E-01  7392   0.377E-01-0.495E-03
CGA:   4    -0.362464949268E+03   -0.58851E-02   -0.58925E-02  7392   0.820E-02 0.497E-04
CGA:   5    -0.362466371303E+03   -0.14220E-02   -0.14370E-02  7392   0.242E-02 0.150E-03
CGA:   6    -0.362466828935E+03   -0.45763E-03   -0.46365E-03  7392   0.724E-03 0.738E-04
CGA:   7    -0.362466989958E+03   -0.16102E-03   -0.16183E-03  7392   0.275E-03 0.167E-04
CGA:   8    -0.362467066176E+03   -0.76218E-04   -0.76287E-04  7392   0.139E-03-0.788E-05
CGA:   9    -0.362467106117E+03   -0.39941E-04   -0.40073E-04  7392   0.651E-04-0.391E-05
CGA:  10    -0.362467122643E+03   -0.16526E-04   -0.16545E-04  7392   0.241E-04 0.605E-05
CGA:  11    -0.362467131901E+03   -0.92583E-05   -0.95300E-05  7392   0.155E-04-0.283E-05
CGA:  12    -0.362467130824E+03    0.10772E-05   -0.12872E-04  7392   0.748E-04-0.208E-04
CGA:  13    -0.362467145001E+03   -0.14177E-04   -0.14968E-04  7392   0.124E-04 0.768E-05
CGA:  14    -0.362467151210E+03   -0.62093E-05   -0.72044E-05  7392   0.101E-04-0.432E-05
  52 F= -.36246715E+03 E0= -.36246715E+03  d E =-.273891E-03  mag=    16.0000
       N       E                     dE             d eps       ncg     rms          ort
SDA:   1    -0.362448809310E+03    0.18336E-01    0.00000E+00  7392   0.453E-01 0.000E+00
CGA:   2    -0.362463116865E+03   -0.14308E-01   -0.14304E-01  7392   0.190E-01 0.282E-03
CGA:   3    -0.362466315878E+03   -0.31990E-02   -0.32218E-02  7392   0.606E-02 0.165E-03
CGA:   4    -0.362467292459E+03   -0.97658E-03   -0.96979E-03  7392   0.143E-02-0.502E-04
CGA:   5    -0.362467578431E+03   -0.28597E-03   -0.27804E-03  7392   0.516E-03-0.852E-04
CGA:   6    -0.362467678541E+03   -0.10011E-03   -0.96171E-04  7392   0.186E-03-0.453E-04
CGA:   7    -0.362467716512E+03   -0.37971E-04   -0.37848E-04  7392   0.695E-04-0.215E-05
CGA:   8    -0.362467729136E+03   -0.12624E-04   -0.13566E-04  7392   0.222E-04 0.117E-04
CGA:   9    -0.362467735363E+03   -0.62274E-05   -0.63451E-05  7392   0.902E-05 0.395E-05
  53 F= -.36246774E+03 E0= -.36246774E+03  d E =-.584153E-03  mag=    16.0000
       N       E                     dE             d eps       ncg     rms          ort
SDA:   1    -0.362435483703E+03    0.32245E-01    0.00000E+00  7392   0.776E-01 0.000E+00
CGA:   2    -0.362460831093E+03   -0.25347E-01   -0.25336E-01  7392   0.334E-01 0.208E-03
CGA:   3    -0.362466145232E+03   -0.53141E-02   -0.53144E-02  7392   0.896E-02 0.314E-06
CGA:   4    -0.362467516852E+03   -0.13716E-02   -0.13640E-02  7392   0.184E-02-0.649E-04
CGA:   5    -0.362467857661E+03   -0.34081E-03   -0.33698E-03  7392   0.578E-03-0.463E-04
CGA:   6    -0.362467962656E+03   -0.10499E-03   -0.10425E-03  7392   0.164E-03-0.975E-05
CGA:   7    -0.362467994747E+03   -0.32091E-04   -0.32496E-04  7392   0.541E-04 0.696E-05
CGA:   8    -0.362468008665E+03   -0.13919E-04   -0.13961E-04  7392   0.243E-04 0.482E-05
CGA:   9    -0.362468017663E+03   -0.89981E-05   -0.92511E-05  7392   0.165E-04-0.272E-05
  54 F= -.36246802E+03 E0= -.36246802E+03  d E =-.282300E-03  mag=    16.0000
