       N       E                     dE             d eps       ncg     rms          ort
DAV:   1     0.230261433252E+04    0.23026E+04   -0.13660E+05 10080   0.153E+03
DAV:   2    -0.224147274145E+03   -0.25268E+04   -0.24328E+04 10080   0.403E+02
DAV:   3    -0.445243200530E+03   -0.22110E+03   -0.21607E+03 10080   0.139E+02
DAV:   4    -0.454421464117E+03   -0.91783E+01   -0.89698E+01 10080   0.304E+01
DAV:   5    -0.454906517758E+03   -0.48505E+00   -0.48121E+00 10080   0.475E+00
SDA:   6    -0.277813564980E+03    0.17709E+03   -0.48121E+00 10080   0.644E+03 0.000E+00
CGA:   7    -0.321295151208E+03   -0.43482E+02   -0.50578E+02 10080   0.158E+03 0.115E+03
CGA:   8    -0.332926366152E+03   -0.11631E+02   -0.15687E+02 10080   0.188E+03-0.129E+03
CGA:   9    -0.337335282635E+03   -0.44089E+01   -0.94849E+01 10080   0.192E+03-0.909E+02
CGA:  10    -0.340134883632E+03   -0.27996E+01   -0.70039E+01 10080   0.261E+03 0.987E+02
CGA:  11    -0.344260057756E+03   -0.41252E+01   -0.15501E+02 10080   0.118E+03-0.917E+02
CGA:  12    -0.337666102160E+03    0.65940E+01   -0.48119E+01 10080   0.651E+03-0.108E+03
CGA:  13    -0.340105488238E+03   -0.24394E+01   -0.43758E+02 10080   0.136E+03-0.518E+02
CGA:  14    -0.331130387951E+03    0.89751E+01   -0.80494E+01 10080   0.176E+03-0.150E+02
CGA:  15    -0.347138694626E+03   -0.16008E+02   -0.44126E+01 10080   0.237E+03-0.126E+03
CGA:  16    -0.337900787337E+03    0.92379E+01   -0.14041E+02 10080   0.482E+03-0.124E+03
CGA:  17    -0.341902942624E+03   -0.40022E+01   -0.30434E+02 10080   0.400E+03-0.650E+02
CGA:  18    -0.342549389646E+03   -0.64645E+00   -0.25290E+02 10080   0.537E+02-0.266E+02
CGA:  19    -0.347117266275E+03   -0.45679E+01   -0.18283E+01 10080   0.231E+03-0.296E+03
CGA:  20    -0.345926160347E+03    0.11911E+01   -0.13811E+02 10080   0.386E+02-0.146E+02
CGA:  21    -0.348131492871E+03   -0.22053E+01   -0.94354E+00 10080   0.116E+03 0.127E+03
CGA:  22    -0.341726424121E+03    0.64051E+01   -0.45698E+01 10080   0.452E+03-0.265E+03
CGA:  23    -0.345983421199E+03   -0.42570E+01   -0.26645E+02 10080   0.345E+02-0.317E+02
CGA:  24    -0.347253864461E+03   -0.12704E+01   -0.72148E+00 10080   0.218E+02 0.242E+02
CGA:  25    -0.347874378149E+03   -0.62051E+00   -0.31541E+00 10080   0.197E+02 0.217E+02
CGA:  26    -0.348635656750E+03   -0.76128E+00   -0.23626E+00 10080   0.706E+02 0.792E+02
CGA:  27    -0.350485208181E+03   -0.18496E+01   -0.17582E+01 10080   0.784E+02-0.113E+03
CGA:  28    -0.348754965138E+03    0.17302E+01   -0.31120E+01 10080   0.740E+02-0.447E+02
CGA:  29    -0.351122063934E+03   -0.23671E+01   -0.17198E+01 10080   0.403E+02-0.793E+02
CGA:  30    -0.350634665630E+03    0.48740E+00   -0.12831E+01 10080   0.858E+02-0.639E+02
CGA:  31    -0.351341541399E+03   -0.70688E+00   -0.19722E+01 10080   0.322E+02-0.455E+02
CGA:  32    -0.351367627018E+03   -0.26086E-01   -0.88804E+00 10080   0.453E+02-0.439E+02
CGA:  33    -0.351754164150E+03   -0.38654E+00   -0.96522E+00 10080   0.162E+02-0.244E+02
CGA:  34    -0.351952013777E+03   -0.19785E+00   -0.31992E+00 10080   0.462E+01-0.837E+01
CGA:  35    -0.352010701949E+03   -0.58688E-01   -0.89319E-01 10080   0.146E+01-0.159E+01
CGA:  36    -0.352084265660E+03   -0.73564E-01   -0.73407E-01 10080   0.187E+01 0.334E-01
CGA:  37    -0.352170442823E+03   -0.86177E-01   -0.90319E-01 10080   0.188E+01-0.437E-01
CGA:  38    -0.352279496917E+03   -0.10905E+00   -0.10524E+00 10080   0.162E+01-0.140E-01
CGA:  39    -0.352363166441E+03   -0.83670E-01   -0.88638E-01 10080   0.804E+00 0.711E-01
CGA:  40    -0.352386637258E+03   -0.23471E-01   -0.22310E-01 10080   0.232E+00 0.542E-01
CGA:  41    -0.352407258018E+03   -0.20621E-01   -0.20362E-01 10080   0.571E+00 0.447E-02
CGA:  42    -0.352438383990E+03   -0.31126E-01   -0.28291E-01 10080   0.204E+00-0.119E-01
CGA:  43    -0.352447510886E+03   -0.91269E-02   -0.92563E-02 10080   0.130E+00-0.157E-01
CGA:  44    -0.352454326925E+03   -0.68160E-02   -0.67707E-02 10080   0.101E+00-0.417E-02
CGA:  45    -0.352461655784E+03   -0.73289E-02   -0.73943E-02 10080   0.138E+00-0.116E-01
CGA:  46    -0.352468375312E+03   -0.67195E-02   -0.66051E-02 10080   0.598E-01-0.928E-02
CGA:  47    -0.352471246231E+03   -0.28709E-02   -0.27656E-02 10080   0.418E-01-0.929E-02
CGA:  48    -0.352474003442E+03   -0.27572E-02   -0.28247E-02 10080   0.467E-01-0.461E-02
CGA:  49    -0.352476952402E+03   -0.29490E-02   -0.29855E-02 10080   0.437E-01-0.808E-02
CGA:  50    -0.352478843317E+03   -0.18909E-02   -0.18699E-02 10080   0.133E-01-0.209E-02
CGA:  51    -0.352479653560E+03   -0.81024E-03   -0.80435E-03 10080   0.167E-01-0.256E-02
CGA:  52    -0.352481259534E+03   -0.16060E-02   -0.15838E-02 10080   0.157E-01 0.279E-03
CGA:  53    -0.352482014436E+03   -0.75490E-03   -0.72828E-03 10080   0.644E-02-0.158E-02
CGA:  54    -0.352482347250E+03   -0.33281E-03   -0.34300E-03 10080   0.286E-02 0.123E-02
CGA:  55    -0.352482647023E+03   -0.29977E-03   -0.29258E-03 10080   0.563E-02 0.355E-03
CGA:  56    -0.352483223520E+03   -0.57650E-03   -0.52670E-03 10080   0.775E-03 0.311E-02
CGA:  57    -0.352483295307E+03   -0.71787E-04   -0.66347E-04 10080   0.159E-02 0.311E-03
CGA:  58    -0.352483453361E+03   -0.15805E-03   -0.15646E-03 10080   0.600E-03 0.159E-02
CGA:  59    -0.352483501725E+03   -0.48364E-04   -0.46685E-04 10080   0.125E-02 0.196E-03
CGA:  60    -0.352483630884E+03   -0.12916E-03   -0.12326E-03 10080   0.489E-03 0.133E-02
CGA:  61    -0.352483660453E+03   -0.29569E-04   -0.31154E-04 10080   0.626E-03 0.248E-03
CGA:  62    -0.352483681344E+03   -0.20890E-04   -0.26354E-04 10080   0.528E-03 0.194E-03
CGA:  63    -0.352483765673E+03   -0.84330E-04   -0.66540E-04 10080   0.617E-03 0.633E-03
CGA:  64    -0.352483784165E+03   -0.18491E-04   -0.24037E-04 10080   0.438E-03 0.176E-03
CGA:  65    -0.352483841763E+03   -0.57599E-04   -0.48365E-04 10080   0.585E-03 0.516E-03
CGA:  66    -0.352483867911E+03   -0.26148E-04   -0.27752E-04 10080   0.524E-03 0.687E-04
CGA:  67    -0.352483952190E+03   -0.84279E-04   -0.62861E-04 10080   0.542E-03 0.540E-03
CGA:  68    -0.352483965270E+03   -0.13080E-04   -0.19393E-04 10080   0.315E-03 0.182E-03
CGA:  69    -0.352484007981E+03   -0.42711E-04   -0.36142E-04 10080   0.556E-03 0.368E-03
CGA:  70    -0.352484037500E+03   -0.29519E-04   -0.29114E-04 10080   0.552E-03-0.308E-04
CGA:  71    -0.352484129413E+03   -0.91913E-04   -0.64341E-04 10080   0.511E-03 0.495E-03
CGA:  72    -0.352484140277E+03   -0.10864E-04   -0.17072E-04 10080   0.258E-03 0.163E-03
CGA:  73    -0.352484178083E+03   -0.37806E-04   -0.31327E-04 10080   0.545E-03 0.279E-03
CGA:  74    -0.352484207869E+03   -0.29786E-04   -0.28362E-04 10080   0.526E-03-0.847E-04
CGA:  75    -0.352484316110E+03   -0.10824E-03   -0.70265E-04 10080   0.477E-03 0.422E-03
CGA:  76    -0.352484325530E+03   -0.94200E-05   -0.15436E-04 10080   0.221E-03 0.143E-03
CGA:  77    -0.352484364273E+03   -0.38743E-04   -0.30861E-04 10080   0.576E-03 0.217E-03
CGA:  78    -0.352484394762E+03   -0.30488E-04   -0.27782E-04 10080   0.451E-03-0.114E-03
CGA:  79    -0.352484533418E+03   -0.13866E-03   -0.84168E-04 10080   0.317E-03 0.332E-03
CGA:  80    -0.352484538034E+03   -0.46155E-05   -0.10559E-04 10080   0.205E-03 0.125E-03
CGA:  81    -0.352484591688E+03   -0.53654E-04   -0.40593E-04 10080   0.687E-03 0.200E-03
CGA:  82    -0.352484629255E+03   -0.37568E-04   -0.31022E-04 10080   0.426E-03-0.191E-03
CGA:  83    -0.352484712592E+03   -0.83336E-04   -0.56786E-04 10080   0.348E-03 0.248E-03
CGA:  84    -0.352484733446E+03   -0.20854E-04   -0.17408E-04 10080   0.546E-03-0.102E-03
CGA:  85    -0.352484872273E+03   -0.13883E-03   -0.99860E-04 10080   0.236E-02 0.208E-03
CGA:  86    -0.352485053316E+03   -0.18104E-03   -0.19377E-03 10080   0.256E-02 0.163E-03
CGA:  87    -0.352485382861E+03   -0.32955E-03   -0.43525E-03 10080   0.181E-01-0.171E-02
CGA:  88    -0.352485717585E+03   -0.33472E-03   -0.38129E-03 10080   0.460E-03 0.994E-03
CGA:  89    -0.352485726803E+03   -0.92185E-05   -0.14857E-04 10080   0.171E-03 0.925E-04
CGA:  90    -0.352485762113E+03   -0.35309E-04   -0.46868E-04 10080   0.169E-02-0.850E-04
CGA:  91    -0.352485781240E+03   -0.19128E-04   -0.14756E-04 10080   0.184E-02-0.694E-04
CGA:  92    -0.352485814307E+03   -0.33067E-04   -0.29286E-04 10080   0.721E-03-0.125E-03
CGA:  93    -0.352485836168E+03   -0.21860E-04   -0.17136E-04 10080   0.950E-03-0.980E-04
CGA:  94    -0.352485908295E+03   -0.72127E-04   -0.85036E-04 10080   0.861E-02-0.698E-03
CGA:  95    -0.352486122971E+03   -0.21468E-03   -0.22755E-03 10080   0.615E-03 0.205E-03
CGA:  96    -0.352486149874E+03   -0.26903E-04   -0.32412E-04 10080   0.587E-03 0.182E-03
CGA:  97    -0.352486246806E+03   -0.96931E-04   -0.18172E-03 10080   0.126E-02-0.539E-03
CGA:  98    -0.352486267999E+03   -0.21193E-04   -0.35577E-04 10080   0.288E-03 0.238E-03
CGA:  99    -0.352486304778E+03   -0.36779E-04   -0.35104E-04 10080   0.651E-03 0.947E-04
CGA: 100    -0.352486391248E+03   -0.86470E-04   -0.91080E-04 10080   0.331E-03-0.242E-03
CGA: 101    -0.352486394571E+03   -0.33232E-05   -0.72455E-05 10080   0.201E-03 0.737E-04
CGA: 102    -0.352486414629E+03   -0.20059E-04   -0.20218E-04 10080   0.543E-03 0.840E-04
CGA: 103    -0.352486553306E+03   -0.13868E-03    0.46058E-03 10080   0.624E-03 0.665E-03
CGA: 104    -0.352486583048E+03   -0.29742E-04   -0.24599E-04 10080   0.242E-03-0.123E-03
CGA: 105    -0.352486615139E+03   -0.32091E-04    0.13264E-02 10080   0.223E-03 0.104E-03
CGA: 106    -0.352486628120E+03   -0.12981E-04   -0.16646E-04 10080   0.144E-03 0.122E-03
CGA: 107    -0.352486652426E+03   -0.24306E-04    0.11711E-03 10080   0.390E-03-0.656E-04
CGA: 108    -0.352486691410E+03   -0.38984E-04    0.60718E-04 10080   0.106E-02 0.943E-04
CGA: 109    -0.352486789252E+03   -0.97842E-04   -0.99045E-04 10080   0.104E-02 0.214E-03
CGA: 110    -0.352486893849E+03   -0.10460E-03   -0.10797E-03 10080   0.340E-02-0.551E-03
CGA: 111    -0.352486961460E+03   -0.67611E-04   -0.74994E-04 10080   0.154E-03 0.913E-04
CGA: 112    -0.352486988074E+03   -0.26614E-04    0.69776E-04 10080   0.244E-03 0.380E-04
CGA: 113    -0.352487072762E+03   -0.84688E-04   -0.97301E-04 10080   0.874E-03-0.571E-04
CGA: 114    -0.352487088628E+03   -0.15866E-04   -0.17159E-04 10080   0.238E-03 0.786E-05
CGA: 115    -0.352487106331E+03   -0.17702E-04   -0.15271E-04 10080   0.725E-03-0.111E-03
CGA: 116    -0.352487106520E+03   -0.18942E-06   -0.55162E-04 10080   0.966E-02-0.100E-02
CGA: 117    -0.352487335934E+03   -0.22941E-03   -0.25736E-03 10080   0.305E-03 0.442E-03
CGA: 118    -0.352487342129E+03   -0.61950E-05   -0.12126E-04 10080   0.240E-03 0.125E-03
CGA: 119    -0.352487438208E+03   -0.96079E-04   -0.88142E-04 10080   0.395E-03 0.428E-04
CGA: 120    -0.352487470577E+03   -0.32369E-04   -0.21859E-04 10080   0.338E-03-0.241E-03
CGA: 121    -0.352487472443E+03   -0.18664E-05   -0.71490E-05 10080   0.682E-04 0.765E-04
   1 F= -.35248747E+03 E0= -.35247800E+03  d E =-.352487E+03  mag=    10.0000
       N       E                     dE             d eps       ncg     rms          ort
SDA:   1    -0.352529262110E+03   -0.41792E-01    0.00000E+00 10080   0.149E+00 0.000E+00
CGA:   2    -0.352532480843E+03   -0.32187E-02   -0.33268E-02 10080   0.777E-02-0.449E-04
CGA:   3    -0.352534069041E+03   -0.15882E-02   -0.16850E-02 10080   0.295E-01-0.739E-03
CGA:   4    -0.352535016744E+03   -0.94770E-03   -0.97136E-03 10080   0.278E-02 0.489E-03
CGA:   5    -0.352535180165E+03   -0.16342E-03   -0.16814E-03 10080   0.414E-02 0.171E-03
CGA:   6    -0.352535545979E+03   -0.36581E-03   -0.36563E-03 10080   0.865E-03-0.181E-03
CGA:   7    -0.352535566705E+03   -0.20726E-04   -0.26640E-04 10080   0.374E-03 0.111E-03
CGA:   8    -0.352535611293E+03   -0.44588E-04   -0.42306E-04 10080   0.532E-03 0.122E-03
CGA:   9    -0.352535667065E+03   -0.55772E-04   -0.53732E-04 10080   0.629E-03-0.325E-03
CGA:  10    -0.352535675769E+03   -0.87042E-05   -0.15284E-04 10080   0.107E-03 0.112E-03
   2 F= -.35253568E+03 E0= -.35252626E+03  d E =-.482033E-01  mag=    10.0000
       N       E                     dE             d eps       ncg     rms          ort
SDA:   1    -0.350755386135E+03    0.17803E+01    0.00000E+00 10080   0.883E+01 0.000E+00
CGA:   2    -0.351431200507E+03   -0.67581E+00   -0.67833E+00 10080   0.125E+02 0.566E+00
CGA:   3    -0.352826689394E+03   -0.13955E+01   -0.14363E+01 10080   0.881E+01-0.103E+01
CGA:   4    -0.353090878625E+03   -0.26419E+00   -0.26944E+00 10080   0.183E+01-0.362E+00
CGA:   5    -0.353347268447E+03   -0.25639E+00   -0.25642E+00 10080   0.217E+01-0.235E-03
CGA:   6    -0.353434719018E+03   -0.87451E-01   -0.87576E-01 10080   0.282E+00-0.115E-01
CGA:   7    -0.353455413373E+03   -0.20694E-01   -0.20703E-01 10080   0.401E+00-0.667E-04
CGA:   8    -0.353488455316E+03   -0.33042E-01   -0.33026E-01 10080   0.131E+00 0.119E-02
CGA:   9    -0.353493417188E+03   -0.49619E-02   -0.50109E-02 10080   0.536E-01 0.141E-02
CGA:  10    -0.353500389405E+03   -0.69722E-02   -0.71428E-02 10080   0.119E+00-0.335E-02
CGA:  11    -0.353506400214E+03   -0.60108E-02   -0.60179E-02 10080   0.141E-01-0.172E-03
CGA:  12    -0.353509090337E+03   -0.26901E-02   -0.28294E-02 10080   0.499E-01-0.116E-02
CGA:  13    -0.353511209249E+03   -0.21189E-02   -0.20895E-02 10080   0.706E-02-0.112E-02
CGA:  14    -0.353511641478E+03   -0.43223E-03   -0.42708E-03 10080   0.895E-02-0.285E-03
CGA:  15    -0.353512986674E+03   -0.13452E-02   -0.13416E-02 10080   0.675E-02 0.276E-04
CGA:  16    -0.353513224041E+03   -0.23737E-03   -0.22213E-03 10080   0.148E-02-0.335E-03
CGA:  17    -0.353513753598E+03   -0.52956E-03   -0.10001E-05 10080   0.808E-02-0.662E-03
CGA:  18    -0.353513830630E+03   -0.77031E-04   -0.88212E-04 10080   0.234E-02-0.360E-03
CGA:  19    -0.353513868060E+03   -0.37430E-04   -0.45747E-04 10080   0.138E-02 0.123E-04
CGA:  20    -0.353513961674E+03   -0.93614E-04   -0.92154E-04 10080   0.467E-02-0.508E-04
CGA:  21    -0.353514284230E+03   -0.32256E-03   -0.28003E-03 10080   0.873E-02-0.528E-03
CGA:  22    -0.353514499394E+03   -0.21516E-03   -0.15569E-03 10080   0.395E-02 0.342E-03
CGA:  23    -0.353514581803E+03   -0.82408E-04   -0.70432E-04 10080   0.130E-02-0.917E-04
CGA:  24    -0.353514614503E+03   -0.32700E-04   -0.33860E-04 10080   0.158E-02-0.702E-05
CGA:  25    -0.353514727006E+03   -0.11250E-03   -0.11117E-03 10080   0.643E-02-0.803E-04
CGA:  26    -0.353515049812E+03   -0.32281E-03   -0.27631E-03 10080   0.632E-02-0.727E-03
CGA:  27    -0.353515182748E+03   -0.13294E-03   -0.84610E-04 10080   0.179E-02-0.539E-04
CGA:  28    -0.353515237300E+03   -0.54552E-04   -0.32939E-04 10080   0.102E-02-0.242E-03
CGA:  29    -0.353515295997E+03   -0.58697E-04   -0.43607E-04 10080   0.307E-02-0.306E-03
CGA:  30    -0.353515407975E+03   -0.11198E-03   -0.88613E-04 10080   0.718E-02-0.548E-03
CGA:  31    -0.353515580821E+03   -0.17285E-03   -0.14212E-03 10080   0.374E-02-0.690E-03
SDA:  32    -0.353515638023E+03   -0.57202E-04   -0.46239E-04 10080   0.965E-03-0.855E-04
CGA:  33    -0.353515692968E+03   -0.54945E-04   -0.54555E-04 10080   0.107E-02-0.194E-04
CGA:  34    -0.353515853185E+03   -0.16022E-03   -0.15386E-03 10080   0.488E-03 0.103E-03
CGA:  35    -0.353515882335E+03   -0.29150E-04   -0.24277E-04 10080   0.317E-03-0.115E-03
CGA:  36    -0.353515907222E+03   -0.24888E-04   -0.23503E-04 10080   0.174E-03 0.138E-03
CGA:  37    -0.353515925939E+03   -0.18716E-04   -0.18819E-04 10080   0.285E-03 0.612E-05
CGA:  38    -0.353515964771E+03   -0.38832E-04   -0.37427E-04 10080   0.301E-03 0.346E-04
CGA:  39    -0.353515968618E+03   -0.38472E-05   -0.89063E-05 10080   0.705E-04 0.807E-04
   3 F= -.35351597E+03 E0= -.35350740E+03  d E =-.980293E+00  mag=    10.0000
       N       E                     dE             d eps       ncg     rms          ort
SDA:   1    -0.350544086990E+03    0.29719E+01    0.00000E+00 10080   0.105E+02 0.000E+00
CGA:   2    -0.351435038342E+03   -0.89095E+00   -0.89029E+00 10080   0.166E+02 0.305E+00
CGA:   3    -0.353298647702E+03   -0.18636E+01   -0.18884E+01 10080   0.325E+01-0.618E+00
CGA:   4    -0.353521054695E+03   -0.22241E+00   -0.22280E+00 10080   0.350E+01-0.521E-02
CGA:   5    -0.353843675285E+03   -0.32262E+00   -0.32272E+00 10080   0.550E+00-0.111E-01
CGA:   6    -0.353874890319E+03   -0.31215E-01   -0.31035E-01 10080   0.473E+00-0.376E-02
CGA:   7    -0.353926859538E+03   -0.51969E-01   -0.51724E-01 10080   0.225E+00 0.664E-02
CGA:   8    -0.353936526634E+03   -0.96671E-02   -0.95633E-02 10080   0.823E-01-0.521E-02
CGA:   9    -0.353949479729E+03   -0.12953E-01   -0.12687E-01 10080   0.108E+00 0.340E-02
CGA:  10    -0.353955230334E+03   -0.57506E-02   -0.56536E-02 10080   0.337E-01-0.430E-02
CGA:  11    -0.353958955958E+03   -0.37256E-02   -0.36637E-02 10080   0.392E-01 0.216E-02
CGA:  12    -0.353962387272E+03   -0.34313E-02   -0.34195E-02 10080   0.261E-01-0.303E-02
CGA:  13    -0.353963842177E+03   -0.14549E-02   -0.14948E-02 10080   0.977E-02 0.155E-02
CGA:  14    -0.353965049678E+03   -0.12075E-02   -0.12699E-02 10080   0.239E-01-0.164E-02
CGA:  15    -0.353966573270E+03   -0.15236E-02   -0.15342E-02 10080   0.357E-02 0.542E-03
CGA:  16    -0.353966759376E+03   -0.18611E-03   -0.20300E-03 10080   0.427E-02 0.516E-03
CGA:  17    -0.353967764760E+03   -0.10054E-02   -0.11322E-02 10080   0.629E-02-0.900E-03
CGA:  18    -0.353967935277E+03   -0.17052E-03   -0.18326E-03 10080   0.188E-02-0.420E-04
CGA:  19    -0.353968148074E+03   -0.21280E-03   -0.20497E-03 10080   0.538E-02 0.348E-03
CGA:  20    -0.353968896663E+03   -0.74859E-03   -0.77634E-03 10080   0.298E-02-0.792E-03
CGA:  21    -0.353969039902E+03   -0.14324E-03   -0.14862E-03 10080   0.200E-02 0.165E-04
CGA:  22    -0.353969648062E+03   -0.60816E-03   -0.56799E-03 10080   0.216E-02 0.149E-03
CGA:  23    -0.353969812465E+03   -0.16440E-03   -0.16695E-03 10080   0.147E-02 0.486E-04
CGA:  24    -0.353970175260E+03   -0.36279E-03   -0.35460E-03 10080   0.166E-02 0.319E-04
CGA:  25    -0.353970224056E+03   -0.48796E-04   -0.68964E-04 10080   0.660E-03 0.304E-03
CGA:  26    -0.353970355530E+03   -0.13147E-03   -0.14397E-03 10080   0.253E-02-0.157E-03
CGA:  27    -0.353970439921E+03   -0.84391E-04   -0.93434E-04 10080   0.156E-02 0.136E-03
CGA:  28    -0.353970467937E+03   -0.28016E-04   -0.43629E-04 10080   0.475E-03 0.155E-03
CGA:  29    -0.353970490454E+03   -0.22517E-04   -0.27608E-04 10080   0.729E-03 0.100E-03
CGA:  30    -0.353970594148E+03   -0.10369E-03   -0.10161E-03 10080   0.159E-02 0.109E-03
CGA:  31    -0.353970651951E+03   -0.57802E-04   -0.68802E-04 10080   0.388E-03 0.242E-03
SDA:  32    -0.353970657180E+03   -0.52294E-05   -0.12919E-04 10080   0.230E-03 0.117E-03
CGA:  33    -0.353970703738E+03   -0.46558E-04   -0.90774E-04 10080   0.216E-02-0.146E-03
CGA:  34    -0.353970743886E+03   -0.40148E-04   -0.58933E-04 10080   0.160E-03 0.237E-03
CGA:  35    -0.353970756231E+03   -0.12345E-04   -0.10735E-04 10080   0.166E-03-0.390E-04
CGA:  36    -0.353970736204E+03    0.20027E-04   -0.20163E-04 10080   0.252E-02-0.183E-03
CGA:  37    -0.353970784834E+03   -0.48630E-04   -0.76932E-04 10080   0.355E-03 0.182E-03
CGA:  38    -0.353970825458E+03   -0.40624E-04   -0.36620E-04 10080   0.627E-03-0.523E-04
CGA:  39    -0.353970864248E+03   -0.38790E-04   -0.41878E-04 10080   0.204E-03 0.330E-04
CGA:  40    -0.353970866190E+03   -0.19420E-05   -0.59133E-05 10080   0.382E-04 0.281E-04
   4 F= -.35397087E+03 E0= -.35396385E+03  d E =-.454898E+00  mag=    10.0000
       N       E                     dE             d eps       ncg     rms          ort
SDA:   1    -0.353848812274E+03    0.12205E+00    0.00000E+00 10080   0.486E+00 0.000E+00
CGA:   2    -0.353889692208E+03   -0.40880E-01   -0.39623E-01 10080   0.673E+00 0.104E-01
CGA:   3    -0.353966497581E+03   -0.76805E-01   -0.76713E-01 10080   0.281E+00-0.281E-02
CGA:   4    -0.353977762841E+03   -0.11265E-01   -0.11322E-01 10080   0.100E+00 0.683E-02
CGA:   5    -0.353990633673E+03   -0.12871E-01   -0.12840E-01 10080   0.121E+00-0.182E-02
CGA:   6    -0.353996467069E+03   -0.58334E-02   -0.59210E-02 10080   0.114E-01-0.159E-02
CGA:   7    -0.353999078230E+03   -0.26112E-02   -0.26605E-02 10080   0.595E-02-0.506E-03
CGA:   8    -0.353999360324E+03   -0.28209E-03   -0.30786E-03 10080   0.361E-02 0.231E-03
CGA:   9    -0.353999891019E+03   -0.53070E-03   -0.53106E-03 10080   0.576E-02-0.217E-03
CGA:  10    -0.354000056023E+03   -0.16500E-03   -0.20878E-03 10080   0.947E-03 0.440E-03
CGA:  11    -0.354000133723E+03   -0.77699E-04   -0.86311E-04 10080   0.158E-02 0.166E-03
CGA:  12    -0.354000310987E+03   -0.17726E-03   -0.17461E-03 10080   0.122E-02-0.720E-04
CGA:  13    -0.354000328527E+03   -0.17541E-04   -0.37144E-04 10080   0.279E-03 0.194E-03
CGA:  14    -0.354000338497E+03   -0.99699E-05   -0.17889E-04 10080   0.416E-03 0.112E-03
CGA:  15    -0.354000431096E+03   -0.92599E-04   -0.10107E-03 10080   0.319E-03-0.167E-03
CGA:  16    -0.354000433716E+03   -0.26198E-05   -0.56329E-05 10080   0.161E-03 0.317E-04
   5 F= -.35400043E+03 E0= -.35399356E+03  d E =-.295675E-01  mag=    10.0000
       N       E                     dE             d eps       ncg     rms          ort
SDA:   1    -0.353792979252E+03    0.20745E+00    0.00000E+00 10080   0.704E+00 0.000E+00
CGA:   2    -0.353856081670E+03   -0.63102E-01   -0.62685E-01 10080   0.106E+01-0.163E-03
CGA:   3    -0.353964724536E+03   -0.10864E+00   -0.10864E+00 10080   0.228E+00-0.176E-02
CGA:   4    -0.353979985844E+03   -0.15261E-01   -0.15328E-01 10080   0.267E+00 0.397E-02
CGA:   5    -0.354002371659E+03   -0.22386E-01   -0.22328E-01 10080   0.632E-01-0.370E-02
CGA:   6    -0.354005965009E+03   -0.35934E-02   -0.36226E-02 10080   0.271E-01 0.234E-03
CGA:   7    -0.354009609455E+03   -0.36444E-02   -0.37000E-02 10080   0.257E-01-0.202E-02
CGA:   8    -0.354010294202E+03   -0.68475E-03   -0.76612E-03 10080   0.428E-02 0.119E-02
CGA:   9    -0.354011049633E+03   -0.75543E-03   -0.71242E-03 10080   0.801E-02 0.796E-03
CGA:  10    -0.354011499685E+03   -0.45005E-03   -0.41224E-03 10080   0.217E-02-0.679E-03
CGA:  11    -0.354011629463E+03   -0.12978E-03   -0.14825E-03 10080   0.118E-02 0.608E-03
CGA:  12    -0.354011880699E+03   -0.25124E-03   -0.25136E-03 10080   0.210E-02-0.398E-05
CGA:  13    -0.354011918945E+03   -0.38246E-04   -0.70144E-04 10080   0.382E-03 0.439E-03
CGA:  14    -0.354011935450E+03   -0.16505E-04   -0.24601E-04 10080   0.476E-03 0.162E-03
CGA:  15    -0.354012030356E+03   -0.94906E-04   -0.11398E-03 10080   0.165E-02-0.283E-03
CGA:  16    -0.354012065286E+03   -0.34931E-04   -0.49312E-04 10080   0.164E-03 0.196E-03
CGA:  17    -0.354012082905E+03   -0.17619E-04   -0.15937E-04 10080   0.387E-03-0.131E-03
CGA:  18    -0.354012087808E+03   -0.49026E-05   -0.11508E-04 10080   0.647E-04 0.935E-04
   6 F= -.35401209E+03 E0= -.35400530E+03  d E =-.116541E-01  mag=    10.0000
       N       E                     dE             d eps       ncg     rms          ort
SDA:   1    -0.353889272837E+03    0.12281E+00    0.00000E+00 10080   0.482E+00 0.000E+00
CGA:   2    -0.353926209078E+03   -0.36936E-01   -0.37054E-01 10080   0.541E+00-0.103E-02
CGA:   3    -0.353971187792E+03   -0.44979E-01   -0.45013E-01 10080   0.407E+00 0.652E-02
CGA:   4    -0.353992145505E+03   -0.20958E-01   -0.20972E-01 10080   0.104E+00-0.635E-02
CGA:   5    -0.354007444669E+03   -0.15299E-01   -0.15151E-01 10080   0.664E-01 0.250E-02
CGA:   6    -0.354010591644E+03   -0.31470E-02   -0.30548E-02 10080   0.156E-01-0.326E-02
CGA:   7    -0.354012035318E+03   -0.14437E-02   -0.14375E-02 10080   0.151E-01 0.108E-02
CGA:   8    -0.354012981615E+03   -0.94630E-03   -0.90105E-03 10080   0.609E-02-0.140E-02
CGA:   9    -0.354013295722E+03   -0.31411E-03   -0.32785E-03 10080   0.179E-02 0.434E-03
CGA:  10    -0.354013603500E+03   -0.30778E-03   -0.33329E-03 10080   0.412E-02-0.301E-03
CGA:  11    -0.354013694372E+03   -0.90872E-04   -0.12234E-03 10080   0.887E-03 0.552E-03
CGA:  12    -0.354013719436E+03   -0.25064E-04   -0.35964E-04 10080   0.546E-03 0.197E-03
CGA:  13    -0.354013773288E+03   -0.53852E-04   -0.53816E-04 10080   0.102E-02-0.896E-05
CGA:  14    -0.354013817926E+03   -0.44638E-04   -0.52483E-04 10080   0.820E-03 0.226E-03
CGA:  15    -0.354013828661E+03   -0.10735E-04   -0.24867E-04 10080   0.170E-03 0.234E-03
CGA:  16    -0.354013833090E+03   -0.44286E-05   -0.72298E-05 10080   0.131E-03 0.564E-04
CGA:  17    -0.354013783193E+03    0.49897E-04   -0.58382E-04 10080   0.358E-02-0.429E-03
CGA:  18    -0.354013882698E+03   -0.99505E-04   -0.11878E-03 10080   0.123E-03 0.313E-03
CGA:  19    -0.354013893353E+03   -0.10656E-04   -0.98837E-05 10080   0.152E-03-0.506E-04
CGA:  20    -0.354013895138E+03   -0.17851E-05   -0.39366E-05 10080   0.144E-03 0.480E-04
   7 F= -.35401390E+03 E0= -.35400709E+03  d E =-.180733E-02  mag=    10.0000
       N       E                     dE             d eps       ncg     rms          ort
SDA:   1    -0.353435091478E+03    0.57880E+00    0.00000E+00 10080   0.173E+01 0.000E+00
CGA:   2    -0.353708538622E+03   -0.27345E+00   -0.27348E+00 10080   0.286E+01-0.345E-02
CGA:   3    -0.353856401456E+03   -0.14786E+00   -0.14693E+00 10080   0.939E+00 0.124E-01
CGA:   4    -0.353928999737E+03   -0.72598E-01   -0.72617E-01 10080   0.891E+00-0.939E-02
CGA:   5    -0.353991591763E+03   -0.62592E-01   -0.62706E-01 10080   0.205E+00 0.874E-02
CGA:   6    -0.354001618038E+03   -0.10026E-01   -0.10179E-01 10080   0.627E-01-0.559E-02
CGA:   7    -0.354009907321E+03   -0.82893E-02   -0.81937E-02 10080   0.414E-01 0.179E-02
CGA:   8    -0.354011634286E+03   -0.17270E-02   -0.16472E-02 10080   0.127E-01-0.246E-02
CGA:   9    -0.354013095248E+03   -0.14610E-02   -0.14172E-02 10080   0.838E-02 0.122E-02
CGA:  10    -0.354013774205E+03   -0.67896E-03   -0.66594E-03 10080   0.679E-02-0.111E-02
CGA:  11    -0.354014038886E+03   -0.26468E-03   -0.29353E-03 10080   0.203E-02 0.844E-03
CGA:  12    -0.354014233370E+03   -0.19448E-03   -0.19409E-03 10080   0.169E-02 0.137E-03
CGA:  13    -0.354014437839E+03   -0.20447E-03   -0.22383E-03 10080   0.394E-02-0.473E-03
CGA:  14    -0.354014497556E+03   -0.59717E-04   -0.80385E-04 10080   0.132E-02 0.365E-03
CGA:  15    -0.354014508688E+03   -0.11133E-04   -0.27614E-04 10080   0.495E-03 0.263E-03
CGA:  16    -0.354014528104E+03   -0.19415E-04   -0.24914E-04 10080   0.838E-03 0.148E-03
CGA:  17    -0.354014619233E+03   -0.91130E-04   -0.92790E-04 10080   0.173E-02-0.204E-03
CGA:  18    -0.354014660963E+03   -0.41730E-04   -0.35503E-04 10080   0.129E-02-0.126E-03
CGA:  19    -0.354014679839E+03   -0.18876E-04   -0.22663E-04 10080   0.529E-03 0.672E-04
CGA:  20    -0.354014682428E+03   -0.25884E-05   -0.87817E-05 10080   0.250E-03 0.110E-03
   8 F= -.35401468E+03 E0= -.35400783E+03  d E =-.787290E-03  mag=    10.0000
       N       E                     dE             d eps       ncg     rms          ort
SDA:   1    -0.353518587513E+03    0.49609E+00    0.00000E+00 10080   0.129E+01 0.000E+00
CGA:   2    -0.353786633930E+03   -0.26805E+00   -0.27533E+00 10080   0.276E+01-0.637E-01
CGA:   3    -0.353913756321E+03   -0.12712E+00   -0.13075E+00 10080   0.513E+00-0.893E-02
CGA:   4    -0.353972134929E+03   -0.58379E-01   -0.58087E-01 10080   0.525E+00 0.623E-02
CGA:   5    -0.353999095936E+03   -0.26961E-01   -0.26945E-01 10080   0.124E+00-0.582E-02
CGA:   6    -0.354004463367E+03   -0.53674E-02   -0.54239E-02 10080   0.494E-01 0.274E-02
CGA:   7    -0.354012081005E+03   -0.76176E-02   -0.76318E-02 10080   0.134E-01-0.216E-03
CGA:   8    -0.354012925140E+03   -0.84414E-03   -0.85732E-03 10080   0.109E-01 0.111E-02
CGA:   9    -0.354014538556E+03   -0.16134E-02   -0.17150E-02 10080   0.583E-02-0.148E-02
CGA:  10    -0.354014705066E+03   -0.16651E-03   -0.19207E-03 10080   0.237E-02 0.616E-03
CGA:  11    -0.354015028096E+03   -0.32303E-03   -0.33326E-03 10080   0.479E-02-0.215E-03
CGA:  12    -0.354015341013E+03   -0.31292E-03   -0.30576E-03 10080   0.169E-02-0.779E-03
CGA:  13    -0.354015374024E+03   -0.33011E-04   -0.42467E-04 10080   0.763E-03 0.191E-03
CGA:  14    -0.354015435061E+03   -0.61037E-04   -0.61975E-04 10080   0.136E-02 0.262E-03
CGA:  15    -0.354015586986E+03   -0.15192E-03   -0.15340E-03 10080   0.858E-03-0.201E-03
CGA:  16    -0.354015600455E+03   -0.13469E-04   -0.20300E-04 10080   0.222E-03 0.138E-03
CGA:  17    -0.354015603794E+03   -0.33391E-05   -0.74455E-05 10080   0.187E-03 0.900E-04
CGA:  18    -0.354015629762E+03   -0.25968E-04   -0.24501E-04 10080   0.440E-03 0.689E-04
CGA:  19    -0.354015667520E+03   -0.37758E-04   -0.35525E-04 10080   0.161E-03-0.159E-03
CGA:  20    -0.354015666753E+03    0.76721E-06   -0.16883E-05 10080   0.889E-04 0.437E-04
   9 F= -.35401567E+03 E0= -.35400872E+03  d E =-.984325E-03  mag=    10.0000
       N       E                     dE             d eps       ncg     rms          ort
SDA:   1    -0.353987859561E+03    0.27808E-01    0.00000E+00 10080   0.758E-01 0.000E+00
CGA:   2    -0.354003420408E+03   -0.15561E-01   -0.15576E-01 10080   0.165E+00-0.396E-03
CGA:   3    -0.354012677408E+03   -0.92570E-02   -0.92782E-02 10080   0.255E-01-0.118E-02
CGA:   4    -0.354015342054E+03   -0.26646E-02   -0.26500E-02 10080   0.254E-01 0.384E-03
CGA:   5    -0.354017256104E+03   -0.19140E-02   -0.19141E-02 10080   0.326E-02 0.209E-03
CGA:   6    -0.354017591687E+03   -0.33558E-03   -0.37429E-03 10080   0.934E-02-0.100E-02
CGA:   7    -0.354017830341E+03   -0.23865E-03   -0.25935E-03 10080   0.362E-02 0.565E-03
CGA:   8    -0.354017874313E+03   -0.43972E-04   -0.71565E-04 10080   0.766E-03 0.502E-03
CGA:   9    -0.354017898936E+03   -0.24624E-04   -0.32343E-04 10080   0.992E-03 0.221E-03
CGA:  10    -0.354018008884E+03   -0.10995E-03   -0.11421E-03 10080   0.119E-02-0.223E-03
CGA:  11    -0.354018044557E+03   -0.35673E-04   -0.26574E-04 10080   0.519E-03-0.219E-03
CGA:  12    -0.354018055644E+03   -0.11087E-04   -0.11922E-04 10080   0.361E-03 0.183E-04
CGA:  13    -0.354018063099E+03   -0.74556E-05   -0.11647E-04 10080   0.363E-03 0.116E-03
CGA:  14    -0.354018088587E+03   -0.25487E-04   -0.26436E-04 10080   0.455E-03 0.944E-04
CGA:  15    -0.354018123798E+03   -0.35211E-04   -0.32895E-04 10080   0.223E-03-0.320E-03
CGA:  16    -0.354018124849E+03   -0.10512E-05   -0.52724E-05 10080   0.713E-04 0.103E-03
  10 F= -.35401812E+03 E0= -.35401119E+03  d E =-.245810E-02  mag=    10.0000
       N       E                     dE             d eps       ncg     rms          ort
SDA:   1    -0.354005318062E+03    0.12806E-01    0.00000E+00 10080   0.529E-01 0.000E+00
CGA:   2    -0.354008003648E+03   -0.26856E-02   -0.27161E-02 10080   0.412E-01 0.341E-02
CGA:   3    -0.354014862326E+03   -0.68587E-02   -0.72141E-02 10080   0.549E-01-0.342E-02
CGA:   4    -0.354016474508E+03   -0.16122E-02   -0.16532E-02 10080   0.737E-02 0.121E-02
CGA:   5    -0.354017255177E+03   -0.78067E-03   -0.75455E-03 10080   0.108E-01 0.704E-03
CGA:   6    -0.354017833336E+03   -0.57816E-03   -0.56252E-03 10080   0.200E-02-0.905E-03
CGA:   7    -0.354017897537E+03   -0.64201E-04   -0.74218E-04 10080   0.712E-03 0.417E-03
CGA:   8    -0.354017997837E+03   -0.10030E-03   -0.94025E-04 10080   0.860E-03 0.135E-03
CGA:   9    -0.354018063456E+03   -0.65619E-04   -0.64941E-04 10080   0.516E-03-0.313E-03
CGA:  10    -0.354018064448E+03   -0.99188E-06   -0.69636E-05 10080   0.251E-03 0.134E-03
  11 F= -.35401806E+03 E0= -.35401113E+03  d E =0.604016E-04  mag=    10.0000
       N       E                     dE             d eps       ncg     rms          ort
SDA:   1    -0.353929338992E+03    0.88724E-01    0.00000E+00 10080   0.238E+00 0.000E+00
CGA:   2    -0.353963420268E+03   -0.34081E-01   -0.33191E-01 10080   0.528E+00 0.107E-01
CGA:   3    -0.353999400015E+03   -0.35980E-01   -0.35981E-01 10080   0.149E+00-0.765E-02
CGA:   4    -0.354006459853E+03   -0.70598E-02   -0.71064E-02 10080   0.728E-01 0.363E-02
CGA:   5    -0.354014381875E+03   -0.79220E-02   -0.79578E-02 10080   0.291E-01-0.907E-03
CGA:   6    -0.354015731012E+03   -0.13491E-02   -0.13604E-02 10080   0.615E-02 0.365E-03
CGA:   7    -0.354016666432E+03   -0.93542E-03   -0.10724E-02 10080   0.132E-01-0.129E-02
CGA:   8    -0.354016917011E+03   -0.25058E-03   -0.29042E-03 10080   0.208E-02 0.957E-03
CGA:   9    -0.354016958301E+03   -0.41290E-04   -0.58397E-04 10080   0.123E-02 0.403E-03
CGA:  10    -0.354017092447E+03   -0.13415E-03   -0.13134E-03 10080   0.257E-02 0.118E-03
CGA:  11    -0.354017214704E+03   -0.12226E-03   -0.10980E-03 10080   0.654E-03-0.442E-03
CGA:  12    -0.354017226342E+03   -0.11638E-04   -0.15057E-04 10080   0.316E-03 0.879E-04
CGA:  13    -0.354017231417E+03   -0.50742E-05   -0.10748E-04 10080   0.294E-03 0.165E-03
CGA:  14    -0.354017246965E+03   -0.15549E-04   -0.46456E-04 10080   0.175E-02-0.327E-03
CGA:  15    -0.354017282560E+03   -0.35595E-04   -0.46400E-04 10080   0.747E-04 0.263E-03
CGA:  16    -0.354017283581E+03   -0.10209E-05   -0.24143E-05 10080   0.450E-04 0.373E-04
  12 F= -.35401728E+03 E0= -.35401034E+03  d E =0.780867E-03  mag=    10.0000
       N       E                     dE             d eps       ncg     rms          ort
SDA:   1    -0.353603388686E+03    0.41389E+00    0.00000E+00 10080   0.115E+01 0.000E+00
CGA:   2    -0.353740157696E+03   -0.13677E+00   -0.14052E+00 10080   0.262E+01-0.600E-01
CGA:   3    -0.353952669277E+03   -0.21251E+00   -0.21252E+00 10080   0.394E+00 0.287E-03
CGA:   4    -0.353975146924E+03   -0.22478E-01   -0.22543E-01 10080   0.332E+00-0.450E-02
CGA:   5    -0.354004145043E+03   -0.28998E-01   -0.28849E-01 10080   0.958E-01 0.676E-02
CGA:   6    -0.354008658560E+03   -0.45135E-02   -0.45003E-02 10080   0.282E-01-0.109E-02
CGA:   7    -0.354011870888E+03   -0.32123E-02   -0.31705E-02 10080   0.313E-01 0.825E-03
CGA:   8    -0.354013644876E+03   -0.17740E-02   -0.17652E-02 10080   0.535E-02-0.748E-03
CGA:   9    -0.354013992284E+03   -0.34741E-03   -0.34892E-03 10080   0.489E-02 0.107E-02
CGA:  10    -0.354014631316E+03   -0.63903E-03   -0.73040E-03 10080   0.596E-02-0.164E-02
CGA:  11    -0.354014745068E+03   -0.11375E-03   -0.13156E-03 10080   0.162E-02 0.464E-03
CGA:  12    -0.354014783507E+03   -0.38439E-04   -0.52129E-04 10080   0.959E-03 0.340E-03
CGA:  13    -0.354014884360E+03   -0.10085E-03   -0.10055E-03 10080   0.216E-02 0.105E-04
CGA:  14    -0.354015017796E+03   -0.13344E-03   -0.13040E-03 10080   0.169E-02-0.364E-03
CGA:  15    -0.354015044679E+03   -0.26883E-04   -0.30719E-04 10080   0.569E-03 0.774E-04
CGA:  16    -0.354015051723E+03   -0.70448E-05   -0.12882E-04 10080   0.378E-03 0.132E-03
CGA:  17    -0.354015067824E+03   -0.16100E-04   -0.19279E-04 10080   0.637E-03 0.145E-03
CGA:  18    -0.354015128632E+03   -0.60808E-04   -0.60953E-04 10080   0.790E-03-0.213E-04
CGA:  19    -0.354015155604E+03   -0.26972E-04   -0.23450E-04 10080   0.276E-03-0.114E-03
CGA:  20    -0.354015159952E+03   -0.43485E-05   -0.48843E-05 10080   0.120E-03 0.123E-04
  13 F= -.35401516E+03 E0= -.35400815E+03  d E =0.212363E-02  mag=    10.0000
       N       E                     dE             d eps       ncg     rms          ort
SDA:   1    -0.352989637461E+03    0.10255E+01    0.00000E+00 10080   0.244E+01 0.000E+00
CGA:   2    -0.353648366742E+03   -0.65873E+00   -0.65955E+00 10080   0.540E+01 0.391E-02
CGA:   3    -0.353862404133E+03   -0.21404E+00   -0.20987E+00 10080   0.677E+00-0.151E-01
CGA:   4    -0.353941987122E+03   -0.79583E-01   -0.79356E-01 10080   0.966E+00 0.285E-02
CGA:   5    -0.353989095090E+03   -0.47108E-01   -0.47032E-01 10080   0.789E-01 0.108E-01
CGA:   6    -0.353997779024E+03   -0.86839E-02   -0.87719E-02 10080   0.111E+00-0.236E-02
CGA:   7    -0.354004409181E+03   -0.66302E-02   -0.66514E-02 10080   0.282E-01 0.256E-02
CGA:   8    -0.354005971520E+03   -0.15623E-02   -0.15449E-02 10080   0.151E-01-0.129E-02
CGA:   9    -0.354008060584E+03   -0.20891E-02   -0.19922E-02 10080   0.602E-02 0.138E-02
CGA:  10    -0.354008465324E+03   -0.40474E-03   -0.38684E-03 10080   0.574E-02-0.136E-02
CGA:  11    -0.354008963245E+03   -0.49792E-03   -0.47236E-03 10080   0.324E-02 0.734E-03
CGA:  12    -0.354009128198E+03   -0.16495E-03   -0.17275E-03 10080   0.122E-02 0.285E-03
CGA:  13    -0.354009307757E+03   -0.17956E-03   -0.46077E-03 10080   0.961E-02-0.102E-02
CGA:  14    -0.354009497509E+03   -0.18975E-03   -0.24354E-03 10080   0.730E-03 0.978E-03
CGA:  15    -0.354009539622E+03   -0.42113E-04   -0.45945E-04 10080   0.649E-03 0.149E-03
CGA:  16    -0.354009627017E+03   -0.87394E-04   -0.14623E-03 10080   0.235E-02-0.559E-03
CGA:  17    -0.354009658071E+03   -0.31054E-04   -0.54744E-04 10080   0.215E-03 0.370E-03
CGA:  18    -0.354009665018E+03   -0.69468E-05   -0.10456E-04 10080   0.179E-03 0.837E-04
CGA:  19    -0.354009680968E+03   -0.15949E-04   -0.52408E-04 10080   0.145E-02-0.282E-03
CGA:  20    -0.354009706188E+03   -0.25221E-04   -0.38738E-04 10080   0.132E-03 0.220E-03
CGA:  21    -0.354009714543E+03   -0.83548E-05   -0.80526E-05 10080   0.996E-04-0.103E-04
CGA:  22    -0.354009655617E+03    0.58926E-04   -0.33830E-04 10080   0.223E-02-0.245E-03
CGA:  23    -0.354009689491E+03   -0.33874E-04   -0.58382E-04 10080   0.278E-03 0.198E-03
CGA:  24    -0.354009727607E+03   -0.38116E-04   -0.37954E-04 10080   0.487E-03-0.894E-05
CGA:  25    -0.354009762378E+03   -0.34771E-04   -0.28310E-04 10080   0.166E-03-0.777E-04
CGA:  26    -0.354009760727E+03    0.16513E-05   -0.28064E-05 10080   0.376E-04 0.370E-04
  14 F= -.35400976E+03 E0= -.35400269E+03  d E =0.539923E-02  mag=    10.0000
       N       E                     dE             d eps       ncg     rms          ort
SDA:   1    -0.353875310765E+03    0.13445E+00    0.00000E+00 10080   0.332E+00 0.000E+00
CGA:   2    -0.353956514275E+03   -0.81204E-01   -0.81076E-01 10080   0.748E+00 0.509E-03
CGA:   3    -0.353991825192E+03   -0.35311E-01   -0.35934E-01 10080   0.155E+00-0.145E-01
CGA:   4    -0.353999336680E+03   -0.75115E-02   -0.75062E-02 10080   0.871E-01 0.518E-02
CGA:   5    -0.354009517283E+03   -0.10181E-01   -0.10156E-01 10080   0.257E-01-0.208E-02
CGA:   6    -0.354010605174E+03   -0.10879E-02   -0.11417E-02 10080   0.814E-02 0.914E-03
CGA:   7    -0.354012111436E+03   -0.15063E-02   -0.15252E-02 10080   0.324E-02-0.327E-03
CGA:   8    -0.354012316331E+03   -0.20490E-03   -0.20369E-03 10080   0.168E-02-0.278E-04
CGA:   9    -0.354012575183E+03   -0.25885E-03   -0.25441E-03 10080   0.461E-03 0.140E-03
CGA:  10    -0.354012632201E+03   -0.57018E-04   -0.53724E-04 10080   0.121E-02-0.220E-03
CGA:  11    -0.354012665824E+03   -0.33623E-04   -0.35367E-04 10080   0.130E-02 0.262E-04
CGA:  12    -0.354012685861E+03   -0.20037E-04   -0.33170E-04 10080   0.205E-03 0.141E-03
CGA:  13    -0.354012690836E+03   -0.49753E-05   -0.76863E-05 10080   0.163E-03 0.333E-04
CGA:  14    -0.354012718927E+03   -0.28090E-04   -0.32335E-04 10080   0.769E-03-0.707E-04
CGA:  15    -0.354012731178E+03   -0.12251E-04   -0.77318E-05 10080   0.495E-03-0.476E-04
CGA:  16    -0.354012741244E+03   -0.10066E-04   -0.67975E-05 10080   0.128E-03-0.375E-04
CGA:  17    -0.354012745388E+03   -0.41447E-05   -0.22847E-05 10080   0.771E-04-0.229E-04
  15 F= -.35401275E+03 E0= -.35400567E+03  d E =-.298466E-02  mag=    10.0000
       N       E                     dE             d eps       ncg     rms          ort
SDA:   1    -0.353774842937E+03    0.23790E+00    0.00000E+00 10080   0.117E+01 0.000E+00
CGA:   2    -0.353831134445E+03   -0.56292E-01   -0.59842E-01 10080   0.781E+00-0.384E-01
CGA:   3    -0.353963794883E+03   -0.13266E+00   -0.13265E+00 10080   0.823E+00-0.551E-03
CGA:   4    -0.353991386049E+03   -0.27591E-01   -0.26616E-01 10080   0.970E-01 0.409E-01
CGA:   5    -0.354006912049E+03   -0.15526E-01   -0.15522E-01 10080   0.105E+00-0.111E-03
CGA:   6    -0.354012004690E+03   -0.50926E-02   -0.50337E-02 10080   0.223E-01-0.187E-02
CGA:   7    -0.354012857056E+03   -0.85237E-03   -0.91820E-03 10080   0.113E-01 0.120E-02
CGA:   8    -0.354014649246E+03   -0.17922E-02   -0.18030E-02 10080   0.428E-02-0.194E-03
CGA:   9    -0.354014870680E+03   -0.22143E-03   -0.19128E-03 10080   0.308E-02-0.625E-03
CGA:  10    -0.354015141374E+03   -0.27069E-03   -0.26819E-03 10080   0.180E-02 0.316E-03
CGA:  11    -0.354015254595E+03   -0.11322E-03   -0.11090E-03 10080   0.761E-03-0.724E-04
CGA:  12    -0.354015328189E+03   -0.73594E-04   -0.84049E-04 10080   0.248E-02-0.466E-03
CGA:  13    -0.354015363844E+03   -0.35655E-04   -0.57918E-04 10080   0.197E-03 0.319E-03
CGA:  14    -0.354015376295E+03   -0.12451E-04   -0.13548E-04 10080   0.259E-03 0.370E-04
CGA:  15    -0.354014883339E+03    0.49296E-03   -0.26642E-03 10080   0.156E-01-0.138E-02
CGA:  16    -0.354015237467E+03   -0.35413E-03   -0.42191E-03 10080   0.145E-02 0.917E-03
CGA:  17    -0.354015357435E+03   -0.11997E-03   -0.11733E-03 10080   0.142E-02-0.407E-04
CGA:  18    -0.354015508887E+03   -0.15145E-03   -0.14825E-03 10080   0.416E-03-0.755E-04
CGA:  19    -0.354015506840E+03    0.20472E-05   -0.81906E-05 10080   0.567E-04 0.795E-04
  16 F= -.35401551E+03 E0= -.35400847E+03  d E =-.276145E-02  mag=    10.0000
       N       E                     dE             d eps       ncg     rms          ort
SDA:   1    -0.353907829600E+03    0.10768E+00    0.00000E+00 10080   0.256E+00 0.000E+00
CGA:   2    -0.353982882094E+03   -0.75052E-01   -0.74887E-01 10080   0.517E+00 0.902E-03
CGA:   3    -0.354002291627E+03   -0.19410E-01   -0.19600E-01 10080   0.806E-01-0.122E-01
CGA:   4    -0.354008205686E+03   -0.59141E-02   -0.60576E-02 10080   0.871E-01 0.261E-02
CGA:   5    -0.354014835871E+03   -0.66302E-02   -0.65551E-02 10080   0.961E-02-0.164E-02
CGA:   6    -0.354015552207E+03   -0.71634E-03   -0.75504E-03 10080   0.828E-02 0.752E-03
CGA:   7    -0.354016480500E+03   -0.92829E-03   -0.90402E-03 10080   0.502E-02-0.863E-03
CGA:   8    -0.354016602224E+03   -0.12172E-03   -0.15951E-03 10080   0.115E-02 0.422E-03
CGA:   9    -0.354016721294E+03   -0.11907E-03   -0.12197E-03 10080   0.165E-02 0.111E-03
CGA:  10    -0.354016897099E+03   -0.17580E-03   -0.15731E-03 10080   0.124E-02-0.520E-03
CGA:  11    -0.354016908244E+03   -0.11146E-04   -0.21158E-04 10080   0.374E-03 0.105E-03
CGA:  12    -0.354016908383E+03   -0.13882E-06   -0.10387E-04 10080   0.276E-03 0.113E-03
CGA:  13    -0.354016927227E+03   -0.18844E-04   -0.22961E-04 10080   0.495E-03 0.858E-04
CGA:  14    -0.354016980349E+03   -0.53122E-04   -0.42383E-04 10080   0.469E-03-0.246E-03
CGA:  15    -0.354016987008E+03   -0.66583E-05   -0.46402E-05 10080   0.244E-03-0.241E-04
  17 F= -.35401699E+03 E0= -.35400998E+03  d E =-.148017E-02  mag=    10.0000
       N       E                     dE             d eps       ncg     rms          ort
SDA:   1    -0.353965101444E+03    0.51879E-01    0.00000E+00 10080   0.777E+00 0.000E+00
CGA:   2    -0.353987276392E+03   -0.22175E-01   -0.23255E-01 10080   0.113E+00-0.456E-01
CGA:   3    -0.353997441265E+03   -0.10165E-01   -0.10163E-01 10080   0.156E+00 0.324E-02
CGA:   4    -0.354012014207E+03   -0.14573E-01   -0.14566E-01 10080   0.443E-01-0.281E-02
CGA:   5    -0.354014254885E+03   -0.22407E-02   -0.23329E-02 10080   0.191E-01 0.213E-02
CGA:   6    -0.354016642221E+03   -0.23873E-02   -0.24333E-02 10080   0.196E-01-0.162E-02
CGA:   7    -0.354017202706E+03   -0.56048E-03   -0.61404E-03 10080   0.212E-02 0.967E-03
CGA:   8    -0.354017357755E+03   -0.15505E-03   -0.16010E-03 10080   0.204E-02 0.256E-03
CGA:   9    -0.354017582848E+03   -0.22509E-03   -0.23349E-03 10080   0.338E-02-0.701E-03
CGA:  10    -0.354017629713E+03   -0.46865E-04   -0.57865E-04 10080   0.111E-02 0.169E-03
CGA:  11    -0.354017634632E+03   -0.49189E-05   -0.19842E-04 10080   0.369E-03 0.213E-03
CGA:  12    -0.354017638127E+03   -0.34952E-05   -0.12417E-04 10080   0.465E-03 0.160E-03
CGA:  13    -0.354017677953E+03   -0.39826E-04   -0.42261E-04 10080   0.555E-03 0.137E-03
CGA:  14    -0.354017714948E+03   -0.36995E-04   -0.26171E-04 10080   0.130E-03-0.249E-03
CGA:  15    -0.354017717588E+03   -0.26395E-05   -0.34090E-05 10080   0.857E-04 0.252E-04
  18 F= -.35401772E+03 E0= -.35401070E+03  d E =-.730580E-03  mag=    10.0000
       N       E                     dE             d eps       ncg     rms          ort
SDA:   1    -0.353956391856E+03    0.61323E-01    0.00000E+00 10080   0.197E+00 0.000E+00
CGA:   2    -0.353972110289E+03   -0.15718E-01   -0.15701E-01 10080   0.342E+00 0.457E-02
CGA:   3    -0.354006164803E+03   -0.34055E-01   -0.34103E-01 10080   0.978E-01-0.273E-02
CGA:   4    -0.354011236520E+03   -0.50717E-02   -0.51241E-02 10080   0.375E-01 0.217E-02
CGA:   5    -0.354016781955E+03   -0.55454E-02   -0.57638E-02 10080   0.265E-01-0.294E-02
CGA:   6    -0.354017584852E+03   -0.80290E-03   -0.86026E-03 10080   0.448E-02 0.154E-02
CGA:   7    -0.354018043458E+03   -0.45861E-03   -0.45920E-03 10080   0.711E-02-0.360E-04
CGA:   8    -0.354018511618E+03   -0.46816E-03   -0.46292E-03 10080   0.109E-02-0.455E-03
CGA:   9    -0.354018564588E+03   -0.52969E-04   -0.56867E-04 10080   0.106E-02 0.181E-03
CGA:  10    -0.354018713748E+03   -0.14916E-03   -0.15164E-03 10080   0.463E-03-0.545E-04
CGA:  11    -0.354018722702E+03   -0.89535E-05   -0.15311E-04 10080   0.169E-03 0.146E-03
CGA:  12    -0.354018737038E+03   -0.14337E-04   -0.14995E-04 10080   0.231E-03 0.773E-04
CGA:  13    -0.354018776307E+03   -0.39269E-04   -0.45084E-04 10080   0.275E-03-0.997E-04
CGA:  14    -0.354018774534E+03    0.17734E-05   -0.20236E-05 10080   0.160E-03 0.576E-04
  19 F= -.35401877E+03 E0= -.35401177E+03  d E =-.105695E-02  mag=    10.0000
       N       E                     dE             d eps       ncg     rms          ort
SDA:   1    -0.353993898266E+03    0.24878E-01    0.00000E+00 10080   0.683E-01 0.000E+00
CGA:   2    -0.354004043209E+03   -0.10145E-01   -0.10628E-01 10080   0.213E+00-0.593E-02
CGA:   3    -0.354014874371E+03   -0.10831E-01   -0.10904E-01 10080   0.398E-01 0.401E-02
CGA:   4    -0.354016583330E+03   -0.17090E-02   -0.17402E-02 10080   0.191E-01 0.128E-02
CGA:   5    -0.354018741891E+03   -0.21586E-02   -0.22089E-02 10080   0.177E-01-0.133E-02
CGA:   6    -0.354019169269E+03   -0.42738E-03   -0.46042E-03 10080   0.218E-02 0.685E-03
CGA:   7    -0.354019291527E+03   -0.12226E-03   -0.12922E-03 10080   0.302E-02 0.429E-03
CGA:   8    -0.354019595376E+03   -0.30385E-03   -0.30884E-03 10080   0.465E-03-0.381E-03
CGA:   9    -0.354019635687E+03   -0.40311E-04   -0.39274E-04 10080   0.519E-03 0.432E-04
CGA:  10    -0.354019682037E+03   -0.46350E-04   -0.46368E-04 10080   0.205E-03-0.355E-05
CGA:  11    -0.354019504290E+03    0.17775E-03   -0.61475E-04 10080   0.992E-02-0.105E-02
CGA:  12    -0.354019687811E+03   -0.18352E-03   -0.22944E-03 10080   0.320E-03 0.805E-03
CGA:  13    -0.354019699778E+03   -0.11967E-04   -0.14545E-04 10080   0.163E-03 0.618E-04
CGA:  14    -0.354019694547E+03    0.52308E-05   -0.44403E-04 10080   0.188E-02-0.338E-03
CGA:  15    -0.354019719643E+03   -0.25095E-04   -0.44218E-04 10080   0.131E-03 0.292E-03
CGA:  16    -0.354019723190E+03   -0.35473E-05   -0.50129E-05 10080   0.446E-04 0.277E-04
CGA:  17    -0.354019733911E+03   -0.10721E-04    0.10872E-04 10080   0.944E-04-0.126E-04
CGA:  18    -0.354019736623E+03   -0.27112E-05   -0.27456E-05 10080   0.741E-04 0.798E-06
  20 F= -.35401974E+03 E0= -.35401274E+03  d E =-.962089E-03  mag=    10.0000
       N       E                     dE             d eps       ncg     rms          ort
SDA:   1    -0.354003652932E+03    0.16081E-01    0.00000E+00 10080   0.772E-01 0.000E+00
CGA:   2    -0.354007941231E+03   -0.42883E-02   -0.42460E-02 10080   0.595E-01-0.340E-02
CGA:   3    -0.354013879040E+03   -0.59378E-02   -0.58748E-02 10080   0.728E-01 0.221E-02
CGA:   4    -0.354018326683E+03   -0.44476E-02   -0.44297E-02 10080   0.895E-02-0.140E-02
CGA:   5    -0.354019533315E+03   -0.12066E-02   -0.12114E-02 10080   0.816E-02-0.867E-04
CGA:   6    -0.354019947467E+03   -0.41415E-03   -0.42003E-03 10080   0.130E-02 0.226E-03
CGA:   7    -0.354020021032E+03   -0.73565E-04   -0.78263E-04 10080   0.790E-03 0.241E-03
CGA:   8    -0.354020110989E+03   -0.89957E-04   -0.18006E-03 10080   0.383E-02-0.784E-03
CGA:   9    -0.354020164151E+03   -0.53162E-04   -0.86813E-04 10080   0.249E-03 0.564E-03
CGA:  10    -0.354020168144E+03   -0.39927E-05   -0.91297E-05 10080   0.151E-03 0.107E-03
CGA:  11    -0.354020190583E+03   -0.22439E-04   -0.32310E-04 10080   0.559E-03-0.137E-03
CGA:  12    -0.354020210196E+03   -0.19613E-04   -0.18712E-04 10080   0.463E-04-0.226E-04
CGA:  13    -0.354020221791E+03   -0.11595E-04    0.26465E-05 10080   0.548E-04 0.706E-05
CGA:  14    -0.354020222448E+03   -0.65729E-06   -0.22767E-05 10080   0.183E-04 0.380E-04
  21 F= -.35402022E+03 E0= -.35401324E+03  d E =-.485826E-03  mag=    10.0000
       N       E                     dE             d eps       ncg     rms          ort
SDA:   1    -0.354017117131E+03    0.31047E-02    0.00000E+00 10080   0.799E-02 0.000E+00
CGA:   2    -0.354018727604E+03   -0.16105E-02   -0.16826E-02 10080   0.173E-01-0.535E-03
CGA:   3    -0.354019549877E+03   -0.82227E-03   -0.82399E-03 10080   0.320E-02 0.836E-04
CGA:   4    -0.354019772691E+03   -0.22281E-03   -0.22722E-03 10080   0.276E-02 0.521E-03
CGA:   5    -0.354020052834E+03   -0.28014E-03   -0.28723E-03 10080   0.150E-02-0.664E-03
CGA:   6    -0.354020069517E+03   -0.16682E-04   -0.31041E-04 10080   0.403E-03 0.273E-03
CGA:   7    -0.354020073684E+03   -0.41673E-05   -0.12899E-04 10080   0.268E-03 0.175E-03
CGA:   8    -0.354020095719E+03   -0.22035E-04   -0.23331E-04 10080   0.303E-03 0.968E-04
CGA:   9    -0.354020124094E+03   -0.28375E-04   -0.26320E-04 10080   0.186E-03-0.214E-03
CGA:  10    -0.354020122796E+03    0.12973E-05   -0.34747E-05 10080   0.582E-04 0.876E-04
  22 F= -.35402012E+03 E0= -.35401314E+03  d E =0.996518E-04  mag=    10.0000
       N       E                     dE             d eps       ncg     rms          ort
SDA:   1    -0.353890780605E+03    0.12934E+00    0.00000E+00 10080   0.342E+00 0.000E+00
CGA:   2    -0.353959125810E+03   -0.68345E-01   -0.67509E-01 10080   0.739E+00 0.564E-02
CGA:   3    -0.353989343466E+03   -0.30218E-01   -0.30514E-01 10080   0.163E+00-0.167E-01
CGA:   4    -0.354006068789E+03   -0.16725E-01   -0.16629E-01 10080   0.139E+00 0.285E-02
CGA:   5    -0.354014774895E+03   -0.87061E-02   -0.86992E-02 10080   0.255E-01-0.133E-02
CGA:   6    -0.354015935232E+03   -0.11603E-02   -0.12052E-02 10080   0.142E-01 0.183E-02
CGA:   7    -0.354017759218E+03   -0.18240E-02   -0.18989E-02 10080   0.824E-02-0.145E-02
CGA:   8    -0.354017997679E+03   -0.23846E-03   -0.27523E-03 10080   0.178E-02 0.993E-03
CGA:   9    -0.354018215104E+03   -0.21742E-03   -0.21296E-03 10080   0.264E-02 0.127E-03
CGA:  10    -0.354018449377E+03   -0.23427E-03   -0.23946E-03 10080   0.114E-02-0.518E-03
CGA:  11    -0.354018462822E+03   -0.13445E-04   -0.24558E-04 10080   0.408E-03 0.227E-03
CGA:  12    -0.354018474656E+03   -0.11835E-04   -0.18287E-04 10080   0.417E-03 0.181E-03
CGA:  13    -0.354018535908E+03   -0.61252E-04   -0.62275E-04 10080   0.663E-03-0.324E-04
CGA:  14    -0.354018561390E+03   -0.25482E-04   -0.21612E-04 10080   0.197E-03-0.106E-03
CGA:  15    -0.354018565446E+03   -0.40562E-05   -0.47352E-05 10080   0.143E-03 0.154E-04
  23 F= -.35401857E+03 E0= -.35401156E+03  d E =0.155735E-02  mag=    10.0000
       N       E                     dE             d eps       ncg     rms          ort
SDA:   1    -0.353929973915E+03    0.88587E-01    0.00000E+00 10080   0.457E+00 0.000E+00
CGA:   2    -0.353949886572E+03   -0.19913E-01   -0.20060E-01 10080   0.278E+00 0.342E-02
CGA:   3    -0.353995118768E+03   -0.45232E-01   -0.45718E-01 10080   0.378E+00-0.497E-02
CGA:   4    -0.354009796839E+03   -0.14678E-01   -0.14695E-01 10080   0.469E-01 0.950E-02
CGA:   5    -0.354016528005E+03   -0.67312E-02   -0.67484E-02 10080   0.431E-01-0.305E-03
CGA:   6    -0.354018809169E+03   -0.22812E-02   -0.22561E-02 10080   0.759E-02-0.155E-02
CGA:   7    -0.354019246921E+03   -0.43775E-03   -0.44915E-03 10080   0.620E-02 0.987E-03
CGA:   8    -0.354019916826E+03   -0.66991E-03   -0.69080E-03 10080   0.338E-02-0.800E-03
CGA:   9    -0.354020013714E+03   -0.96888E-04   -0.10569E-03 10080   0.847E-03 0.227E-03
CGA:  10    -0.354020109503E+03   -0.95789E-04   -0.94087E-04 10080   0.128E-02 0.505E-04
CGA:  11    -0.354020195087E+03   -0.85584E-04   -0.84146E-04 10080   0.614E-03-0.130E-03
CGA:  12    -0.354020203300E+03   -0.82128E-05   -0.15282E-04 10080   0.177E-03 0.157E-03
  24 F= -.35402020E+03 E0= -.35401321E+03  d E =-.163785E-02  mag=    10.0000
       N       E                     dE             d eps       ncg     rms          ort
SDA:   1    -0.353941503207E+03    0.78692E-01    0.00000E+00 10080   0.237E+00 0.000E+00
CGA:   2    -0.353968509600E+03   -0.27006E-01   -0.26640E-01 10080   0.487E+00 0.817E-02
CGA:   3    -0.354000538379E+03   -0.32029E-01   -0.32010E-01 10080   0.117E+00-0.568E-02
CGA:   4    -0.354009259780E+03   -0.87214E-02   -0.87100E-02 10080   0.104E+00 0.179E-02
CGA:   5    -0.354017689731E+03   -0.84300E-02   -0.84436E-02 10080   0.189E-01-0.155E-02
CGA:   6    -0.354018552950E+03   -0.86322E-03   -0.89505E-03 10080   0.100E-01 0.144E-02
CGA:   7    -0.354019765539E+03   -0.12126E-02   -0.13187E-02 10080   0.110E-01-0.203E-02
CGA:   8    -0.354020035938E+03   -0.27040E-03   -0.30255E-03 10080   0.177E-02 0.826E-03
CGA:   9    -0.354020112514E+03   -0.76575E-04   -0.87594E-04 10080   0.172E-02 0.441E-03
CGA:  10    -0.354020343424E+03   -0.23091E-03   -0.24618E-03 10080   0.165E-02-0.337E-03
CGA:  11    -0.354020387806E+03   -0.44382E-04   -0.43804E-04 10080   0.471E-03-0.210E-04
CGA:  12    -0.354020404157E+03   -0.16351E-04   -0.18776E-04 10080   0.441E-03 0.813E-04
CGA:  13    -0.354020450957E+03   -0.46799E-04   -0.45718E-04 10080   0.548E-03 0.532E-04
CGA:  14    -0.354020482118E+03   -0.31162E-04   -0.29590E-04 10080   0.158E-03-0.766E-04
CGA:  15    -0.354020485469E+03   -0.33504E-05   -0.44876E-05 10080   0.904E-04 0.319E-04
  25 F= -.35402049E+03 E0= -.35401348E+03  d E =-.282169E-03  mag=    10.0000
       N       E                     dE             d eps       ncg     rms          ort
SDA:   1    -0.353994147854E+03    0.26334E-01    0.00000E+00 10080   0.382E+00 0.000E+00
CGA:   2    -0.354004768248E+03   -0.10620E-01   -0.10689E-01 10080   0.474E-01 0.628E-02
CGA:   3    -0.354011185221E+03   -0.64170E-02   -0.66592E-02 10080   0.108E+00-0.339E-02
CGA:   4    -0.354017829954E+03   -0.66447E-02   -0.66513E-02 10080   0.188E-01 0.259E-02
CGA:   5    -0.354018936990E+03   -0.11070E-02   -0.11177E-02 10080   0.129E-01 0.991E-03
CGA:   6    -0.354020244960E+03   -0.13080E-02   -0.13569E-02 10080   0.111E-01-0.156E-02
CGA:   7    -0.354020532312E+03   -0.28735E-03   -0.31542E-03 10080   0.179E-02 0.716E-03
CGA:   8    -0.354020596810E+03   -0.64498E-04   -0.75150E-04 10080   0.131E-02 0.365E-03
CGA:   9    -0.354020754197E+03   -0.15739E-03   -0.16396E-03 10080   0.178E-02-0.179E-03
CGA:  10    -0.354020805588E+03   -0.51391E-04   -0.49530E-04 10080   0.431E-03-0.575E-04
CGA:  11    -0.354020816414E+03   -0.10826E-04   -0.12538E-04 10080   0.284E-03 0.447E-04
CGA:  12    -0.354020842331E+03   -0.25917E-04   -0.25295E-04 10080   0.530E-03 0.387E-04
CGA:  13    -0.354020871751E+03   -0.29419E-04   -0.28281E-04 10080   0.136E-03-0.621E-04
CGA:  14    -0.354020873778E+03   -0.20273E-05   -0.32382E-05 10080   0.618E-04 0.316E-04
  26 F= -.35402087E+03 E0= -.35401388E+03  d E =-.388309E-03  mag=    10.0000
       N       E                     dE             d eps       ncg     rms          ort
SDA:   1    -0.353995639036E+03    0.25233E-01    0.00000E+00 10080   0.822E-01 0.000E+00
CGA:   2    -0.354002892394E+03   -0.72534E-02   -0.71217E-02 10080   0.117E+00 0.487E-02
CGA:   3    -0.354013661619E+03   -0.10769E-01   -0.10886E-01 10080   0.693E-01-0.492E-02
CGA:   4    -0.354016588993E+03   -0.29274E-02   -0.29696E-02 10080   0.204E-01 0.238E-02
CGA:   5    -0.354019207947E+03   -0.26190E-02   -0.25871E-02 10080   0.122E-01 0.508E-03
CGA:   6    -0.354019846526E+03   -0.63858E-03   -0.63153E-03 10080   0.227E-02-0.548E-03
CGA:   7    -0.354020124226E+03   -0.27770E-03   -0.25146E-03 10080   0.934E-03 0.517E-03
CGA:   8    -0.354020210878E+03   -0.86652E-04   -0.14761E-03 10080   0.432E-02-0.100E-02
CGA:   9    -0.354020275692E+03   -0.64814E-04   -0.97890E-04 10080   0.269E-03 0.678E-03
CGA:  10    -0.354020278951E+03   -0.32591E-05   -0.83196E-05 10080   0.139E-03 0.121E-03
CGA:  11    -0.354020295139E+03   -0.16188E-04   -0.15915E-04 10080   0.312E-03 0.208E-04
CGA:  12    -0.354020320798E+03   -0.25660E-04   -0.26953E-04 10080   0.286E-03-0.157E-03
CGA:  13    -0.354020326634E+03   -0.58356E-05   -0.86676E-05 10080   0.761E-04 0.758E-04
CGA:  14    -0.354020336450E+03   -0.98163E-05   -0.15051E-04 10080   0.296E-03-0.582E-04
  27 F= -.35402034E+03 E0= -.35401334E+03  d E =0.537328E-03  mag=    10.0000
       N       E                     dE             d eps       ncg     rms          ort
SDA:   1    -0.354004458564E+03    0.15868E-01    0.00000E+00 10080   0.565E-01 0.000E+00
CGA:   2    -0.354009443966E+03   -0.49854E-02   -0.50103E-02 10080   0.740E-01-0.146E-02
CGA:   3    -0.354015296725E+03   -0.58528E-02   -0.58176E-02 10080   0.474E-01 0.301E-02
CGA:   4    -0.354017665457E+03   -0.23687E-02   -0.23352E-02 10080   0.124E-01-0.206E-02
CGA:   5    -0.354019406730E+03   -0.17413E-02   -0.16381E-02 10080   0.383E-02 0.148E-02
CGA:   6    -0.354019687570E+03   -0.28084E-03   -0.27110E-03 10080   0.420E-02-0.115E-02
CGA:   7    -0.354019859492E+03   -0.17192E-03   -0.17757E-03 10080   0.169E-02 0.511E-03
CGA:   8    -0.354019894274E+03   -0.34782E-04   -0.52474E-04 10080   0.399E-03 0.406E-03
CGA:   9    -0.354019922243E+03   -0.27969E-04   -0.28042E-04 10080   0.534E-03 0.479E-05
CGA:  10    -0.354019974864E+03   -0.52621E-04   -0.65944E-04 10080   0.832E-03-0.248E-03
CGA:  11    -0.354019977812E+03   -0.29482E-05   -0.59532E-05 10080   0.407E-03 0.511E-04
  28 F= -.35401998E+03 E0= -.35401297E+03  d E =0.358639E-03  mag=    10.0000
       N       E                     dE             d eps       ncg     rms          ort
SDA:   1    -0.353947569337E+03    0.72406E-01    0.00000E+00 10080   0.884E+00 0.000E+00
CGA:   2    -0.353976630135E+03   -0.29061E-01   -0.29360E-01 10080   0.168E+00-0.127E-01
CGA:   3    -0.353989689439E+03   -0.13059E-01   -0.13016E-01 10080   0.209E+00 0.386E-02
CGA:   4    -0.354012111695E+03   -0.22422E-01   -0.22549E-01 10080   0.555E-01-0.348E-02
CGA:   5    -0.354015410344E+03   -0.32986E-02   -0.33120E-02 10080   0.327E-01 0.230E-02
CGA:   6    -0.354019382589E+03   -0.39722E-02   -0.39639E-02 10080   0.515E-02 0.116E-03
CGA:   7    -0.354019802847E+03   -0.42026E-03   -0.42061E-03 10080   0.394E-02-0.504E-04
CGA:   8    -0.354020149533E+03   -0.34669E-03   -0.33825E-03 10080   0.162E-02 0.476E-03
CGA:   9    -0.354020262749E+03   -0.11322E-03   -0.10616E-03 10080   0.163E-02-0.614E-03
CGA:  10    -0.354020331385E+03   -0.68636E-04   -0.69016E-04 10080   0.740E-03 0.258E-03
CGA:  11    -0.354020353217E+03   -0.21831E-04   -0.27797E-04 10080   0.270E-03 0.158E-03
CGA:  12    -0.354020293072E+03    0.60145E-04   -0.82743E-04 10080   0.503E-02-0.774E-03
CGA:  13    -0.354020416802E+03   -0.12373E-03   -0.15067E-03 10080   0.268E-03 0.596E-03
CGA:  14    -0.354020431859E+03   -0.15056E-04   -0.13501E-04 10080   0.113E-03-0.543E-04
CGA:  15    -0.354020441081E+03   -0.92222E-05   -0.84014E-05 10080   0.702E-04 0.399E-04
  29 F= -.35402044E+03 E0= -.35401344E+03  d E =-.463269E-03  mag=    10.0000
       N       E                     dE             d eps       ncg     rms          ort
SDA:   1    -0.353376924219E+03    0.64351E+00    0.00000E+00 10080   0.170E+01 0.000E+00
CGA:   2    -0.353680364640E+03   -0.30344E+00   -0.30026E+00 10080   0.340E+01 0.355E-01
CGA:   3    -0.353905475863E+03   -0.22511E+00   -0.22301E+00 10080   0.110E+01-0.248E-01
CGA:   4    -0.353953368400E+03   -0.47893E-01   -0.48345E-01 10080   0.426E+00-0.191E-01
CGA:   5    -0.354003404551E+03   -0.50036E-01   -0.49797E-01 10080   0.162E+00 0.535E-02
CGA:   6    -0.354011149742E+03   -0.77452E-02   -0.76584E-02 10080   0.513E-01-0.551E-02
CGA:   7    -0.354016716495E+03   -0.55668E-02   -0.54838E-02 10080   0.483E-01 0.254E-02
CGA:   8    -0.354019230755E+03   -0.25143E-02   -0.24563E-02 10080   0.146E-01-0.241E-02
CGA:   9    -0.354020147740E+03   -0.91699E-03   -0.92425E-03 10080   0.707E-02 0.594E-03
CGA:  10    -0.354021047532E+03   -0.89979E-03   -0.94929E-03 10080   0.870E-02-0.979E-03
CGA:  11    -0.354021309758E+03   -0.26223E-03   -0.29474E-03 10080   0.181E-02 0.795E-03
CGA:  12    -0.354021460386E+03   -0.15063E-03   -0.15033E-03 10080   0.196E-02-0.169E-03
CGA:  13    -0.354021667042E+03   -0.20666E-03   -0.25609E-03 10080   0.554E-02-0.752E-03
CGA:  14    -0.354021729850E+03   -0.62808E-04   -0.79505E-04 10080   0.207E-02 0.290E-03
CGA:  15    -0.354021745449E+03   -0.15598E-04   -0.33971E-04 10080   0.544E-03 0.296E-03
CGA:  16    -0.354021753546E+03   -0.80970E-05   -0.15802E-04 10080   0.617E-03 0.153E-03
CGA:  17    -0.354021813779E+03   -0.60233E-04   -0.60141E-04 10080   0.186E-02 0.259E-04
CGA:  18    -0.354021892237E+03   -0.78458E-04   -0.63686E-04 10080   0.106E-02-0.371E-03
CGA:  19    -0.354021915397E+03   -0.23160E-04   -0.15430E-04 10080   0.388E-03-0.151E-03
CGA:  20    -0.354021920080E+03   -0.46825E-05   -0.55920E-05 10080   0.209E-03 0.158E-04
  30 F= -.35402192E+03 E0= -.35401494E+03  d E =-.147900E-02  mag=    10.0000
       N       E                     dE             d eps       ncg     rms          ort
SDA:   1    -0.353813688024E+03    0.20823E+00    0.00000E+00 10080   0.551E+00 0.000E+00
CGA:   2    -0.353893414900E+03   -0.79727E-01   -0.79966E-01 10080   0.149E+01-0.351E-02
CGA:   3    -0.353985016970E+03   -0.91602E-01   -0.91530E-01 10080   0.263E+00-0.577E-03
CGA:   4    -0.353999164402E+03   -0.14147E-01   -0.14071E-01 10080   0.154E+00-0.692E-02
CGA:   5    -0.354016093136E+03   -0.16929E-01   -0.16728E-01 10080   0.330E-01 0.441E-02
CGA:   6    -0.354018277786E+03   -0.21847E-02   -0.21779E-02 10080   0.200E-01-0.183E-02
CGA:   7    -0.354020011804E+03   -0.17340E-02   -0.16917E-02 10080   0.153E-01 0.198E-02
CGA:   8    -0.354020821336E+03   -0.80953E-03   -0.79337E-03 10080   0.343E-02-0.825E-03
CGA:   9    -0.354021144782E+03   -0.32345E-03   -0.30754E-03 10080   0.243E-02 0.593E-03
CGA:  10    -0.354021383066E+03   -0.23828E-03   -0.25850E-03 10080   0.463E-02-0.979E-03
CGA:  11    -0.354021496025E+03   -0.11296E-03   -0.12175E-03 10080   0.203E-02 0.329E-03
CGA:  12    -0.354021519117E+03   -0.23093E-04   -0.41539E-04 10080   0.457E-03 0.367E-03
CGA:  13    -0.354021533758E+03   -0.14641E-04   -0.20040E-04 10080   0.629E-03 0.181E-03
CGA:  14    -0.354021629207E+03   -0.95449E-04   -0.98901E-04 10080   0.984E-03-0.736E-04
CGA:  15    -0.354021659488E+03   -0.30281E-04   -0.25102E-04 10080   0.321E-03-0.137E-03
CGA:  16    -0.354021664340E+03   -0.48516E-05   -0.67095E-05 10080   0.185E-03 0.433E-04
  31 F= -.35402166E+03 E0= -.35401469E+03  d E =0.255740E-03  mag=    10.0000
       N       E                     dE             d eps       ncg     rms          ort
SDA:   1    -0.353722648911E+03    0.29901E+00    0.00000E+00 10080   0.728E+00 0.000E+00
CGA:   2    -0.353888783329E+03   -0.16613E+00   -0.16354E+00 10080   0.176E+01 0.156E-01
CGA:   3    -0.353967747172E+03   -0.78964E-01   -0.79042E-01 10080   0.355E+00-0.196E-01
CGA:   4    -0.353989058628E+03   -0.21311E-01   -0.21316E-01 10080   0.217E+00 0.304E-02
CGA:   5    -0.354010512058E+03   -0.21453E-01   -0.21478E-01 10080   0.589E-01-0.109E-02
CGA:   6    -0.354013352902E+03   -0.28408E-02   -0.28608E-02 10080   0.226E-01 0.385E-03
CGA:   7    -0.354016429859E+03   -0.30770E-02   -0.32084E-02 10080   0.286E-01-0.186E-02
CGA:   8    -0.354017210212E+03   -0.78035E-03   -0.85410E-03 10080   0.341E-02 0.192E-02
CGA:   9    -0.354017543308E+03   -0.33310E-03   -0.32345E-03 10080   0.581E-02 0.512E-03
CGA:  10    -0.354018042827E+03   -0.49952E-03   -0.50489E-03 10080   0.392E-02-0.127E-02
CGA:  11    -0.354018139472E+03   -0.96646E-04   -0.11005E-03 10080   0.881E-03 0.376E-03
CGA:  12    -0.354018165938E+03   -0.26466E-04   -0.36016E-04 10080   0.804E-03 0.294E-03
CGA:  13    -0.354018312655E+03   -0.14672E-03   -0.14585E-03 10080   0.104E-02 0.121E-04
CGA:  14    -0.354018373168E+03   -0.60513E-04   -0.49971E-04 10080   0.501E-03-0.440E-03
CGA:  15    -0.354018378106E+03   -0.49379E-05   -0.85664E-05 10080   0.325E-03 0.888E-04
CGA:  16    -0.354018383683E+03   -0.55769E-05   -0.12037E-04 10080   0.299E-03 0.175E-03
CGA:  17    -0.354018278863E+03    0.10482E-03   -0.76672E-04 10080   0.870E-02-0.960E-03
CGA:  18    -0.354018435689E+03   -0.15683E-03   -0.19900E-03 10080   0.247E-03 0.806E-03
CGA:  19    -0.354018441491E+03   -0.58023E-05   -0.78314E-05 10080   0.418E-04 0.449E-04
  32 F= -.35401844E+03 E0= -.35401144E+03  d E =0.322285E-02  mag=    10.0000
       N       E                     dE             d eps       ncg     rms          ort
SDA:   1    -0.353902974336E+03    0.11546E+00    0.00000E+00 10080   0.423E+00 0.000E+00
CGA:   2    -0.353932081509E+03   -0.29107E-01   -0.29120E-01 10080   0.533E+00-0.198E-02
CGA:   3    -0.353987168135E+03   -0.55087E-01   -0.54864E-01 10080   0.414E+00 0.686E-02
CGA:   4    -0.354007992152E+03   -0.20824E-01   -0.20827E-01 10080   0.633E-01-0.345E-02
CGA:   5    -0.354016446193E+03   -0.84540E-02   -0.83383E-02 10080   0.566E-01 0.179E-02
CGA:   6    -0.354019459693E+03   -0.30135E-02   -0.29848E-02 10080   0.791E-02-0.212E-02
CGA:   7    -0.354020448993E+03   -0.98930E-03   -0.94580E-03 10080   0.592E-02 0.848E-03
CGA:   8    -0.354020964711E+03   -0.51572E-03   -0.52079E-03 10080   0.513E-02-0.145E-02
CGA:   9    -0.354021097259E+03   -0.13255E-03   -0.15368E-03 10080   0.153E-02 0.574E-03
CGA:  10    -0.354021150061E+03   -0.52802E-04   -0.65994E-04 10080   0.820E-03 0.372E-03
CGA:  11    -0.354021235039E+03   -0.84978E-04   -0.88905E-04 10080   0.197E-02-0.270E-03
CGA:  12    -0.354021288326E+03   -0.53287E-04   -0.51775E-04 10080   0.183E-02-0.453E-04
CGA:  13    -0.354021314203E+03   -0.25877E-04   -0.34432E-04 10080   0.472E-03 0.159E-03
CGA:  14    -0.354021320006E+03   -0.58029E-05   -0.10357E-04 10080   0.252E-03 0.917E-04
CGA:  15    -0.354021331473E+03   -0.11467E-04   -0.11984E-04 10080   0.356E-03 0.179E-04
CGA:  16    -0.354021356986E+03   -0.25513E-04   -0.26246E-04 10080   0.937E-03-0.194E-03
CGA:  17    -0.354021383007E+03   -0.26021E-04   -0.30135E-04 10080   0.577E-04 0.120E-03
CGA:  18    -0.354021253633E+03    0.12937E-03   -0.69980E-04 10080   0.531E-02-0.450E-03
CGA:  19    -0.354021386559E+03   -0.13293E-03   -0.15876E-03 10080   0.292E-03 0.290E-03
CGA:  20    -0.354021408979E+03   -0.22420E-04   -0.13528E-04 10080   0.690E-04-0.134E-03
CGA:  21    -0.354021407836E+03    0.11427E-05   -0.87682E-06 10080   0.309E-04 0.237E-04
  33 F= -.35402141E+03 E0= -.35401442E+03  d E =-.296635E-02  mag=    10.0000
       N       E                     dE             d eps       ncg     rms          ort
SDA:   1    -0.353980152486E+03    0.41256E-01    0.00000E+00 10080   0.123E+00 0.000E+00
CGA:   2    -0.353994741925E+03   -0.14589E-01   -0.14607E-01 10080   0.246E+00-0.166E-02
CGA:   3    -0.354011309286E+03   -0.16567E-01   -0.16657E-01 10080   0.996E-01 0.391E-02
CGA:   4    -0.354016336119E+03   -0.50268E-02   -0.49842E-02 10080   0.312E-01-0.190E-02
CGA:   5    -0.354020273547E+03   -0.39374E-02   -0.39096E-02 10080   0.146E-01 0.860E-03
CGA:   6    -0.354021054898E+03   -0.78135E-03   -0.74025E-03 10080   0.387E-02-0.108E-02
CGA:   7    -0.354021514113E+03   -0.45922E-03   -0.44609E-03 10080   0.188E-02 0.450E-03
CGA:   8    -0.354021678198E+03   -0.16408E-03   -0.14420E-03 10080   0.255E-02-0.711E-03
CGA:   9    -0.354021761378E+03   -0.83181E-04   -0.87599E-04 10080   0.117E-02 0.107E-03
CGA:  10    -0.354021771821E+03   -0.10443E-04   -0.28738E-04 10080   0.362E-03 0.261E-03
CGA:  11    -0.354021781616E+03   -0.97946E-05   -0.16311E-04 10080   0.302E-03 0.122E-03
CGA:  12    -0.354021816730E+03   -0.35115E-04   -0.35025E-04 10080   0.828E-03-0.122E-03
CGA:  13    -0.354021828403E+03   -0.11672E-04   -0.10769E-04 10080   0.793E-03-0.141E-04
CGA:  14    -0.354021835949E+03   -0.75466E-05   -0.12083E-04 10080   0.253E-03 0.639E-04
  34 F= -.35402184E+03 E0= -.35401484E+03  d E =-.428113E-03  mag=    10.0000
       N       E                     dE             d eps       ncg     rms          ort
SDA:   1    -0.353998392733E+03    0.23436E-01    0.00000E+00 10080   0.579E+00 0.000E+00
CGA:   2    -0.354015812954E+03   -0.17420E-01   -0.17642E-01 10080   0.431E-01-0.102E-01
CGA:   3    -0.354017351227E+03   -0.15383E-02   -0.16016E-02 10080   0.141E-01 0.228E-02
CGA:   4    -0.354020461826E+03   -0.31106E-02   -0.33531E-02 10080   0.186E-01-0.160E-02
CGA:   5    -0.354021094643E+03   -0.63282E-03   -0.63094E-03 10080   0.408E-02-0.328E-04
CGA:   6    -0.354021376947E+03   -0.28230E-03   -0.28851E-03 10080   0.462E-02 0.784E-03
CGA:   7    -0.354021805430E+03   -0.42848E-03   -0.42836E-03 10080   0.496E-03-0.260E-03
CGA:   8    -0.354021845861E+03   -0.40431E-04   -0.40030E-04 10080   0.481E-03 0.539E-04
CGA:   9    -0.354021876423E+03   -0.30562E-04   -0.32900E-04 10080   0.155E-03 0.137E-03
CGA:  10    -0.354021909205E+03   -0.32782E-04    0.14475E-03 10080   0.252E-03-0.457E-04
CGA:  11    -0.354021919020E+03   -0.98153E-05   -0.10256E-04 10080   0.155E-03 0.218E-04
  35 F= -.35402192E+03 E0= -.35401492E+03  d E =-.830714E-04  mag=    10.0000
       N       E                     dE             d eps       ncg     rms          ort
SDA:   1    -0.353997319010E+03    0.24590E-01    0.00000E+00 10080   0.856E-01 0.000E+00
CGA:   2    -0.354004538888E+03   -0.72199E-02   -0.72621E-02 10080   0.126E+00-0.435E-02
CGA:   3    -0.354015423919E+03   -0.10885E-01   -0.10828E-01 10080   0.510E-01 0.341E-02
CGA:   4    -0.354017710273E+03   -0.22864E-02   -0.22634E-02 10080   0.219E-01-0.881E-03
CGA:   5    -0.354020599983E+03   -0.28897E-02   -0.28546E-02 10080   0.619E-02 0.579E-03
CGA:   6    -0.354020970937E+03   -0.37095E-03   -0.37134E-03 10080   0.245E-02-0.728E-05
CGA:   7    -0.354021219374E+03   -0.24844E-03   -0.23677E-03 10080   0.149E-02 0.550E-03
CGA:   8    -0.354021347440E+03   -0.12807E-03   -0.12054E-03 10080   0.170E-02-0.725E-03
CGA:   9    -0.354021384144E+03   -0.36704E-04   -0.40828E-04 10080   0.949E-03 0.139E-03
CGA:  10    -0.354021394177E+03   -0.10032E-04   -0.23232E-04 10080   0.299E-03 0.254E-03
CGA:  11    -0.354021404408E+03   -0.10231E-04   -0.13733E-04 10080   0.251E-03 0.973E-04
CGA:  12    -0.354021425668E+03   -0.21260E-04   -0.44720E-04 10080   0.163E-02-0.367E-03
CGA:  13    -0.354021459300E+03   -0.33631E-04   -0.43166E-04 10080   0.124E-03 0.198E-03
CGA:  14    -0.354021468972E+03   -0.96720E-05   -0.12585E-04 10080   0.327E-03-0.151E-03
  36 F= -.35402147E+03 E0= -.35401447E+03  d E =0.450049E-03  mag=    10.0000
       N       E                     dE             d eps       ncg     rms          ort
SDA:   1    -0.354017713439E+03    0.37459E-02    0.00000E+00 10080   0.264E-01 0.000E+00
CGA:   2    -0.354018925264E+03   -0.12118E-02   -0.12235E-02 10080   0.900E-02 0.432E-03
CGA:   3    -0.354020088222E+03   -0.11630E-02   -0.13041E-02 10080   0.259E-01-0.193E-02
CGA:   4    -0.354020872228E+03   -0.78401E-03   -0.81462E-03 10080   0.568E-02 0.967E-03
CGA:   5    -0.354020990391E+03   -0.11816E-03   -0.14859E-03 10080   0.236E-02 0.682E-03
CGA:   6    -0.354021197210E+03   -0.20682E-03   -0.20418E-03 10080   0.369E-02 0.297E-03
CGA:   7    -0.354021390488E+03   -0.19328E-03   -0.17795E-03 10080   0.105E-02-0.600E-03
CGA:   8    -0.354021418121E+03   -0.27633E-04   -0.29714E-04 10080   0.321E-03 0.584E-04
CGA:   9    -0.354021425399E+03   -0.72776E-05   -0.11253E-04 10080   0.256E-03 0.120E-03
CGA:  10    -0.354021455355E+03   -0.29956E-04   -0.28885E-04 10080   0.229E-03 0.599E-04
CGA:  11    -0.354021473548E+03   -0.18193E-04   -0.16962E-04 10080   0.258E-03-0.236E-03
CGA:  12    -0.354021472487E+03    0.10611E-05   -0.43165E-05 10080   0.620E-04 0.111E-03
  37 F= -.35402147E+03 E0= -.35401447E+03  d E =-.351550E-05  mag=    10.0000
       N       E                     dE             d eps       ncg     rms          ort
SDA:   1    -0.354018330983E+03    0.31426E-02    0.00000E+00 10080   0.901E-02 0.000E+00
CGA:   2    -0.354020441708E+03   -0.21107E-02   -0.22550E-02 10080   0.123E-01-0.770E-03
CGA:   3    -0.354020866027E+03   -0.42432E-03   -0.45709E-03 10080   0.390E-02 0.108E-02
CGA:   4    -0.354021293615E+03   -0.42759E-03   -0.44750E-03 10080   0.561E-02-0.541E-03
CGA:   5    -0.354021518125E+03   -0.22451E-03   -0.22387E-03 10080   0.119E-02-0.411E-04
CGA:   6    -0.354021555857E+03   -0.37732E-04   -0.42145E-04 10080   0.525E-03 0.129E-03
CGA:   7    -0.354021601010E+03   -0.45154E-04   -0.45176E-04 10080   0.631E-03-0.318E-05
CGA:   8    -0.354021633334E+03   -0.32324E-04   -0.32047E-04 10080   0.172E-03-0.175E-04
CGA:   9    -0.354021638907E+03   -0.55731E-05   -0.57904E-05 10080   0.785E-04 0.617E-05
CGA:  10    -0.354021642795E+03   -0.38872E-05   -0.18147E-04 10080   0.493E-03-0.905E-04
CGA:  11    -0.354021652420E+03   -0.96251E-05   -0.13973E-04 10080   0.348E-04 0.966E-04
  38 F= -.35402165E+03 E0= -.35401466E+03  d E =-.179933E-03  mag=    10.0000
       N       E                     dE             d eps       ncg     rms          ort
SDA:   1    -0.354016772432E+03    0.48704E-02    0.00000E+00 10080   0.149E-01 0.000E+00
CGA:   2    -0.354018511677E+03   -0.17392E-02   -0.17534E-02 10080   0.325E-01-0.340E-03
CGA:   3    -0.354020652470E+03   -0.21408E-02   -0.21466E-02 10080   0.819E-02 0.168E-02
CGA:   4    -0.354021133073E+03   -0.48060E-03   -0.46128E-03 10080   0.520E-02-0.116E-02
CGA:   5    -0.354021611007E+03   -0.47793E-03   -0.46262E-03 10080   0.118E-02 0.453E-03
CGA:   6    -0.354021688929E+03   -0.77922E-04   -0.77333E-04 10080   0.539E-03-0.570E-04
CGA:   7    -0.354021701155E+03   -0.12227E-04   -0.13945E-03 10080   0.258E-02-0.636E-03
CGA:   8    -0.354021746925E+03   -0.45770E-04   -0.69139E-04 10080   0.261E-03 0.421E-03
CGA:   9    -0.354021760579E+03   -0.13654E-04   -0.15592E-04 10080   0.219E-03 0.708E-04
CGA:  10    -0.354021790023E+03   -0.29444E-04   -0.35167E-04 10080   0.160E-03-0.116E-03
CGA:  11    -0.354021788543E+03    0.14808E-05   -0.29851E-05 10080   0.468E-04 0.732E-04
  39 F= -.35402179E+03 E0= -.35401479E+03  d E =-.136123E-03  mag=    10.0000
       N       E                     dE             d eps       ncg     rms          ort
SDA:   1    -0.349984260963E+03    0.40375E+01    0.00000E+00 10080   0.100E+02 0.000E+00
CGA:   2    -0.352713593477E+03   -0.27293E+01   -0.26999E+01 10080   0.147E+02 0.225E+00
CGA:   3    -0.353323487406E+03   -0.60989E+00   -0.57484E+00 10080   0.338E+01-0.334E+00
CGA:   4    -0.353736593553E+03   -0.41311E+00   -0.41080E+00 10080   0.364E+01 0.390E-01
CGA:   5    -0.353908538611E+03   -0.17195E+00   -0.16811E+00 10080   0.394E+00 0.517E-01
CGA:   6    -0.353953272980E+03   -0.44734E-01   -0.44796E-01 10080   0.647E+00-0.399E-02
CGA:   7    -0.353986116743E+03   -0.32844E-01   -0.32763E-01 10080   0.747E-01 0.444E-02
CGA:   8    -0.353994293076E+03   -0.81763E-02   -0.82412E-02 10080   0.954E-01-0.266E-02
CGA:   9    -0.354001900384E+03   -0.76073E-02   -0.76074E-02 10080   0.348E-01 0.209E-02
CGA:  10    -0.354003559952E+03   -0.16596E-02   -0.16050E-02 10080   0.172E-01-0.170E-02
CGA:  11    -0.354006852826E+03   -0.32929E-02   -0.32160E-02 10080   0.130E-01 0.643E-03
CGA:  12    -0.354007583672E+03   -0.73085E-03   -0.67536E-03 10080   0.865E-02-0.170E-02
CGA:  13    -0.354008789256E+03   -0.12056E-02   -0.11895E-02 10080   0.101E-01 0.197E-03
CGA:  14    -0.354009434487E+03   -0.64523E-03   -0.62584E-03 10080   0.438E-02-0.752E-03
CGA:  15    -0.354009727374E+03   -0.29289E-03   -0.29949E-03 10080   0.343E-02 0.488E-03
CGA:  16    -0.354010163590E+03   -0.43622E-03   -0.49091E-03 10080   0.669E-02-0.131E-02
CGA:  17    -0.354010327362E+03   -0.16377E-03   -0.17930E-03 10080   0.226E-02 0.330E-03
CGA:  18    -0.354010374802E+03   -0.47441E-04   -0.68415E-04 10080   0.930E-03 0.368E-03
CGA:  19    -0.354010433572E+03   -0.58769E-04   -0.61006E-04 10080   0.117E-02 0.789E-04
CGA:  20    -0.354010566582E+03   -0.13301E-03   -0.14211E-03 10080   0.306E-02-0.305E-03
CGA:  21    -0.354010611534E+03   -0.44953E-04   -0.51748E-04 10080   0.135E-02 0.104E-03
CGA:  22    -0.354010622336E+03   -0.10802E-04   -0.22024E-04 10080   0.426E-03 0.165E-03
CGA:  23    -0.354010626064E+03   -0.37279E-05   -0.10483E-04 10080   0.417E-03 0.119E-03
CGA:  24    -0.354010646087E+03   -0.20023E-04   -0.24055E-04 10080   0.855E-03 0.135E-03
CGA:  25    -0.354010698049E+03   -0.51963E-04   -0.52523E-04 10080   0.944E-03 0.192E-04
CGA:  26    -0.354010721110E+03   -0.23061E-04   -0.24072E-04 10080   0.476E-03 0.194E-04
CGA:  27    -0.354010724963E+03   -0.38531E-05   -0.83728E-05 10080   0.202E-03 0.849E-04
  40 F= -.35401072E+03 E0= -.35400369E+03  d E =0.110636E-01  mag=    10.0000
       N       E                     dE             d eps       ncg     rms          ort
SDA:   1    -0.351915233490E+03    0.20955E+01    0.00000E+00 10080   0.568E+01 0.000E+00
CGA:   2    -0.352766770041E+03   -0.85154E+00   -0.83724E+00 10080   0.143E+02 0.256E+00
CGA:   3    -0.353614383180E+03   -0.84761E+00   -0.84598E+00 10080   0.256E+01-0.152E+00
CGA:   4    -0.353773356289E+03   -0.15897E+00   -0.15782E+00 10080   0.191E+01-0.744E-01
CGA:   5    -0.353963301553E+03   -0.18995E+00   -0.19017E+00 10080   0.345E+00-0.936E-02
CGA:   6    -0.353983982237E+03   -0.20681E-01   -0.20748E-01 10080   0.199E+00 0.573E-02
CGA:   7    -0.354005004731E+03   -0.21022E-01   -0.21172E-01 10080   0.179E+00-0.485E-02
CGA:   8    -0.354011644777E+03   -0.66400E-02   -0.67128E-02 10080   0.240E-01 0.464E-02
CGA:   9    -0.354016035670E+03   -0.43909E-02   -0.42573E-02 10080   0.361E-01 0.124E-02
CGA:  10    -0.354018157753E+03   -0.21221E-02   -0.20923E-02 10080   0.774E-02-0.205E-02
CGA:  11    -0.354018782862E+03   -0.62511E-03   -0.61173E-03 10080   0.936E-02 0.126E-02
CGA:  12    -0.354019797619E+03   -0.10148E-02   -0.10431E-02 10080   0.107E-01-0.133E-02
CGA:  13    -0.354020302420E+03   -0.50480E-03   -0.50936E-03 10080   0.181E-02 0.204E-03
CGA:  14    -0.354020892977E+03   -0.59056E-03   -0.54884E-03 10080   0.298E-02 0.187E-03
CGA:  15    -0.354021085733E+03   -0.19276E-03   -0.16960E-03 10080   0.178E-02-0.718E-03
CGA:  16    -0.354021154414E+03   -0.68681E-04   -0.75984E-04 10080   0.802E-03 0.265E-03
CGA:  17    -0.354021220952E+03   -0.66538E-04   -0.67941E-04 10080   0.769E-03 0.167E-03
CGA:  18    -0.354021301220E+03   -0.80268E-04   -0.11922E-03 10080   0.390E-02-0.838E-03
CGA:  19    -0.354021360541E+03   -0.59320E-04   -0.89062E-04 10080   0.222E-03 0.501E-03
CGA:  20    -0.354021364666E+03   -0.41250E-05   -0.82028E-05 10080   0.120E-03 0.841E-04
CGA:  21    -0.354021381553E+03   -0.16888E-04   -0.19286E-04 10080   0.479E-03-0.641E-04
CGA:  22    -0.354021396730E+03   -0.15177E-04   -0.17380E-04 10080   0.593E-04 0.481E-04
CGA:  23    -0.354021410198E+03   -0.13468E-04    0.79524E-05 10080   0.105E-03 0.127E-04
CGA:  24    -0.354021442922E+03   -0.32724E-04   -0.27635E-04 10080   0.890E-04 0.365E-04
CGA:  25    -0.354021448646E+03   -0.57242E-05   -0.66201E-05 10080   0.347E-04 0.295E-04
CGA:  26    -0.354021457338E+03   -0.86913E-05    0.15343E-04 10080   0.226E-04 0.265E-04
  41 F= -.35402146E+03 E0= -.35401451E+03  d E =-.107324E-01  mag=    10.0000
       N       E                     dE             d eps       ncg     rms          ort
SDA:   1    -0.351279297606E+03    0.27422E+01    0.00000E+00 10080   0.700E+01 0.000E+00
CGA:   2    -0.353098659679E+03   -0.18194E+01   -0.17806E+01 10080   0.792E+01 0.264E+00
CGA:   3    -0.353505122534E+03   -0.40646E+00   -0.35451E+00 10080   0.234E+01 0.504E+00
CGA:   4    -0.353723678197E+03   -0.21856E+00   -0.21856E+00 10080   0.323E+01-0.735E-02
CGA:   5    -0.353908440537E+03   -0.18476E+00   -0.18684E+00 10080   0.670E+00-0.784E-02
CGA:   6    -0.353935136653E+03   -0.26696E-01   -0.26934E-01 10080   0.313E+00 0.719E-02
CGA:   7    -0.353958976496E+03   -0.23840E-01   -0.23835E-01 10080   0.334E+00-0.227E-02
CGA:   8    -0.353979368762E+03   -0.20392E-01   -0.20414E-01 10080   0.628E-01-0.133E-02
CGA:   9    -0.353981795415E+03   -0.24267E-02   -0.25052E-02 10080   0.445E-01 0.244E-02
CGA:  10    -0.353988752808E+03   -0.69574E-02   -0.69406E-02 10080   0.260E-01 0.192E-03
CGA:  11    -0.353989858957E+03   -0.11061E-02   -0.10355E-02 10080   0.134E-01-0.186E-02
CGA:  12    -0.353991084419E+03   -0.12255E-02   -0.12159E-02 10080   0.163E-01 0.523E-03
CGA:  13    -0.353992518551E+03   -0.14341E-02   -0.14322E-02 10080   0.688E-02 0.691E-03
CGA:  14    -0.353992957954E+03   -0.43940E-03   -0.40636E-03 10080   0.748E-02-0.136E-02
CGA:  15    -0.353993631842E+03   -0.67389E-03   -0.67118E-03 10080   0.702E-02 0.680E-04
CGA:  16    -0.353993916572E+03   -0.28473E-03   -0.31085E-03 10080   0.234E-02 0.656E-03
CGA:  17    -0.353994137467E+03   -0.22090E-03   -0.22590E-03 10080   0.574E-02-0.653E-03
CGA:  18    -0.353994421959E+03   -0.28449E-03   -0.28105E-03 10080   0.520E-02-0.271E-03
CGA:  19    -0.353994515757E+03   -0.93797E-04   -0.11319E-03 10080   0.126E-02 0.333E-03
CGA:  20    -0.353994552508E+03   -0.36751E-04   -0.43813E-04 10080   0.936E-03 0.155E-03
CGA:  21    -0.353994623058E+03   -0.70550E-04   -0.68714E-04 10080   0.185E-02-0.193E-03
CGA:  22    -0.353994718386E+03   -0.95328E-04   -0.91531E-04 10080   0.343E-02-0.314E-03
CGA:  23    -0.353994780935E+03   -0.62549E-04   -0.65917E-04 10080   0.128E-02 0.629E-04
CGA:  24    -0.353994794654E+03   -0.13720E-04   -0.21510E-04 10080   0.434E-03 0.139E-03
CGA:  25    -0.353994803000E+03   -0.83456E-05   -0.12280E-04 10080   0.490E-03 0.897E-04
CGA:  26    -0.353994840323E+03   -0.37323E-04   -0.37318E-04 10080   0.131E-02-0.311E-05
CGA:  27    -0.353994891157E+03   -0.50834E-04   -0.44261E-04 10080   0.121E-02-0.205E-03
CGA:  28    -0.353994913664E+03   -0.22507E-04   -0.18739E-04 10080   0.584E-03-0.834E-04
CGA:  29    -0.353994920367E+03   -0.67029E-05   -0.84643E-05 10080   0.291E-03 0.372E-04
  42 F= -.35399492E+03 E0= -.35398775E+03  d E =0.265370E-01  mag=    10.0000
       N       E                     dE             d eps       ncg     rms          ort
SDA:   1    -0.352161208204E+03    0.18337E+01    0.00000E+00 10080   0.488E+01 0.000E+00
CGA:   2    -0.353189320358E+03   -0.10281E+01   -0.10391E+01 10080   0.103E+02-0.408E-01
CGA:   3    -0.353687397220E+03   -0.49808E+00   -0.50081E+00 10080   0.143E+01-0.849E-01
CGA:   4    -0.353918758950E+03   -0.23136E+00   -0.23146E+00 10080   0.158E+01-0.290E-02
CGA:   5    -0.353969769223E+03   -0.51010E-01   -0.52661E-01 10080   0.224E+00-0.525E-01
CGA:   6    -0.353998100572E+03   -0.28331E-01   -0.28190E-01 10080   0.214E+00 0.184E-02
CGA:   7    -0.354010233399E+03   -0.12133E-01   -0.12102E-01 10080   0.538E-01-0.380E-02
CGA:   8    -0.354013079447E+03   -0.28460E-02   -0.28879E-02 10080   0.386E-01 0.297E-02
CGA:   9    -0.354018339011E+03   -0.52596E-02   -0.54071E-02 10080   0.159E-01-0.239E-02
CGA:  10    -0.354019104448E+03   -0.76544E-03   -0.79129E-03 10080   0.854E-02 0.134E-02
CGA:  11    -0.354020252222E+03   -0.11478E-02   -0.12643E-02 10080   0.207E-01-0.183E-02
CGA:  12    -0.354021089452E+03   -0.83723E-03   -0.84582E-03 10080   0.478E-02 0.353E-03
CGA:  13    -0.354021268041E+03   -0.17859E-03   -0.19046E-03 10080   0.324E-02 0.322E-03
CGA:  14    -0.354021688207E+03   -0.42017E-03   -0.48698E-03 10080   0.106E-01-0.983E-03
CGA:  15    -0.354022017372E+03   -0.32917E-03   -0.31664E-03 10080   0.734E-02-0.390E-03
CGA:  16    -0.354022163774E+03   -0.14640E-03   -0.16015E-03 10080   0.170E-02 0.257E-03
CGA:  17    -0.354022206864E+03   -0.43091E-04   -0.51288E-04 10080   0.129E-02 0.189E-03
CGA:  18    -0.354022310676E+03   -0.10381E-03   -0.10370E-03 10080   0.299E-02 0.337E-04
CGA:  19    -0.354022472659E+03   -0.16198E-03   -0.15697E-03 10080   0.248E-02-0.279E-03
CGA:  20    -0.354022527331E+03   -0.54673E-04   -0.53149E-04 10080   0.748E-03-0.457E-04
CGA:  21    -0.354022541658E+03   -0.14327E-04   -0.16869E-04 10080   0.414E-03 0.549E-04
CGA:  22    -0.354022560701E+03   -0.19042E-04   -0.20266E-04 10080   0.745E-03 0.646E-04
CGA:  23    -0.354022620488E+03   -0.59788E-04   -0.59871E-04 10080   0.111E-02-0.140E-04
CGA:  24    -0.354022651409E+03   -0.30921E-04   -0.30562E-04 10080   0.423E-03-0.126E-04
CGA:  25    -0.354022658025E+03   -0.66154E-05   -0.89146E-05 10080   0.197E-03 0.555E-04
  43 F= -.35402266E+03 E0= -.35401565E+03  d E =-.277377E-01  mag=    10.0000
       N       E                     dE             d eps       ncg     rms          ort
SDA:   1    -0.353997575760E+03    0.25076E-01    0.00000E+00 10080   0.932E-01 0.000E+00
CGA:   2    -0.354003633729E+03   -0.60580E-02   -0.60342E-02 10080   0.865E-01 0.405E-02
CGA:   3    -0.354014924561E+03   -0.11291E-01   -0.11671E-01 10080   0.963E-01-0.551E-02
CGA:   4    -0.354018291606E+03   -0.33670E-02   -0.34129E-02 10080   0.181E-01 0.204E-02
CGA:   5    -0.354020191020E+03   -0.18994E-02   -0.18824E-02 10080   0.209E-01 0.370E-03
CGA:   6    -0.354021587114E+03   -0.13961E-02   -0.14013E-02 10080   0.634E-02-0.180E-02
CGA:   7    -0.354021743272E+03   -0.15616E-03   -0.17789E-03 10080   0.187E-02 0.676E-03
CGA:   8    -0.354021957993E+03   -0.21472E-03   -0.19714E-03 10080   0.283E-02 0.516E-03
CGA:   9    -0.354022166926E+03   -0.20893E-03   -0.20255E-03 10080   0.129E-02-0.934E-03
CGA:  10    -0.354022194610E+03   -0.27684E-04   -0.32778E-04 10080   0.388E-03 0.205E-03
CGA:  11    -0.354022207009E+03   -0.12399E-04   -0.17172E-04 10080   0.371E-03 0.205E-03
CGA:  12    -0.354022098502E+03    0.10851E-03   -0.90950E-04 10080   0.104E-01-0.108E-02
CGA:  13    -0.354022281647E+03   -0.18314E-03   -0.22540E-03 10080   0.149E-03 0.923E-03
CGA:  14    -0.354022282168E+03   -0.52083E-06   -0.34131E-05 10080   0.577E-04 0.623E-04
  44 F= -.35402228E+03 E0= -.35401526E+03  d E =0.375857E-03  mag=    10.0000
       N       E                     dE             d eps       ncg     rms          ort
SDA:   1    -0.353999860152E+03    0.22421E-01    0.00000E+00 10080   0.205E+00 0.000E+00
CGA:   2    -0.354006367009E+03   -0.65069E-02   -0.65916E-02 10080   0.515E-01 0.306E-02
CGA:   3    -0.354014552606E+03   -0.81856E-02   -0.87356E-02 10080   0.130E+00-0.540E-02
CGA:   4    -0.354020060988E+03   -0.55084E-02   -0.55715E-02 10080   0.168E-01 0.312E-02
CGA:   5    -0.354020946309E+03   -0.88532E-03   -0.90400E-03 10080   0.131E-01 0.125E-02
CGA:   6    -0.354022216830E+03   -0.12705E-02   -0.12957E-02 10080   0.106E-01-0.983E-03
CGA:   7    -0.354022554096E+03   -0.33727E-03   -0.35819E-03 10080   0.182E-02 0.671E-03
CGA:   8    -0.354022620152E+03   -0.66056E-04   -0.76313E-04 10080   0.113E-02 0.391E-03
CGA:   9    -0.354022758110E+03   -0.13796E-03   -0.13841E-03 10080   0.178E-02-0.140E-04
CGA:  10    -0.354022832897E+03   -0.74787E-04   -0.72811E-04 10080   0.349E-03-0.834E-04
CGA:  11    -0.354022845754E+03   -0.12857E-04   -0.12911E-04 10080   0.256E-03 0.709E-06
CGA:  12    -0.354022866259E+03   -0.20504E-04   -0.57392E-04 10080   0.113E-02-0.230E-03
CGA:  13    -0.354022897829E+03   -0.31570E-04   -0.37188E-04 10080   0.766E-04 0.145E-03
CGA:  14    -0.354022901257E+03   -0.34286E-05   -0.41871E-05 10080   0.517E-04 0.356E-04
CGA:  15    -0.354022911852E+03   -0.10594E-04   -0.15524E-04 10080   0.971E-04-0.361E-04
CGA:  16    -0.354022912681E+03   -0.82958E-06   -0.25477E-05 10080   0.199E-04 0.345E-04
  45 F= -.35402291E+03 E0= -.35401592E+03  d E =-.630513E-03  mag=    10.0000
       N       E                     dE             d eps       ncg     rms          ort
SDA:   1    -0.354018326847E+03    0.45850E-02    0.00000E+00 10080   0.158E-01 0.000E+00
CGA:   2    -0.354019632077E+03   -0.13052E-02   -0.12958E-02 10080   0.197E-01 0.817E-03
CGA:   3    -0.354022313269E+03   -0.26812E-02   -0.26699E-02 10080   0.511E-02 0.176E-03
CGA:   4    -0.354022679450E+03   -0.36618E-03   -0.36395E-03 10080   0.552E-02-0.615E-03
CGA:   5    -0.354022929796E+03   -0.25035E-03   -0.26340E-03 10080   0.167E-02 0.653E-03
CGA:   6    -0.354023031095E+03   -0.10130E-03   -0.98176E-04 10080   0.630E-03-0.160E-03
CGA:   7    -0.354023067079E+03   -0.35985E-04   -0.74343E-04 10080   0.330E-02-0.660E-03
CGA:   8    -0.354023111147E+03   -0.44067E-04   -0.69080E-04 10080   0.134E-03 0.467E-03
CGA:   9    -0.354023110880E+03    0.26651E-06   -0.32166E-05 10080   0.622E-04 0.675E-04
CGA:  10    -0.354023120498E+03   -0.96182E-05    0.20077E-04 10080   0.457E-04 0.333E-04
  46 F= -.35402312E+03 E0= -.35401614E+03  d E =-.207817E-03  mag=    10.0000
