       N       E                     dE             d eps       ncg     rms          ort
DAV:   1     0.241642931823E+04    0.24164E+04   -0.14156E+05  7056   0.152E+03
DAV:   2    -0.221304381450E+03   -0.26377E+04   -0.25424E+04  7056   0.409E+02
DAV:   3    -0.456096311845E+03   -0.23479E+03   -0.22842E+03  7056   0.140E+02
DAV:   4    -0.466286723501E+03   -0.10190E+02   -0.99368E+01  7056   0.314E+01
DAV:   5    -0.466825478079E+03   -0.53875E+00   -0.53345E+00  7056   0.478E+00
SDA:   6    -0.307483965122E+03    0.15934E+03   -0.53345E+00  7056   0.351E+03 0.000E+00
CGA:   7    -0.354154528487E+03   -0.46671E+02   -0.49906E+02  7056   0.437E+02 0.117E+02
CGA:   8    -0.363252943888E+03   -0.90984E+01   -0.91004E+01  7056   0.109E+02-0.230E+00
CGA:   9    -0.366139093021E+03   -0.28861E+01   -0.28824E+01  7056   0.339E+01 0.391E-01
CGA:  10    -0.367044803154E+03   -0.90571E+00   -0.90614E+00  7056   0.118E+01-0.129E-01
CGA:  11    -0.367360762163E+03   -0.31596E+00   -0.31722E+00  7056   0.377E+00-0.184E-01
CGA:  12    -0.367469936886E+03   -0.10917E+00   -0.10946E+00  7056   0.101E+00-0.323E-02
CGA:  13    -0.367499500240E+03   -0.29563E-01   -0.29492E-01  7056   0.315E-01 0.863E-03
CGA:  14    -0.367510113874E+03   -0.10614E-01   -0.10565E-01  7056   0.106E-01 0.418E-03
CGA:  15    -0.367513914210E+03   -0.38003E-02   -0.37365E-02  7056   0.404E-02 0.501E-03
CGA:  16    -0.367515464380E+03   -0.15502E-02   -0.15133E-02  7056   0.146E-02 0.283E-03
CGA:  17    -0.367516150777E+03   -0.68640E-03   -0.71775E-03  7056   0.757E-03-0.141E-03
CGA:  18    -0.367516350514E+03   -0.19974E-03   -0.50550E-03  7056   0.112E-02-0.620E-03
CGA:  19    -0.367516592834E+03   -0.24232E-03   -0.25015E-03  7056   0.170E-03 0.164E-03
CGA:  20    -0.367516634669E+03   -0.41835E-04   -0.44362E-04  7056   0.570E-04 0.628E-04
CGA:  21    -0.367516655051E+03   -0.20382E-04   -0.20493E-04  7056   0.271E-04 0.308E-04
CGA:  22    -0.367516663918E+03   -0.88669E-05   -0.85977E-05  7056   0.166E-04 0.529E-05
   1 F= -.36751666E+03 E0= -.36751666E+03  d E =-.367517E+03  mag=    12.0000
       N       E                     dE             d eps       ncg     rms          ort
SDA:   1    -0.367526791909E+03   -0.10137E-01    0.00000E+00  7056   0.269E-02 0.000E+00
CGA:   2    -0.367527508544E+03   -0.71664E-03   -0.71578E-03  7056   0.959E-03-0.155E-03
CGA:   3    -0.367527714094E+03   -0.20555E-03   -0.20547E-03  7056   0.239E-03-0.247E-05
CGA:   4    -0.367527750671E+03   -0.36577E-04   -0.40097E-04  7056   0.396E-04 0.348E-04
CGA:   5    -0.367527758422E+03   -0.77508E-05   -0.86167E-05  7056   0.113E-04 0.116E-04
   2 F= -.36752776E+03 E0= -.36752776E+03  d E =-.110945E-01  mag=    12.0000
       N       E                     dE             d eps       ncg     rms          ort
SDA:   1    -0.366422599964E+03    0.11052E+01    0.00000E+00  7056   0.415E+01 0.000E+00
CGA:   2    -0.367470541955E+03   -0.10479E+01   -0.10479E+01  7056   0.131E+01-0.129E-02
CGA:   3    -0.367783559213E+03   -0.31302E+00   -0.31293E+00  7056   0.351E+00-0.313E-02
CGA:   4    -0.367852693263E+03   -0.69134E-01   -0.69195E-01  7056   0.672E-01 0.812E-03
CGA:   5    -0.367869077073E+03   -0.16384E-01   -0.16402E-01  7056   0.175E-01 0.878E-03
CGA:   6    -0.367874623003E+03   -0.55459E-02   -0.55594E-02  7056   0.761E-02-0.269E-03
CGA:   7    -0.367877121777E+03   -0.24988E-02   -0.25430E-02  7056   0.362E-02-0.595E-03
CGA:   8    -0.367878189075E+03   -0.10673E-02   -0.10698E-02  7056   0.113E-02-0.477E-04
CGA:   9    -0.367878519352E+03   -0.33028E-03   -0.32759E-03  7056   0.324E-03 0.115E-03
CGA:  10    -0.367878637629E+03   -0.11828E-03   -0.11657E-03  7056   0.121E-03 0.319E-04
CGA:  11    -0.367878691290E+03   -0.53661E-04   -0.52817E-04  7056   0.577E-04 0.690E-05
CGA:  12    -0.367878712000E+03   -0.20710E-04   -0.20174E-04  7056   0.212E-04 0.110E-04
CGA:  13    -0.367878718172E+03   -0.61717E-05   -0.64268E-05  7056   0.758E-05 0.889E-05
   3 F= -.36787872E+03 E0= -.36787872E+03  d E =-.350960E+00  mag=    12.0000
       N       E                     dE             d eps       ncg     rms          ort
SDA:   1    -0.362783337743E+03    0.50954E+01    0.00000E+00  7056   0.168E+02 0.000E+00
CGA:   2    -0.366722878967E+03   -0.39395E+01   -0.39419E+01  7056   0.490E+01 0.406E-02
CGA:   3    -0.367916999272E+03   -0.11941E+01   -0.11937E+01  7056   0.133E+01-0.800E-02
CGA:   4    -0.368180789340E+03   -0.26379E+00   -0.26391E+00  7056   0.259E+00 0.735E-03
CGA:   5    -0.368243529266E+03   -0.62740E-01   -0.62777E-01  7056   0.684E-01 0.114E-02
CGA:   6    -0.368264862631E+03   -0.21333E-01   -0.21334E-01  7056   0.310E-01-0.678E-05
CGA:   7    -0.368275212162E+03   -0.10350E-01   -0.10392E-01  7056   0.149E-01-0.726E-03
CGA:   8    -0.368280009835E+03   -0.47977E-02   -0.48032E-02  7056   0.505E-02-0.108E-03
CGA:   9    -0.368281593904E+03   -0.15841E-02   -0.15776E-02  7056   0.151E-02 0.208E-03
CGA:  10    -0.368282125327E+03   -0.53142E-03   -0.52848E-03  7056   0.532E-03 0.570E-04
CGA:  11    -0.368282344907E+03   -0.21958E-03   -0.21630E-03  7056   0.221E-03 0.313E-04
CGA:  12    -0.368282429167E+03   -0.84260E-04   -0.82623E-04  7056   0.756E-04 0.274E-04
CGA:  13    -0.368282455841E+03   -0.26674E-04   -0.26418E-04  7056   0.229E-04 0.169E-04
CGA:  14    -0.368282468001E+03   -0.12160E-04   -0.12608E-04  7056   0.124E-04-0.294E-05
CGA:  15    -0.368282468943E+03   -0.94144E-06   -0.18126E-05  7056   0.665E-05 0.636E-05
   4 F= -.36828247E+03 E0= -.36828247E+03  d E =-.403751E+00  mag=    12.0000
       N       E                     dE             d eps       ncg     rms          ort
SDA:   1    -0.365834162040E+03    0.24483E+01    0.00000E+00  7056   0.815E+01 0.000E+00
CGA:   2    -0.367698641624E+03   -0.18645E+01   -0.18651E+01  7056   0.232E+01-0.283E-02
CGA:   3    -0.368270488535E+03   -0.57185E+00   -0.57183E+00  7056   0.615E+00 0.225E-03
CGA:   4    -0.368391205358E+03   -0.12072E+00   -0.12081E+00  7056   0.122E+00 0.546E-03
CGA:   5    -0.368420548395E+03   -0.29343E-01   -0.29333E-01  7056   0.326E-01-0.238E-03
CGA:   6    -0.368430772819E+03   -0.10224E-01   -0.10219E-01  7056   0.156E-01 0.159E-03
CGA:   7    -0.368436131378E+03   -0.53586E-02   -0.53544E-02  7056   0.790E-02 0.688E-04
CGA:   8    -0.368438796149E+03   -0.26648E-02   -0.26632E-02  7056   0.281E-02 0.289E-04
CGA:   9    -0.368439700874E+03   -0.90473E-03   -0.90425E-03  7056   0.811E-03 0.146E-04
CGA:  10    -0.368439976028E+03   -0.27515E-03   -0.27626E-03  7056   0.269E-03-0.213E-04
CGA:  11    -0.368440077820E+03   -0.10179E-03   -0.10148E-03  7056   0.102E-03 0.312E-05
CGA:  12    -0.368440117969E+03   -0.40149E-04   -0.39899E-04  7056   0.360E-04 0.275E-05
CGA:  13    -0.368440128159E+03   -0.10190E-04   -0.10363E-04  7056   0.102E-04 0.901E-05
CGA:  14    -0.368440132811E+03   -0.46522E-05   -0.46176E-05  7056   0.429E-05 0.529E-06
   5 F= -.36844013E+03 E0= -.36844013E+03  d E =-.157664E+00  mag=    12.0000
       N       E                     dE             d eps       ncg     rms          ort
SDA:   1    -0.363119481766E+03    0.53206E+01    0.00000E+00  7056   0.162E+02 0.000E+00
CGA:   2    -0.366980533593E+03   -0.38611E+01   -0.38636E+01  7056   0.514E+01-0.449E-02
CGA:   3    -0.368193371628E+03   -0.12128E+01   -0.12131E+01  7056   0.128E+01 0.373E-02
CGA:   4    -0.368439632258E+03   -0.24626E+00   -0.24655E+00  7056   0.241E+00 0.141E-02
CGA:   5    -0.368497500418E+03   -0.57868E-01   -0.57828E-01  7056   0.636E-01-0.101E-02
CGA:   6    -0.368516839005E+03   -0.19339E-01   -0.19340E-01  7056   0.296E-01-0.476E-04
CGA:   7    -0.368526941465E+03   -0.10102E-01   -0.10095E-01  7056   0.155E-01 0.127E-03
CGA:   8    -0.368532360521E+03   -0.54191E-02   -0.54265E-02  7056   0.603E-02-0.124E-03
CGA:   9    -0.368534327131E+03   -0.19666E-02   -0.19722E-02  7056   0.181E-02-0.145E-03
CGA:  10    -0.368534923208E+03   -0.59608E-03   -0.59954E-03  7056   0.583E-03-0.759E-04
CGA:  11    -0.368535142051E+03   -0.21884E-03   -0.22043E-03  7056   0.232E-03-0.161E-04
CGA:  12    -0.368535230219E+03   -0.88168E-04   -0.88047E-04  7056   0.848E-04 0.128E-05
CGA:  13    -0.368535253634E+03   -0.23415E-04   -0.23892E-04  7056   0.248E-04 0.194E-04
CGA:  14    -0.368535265013E+03   -0.11380E-04   -0.11398E-04  7056   0.109E-04-0.263E-06
CGA:  15    -0.368535269762E+03   -0.47482E-05   -0.46623E-05  7056   0.536E-05 0.669E-06
   6 F= -.36853527E+03 E0= -.36853527E+03  d E =-.951370E-01  mag=    12.0000
       N       E                     dE             d eps       ncg     rms          ort
SDA:   1    -0.363727822873E+03    0.48074E+01    0.00000E+00  7056   0.129E+02 0.000E+00
CGA:   2    -0.367276236593E+03   -0.35484E+01   -0.35486E+01  7056   0.479E+01-0.884E-02
CGA:   3    -0.368312379139E+03   -0.10361E+01   -0.10369E+01  7056   0.102E+01 0.594E-02
CGA:   4    -0.368506132118E+03   -0.19375E+00   -0.19397E+00  7056   0.184E+00 0.101E-02
CGA:   5    -0.368550424816E+03   -0.44293E-01   -0.44263E-01  7056   0.466E-01-0.591E-03
CGA:   6    -0.368563878817E+03   -0.13454E-01   -0.13454E-01  7056   0.193E-01-0.689E-05
CGA:   7    -0.368570420895E+03   -0.65421E-02   -0.65416E-02  7056   0.989E-02 0.121E-04
CGA:   8    -0.368574010287E+03   -0.35894E-02   -0.35991E-02  7056   0.414E-02-0.147E-03
CGA:   9    -0.368575375040E+03   -0.13648E-02   -0.13698E-02  7056   0.130E-02-0.145E-03
CGA:  10    -0.368575791592E+03   -0.41655E-03   -0.41787E-03  7056   0.413E-03-0.419E-04
CGA:  11    -0.368575948250E+03   -0.15666E-03   -0.15772E-03  7056   0.174E-03-0.119E-04
CGA:  12    -0.368576013101E+03   -0.64850E-04   -0.64214E-04  7056   0.663E-04 0.883E-05
CGA:  13    -0.368576036541E+03   -0.23440E-04   -0.23281E-04  7056   0.228E-04 0.725E-05
CGA:  14    -0.368576044985E+03   -0.84442E-05   -0.83943E-05  7056   0.798E-05 0.269E-05
   7 F= -.36857604E+03 E0= -.36857604E+03  d E =-.407752E-01  mag=    12.0000
       N       E                     dE             d eps       ncg     rms          ort
SDA:   1    -0.367988334096E+03    0.58770E+00    0.00000E+00  7056   0.158E+01 0.000E+00
CGA:   2    -0.368440202371E+03   -0.45187E+00   -0.45194E+00  7056   0.609E+00 0.806E-03
CGA:   3    -0.368566420103E+03   -0.12622E+00   -0.12634E+00  7056   0.129E+00 0.526E-03
CGA:   4    -0.368592143155E+03   -0.25723E-01   -0.25684E-01  7056   0.233E-01-0.380E-03
CGA:   5    -0.368597917789E+03   -0.57746E-02   -0.57730E-02  7056   0.586E-02-0.220E-04
CGA:   6    -0.368599595962E+03   -0.16782E-02   -0.16785E-02  7056   0.221E-02 0.120E-04
CGA:   7    -0.368600312596E+03   -0.71663E-03   -0.71674E-03  7056   0.983E-03-0.112E-04
CGA:   8    -0.368600662320E+03   -0.34972E-03   -0.35027E-03  7056   0.378E-03-0.123E-04
CGA:   9    -0.368600789570E+03   -0.12725E-03   -0.12744E-03  7056   0.122E-03-0.758E-05
CGA:  10    -0.368600828423E+03   -0.38852E-04   -0.38809E-04  7056   0.398E-04 0.509E-05
CGA:  11    -0.368600844795E+03   -0.16373E-04   -0.16203E-04  7056   0.186E-04 0.232E-05
CGA:  12    -0.368600851674E+03   -0.68784E-05   -0.67864E-05  7056   0.751E-05 0.371E-05
   8 F= -.36860085E+03 E0= -.36860085E+03  d E =-.248067E-01  mag=    12.0000
       N       E                     dE             d eps       ncg     rms          ort
SDA:   1    -0.368142479531E+03    0.45837E+00    0.00000E+00  7056   0.122E+01 0.000E+00
CGA:   2    -0.368510734474E+03   -0.36825E+00   -0.36826E+00  7056   0.472E+00-0.664E-04
CGA:   3    -0.368603043337E+03   -0.92309E-01   -0.92452E-01  7056   0.901E-01 0.739E-03
CGA:   4    -0.368621085114E+03   -0.18042E-01   -0.18006E-01  7056   0.161E-01-0.358E-03
CGA:   5    -0.368624994107E+03   -0.39090E-02   -0.39004E-02  7056   0.369E-02-0.125E-03
CGA:   6    -0.368625966956E+03   -0.97285E-03   -0.97467E-03  7056   0.121E-02 0.414E-04
CGA:   7    -0.368626347554E+03   -0.38060E-03   -0.38045E-03  7056   0.514E-03 0.303E-04
CGA:   8    -0.368626553139E+03   -0.20559E-03   -0.20784E-03  7056   0.239E-03-0.258E-04
CGA:   9    -0.368626633526E+03   -0.80387E-04   -0.81153E-04  7056   0.800E-04-0.165E-04
CGA:  10    -0.368626657449E+03   -0.23923E-04   -0.23906E-04  7056   0.245E-04 0.233E-05
CGA:  11    -0.368626667613E+03   -0.10164E-04   -0.10099E-04  7056   0.118E-04 0.732E-06
CGA:  12    -0.368626672556E+03   -0.49435E-05   -0.48271E-05  7056   0.523E-05 0.149E-05
   9 F= -.36862667E+03 E0= -.36862667E+03  d E =-.258209E-01  mag=    12.0000
       N       E                     dE             d eps       ncg     rms          ort
SDA:   1    -0.365768998745E+03    0.28577E+01    0.00000E+00  7056   0.699E+01 0.000E+00
CGA:   2    -0.368031625500E+03   -0.22626E+01   -0.22626E+01  7056   0.270E+01-0.605E-02
CGA:   3    -0.368536159977E+03   -0.50453E+00   -0.50537E+00  7056   0.466E+00 0.391E-02
CGA:   4    -0.368628679917E+03   -0.92520E-01   -0.92527E-01  7056   0.856E-01-0.256E-03
CGA:   5    -0.368649343147E+03   -0.20663E-01   -0.20625E-01  7056   0.188E-01-0.573E-03
CGA:   6    -0.368654163044E+03   -0.48199E-02   -0.48229E-02  7056   0.585E-02 0.532E-04
CGA:   7    -0.368655991192E+03   -0.18281E-02   -0.18278E-02  7056   0.250E-02 0.464E-04
CGA:   8    -0.368656962271E+03   -0.97108E-03   -0.98063E-03  7056   0.117E-02-0.112E-03
CGA:   9    -0.368657357109E+03   -0.39484E-03   -0.39929E-03  7056   0.404E-03-0.886E-04
CGA:  10    -0.368657484310E+03   -0.12720E-03   -0.12787E-03  7056   0.134E-03-0.214E-04
CGA:  11    -0.368657538173E+03   -0.53862E-04   -0.54996E-04  7056   0.711E-04-0.951E-05
CGA:  12    -0.368657570671E+03   -0.32498E-04   -0.34696E-04  7056   0.485E-04-0.108E-04
CGA:  13    -0.368657580561E+03   -0.98901E-05   -0.10597E-04  7056   0.184E-04 0.982E-05
  10 F= -.36865758E+03 E0= -.36865758E+03  d E =-.309080E-01  mag=    12.0000
       N       E                     dE             d eps       ncg     rms          ort
SDA:   1    -0.349488113430E+03    0.19169E+02    0.00000E+00  7056   0.467E+02 0.000E+00
CGA:   2    -0.363462256582E+03   -0.13974E+02   -0.13980E+02  7056   0.182E+02 0.665E-01
CGA:   3    -0.367103929316E+03   -0.36417E+01   -0.36482E+01  7056   0.376E+01 0.164E-01
CGA:   4    -0.367868453148E+03   -0.76452E+00   -0.76498E+00  7056   0.739E+00 0.195E-02
CGA:   5    -0.368051382098E+03   -0.18293E+00   -0.18290E+00  7056   0.194E+00-0.805E-03
CGA:   6    -0.368106715965E+03   -0.55334E-01   -0.55327E-01  7056   0.718E-01-0.397E-03
CGA:   7    -0.368129002599E+03   -0.22287E-01   -0.22287E-01  7056   0.284E-01-0.228E-03
CGA:   8    -0.368138564888E+03   -0.95623E-02   -0.95688E-02  7056   0.945E-02-0.223E-03
CGA:   9    -0.368141646202E+03   -0.30813E-02   -0.30857E-02  7056   0.283E-02-0.226E-03
CGA:  10    -0.368142614860E+03   -0.96866E-03   -0.97871E-03  7056   0.103E-02-0.231E-03
CGA:  11    -0.368142976210E+03   -0.36135E-03   -0.36300E-03  7056   0.462E-03-0.234E-04
CGA:  12    -0.368143163601E+03   -0.18739E-03   -0.18933E-03  7056   0.270E-03-0.191E-04
CGA:  13    -0.368143247905E+03   -0.84304E-04   -0.84184E-04  7056   0.101E-03 0.337E-04
CGA:  14    -0.368143295243E+03   -0.47338E-04   -0.48298E-04  7056   0.485E-04-0.940E-05
CGA:  15    -0.368143315433E+03   -0.20190E-04   -0.23663E-04  7056   0.345E-04-0.164E-04
CGA:  16    -0.368143317408E+03   -0.19750E-05   -0.35880E-05  7056   0.163E-04 0.890E-05
  11 F= -.36814332E+03 E0= -.36814332E+03  d E =0.514263E+00  mag=    12.0000
       N       E                     dE             d eps       ncg     rms          ort
SDA:   1    -0.361845141611E+03    0.62982E+01    0.00000E+00  7056   0.161E+02 0.000E+00
CGA:   2    -0.367166362724E+03   -0.53212E+01   -0.53221E+01  7056   0.478E+01-0.674E-01
CGA:   3    -0.368344789974E+03   -0.11784E+01   -0.11798E+01  7056   0.908E+00 0.665E-02
CGA:   4    -0.368557188639E+03   -0.21240E+00   -0.21231E+00  7056   0.255E+00 0.770E-04
CGA:   5    -0.368617953609E+03   -0.60765E-01   -0.60728E-01  7056   0.790E-01-0.495E-03
CGA:   6    -0.368642670858E+03   -0.24717E-01   -0.24719E-01  7056   0.269E-01-0.510E-03
CGA:   7    -0.368651250858E+03   -0.85800E-02   -0.85812E-02  7056   0.108E-01-0.101E-03
CGA:   8    -0.368654388815E+03   -0.31380E-02   -0.31366E-02  7056   0.338E-02-0.788E-04
CGA:   9    -0.368655470220E+03   -0.10814E-02   -0.10822E-02  7056   0.979E-03-0.643E-04
CGA:  10    -0.368655783597E+03   -0.31338E-03   -0.31296E-03  7056   0.309E-03 0.267E-04
CGA:  11    -0.368655914674E+03   -0.13108E-03   -0.13408E-03  7056   0.157E-03-0.271E-04
CGA:  12    -0.368655974976E+03   -0.60302E-04   -0.60334E-04  7056   0.674E-04-0.226E-06
CGA:  13    -0.368656004683E+03   -0.29707E-04   -0.30228E-04  7056   0.326E-04-0.409E-05
CGA:  14    -0.368656016000E+03   -0.11316E-04   -0.11211E-04  7056   0.115E-04 0.269E-05
CGA:  15    -0.368656016312E+03   -0.31196E-06   -0.11367E-04  7056   0.466E-04-0.187E-04
  12 F= -.36865602E+03 E0= -.36865602E+03  d E =-.512699E+00  mag=    12.0000
       N       E                     dE             d eps       ncg     rms          ort
SDA:   1    -0.368579266985E+03    0.76749E-01    0.00000E+00  7056   0.304E+00 0.000E+00
CGA:   2    -0.368676166905E+03   -0.96900E-01   -0.96936E-01  7056   0.103E+00 0.921E-03
CGA:   3    -0.368700389687E+03   -0.24223E-01   -0.24198E-01  7056   0.235E-01-0.263E-03
CGA:   4    -0.368705196972E+03   -0.48073E-02   -0.47840E-02  7056   0.555E-02-0.189E-03
CGA:   5    -0.368706564628E+03   -0.13677E-02   -0.13666E-02  7056   0.155E-02-0.133E-04
CGA:   6    -0.368707019724E+03   -0.45510E-03   -0.45769E-03  7056   0.536E-03 0.743E-04
CGA:   7    -0.368707176324E+03   -0.15660E-03   -0.15877E-03  7056   0.192E-03 0.463E-04
CGA:   8    -0.368707250673E+03   -0.74349E-04   -0.74659E-04  7056   0.725E-04-0.102E-04
CGA:   9    -0.368707275218E+03   -0.24545E-04   -0.24859E-04  7056   0.230E-04-0.945E-05
CGA:  10    -0.368707280383E+03   -0.51653E-05   -0.53157E-05  7056   0.562E-05 0.234E-05
  13 F= -.36870728E+03 E0= -.36870728E+03  d E =-.512641E-01  mag=    12.0000
       N       E                     dE             d eps       ncg     rms          ort
SDA:   1    -0.368331374323E+03    0.37590E+00    0.00000E+00  7056   0.966E+00 0.000E+00
CGA:   2    -0.368632764476E+03   -0.30139E+00   -0.30146E+00  7056   0.367E+00 0.320E-02
CGA:   3    -0.368711053772E+03   -0.78289E-01   -0.78237E-01  7056   0.877E-01-0.821E-03
CGA:   4    -0.368728714549E+03   -0.17661E-01   -0.17595E-01  7056   0.175E-01-0.606E-03
CGA:   5    -0.368733130379E+03   -0.44158E-02   -0.44153E-02  7056   0.487E-02-0.123E-04
CGA:   6    -0.368734516945E+03   -0.13866E-02   -0.13918E-02  7056   0.174E-02 0.195E-03
CGA:   7    -0.368735031109E+03   -0.51416E-03   -0.51725E-03  7056   0.604E-03 0.122E-03
CGA:   8    -0.368735264286E+03   -0.23318E-03   -0.23431E-03  7056   0.220E-03-0.217E-04
CGA:   9    -0.368735338949E+03   -0.74663E-04   -0.75840E-04  7056   0.706E-04-0.265E-04
CGA:  10    -0.368735355723E+03   -0.16774E-04   -0.16991E-04  7056   0.169E-04 0.524E-05
CGA:  11    -0.368735361947E+03   -0.62237E-05   -0.62070E-05  7056   0.751E-05 0.552E-06
CGA:  12    -0.368735366884E+03   -0.49372E-05    0.10293E-03  7056   0.332E-05 0.166E-05
CGA:  13    -0.368735369454E+03   -0.25700E-05    0.71237E-04  7056   0.160E-05 0.808E-06
  14 F= -.36873537E+03 E0= -.36873537E+03  d E =-.280891E-01  mag=    12.0000
       N       E                     dE             d eps       ncg     rms          ort
SDA:   1    -0.368725009541E+03    0.10357E-01    0.00000E+00  7056   0.364E-01 0.000E+00
CGA:   2    -0.368735751889E+03   -0.10742E-01   -0.10767E-01  7056   0.177E-01 0.400E-03
CGA:   3    -0.368739134699E+03   -0.33828E-02   -0.33598E-02  7056   0.313E-02-0.165E-03
CGA:   4    -0.368739831186E+03   -0.69649E-03   -0.67597E-03  7056   0.653E-03-0.165E-03
CGA:   5    -0.368739969134E+03   -0.13795E-03   -0.13907E-03  7056   0.147E-03 0.980E-05
CGA:   6    -0.368739997010E+03   -0.27876E-04   -0.31921E-04  7056   0.396E-04 0.342E-04
CGA:   7    -0.368740005788E+03   -0.87783E-05   -0.10598E-04  7056   0.158E-04 0.168E-04
  15 F= -.36874001E+03 E0= -.36874001E+03  d E =-.463633E-02  mag=    12.0000
       N       E                     dE             d eps       ncg     rms          ort
SDA:   1    -0.368526885352E+03    0.21311E+00    0.00000E+00  7056   0.536E+00 0.000E+00
CGA:   2    -0.368690701072E+03   -0.16382E+00   -0.16383E+00  7056   0.254E+00 0.121E-02
CGA:   3    -0.368737062187E+03   -0.46361E-01   -0.46301E-01  7056   0.436E-01-0.787E-03
CGA:   4    -0.368746373739E+03   -0.93116E-02   -0.92629E-02  7056   0.850E-02-0.516E-03
CGA:   5    -0.368748311558E+03   -0.19378E-02   -0.19430E-02  7056   0.208E-02 0.671E-04
CGA:   6    -0.368748842729E+03   -0.53117E-03   -0.53701E-03  7056   0.632E-03 0.126E-03
CGA:   7    -0.368749046172E+03   -0.20344E-03   -0.20328E-03  7056   0.243E-03 0.465E-04
CGA:   8    -0.368749145167E+03   -0.98995E-04   -0.10057E-03  7056   0.109E-03-0.184E-04
CGA:   9    -0.368749178323E+03   -0.33156E-04   -0.33346E-04  7056   0.329E-04-0.710E-05
CGA:  10    -0.368749185319E+03   -0.69958E-05   -0.74458E-05  7056   0.959E-05 0.703E-05
  16 F= -.36874919E+03 E0= -.36874919E+03  d E =-.917953E-02  mag=    12.0000
       N       E                     dE             d eps       ncg     rms          ort
SDA:   1    -0.368583158912E+03    0.16602E+00    0.00000E+00  7056   0.408E+00 0.000E+00
CGA:   2    -0.368711484453E+03   -0.12833E+00   -0.12833E+00  7056   0.189E+00-0.163E-03
CGA:   3    -0.368745255739E+03   -0.33771E-01   -0.33742E-01  7056   0.305E-01-0.450E-03
CGA:   4    -0.368751471324E+03   -0.62156E-02   -0.62201E-02  7056   0.570E-02 0.336E-04
CGA:   5    -0.368752800921E+03   -0.13296E-02   -0.13345E-02  7056   0.132E-02 0.760E-04
CGA:   6    -0.368753149408E+03   -0.34849E-03   -0.34908E-03  7056   0.416E-03 0.178E-04
CGA:   7    -0.368753282410E+03   -0.13300E-03   -0.13270E-03  7056   0.169E-03 0.131E-04
CGA:   8    -0.368753345735E+03   -0.63325E-04   -0.63156E-04  7056   0.688E-04 0.242E-05
CGA:   9    -0.368753372328E+03   -0.26593E-04   -0.27877E-04  7056   0.304E-04-0.125E-04
CGA:  10    -0.368753379086E+03   -0.67578E-05   -0.68375E-05  7056   0.899E-05 0.295E-05
  17 F= -.36875338E+03 E0= -.36875338E+03  d E =-.419377E-02  mag=    12.0000
       N       E                     dE             d eps       ncg     rms          ort
SDA:   1    -0.368261462472E+03    0.49191E+00    0.00000E+00  7056   0.122E+01 0.000E+00
CGA:   2    -0.368638161509E+03   -0.37670E+00   -0.37670E+00  7056   0.536E+00-0.177E-02
CGA:   3    -0.368737162341E+03   -0.99001E-01   -0.99047E-01  7056   0.890E-01-0.158E-03
CGA:   4    -0.368754638964E+03   -0.17477E-01   -0.17515E-01  7056   0.159E-01 0.326E-03
CGA:   5    -0.368758483958E+03   -0.38450E-02   -0.38473E-02  7056   0.368E-02 0.395E-04
CGA:   6    -0.368759447388E+03   -0.96343E-03   -0.96336E-03  7056   0.118E-02-0.396E-05
CGA:   7    -0.368759825649E+03   -0.37826E-03   -0.37778E-03  7056   0.518E-03 0.165E-04
CGA:   8    -0.368760023965E+03   -0.19832E-03   -0.19823E-03  7056   0.233E-03 0.901E-06
CGA:   9    -0.368760111020E+03   -0.87055E-04   -0.89317E-04  7056   0.950E-04-0.264E-04
CGA:  10    -0.368760139624E+03   -0.28604E-04   -0.28790E-04  7056   0.321E-04-0.452E-05
CGA:  11    -0.368760152904E+03   -0.13280E-04   -0.14525E-04  7056   0.227E-04-0.726E-05
CGA:  12    -0.368760159832E+03   -0.69275E-05   -0.10999E-04  7056   0.290E-04-0.130E-04
  18 F= -.36876016E+03 E0= -.36876016E+03  d E =-.678075E-02  mag=    12.0000
       N       E                     dE             d eps       ncg     rms          ort
SDA:   1    -0.365366896876E+03    0.33933E+01    0.00000E+00  7056   0.847E+01 0.000E+00
CGA:   2    -0.367944215473E+03   -0.25773E+01   -0.25773E+01  7056   0.355E+01-0.346E-02
CGA:   3    -0.368622831696E+03   -0.67862E+00   -0.67917E+00  7056   0.614E+00 0.456E-03
CGA:   4    -0.368741165112E+03   -0.11833E+00   -0.11841E+00  7056   0.107E+00 0.137E-03
CGA:   5    -0.368767242973E+03   -0.26078E-01   -0.26070E-01  7056   0.247E-01-0.139E-03
CGA:   6    -0.368773632887E+03   -0.63899E-02   -0.63963E-02  7056   0.805E-02 0.125E-03
CGA:   7    -0.368776250916E+03   -0.26180E-02   -0.26169E-02  7056   0.373E-02 0.571E-04
CGA:   8    -0.368777718908E+03   -0.14680E-02   -0.14777E-02  7056   0.183E-02-0.111E-03
CGA:   9    -0.368778342354E+03   -0.62345E-03   -0.62838E-03  7056   0.653E-03-0.110E-03
CGA:  10    -0.368778554616E+03   -0.21226E-03   -0.21364E-03  7056   0.232E-03-0.378E-04
CGA:  11    -0.368778644492E+03   -0.89876E-04   -0.91553E-04  7056   0.122E-03-0.159E-04
CGA:  12    -0.368778697137E+03   -0.52645E-04   -0.62408E-04  7056   0.112E-03-0.423E-04
CGA:  13    -0.368778717324E+03   -0.20187E-04   -0.19979E-04  7056   0.436E-04-0.367E-05
CGA:  14    -0.368778729431E+03   -0.12107E-04   -0.12041E-04  7056   0.157E-04-0.158E-05
CGA:  15    -0.368778733240E+03   -0.38087E-05   -0.94882E-05  7056   0.420E-04-0.188E-04
  19 F= -.36877873E+03 E0= -.36877873E+03  d E =-.185734E-01  mag=    12.0000
       N       E                     dE             d eps       ncg     rms          ort
SDA:   1    -0.352753120016E+03    0.16026E+02    0.00000E+00  7056   0.402E+02 0.000E+00
CGA:   2    -0.364911627104E+03   -0.12159E+02   -0.12163E+02  7056   0.153E+02 0.478E-01
CGA:   3    -0.368044842512E+03   -0.31332E+01   -0.31372E+01  7056   0.282E+01 0.119E-01
CGA:   4    -0.368574303592E+03   -0.52946E+00   -0.52965E+00  7056   0.530E+00-0.230E-02
CGA:   5    -0.368703829773E+03   -0.12953E+00   -0.12952E+00  7056   0.124E+00-0.209E-03
CGA:   6    -0.368737313617E+03   -0.33484E-01   -0.33507E-01  7056   0.444E-01 0.457E-03
CGA:   7    -0.368751550333E+03   -0.14237E-01   -0.14237E-01  7056   0.205E-01-0.752E-04
CGA:   8    -0.368759150023E+03   -0.75997E-02   -0.76262E-02  7056   0.888E-02-0.448E-03
CGA:   9    -0.368762088388E+03   -0.29384E-02   -0.29452E-02  7056   0.291E-02-0.294E-03
CGA:  10    -0.368763060811E+03   -0.97242E-03   -0.97589E-03  7056   0.106E-02-0.117E-03
CGA:  11    -0.368763471978E+03   -0.41117E-03   -0.41215E-03  7056   0.546E-03-0.113E-04
CGA:  12    -0.368763708328E+03   -0.23635E-03   -0.24054E-03  7056   0.324E-03-0.344E-04
CGA:  13    -0.368763809570E+03   -0.10124E-03   -0.10116E-03  7056   0.108E-03 0.188E-04
CGA:  14    -0.368763851790E+03   -0.42220E-04   -0.42441E-04  7056   0.349E-04-0.533E-05
CGA:  15    -0.368763865463E+03   -0.13673E-04   -0.24280E-04  7056   0.473E-04-0.264E-04
CGA:  16    -0.368763878900E+03   -0.13438E-04   -0.13581E-04  7056   0.607E-05 0.225E-05
CGA:  17    -0.368763884124E+03   -0.52236E-05    0.61301E-05  7056   0.228E-05 0.149E-05
CGA:  18    -0.368763886103E+03   -0.19786E-05    0.20001E-03  7056   0.116E-05 0.118E-05
  20 F= -.36876389E+03 E0= -.36876389E+03  d E =0.148471E-01  mag=    12.0000
       N       E                     dE             d eps       ncg     rms          ort
SDA:   1    -0.367622687550E+03    0.11412E+01    0.00000E+00  7056   0.331E+01 0.000E+00
CGA:   2    -0.368459176767E+03   -0.83649E+00   -0.83634E+00  7056   0.141E+01-0.343E-02
CGA:   3    -0.368755030027E+03   -0.29585E+00   -0.29608E+00  7056   0.310E+00 0.149E-03
CGA:   4    -0.368817489040E+03   -0.62459E-01   -0.62582E-01  7056   0.558E-01 0.803E-03
CGA:   5    -0.368831130585E+03   -0.13642E-01   -0.13651E-01  7056   0.142E-01 0.107E-03
CGA:   6    -0.368835161042E+03   -0.40305E-02   -0.40157E-02  7056   0.542E-02-0.341E-03
CGA:   7    -0.368836814889E+03   -0.16538E-02   -0.16524E-02  7056   0.210E-02-0.137E-03
CGA:   8    -0.368837508050E+03   -0.69316E-03   -0.69330E-03  7056   0.743E-03-0.857E-05
CGA:   9    -0.368837746077E+03   -0.23803E-03   -0.23804E-03  7056   0.235E-03 0.569E-05
CGA:  10    -0.368837831801E+03   -0.85724E-04   -0.86301E-04  7056   0.930E-04-0.141E-04
CGA:  11    -0.368837870244E+03   -0.38443E-04   -0.40814E-04  7056   0.591E-04-0.168E-04
CGA:  12    -0.368837887929E+03   -0.17685E-04   -0.17657E-04  7056   0.252E-04 0.852E-06
CGA:  13    -0.368837897777E+03   -0.98478E-05   -0.10098E-04  7056   0.130E-04-0.414E-05
  21 F= -.36883790E+03 E0= -.36883790E+03  d E =-.740117E-01  mag=    12.0000
       N       E                     dE             d eps       ncg     rms          ort
SDA:   1    -0.368462279509E+03    0.37561E+00    0.00000E+00  7056   0.943E+00 0.000E+00
CGA:   2    -0.368751991943E+03   -0.28971E+00   -0.28975E+00  7056   0.382E+00 0.884E-03
CGA:   3    -0.368826918672E+03   -0.74927E-01   -0.74956E-01  7056   0.704E-01-0.182E-03
CGA:   4    -0.368840536447E+03   -0.13618E-01   -0.13596E-01  7056   0.131E-01-0.193E-03
CGA:   5    -0.368843773861E+03   -0.32374E-02   -0.32325E-02  7056   0.317E-02-0.677E-04
CGA:   6    -0.368844633022E+03   -0.85916E-03   -0.85911E-03  7056   0.113E-02-0.269E-05
CGA:   7    -0.368845001746E+03   -0.36872E-03   -0.36897E-03  7056   0.520E-03-0.239E-04
CGA:   8    -0.368845198107E+03   -0.19636E-03   -0.19979E-03  7056   0.243E-03-0.456E-04
CGA:   9    -0.368845269738E+03   -0.71631E-04   -0.71644E-04  7056   0.740E-04-0.502E-05
CGA:  10    -0.368845291289E+03   -0.21551E-04   -0.21708E-04  7056   0.238E-04 0.738E-05
CGA:  11    -0.368845302262E+03   -0.10973E-04   -0.11038E-04  7056   0.144E-04-0.649E-06
CGA:  12    -0.368845306111E+03   -0.38495E-05   -0.40104E-05  7056   0.587E-05 0.419E-05
  22 F= -.36884531E+03 E0= -.36884531E+03  d E =-.740833E-02  mag=    12.0000
       N       E                     dE             d eps       ncg     rms          ort
SDA:   1    -0.368604297105E+03    0.24101E+00    0.00000E+00  7056   0.624E+00 0.000E+00
CGA:   2    -0.368791437275E+03   -0.18714E+00   -0.18713E+00  7056   0.246E+00-0.899E-03
CGA:   3    -0.368840993280E+03   -0.49556E-01   -0.49564E-01  7056   0.436E-01-0.150E-03
CGA:   4    -0.368849135286E+03   -0.81420E-02   -0.81682E-02  7056   0.779E-02 0.180E-03
CGA:   5    -0.368850999141E+03   -0.18639E-02   -0.18660E-02  7056   0.166E-02 0.316E-04
CGA:   6    -0.368851443202E+03   -0.44406E-03   -0.44364E-03  7056   0.556E-03-0.128E-04
CGA:   7    -0.368851613614E+03   -0.17041E-03   -0.17036E-03  7056   0.242E-03 0.567E-05
CGA:   8    -0.368851705420E+03   -0.91805E-04   -0.91648E-04  7056   0.109E-03 0.211E-05
CGA:   9    -0.368851744755E+03   -0.39335E-04   -0.39643E-04  7056   0.401E-04-0.542E-05
CGA:  10    -0.368851759035E+03   -0.14280E-04   -0.14808E-04  7056   0.169E-04-0.645E-05
CGA:  11    -0.368851764545E+03   -0.55094E-05   -0.55513E-05  7056   0.727E-05-0.530E-06
CGA:  12    -0.368851768988E+03   -0.44434E-05    0.58012E-03  7056   0.280E-05 0.156E-05
  23 F= -.36885177E+03 E0= -.36885177E+03  d E =-.646288E-02  mag=    12.0000
       N       E                     dE             d eps       ncg     rms          ort
SDA:   1    -0.360142761620E+03    0.87090E+01    0.00000E+00  7056   0.219E+02 0.000E+00
CGA:   2    -0.366766813012E+03   -0.66241E+01   -0.66254E+01  7056   0.841E+01 0.160E-01
CGA:   3    -0.368480328732E+03   -0.17135E+01   -0.17145E+01  7056   0.150E+01-0.720E-03
CGA:   4    -0.368761412887E+03   -0.28108E+00   -0.28118E+00  7056   0.281E+00-0.441E-03
CGA:   5    -0.368828561336E+03   -0.67148E-01   -0.67152E-01  7056   0.610E-01-0.144E-04
CGA:   6    -0.368844907117E+03   -0.16346E-01   -0.16345E-01  7056   0.208E-01-0.550E-04
CGA:   7    -0.368851469860E+03   -0.65627E-02   -0.65626E-02  7056   0.936E-02 0.120E-04
CGA:   8    -0.368855034193E+03   -0.35643E-02   -0.35842E-02  7056   0.424E-02-0.269E-03
CGA:   9    -0.368856464923E+03   -0.14307E-02   -0.14382E-02  7056   0.143E-02-0.204E-03
CGA:  10    -0.368856933582E+03   -0.46866E-03   -0.47056E-03  7056   0.497E-03-0.598E-04
CGA:  11    -0.368857131533E+03   -0.19795E-03   -0.19964E-03  7056   0.259E-03-0.165E-04
CGA:  12    -0.368857247684E+03   -0.11615E-03   -0.12136E-03  7056   0.172E-03-0.320E-04
CGA:  13    -0.368857294600E+03   -0.46917E-04   -0.47028E-04  7056   0.632E-04 0.617E-05
CGA:  14    -0.368857317526E+03   -0.22926E-04   -0.23107E-04  7056   0.210E-04-0.738E-05
CGA:  15    -0.368857325805E+03   -0.82787E-05   -0.11262E-04  7056   0.169E-04-0.107E-04
  24 F= -.36885733E+03 E0= -.36885733E+03  d E =-.555682E-02  mag=    12.0000
       N       E                     dE             d eps       ncg     rms          ort
SDA:   1    -0.364469360083E+03    0.43880E+01    0.00000E+00  7056   0.112E+02 0.000E+00
CGA:   2    -0.367774269504E+03   -0.33049E+01   -0.33057E+01  7056   0.431E+01 0.312E-02
CGA:   3    -0.368659020579E+03   -0.88475E+00   -0.88495E+00  7056   0.828E+00-0.333E-02
CGA:   4    -0.368816760581E+03   -0.15774E+00   -0.15775E+00  7056   0.154E+00-0.386E-03
CGA:   5    -0.368853869219E+03   -0.37109E-01   -0.37108E-01  7056   0.354E-01-0.333E-04
CGA:   6    -0.368863805882E+03   -0.99367E-02   -0.99311E-02  7056   0.130E-01-0.135E-03
CGA:   7    -0.368867949651E+03   -0.41438E-02   -0.41445E-02  7056   0.593E-02 0.142E-03
CGA:   8    -0.368870217791E+03   -0.22681E-02   -0.22749E-02  7056   0.262E-02-0.123E-03
CGA:   9    -0.368871126942E+03   -0.90915E-03   -0.91290E-03  7056   0.931E-03-0.131E-03
CGA:  10    -0.368871425105E+03   -0.29816E-03   -0.29811E-03  7056   0.321E-03 0.604E-05
CGA:  11    -0.368871566562E+03   -0.14146E-03   -0.14608E-03  7056   0.200E-03-0.378E-04
CGA:  12    -0.368871633169E+03   -0.66607E-04   -0.66523E-04  7056   0.871E-04 0.194E-05
CGA:  13    -0.368871667026E+03   -0.33857E-04   -0.34591E-04  7056   0.375E-04-0.132E-04
CGA:  14    -0.368871675079E+03   -0.80526E-05   -0.84854E-05  7056   0.106E-04 0.590E-05
  25 F= -.36887168E+03 E0= -.36887168E+03  d E =-.143493E-01  mag=    12.0000
       N       E                     dE             d eps       ncg     rms          ort
SDA:   1    -0.365322574415E+03    0.35491E+01    0.00000E+00  7056   0.889E+01 0.000E+00
CGA:   2    -0.368001051942E+03   -0.26785E+01   -0.26786E+01  7056   0.351E+01-0.231E-03
CGA:   3    -0.368707252678E+03   -0.70620E+00   -0.70658E+00  7056   0.649E+00-0.343E-03
CGA:   4    -0.368831555334E+03   -0.12430E+00   -0.12442E+00  7056   0.118E+00 0.496E-03
CGA:   5    -0.368860157559E+03   -0.28602E-01   -0.28616E-01  7056   0.274E-01 0.154E-03
CGA:   6    -0.368867745427E+03   -0.75879E-02   -0.75686E-02  7056   0.956E-02-0.449E-03
CGA:   7    -0.368870793460E+03   -0.30480E-02   -0.30517E-02  7056   0.440E-02-0.523E-03
CGA:   8    -0.368872259559E+03   -0.14661E-02   -0.14690E-02  7056   0.167E-02-0.813E-04
CGA:   9    -0.368872789579E+03   -0.53002E-03   -0.52996E-03  7056   0.515E-03 0.130E-04
CGA:  10    -0.368872973401E+03   -0.18382E-03   -0.18458E-03  7056   0.194E-03-0.212E-04
CGA:  11    -0.368873043939E+03   -0.70538E-04   -0.69718E-04  7056   0.850E-04 0.151E-04
CGA:  12    -0.368873067952E+03   -0.24012E-04   -0.25583E-04  7056   0.354E-04 0.350E-04
CGA:  13    -0.368873080458E+03   -0.12506E-04   -0.13497E-04  7056   0.157E-04 0.190E-04
CGA:  14    -0.368873088269E+03   -0.78113E-05   -0.79228E-05  7056   0.125E-04-0.610E-06
  26 F= -.36887309E+03 E0= -.36887309E+03  d E =-.141319E-02  mag=    12.0000
       N       E                     dE             d eps       ncg     rms          ort
SDA:   1    -0.368537627403E+03    0.33545E+00    0.00000E+00  7056   0.896E+00 0.000E+00
CGA:   2    -0.368788696098E+03   -0.25107E+00   -0.25108E+00  7056   0.358E+00-0.108E-03
CGA:   3    -0.368862318111E+03   -0.73622E-01   -0.73747E-01  7056   0.792E-01 0.695E-03
CGA:   4    -0.368878461682E+03   -0.16144E-01   -0.16154E-01  7056   0.153E-01 0.351E-04
CGA:   5    -0.368882254489E+03   -0.37928E-02   -0.37945E-02  7056   0.397E-02 0.265E-04
CGA:   6    -0.368883387256E+03   -0.11328E-02   -0.11347E-02  7056   0.150E-02 0.103E-03
CGA:   7    -0.368883894516E+03   -0.50726E-03   -0.50862E-03  7056   0.674E-03-0.501E-04
CGA:   8    -0.368884114000E+03   -0.21948E-03   -0.21906E-03  7056   0.227E-03 0.136E-04
CGA:   9    -0.368884188582E+03   -0.74581E-04   -0.74400E-04  7056   0.725E-04 0.123E-04
CGA:  10    -0.368884217564E+03   -0.28982E-04   -0.29270E-04  7056   0.332E-04-0.381E-05
CGA:  11    -0.368884224900E+03   -0.73358E-05   -0.79891E-05  7056   0.131E-04 0.115E-04
  27 F= -.36888422E+03 E0= -.36888422E+03  d E =-.111366E-01  mag=    12.0000
       N       E                     dE             d eps       ncg     rms          ort
SDA:   1    -0.368641056064E+03    0.24316E+00    0.00000E+00  7056   0.635E+00 0.000E+00
CGA:   2    -0.368827721156E+03   -0.18667E+00   -0.18668E+00  7056   0.244E+00 0.632E-03
CGA:   3    -0.368877953360E+03   -0.50232E-01   -0.50168E-01  7056   0.471E-01-0.858E-03
CGA:   4    -0.368886906683E+03   -0.89533E-02   -0.89356E-02  7056   0.851E-02-0.195E-03
CGA:   5    -0.368888929804E+03   -0.20231E-02   -0.20201E-02  7056   0.191E-02-0.550E-04
CGA:   6    -0.368889432963E+03   -0.50316E-03   -0.50405E-03  7056   0.632E-03 0.342E-04
CGA:   7    -0.368889613235E+03   -0.18027E-03   -0.18104E-03  7056   0.244E-03 0.840E-04
CGA:   8    -0.368889726704E+03   -0.11347E-03   -0.11467E-03  7056   0.141E-03-0.962E-05
CGA:   9    -0.368889777823E+03   -0.51120E-04   -0.53684E-04  7056   0.638E-04-0.253E-04
CGA:  10    -0.368889791628E+03   -0.13805E-04   -0.14005E-04  7056   0.195E-04 0.596E-05
CGA:  11    -0.368889799946E+03   -0.83179E-05   -0.89029E-05  7056   0.150E-04-0.497E-05
CGA:  12    -0.368889806810E+03   -0.68643E-05    0.71641E-03  7056   0.797E-05 0.737E-06
CGA:  13    -0.368889742058E+03    0.64752E-04   -0.34882E-04  7056   0.268E-03-0.498E-04
CGA:  14    -0.368889804906E+03   -0.62848E-04   -0.68006E-04  7056   0.156E-04 0.169E-04
CGA:  15    -0.368889811038E+03   -0.61314E-05   -0.65891E-05  7056   0.565E-05 0.317E-05
  28 F= -.36888981E+03 E0= -.36888981E+03  d E =-.558614E-02  mag=    12.0000
       N       E                     dE             d eps       ncg     rms          ort
SDA:   1    -0.368635472345E+03    0.25433E+00    0.00000E+00  7056   0.661E+00 0.000E+00
CGA:   2    -0.368824404131E+03   -0.18893E+00   -0.18915E+00  7056   0.301E+00 0.447E-03
CGA:   3    -0.368881893502E+03   -0.57489E-01   -0.57362E-01  7056   0.526E-01-0.724E-03
CGA:   4    -0.368892426960E+03   -0.10533E-01   -0.10469E-01  7056   0.881E-02-0.235E-03
CGA:   5    -0.368894510141E+03   -0.20832E-02   -0.20785E-02  7056   0.205E-02-0.216E-04
CGA:   6    -0.368895005409E+03   -0.49527E-03   -0.50704E-03  7056   0.577E-03 0.503E-04
CGA:   7    -0.368895173250E+03   -0.16784E-03   -0.17494E-03  7056   0.220E-03 0.417E-04
CGA:   8    -0.368895267222E+03   -0.93972E-04   -0.93347E-04  7056   0.110E-03-0.103E-04
CGA:   9    -0.368895306196E+03   -0.38974E-04   -0.37941E-04  7056   0.394E-04-0.114E-04
CGA:  10    -0.368895315625E+03   -0.94289E-05   -0.99155E-05  7056   0.111E-04 0.288E-05
  29 F= -.36889532E+03 E0= -.36889532E+03  d E =-.550459E-02  mag=    12.0000
       N       E                     dE             d eps       ncg     rms          ort
SDA:   1    -0.351527419837E+03    0.17368E+02    0.00000E+00  7056   0.437E+02 0.000E+00
CGA:   2    -0.364405368572E+03   -0.12878E+02   -0.12892E+02  7056   0.196E+02 0.558E-02
CGA:   3    -0.368064821154E+03   -0.36595E+01   -0.36727E+01  7056   0.323E+01 0.457E-01
CGA:   4    -0.368718063619E+03   -0.65324E+00   -0.65342E+00  7056   0.566E+00 0.975E-03
CGA:   5    -0.368853314839E+03   -0.13525E+00   -0.13529E+00  7056   0.134E+00-0.146E-03
CGA:   6    -0.368887835481E+03   -0.34521E-01   -0.34467E-01  7056   0.406E-01-0.461E-03
CGA:   7    -0.368900870519E+03   -0.13035E-01   -0.13008E-01  7056   0.172E-01-0.399E-03
CGA:   8    -0.368907130538E+03   -0.62600E-02   -0.62498E-02  7056   0.700E-02-0.464E-03
CGA:   9    -0.368909476825E+03   -0.23463E-02   -0.23320E-02  7056   0.216E-02-0.316E-03
CGA:  10    -0.368910168303E+03   -0.69148E-03   -0.68788E-03  7056   0.680E-03-0.700E-04
CGA:  11    -0.368910434627E+03   -0.26632E-03   -0.26697E-03  7056   0.360E-03-0.284E-04
CGA:  12    -0.368910579651E+03   -0.14502E-03   -0.14476E-03  7056   0.216E-03 0.730E-05
CGA:  13    -0.368910670320E+03   -0.90669E-04   -0.90949E-04  7056   0.113E-03-0.105E-04
CGA:  14    -0.368910705607E+03   -0.35287E-04   -0.35789E-04  7056   0.334E-04 0.937E-05
CGA:  15    -0.368910722141E+03   -0.16534E-04   -0.17219E-04  7056   0.178E-04-0.754E-05
CGA:  16    -0.368910733578E+03   -0.11437E-04    0.40863E-04  7056   0.729E-05 0.127E-05
CGA:  17    -0.368910737343E+03   -0.37651E-05   -0.45779E-05  7056   0.820E-05-0.412E-05
  30 F= -.36891074E+03 E0= -.36891074E+03  d E =-.154217E-01  mag=    12.0000
       N       E                     dE             d eps       ncg     rms          ort
SDA:   1    -0.351432060298E+03    0.17479E+02    0.00000E+00  7056   0.428E+02 0.000E+00
CGA:   2    -0.364963084212E+03   -0.13531E+02   -0.13537E+02  7056   0.166E+02-0.294E-02
CGA:   3    -0.368147137982E+03   -0.31841E+01   -0.31922E+01  7056   0.294E+01 0.305E-01
CGA:   4    -0.368719728774E+03   -0.57259E+00   -0.57337E+00  7056   0.548E+00 0.339E-02
CGA:   5    -0.368852222273E+03   -0.13249E+00   -0.13248E+00  7056   0.123E+00-0.287E-03
CGA:   6    -0.368885482512E+03   -0.33260E-01   -0.33117E-01  7056   0.419E-01-0.128E-02
CGA:   7    -0.368898693691E+03   -0.13211E-01   -0.13177E-01  7056   0.182E-01-0.533E-03
CGA:   8    -0.368905285410E+03   -0.65917E-02   -0.65872E-02  7056   0.738E-02-0.349E-03
CGA:   9    -0.368907784682E+03   -0.24993E-02   -0.24874E-02  7056   0.241E-02-0.331E-03
CGA:  10    -0.368908576507E+03   -0.79182E-03   -0.78860E-03  7056   0.837E-03-0.939E-04
CGA:  11    -0.368908905830E+03   -0.32932E-03   -0.32988E-03  7056   0.455E-03-0.165E-04
CGA:  12    -0.368909069479E+03   -0.16365E-03   -0.16421E-03  7056   0.225E-03 0.603E-04
CGA:  13    -0.368909177757E+03   -0.10828E-03   -0.10877E-03  7056   0.117E-03-0.981E-05
CGA:  14    -0.368909216226E+03   -0.38469E-04   -0.38847E-04  7056   0.350E-04 0.118E-04
CGA:  15    -0.368909234856E+03   -0.18630E-04   -0.21561E-04  7056   0.299E-04-0.162E-04
CGA:  16    -0.368909247484E+03   -0.12627E-04    0.22106E-03  7056   0.178E-04-0.151E-05
CGA:  17    -0.368909243008E+03    0.44751E-05   -0.16219E-04  7056   0.811E-04-0.361E-04
CGA:  18    -0.368909267385E+03   -0.24377E-04   -0.24501E-04  7056   0.523E-05 0.108E-05
CGA:  19    -0.368909267279E+03    0.10585E-06   -0.75364E-06  7056   0.245E-05 0.320E-05
  31 F= -.36890927E+03 E0= -.36890927E+03  d E =0.147006E-02  mag=    12.0000
       N       E                     dE             d eps       ncg     rms          ort
SDA:   1    -0.358855624222E+03    0.10054E+02    0.00000E+00  7056   0.267E+02 0.000E+00
CGA:   2    -0.365684142110E+03   -0.68285E+01   -0.68369E+01  7056   0.128E+02 0.464E-02
CGA:   3    -0.368228342841E+03   -0.25442E+01   -0.25504E+01  7056   0.224E+01 0.161E-01
CGA:   4    -0.368682933898E+03   -0.45459E+00   -0.45438E+00  7056   0.389E+00-0.228E-02
CGA:   5    -0.368775441085E+03   -0.92507E-01   -0.92493E-01  7056   0.956E-01-0.172E-03
CGA:   6    -0.368800134350E+03   -0.24693E-01   -0.24736E-01  7056   0.291E-01 0.365E-03
CGA:   7    -0.368809283265E+03   -0.91489E-02   -0.91442E-02  7056   0.116E-01-0.122E-03
CGA:   8    -0.368813489225E+03   -0.42060E-02   -0.42090E-02  7056   0.464E-02-0.264E-03
CGA:   9    -0.368815010555E+03   -0.15213E-02   -0.15198E-02  7056   0.146E-02-0.960E-04
CGA:  10    -0.368815493443E+03   -0.48289E-03   -0.48239E-03  7056   0.487E-03-0.344E-04
CGA:  11    -0.368815682337E+03   -0.18889E-03   -0.18991E-03  7056   0.253E-03-0.212E-04
CGA:  12    -0.368815767875E+03   -0.85538E-04   -0.85524E-04  7056   0.116E-03 0.317E-04
CGA:  13    -0.368815809797E+03   -0.41922E-04   -0.42649E-04  7056   0.450E-04 0.279E-04
CGA:  14    -0.368815827128E+03   -0.17331E-04   -0.17854E-04  7056   0.169E-04 0.164E-04
CGA:  15    -0.368815832664E+03   -0.55359E-05   -0.62488E-05  7056   0.734E-05 0.901E-05
  32 F= -.36881583E+03 E0= -.36881583E+03  d E =0.934346E-01  mag=    12.0000
       N       E                     dE             d eps       ncg     rms          ort
SDA:   1    -0.365680915106E+03    0.31349E+01    0.00000E+00  7056   0.867E+01 0.000E+00
CGA:   2    -0.367910994692E+03   -0.22301E+01   -0.22310E+01  7056   0.410E+01 0.182E-02
CGA:   3    -0.368722964560E+03   -0.81197E+00   -0.81284E+00  7056   0.764E+00 0.113E-02
CGA:   4    -0.368880526490E+03   -0.15756E+00   -0.15745E+00  7056   0.137E+00-0.144E-02
CGA:   5    -0.368913571327E+03   -0.33045E-01   -0.33027E-01  7056   0.343E-01-0.282E-03
CGA:   6    -0.368922721496E+03   -0.91502E-02   -0.91656E-02  7056   0.114E-01 0.281E-03
CGA:   7    -0.368926353939E+03   -0.36324E-02   -0.36325E-02  7056   0.458E-02 0.132E-04
CGA:   8    -0.368928023311E+03   -0.16694E-02   -0.16744E-02  7056   0.181E-02-0.106E-03
CGA:   9    -0.368928610198E+03   -0.58689E-03   -0.58711E-03  7056   0.583E-03-0.177E-04
CGA:  10    -0.368928809395E+03   -0.19920E-03   -0.19948E-03  7056   0.214E-03-0.113E-04
CGA:  11    -0.368928881094E+03   -0.71698E-04   -0.71223E-04  7056   0.914E-04 0.253E-04
CGA:  12    -0.368928924194E+03   -0.43100E-04   -0.43151E-04  7056   0.539E-04-0.515E-06
CGA:  13    -0.368928939485E+03   -0.15291E-04   -0.15763E-04  7056   0.190E-04 0.140E-04
CGA:  14    -0.368928945044E+03   -0.55592E-05   -0.60991E-05  7056   0.667E-05 0.758E-05
  33 F= -.36892895E+03 E0= -.36892895E+03  d E =-.113112E+00  mag=    12.0000
       N       E                     dE             d eps       ncg     rms          ort
SDA:   1    -0.367895355888E+03    0.10336E+01    0.00000E+00  7056   0.254E+01 0.000E+00
CGA:   2    -0.368695386412E+03   -0.80003E+00   -0.80002E+00  7056   0.104E+01-0.286E-02
CGA:   3    -0.368890345555E+03   -0.19496E+00   -0.19508E+00  7056   0.181E+00-0.717E-04
CGA:   4    -0.368925365561E+03   -0.35020E-01   -0.35114E-01  7056   0.319E-01 0.717E-03
CGA:   5    -0.368933058354E+03   -0.76928E-02   -0.76916E-02  7056   0.708E-02-0.250E-04
CGA:   6    -0.368934965430E+03   -0.19071E-02   -0.18985E-02  7056   0.232E-02-0.250E-03
CGA:   7    -0.368935666562E+03   -0.70113E-03   -0.70187E-03  7056   0.971E-03-0.591E-04
CGA:   8    -0.368936013003E+03   -0.34644E-03   -0.34798E-03  7056   0.402E-03-0.235E-04
CGA:   9    -0.368936154468E+03   -0.14146E-03   -0.14392E-03  7056   0.144E-03-0.396E-04
CGA:  10    -0.368936196514E+03   -0.42046E-04   -0.42079E-04  7056   0.435E-04-0.205E-05
CGA:  11    -0.368936214939E+03   -0.18426E-04   -0.19476E-04  7056   0.288E-04-0.722E-05
CGA:  12    -0.368936221526E+03   -0.65865E-05   -0.68125E-05  7056   0.128E-04 0.697E-05
  34 F= -.36893622E+03 E0= -.36893622E+03  d E =-.727648E-02  mag=    12.0000
       N       E                     dE             d eps       ncg     rms          ort
SDA:   1    -0.365848426341E+03    0.30878E+01    0.00000E+00  7056   0.757E+01 0.000E+00
CGA:   2    -0.368254193344E+03   -0.24058E+01   -0.24058E+01  7056   0.291E+01-0.408E-02
CGA:   3    -0.368815648211E+03   -0.56145E+00   -0.56209E+00  7056   0.514E+00 0.195E-02
CGA:   4    -0.368914191201E+03   -0.98543E-01   -0.98640E-01  7056   0.943E-01 0.481E-03
CGA:   5    -0.368936785161E+03   -0.22594E-01   -0.22580E-01  7056   0.207E-01-0.219E-03
CGA:   6    -0.368942264455E+03   -0.54793E-02   -0.54738E-02  7056   0.661E-02-0.146E-03
CGA:   7    -0.368944356839E+03   -0.20924E-02   -0.20940E-02  7056   0.293E-02-0.106E-03
CGA:   8    -0.368945445487E+03   -0.10886E-02   -0.10971E-02  7056   0.128E-02-0.110E-03
CGA:   9    -0.368945879040E+03   -0.43355E-03   -0.43729E-03  7056   0.427E-03-0.793E-04
CGA:  10    -0.368946012568E+03   -0.13353E-03   -0.13364E-03  7056   0.139E-03-0.495E-05
CGA:  11    -0.368946073660E+03   -0.61092E-04   -0.63947E-04  7056   0.918E-04-0.186E-04
CGA:  12    -0.368946099088E+03   -0.25428E-04   -0.25424E-04  7056   0.405E-04 0.189E-04
CGA:  13    -0.368946118932E+03   -0.19844E-04   -0.20510E-04  7056   0.241E-04-0.659E-05
CGA:  14    -0.368946123773E+03   -0.48414E-05   -0.52180E-05  7056   0.931E-05 0.575E-05
  35 F= -.36894612E+03 E0= -.36894612E+03  d E =-.990225E-02  mag=    12.0000
       N       E                     dE             d eps       ncg     rms          ort
SDA:   1    -0.354074940410E+03    0.14871E+02    0.00000E+00  7056   0.323E+02 0.000E+00
CGA:   2    -0.364456751374E+03   -0.10382E+02   -0.10382E+02  7056   0.103E+02-0.607E-01
CGA:   3    -0.366856698249E+03   -0.23999E+01   -0.24025E+01  7056   0.235E+01 0.864E-02
CGA:   4    -0.367350487546E+03   -0.49379E+00   -0.49389E+00  7056   0.583E+00 0.245E-02
CGA:   5    -0.367496867432E+03   -0.14638E+00   -0.14635E+00  7056   0.169E+00-0.429E-04
CGA:   6    -0.367549596735E+03   -0.52729E-01   -0.52733E-01  7056   0.608E-01-0.513E-03
CGA:   7    -0.367567987100E+03   -0.18390E-01   -0.18390E-01  7056   0.239E-01-0.120E-03
CGA:   8    -0.367575368131E+03   -0.73810E-02   -0.73803E-02  7056   0.710E-02 0.126E-03
CGA:   9    -0.367577806826E+03   -0.24387E-02   -0.24402E-02  7056   0.220E-02-0.397E-04
CGA:  10    -0.367578576386E+03   -0.76956E-03   -0.77283E-03  7056   0.805E-03-0.703E-04
CGA:  11    -0.367578854165E+03   -0.27778E-03   -0.27492E-03  7056   0.327E-03 0.642E-04
CGA:  12    -0.367578988399E+03   -0.13423E-03   -0.13271E-03  7056   0.178E-03 0.233E-04
CGA:  13    -0.367579045027E+03   -0.56628E-04   -0.57294E-04  7056   0.727E-04 0.465E-04
CGA:  14    -0.367579072820E+03   -0.27792E-04   -0.27997E-04  7056   0.293E-04 0.259E-04
CGA:  15    -0.367579084175E+03   -0.11355E-04   -0.11630E-04  7056   0.140E-04 0.136E-04
CGA:  16    -0.367579087052E+03   -0.28774E-05   -0.40979E-05  7056   0.635E-05 0.109E-04
  36 F= -.36757909E+03 E0= -.36757909E+03  d E =0.136704E+01  mag=    12.0000
       N       E                     dE             d eps       ncg     rms          ort
SDA:   1    -0.364655310211E+03    0.29238E+01    0.00000E+00  7056   0.964E+01 0.000E+00
CGA:   2    -0.367750477236E+03   -0.30952E+01   -0.30952E+01  7056   0.303E+01-0.438E-02
CGA:   3    -0.368503145929E+03   -0.75267E+00   -0.75295E+00  7056   0.572E+00 0.155E-02
CGA:   4    -0.368638015244E+03   -0.13487E+00   -0.13489E+00  7056   0.161E+00 0.968E-05
CGA:   5    -0.368675397725E+03   -0.37382E-01   -0.37362E-01  7056   0.504E-01-0.328E-03
CGA:   6    -0.368690881656E+03   -0.15484E-01   -0.15485E-01  7056   0.175E-01-0.397E-03
CGA:   7    -0.368696284685E+03   -0.54030E-02   -0.54033E-02  7056   0.716E-02-0.569E-04
CGA:   8    -0.368698390261E+03   -0.21056E-02   -0.21050E-02  7056   0.224E-02-0.489E-04
CGA:   9    -0.368699122218E+03   -0.73196E-03   -0.73313E-03  7056   0.683E-03-0.484E-04
CGA:  10    -0.368699343320E+03   -0.22110E-03   -0.22052E-03  7056   0.231E-03 0.252E-04
CGA:  11    -0.368699445326E+03   -0.10201E-03   -0.10413E-03  7056   0.129E-03-0.169E-04
CGA:  12    -0.368699495949E+03   -0.50623E-04   -0.50792E-04  7056   0.592E-04-0.148E-05
CGA:  13    -0.368699522373E+03   -0.26424E-04   -0.28315E-04  7056   0.361E-04-0.117E-04
CGA:  14    -0.368699531065E+03   -0.86920E-05   -0.87576E-05  7056   0.127E-04 0.247E-05
  37 F= -.36869953E+03 E0= -.36869953E+03  d E =-.112044E+01  mag=    12.0000
       N       E                     dE             d eps       ncg     rms          ort
SDA:   1    -0.366873207650E+03    0.18263E+01    0.00000E+00  7056   0.493E+01 0.000E+00
CGA:   2    -0.368467010066E+03   -0.15938E+01   -0.15941E+01  7056   0.155E+01 0.513E-02
CGA:   3    -0.368856477520E+03   -0.38947E+00   -0.38960E+00  7056   0.291E+00 0.905E-03
CGA:   4    -0.368926442094E+03   -0.69965E-01   -0.69932E-01  7056   0.807E-01-0.533E-03
CGA:   5    -0.368945378641E+03   -0.18937E-01   -0.18940E-01  7056   0.260E-01-0.277E-05
CGA:   6    -0.368953224376E+03   -0.78457E-02   -0.78486E-02  7056   0.865E-02 0.108E-03
CGA:   7    -0.368955948187E+03   -0.27238E-02   -0.27243E-02  7056   0.356E-02 0.280E-04
CGA:   8    -0.368956988543E+03   -0.10404E-02   -0.10392E-02  7056   0.113E-02-0.325E-04
CGA:   9    -0.368957357027E+03   -0.36848E-03   -0.36860E-03  7056   0.342E-03-0.400E-04
CGA:  10    -0.368957467413E+03   -0.11039E-03   -0.11040E-03  7056   0.116E-03-0.160E-05
CGA:  11    -0.368957517318E+03   -0.49905E-04   -0.52369E-04  7056   0.712E-04-0.198E-04
CGA:  12    -0.368957543421E+03   -0.26102E-04   -0.27878E-04  7056   0.398E-04-0.128E-04
CGA:  13    -0.368957556068E+03   -0.12647E-04   -0.12876E-04  7056   0.185E-04-0.429E-05
CGA:  14    -0.368957562615E+03   -0.65477E-05   -0.69337E-05  7056   0.104E-04-0.498E-05
  38 F= -.36895756E+03 E0= -.36895756E+03  d E =-.258032E+00  mag=    12.0000
       N       E                     dE             d eps       ncg     rms          ort
SDA:   1    -0.368887684098E+03    0.69872E-01    0.00000E+00  7056   0.190E+00 0.000E+00
CGA:   2    -0.368947175204E+03   -0.59491E-01   -0.59532E-01  7056   0.587E-01 0.117E-02
CGA:   3    -0.368961783375E+03   -0.14608E-01   -0.14593E-01  7056   0.141E-01-0.193E-03
CGA:   4    -0.368964765803E+03   -0.29824E-02   -0.29271E-02  7056   0.348E-02-0.434E-03
CGA:   5    -0.368965592618E+03   -0.82681E-03   -0.82399E-03  7056   0.981E-03-0.326E-04
CGA:   6    -0.368965831710E+03   -0.23909E-03   -0.25041E-03  7056   0.285E-03 0.160E-03
CGA:   7    -0.368965909868E+03   -0.78158E-04   -0.83831E-04  7056   0.106E-03 0.784E-04
CGA:   8    -0.368965959278E+03   -0.49410E-04   -0.49379E-04  7056   0.486E-04 0.687E-06
CGA:   9    -0.368965978009E+03   -0.18731E-04   -0.20141E-04  7056   0.251E-04-0.160E-04
CGA:  10    -0.368965982154E+03   -0.41450E-05   -0.41334E-05  7056   0.818E-05-0.146E-06
  39 F= -.36896598E+03 E0= -.36896598E+03  d E =-.841954E-02  mag=    12.0000
       N       E                     dE             d eps       ncg     rms          ort
SDA:   1    -0.368877587353E+03    0.88391E-01    0.00000E+00  7056   0.243E+00 0.000E+00
CGA:   2    -0.368950384251E+03   -0.72797E-01   -0.72841E-01  7056   0.773E-01 0.215E-02
CGA:   3    -0.368968566946E+03   -0.18183E-01   -0.18161E-01  7056   0.222E-01-0.323E-03
CGA:   4    -0.368973093328E+03   -0.45264E-02   -0.44409E-02  7056   0.437E-02-0.773E-03
CGA:   5    -0.368974175557E+03   -0.10822E-02   -0.10765E-02  7056   0.130E-02-0.105E-03
CGA:   6    -0.368974465991E+03   -0.29043E-03   -0.30483E-03  7056   0.366E-03 0.221E-03
CGA:   7    -0.368974551739E+03   -0.85748E-04   -0.96383E-04  7056   0.131E-03 0.137E-03
CGA:   8    -0.368974604038E+03   -0.52299E-04   -0.52563E-04  7056   0.564E-04 0.379E-04
CGA:   9    -0.368974633523E+03   -0.29486E-04   -0.34999E-04  7056   0.506E-04-0.301E-04
CGA:  10    -0.368974640674E+03   -0.71506E-05   -0.86574E-05  7056   0.650E-05 0.110E-04
  40 F= -.36897464E+03 E0= -.36897464E+03  d E =-.865852E-02  mag=    12.0000
       N       E                     dE             d eps       ncg     rms          ort
SDA:   1    -0.368966158447E+03    0.84751E-02    0.00000E+00  7056   0.228E-01 0.000E+00
CGA:   2    -0.368973328726E+03   -0.71703E-02   -0.71670E-02  7056   0.752E-02 0.256E-03
CGA:   3    -0.368975089822E+03   -0.17611E-02   -0.17592E-02  7056   0.175E-02-0.312E-04
CGA:   4    -0.368975474108E+03   -0.38429E-03   -0.37787E-03  7056   0.476E-03-0.799E-04
CGA:   5    -0.368975576851E+03   -0.10274E-03   -0.10351E-03  7056   0.115E-03 0.114E-04
CGA:   6    -0.368975608740E+03   -0.31889E-04   -0.32173E-04  7056   0.392E-04 0.158E-04
CGA:   7    -0.368975623622E+03   -0.14882E-04   -0.15008E-04  7056   0.209E-04-0.269E-05
CGA:   8    -0.368975628866E+03   -0.52434E-05   -0.52882E-05  7056   0.579E-05 0.216E-05
  41 F= -.36897563E+03 E0= -.36897563E+03  d E =-.988192E-03  mag=    12.0000
       N       E                     dE             d eps       ncg     rms          ort
SDA:   1    -0.368969547067E+03    0.60766E-02    0.00000E+00  7056   0.149E-01 0.000E+00
CGA:   2    -0.368973720251E+03   -0.41732E-02   -0.41770E-02  7056   0.583E-02 0.474E-03
CGA:   3    -0.368974936957E+03   -0.12167E-02   -0.12203E-02  7056   0.131E-02 0.362E-04
CGA:   4    -0.368975265584E+03   -0.32863E-03   -0.31961E-03  7056   0.367E-03-0.221E-03
CGA:   5    -0.368975333308E+03   -0.67724E-04   -0.67425E-04  7056   0.806E-04-0.505E-05
CGA:   6    -0.368975340200E+03   -0.68915E-05   -0.11737E-04  7056   0.289E-04 0.371E-04
  42 F= -.36897534E+03 E0= -.36897534E+03  d E =0.288666E-03  mag=    12.0000
       N       E                     dE             d eps       ncg     rms          ort
SDA:   1    -0.368960975588E+03    0.14358E-01    0.00000E+00  7056   0.355E-01 0.000E+00
CGA:   2    -0.368970759353E+03   -0.97838E-02   -0.97780E-02  7056   0.164E-01 0.479E-03
CGA:   3    -0.368973889018E+03   -0.31297E-02   -0.31475E-02  7056   0.280E-02 0.218E-03
CGA:   4    -0.368974537236E+03   -0.64822E-03   -0.63989E-03  7056   0.612E-03-0.240E-03
CGA:   5    -0.368974670231E+03   -0.13300E-03   -0.13224E-03  7056   0.144E-03-0.341E-04
CGA:   6    -0.368974690167E+03   -0.19936E-04   -0.23587E-04  7056   0.380E-04 0.430E-04
CGA:   7    -0.368974695050E+03   -0.48826E-05   -0.73417E-05  7056   0.183E-04 0.235E-04
  43 F= -.36897470E+03 E0= -.36897470E+03  d E =0.645150E-03  mag=    12.0000
       N       E                     dE             d eps       ncg     rms          ort
SDA:   1    -0.368928609540E+03    0.46081E-01    0.00000E+00  7056   0.116E+00 0.000E+00
CGA:   2    -0.368960276499E+03   -0.31667E-01   -0.31660E-01  7056   0.527E-01 0.453E-03
CGA:   3    -0.368970521475E+03   -0.10245E-01   -0.10276E-01  7056   0.936E-02 0.421E-03
CGA:   4    -0.368972407032E+03   -0.18856E-02   -0.18757E-02  7056   0.166E-02-0.176E-03
CGA:   5    -0.368972800887E+03   -0.39385E-03   -0.39339E-03  7056   0.391E-03-0.406E-04
CGA:   6    -0.368972886512E+03   -0.85626E-04   -0.86581E-04  7056   0.107E-03 0.376E-04
CGA:   7    -0.368972924640E+03   -0.38128E-04   -0.37743E-04  7056   0.521E-04 0.550E-05
CGA:   8    -0.368972946080E+03   -0.21440E-04   -0.21382E-04  7056   0.276E-04 0.415E-06
CGA:   9    -0.368972954042E+03   -0.79625E-05   -0.78700E-05  7056   0.875E-05 0.432E-05
  44 F= -.36897295E+03 E0= -.36897295E+03  d E =0.174101E-02  mag=    12.0000
       N       E                     dE             d eps       ncg     rms          ort
SDA:   1    -0.365917546823E+03    0.30554E+01    0.00000E+00  7056   0.759E+01 0.000E+00
CGA:   2    -0.368159754076E+03   -0.22422E+01   -0.22418E+01  7056   0.312E+01 0.124E-01
CGA:   3    -0.368782193017E+03   -0.62244E+00   -0.62281E+00  7056   0.577E+00 0.118E-02
CGA:   4    -0.368894033636E+03   -0.11184E+00   -0.11162E+00  7056   0.104E+00-0.325E-02
CGA:   5    -0.368919136902E+03   -0.25103E-01   -0.25096E-01  7056   0.238E-01-0.303E-03
CGA:   6    -0.368925352523E+03   -0.62156E-02   -0.62204E-02  7056   0.799E-02 0.735E-03
CGA:   7    -0.368927996242E+03   -0.26437E-02   -0.26380E-02  7056   0.367E-02 0.106E-03
CGA:   8    -0.368929420681E+03   -0.14244E-02   -0.14347E-02  7056   0.167E-02-0.896E-04
CGA:   9    -0.368929970092E+03   -0.54941E-03   -0.55121E-03  7056   0.549E-03-0.292E-04
CGA:  10    -0.368930166601E+03   -0.19651E-03   -0.20161E-03  7056   0.229E-03-0.538E-04
CGA:  11    -0.368930245549E+03   -0.78948E-04   -0.78213E-04  7056   0.103E-03 0.772E-05
CGA:  12    -0.368930290768E+03   -0.45219E-04   -0.45924E-04  7056   0.604E-04-0.500E-05
CGA:  13    -0.368930300918E+03   -0.10150E-04   -0.12100E-04  7056   0.211E-04 0.228E-04
CGA:  14    -0.368930305077E+03   -0.41586E-05   -0.53415E-05  7056   0.758E-05 0.110E-04
CGA:  15    -0.368930309573E+03   -0.44962E-05    0.29673E-04  7056   0.333E-05 0.216E-05
  45 F= -.36893031E+03 E0= -.36893031E+03  d E =0.426445E-01  mag=    12.0000
       N       E                     dE             d eps       ncg     rms          ort
SDA:   1    -0.365345957719E+03    0.35843E+01    0.00000E+00  7056   0.895E+01 0.000E+00
CGA:   2    -0.368067214187E+03   -0.27213E+01   -0.27208E+01  7056   0.344E+01 0.100E-01
CGA:   3    -0.368754891384E+03   -0.68768E+00   -0.68797E+00  7056   0.645E+00 0.272E-03
CGA:   4    -0.368880299564E+03   -0.12541E+00   -0.12520E+00  7056   0.122E+00-0.303E-02
CGA:   5    -0.368909618984E+03   -0.29319E-01   -0.29313E-01  7056   0.272E-01-0.216E-03
CGA:   6    -0.368916882780E+03   -0.72638E-02   -0.72647E-02  7056   0.900E-02 0.716E-03
CGA:   7    -0.368919807957E+03   -0.29252E-02   -0.29254E-02  7056   0.407E-02-0.746E-05
CGA:   8    -0.368921318064E+03   -0.15101E-02   -0.15226E-02  7056   0.171E-02-0.121E-03
CGA:   9    -0.368921875029E+03   -0.55697E-03   -0.55889E-03  7056   0.548E-03-0.317E-04
CGA:  10    -0.368922067505E+03   -0.19248E-03   -0.19577E-03  7056   0.214E-03-0.390E-04
CGA:  11    -0.368922142499E+03   -0.74993E-04   -0.73530E-04  7056   0.919E-04 0.168E-04
CGA:  12    -0.368922183039E+03   -0.40540E-04   -0.39406E-04  7056   0.476E-04 0.103E-04
CGA:  13    -0.368922194410E+03   -0.11371E-04   -0.12613E-04  7056   0.176E-04 0.223E-04
CGA:  14    -0.368922200163E+03   -0.57530E-05   -0.62127E-05  7056   0.693E-05 0.916E-05
CGA:  15    -0.368922179594E+03    0.20569E-04   -0.11420E-04  7056   0.166E-03-0.220E-04
CGA:  16    -0.368922196729E+03   -0.17135E-04   -0.26749E-04  7056   0.148E-04 0.263E-04
CGA:  17    -0.368922200817E+03   -0.40880E-05   -0.42621E-05  7056   0.253E-05 0.671E-06
  46 F= -.36892220E+03 E0= -.36892220E+03  d E =0.810876E-02  mag=    12.0000
       N       E                     dE             d eps       ncg     rms          ort
SDA:   1    -0.367373045736E+03    0.15492E+01    0.00000E+00  7056   0.372E+01 0.000E+00
CGA:   2    -0.368511758565E+03   -0.11387E+01   -0.11365E+01  7056   0.123E+01-0.688E-02
CGA:   3    -0.368783175179E+03   -0.27142E+00   -0.27213E+00  7056   0.333E+00 0.135E-02
CGA:   4    -0.368848796807E+03   -0.65622E-01   -0.66130E-01  7056   0.609E-01 0.197E-02
CGA:   5    -0.368864692567E+03   -0.15896E-01   -0.15901E-01  7056   0.182E-01 0.671E-04
CGA:   6    -0.368870443814E+03   -0.57512E-02   -0.56567E-02  7056   0.728E-02-0.686E-03
CGA:   7    -0.368872695142E+03   -0.22513E-02   -0.22090E-02  7056   0.288E-02-0.336E-03
CGA:   8    -0.368873542774E+03   -0.84763E-03   -0.85015E-03  7056   0.771E-03 0.206E-04
CGA:   9    -0.368873764592E+03   -0.22182E-03   -0.22964E-03  7056   0.207E-03 0.586E-04
CGA:  10    -0.368873823262E+03   -0.58670E-04   -0.63238E-04  7056   0.642E-04 0.329E-04
CGA:  11    -0.368873849400E+03   -0.26139E-04   -0.26453E-04  7056   0.342E-04 0.525E-05
CGA:  12    -0.368873853108E+03   -0.37079E-05   -0.73542E-05  7056   0.158E-04 0.171E-04
  47 F= -.36887385E+03 E0= -.36887385E+03  d E =0.483477E-01  mag=    12.0000
       N       E                     dE             d eps       ncg     rms          ort
SDA:   1    -0.368176200887E+03    0.69765E+00    0.00000E+00  7056   0.187E+01 0.000E+00
CGA:   2    -0.368763385356E+03   -0.58718E+00   -0.58764E+00  7056   0.613E+00 0.413E-02
CGA:   3    -0.368901795651E+03   -0.13841E+00   -0.13820E+00  7056   0.153E+00-0.171E-02
CGA:   4    -0.368932307964E+03   -0.30512E-01   -0.30402E-01  7056   0.312E-01-0.771E-03
CGA:   5    -0.368940168022E+03   -0.78601E-02   -0.78472E-02  7056   0.883E-02-0.116E-03
CGA:   6    -0.368942709697E+03   -0.25417E-02   -0.25655E-02  7056   0.306E-02 0.325E-03
CGA:   7    -0.368943612284E+03   -0.90259E-03   -0.91975E-03  7056   0.111E-02 0.240E-03
CGA:   8    -0.368944035459E+03   -0.42318E-03   -0.42302E-03  7056   0.392E-03-0.408E-04
CGA:   9    -0.368944170699E+03   -0.13524E-03   -0.13528E-03  7056   0.128E-03-0.453E-04
CGA:  10    -0.368944206806E+03   -0.36108E-04   -0.35862E-04  7056   0.391E-04-0.620E-05
CGA:  11    -0.368944219702E+03   -0.12895E-04   -0.12889E-04  7056   0.188E-04-0.726E-06
CGA:  12    -0.368944234690E+03   -0.14988E-04    0.22293E-04  7056   0.105E-04-0.540E-06
CGA:  13    -0.368944239327E+03   -0.46373E-05   -0.54903E-05  7056   0.100E-04-0.466E-05
CGA:  14    -0.368944243440E+03   -0.41129E-05    0.75182E-04  7056   0.490E-05-0.213E-05
  48 F= -.36894424E+03 E0= -.36894424E+03  d E =-.703903E-01  mag=    12.0000
       N       E                     dE             d eps       ncg     rms          ort
SDA:   1    -0.368467329660E+03    0.47691E+00    0.00000E+00  7056   0.117E+01 0.000E+00
CGA:   2    -0.368824438049E+03   -0.35711E+00   -0.35729E+00  7056   0.460E+00 0.238E-02
CGA:   3    -0.368915970855E+03   -0.91533E-01   -0.91570E-01  7056   0.828E-01-0.150E-03
CGA:   4    -0.368931983378E+03   -0.16013E-01   -0.15886E-01  7056   0.151E-01-0.844E-03
CGA:   5    -0.368935544399E+03   -0.35610E-02   -0.35568E-02  7056   0.320E-02-0.422E-04
CGA:   6    -0.368936324902E+03   -0.78050E-03   -0.79786E-03  7056   0.958E-03 0.194E-03
CGA:   7    -0.368936646265E+03   -0.32136E-03   -0.32196E-03  7056   0.452E-03 0.338E-04
CGA:   8    -0.368936830298E+03   -0.18403E-03   -0.18417E-03  7056   0.217E-03-0.229E-05
CGA:   9    -0.368936904148E+03   -0.73850E-04   -0.73844E-04  7056   0.723E-04 0.115E-05
CGA:  10    -0.368936932733E+03   -0.28585E-04   -0.29509E-04  7056   0.349E-04-0.134E-04
CGA:  11    -0.368936941303E+03   -0.85696E-05   -0.87390E-05  7056   0.134E-04 0.509E-05
  49 F= -.36893694E+03 E0= -.36893694E+03  d E =0.730214E-02  mag=    12.0000
       N       E                     dE             d eps       ncg     rms          ort
SDA:   1    -0.353725130210E+03    0.15212E+02    0.00000E+00  7056   0.383E+02 0.000E+00
CGA:   2    -0.363655643036E+03   -0.99305E+01   -0.99411E+01  7056   0.185E+02 0.260E-01
CGA:   3    -0.367347058597E+03   -0.36914E+01   -0.37022E+01  7056   0.339E+01 0.321E-01
CGA:   4    -0.368039207898E+03   -0.69215E+00   -0.69217E+00  7056   0.624E+00-0.827E-03
CGA:   5    -0.368190175253E+03   -0.15097E+00   -0.15101E+00  7056   0.161E+00 0.289E-04
CGA:   6    -0.368233679484E+03   -0.43504E-01   -0.43505E-01  7056   0.539E-01-0.837E-04
CGA:   7    -0.368250268894E+03   -0.16589E-01   -0.16590E-01  7056   0.200E-01 0.667E-04
CGA:   8    -0.368257233721E+03   -0.69648E-02   -0.69669E-02  7056   0.710E-02-0.706E-04
CGA:   9    -0.368259599539E+03   -0.23658E-02   -0.23688E-02  7056   0.228E-02-0.168E-03
CGA:  10    -0.368260357879E+03   -0.75834E-03   -0.75960E-03  7056   0.804E-03-0.525E-04
CGA:  11    -0.368260660372E+03   -0.30249E-03   -0.30383E-03  7056   0.423E-03-0.198E-04
CGA:  12    -0.368260800316E+03   -0.13994E-03   -0.13925E-03  7056   0.208E-03 0.437E-04
CGA:  13    -0.368260887292E+03   -0.86976E-04   -0.86542E-04  7056   0.101E-03 0.777E-05
CGA:  14    -0.368260925208E+03   -0.37916E-04   -0.37321E-04  7056   0.359E-04 0.195E-04
CGA:  15    -0.368260941501E+03   -0.16294E-04   -0.16016E-04  7056   0.151E-04 0.591E-05
CGA:  16    -0.368260950171E+03   -0.86700E-05   -0.97586E-05  7056   0.160E-04-0.488E-05
  50 F= -.36826095E+03 E0= -.36826095E+03  d E =0.675991E+00  mag=    12.0000
       N       E                     dE             d eps       ncg     rms          ort
SDA:   1    -0.344219833786E+03    0.24041E+02    0.00000E+00  7056   0.568E+02 0.000E+00
CGA:   2    -0.362422315264E+03   -0.18202E+02   -0.18202E+02  7056   0.189E+02-0.112E+00
CGA:   3    -0.366800407196E+03   -0.43781E+01   -0.43844E+01  7056   0.412E+01 0.123E-01
CGA:   4    -0.367672087487E+03   -0.87168E+00   -0.87226E+00  7056   0.110E+01 0.150E-02
CGA:   5    -0.367942504115E+03   -0.27042E+00   -0.27030E+00  7056   0.310E+00-0.109E-02
CGA:   6    -0.368042788035E+03   -0.10028E+00   -0.10029E+00  7056   0.119E+00-0.141E-02
CGA:   7    -0.368078801318E+03   -0.36013E-01   -0.36005E-01  7056   0.459E-01-0.599E-03
CGA:   8    -0.368093162574E+03   -0.14361E-01   -0.14361E-01  7056   0.136E-01-0.778E-04
CGA:   9    -0.368097659679E+03   -0.44971E-02   -0.44985E-02  7056   0.419E-02-0.903E-04
CGA:  10    -0.368099037516E+03   -0.13778E-02   -0.13774E-02  7056   0.149E-02 0.351E-04
CGA:  11    -0.368099606484E+03   -0.56897E-03   -0.57017E-03  7056   0.757E-03-0.201E-04
CGA:  12    -0.368099859187E+03   -0.25270E-03   -0.25125E-03  7056   0.333E-03 0.966E-04
CGA:  13    -0.368100009867E+03   -0.15068E-03   -0.15096E-03  7056   0.172E-03-0.377E-05
CGA:  14    -0.368100071369E+03   -0.61501E-04   -0.60944E-04  7056   0.636E-04 0.171E-04
CGA:  15    -0.368100096024E+03   -0.24655E-04   -0.24586E-04  7056   0.233E-04 0.294E-05
CGA:  16    -0.368100104034E+03   -0.80103E-05   -0.18799E-04  7056   0.512E-04-0.245E-04
  51 F= -.36810010E+03 E0= -.36810010E+03  d E =0.160846E+00  mag=    12.0000
       N       E                     dE             d eps       ncg     rms          ort
SDA:   1    -0.362880045246E+03    0.52201E+01    0.00000E+00  7056   0.142E+02 0.000E+00
CGA:   2    -0.367492436222E+03   -0.46124E+01   -0.46131E+01  7056   0.455E+01 0.218E-01
CGA:   3    -0.368592518715E+03   -0.11001E+01   -0.11003E+01  7056   0.949E+00-0.144E-02
CGA:   4    -0.368798798207E+03   -0.20628E+00   -0.20629E+00  7056   0.257E+00-0.642E-03
CGA:   5    -0.368859726335E+03   -0.60928E-01   -0.60954E-01  7056   0.729E-01 0.127E-03
CGA:   6    -0.368883362807E+03   -0.23636E-01   -0.23637E-01  7056   0.266E-01 0.173E-03
CGA:   7    -0.368891696521E+03   -0.83337E-02   -0.83361E-02  7056   0.104E-01 0.159E-03
CGA:   8    -0.368894935396E+03   -0.32389E-02   -0.32393E-02  7056   0.309E-02 0.205E-04
CGA:   9    -0.368895976940E+03   -0.10415E-02   -0.10427E-02  7056   0.955E-03-0.976E-04
CGA:  10    -0.368896279779E+03   -0.30284E-03   -0.30287E-03  7056   0.351E-03-0.153E-04
CGA:  11    -0.368896409498E+03   -0.12972E-03   -0.13146E-03  7056   0.205E-03-0.320E-04
CGA:  12    -0.368896474781E+03   -0.65283E-04   -0.65234E-04  7056   0.935E-04 0.213E-05
CGA:  13    -0.368896513976E+03   -0.39195E-04   -0.40321E-04  7056   0.460E-04-0.116E-04
CGA:  14    -0.368896526602E+03   -0.12626E-04   -0.12757E-04  7056   0.142E-04 0.737E-05
CGA:  15    -0.368896531443E+03   -0.48409E-05   -0.49177E-05  7056   0.477E-05 0.223E-05
CGA:  16    -0.368896496214E+03    0.35229E-04   -0.18970E-04  7056   0.146E-03-0.259E-04
CGA:  17    -0.368896521821E+03   -0.25607E-04   -0.31343E-04  7056   0.274E-04 0.142E-04
CGA:  18    -0.368896532328E+03   -0.10507E-04   -0.98813E-05  7056   0.760E-05-0.245E-05
CGA:  19    -0.368896534428E+03   -0.20997E-05   -0.23140E-05  7056   0.201E-05 0.897E-06
  52 F= -.36889653E+03 E0= -.36889653E+03  d E =-.796430E+00  mag=    12.0000
       N       E                     dE             d eps       ncg     rms          ort
SDA:   1    -0.368718314291E+03    0.17822E+00    0.00000E+00  7056   0.477E+00 0.000E+00
CGA:   2    -0.368869945871E+03   -0.15163E+00   -0.15204E+00  7056   0.156E+00 0.732E-03
CGA:   3    -0.368905815686E+03   -0.35870E-01   -0.35836E-01  7056   0.363E-01-0.171E-03
CGA:   4    -0.368913319125E+03   -0.75034E-02   -0.74085E-02  7056   0.858E-02-0.323E-03
CGA:   5    -0.368915403610E+03   -0.20845E-02   -0.20875E-02  7056   0.229E-02 0.731E-05
CGA:   6    -0.368916079450E+03   -0.67584E-03   -0.69619E-03  7056   0.808E-03 0.990E-04
CGA:   7    -0.368916336859E+03   -0.25741E-03   -0.26052E-03  7056   0.327E-03 0.161E-04
CGA:   8    -0.368916445231E+03   -0.10837E-03   -0.10866E-03  7056   0.975E-04 0.163E-05
CGA:   9    -0.368916479034E+03   -0.33804E-04   -0.33362E-04  7056   0.282E-04-0.316E-05
CGA:  10    -0.368916491336E+03   -0.12301E-04   -0.11910E-04  7056   0.187E-04-0.104E-04
CGA:  11    -0.368916494898E+03   -0.35622E-05   -0.33858E-05  7056   0.790E-05-0.966E-06
  53 F= -.36891649E+03 E0= -.36891649E+03  d E =-.199605E-01  mag=    12.0000
       N       E                     dE             d eps       ncg     rms          ort
SDA:   1    -0.368855397496E+03    0.61094E-01    0.00000E+00  7056   0.184E+00 0.000E+00
CGA:   2    -0.368903532782E+03   -0.48135E-01   -0.48184E-01  7056   0.929E-01 0.576E-04
CGA:   3    -0.368921654303E+03   -0.18122E-01   -0.18199E-01  7056   0.171E-01 0.166E-03
CGA:   4    -0.368925307891E+03   -0.36536E-02   -0.36189E-02  7056   0.332E-02-0.158E-03
CGA:   5    -0.368926124211E+03   -0.81632E-03   -0.80337E-03  7056   0.891E-03-0.725E-04
CGA:   6    -0.368926334710E+03   -0.21050E-03   -0.21968E-03  7056   0.271E-03 0.550E-04
CGA:   7    -0.368926409383E+03   -0.74674E-04   -0.79455E-04  7056   0.910E-04 0.358E-04
CGA:   8    -0.368926451423E+03   -0.42040E-04   -0.42109E-04  7056   0.500E-04-0.123E-04
CGA:   9    -0.368926464084E+03   -0.12661E-04   -0.12582E-04  7056   0.150E-04-0.717E-06
CGA:  10    -0.368926467869E+03   -0.37850E-05   -0.39460E-05  7056   0.476E-05 0.123E-05
  54 F= -.36892647E+03 E0= -.36892647E+03  d E =-.997297E-02  mag=    12.0000
       N       E                     dE             d eps       ncg     rms          ort
SDA:   1    -0.368641597806E+03    0.28487E+00    0.00000E+00  7056   0.803E+00 0.000E+00
CGA:   2    -0.368835095181E+03   -0.19350E+00   -0.19363E+00  7056   0.408E+00-0.307E-03
CGA:   3    -0.368916863889E+03   -0.81769E-01   -0.81958E-01  7056   0.700E-01 0.375E-03
CGA:   4    -0.368931218319E+03   -0.14354E-01   -0.14317E-01  7056   0.127E-01-0.225E-03
CGA:   5    -0.368934140507E+03   -0.29222E-02   -0.29067E-02  7056   0.297E-02-0.113E-03
CGA:   6    -0.368934863241E+03   -0.72273E-03   -0.73431E-03  7056   0.833E-03 0.955E-04
CGA:   7    -0.368935114067E+03   -0.25083E-03   -0.25448E-03  7056   0.308E-03 0.546E-04
CGA:   8    -0.368935241932E+03   -0.12786E-03   -0.12860E-03  7056   0.150E-03-0.231E-04
CGA:   9    -0.368935287170E+03   -0.45238E-04   -0.45100E-04  7056   0.467E-04-0.402E-05
CGA:  10    -0.368935301944E+03   -0.14774E-04   -0.14731E-04  7056   0.153E-04-0.124E-05
CGA:  11    -0.368935308710E+03   -0.67662E-05   -0.83238E-05  7056   0.162E-04-0.772E-05
  55 F= -.36893531E+03 E0= -.36893531E+03  d E =-.884084E-02  mag=    12.0000
       N       E                     dE             d eps       ncg     rms          ort
SDA:   1    -0.368619686379E+03    0.31562E+00    0.00000E+00  7056   0.867E+00 0.000E+00
CGA:   2    -0.368836530037E+03   -0.21684E+00   -0.21687E+00  7056   0.425E+00-0.611E-03
CGA:   3    -0.368919747348E+03   -0.83217E-01   -0.83353E-01  7056   0.736E-01 0.229E-03
CGA:   4    -0.368934970660E+03   -0.15223E-01   -0.15234E-01  7056   0.131E-01 0.476E-04
CGA:   5    -0.368937976139E+03   -0.30055E-02   -0.30074E-02  7056   0.304E-02 0.107E-04
CGA:   6    -0.368938761517E+03   -0.78538E-03   -0.78694E-03  7056   0.921E-03 0.175E-04
CGA:   7    -0.368939072214E+03   -0.31070E-03   -0.31068E-03  7056   0.424E-03-0.468E-04
CGA:   8    -0.368939220531E+03   -0.14832E-03   -0.14881E-03  7056   0.174E-03-0.146E-04
CGA:   9    -0.368939272785E+03   -0.52254E-04   -0.52476E-04  7056   0.512E-04 0.882E-05
CGA:  10    -0.368939293705E+03   -0.20920E-04   -0.21544E-04  7056   0.247E-04-0.968E-05
CGA:  11    -0.368939300649E+03   -0.69446E-05   -0.69490E-05  7056   0.102E-04-0.603E-06
  56 F= -.36893930E+03 E0= -.36893930E+03  d E =-.399194E-02  mag=    12.0000
       N       E                     dE             d eps       ncg     rms          ort
SDA:   1    -0.368662035760E+03    0.27726E+00    0.00000E+00  7056   0.723E+00 0.000E+00
CGA:   2    -0.368847284755E+03   -0.18525E+00   -0.18526E+00  7056   0.338E+00-0.377E-03
CGA:   3    -0.368913882191E+03   -0.66597E-01   -0.66685E-01  7056   0.628E-01 0.181E-03
CGA:   4    -0.368926912333E+03   -0.13030E-01   -0.13039E-01  7056   0.111E-01 0.465E-04
CGA:   5    -0.368929558992E+03   -0.26467E-02   -0.26509E-02  7056   0.280E-02 0.469E-04
CGA:   6    -0.368930334329E+03   -0.77534E-03   -0.77390E-03  7056   0.100E-02-0.339E-04
CGA:   7    -0.368930687505E+03   -0.35318E-03   -0.35873E-03  7056   0.532E-03-0.126E-03
CGA:   8    -0.368930840581E+03   -0.15308E-03   -0.15301E-03  7056   0.180E-03 0.758E-05
CGA:   9    -0.368930889127E+03   -0.48546E-04   -0.49961E-04  7056   0.531E-04 0.297E-04
CGA:  10    -0.368930912194E+03   -0.23067E-04   -0.23337E-04  7056   0.268E-04-0.459E-05
CGA:  11    -0.368930922220E+03   -0.10025E-04   -0.10589E-04  7056   0.156E-04-0.504E-05
CGA:  12    -0.368930925313E+03   -0.30929E-05   -0.33216E-05  7056   0.669E-05 0.351E-05
  57 F= -.36893093E+03 E0= -.36893093E+03  d E =0.837534E-02  mag=    12.0000
       N       E                     dE             d eps       ncg     rms          ort
SDA:   1    -0.368883893010E+03    0.47029E-01    0.00000E+00  7056   0.131E+00 0.000E+00
CGA:   2    -0.368921154723E+03   -0.37262E-01   -0.37276E-01  7056   0.610E-01 0.385E-03
CGA:   3    -0.368933092292E+03   -0.11938E-01   -0.11937E-01  7056   0.124E-01-0.877E-04
CGA:   4    -0.368935725303E+03   -0.26330E-02   -0.26218E-02  7056   0.255E-02-0.121E-03
CGA:   5    -0.368936358991E+03   -0.63369E-03   -0.63275E-03  7056   0.679E-03-0.181E-04
CGA:   6    -0.368936539764E+03   -0.18077E-03   -0.18187E-03  7056   0.234E-03 0.340E-04
CGA:   7    -0.368936603932E+03   -0.64168E-04   -0.65373E-04  7056   0.724E-04 0.353E-04
CGA:   8    -0.368936634622E+03   -0.30690E-04   -0.30655E-04  7056   0.317E-04 0.469E-06
CGA:   9    -0.368936646663E+03   -0.12041E-04   -0.13266E-04  7056   0.179E-04-0.107E-04
CGA:  10    -0.368936648617E+03   -0.19542E-05   -0.22652E-05  7056   0.624E-05 0.269E-05
  58 F= -.36893665E+03 E0= -.36893665E+03  d E =-.572330E-02  mag=    12.0000
       N       E                     dE             d eps       ncg     rms          ort
SDA:   1    -0.368929842533E+03    0.68041E-02    0.00000E+00  7056   0.158E-01 0.000E+00
CGA:   2    -0.368933882847E+03   -0.40403E-02   -0.40505E-02  7056   0.723E-02 0.260E-03
CGA:   3    -0.368935377313E+03   -0.14945E-02   -0.14950E-02  7056   0.145E-02-0.175E-05
CGA:   4    -0.368935688446E+03   -0.31113E-03   -0.30378E-03  7056   0.279E-03-0.962E-04
CGA:   5    -0.368935750445E+03   -0.61999E-04   -0.61496E-04  7056   0.667E-04-0.108E-04
CGA:   6    -0.368935762723E+03   -0.12278E-04   -0.13262E-04  7056   0.175E-04 0.133E-04
CGA:   7    -0.368935767157E+03   -0.44337E-05   -0.47651E-05  7056   0.737E-05 0.659E-05
  59 F= -.36893577E+03 E0= -.36893577E+03  d E =0.881460E-03  mag=    12.0000
       N       E                     dE             d eps       ncg     rms          ort
SDA:   1    -0.368842921337E+03    0.92841E-01    0.00000E+00  7056   0.233E+00 0.000E+00
CGA:   2    -0.368904963188E+03   -0.62042E-01   -0.62054E-01  7056   0.105E+00 0.117E-02
CGA:   3    -0.368925882207E+03   -0.20919E-01   -0.20928E-01  7056   0.198E-01 0.492E-05
CGA:   4    -0.368929838322E+03   -0.39561E-02   -0.39263E-02  7056   0.338E-02-0.419E-03
CGA:   5    -0.368930635671E+03   -0.79735E-03   -0.79569E-03  7056   0.811E-03-0.620E-04
CGA:   6    -0.368930825327E+03   -0.18966E-03   -0.19133E-03  7056   0.240E-03 0.650E-04
CGA:   7    -0.368930907889E+03   -0.82563E-04   -0.81427E-04  7056   0.111E-03 0.227E-04
CGA:   8    -0.368930957353E+03   -0.49463E-04   -0.49164E-04  7056   0.615E-04 0.216E-05
CGA:   9    -0.368930977748E+03   -0.20395E-04   -0.20199E-04  7056   0.206E-04 0.407E-05
CGA:  10    -0.368930986609E+03   -0.88606E-05   -0.11354E-04  7056   0.192E-04-0.104E-04
  60 F= -.36893099E+03 E0= -.36893099E+03  d E =0.478055E-02  mag=    12.0000
       N       E                     dE             d eps       ncg     rms          ort
SDA:   1    -0.368620254834E+03    0.31072E+00    0.00000E+00  7056   0.766E+00 0.000E+00
CGA:   2    -0.368838605256E+03   -0.21835E+00   -0.21835E+00  7056   0.346E+00 0.169E-02
CGA:   3    -0.368905167210E+03   -0.66562E-01   -0.66587E-01  7056   0.605E-01-0.773E-04
CGA:   4    -0.368917142814E+03   -0.11976E-01   -0.11925E-01  7056   0.104E-01-0.642E-03
CGA:   5    -0.368919626479E+03   -0.24837E-02   -0.24806E-02  7056   0.239E-02-0.920E-04
CGA:   6    -0.368920210584E+03   -0.58410E-03   -0.58698E-03  7056   0.692E-03 0.110E-03
CGA:   7    -0.368920442259E+03   -0.23168E-03   -0.23061E-03  7056   0.313E-03 0.230E-04
CGA:   8    -0.368920570169E+03   -0.12791E-03   -0.12798E-03  7056   0.154E-03-0.641E-06
CGA:   9    -0.368920623445E+03   -0.53276E-04   -0.53264E-04  7056   0.534E-04 0.142E-06
CGA:  10    -0.368920645138E+03   -0.21693E-04   -0.25990E-04  7056   0.402E-04-0.213E-04
CGA:  11    -0.368920651639E+03   -0.65008E-05   -0.65568E-05  7056   0.182E-04 0.240E-05
  61 F= -.36892065E+03 E0= -.36892065E+03  d E =0.103350E-01  mag=    12.0000
       N       E                     dE             d eps       ncg     rms          ort
[...]
CGA:   6    -0.368805488467E+03   -0.14694E-01   -0.14652E-01  7056   0.175E-01-0.593E-03
CGA:   7    -0.368811100608E+03   -0.56121E-02   -0.56008E-02  7056   0.813E-02-0.478E-03
CGA:   8    -0.368813858164E+03   -0.27576E-02   -0.27583E-02  7056   0.300E-02-0.241E-03
CGA:   9    -0.368814852350E+03   -0.99419E-03   -0.99348E-03  7056   0.914E-03-0.162E-03
CGA:  10    -0.368815144786E+03   -0.29244E-03   -0.29200E-03  7056   0.305E-03-0.539E-04
CGA:  11    -0.368815267157E+03   -0.12237E-03   -0.12591E-03  7056   0.181E-03-0.378E-04
CGA:  12    -0.368815327782E+03   -0.60625E-04   -0.60066E-04  7056   0.880E-04 0.192E-04
CGA:  13    -0.368815372559E+03   -0.44777E-04   -0.47217E-04  7056   0.609E-04-0.184E-04
CGA:  14    -0.368815388218E+03   -0.15658E-04   -0.15784E-04  7056   0.208E-04 0.408E-05
CGA:  15    -0.368815396863E+03   -0.86453E-05   -0.88899E-05  7056   0.108E-04-0.570E-05
  82 F= -.36881540E+03 E0= -.36881540E+03  d E =0.225928E-01  mag=    12.0000
       N       E                     dE             d eps       ncg     rms          ort
SDA:   1    -0.367192496473E+03    0.16229E+01    0.00000E+00  7056   0.414E+01 0.000E+00
CGA:   2    -0.368377520039E+03   -0.11850E+01   -0.11854E+01  7056   0.158E+01 0.437E-02
CGA:   3    -0.368714510669E+03   -0.33699E+00   -0.33703E+00  7056   0.332E+00-0.974E-03
CGA:   4    -0.368778335204E+03   -0.63825E-01   -0.63640E-01  7056   0.614E-01-0.142E-02
CGA:   5    -0.368793074417E+03   -0.14739E-01   -0.14745E-01  7056   0.148E-01 0.520E-04
CGA:   6    -0.368797160143E+03   -0.40857E-02   -0.40995E-02  7056   0.519E-02 0.230E-03
CGA:   7    -0.368798799244E+03   -0.16391E-02   -0.16386E-02  7056   0.223E-02-0.215E-04
CGA:   8    -0.368799578486E+03   -0.77924E-03   -0.77913E-03  7056   0.833E-03 0.552E-05
CGA:   9    -0.368799850547E+03   -0.27206E-03   -0.27216E-03  7056   0.259E-03 0.152E-04
CGA:  10    -0.368799951778E+03   -0.10123E-03   -0.10340E-03  7056   0.122E-03-0.364E-04
CGA:  11    -0.368799987240E+03   -0.35462E-04   -0.35424E-04  7056   0.483E-04 0.108E-04
CGA:  12    -0.368800003205E+03   -0.15965E-04   -0.16267E-04  7056   0.210E-04 0.117E-04
CGA:  13    -0.368800010540E+03   -0.73350E-05   -0.76694E-05  7056   0.837E-05 0.836E-05
  83 F= -.36880001E+03 E0= -.36880001E+03  d E =0.153863E-01  mag=    12.0000
       N       E                     dE             d eps       ncg     rms          ort
SDA:   1    -0.366447040662E+03    0.23530E+01    0.00000E+00  7056   0.574E+01 0.000E+00
CGA:   2    -0.368325850637E+03   -0.18788E+01   -0.18788E+01  7056   0.183E+01 0.328E-02
CGA:   3    -0.368721427013E+03   -0.39558E+00   -0.39546E+00  7056   0.350E+00-0.209E-02
CGA:   4    -0.368789720910E+03   -0.68294E-01   -0.68284E-01  7056   0.717E-01-0.358E-03
CGA:   5    -0.368806666049E+03   -0.16945E-01   -0.16944E-01  7056   0.173E-01-0.272E-04
CGA:   6    -0.368811519923E+03   -0.48539E-02   -0.48589E-02  7056   0.569E-02 0.150E-03
CGA:   7    -0.368813302585E+03   -0.17827E-02   -0.17828E-02  7056   0.248E-02 0.974E-04
CGA:   8    -0.368814192460E+03   -0.88988E-03   -0.89324E-03  7056   0.930E-03-0.809E-04
CGA:   9    -0.368814499168E+03   -0.30671E-03   -0.30765E-03  7056   0.276E-03-0.342E-04
CGA:  10    -0.368814583486E+03   -0.84317E-04   -0.84305E-04  7056   0.868E-04 0.708E-05
CGA:  11    -0.368814614342E+03   -0.30856E-04   -0.30464E-04  7056   0.384E-04 0.148E-04
CGA:  12    -0.368814634233E+03   -0.19891E-04   -0.19253E-04  7056   0.257E-04 0.568E-05
CGA:  13    -0.368814640644E+03   -0.64108E-05   -0.73803E-05  7056   0.113E-04 0.133E-04
  84 F= -.36881464E+03 E0= -.36881464E+03  d E =-.146301E-01  mag=    12.0000
       N       E                     dE             d eps       ncg     rms          ort
SDA:   1    -0.368289769802E+03    0.52486E+00    0.00000E+00  7056   0.129E+01 0.000E+00
CGA:   2    -0.368700851752E+03   -0.41108E+00   -0.41108E+00  7056   0.439E+00-0.534E-03
CGA:   3    -0.368793553230E+03   -0.92701E-01   -0.92784E-01  7056   0.922E-01 0.424E-03
CGA:   4    -0.368811569589E+03   -0.18016E-01   -0.18034E-01  7056   0.185E-01 0.769E-04
CGA:   5    -0.368816078949E+03   -0.45094E-02   -0.45037E-02  7056   0.463E-02-0.864E-04
CGA:   6    -0.368817405282E+03   -0.13263E-02   -0.13267E-02  7056   0.159E-02 0.166E-04
CGA:   7    -0.368817889760E+03   -0.48448E-03   -0.48454E-03  7056   0.642E-03 0.248E-04
CGA:   8    -0.368818119930E+03   -0.23017E-03   -0.23127E-03  7056   0.229E-03-0.225E-04
CGA:   9    -0.368818198108E+03   -0.78178E-04   -0.79594E-04  7056   0.744E-04-0.269E-04
CGA:  10    -0.368818218331E+03   -0.20223E-04   -0.20222E-04  7056   0.207E-04-0.351E-06
CGA:  11    -0.368818220691E+03   -0.23604E-05   -0.17940E-04  7056   0.755E-04-0.277E-04
CGA:  12    -0.368818235821E+03   -0.15129E-04   -0.15953E-04  7056   0.869E-05 0.645E-05
CGA:  13    -0.368818230279E+03    0.55415E-05   -0.90952E-05  7056   0.812E-04-0.232E-04
CGA:  14    -0.368818239392E+03   -0.91133E-05   -0.12338E-04  7056   0.842E-05 0.152E-04
  85 F= -.36881824E+03 E0= -.36881824E+03  d E =-.359875E-02  mag=    12.0000
       N       E                     dE             d eps       ncg     rms          ort
SDA:   1    -0.368635601737E+03    0.18263E+00    0.00000E+00  7056   0.442E+00 0.000E+00
CGA:   2    -0.368781632723E+03   -0.14603E+00   -0.14602E+00  7056   0.146E+00-0.375E-03
CGA:   3    -0.368813321648E+03   -0.31689E-01   -0.31738E-01  7056   0.304E-01 0.288E-03
CGA:   4    -0.368819359149E+03   -0.60375E-02   -0.60335E-02  7056   0.652E-02-0.588E-04
CGA:   5    -0.368820968691E+03   -0.16095E-02   -0.16116E-02  7056   0.174E-02 0.244E-04
CGA:   6    -0.368821521798E+03   -0.55311E-03   -0.55185E-03  7056   0.704E-03-0.112E-03
CGA:   7    -0.368821743098E+03   -0.22130E-03   -0.22231E-03  7056   0.338E-03-0.980E-04
CGA:   8    -0.368821820076E+03   -0.76979E-04   -0.78400E-04  7056   0.828E-04 0.245E-04
CGA:   9    -0.368821840264E+03   -0.20188E-04   -0.21669E-04  7056   0.241E-04 0.183E-04
CGA:  10    -0.368821850096E+03   -0.98319E-05   -0.98568E-05  7056   0.104E-04-0.180E-05
  86 F= -.36882185E+03 E0= -.36882185E+03  d E =-.361070E-02  mag=    12.0000
       N       E                     dE             d eps       ncg     rms          ort
SDA:   1    -0.368799838460E+03    0.22002E-01    0.00000E+00  7056   0.539E-01 0.000E+00
CGA:   2    -0.368815190894E+03   -0.15352E-01   -0.15376E-01  7056   0.189E-01 0.610E-03
CGA:   3    -0.368819517222E+03   -0.43263E-02   -0.43119E-02  7056   0.415E-02-0.163E-03
CGA:   4    -0.368820350729E+03   -0.83351E-03   -0.81493E-03  7056   0.878E-03-0.159E-03
CGA:   5    -0.368820544083E+03   -0.19335E-03   -0.19406E-03  7056   0.202E-03 0.861E-05
CGA:   6    -0.368820592309E+03   -0.48226E-04   -0.50150E-04  7056   0.624E-04 0.313E-04
CGA:   7    -0.368820613421E+03   -0.21113E-04   -0.21189E-04  7056   0.275E-04 0.771E-05
CGA:   8    -0.368820623975E+03   -0.10554E-04   -0.10459E-04  7056   0.107E-04 0.266E-05
CGA:   9    -0.368820627114E+03   -0.31390E-05   -0.32147E-05  7056   0.331E-05 0.239E-05
  87 F= -.36882063E+03 E0= -.36882063E+03  d E =0.122298E-02  mag=    12.0000
       N       E                     dE             d eps       ncg     rms          ort
SDA:   1    -0.368795823721E+03    0.24800E-01    0.00000E+00  7056   0.541E-01 0.000E+00
CGA:   2    -0.368812391115E+03   -0.16567E-01   -0.16590E-01  7056   0.206E-01 0.756E-03
CGA:   3    -0.368816608937E+03   -0.42178E-02   -0.42033E-02  7056   0.370E-02-0.126E-03
CGA:   4    -0.368817380424E+03   -0.77149E-03   -0.74212E-03  7056   0.801E-03-0.235E-03
CGA:   5    -0.368817548044E+03   -0.16762E-03   -0.16760E-03  7056   0.159E-03-0.317E-06
CGA:   6    -0.368817576229E+03   -0.28186E-04   -0.32146E-04  7056   0.414E-04 0.346E-04
CGA:   7    -0.368817589078E+03   -0.12848E-04   -0.13294E-04  7056   0.186E-04 0.942E-05
CGA:   8    -0.368817598502E+03   -0.94237E-05   -0.97278E-05  7056   0.149E-04-0.260E-05
  88 F= -.36881760E+03 E0= -.36881760E+03  d E =0.302861E-02  mag=    12.0000
       N       E                     dE             d eps       ncg     rms          ort
SDA:   1    -0.365426558961E+03    0.33910E+01    0.00000E+00  7056   0.850E+01 0.000E+00
CGA:   2    -0.367919622380E+03   -0.24931E+01   -0.24934E+01  7056   0.341E+01 0.139E-01
CGA:   3    -0.368614425707E+03   -0.69480E+00   -0.69485E+00  7056   0.603E+00-0.207E-02
CGA:   4    -0.368728507721E+03   -0.11408E+00   -0.11365E+00  7056   0.111E+00-0.409E-02
CGA:   5    -0.368755068240E+03   -0.26561E-01   -0.26534E-01  7056   0.244E-01-0.460E-03
CGA:   6    -0.368761304049E+03   -0.62358E-02   -0.62564E-02  7056   0.790E-02 0.534E-03
CGA:   7    -0.368763868671E+03   -0.25646E-02   -0.25647E-02  7056   0.364E-02-0.437E-05
CGA:   8    -0.368765281423E+03   -0.14128E-02   -0.14218E-02  7056   0.173E-02-0.930E-04
CGA:   9    -0.368765855733E+03   -0.57431E-03   -0.57606E-03  7056   0.580E-03-0.409E-04
CGA:  10    -0.368766076950E+03   -0.22122E-03   -0.23623E-03  7056   0.303E-03-0.130E-03
CGA:  11    -0.368766161740E+03   -0.84791E-04   -0.84931E-04  7056   0.133E-03-0.263E-05
CGA:  12    -0.368766213150E+03   -0.51410E-04   -0.51667E-04  7056   0.690E-04-0.319E-05
CGA:  13    -0.368766234340E+03   -0.21190E-04   -0.21185E-04  7056   0.218E-04 0.102E-04
CGA:  14    -0.368766244615E+03   -0.10275E-04   -0.14976E-04  7056   0.249E-04-0.165E-04
CGA:  15    -0.368766252065E+03   -0.74497E-05   -0.74237E-05  7056   0.211E-05-0.865E-06
  89 F= -.36876625E+03 E0= -.36876625E+03  d E =0.513464E-01  mag=    12.0000
       N       E                     dE             d eps       ncg     rms          ort
SDA:   1    -0.357083001667E+03    0.11683E+02    0.00000E+00  7056   0.304E+02 0.000E+00
CGA:   2    -0.365491808492E+03   -0.84088E+01   -0.84143E+01  7056   0.121E+02 0.379E-01
CGA:   3    -0.368039780184E+03   -0.25480E+01   -0.25497E+01  7056   0.228E+01 0.686E-02
CGA:   4    -0.368469002644E+03   -0.42922E+00   -0.42844E+00  7056   0.416E+00-0.720E-02
CGA:   5    -0.368568397381E+03   -0.99395E-01   -0.99320E-01  7056   0.963E-01-0.106E-02
CGA:   6    -0.368593394414E+03   -0.24997E-01   -0.25037E-01  7056   0.334E-01 0.814E-03
CGA:   7    -0.368603882709E+03   -0.10488E-01   -0.10489E-01  7056   0.148E-01-0.169E-03
CGA:   8    -0.368609437049E+03   -0.55543E-02   -0.55737E-02  7056   0.682E-02-0.269E-03
CGA:   9    -0.368611678321E+03   -0.22413E-02   -0.22429E-02  7056   0.229E-02-0.624E-04
CGA:  10    -0.368612533498E+03   -0.85518E-03   -0.87447E-03  7056   0.101E-02-0.260E-03
CGA:  11    -0.368612873286E+03   -0.33979E-03   -0.33973E-03  7056   0.457E-03 0.104E-05
CGA:  12    -0.368613047905E+03   -0.17462E-03   -0.17274E-03  7056   0.202E-03 0.313E-04
CGA:  13    -0.368613118829E+03   -0.70924E-04   -0.70674E-04  7056   0.626E-04 0.357E-04
CGA:  14    -0.368613153153E+03   -0.34324E-04   -0.39216E-04  7056   0.435E-04-0.232E-04
CGA:  15    -0.368613163443E+03   -0.10290E-04   -0.10496E-04  7056   0.201E-04-0.400E-05
CGA:  16    -0.368613169970E+03   -0.65275E-05   -0.66160E-05  7056   0.958E-05-0.308E-05
  90 F= -.36861317E+03 E0= -.36861317E+03  d E =0.153082E+00  mag=    12.0000
       N       E                     dE             d eps       ncg     rms          ort
SDA:   1    -0.363348227585E+03    0.52649E+01    0.00000E+00  7056   0.133E+02 0.000E+00
CGA:   2    -0.367419204597E+03   -0.40710E+01   -0.40713E+01  7056   0.515E+01-0.407E-02
CGA:   3    -0.368459446223E+03   -0.10402E+01   -0.10414E+01  7056   0.951E+00 0.140E-02
CGA:   4    -0.368642522581E+03   -0.18308E+00   -0.18362E+00  7056   0.188E+00 0.352E-02
CGA:   5    -0.368688481590E+03   -0.45959E-01   -0.45958E-01  7056   0.444E-01-0.258E-04
CGA:   6    -0.368701114649E+03   -0.12633E-01   -0.12608E-01  7056   0.164E-01-0.783E-03
CGA:   7    -0.368706039681E+03   -0.49250E-02   -0.49241E-02  7056   0.666E-02-0.935E-04
CGA:   8    -0.368708436133E+03   -0.23965E-02   -0.24066E-02  7056   0.260E-02-0.211E-03
CGA:   9    -0.368709291854E+03   -0.85572E-03   -0.85912E-03  7056   0.845E-03-0.144E-03
CGA:  10    -0.368709541438E+03   -0.24958E-03   -0.24983E-03  7056   0.262E-03 0.433E-04
CGA:  11    -0.368709649554E+03   -0.10812E-03   -0.10734E-03  7056   0.139E-03 0.108E-04
CGA:  12    -0.368709708619E+03   -0.59065E-04   -0.57661E-04  7056   0.698E-04 0.181E-04
CGA:  13    -0.368709740576E+03   -0.31957E-04   -0.31483E-04  7056   0.306E-04 0.647E-05
CGA:  14    -0.368709746815E+03   -0.62389E-05   -0.77102E-05  7056   0.111E-04 0.149E-04
  91 F= -.36870975E+03 E0= -.36870975E+03  d E =-.965768E-01  mag=    12.0000
       N       E                     dE             d eps       ncg     rms          ort
SDA:   1    -0.361294917621E+03    0.74148E+01    0.00000E+00  7056   0.207E+02 0.000E+00
CGA:   2    -0.366599352700E+03   -0.53044E+01   -0.53105E+01  7056   0.799E+01 0.197E-01
CGA:   3    -0.368371458560E+03   -0.17721E+01   -0.17736E+01  7056   0.171E+01 0.282E-02
CGA:   4    -0.368686017535E+03   -0.31456E+00   -0.31512E+00  7056   0.290E+00 0.409E-02
CGA:   5    -0.368755736715E+03   -0.69719E-01   -0.69761E-01  7056   0.679E-01 0.695E-03
CGA:   6    -0.368774491512E+03   -0.18755E-01   -0.18735E-01  7056   0.258E-01-0.833E-03
CGA:   7    -0.368782589605E+03   -0.80981E-02   -0.81029E-02  7056   0.118E-01-0.273E-03
CGA:   8    -0.368787022721E+03   -0.44331E-02   -0.44652E-02  7056   0.543E-02-0.388E-03
CGA:   9    -0.368788803529E+03   -0.17808E-02   -0.17871E-02  7056   0.183E-02-0.175E-03
CGA:  10    -0.368789363794E+03   -0.56027E-03   -0.55910E-03  7056   0.587E-03 0.126E-03
CGA:  11    -0.368789603368E+03   -0.23957E-03   -0.23699E-03  7056   0.288E-03 0.360E-04
CGA:  12    -0.368789725171E+03   -0.12180E-03   -0.11902E-03  7056   0.128E-03 0.347E-04
CGA:  13    -0.368789779536E+03   -0.54365E-04   -0.53639E-04  7056   0.454E-04 0.122E-04
CGA:  14    -0.368789789816E+03   -0.10280E-04   -0.11830E-04  7056   0.145E-04 0.196E-04
CGA:  15    -0.368789793168E+03   -0.33515E-05   -0.42814E-05  7056   0.585E-05 0.864E-05
  92 F= -.36878979E+03 E0= -.36878979E+03  d E =-.800464E-01  mag=    12.0000
       N       E                     dE             d eps       ncg     rms          ort
SDA:   1    -0.367384673170E+03    0.14051E+01    0.00000E+00  7056   0.320E+01 0.000E+00
CGA:   2    -0.368472687055E+03   -0.10880E+01   -0.10880E+01  7056   0.112E+01-0.881E-03
CGA:   3    -0.368698648223E+03   -0.22596E+00   -0.22610E+00  7056   0.229E+00-0.180E-03
CGA:   4    -0.368744341632E+03   -0.45693E-01   -0.45706E-01  7056   0.484E-01-0.102E-03
CGA:   5    -0.368756454998E+03   -0.12113E-01   -0.12104E-01  7056   0.127E-01-0.104E-03
CGA:   6    -0.368760158544E+03   -0.37035E-02   -0.37001E-02  7056   0.456E-02-0.853E-04
CGA:   7    -0.368761555411E+03   -0.13969E-02   -0.13948E-02  7056   0.181E-02-0.794E-04
CGA:   8    -0.368762147082E+03   -0.59167E-03   -0.59167E-03  7056   0.555E-03-0.440E-06
CGA:   9    -0.368762329340E+03   -0.18226E-03   -0.18224E-03  7056   0.159E-03-0.566E-05
CGA:  10    -0.368762387568E+03   -0.58228E-04   -0.59412E-04  7056   0.670E-04-0.257E-04
CGA:  11    -0.368762409323E+03   -0.21755E-04   -0.22370E-04  7056   0.357E-04-0.970E-05
CGA:  12    -0.368762421582E+03   -0.12259E-04   -0.12686E-04  7056   0.230E-04-0.553E-05
CGA:  13    -0.368762428528E+03   -0.69461E-05   -0.69449E-05  7056   0.922E-05 0.564E-07
  93 F= -.36876243E+03 E0= -.36876243E+03  d E =0.273646E-01  mag=    12.0000
       N       E                     dE             d eps       ncg     rms          ort
SDA:   1    -0.366560730535E+03    0.22017E+01    0.00000E+00  7056   0.628E+01 0.000E+00
CGA:   2    -0.368102364796E+03   -0.15416E+01   -0.15440E+01  7056   0.228E+01 0.934E-02
CGA:   3    -0.368631105431E+03   -0.52874E+00   -0.52897E+00  7056   0.522E+00 0.681E-03
CGA:   4    -0.368729254009E+03   -0.98149E-01   -0.97681E-01  7056   0.933E-01-0.305E-02
CGA:   5    -0.368751405501E+03   -0.22151E-01   -0.22108E-01  7056   0.224E-01-0.396E-03
CGA:   6    -0.368757429587E+03   -0.60241E-02   -0.60598E-02  7056   0.850E-02 0.498E-03
CGA:   7    -0.368760131119E+03   -0.27015E-02   -0.27046E-02  7056   0.383E-02 0.111E-03
CGA:   8    -0.368761555080E+03   -0.14240E-02   -0.14230E-02  7056   0.168E-02 0.308E-04
CGA:   9    -0.368762120567E+03   -0.56549E-03   -0.56566E-03  7056   0.576E-03 0.306E-04
CGA:  10    -0.368762357115E+03   -0.23655E-03   -0.24468E-03  7056   0.311E-03-0.104E-03
CGA:  11    -0.368762447430E+03   -0.90315E-04   -0.90268E-04  7056   0.126E-03 0.416E-05
CGA:  12    -0.368762491435E+03   -0.44005E-04   -0.43998E-04  7056   0.498E-04 0.786E-05
CGA:  13    -0.368762507748E+03   -0.16313E-04   -0.16552E-04  7056   0.150E-04 0.794E-05
CGA:  14    -0.368762514908E+03   -0.71595E-05   -0.11850E-04  7056   0.231E-04-0.138E-04
  94 F= -.36876251E+03 E0= -.36876251E+03  d E =-.863801E-04  mag=    12.0000
       N       E                     dE             d eps       ncg     rms          ort
SDA:   1    -0.368562121433E+03    0.20039E+00    0.00000E+00  7056   0.469E+00 0.000E+00
CGA:   2    -0.368714616443E+03   -0.15250E+00   -0.15253E+00  7056   0.167E+00 0.112E-02
CGA:   3    -0.368747471332E+03   -0.32855E-01   -0.32883E-01  7056   0.319E-01 0.118E-04
CGA:   4    -0.368753899897E+03   -0.64286E-02   -0.63555E-02  7056   0.599E-02-0.521E-03
CGA:   5    -0.368755311959E+03   -0.14121E-02   -0.14138E-02  7056   0.135E-02 0.167E-04
CGA:   6    -0.368755657775E+03   -0.34582E-03   -0.35013E-03  7056   0.405E-03 0.559E-04
CGA:   7    -0.368755803718E+03   -0.14594E-03   -0.14653E-03  7056   0.211E-03-0.353E-04
CGA:   8    -0.368755866445E+03   -0.62727E-04   -0.62757E-04  7056   0.686E-04 0.582E-05
CGA:   9    -0.368755889101E+03   -0.22656E-04   -0.22668E-04  7056   0.212E-04 0.120E-05
CGA:  10    -0.368755724138E+03    0.16496E-03   -0.88850E-04  7056   0.744E-03-0.116E-03
CGA:  11    -0.368755874195E+03   -0.15006E-03   -0.16571E-03  7056   0.797E-04 0.409E-04
CGA:  12    -0.368755905203E+03   -0.31009E-04   -0.30589E-04  7056   0.274E-04-0.192E-05
CGA:  13    -0.368755909954E+03   -0.47506E-05   -0.61789E-05  7056   0.662E-05 0.418E-05
  95 F= -.36875591E+03 E0= -.36875591E+03  d E =0.660495E-02  mag=    12.0000
       N       E                     dE             d eps       ncg     rms          ort
SDA:   1    -0.368723987371E+03    0.31918E-01    0.00000E+00  7056   0.736E-01 0.000E+00
CGA:   2    -0.368749163956E+03   -0.25177E-01   -0.25193E-01  7056   0.262E-01 0.699E-04
CGA:   3    -0.368754304482E+03   -0.51405E-02   -0.51308E-02  7056   0.516E-02-0.528E-04
CGA:   4    -0.368755354897E+03   -0.10504E-02   -0.10367E-02  7056   0.107E-02-0.468E-04
CGA:   5    -0.368755618400E+03   -0.26350E-03   -0.26307E-03  7056   0.272E-03-0.164E-05
CGA:   6    -0.368755694121E+03   -0.75721E-04   -0.76313E-04  7056   0.945E-04 0.265E-05
CGA:   7    -0.368755725447E+03   -0.31326E-04   -0.30527E-04  7056   0.420E-04-0.482E-05
CGA:   8    -0.368755737168E+03   -0.11721E-04   -0.12135E-04  7056   0.120E-04 0.239E-05
CGA:   9    -0.368755740553E+03   -0.33854E-05   -0.36397E-05  7056   0.325E-05 0.139E-05
  96 F= -.36875574E+03 E0= -.36875574E+03  d E =0.169401E-03  mag=    12.0000
       N       E                     dE             d eps       ncg     rms          ort
SDA:   1    -0.368735039510E+03    0.20698E-01    0.00000E+00  7056   0.493E-01 0.000E+00
CGA:   2    -0.368747541676E+03   -0.12502E-01   -0.12638E-01  7056   0.199E-01 0.493E-03
CGA:   3    -0.368751822968E+03   -0.42813E-02   -0.42830E-02  7056   0.431E-02-0.146E-04
CGA:   4    -0.368752724744E+03   -0.90178E-03   -0.84757E-03  7056   0.781E-03-0.187E-03
CGA:   5    -0.368752902482E+03   -0.17774E-03   -0.17320E-03  7056   0.180E-03-0.187E-04
CGA:   6    -0.368752931179E+03   -0.28697E-04   -0.37099E-04  7056   0.473E-04 0.332E-04
CGA:   7    -0.368752940130E+03   -0.89515E-05   -0.12808E-04  7056   0.194E-04 0.174E-04
  97 F= -.36875294E+03 E0= -.36875294E+03  d E =0.280042E-02  mag=    12.0000
