       N       E                     dE             d eps       ncg     rms          rms(c)
DAV:   1     0.264904796724E+04    0.26490E+04   -0.15097E+05 28224   0.152E+03
DAV:   2    -0.162996264053E+03   -0.28120E+04   -0.26734E+04 28536   0.431E+02
DAV:   3    -0.430512490942E+03   -0.26752E+03   -0.26212E+03 31432   0.149E+02
DAV:   4    -0.440166168223E+03   -0.96537E+01   -0.93429E+01 35904   0.278E+01
DAV:   5    -0.440843273174E+03   -0.67710E+00   -0.66909E+00 44024   0.507E+00    0.135E+02
DAV:   6    -0.364833617398E+03    0.76010E+02   -0.37948E+02 35656   0.886E+01    0.145E+02
DAV:   7    -0.335644214283E+03    0.29189E+02   -0.14386E+02 32260   0.992E+01    0.432E+01
DAV:   8    -0.350747007704E+03   -0.15103E+02   -0.31038E+01 35440   0.285E+01    0.225E+01
DAV:   9    -0.351002651857E+03   -0.25564E+00   -0.38836E+00 36688   0.119E+01    0.130E+01
DAV:  10    -0.351405871201E+03   -0.40322E+00   -0.19004E+00 35808   0.115E+01    0.581E+00
DAV:  11    -0.351450619282E+03   -0.44748E-01   -0.54794E-01 37816   0.421E+00    0.254E+00
DAV:  12    -0.351473073109E+03   -0.22454E-01   -0.83387E-02 36440   0.215E+00    0.132E+00
DAV:  13    -0.351497398755E+03   -0.24326E-01   -0.27892E-02 36872   0.176E+00    0.573E-01
DAV:  14    -0.351505790043E+03   -0.83913E-02   -0.22703E-02 36960   0.108E+00    0.459E-01
DAV:  15    -0.351503020508E+03    0.27695E-02   -0.10895E-02 30136   0.736E-01    0.172E-01
DAV:  16    -0.351501374224E+03    0.16463E-02   -0.75681E-04 37208   0.163E-01    0.100E-01
DAV:  17    -0.351501493830E+03   -0.11961E-03   -0.21469E-04 30296   0.590E-02    0.596E-02
DAV:  18    -0.351501044553E+03    0.44928E-03   -0.58220E-05 30648   0.102E-01    0.382E-02
DAV:  19    -0.351501388486E+03   -0.34393E-03   -0.32981E-05 24592   0.318E-02    0.221E-02
DAV:  20    -0.351501461268E+03   -0.72781E-04   -0.54685E-06 15856   0.252E-02    0.185E-02
DAV:  21    -0.351501515757E+03   -0.54489E-04   -0.11345E-05 19880   0.464E-02    0.159E-02
DAV:  22    -0.351501598505E+03   -0.82748E-04   -0.32543E-05 20872   0.274E-02    0.162E-02
DAV:  23    -0.351501711543E+03   -0.11304E-03   -0.29172E-06 14840   0.230E-02    0.132E-02
DAV:  24    -0.351501645906E+03    0.65637E-04   -0.47759E-06 15312   0.260E-02    0.759E-03
DAV:  25    -0.351501575554E+03    0.70353E-04   -0.11880E-05 16496   0.157E-02    0.475E-03
DAV:  26    -0.351501562007E+03    0.13546E-04   -0.35989E-06 14584   0.908E-03    0.388E-03
DAV:  27    -0.351501588049E+03   -0.26042E-04   -0.10179E-06 14192   0.460E-03    0.212E-03
DAV:  28    -0.351501593135E+03   -0.50859E-05   -0.41038E-07 13872   0.275E-03
   1 F= -.35150159E+03 E0= -.35150159E+03  d E =-.351502E+03  mag=     8.0000
       N       E                     dE             d eps       ncg     rms          rms(c)
DAV:   1    -0.351435727085E+03    0.65861E-01   -0.10947E+00 33008   0.143E+01    0.888E-01
DAV:   2    -0.351501443242E+03   -0.65716E-01   -0.63345E-01 26664   0.217E+00    0.451E-01
DAV:   3    -0.351502951367E+03   -0.15081E-02   -0.15493E-02 27116   0.405E-01    0.223E-01
DAV:   4    -0.351503025902E+03   -0.74534E-04   -0.59628E-04 33616   0.758E-02    0.177E-01
DAV:   5    -0.351502992504E+03    0.33398E-04   -0.14231E-04 29776   0.104E-01    0.740E-02
DAV:   6    -0.351503030490E+03   -0.37986E-04   -0.67648E-05 25416   0.444E-02    0.156E-02
DAV:   7    -0.351503017376E+03    0.13115E-04   -0.10660E-05 18144   0.181E-02    0.105E-02
DAV:   8    -0.351503029521E+03   -0.12145E-04   -0.51594E-06 14336   0.102E-02    0.989E-03
DAV:   9    -0.351503029093E+03    0.42814E-06   -0.15311E-06 13812   0.668E-03
   2 F= -.35150303E+03 E0= -.35150303E+03  d E =-.143596E-02  mag=     8.0000
       N       E                     dE             d eps       ncg     rms          rms(c)
DAV:   1    -0.351502463581E+03    0.56594E-03   -0.94679E-03 33040   0.133E+00    0.832E-02
DAV:   2    -0.351503052011E+03   -0.58843E-03   -0.54688E-03 25904   0.202E-01    0.415E-02
DAV:   3    -0.351503034245E+03    0.17766E-04   -0.13273E-04 21848   0.380E-02    0.205E-02
DAV:   4    -0.351503035102E+03   -0.85686E-06   -0.54576E-06 15872   0.844E-03    0.162E-02
DAV:   5    -0.351503025459E+03    0.96435E-05   -0.10865E-06 13820   0.109E-02    0.842E-03
DAV:   6    -0.351503027273E+03   -0.18140E-05   -0.11321E-06 13764   0.594E-03
   3 F= -.35150303E+03 E0= -.35150303E+03  d E =-.143414E-02  mag=     8.0000
       N       E                     dE             d eps       ncg     rms          rms(c)
DAV:   1    -0.351459349458E+03    0.43676E-01   -0.78497E-01 30860   0.115E+01    0.818E-01
DAV:   2    -0.351501782568E+03   -0.42433E-01   -0.42636E-01 27324   0.193E+00    0.437E-01
DAV:   3    -0.351502969741E+03   -0.11872E-02   -0.10584E-02 29460   0.356E-01    0.233E-01
DAV:   4    -0.351502961894E+03    0.78475E-05   -0.57122E-04 36376   0.102E-01    0.155E-01
DAV:   5    -0.351502997746E+03   -0.35853E-04   -0.15265E-04 30972   0.818E-02    0.542E-02
DAV:   6    -0.351503042732E+03   -0.44986E-04   -0.48336E-05 25576   0.301E-02    0.176E-02
DAV:   7    -0.351503060827E+03   -0.18095E-04   -0.64766E-06 16012   0.123E-02    0.128E-02
DAV:   8    -0.351503047472E+03    0.13355E-04   -0.22206E-06 14012   0.841E-03    0.966E-03
DAV:   9    -0.351503047520E+03   -0.47272E-07   -0.10776E-06 13804   0.644E-03
   4 F= -.35150305E+03 E0= -.35150305E+03  d E =-.202469E-04  mag=     8.0000
       N       E                     dE             d eps       ncg     rms          rms(c)
DAV:   1    -0.351492961686E+03    0.10086E-01   -0.18353E-01 31156   0.555E+00    0.395E-01
DAV:   2    -0.351503657413E+03   -0.10696E-01   -0.99469E-02 27268   0.930E-01    0.207E-01
DAV:   3    -0.351503544491E+03    0.11292E-03   -0.25052E-03 28292   0.172E-01    0.112E-01
DAV:   4    -0.351503490299E+03    0.54192E-04   -0.13058E-04 31792   0.499E-02    0.736E-02
DAV:   5    -0.351503456697E+03    0.33602E-04   -0.36275E-05 23940   0.409E-02    0.250E-02
DAV:   6    -0.351503430872E+03    0.25825E-04   -0.13349E-05 18584   0.161E-02    0.839E-03
DAV:   7    -0.351503411367E+03    0.19505E-04   -0.22634E-06 13800   0.811E-03    0.670E-03
DAV:   8    -0.351503422221E+03   -0.10854E-04   -0.87792E-07 13684   0.496E-03    0.476E-03
DAV:   9    -0.351503427812E+03   -0.55912E-05   -0.43601E-07 13612   0.334E-03
   5 F= -.35150343E+03 E0= -.35150343E+03  d E =-.400539E-03  mag=     8.0000
       N       E                     dE             d eps       ncg     rms          rms(c)
DAV:   1    -0.351488629005E+03    0.14793E-01   -0.31776E-01 29940   0.679E+00    0.474E-01
DAV:   2    -0.351503504236E+03   -0.14875E-01   -0.15036E-01 26864   0.117E+00    0.254E-01
DAV:   3    -0.351503917003E+03   -0.41277E-03   -0.37470E-03 30280   0.209E-01    0.128E-01
DAV:   4    -0.351503877854E+03    0.39149E-04   -0.20068E-04 34312   0.591E-02    0.881E-02
DAV:   5    -0.351503910073E+03   -0.32219E-04   -0.55950E-05 28720   0.520E-02    0.295E-02
DAV:   6    -0.351503893608E+03    0.16465E-04   -0.22430E-05 21088   0.199E-02    0.115E-02
DAV:   7    -0.351503915153E+03   -0.21544E-04   -0.34774E-06 14296   0.878E-03    0.755E-03
DAV:   8    -0.351503901260E+03    0.13893E-04   -0.11649E-06 13824   0.541E-03    0.625E-03
DAV:   9    -0.351503898947E+03    0.23131E-05   -0.46481E-07 13776   0.394E-03
   6 F= -.35150390E+03 E0= -.35150390E+03  d E =-.471135E-03  mag=     8.0000
       N       E                     dE             d eps       ncg     rms          rms(c)
DAV:   1    -0.351500863960E+03    0.30373E-02   -0.63447E-02 30024   0.303E+00    0.211E-01
DAV:   2    -0.351503718785E+03   -0.28548E-02   -0.29890E-02 26908   0.519E-01    0.113E-01
DAV:   3    -0.351503852466E+03   -0.13368E-03   -0.74395E-04 30180   0.932E-02    0.572E-02
DAV:   4    -0.351503843258E+03    0.92078E-05   -0.37115E-05 25336   0.264E-02    0.392E-02
DAV:   5    -0.351503877784E+03   -0.34526E-04   -0.14750E-05 17980   0.249E-02    0.131E-02
DAV:   6    -0.351503862070E+03    0.15714E-04   -0.64455E-06 13996   0.107E-02    0.608E-03
DAV:   7    -0.351503863592E+03   -0.15226E-05   -0.14688E-06 13768   0.589E-03
   7 F= -.35150386E+03 E0= -.35150386E+03  d E =-.435780E-03  mag=     8.0000
       N       E                     dE             d eps       ncg     rms          rms(c)
DAV:   1    -0.351502680707E+03    0.11814E-02   -0.24443E-02 30012   0.188E+00    0.131E-01
DAV:   2    -0.351503964209E+03   -0.12835E-02   -0.11552E-02 26704   0.322E-01    0.696E-02
DAV:   3    -0.351503922117E+03    0.42092E-04   -0.28685E-04 26148   0.576E-02    0.355E-02
DAV:   4    -0.351503920754E+03    0.13632E-05   -0.13633E-05 18744   0.168E-02    0.241E-02
DAV:   5    -0.351503889113E+03    0.31641E-04   -0.65891E-06 14784   0.158E-02    0.816E-03
DAV:   6    -0.351503899024E+03   -0.99113E-05   -0.28716E-06 13320   0.689E-03
   8 F= -.35150390E+03 E0= -.35150390E+03  d E =-.471212E-03  mag=     8.0000
       N       E                     dE             d eps       ncg     rms          rms(c)
DAV:   1    -0.351498137891E+03    0.57512E-02   -0.15924E-01 29008   0.426E+00    0.329E-01
DAV:   2    -0.351504286791E+03   -0.61489E-02   -0.60712E-02 28188   0.766E-01    0.170E-01
DAV:   3    -0.351504265953E+03    0.20838E-04   -0.14945E-03 31096   0.136E-01    0.992E-02
DAV:   4    -0.351504228920E+03    0.37033E-04   -0.95178E-05 33208   0.449E-02    0.642E-02
DAV:   5    -0.351504201154E+03    0.27766E-04   -0.25529E-05 22400   0.370E-02    0.191E-02
DAV:   6    -0.351504188330E+03    0.12824E-04   -0.15801E-05 16656   0.182E-02    0.958E-03
DAV:   7    -0.351504195974E+03   -0.76436E-05   -0.30354E-06 14208   0.105E-02
   9 F= -.35150420E+03 E0= -.35150420E+03  d E =-.296949E-03  mag=     8.0000
       N       E                     dE             d eps       ncg     rms          rms(c)
DAV:   1    -0.351504192303E+03   -0.39727E-05   -0.11005E-04 27012   0.111E-01    0.103E-02
DAV:   2    -0.351504198751E+03   -0.64486E-05   -0.41889E-05 18856   0.210E-02    0.538E-03
DAV:   3    -0.351504194899E+03    0.38526E-05   -0.10138E-06 13680   0.470E-03    0.319E-03
DAV:   4    -0.351504194339E+03    0.55990E-06   -0.28330E-07 13588   0.214E-03    0.240E-03
DAV:   5    -0.351504194083E+03    0.25545E-06   -0.89255E-08 13548   0.188E-03    0.990E-04
DAV:   6    -0.351504193678E+03    0.40519E-06   -0.52621E-08 13444   0.102E-03
  10 F= -.35150419E+03 E0= -.35150419E+03  d E =-.294654E-03  mag=     8.0000
       N       E                     dE             d eps       ncg     rms          rms(c)
DAV:   1    -0.351500406229E+03    0.37879E-02   -0.11255E-01 27968   0.341E+00    0.261E-01
DAV:   2    -0.351504332038E+03   -0.39258E-02   -0.40650E-02 28376   0.640E-01    0.143E-01
DAV:   3    -0.351504442260E+03   -0.11022E-03   -0.10407E-03 31984   0.114E-01    0.792E-02
DAV:   4    -0.351504407182E+03    0.35078E-04   -0.72848E-05 31136   0.378E-02    0.503E-02
DAV:   5    -0.351504439838E+03   -0.32656E-04   -0.19925E-05 19288   0.288E-02    0.146E-02
DAV:   6    -0.351504439242E+03    0.59613E-06   -0.10641E-05 15804   0.138E-02
  11 F= -.35150444E+03 E0= -.35150444E+03  d E =-.245564E-03  mag=     8.0000
       N       E                     dE             d eps       ncg     rms          rms(c)
DAV:   1    -0.351504379080E+03    0.60758E-04   -0.18204E-03 28072   0.435E-01    0.341E-02
DAV:   2    -0.351504432388E+03   -0.53308E-04   -0.66070E-04 29616   0.820E-02    0.185E-02
DAV:   3    -0.351504440811E+03   -0.84222E-05   -0.16282E-05 15588   0.147E-02    0.105E-02
DAV:   4    -0.351504440860E+03   -0.49000E-07   -0.16595E-06 13540   0.576E-03    0.691E-03
DAV:   5    -0.351504443516E+03   -0.26566E-05   -0.73475E-07 13488   0.507E-03    0.361E-03
DAV:   6    -0.351504443375E+03    0.14099E-06   -0.36931E-07 13312   0.309E-03
  12 F= -.35150444E+03 E0= -.35150444E+03  d E =-.249697E-03  mag=     8.0000
       N       E                     dE             d eps       ncg     rms          rms(c)
DAV:   1    -0.351501592260E+03    0.28513E-02   -0.11734E-01 26908   0.295E+00    0.246E-01
DAV:   2    -0.351504547923E+03   -0.29557E-02   -0.31936E-02 29352   0.579E-01    0.133E-01
DAV:   3    -0.351504622210E+03   -0.74287E-04   -0.76864E-04 33676   0.112E-01    0.715E-02
DAV:   4    -0.351504591933E+03    0.30277E-04   -0.53857E-05 29168   0.351E-02    0.444E-02
DAV:   5    -0.351504636575E+03   -0.44641E-04   -0.21321E-05 19032   0.275E-02    0.135E-02
DAV:   6    -0.351504631493E+03    0.50814E-05   -0.98075E-06 15344   0.145E-02
  13 F= -.35150463E+03 E0= -.35150463E+03  d E =-.188118E-03  mag=     8.0000
       N       E                     dE             d eps       ncg     rms          rms(c)
DAV:   1    -0.351504568471E+03    0.68103E-04   -0.25437E-03 26888   0.436E-01    0.377E-02
DAV:   2    -0.351504624118E+03   -0.55646E-04   -0.70728E-04 30248   0.876E-02    0.219E-02
DAV:   3    -0.351504628487E+03   -0.43695E-05   -0.15330E-05 16880   0.183E-02    0.115E-02
DAV:   4    -0.351504627478E+03    0.10088E-05   -0.25180E-06 13752   0.661E-03    0.848E-03
DAV:   5    -0.351504633832E+03   -0.63538E-05   -0.89358E-07 13700   0.570E-03    0.423E-03
DAV:   6    -0.351504632828E+03    0.10044E-05   -0.48753E-07 13464   0.379E-03
  14 F= -.35150463E+03 E0= -.35150463E+03  d E =-.189452E-03  mag=     8.0000
       N       E                     dE             d eps       ncg     rms          rms(c)
DAV:   1    -0.351502759388E+03    0.18744E-02   -0.82754E-02 26976   0.227E+00    0.187E-01
DAV:   2    -0.351504786608E+03   -0.20272E-02   -0.20554E-02 28016   0.448E-01    0.956E-02
DAV:   3    -0.351504758520E+03    0.28088E-04   -0.49656E-04 29600   0.790E-02    0.531E-02
DAV:   4    -0.351504768315E+03   -0.97953E-05   -0.32002E-05 24352   0.259E-02    0.346E-02
DAV:   5    -0.351504747759E+03    0.20556E-04   -0.16314E-05 18064   0.223E-02    0.136E-02
DAV:   6    -0.351504755523E+03   -0.77640E-05   -0.54697E-06 14296   0.111E-02
  15 F= -.35150476E+03 E0= -.35150476E+03  d E =-.122695E-03  mag=     8.0000
       N       E                     dE             d eps       ncg     rms          rms(c)
DAV:   1    -0.351504749594E+03   -0.18348E-05   -0.44324E-04 26488   0.168E-01    0.149E-02
DAV:   2    -0.351504760985E+03   -0.11391E-04   -0.11079E-04 22448   0.338E-02    0.833E-03
DAV:   3    -0.351504761753E+03   -0.76850E-06   -0.27477E-06 14552   0.689E-03    0.484E-03
DAV:   4    -0.351504762698E+03   -0.94474E-06   -0.40740E-07 13368   0.302E-03    0.371E-03
DAV:   5    -0.351504763767E+03   -0.10696E-05   -0.17966E-07 13360   0.262E-03    0.161E-03
DAV:   6    -0.351504764085E+03   -0.31808E-06   -0.99190E-08 13328   0.150E-03
  16 F= -.35150476E+03 E0= -.35150476E+03  d E =-.131258E-03  mag=     8.0000
       N       E                     dE             d eps       ncg     rms          rms(c)
DAV:   1    -0.351504109014E+03    0.65475E-03   -0.52305E-02 26512   0.152E+00    0.135E-01
DAV:   2    -0.351504966168E+03   -0.85715E-03   -0.82691E-03 28888   0.317E-01    0.784E-02
DAV:   3    -0.351504897970E+03    0.68198E-04   -0.19084E-04 30208   0.674E-02    0.428E-02
DAV:   4    -0.351504894138E+03    0.38321E-05   -0.19814E-05 21824   0.250E-02    0.236E-02
DAV:   5    -0.351504860269E+03    0.33869E-04   -0.11885E-05 16680   0.191E-02    0.142E-02
DAV:   6    -0.351504873943E+03   -0.13674E-04   -0.48130E-06 13868   0.115E-02    0.654E-03
DAV:   7    -0.351504874739E+03   -0.79652E-06   -0.14957E-06 13740   0.620E-03
  17 F= -.35150487E+03 E0= -.35150487E+03  d E =-.110654E-03  mag=     8.0000
       N       E                     dE             d eps       ncg     rms          rms(c)
DAV:   1    -0.351504861888E+03    0.12055E-04   -0.50175E-04 26436   0.149E-01    0.133E-02
DAV:   2    -0.351504883531E+03   -0.21643E-04   -0.78431E-05 21936   0.308E-02    0.746E-03
DAV:   3    -0.351504876829E+03    0.67017E-05   -0.19005E-06 14208   0.717E-03    0.424E-03
DAV:   4    -0.351504877678E+03   -0.84862E-06   -0.44592E-07 13364   0.270E-03    0.297E-03
DAV:   5    -0.351504875407E+03    0.22702E-05   -0.13420E-07 13348   0.185E-03    0.137E-03
DAV:   6    -0.351504876502E+03   -0.10947E-05   -0.65436E-08 13316   0.144E-03
  18 F= -.35150488E+03 E0= -.35150488E+03  d E =-.112417E-03  mag=     8.0000
       N       E                     dE             d eps       ncg     rms          rms(c)
DAV:   1    -0.351504548334E+03    0.32707E-03   -0.37615E-02 26224   0.118E+00    0.101E-01
DAV:   2    -0.351504960610E+03   -0.41228E-03   -0.45929E-03 29296   0.238E-01    0.470E-02
DAV:   3    -0.351504957160E+03    0.34498E-05   -0.10502E-04 27400   0.422E-02    0.260E-02
DAV:   4    -0.351504965022E+03   -0.78617E-05   -0.91165E-06 18032   0.150E-02    0.159E-02
DAV:   5    -0.351504953019E+03    0.12003E-04   -0.63615E-06 14840   0.119E-02    0.633E-03
DAV:   6    -0.351504962056E+03   -0.90376E-05   -0.17493E-06 13868   0.673E-03
  19 F= -.35150496E+03 E0= -.35150496E+03  d E =-.855542E-04  mag=     8.0000
       N       E                     dE             d eps       ncg     rms          rms(c)
DAV:   1    -0.351504890505E+03    0.62514E-04   -0.72835E-03 26248   0.518E-01    0.449E-02
DAV:   2    -0.351504971863E+03   -0.81358E-04   -0.88870E-04 29768   0.104E-01    0.205E-02
DAV:   3    -0.351504971681E+03    0.18220E-06   -0.19019E-05 19896   0.182E-02    0.122E-02
DAV:   4    -0.351504971161E+03    0.51942E-06   -0.26739E-06 14008   0.795E-03    0.834E-03
DAV:   5    -0.351504970498E+03    0.66350E-06   -0.14354E-06 13780   0.679E-03    0.447E-03
DAV:   6    -0.351504973734E+03   -0.32359E-05   -0.69151E-07 13532   0.403E-03
  20 F= -.35150497E+03 E0= -.35150497E+03  d E =-.972314E-04  mag=     8.0000
       N       E                     dE             d eps       ncg     rms          rms(c)
DAV:   1    -0.351504718277E+03    0.25222E-03   -0.23159E-02 26224   0.973E-01    0.872E-02
DAV:   2    -0.351504980220E+03   -0.26194E-03   -0.33725E-03 29000   0.202E-01    0.482E-02
DAV:   3    -0.351505014408E+03   -0.34187E-04   -0.75639E-05 25376   0.425E-02    0.280E-02
DAV:   4    -0.351505015266E+03   -0.85832E-06   -0.92737E-06 16328   0.148E-02    0.174E-02
DAV:   5    -0.351505033872E+03   -0.18606E-04   -0.50085E-06 14040   0.105E-02    0.573E-03
DAV:   6    -0.351505028628E+03    0.52446E-05   -0.13968E-06 13616   0.535E-03
  21 F= -.35150503E+03 E0= -.35150503E+03  d E =-.548939E-04  mag=     8.0000
       N       E                     dE             d eps       ncg     rms          rms(c)
DAV:   1    -0.351505007254E+03    0.26618E-04   -0.16011E-03 26288   0.255E-01    0.231E-02
DAV:   2    -0.351505017047E+03   -0.97929E-05   -0.23202E-04 29656   0.530E-02    0.125E-02
DAV:   3    -0.351505025409E+03   -0.83616E-05   -0.47971E-06 15048   0.111E-02    0.763E-03
DAV:   4    -0.351505026263E+03   -0.85371E-06   -0.89502E-07 13332   0.445E-03    0.533E-03
DAV:   5    -0.351505030642E+03   -0.43790E-05   -0.46220E-07 13324   0.377E-03    0.238E-03
DAV:   6    -0.351505030110E+03    0.53156E-06   -0.18803E-07 13260   0.248E-03
  22 F= -.35150503E+03 E0= -.35150503E+03  d E =-.563766E-04  mag=     8.0000
       N       E                     dE             d eps       ncg     rms          rms(c)
DAV:   1    -0.351504784514E+03    0.24613E-03   -0.19762E-02 26248   0.931E-01    0.721E-02
DAV:   2    -0.351505074699E+03   -0.29018E-03   -0.31263E-03 28240   0.186E-01    0.386E-02
DAV:   3    -0.351505076814E+03   -0.21148E-05   -0.66993E-05 23164   0.357E-02    0.200E-02
DAV:   4    -0.351505074151E+03    0.26623E-05   -0.63369E-06 15648   0.109E-02    0.136E-02
DAV:   5    -0.351505077642E+03   -0.34906E-05   -0.31983E-06 13724   0.102E-02    0.576E-03
DAV:   6    -0.351505075156E+03    0.24857E-05   -0.15488E-06 13444   0.637E-03
  23 F= -.35150508E+03 E0= -.35150508E+03  d E =-.450461E-04  mag=     8.0000
       N       E                     dE             d eps       ncg     rms          rms(c)
DAV:   1    -0.351504870531E+03    0.20711E-03   -0.14536E-02 26248   0.800E-01    0.618E-02
DAV:   2    -0.351505083130E+03   -0.21260E-03   -0.22963E-03 28840   0.159E-01    0.324E-02
DAV:   3    -0.351505084015E+03   -0.88503E-06   -0.48105E-05 22400   0.300E-02    0.180E-02
DAV:   4    -0.351505085343E+03   -0.13273E-05   -0.51834E-06 14872   0.997E-03    0.133E-02
DAV:   5    -0.351505081859E+03    0.34840E-05   -0.23749E-06 13748   0.952E-03    0.678E-03
DAV:   6    -0.351505083284E+03   -0.14250E-05   -0.14096E-06 13516   0.570E-03
  24 F= -.35150508E+03 E0= -.35150508E+03  d E =-.531736E-04  mag=     8.0000
       N       E                     dE             d eps       ncg     rms          rms(c)
DAV:   1    -0.351505023681E+03    0.58177E-04   -0.14958E-02 26232   0.589E-01    0.539E-02
DAV:   2    -0.351505111724E+03   -0.88042E-04   -0.11998E-03 29168   0.121E-01    0.278E-02
DAV:   3    -0.351505105117E+03    0.66066E-05   -0.24762E-05 22992   0.248E-02    0.164E-02
DAV:   4    -0.351505103717E+03    0.13998E-05   -0.55674E-06 14596   0.101E-02    0.110E-02
DAV:   5    -0.351505109753E+03   -0.60354E-05   -0.24995E-06 13724   0.850E-03    0.567E-03
DAV:   6    -0.351505106079E+03    0.36735E-05   -0.10496E-06 13592   0.549E-03
  25 F= -.35150511E+03 E0= -.35150511E+03  d E =-.227954E-04  mag=     8.0000
       N       E                     dE             d eps       ncg     rms          rms(c)
DAV:   1    -0.351505095225E+03    0.14528E-04   -0.20818E-03 26248   0.220E-01    0.205E-02
DAV:   2    -0.351505107169E+03   -0.11945E-04   -0.16805E-04 30064   0.454E-02    0.104E-02
DAV:   3    -0.351505104006E+03    0.31634E-05   -0.33754E-06 14836   0.913E-03    0.627E-03
DAV:   4    -0.351505103685E+03    0.32103E-06   -0.79539E-07 13368   0.392E-03    0.422E-03
DAV:   5    -0.351505105716E+03   -0.20314E-05   -0.37486E-07 13324   0.326E-03    0.217E-03
DAV:   6    -0.351505104021E+03    0.16957E-05   -0.16442E-07 13260   0.209E-03
  26 F= -.35150510E+03 E0= -.35150510E+03  d E =-.207371E-04  mag=     8.0000
       N       E                     dE             d eps       ncg     rms          rms(c)
DAV:   1    -0.351505047934E+03    0.57782E-04   -0.71581E-03 26296   0.511E-01    0.447E-02
DAV:   2    -0.351505102760E+03   -0.54825E-04   -0.99144E-04 28800   0.109E-01    0.242E-02
DAV:   3    -0.351505114148E+03   -0.11389E-04   -0.22320E-05 19144   0.227E-02    0.135E-02
DAV:   4    -0.351505116115E+03   -0.19664E-05   -0.42213E-06 13752   0.896E-03    0.103E-02
DAV:   5    -0.351505123616E+03   -0.75009E-05   -0.17974E-06 13512   0.757E-03    0.500E-03
DAV:   6    -0.351505123604E+03    0.11940E-07   -0.78624E-07 13348   0.480E-03
  27 F= -.35150512E+03 E0= -.35150512E+03  d E =-.195831E-04  mag=     8.0000
       N       E                     dE             d eps       ncg     rms          rms(c)
DAV:   1    -0.351504870331E+03    0.25329E-03   -0.23037E-02 26288   0.917E-01    0.802E-02
DAV:   2    -0.351505091086E+03   -0.22076E-03   -0.31993E-03 29020   0.196E-01    0.435E-02
DAV:   3    -0.351505110152E+03   -0.19066E-04   -0.78673E-05 25920   0.407E-02    0.234E-02
DAV:   4    -0.351505113440E+03   -0.32879E-05   -0.93727E-06 16060   0.142E-02    0.148E-02
DAV:   5    -0.351505122362E+03   -0.89229E-05   -0.49293E-06 14048   0.973E-03    0.557E-03
DAV:   6    -0.351505122545E+03   -0.18286E-06   -0.13766E-06 13764   0.495E-03
  28 F= -.35150512E+03 E0= -.35150512E+03  d E =-.185245E-04  mag=     8.0000
       N       E                     dE             d eps       ncg     rms          rms(c)
DAV:   1    -0.351505010880E+03    0.11148E-03   -0.92408E-03 26240   0.619E-01    0.540E-02
DAV:   2    -0.351505121557E+03   -0.11068E-03   -0.14068E-03 27768   0.128E-01    0.279E-02
DAV:   3    -0.351505130345E+03   -0.87879E-05   -0.29904E-05 20936   0.231E-02    0.155E-02
DAV:   4    -0.351505130388E+03   -0.43121E-07   -0.47549E-06 14120   0.975E-03    0.121E-02
DAV:   5    -0.351505132631E+03   -0.22425E-05   -0.20694E-06 13716   0.881E-03    0.559E-03
DAV:   6    -0.351505131415E+03    0.12157E-05   -0.10902E-06 13472   0.502E-03
  29 F= -.35150513E+03 E0= -.35150513E+03  d E =-.886969E-05  mag=     8.0000
       N       E                     dE             d eps       ncg     rms          rms(c)
DAV:   1    -0.351505069382E+03    0.63249E-04   -0.44016E-03 26248   0.428E-01    0.374E-02
DAV:   2    -0.351505117757E+03   -0.48376E-04   -0.67209E-04 28352   0.879E-02    0.188E-02
DAV:   3    -0.351505123966E+03   -0.62089E-05   -0.14411E-05 18552   0.157E-02    0.106E-02
DAV:   4    -0.351505124331E+03   -0.36487E-06   -0.22239E-06 13708   0.677E-03    0.816E-03
DAV:   5    -0.351505125802E+03   -0.14711E-05   -0.94841E-07 13420   0.598E-03    0.385E-03
DAV:   6    -0.351505124882E+03    0.92012E-06   -0.53722E-07 13236   0.334E-03
  30 F= -.35150512E+03 E0= -.35150512E+03  d E =-.233660E-05  mag=     8.0000
       N       E                     dE             d eps       ncg     rms          rms(c)
DAV:   1    -0.351505040301E+03    0.85501E-04   -0.89449E-03 26232   0.565E-01    0.443E-02
DAV:   2    -0.351505125793E+03   -0.85492E-04   -0.10795E-03 28612   0.113E-01    0.234E-02
DAV:   3    -0.351505134004E+03   -0.82109E-05   -0.23797E-05 20832   0.188E-02    0.146E-02
DAV:   4    -0.351505132377E+03    0.16274E-05   -0.29039E-06 14376   0.945E-03    0.987E-03
DAV:   5    -0.351505130840E+03    0.15367E-05   -0.20363E-06 13728   0.746E-03    0.532E-03
DAV:   6    -0.351505131456E+03   -0.61631E-06   -0.82086E-07 13456   0.463E-03
  31 F= -.35150513E+03 E0= -.35150513E+03  d E =-.657444E-05  mag=     8.0000
