       N       E                     dE             d eps       ncg     rms          rms(c)
DAV:   1     0.255677068703E+04    0.25568E+04   -0.12680E+05 40392   0.159E+03
DAV:   2    -0.120256873556E+02   -0.25688E+04   -0.23596E+04 41104   0.438E+02
DAV:   3    -0.305118865465E+03   -0.29309E+03   -0.28787E+03 42984   0.162E+02
DAV:   4    -0.314174216971E+03   -0.90554E+01   -0.89691E+01 49344   0.289E+01
DAV:   5    -0.314556137847E+03   -0.38192E+00   -0.38131E+00 60664   0.461E+00    0.836E+01
DAV:   6    -0.287946775280E+03    0.26609E+02   -0.31542E+02 51416   0.776E+01    0.114E+02
DAV:   7    -0.269363938989E+03    0.18583E+02   -0.18033E+02 42528   0.118E+02    0.358E+01
DAV:   8    -0.262565328171E+03    0.67986E+01   -0.21654E+01 50408   0.217E+01    0.132E+01
DAV:   9    -0.261824004576E+03    0.74132E+00   -0.35556E+00 51208   0.925E+00    0.407E+00
DAV:  10    -0.261917029964E+03   -0.93025E-01   -0.85312E-01 43504   0.338E+00    0.265E+00
DAV:  11    -0.261915348203E+03    0.16818E-02   -0.64108E-02 44208   0.174E+00    0.141E+00
DAV:  12    -0.261916801321E+03   -0.14531E-02   -0.40502E-02 47920   0.860E-01    0.727E-01
DAV:  13    -0.261918171274E+03   -0.13700E-02   -0.91473E-03 43416   0.677E-01    0.438E-01
DAV:  14    -0.261917699005E+03    0.47227E-03   -0.26164E-03 46144   0.405E-01    0.177E-01
DAV:  15    -0.261917870903E+03   -0.17190E-03   -0.16264E-03 44688   0.132E-01    0.753E-02
DAV:  16    -0.261917923566E+03   -0.52663E-04   -0.17534E-04 45568   0.560E-02    0.443E-02
DAV:  17    -0.261917941748E+03   -0.18182E-04   -0.68135E-05 40400   0.430E-02    0.246E-02
DAV:  18    -0.261917949318E+03   -0.75702E-05   -0.15656E-05 27920   0.243E-02
   1 F= -.26191795E+03 E0= -.26191795E+03  d E =-.261918E+03  mag=    11.9999
