       N       E                     dE             d eps       ncg     rms          ort
DAV:   1     0.221498847284E+04    0.22150E+04   -0.13302E+05  9828   0.153E+03
DAV:   2    -0.256123910765E+03   -0.24711E+04   -0.23662E+04  9828   0.405E+02
DAV:   3    -0.477083512627E+03   -0.22096E+03   -0.21690E+03  9828   0.141E+02
DAV:   4    -0.485400473622E+03   -0.83170E+01   -0.82273E+01  9828   0.307E+01
DAV:   5    -0.485814632368E+03   -0.41416E+00   -0.41340E+00  9828   0.479E+00
SDA:   6    -0.255367010270E+03    0.23045E+03   -0.41340E+00  9828   0.832E+03 0.000E+00
CGA:   7    -0.315619345416E+03   -0.60252E+02   -0.90941E+02  9828   0.524E+03-0.934E+01
CGA:   8    -0.327312302154E+03   -0.11693E+02   -0.40460E+02  9828   0.570E+03 0.127E+02
CGA:   9    -0.334709336785E+03   -0.73970E+01   -0.35729E+02  9828   0.557E+03-0.392E+03
CGA:  10    -0.362649585044E+03   -0.27940E+02   -0.46573E+02  9828   0.846E+02-0.158E+02
CGA:  11    -0.369444623342E+03   -0.67950E+01   -0.66589E+01  9828   0.478E+02 0.892E+01
CGA:  12    -0.372906471258E+03   -0.34618E+01   -0.27983E+01  9828   0.746E+01 0.912E+01
CGA:  13    -0.374703235476E+03   -0.17968E+01   -0.18038E+01  9828   0.338E+02-0.122E+00
CGA:  14    -0.376320857982E+03   -0.16176E+01   -0.16492E+01  9828   0.867E+01-0.381E+01
CGA:  15    -0.376600899208E+03   -0.28004E+00   -0.46867E+00  9828   0.422E+01-0.144E+01
CGA:  16    -0.376980145192E+03   -0.37925E+00   -0.36847E+00  9828   0.219E+01 0.409E-01
CGA:  17    -0.377160715306E+03   -0.18057E+00   -0.15364E+00  9828   0.177E+01 0.262E+00
CGA:  18    -0.377379020882E+03   -0.21831E+00   -0.21042E+00  9828   0.166E+01-0.278E-01
CGA:  19    -0.377479351928E+03   -0.10033E+00   -0.75041E-01  9828   0.122E+01 0.465E+00
CGA:  20    -0.377611442108E+03   -0.13209E+00   -0.92861E-01  9828   0.136E+01 0.481E+00
CGA:  21    -0.377722777499E+03   -0.11134E+00   -0.68074E-01  9828   0.169E+01 0.981E+00
CGA:  22    -0.377785378830E+03   -0.62601E-01   -0.58181E-01  9828   0.740E+00 0.746E-01
CGA:  23    -0.377833674535E+03   -0.48296E-01   -0.47000E-01  9828   0.129E+01-0.131E-01
CGA:  24    -0.377974116786E+03   -0.14044E+00   -0.14094E+00  9828   0.880E+00-0.192E-01
CGA:  25    -0.378022255910E+03   -0.48139E-01   -0.41262E-01  9828   0.327E+00 0.646E-01
CGA:  26    -0.378061486489E+03   -0.39231E-01   -0.39204E-01  9828   0.926E+00-0.176E-01
CGA:  27    -0.378137997913E+03   -0.76511E-01   -0.79580E-01  9828   0.769E+00-0.298E-01
CGA:  28    -0.378179535033E+03   -0.41537E-01   -0.42256E-01  9828   0.348E+00-0.703E-01
CGA:  29    -0.378208897320E+03   -0.29362E-01   -0.28925E-01  9828   0.262E+00-0.313E-01
CGA:  30    -0.378247936143E+03   -0.39039E-01   -0.41436E-01  9828   0.467E+00-0.460E-01
CGA:  31    -0.378287678141E+03   -0.39742E-01   -0.37819E-01  9828   0.283E+00-0.938E-01
CGA:  32    -0.378320163304E+03   -0.32485E-01   -0.33868E-01  9828   0.211E+00-0.499E-01
CGA:  33    -0.378351948507E+03   -0.31785E-01   -0.40029E-01  9828   0.209E+00-0.700E-01
CGA:  34    -0.378367142032E+03   -0.15194E-01   -0.14826E-01  9828   0.150E+00-0.294E-01
CGA:  35    -0.378390867540E+03   -0.23726E-01   -0.25466E-01  9828   0.107E+00-0.197E-01
CGA:  36    -0.378406554859E+03   -0.15687E-01   -0.16092E-01  9828   0.777E-01-0.650E-02
CGA:  37    -0.378419712838E+03   -0.13158E-01   -0.13275E-01  9828   0.678E-01-0.232E-02
CGA:  38    -0.378435425337E+03   -0.15712E-01   -0.15962E-01  9828   0.336E-01-0.142E-02
CGA:  39    -0.378439911267E+03   -0.44859E-02   -0.44913E-02  9828   0.179E-01 0.600E-02
CGA:  40    -0.378443931458E+03   -0.40202E-02   -0.37000E-02  9828   0.153E-01 0.847E-02
CGA:  41    -0.378447410415E+03   -0.34790E-02   -0.33949E-02  9828   0.603E-02 0.719E-02
CGA:  42    -0.378448911115E+03   -0.15007E-02   -0.14194E-02  9828   0.496E-02 0.406E-02
CGA:  43    -0.378450093592E+03   -0.11825E-02   -0.10840E-02  9828   0.309E-02 0.131E-02
CGA:  44    -0.378451933869E+03   -0.18403E-02   -0.14541E-02  9828   0.246E-02 0.169E-02
CGA:  45    -0.378452268020E+03   -0.33415E-03   -0.35256E-03  9828   0.137E-02 0.143E-02
CGA:  46    -0.378452866379E+03   -0.59836E-03   -0.43618E-03  9828   0.137E-02 0.976E-03
CGA:  47    -0.378453057127E+03   -0.19075E-03   -0.20383E-03  9828   0.114E-02 0.893E-03
CGA:  48    -0.378454164698E+03   -0.11076E-02   -0.28767E-04  9828   0.113E-01-0.146E-03
CGA:  49    -0.378458338453E+03   -0.41738E-02   -0.39210E-02  9828   0.934E-02 0.249E-02
CGA:  50    -0.378459057420E+03   -0.71897E-03   -0.96822E-03  9828   0.152E-02 0.193E-02
CGA:  51    -0.378459795870E+03   -0.73845E-03   -0.71942E-03  9828   0.531E-02 0.136E-03
CGA:  52    -0.378461700396E+03   -0.19045E-02   -0.21988E-02  9828   0.665E-02-0.358E-02
CGA:  53    -0.378463413057E+03   -0.17127E-02   -0.16761E-02  9828   0.151E-02-0.748E-03
CGA:  54    -0.378463712269E+03   -0.29921E-03   -0.29759E-03  9828   0.603E-03-0.113E-04
CGA:  55    -0.378463500442E+03    0.21183E-03   -0.52324E-03  9828   0.616E-02-0.126E-02
CGA:  56    -0.378464199141E+03   -0.69870E-03   -0.76546E-03  9828   0.757E-03 0.499E-03
CGA:  57    -0.378464449347E+03   -0.25021E-03   -0.36436E-03  9828   0.166E-02-0.864E-03
CGA:  58    -0.378464599620E+03   -0.15027E-03   -0.21679E-03  9828   0.224E-03 0.366E-03
CGA:  59    -0.378464666985E+03   -0.67365E-04   -0.64358E-04  9828   0.139E-03-0.401E-04
CGA:  60    -0.378464764125E+03   -0.97139E-04    0.44443E-04  9828   0.168E-03 0.728E-04
CGA:  61    -0.378464828591E+03   -0.64466E-04   -0.84701E-04  9828   0.346E-03-0.102E-03
CGA:  62    -0.378464939204E+03   -0.11061E-03   -0.12117E-03  9828   0.699E-03-0.314E-03
CGA:  63    -0.378464959955E+03   -0.20751E-04   -0.62046E-04  9828   0.997E-04 0.195E-03
CGA:  64    -0.378464967087E+03   -0.71321E-05   -0.14956E-04  9828   0.704E-04 0.419E-04
CGA:  65    -0.378465043472E+03   -0.76384E-04    0.52476E-04  9828   0.174E-03 0.271E-04
CGA:  66    -0.378465283652E+03   -0.24018E-03    0.52836E-04  9828   0.471E-03 0.978E-04
CGA:  67    -0.378465312559E+03   -0.28906E-04   -0.56233E-04  9828   0.851E-04 0.155E-03
CGA:  68    -0.378465326354E+03   -0.13795E-04   -0.17557E-04  9828   0.455E-04 0.281E-04
CGA:  69    -0.378465367754E+03   -0.41400E-04    0.40170E-04  9828   0.908E-04 0.325E-04
CGA:  70    -0.378465390439E+03   -0.22685E-04   -0.22952E-04  9828   0.560E-04 0.930E-05
CGA:  71    -0.378465451409E+03   -0.60970E-04    0.11414E-04  9828   0.639E-04 0.416E-04
CGA:  72    -0.378465451516E+03   -0.10727E-06   -0.71976E-05  9828   0.369E-04 0.423E-04
CGA:  73    -0.378465472760E+03   -0.21243E-04    0.85319E-04  9828   0.328E-04 0.305E-04
CGA:  74    -0.378465491940E+03   -0.19181E-04    0.60742E-04  9828   0.317E-04 0.305E-04
CGA:  75    -0.378465518730E+03   -0.26790E-04    0.77733E-05  9828   0.316E-04 0.292E-04
CGA:  76    -0.378465526370E+03   -0.76404E-05   -0.80841E-05  9828   0.332E-04 0.266E-04
   1 F= -.37846553E+03 E0= -.37846552E+03  d E =-.378466E+03  mag=     4.0000
       N       E                     dE             d eps       ncg     rms          ort
SDA:   1    -0.378480175085E+03   -0.14656E-01    0.00000E+00  9828   0.423E-02 0.000E+00
CGA:   2    -0.378481006884E+03   -0.83180E-03   -0.78836E-03  9828   0.217E-02-0.519E-03
CGA:   3    -0.378481233262E+03   -0.22638E-03   -0.26747E-03  9828   0.426E-03 0.334E-03
CGA:   4    -0.378481318485E+03   -0.85223E-04   -0.88276E-04  9828   0.242E-03 0.388E-04
CGA:   5    -0.378478385998E+03    0.29325E-02   -0.16121E-02  9828   0.244E-01-0.240E-02
CGA:   6    -0.378480678412E+03   -0.22924E-02   -0.24380E-02  9828   0.277E-02 0.290E-02
CGA:   7    -0.378481276359E+03   -0.59795E-03   -0.66611E-03  9828   0.884E-03 0.290E-03
CGA:   8    -0.378481519766E+03   -0.24341E-03   -0.20404E-03  9828   0.710E-03-0.172E-03
CGA:   9    -0.378481579002E+03   -0.59236E-04   -0.86420E-04  9828   0.198E-03 0.102E-03
CGA:  10    -0.378481577746E+03    0.12556E-05   -0.18874E-04  9828   0.619E-04 0.638E-04
CGA:  11    -0.378481589717E+03   -0.11971E-04   -0.14052E-04  9828   0.559E-04 0.937E-05
CGA:  12    -0.378481644459E+03   -0.54743E-04    0.11914E-03  9828   0.197E-03-0.104E-03
CGA:  13    -0.378481641544E+03    0.29158E-05   -0.20436E-04  9828   0.585E-04 0.844E-04
CGA:  14    -0.378481642798E+03   -0.12548E-05   -0.10189E-04  9828   0.255E-04 0.359E-04
   2 F= -.37848164E+03 E0= -.37848164E+03  d E =-.161164E-01  mag=     4.0000
       N       E                     dE             d eps       ncg     rms          ort
SDA:   1    -0.376448580468E+03    0.20331E+01    0.00000E+00  9828   0.814E+01 0.000E+00
CGA:   2    -0.378451493736E+03   -0.20029E+01   -0.20038E+01  9828   0.215E+01 0.599E-02
CGA:   3    -0.378984589301E+03   -0.53310E+00   -0.53244E+00  9828   0.594E+00-0.714E-02
CGA:   4    -0.379099707865E+03   -0.11512E+00   -0.11455E+00  9828   0.137E+00-0.295E-02
CGA:   5    -0.379127643749E+03   -0.27936E-01   -0.27874E-01  9828   0.368E-01-0.541E-03
CGA:   6    -0.379137918558E+03   -0.10275E-01   -0.10262E-01  9828   0.164E-01-0.254E-03
CGA:   7    -0.379143124312E+03   -0.52058E-02   -0.52044E-02  9828   0.823E-02-0.126E-03
CGA:   8    -0.379145958370E+03   -0.28341E-02   -0.28371E-02  9828   0.374E-02-0.173E-03
CGA:   9    -0.379147238685E+03   -0.12803E-02   -0.12853E-02  9828   0.157E-02-0.247E-03
CGA:  10    -0.379147774387E+03   -0.53570E-03   -0.54102E-03  9828   0.720E-03-0.147E-03
CGA:  11    -0.379148056796E+03   -0.28241E-03   -0.32430E-03  9828   0.683E-03-0.255E-03
CGA:  12    -0.379148146742E+03   -0.89946E-04   -0.93547E-04  9828   0.313E-03 0.281E-04
CGA:  13    -0.379148246423E+03   -0.99681E-04   -0.97792E-04  9828   0.163E-03-0.539E-04
CGA:  14    -0.379148226714E+03    0.19709E-04   -0.10415E-03  9828   0.106E-02-0.282E-03
CGA:  15    -0.379148329595E+03   -0.10288E-03   -0.13535E-03  9828   0.145E-03 0.155E-03
CGA:  16    -0.379148379745E+03   -0.50150E-04   -0.50495E-04  9828   0.706E-04 0.861E-05
CGA:  17    -0.379148295741E+03    0.84004E-04   -0.71697E-04  9828   0.141E-02-0.251E-03
CGA:  18    -0.379148425877E+03   -0.13014E-03   -0.16733E-03  9828   0.105E-03 0.168E-03
CGA:  19    -0.379148458360E+03   -0.32483E-04   -0.33159E-04  9828   0.626E-04 0.862E-05
CGA:  20    -0.379148463462E+03   -0.51015E-05   -0.40540E-04  9828   0.376E-03-0.145E-03
CGA:  21    -0.379148487794E+03   -0.24333E-04   -0.44237E-04  9828   0.535E-04 0.832E-04
CGA:  22    -0.379148498390E+03   -0.10596E-04   -0.13230E-04  9828   0.315E-04 0.172E-04
CGA:  23    -0.379147847716E+03    0.65067E-03   -0.35519E-03  9828   0.327E-02-0.388E-03
CGA:  24    -0.379148313068E+03   -0.46535E-03   -0.53797E-03  9828   0.730E-03 0.245E-03
CGA:  25    -0.379148590384E+03   -0.27732E-03   -0.26053E-03  9828   0.368E-04-0.594E-04
CGA:  26    -0.379148602567E+03   -0.12183E-04   -0.11081E-04  9828   0.261E-04-0.399E-05
CGA:  27    -0.379148605991E+03   -0.34235E-05   -0.44860E-05  9828   0.483E-05 0.286E-05
   3 F= -.37914861E+03 E0= -.37914861E+03  d E =-.666963E+00  mag=     4.0000
       N       E                     dE             d eps       ncg     rms          ort
SDA:   1    -0.373202801382E+03    0.59458E+01    0.00000E+00  9828   0.203E+02 0.000E+00
CGA:   2    -0.378101182751E+03   -0.48984E+01   -0.49439E+01  9828   0.490E+01 0.127E+00
CGA:   3    -0.379345724533E+03   -0.12445E+01   -0.12420E+01  9828   0.140E+01 0.470E-02
CGA:   4    -0.379622947744E+03   -0.27722E+00   -0.27617E+00  9828   0.333E+00 0.427E-03
CGA:   5    -0.379691530838E+03   -0.68583E-01   -0.68707E-01  9828   0.941E-01 0.458E-03
CGA:   6    -0.379718503139E+03   -0.26972E-01   -0.27113E-01  9828   0.444E-01 0.538E-03
CGA:   7    -0.379733158806E+03   -0.14656E-01   -0.14633E-01  9828   0.233E-01-0.163E-03
CGA:   8    -0.379741084874E+03   -0.79261E-02   -0.78701E-02  9828   0.993E-02-0.362E-03
CGA:   9    -0.379744282865E+03   -0.31980E-02   -0.31763E-02  9828   0.372E-02-0.133E-03
CGA:  10    -0.379745503950E+03   -0.12211E-02   -0.12167E-02  9828   0.156E-02-0.286E-04
CGA:  11    -0.379746028827E+03   -0.52488E-03   -0.52567E-03  9828   0.829E-03 0.897E-05
CGA:  12    -0.379746294077E+03   -0.26525E-03   -0.25944E-03  9828   0.423E-03-0.367E-04
CGA:  13    -0.379746429106E+03   -0.13503E-03   -0.12940E-03  9828   0.182E-03-0.408E-04
CGA:  14    -0.379746498744E+03   -0.69638E-04   -0.68101E-04  9828   0.130E-03-0.459E-04
CGA:  15    -0.379746530897E+03   -0.32153E-04   -0.31721E-04  9828   0.860E-04-0.353E-05
CGA:  16    -0.379746575015E+03   -0.44118E-04   -0.46265E-04  9828   0.944E-04-0.195E-04
CGA:  17    -0.379746618295E+03   -0.43280E-04   -0.55092E-04  9828   0.164E-03-0.403E-04
CGA:  18    -0.379746659702E+03   -0.41407E-04   -0.49671E-04  9828   0.268E-03-0.127E-03
CGA:  19    -0.379746698699E+03   -0.38997E-04   -0.46475E-04  9828   0.782E-04 0.279E-04
CGA:  20    -0.379746727970E+03   -0.29271E-04   -0.29665E-04  9828   0.209E-04 0.387E-05
CGA:  21    -0.379746722387E+03    0.55826E-05   -0.28104E-04  9828   0.148E-03-0.402E-04
CGA:  22    -0.379746732267E+03   -0.98802E-05   -0.21500E-04  9828   0.263E-04 0.347E-04
   4 F= -.37974673E+03 E0= -.37974673E+03  d E =-.598126E+00  mag=     4.0000
       N       E                     dE             d eps       ncg     rms          ort
SDA:   1    -0.376340912688E+03    0.34058E+01    0.00000E+00  9828   0.108E+02 0.000E+00
CGA:   2    -0.379037772174E+03   -0.26969E+01   -0.27016E+01  9828   0.276E+01 0.877E-02
CGA:   3    -0.379765919399E+03   -0.72815E+00   -0.72660E+00  9828   0.713E+00-0.397E-02
CGA:   4    -0.379904747456E+03   -0.13883E+00   -0.13868E+00  9828   0.165E+00-0.504E-03
CGA:   5    -0.379938274559E+03   -0.33527E-01   -0.33593E-01  9828   0.482E-01 0.317E-03
CGA:   6    -0.379952231598E+03   -0.13957E-01   -0.14007E-01  9828   0.224E-01 0.423E-03
CGA:   7    -0.379959766132E+03   -0.75345E-02   -0.75429E-02  9828   0.125E-01 0.116E-03
CGA:   8    -0.379964036707E+03   -0.42706E-02   -0.42680E-02  9828   0.547E-02-0.398E-04
CGA:   9    -0.379965810378E+03   -0.17737E-02   -0.17731E-02  9828   0.201E-02-0.568E-05
CGA:  10    -0.379966451747E+03   -0.64137E-03   -0.64207E-03  9828   0.777E-03 0.107E-04
CGA:  11    -0.379966705438E+03   -0.25369E-03   -0.25652E-03  9828   0.359E-03 0.458E-04
CGA:  12    -0.379966838768E+03   -0.13333E-03   -0.13295E-03  9828   0.202E-03-0.930E-05
CGA:  13    -0.379966898043E+03   -0.59275E-04   -0.59867E-04  9828   0.979E-04 0.775E-05
CGA:  14    -0.379966937878E+03   -0.39835E-04   -0.39866E-04  9828   0.728E-04-0.330E-05
CGA:  15    -0.379966966159E+03   -0.28281E-04   -0.28029E-04  9828   0.641E-04 0.169E-04
CGA:  16    -0.379967004113E+03   -0.37954E-04   -0.36026E-04  9828   0.593E-04 0.266E-04
CGA:  17    -0.379967068238E+03   -0.64125E-04   -0.58496E-04  9828   0.803E-04 0.186E-04
CGA:  18    -0.379967112929E+03   -0.44691E-04   -0.44164E-04  9828   0.675E-04 0.366E-04
CGA:  19    -0.379967156419E+03   -0.43490E-04   -0.43037E-04  9828   0.503E-04 0.151E-04
CGA:  20    -0.379967165302E+03   -0.88828E-05   -0.14312E-04  9828   0.253E-04 0.319E-04
   5 F= -.37996717E+03 E0= -.37996717E+03  d E =-.220433E+00  mag=     4.0000
       N       E                     dE             d eps       ncg     rms          ort
SDA:   1    -0.375815798888E+03    0.41514E+01    0.00000E+00  9828   0.117E+02 0.000E+00
CGA:   2    -0.378990836330E+03   -0.31750E+01   -0.31755E+01  9828   0.368E+01-0.540E-02
CGA:   3    -0.379869198025E+03   -0.87836E+00   -0.87760E+00  9828   0.864E+00-0.265E-02
CGA:   4    -0.380027084723E+03   -0.15789E+00   -0.15791E+00  9828   0.182E+00 0.226E-03
CGA:   5    -0.380064904917E+03   -0.37820E-01   -0.37899E-01  9828   0.510E-01 0.478E-03
CGA:   6    -0.380078921392E+03   -0.14016E-01   -0.14029E-01  9828   0.219E-01 0.165E-03
CGA:   7    -0.380086075957E+03   -0.71546E-02   -0.71514E-02  9828   0.122E-01-0.913E-04
CGA:   8    -0.380090298425E+03   -0.42225E-02   -0.42228E-02  9828   0.583E-02 0.509E-04
CGA:   9    -0.380092190714E+03   -0.18923E-02   -0.18907E-02  9828   0.216E-02-0.471E-04
CGA:  10    -0.380092847574E+03   -0.65686E-03   -0.65874E-03  9828   0.772E-03 0.414E-04
CGA:  11    -0.380093128748E+03   -0.28117E-03   -0.28124E-03  9828   0.400E-03-0.101E-04
CGA:  12    -0.380093239676E+03   -0.11093E-03   -0.11486E-03  9828   0.175E-03 0.653E-04
CGA:  13    -0.380093305256E+03   -0.65580E-04   -0.66325E-04  9828   0.856E-04 0.320E-04
CGA:  14    -0.380093336713E+03   -0.31457E-04   -0.32454E-04  9828   0.509E-04 0.368E-04
CGA:  15    -0.380093354552E+03   -0.17839E-04   -0.20533E-04  9828   0.399E-04 0.416E-04
CGA:  16    -0.380093371680E+03   -0.17128E-04   -0.16078E-04  9828   0.306E-04 0.174E-04
CGA:  17    -0.380093381536E+03   -0.98568E-05   -0.12174E-04  9828   0.260E-04 0.333E-04
CGA:  18    -0.380093397294E+03   -0.15757E-04   -0.13541E-04  9828   0.306E-04 0.123E-04
CGA:  19    -0.380093405585E+03   -0.82913E-05   -0.11640E-04  9828   0.233E-04 0.357E-04
   6 F= -.38009341E+03 E0= -.38009341E+03  d E =-.126240E+00  mag=     4.0000
       N       E                     dE             d eps       ncg     rms          ort
SDA:   1    -0.370302852365E+03    0.97905E+01    0.00000E+00  9828   0.242E+02 0.000E+00
CGA:   2    -0.377989485193E+03   -0.76866E+01   -0.76860E+01  9828   0.854E+01-0.174E-01
CGA:   3    -0.379746583476E+03   -0.17571E+01   -0.17578E+01  9828   0.170E+01-0.307E-02
CGA:   4    -0.380056998087E+03   -0.31041E+00   -0.30947E+00  9828   0.352E+00 0.651E-02
CGA:   5    -0.380133639294E+03   -0.76641E-01   -0.76714E-01  9828   0.951E-01 0.635E-03
CGA:   6    -0.380157940554E+03   -0.24301E-01   -0.24309E-01  9828   0.345E-01 0.124E-03
CGA:   7    -0.380168154944E+03   -0.10214E-01   -0.10215E-01  9828   0.169E-01 0.623E-04
CGA:   8    -0.380173947914E+03   -0.57930E-02   -0.58049E-02  9828   0.926E-02-0.498E-03
CGA:   9    -0.380176447809E+03   -0.24999E-02   -0.25069E-02  9828   0.361E-02 0.206E-03
CGA:  10    -0.380177542213E+03   -0.10944E-02   -0.10911E-02  9828   0.154E-02-0.144E-03
CGA:  11    -0.380177972391E+03   -0.43018E-03   -0.43350E-03  9828   0.677E-03 0.136E-03
CGA:  12    -0.380178253103E+03   -0.28071E-03   -0.27920E-03  9828   0.429E-03 0.228E-04
CGA:  13    -0.380178426604E+03   -0.17350E-03   -0.17193E-03  9828   0.278E-03 0.215E-04
CGA:  14    -0.380178531247E+03   -0.10464E-03   -0.10364E-03  9828   0.170E-03 0.289E-04
CGA:  15    -0.380178624959E+03   -0.93712E-04   -0.94716E-04  9828   0.212E-03-0.781E-05
CGA:  16    -0.380178718897E+03   -0.93937E-04   -0.89431E-04  9828   0.228E-03 0.368E-04
CGA:  17    -0.380178907517E+03   -0.18862E-03   -0.22034E-03  9828   0.494E-03-0.758E-04
CGA:  18    -0.380179027590E+03   -0.12007E-03   -0.12015E-03  9828   0.458E-03-0.619E-04
CGA:  19    -0.380179149287E+03   -0.12170E-03   -0.11939E-03  9828   0.220E-03-0.418E-04
CGA:  20    -0.380179206712E+03   -0.57425E-04   -0.56071E-04  9828   0.138E-03-0.208E-04
CGA:  21    -0.380179224647E+03   -0.17935E-04   -0.23645E-04  9828   0.709E-04 0.327E-04
CGA:  22    -0.380179229713E+03   -0.50655E-05   -0.13303E-04  9828   0.480E-04 0.416E-04
CGA:  23    -0.380179240633E+03   -0.10920E-04   -0.12723E-04  9828   0.301E-04 0.251E-04
CGA:  24    -0.380179241247E+03   -0.61397E-06   -0.45733E-05  9828   0.228E-04 0.219E-04
   7 F= -.38017924E+03 E0= -.38017924E+03  d E =-.858357E-01  mag=     4.0000
       N       E                     dE             d eps       ncg     rms          ort
SDA:   1    -0.378674962603E+03    0.15043E+01    0.00000E+00  9828   0.361E+01 0.000E+00
CGA:   2    -0.379966511661E+03   -0.12915E+01   -0.12918E+01  9828   0.116E+01-0.568E-02
CGA:   3    -0.380186691230E+03   -0.22018E+00   -0.22026E+00  9828   0.218E+00 0.145E-02
CGA:   4    -0.380227568436E+03   -0.40877E-01   -0.40957E-01  9828   0.484E-01 0.548E-03
CGA:   5    -0.380237720016E+03   -0.10152E-01   -0.10161E-01  9828   0.117E-01 0.988E-04
CGA:   6    -0.380240568868E+03   -0.28489E-02   -0.28409E-02  9828   0.354E-02-0.131E-03
CGA:   7    -0.380241583758E+03   -0.10149E-02   -0.10124E-02  9828   0.152E-02-0.227E-03
CGA:   8    -0.380242058014E+03   -0.47426E-03   -0.47935E-03  9828   0.749E-03-0.130E-03
CGA:   9    -0.380242264253E+03   -0.20624E-03   -0.20623E-03  9828   0.310E-03-0.466E-04
CGA:  10    -0.380242356184E+03   -0.91932E-04   -0.92654E-04  9828   0.166E-03-0.414E-04
CGA:  11    -0.380242408870E+03   -0.52686E-04   -0.54371E-04  9828   0.130E-03-0.221E-04
CGA:  12    -0.380242441202E+03   -0.32332E-04   -0.10553E-03  9828   0.560E-03-0.116E-03
CGA:  13    -0.380242528580E+03   -0.87378E-04   -0.95040E-04  9828   0.120E-03 0.483E-04
CGA:  14    -0.380242564466E+03   -0.35885E-04   -0.36218E-04  9828   0.385E-04 0.670E-05
CGA:  15    -0.380242577509E+03   -0.13043E-04   -0.13109E-04  9828   0.201E-04 0.171E-04
CGA:  16    -0.380242582903E+03   -0.53944E-05   -0.69387E-05  9828   0.149E-04 0.177E-04
   8 F= -.38024258E+03 E0= -.38024258E+03  d E =-.633417E-01  mag=     4.0000
       N       E                     dE             d eps       ncg     rms          ort
SDA:   1    -0.379353180602E+03    0.88940E+00    0.00000E+00  9828   0.221E+01 0.000E+00
CGA:   2    -0.380108735767E+03   -0.75556E+00   -0.75558E+00  9828   0.681E+00-0.558E-02
CGA:   3    -0.380248302033E+03   -0.13957E+00   -0.13992E+00  9828   0.136E+00 0.282E-02
CGA:   4    -0.380272969010E+03   -0.24667E-01   -0.24780E-01  9828   0.294E-01 0.748E-03
CGA:   5    -0.380279103162E+03   -0.61342E-02   -0.61497E-02  9828   0.720E-02 0.138E-03
CGA:   6    -0.380280902354E+03   -0.17992E-02   -0.17913E-02  9828   0.225E-02-0.111E-03
CGA:   7    -0.380281556877E+03   -0.65452E-03   -0.65149E-03  9828   0.103E-02-0.152E-03
CGA:   8    -0.380281860241E+03   -0.30336E-03   -0.30333E-03  9828   0.432E-03 0.121E-04
CGA:   9    -0.380281997211E+03   -0.13697E-03   -0.13698E-03  9828   0.174E-03 0.170E-04
CGA:  10    -0.380282050335E+03   -0.53124E-04   -0.53581E-04  9828   0.754E-04 0.265E-04
CGA:  11    -0.380282086951E+03   -0.36617E-04   -0.35756E-04  9828   0.656E-04 0.848E-05
CGA:  12    -0.380282117860E+03   -0.30909E-04   -0.29039E-04  9828   0.567E-04 0.228E-04
CGA:  13    -0.380282143881E+03   -0.26021E-04   -0.25567E-04  9828   0.351E-04 0.344E-04
CGA:  14    -0.380282156014E+03   -0.12133E-04   -0.11952E-04  9828   0.169E-04 0.101E-04
CGA:  15    -0.380282159037E+03   -0.30229E-05   -0.47235E-05  9828   0.125E-04 0.159E-04
   9 F= -.38028216E+03 E0= -.38028216E+03  d E =-.395761E-01  mag=     4.0000
       N       E                     dE             d eps       ncg     rms          ort
SDA:   1    -0.375600121879E+03    0.46820E+01    0.00000E+00  9828   0.110E+02 0.000E+00
CGA:   2    -0.379558305798E+03   -0.39582E+01   -0.39585E+01  9828   0.318E+01-0.618E-02
CGA:   3    -0.380186187293E+03   -0.62788E+00   -0.62804E+00  9828   0.597E+00 0.158E-02
CGA:   4    -0.380298075402E+03   -0.11189E+00   -0.11208E+00  9828   0.139E+00 0.152E-02
CGA:   5    -0.380326901371E+03   -0.28826E-01   -0.28873E-01  9828   0.332E-01 0.473E-03
CGA:   6    -0.380334981390E+03   -0.80800E-02   -0.80633E-02  9828   0.999E-02-0.273E-03
CGA:   7    -0.380337821951E+03   -0.28406E-02   -0.28373E-02  9828   0.413E-02-0.231E-03
CGA:   8    -0.380339182139E+03   -0.13602E-02   -0.13623E-02  9828   0.185E-02-0.560E-04
CGA:   9    -0.380339740750E+03   -0.55861E-03   -0.55838E-03  9828   0.696E-03 0.454E-04
CGA:  10    -0.380339954063E+03   -0.21331E-03   -0.21340E-03  9828   0.319E-03 0.329E-04
CGA:  11    -0.380340076606E+03   -0.12254E-03   -0.12188E-03  9828   0.250E-03 0.917E-05
CGA:  12    -0.380340192652E+03   -0.11605E-03   -0.11053E-03  9828   0.227E-03 0.409E-04
CGA:  13    -0.380340341497E+03   -0.14884E-03   -0.13838E-03  9828   0.200E-03 0.432E-04
CGA:  14    -0.380340442542E+03   -0.10105E-03   -0.95333E-04  9828   0.104E-03 0.670E-04
CGA:  15    -0.380340494027E+03   -0.51485E-04   -0.49913E-04  9828   0.571E-04 0.436E-04
CGA:  16    -0.380340514950E+03   -0.20922E-04   -0.22849E-04  9828   0.334E-04 0.416E-04
CGA:  17    -0.380340528518E+03   -0.13569E-04   -0.12921E-04  9828   0.231E-04 0.104E-04
CGA:  18    -0.380340533490E+03   -0.49719E-05   -0.68798E-05  9828   0.160E-04 0.187E-04
  10 F= -.38034053E+03 E0= -.38034053E+03  d E =-.583745E-01  mag=     4.0000
       N       E                     dE             d eps       ncg     rms          ort
SDA:   1    -0.362842114372E+03    0.17498E+02    0.00000E+00  9828   0.433E+02 0.000E+00
CGA:   2    -0.376410113101E+03   -0.13568E+02   -0.13569E+02  9828   0.143E+02 0.558E-01
CGA:   3    -0.379461102393E+03   -0.30510E+01   -0.30549E+01  9828   0.308E+01 0.103E-01
CGA:   4    -0.380031075863E+03   -0.56997E+00   -0.56987E+00  9828   0.643E+00 0.871E-02
CGA:   5    -0.380164841480E+03   -0.13377E+00   -0.13385E+00  9828   0.175E+00 0.871E-03
CGA:   6    -0.380208250400E+03   -0.43409E-01   -0.43460E-01  9828   0.576E-01 0.991E-03
CGA:   7    -0.380225187837E+03   -0.16937E-01   -0.16929E-01  9828   0.253E-01-0.908E-03
CGA:   8    -0.380233015241E+03   -0.78274E-02   -0.78217E-02  9828   0.112E-01 0.474E-03
CGA:   9    -0.380236558352E+03   -0.35431E-02   -0.35488E-02  9828   0.543E-02-0.589E-03
CGA:  10    -0.380237706143E+03   -0.11478E-02   -0.11878E-02  9828   0.209E-02 0.597E-03
CGA:  11    -0.380238532226E+03   -0.82608E-03   -0.84153E-03  9828   0.165E-02-0.245E-03
CGA:  12    -0.380239055632E+03   -0.52341E-03   -0.51284E-03  9828   0.118E-02 0.205E-03
CGA:  13    -0.380239690344E+03   -0.63471E-03   -0.64190E-03  9828   0.118E-02-0.553E-04
CGA:  14    -0.380240270871E+03   -0.58053E-03   -0.67374E-03  9828   0.140E-02-0.360E-03
CGA:  15    -0.380240550726E+03   -0.27985E-03   -0.28040E-03  9828   0.877E-03-0.127E-04
CGA:  16    -0.380240858304E+03   -0.30758E-03   -0.31516E-03  9828   0.700E-03-0.216E-03
CGA:  17    -0.380241025819E+03   -0.16751E-03   -0.16746E-03  9828   0.539E-03-0.917E-05
CGA:  18    -0.380241227208E+03   -0.20139E-03   -0.20410E-03  9828   0.391E-03-0.485E-04
CGA:  19    -0.380241363324E+03   -0.13612E-03   -0.14484E-03  9828   0.338E-03-0.114E-03
CGA:  20    -0.380241399953E+03   -0.36629E-04   -0.44054E-04  9828   0.181E-03 0.489E-04
CGA:  21    -0.380241436154E+03   -0.36200E-04   -0.40778E-04  9828   0.909E-04 0.348E-04
CGA:  22    -0.380241464620E+03   -0.28466E-04   -0.28246E-04  9828   0.633E-04-0.427E-05
CGA:  23    -0.380241462418E+03    0.22014E-05   -0.59340E-05  9828   0.441E-04 0.371E-04
  11 F= -.38024146E+03 E0= -.38024146E+03  d E =0.990711E-01  mag=     4.0000
       N       E                     dE             d eps       ncg     rms          ort
SDA:   1    -0.379778535741E+03    0.46293E+00    0.00000E+00  9828   0.138E+01 0.000E+00
CGA:   2    -0.380239808532E+03   -0.46127E+00   -0.46145E+00  9828   0.460E+00-0.494E-02
CGA:   3    -0.380335500575E+03   -0.95692E-01   -0.95785E-01  9828   0.124E+00 0.107E-02
CGA:   4    -0.380358287252E+03   -0.22787E-01   -0.22792E-01  9828   0.238E-01-0.607E-03
CGA:   5    -0.380363366916E+03   -0.50797E-02   -0.51003E-02  9828   0.675E-02 0.294E-03
CGA:   6    -0.380365197560E+03   -0.18306E-02   -0.18283E-02  9828   0.262E-02-0.143E-03
CGA:   7    -0.380365991340E+03   -0.79378E-03   -0.80830E-03  9828   0.149E-02-0.465E-03
CGA:   8    -0.380366288016E+03   -0.29668E-03   -0.29820E-03  9828   0.486E-03 0.382E-04
CGA:   9    -0.380366458873E+03   -0.17086E-03   -0.18420E-03  9828   0.338E-03-0.154E-03
CGA:  10    -0.380366533295E+03   -0.74422E-04   -0.86700E-04  9828   0.251E-03-0.139E-03
CGA:  11    -0.380366553111E+03   -0.19815E-04   -0.95793E-04  9828   0.506E-03-0.213E-03
CGA:  12    -0.380366670463E+03   -0.11735E-03   -0.11753E-03  9828   0.139E-03 0.329E-05
CGA:  13    -0.380366688884E+03   -0.18421E-04   -0.24778E-04  9828   0.444E-04 0.498E-04
CGA:  14    -0.380366695895E+03   -0.70103E-05   -0.10867E-04  9828   0.286E-04 0.323E-04
CGA:  15    -0.380366706471E+03   -0.10577E-04   -0.10740E-04  9828   0.410E-04-0.188E-05
CGA:  16    -0.380366708637E+03   -0.21652E-05   -0.58425E-05  9828   0.221E-04 0.254E-04
  12 F= -.38036671E+03 E0= -.38036671E+03  d E =-.125246E+00  mag=     4.0000
       N       E                     dE             d eps       ncg     rms          ort
SDA:   1    -0.380354332289E+03    0.12374E-01    0.00000E+00  9828   0.684E-01 0.000E+00
CGA:   2    -0.380376484997E+03   -0.22153E-01   -0.22202E-01  9828   0.250E-01-0.112E-02
CGA:   3    -0.380381479057E+03   -0.49941E-02   -0.50199E-02  9828   0.593E-02 0.332E-03
CGA:   4    -0.380382599394E+03   -0.11203E-02   -0.11224E-02  9828   0.119E-02 0.271E-04
CGA:   5    -0.380382836160E+03   -0.23677E-03   -0.23998E-03  9828   0.319E-03 0.437E-04
CGA:   6    -0.380382927840E+03   -0.91680E-04   -0.91782E-04  9828   0.137E-03-0.145E-04
CGA:   7    -0.380382961381E+03   -0.33541E-04   -0.73125E-04  9828   0.336E-03-0.137E-03
CGA:   8    -0.380382993054E+03   -0.31673E-04   -0.42567E-04  9828   0.433E-04 0.693E-04
CGA:   9    -0.380383001623E+03   -0.85690E-05   -0.98667E-05  9828   0.190E-04 0.147E-04
CGA:  10    -0.380383008500E+03   -0.68768E-05   -0.14743E-04  9828   0.649E-04-0.257E-04
  13 F= -.38038301E+03 E0= -.38038301E+03  d E =-.162999E-01  mag=     4.0000
       N       E                     dE             d eps       ncg     rms          ort
SDA:   1    -0.379856692623E+03    0.52631E+00    0.00000E+00  9828   0.139E+01 0.000E+00
CGA:   2    -0.380286209930E+03   -0.42952E+00   -0.42963E+00  9828   0.521E+00-0.398E-02
CGA:   3    -0.380393815991E+03   -0.10761E+00   -0.10768E+00  9828   0.122E+00 0.917E-03
CGA:   4    -0.380416263564E+03   -0.22448E-01   -0.22512E-01  9828   0.248E-01 0.721E-03
CGA:   5    -0.380421292141E+03   -0.50286E-02   -0.50437E-02  9828   0.649E-02 0.212E-03
CGA:   6    -0.380422999340E+03   -0.17072E-02   -0.17062E-02  9828   0.233E-02-0.111E-03
CGA:   7    -0.380423684559E+03   -0.68522E-03   -0.69230E-03  9828   0.104E-02-0.217E-03
CGA:   8    -0.380423958964E+03   -0.27440E-03   -0.27376E-03  9828   0.371E-03 0.328E-04
CGA:   9    -0.380424089195E+03   -0.13023E-03   -0.13226E-03  9828   0.166E-03-0.278E-04
CGA:  10    -0.380424144951E+03   -0.55757E-04   -0.57472E-04  9828   0.901E-04-0.178E-04
CGA:  11    -0.380424173046E+03   -0.28095E-04   -0.59244E-04  9828   0.238E-03-0.692E-04
CGA:  12    -0.380424213376E+03   -0.40330E-04   -0.43915E-04  9828   0.514E-04 0.307E-04
CGA:  13    -0.380424228733E+03   -0.15357E-04   -0.15661E-04  9828   0.250E-04 0.111E-04
CGA:  14    -0.380424239727E+03   -0.10994E-04   -0.10395E-04  9828   0.171E-04 0.130E-04
CGA:  15    -0.380424245452E+03   -0.57249E-05   -0.55450E-05  9828   0.115E-04 0.679E-05
  14 F= -.38042425E+03 E0= -.38042425E+03  d E =-.412370E-01  mag=     4.0000
       N       E                     dE             d eps       ncg     rms          ort
SDA:   1    -0.380414691759E+03    0.95480E-02    0.00000E+00  9828   0.363E-01 0.000E+00
CGA:   2    -0.380424119751E+03   -0.94280E-02   -0.93498E-02  9828   0.179E-01-0.312E-03
CGA:   3    -0.380427571086E+03   -0.34513E-02   -0.34662E-02  9828   0.319E-02 0.802E-04
CGA:   4    -0.380428186890E+03   -0.61580E-03   -0.62557E-03  9828   0.603E-03 0.330E-04
CGA:   5    -0.380428312150E+03   -0.12526E-03   -0.12538E-03  9828   0.165E-03 0.541E-06
CGA:   6    -0.380428346273E+03   -0.34124E-04   -0.35765E-04  9828   0.478E-04 0.613E-05
CGA:   7    -0.380428365759E+03   -0.19486E-04   -0.18316E-04  9828   0.338E-04-0.115E-04
CGA:   8    -0.380428376188E+03   -0.10428E-04   -0.95812E-05  9828   0.269E-04-0.921E-05
CGA:   9    -0.380428381853E+03   -0.56657E-05   -0.54281E-05  9828   0.124E-04-0.136E-05
  15 F= -.38042838E+03 E0= -.38042838E+03  d E =-.413640E-02  mag=     4.0000
       N       E                     dE             d eps       ncg     rms          ort
SDA:   1    -0.380330165968E+03    0.98210E-01    0.00000E+00  9828   0.270E+00 0.000E+00
CGA:   2    -0.380409708477E+03   -0.79543E-01   -0.79490E-01  9828   0.109E+00-0.327E-03
CGA:   3    -0.380432118886E+03   -0.22410E-01   -0.22416E-01  9828   0.225E-01 0.577E-04
CGA:   4    -0.380436136629E+03   -0.40177E-02   -0.40376E-02  9828   0.442E-02 0.798E-04
CGA:   5    -0.380437031309E+03   -0.89468E-03   -0.89744E-03  9828   0.111E-02 0.134E-04
CGA:   6    -0.380437308202E+03   -0.27689E-03   -0.27394E-03  9828   0.345E-03-0.183E-04
CGA:   7    -0.380437406930E+03   -0.98728E-04   -0.96523E-04  9828   0.135E-03-0.193E-04
CGA:   8    -0.380437451350E+03   -0.44420E-04   -0.43812E-04  9828   0.665E-04-0.124E-04
CGA:   9    -0.380437473221E+03   -0.21871E-04   -0.21432E-04  9828   0.328E-04-0.124E-04
CGA:  10    -0.380437481067E+03   -0.78460E-05   -0.76031E-05  9828   0.130E-04-0.231E-05
  16 F= -.38043748E+03 E0= -.38043748E+03  d E =-.909921E-02  mag=     4.0000
       N       E                     dE             d eps       ncg     rms          ort
SDA:   1    -0.380138587074E+03    0.29889E+00    0.00000E+00  9828   0.755E+00 0.000E+00
CGA:   2    -0.380376980811E+03   -0.23839E+00   -0.23839E+00  9828   0.286E+00 0.198E-03
CGA:   3    -0.380434512143E+03   -0.57531E-01   -0.57454E-01  9828   0.565E-01-0.496E-03
CGA:   4    -0.380444724973E+03   -0.10213E-01   -0.10199E-01  9828   0.111E-01-0.752E-04
CGA:   5    -0.380447053769E+03   -0.23288E-02   -0.23258E-02  9828   0.282E-02-0.169E-04
CGA:   6    -0.380447725382E+03   -0.67161E-03   -0.66993E-03  9828   0.817E-03-0.145E-04
CGA:   7    -0.380447944706E+03   -0.21932E-03   -0.21858E-03  9828   0.306E-03-0.897E-05
CGA:   8    -0.380448055348E+03   -0.11064E-03   -0.11189E-03  9828   0.184E-03-0.483E-04
CGA:   9    -0.380448107191E+03   -0.51843E-04   -0.51333E-04  9828   0.896E-04-0.375E-04
CGA:  10    -0.380448126266E+03   -0.19074E-04   -0.18511E-04  9828   0.304E-04-0.647E-05
CGA:  11    -0.380448135525E+03   -0.92592E-05   -0.92279E-05  9828   0.150E-04-0.238E-05
  17 F= -.38044814E+03 E0= -.38044814E+03  d E =-.106545E-01  mag=     4.0000
       N       E                     dE             d eps       ncg     rms          ort
SDA:   1    -0.379796321814E+03    0.65180E+00    0.00000E+00  9828   0.155E+01 0.000E+00
CGA:   2    -0.380343581283E+03   -0.54726E+00   -0.54726E+00  9828   0.463E+00 0.103E-02
CGA:   3    -0.380438798791E+03   -0.95218E-01   -0.94974E-01  9828   0.848E-01-0.179E-02
CGA:   4    -0.380454381897E+03   -0.15583E-01   -0.15573E-01  9828   0.187E-01-0.393E-04
CGA:   5    -0.380458287539E+03   -0.39056E-02   -0.39151E-02  9828   0.461E-02 0.763E-04
CGA:   6    -0.380459363833E+03   -0.10763E-02   -0.10749E-02  9828   0.132E-02-0.140E-04
CGA:   7    -0.380459729483E+03   -0.36565E-03   -0.36404E-03  9828   0.534E-03-0.317E-04
CGA:   8    -0.380459925862E+03   -0.19638E-03   -0.20262E-03  9828   0.322E-03-0.978E-04
CGA:   9    -0.380460010495E+03   -0.84633E-04   -0.84323E-04  9828   0.128E-03-0.400E-04
CGA:  10    -0.380460045002E+03   -0.34507E-04   -0.34166E-04  9828   0.526E-04-0.141E-04
CGA:  11    -0.380460063087E+03   -0.18085E-04   -0.19161E-04  9828   0.455E-04-0.130E-04
CGA:  12    -0.380460038894E+03    0.24193E-04   -0.37465E-04  9828   0.376E-03-0.807E-04
CGA:  13    -0.380460102880E+03   -0.63986E-04   -0.62712E-04  9828   0.708E-04-0.463E-05
CGA:  14    -0.380460119794E+03   -0.16914E-04   -0.17674E-04  9828   0.136E-04 0.733E-05
CGA:  15    -0.380460125393E+03   -0.55998E-05   -0.55548E-05  9828   0.476E-05 0.255E-05
  18 F= -.38046013E+03 E0= -.38046013E+03  d E =-.119899E-01  mag=     4.0000
       N       E                     dE             d eps       ncg     rms          ort
SDA:   1    -0.363747846403E+03    0.16712E+02    0.00000E+00  9828   0.392E+02 0.000E+00
CGA:   2    -0.377464049973E+03   -0.13716E+02   -0.13718E+02  9828   0.122E+02 0.781E-02
CGA:   3    -0.379882363323E+03   -0.24183E+01   -0.24238E+01  9828   0.225E+01-0.444E-02
CGA:   4    -0.380304327621E+03   -0.42196E+00   -0.42232E+00  9828   0.517E+00 0.635E-02
CGA:   5    -0.380412263708E+03   -0.10794E+00   -0.10815E+00  9828   0.138E+00 0.128E-02
CGA:   6    -0.380445668897E+03   -0.33405E-01   -0.33303E-01  9828   0.419E-01-0.756E-03
CGA:   7    -0.380458067946E+03   -0.12399E-01   -0.12341E-01  9828   0.180E-01-0.776E-03
CGA:   8    -0.380464072429E+03   -0.60045E-02   -0.59881E-02  9828   0.823E-02-0.507E-03
CGA:   9    -0.380466528687E+03   -0.24563E-02   -0.24450E-02  9828   0.298E-02-0.175E-03
CGA:  10    -0.380467486985E+03   -0.95830E-03   -0.94592E-03  9828   0.139E-02-0.298E-03
CGA:  11    -0.380467875860E+03   -0.38888E-03   -0.38748E-03  9828   0.846E-03-0.224E-04
CGA:  12    -0.380468262989E+03   -0.38713E-03   -0.49768E-03  9828   0.183E-02-0.471E-03
CGA:  13    -0.380468549585E+03   -0.28660E-03   -0.31455E-03  9828   0.435E-03 0.156E-03
CGA:  14    -0.380468739413E+03   -0.18983E-03   -0.19669E-03  9828   0.449E-03-0.127E-03
CGA:  15    -0.380468874089E+03   -0.13468E-03   -0.13371E-03  9828   0.406E-03 0.172E-04
CGA:  16    -0.380469124369E+03   -0.25028E-03   -0.31765E-03  9828   0.867E-03-0.176E-03
CGA:  17    -0.380469064291E+03    0.60078E-04   -0.47509E-03  9828   0.394E-02-0.920E-03
CGA:  18    -0.380469792981E+03   -0.72869E-03   -0.78932E-03  9828   0.124E-02 0.334E-03
CGA:  19    -0.380470210921E+03   -0.41794E-03   -0.40285E-03  9828   0.309E-03-0.138E-03
CGA:  20    -0.380470331284E+03   -0.12036E-03   -0.11918E-03  9828   0.195E-03 0.366E-04
CGA:  21    -0.380470427056E+03   -0.95772E-04   -0.10367E-03  9828   0.273E-03-0.105E-03
CGA:  22    -0.380470447319E+03   -0.20263E-04   -0.33200E-04  9828   0.353E-04 0.483E-04
CGA:  23    -0.380470460253E+03   -0.12934E-04   -0.13307E-04  9828   0.426E-04 0.521E-05
CGA:  24    -0.380470358744E+03    0.10151E-03   -0.66920E-04  9828   0.104E-02-0.171E-03
CGA:  25    -0.380470490337E+03   -0.13159E-03   -0.16033E-03  9828   0.190E-03 0.115E-03
CGA:  26    -0.380470568951E+03   -0.78613E-04   -0.76126E-04  9828   0.349E-04-0.398E-04
CGA:  27    -0.380470582635E+03   -0.13684E-04   -0.21909E-04  9828   0.101E-03-0.220E-04
CGA:  28    -0.380470592048E+03   -0.94135E-05   -0.13329E-04  9828   0.104E-04 0.135E-04
  19 F= -.38047059E+03 E0= -.38047059E+03  d E =-.104667E-01  mag=     4.0000
       N       E                     dE             d eps       ncg     rms          ort
SDA:   1    -0.377597697615E+03    0.28729E+01    0.00000E+00  9828   0.687E+01 0.000E+00
CGA:   2    -0.379936222052E+03   -0.23385E+01   -0.23387E+01  9828   0.227E+01-0.144E-02
CGA:   3    -0.380386028757E+03   -0.44981E+00   -0.44923E+00  9828   0.438E+00 0.883E-03
CGA:   4    -0.380466045888E+03   -0.80017E-01   -0.80185E-01  9828   0.928E-01 0.109E-03
CGA:   5    -0.380485745749E+03   -0.19700E-01   -0.19775E-01  9828   0.225E-01 0.428E-03
CGA:   6    -0.380491203054E+03   -0.54573E-02   -0.54455E-02  9828   0.718E-02-0.720E-04
CGA:   7    -0.380493214435E+03   -0.20114E-02   -0.19858E-02  9828   0.320E-02-0.220E-03
CGA:   8    -0.380494235641E+03   -0.10212E-02   -0.10126E-02  9828   0.159E-02-0.140E-03
CGA:   9    -0.380494709857E+03   -0.47422E-03   -0.46823E-03  9828   0.651E-03-0.752E-04
CGA:  10    -0.380494897871E+03   -0.18801E-03   -0.18587E-03  9828   0.234E-03-0.263E-04
CGA:  11    -0.380494988680E+03   -0.90809E-04   -0.92477E-04  9828   0.156E-03-0.448E-04
CGA:  12    -0.380495047758E+03   -0.59077E-04   -0.76827E-04  9828   0.248E-03-0.761E-04
CGA:  13    -0.380495091951E+03   -0.44193E-04   -0.39422E-04  9828   0.165E-03-0.595E-04
CGA:  14    -0.380495137217E+03   -0.45266E-04   -0.44338E-04  9828   0.938E-04-0.286E-04
CGA:  15    -0.380495154402E+03   -0.17185E-04   -0.18478E-04  9828   0.609E-04 0.921E-05
CGA:  16    -0.380495168080E+03   -0.13678E-04   -0.16270E-04  9828   0.339E-04 0.196E-04
CGA:  17    -0.380495177869E+03   -0.97893E-05   -0.11530E-04  9828   0.299E-04 0.156E-04
CGA:  18    -0.380495187462E+03   -0.95927E-05   -0.11325E-04  9828   0.172E-04 0.167E-04
  20 F= -.38049519E+03 E0= -.38049519E+03  d E =-.245954E-01  mag=     4.0000
       N       E                     dE             d eps       ncg     rms          ort
SDA:   1    -0.379318502946E+03    0.11767E+01    0.00000E+00  9828   0.286E+01 0.000E+00
CGA:   2    -0.380250277615E+03   -0.93177E+00   -0.93183E+00  9828   0.105E+01 0.127E-02
CGA:   3    -0.380459270783E+03   -0.20899E+00   -0.20883E+00  9828   0.207E+00-0.674E-03
CGA:   4    -0.380496831455E+03   -0.37561E-01   -0.37437E-01  9828   0.440E-01-0.656E-03
CGA:   5    -0.380506002044E+03   -0.91706E-02   -0.91337E-02  9828   0.111E-01-0.272E-03
CGA:   6    -0.380508640947E+03   -0.26389E-02   -0.26388E-02  9828   0.324E-02-0.972E-06
CGA:   7    -0.380509507695E+03   -0.86675E-03   -0.86836E-03  9828   0.117E-02 0.280E-04
CGA:   8    -0.380509904893E+03   -0.39720E-03   -0.39745E-03  9828   0.545E-03-0.228E-04
CGA:   9    -0.380510088579E+03   -0.18369E-03   -0.18503E-03  9828   0.249E-03-0.661E-04
CGA:  10    -0.380510163111E+03   -0.74531E-04   -0.75602E-04  9828   0.130E-03-0.571E-04
CGA:  11    -0.380510191169E+03   -0.28058E-04   -0.27772E-04  9828   0.583E-04-0.534E-05
CGA:  12    -0.380510208437E+03   -0.17268E-04   -0.17377E-04  9828   0.280E-04 0.748E-05
CGA:  13    -0.380510220731E+03   -0.12294E-04   -0.11898E-04  9828   0.168E-04 0.744E-05
CGA:  14    -0.380510230883E+03   -0.10153E-04   -0.13250E-04  9828   0.394E-04-0.106E-04
CGA:  15    -0.380510237942E+03   -0.70587E-05   -0.68003E-05  9828   0.834E-05-0.131E-05
  21 F= -.38051024E+03 E0= -.38051024E+03  d E =-.150505E-01  mag=     4.0000
       N       E                     dE             d eps       ncg     rms          ort
SDA:   1    -0.379987358752E+03    0.52287E+00    0.00000E+00  9828   0.123E+01 0.000E+00
CGA:   2    -0.380423001804E+03   -0.43564E+00   -0.43568E+00  9828   0.391E+00-0.138E-02
CGA:   3    -0.380499441916E+03   -0.76440E-01   -0.76435E-01  9828   0.700E-01-0.753E-04
CGA:   4    -0.380512260412E+03   -0.12818E-01   -0.12911E-01  9828   0.155E-01 0.690E-03
CGA:   5    -0.380515447019E+03   -0.31866E-02   -0.32149E-02  9828   0.363E-02 0.254E-03
CGA:   6    -0.380516346957E+03   -0.89994E-03   -0.89507E-03  9828   0.109E-02-0.707E-04
CGA:   7    -0.380516658660E+03   -0.31170E-03   -0.31065E-03  9828   0.469E-03-0.585E-04
CGA:   8    -0.380516803703E+03   -0.14504E-03   -0.14533E-03  9828   0.219E-03-0.135E-04
CGA:   9    -0.380516856129E+03   -0.52426E-04   -0.54258E-04  9828   0.685E-04 0.351E-04
CGA:  10    -0.380516880846E+03   -0.24718E-04   -0.24703E-04  9828   0.282E-04 0.275E-05
CGA:  11    -0.380516893507E+03   -0.12660E-04   -0.15137E-04  9828   0.305E-04-0.117E-04
CGA:  12    -0.380516848197E+03    0.45309E-04   -0.25004E-04  9828   0.236E-03-0.647E-04
CGA:  13    -0.380516897493E+03   -0.49296E-04   -0.52073E-04  9828   0.553E-04 0.188E-04
CGA:  14    -0.380516915707E+03   -0.18213E-04   -0.18263E-04  9828   0.270E-04 0.104E-05
CGA:  15    -0.380516921023E+03   -0.53166E-05   -0.63642E-05  9828   0.850E-05 0.820E-05
  22 F= -.38051692E+03 E0= -.38051692E+03  d E =-.668308E-02  mag=     4.0000
       N       E                     dE             d eps       ncg     rms          ort
SDA:   1    -0.366622216559E+03    0.13895E+02    0.00000E+00  9828   0.322E+02 0.000E+00
CGA:   2    -0.378194660608E+03   -0.11572E+02   -0.11572E+02  9828   0.943E+01-0.118E-01
CGA:   3    -0.380055626837E+03   -0.18610E+01   -0.18603E+01  9828   0.172E+01 0.652E-02
CGA:   4    -0.380386652016E+03   -0.33103E+00   -0.33171E+00  9828   0.392E+00 0.585E-02
CGA:   5    -0.380468234003E+03   -0.81582E-01   -0.81750E-01  9828   0.102E+00 0.132E-02
CGA:   6    -0.380492584206E+03   -0.24350E-01   -0.24233E-01  9828   0.307E-01-0.119E-02
CGA:   7    -0.380501610993E+03   -0.90268E-02   -0.89945E-02  9828   0.131E-01-0.955E-03
CGA:   8    -0.380505743170E+03   -0.41322E-02   -0.41311E-02  9828   0.570E-02-0.289E-03
CGA:   9    -0.380507453995E+03   -0.17108E-02   -0.17062E-02  9828   0.200E-02-0.199E-03
CGA:  10    -0.380508057900E+03   -0.60390E-03   -0.60126E-03  9828   0.716E-03-0.171E-03
CGA:  11    -0.380508314355E+03   -0.25645E-03   -0.27812E-03  9828   0.603E-03-0.221E-03
CGA:  12    -0.380508476221E+03   -0.16187E-03   -0.21823E-03  9828   0.871E-03-0.293E-03
CGA:  13    -0.380508641002E+03   -0.16478E-03   -0.19527E-03  9828   0.724E-03-0.321E-03
CGA:  14    -0.380508823944E+03   -0.18294E-03   -0.20406E-03  9828   0.396E-03-0.213E-03
CGA:  15    -0.380508909116E+03   -0.85172E-04   -0.85890E-04  9828   0.206E-03 0.155E-04
CGA:  16    -0.380508959897E+03   -0.50781E-04   -0.54906E-04  9828   0.111E-03 0.443E-04
CGA:  17    -0.380508994432E+03   -0.34535E-04   -0.38061E-04  9828   0.756E-04 0.556E-04
CGA:  18    -0.380509014607E+03   -0.20176E-04   -0.25987E-04  9828   0.459E-04 0.519E-04
CGA:  19    -0.380509030689E+03   -0.16082E-04   -0.15920E-04  9828   0.286E-04 0.142E-04
CGA:  20    -0.380509037596E+03   -0.69067E-05   -0.87801E-05  9828   0.149E-04 0.185E-04
  23 F= -.38050904E+03 E0= -.38050904E+03  d E =0.788343E-02  mag=     4.0000
       N       E                     dE             d eps       ncg     rms          ort
SDA:   1    -0.368390980737E+03    0.12118E+02    0.00000E+00  9828   0.280E+02 0.000E+00
CGA:   2    -0.377126915529E+03   -0.87359E+01   -0.87359E+01  9828   0.102E+02 0.123E-01
CGA:   3    -0.379217724874E+03   -0.20908E+01   -0.20930E+01  9828   0.266E+01-0.213E-01
CGA:   4    -0.379676566785E+03   -0.45884E+00   -0.40089E+00  9828   0.575E+00 0.298E+00
CGA:   5    -0.379804629992E+03   -0.12806E+00   -0.12860E+00  9828   0.190E+00-0.425E-02
CGA:   6    -0.379845160847E+03   -0.40531E-01   -0.40485E-01  9828   0.739E-01 0.480E-02
CGA:   7    -0.379861878225E+03   -0.16717E-01   -0.16683E-01  9828   0.370E-01-0.770E-03
CGA:   8    -0.379868302216E+03   -0.64240E-02   -0.66280E-02  9828   0.148E-01 0.344E-02
CGA:   9    -0.379872604975E+03   -0.43028E-02   -0.42978E-02  9828   0.713E-02-0.199E-03
CGA:  10    -0.379874010061E+03   -0.14051E-02   -0.14849E-02  9828   0.313E-02 0.115E-02
CGA:  11    -0.379874888212E+03   -0.87815E-03   -0.86767E-03  9828   0.223E-02-0.223E-03
CGA:  12    -0.379875041102E+03   -0.15289E-03   -0.25993E-03  9828   0.932E-03 0.734E-03
CGA:  13    -0.379875147431E+03   -0.10633E-03   -0.17772E-03  9828   0.706E-03 0.552E-03
CGA:  14    -0.379875338404E+03   -0.19097E-03   -0.19335E-03  9828   0.210E-02-0.422E-03
CGA:  15    -0.379875368772E+03   -0.30368E-04   -0.12761E-03  9828   0.283E-03 0.552E-03
CGA:  16    -0.379875352653E+03    0.16118E-04   -0.22061E-04  9828   0.231E-03 0.199E-03
CGA:  17    -0.379875524467E+03   -0.17181E-03   -0.16282E-03  9828   0.129E-02 0.195E-04
CGA:  18    -0.379875575015E+03   -0.50548E-04   -0.16481E-03  9828   0.310E-03 0.781E-03
CGA:  19    -0.379875560671E+03    0.14343E-04   -0.17452E-04  9828   0.118E-03 0.156E-03
CGA:  20    -0.379875560471E+03    0.20055E-06   -0.13154E-04  9828   0.945E-04 0.941E-04
  24 F= -.37987556E+03 E0= -.37987556E+03  d E =0.633477E+00  mag=     4.0000
       N       E                     dE             d eps       ncg     rms          ort
SDA:   1    -0.378932074301E+03    0.94349E+00    0.00000E+00  9828   0.333E+01 0.000E+00
CGA:   2    -0.379958317826E+03   -0.10262E+01   -0.10397E+01  9828   0.164E+01 0.299E-02
CGA:   3    -0.380187500797E+03   -0.22918E+00   -0.18162E+00  9828   0.354E+00 0.420E+00
CGA:   4    -0.380276816459E+03   -0.89316E-01   -0.89869E-01  9828   0.158E+00 0.278E-02
CGA:   5    -0.380299823966E+03   -0.23008E-01   -0.24076E-01  9828   0.596E-01-0.993E-02
CGA:   6    -0.380310509183E+03   -0.10685E-01   -0.10549E-01  9828   0.185E-01-0.539E-03
CGA:   7    -0.380313952747E+03   -0.34436E-02   -0.34166E-02  9828   0.916E-02-0.496E-04
CGA:   8    -0.380316017205E+03   -0.20645E-02   -0.18659E-02  9828   0.471E-02-0.124E-02
CGA:   9    -0.380317238161E+03   -0.12210E-02   -0.11691E-02  9828   0.253E-02-0.608E-03
CGA:  10    -0.380317729370E+03   -0.49121E-03   -0.47333E-03  9828   0.106E-02-0.110E-03
CGA:  11    -0.380318084413E+03   -0.35504E-03   -0.33129E-03  9828   0.128E-02-0.724E-03
CGA:  12    -0.380318219664E+03   -0.13525E-03   -0.16510E-03  9828   0.223E-03 0.141E-03
CGA:  13    -0.380315383319E+03    0.28363E-02   -0.15493E-02  9828   0.148E-01-0.175E-02
CGA:  14    -0.380317992454E+03   -0.26091E-02   -0.27816E-02  9828   0.277E-02 0.708E-03
CGA:  15    -0.380318608016E+03   -0.61556E-03   -0.53590E-03  9828   0.403E-03-0.214E-03
CGA:  16    -0.380318637104E+03   -0.29087E-04   -0.64642E-04  9828   0.921E-04 0.915E-04
CGA:  17    -0.380318659251E+03   -0.22148E-04   -0.30063E-04  9828   0.357E-04 0.265E-04
CGA:  18    -0.380318634582E+03    0.24669E-04   -0.50242E-04  9828   0.719E-03-0.139E-03
CGA:  19    -0.380318648719E+03   -0.14137E-04   -0.71345E-04  9828   0.756E-04 0.140E-03
CGA:  20    -0.380318645978E+03    0.27405E-05   -0.12190E-04  9828   0.452E-04 0.357E-04
CGA:  21    -0.380318665479E+03   -0.19501E-04   -0.17570E-04  9828   0.182E-04-0.707E-05
CGA:  22    -0.380318692036E+03   -0.26556E-04    0.61167E-05  9828   0.509E-04-0.237E-04
CGA:  23    -0.380318684761E+03    0.72747E-05   -0.37663E-05  9828   0.147E-04 0.251E-04
  25 F= -.38031868E+03 E0= -.38031868E+03  d E =-.443124E+00  mag=     4.0000
       N       E                     dE             d eps       ncg     rms          ort
SDA:   1    -0.379763186972E+03    0.55551E+00    0.00000E+00  9828   0.169E+01 0.000E+00
CGA:   2    -0.380322432870E+03   -0.55925E+00   -0.55851E+00  9828   0.567E+00-0.571E-02
CGA:   3    -0.380440112454E+03   -0.11768E+00   -0.11839E+00  9828   0.149E+00 0.311E-02
CGA:   4    -0.380468118570E+03   -0.28006E-01   -0.28227E-01  9828   0.299E-01 0.766E-04
CGA:   5    -0.380474524934E+03   -0.64064E-02   -0.63981E-02  9828   0.889E-02-0.359E-04
CGA:   6    -0.380477000136E+03   -0.24752E-02   -0.24047E-02  9828   0.346E-02-0.435E-03
CGA:   7    -0.380478038575E+03   -0.10384E-02   -0.99068E-03  9828   0.154E-02-0.387E-03
CGA:   8    -0.380478427025E+03   -0.38845E-03   -0.38474E-03  9828   0.521E-03-0.267E-04
CGA:   9    -0.380478620841E+03   -0.19382E-03   -0.18710E-03  9828   0.316E-03-0.146E-03
CGA:  10    -0.380478689129E+03   -0.68287E-04   -0.61684E-04  9828   0.139E-03-0.478E-04
CGA:  11    -0.380478785565E+03   -0.96436E-04    0.15802E-02  9828   0.114E-03-0.527E-04
CGA:  12    -0.380478857237E+03   -0.71672E-04    0.54798E-04  9828   0.862E-04-0.176E-04
CGA:  13    -0.380478797841E+03    0.59395E-04   -0.91833E-04  9828   0.689E-03-0.176E-03
CGA:  14    -0.380478974766E+03   -0.17692E-03   -0.16891E-03  9828   0.125E-03-0.391E-04
CGA:  15    -0.380478986354E+03   -0.11588E-04   -0.18565E-04  9828   0.224E-04 0.257E-04
CGA:  16    -0.380478984793E+03    0.15618E-05   -0.33811E-05  9828   0.142E-04 0.167E-04
  26 F= -.38047898E+03 E0= -.38047898E+03  d E =-.160300E+00  mag=     4.0000
       N       E                     dE             d eps       ncg     rms          ort
SDA:   1    -0.380182648069E+03    0.29634E+00    0.00000E+00  9828   0.809E+00 0.000E+00
CGA:   2    -0.380450147351E+03   -0.26750E+00   -0.26721E+00  9828   0.266E+00-0.471E-02
CGA:   3    -0.380506005384E+03   -0.55858E-01   -0.56387E-01  9828   0.686E-01 0.316E-02
CGA:   4    -0.380518853151E+03   -0.12848E-01   -0.13057E-01  9828   0.135E-01 0.110E-02
CGA:   5    -0.380521787733E+03   -0.29346E-02   -0.29333E-02  9828   0.418E-02-0.869E-05
CGA:   6    -0.380522966327E+03   -0.11786E-02   -0.11510E-02  9828   0.168E-02-0.314E-03
CGA:   7    -0.380523445562E+03   -0.47923E-03   -0.46789E-03  9828   0.715E-03-0.198E-03
CGA:   8    -0.380523603411E+03   -0.15785E-03   -0.16313E-03  9828   0.209E-03 0.544E-04
CGA:   9    -0.380523666115E+03   -0.62704E-04   -0.64041E-04  9828   0.719E-04 0.204E-04
CGA:  10    -0.380523699205E+03   -0.33089E-04   -0.36555E-04  9828   0.724E-04-0.301E-04
CGA:  11    -0.380523147918E+03    0.55129E-03   -0.29889E-03  9828   0.246E-02-0.334E-03
CGA:  12    -0.380523629378E+03   -0.48146E-03   -0.49021E-03  9828   0.538E-03 0.247E-04
CGA:  13    -0.380523775094E+03   -0.14572E-03   -0.15998E-03  9828   0.181E-03 0.451E-04
CGA:  14    -0.380523827075E+03   -0.51981E-04   -0.56880E-04  9828   0.435E-04 0.159E-04
CGA:  15    -0.380523844151E+03   -0.17076E-04   -0.17140E-04  9828   0.189E-04 0.305E-06
CGA:  16    -0.380523842686E+03    0.14653E-05   -0.28069E-05  9828   0.807E-05 0.996E-05
  27 F= -.38052384E+03 E0= -.38052384E+03  d E =-.448579E-01  mag=     4.0000
       N       E                     dE             d eps       ncg     rms          ort
SDA:   1    -0.380485675639E+03    0.38169E-01    0.00000E+00  9828   0.107E+00 0.000E+00
CGA:   2    -0.380520984098E+03   -0.35308E-01   -0.35066E-01  9828   0.361E-01-0.116E-02
CGA:   3    -0.380528103261E+03   -0.71192E-02   -0.73885E-02  9828   0.908E-02 0.868E-03
CGA:   4    -0.380529677307E+03   -0.15740E-02   -0.17278E-02  9828   0.162E-02 0.477E-03
CGA:   5    -0.380530047636E+03   -0.37033E-03   -0.37561E-03  9828   0.523E-03 0.194E-04
CGA:   6    -0.380530221318E+03   -0.17368E-03   -0.15714E-03  9828   0.265E-03-0.899E-04
CGA:   7    -0.380530283780E+03   -0.62461E-04   -0.58093E-04  9828   0.967E-04-0.210E-04
CGA:   8    -0.380530298241E+03   -0.14462E-04   -0.19513E-04  9828   0.301E-04 0.209E-04
CGA:   9    -0.380530300090E+03   -0.18494E-05   -0.62094E-05  9828   0.123E-04 0.156E-04
  28 F= -.38053030E+03 E0= -.38053030E+03  d E =-.645740E-02  mag=     4.0000
       N       E                     dE             d eps       ncg     rms          ort
SDA:   1    -0.380484734353E+03    0.45564E-01    0.00000E+00  9828   0.116E+00 0.000E+00
CGA:   2    -0.380522035188E+03   -0.37301E-01   -0.37166E-01  9828   0.440E-01-0.114E-02
CGA:   3    -0.380530291827E+03   -0.82566E-02   -0.84427E-02  9828   0.104E-01 0.816E-03
CGA:   4    -0.380532136151E+03   -0.18443E-02   -0.19994E-02  9828   0.172E-02 0.708E-03
CGA:   5    -0.380532531382E+03   -0.39523E-03   -0.40571E-03  9828   0.555E-03 0.585E-04
CGA:   6    -0.380532711339E+03   -0.17996E-03   -0.16953E-03  9828   0.310E-03-0.108E-03
CGA:   7    -0.380532776623E+03   -0.65284E-04   -0.62575E-04  9828   0.109E-03-0.197E-04
CGA:   8    -0.380532795328E+03   -0.18705E-04   -0.22606E-04  9828   0.376E-04 0.248E-04
CGA:   9    -0.380532799524E+03   -0.41950E-05   -0.78848E-05  9828   0.152E-04 0.184E-04
  29 F= -.38053280E+03 E0= -.38053280E+03  d E =-.249943E-02  mag=     4.0000
       N       E                     dE             d eps       ncg     rms          ort
SDA:   1    -0.380527869494E+03    0.49258E-02    0.00000E+00  9828   0.133E-01 0.000E+00
CGA:   2    -0.380532206873E+03   -0.43374E-02   -0.43367E-02  9828   0.514E-02-0.208E-04
CGA:   3    -0.380533146163E+03   -0.93929E-03   -0.95596E-03  9828   0.934E-03 0.104E-03
CGA:   4    -0.380533310430E+03   -0.16427E-03   -0.17313E-03  9828   0.176E-03 0.556E-04
CGA:   5    -0.380533354491E+03   -0.44061E-04   -0.43572E-04  9828   0.529E-04-0.481E-05
CGA:   6    -0.380533368934E+03   -0.14444E-04   -0.13944E-04  9828   0.236E-04-0.857E-05
CGA:   7    -0.380533372065E+03   -0.31306E-05   -0.37395E-05  9828   0.730E-05 0.446E-05
  30 F= -.38053337E+03 E0= -.38053337E+03  d E =-.572541E-03  mag=     4.0000
       N       E                     dE             d eps       ncg     rms          ort
SDA:   1    -0.380352887595E+03    0.18048E+00    0.00000E+00  9828   0.430E+00 0.000E+00
CGA:   2    -0.380501815875E+03   -0.14893E+00   -0.14889E+00  9828   0.129E+00 0.125E-02
CGA:   3    -0.380528559368E+03   -0.26743E-01   -0.26674E-01  9828   0.262E-01-0.632E-03
CGA:   4    -0.380533478533E+03   -0.49192E-02   -0.48593E-02  9828   0.595E-02-0.482E-03
CGA:   5    -0.380534675198E+03   -0.11967E-02   -0.11854E-02  9828   0.144E-02-0.112E-03
CGA:   6    -0.380534987101E+03   -0.31190E-03   -0.31634E-03  9828   0.359E-03 0.602E-04
CGA:   7    -0.380535079986E+03   -0.92884E-04   -0.94391E-04  9828   0.125E-03 0.357E-04
CGA:   8    -0.380535135920E+03   -0.55934E-04   -0.69877E-04  9828   0.150E-03-0.649E-04
CGA:   9    -0.380535159711E+03   -0.23791E-04   -0.25858E-04  9828   0.197E-04 0.159E-04
CGA:  10    -0.380535166059E+03   -0.63486E-05   -0.13064E-04  9828   0.463E-04-0.222E-04
  31 F= -.38053517E+03 E0= -.38053517E+03  d E =-.179399E-02  mag=     4.0000
       N       E                     dE             d eps       ncg     rms          ort
SDA:   1    -0.380431687100E+03    0.10347E+00    0.00000E+00  9828   0.245E+00 0.000E+00
CGA:   2    -0.380516407805E+03   -0.84721E-01   -0.84776E-01  9828   0.832E-01-0.127E-02
CGA:   3    -0.380532174098E+03   -0.15766E-01   -0.15882E-01  9828   0.162E-01 0.103E-02
CGA:   4    -0.380535080163E+03   -0.29061E-02   -0.29758E-02  9828   0.309E-02 0.612E-03
CGA:   5    -0.380535786571E+03   -0.70641E-03   -0.70689E-03  9828   0.850E-03 0.684E-05
CGA:   6    -0.380536013982E+03   -0.22741E-03   -0.22484E-03  9828   0.316E-03-0.973E-04
CGA:   7    -0.380536082924E+03   -0.68942E-04   -0.68919E-04  9828   0.108E-03-0.309E-06
CGA:   8    -0.380536107396E+03   -0.24472E-04   -0.25630E-04  9828   0.345E-04 0.241E-04
CGA:   9    -0.380536113350E+03   -0.59543E-05   -0.77884E-05  9828   0.134E-04 0.184E-04
  32 F= -.38053611E+03 E0= -.38053611E+03  d E =-.947291E-03  mag=     4.0000
       N       E                     dE             d eps       ncg     rms          ort
SDA:   1    -0.380522640748E+03    0.13467E-01    0.00000E+00  9828   0.338E-01 0.000E+00
CGA:   2    -0.380534515879E+03   -0.11875E-01   -0.11867E-01  9828   0.104E-01 0.124E-03
CGA:   3    -0.380536595045E+03   -0.20792E-02   -0.20754E-02  9828   0.209E-02-0.379E-04
CGA:   4    -0.380537022176E+03   -0.42713E-03   -0.41157E-03  9828   0.557E-03-0.181E-03
CGA:   5    -0.380537127029E+03   -0.10485E-03   -0.10322E-03  9828   0.135E-03-0.214E-04
CGA:   6    -0.380537150858E+03   -0.23829E-04   -0.25353E-04  9828   0.326E-04 0.191E-04
CGA:   7    -0.380537161677E+03   -0.10820E-04   -0.10843E-04  9828   0.192E-04-0.110E-05
CGA:   8    -0.380537168010E+03   -0.63333E-05   -0.67694E-05  9828   0.148E-04-0.464E-05
  33 F= -.38053717E+03 E0= -.38053717E+03  d E =-.105466E-02  mag=     4.0000
       N       E                     dE             d eps       ncg     rms          ort
SDA:   1    -0.380422999283E+03    0.11416E+00    0.00000E+00  9828   0.268E+00 0.000E+00
CGA:   2    -0.380518271456E+03   -0.95272E-01   -0.95227E-01  9828   0.804E-01 0.596E-03
CGA:   3    -0.380534407087E+03   -0.16136E-01   -0.16110E-01  9828   0.152E-01-0.275E-03
CGA:   4    -0.380537300501E+03   -0.28934E-02   -0.28575E-02  9828   0.350E-02-0.405E-03
CGA:   5    -0.380538025230E+03   -0.72473E-03   -0.72066E-03  9828   0.834E-03-0.664E-04
CGA:   6    -0.380538205107E+03   -0.17988E-03   -0.18169E-03  9828   0.212E-03 0.384E-04
CGA:   7    -0.380538269218E+03   -0.64110E-04   -0.64149E-04  9828   0.975E-04-0.163E-05
CGA:   8    -0.380538305027E+03   -0.35809E-04   -0.39222E-04  9828   0.754E-04-0.247E-04
CGA:   9    -0.380538289111E+03    0.15916E-04   -0.43318E-04  9828   0.323E-03-0.119E-03
CGA:  10    -0.380538326368E+03   -0.37257E-04   -0.44397E-04  9828   0.434E-04 0.454E-04
CGA:  11    -0.380538335918E+03   -0.95499E-05   -0.10744E-04  9828   0.183E-04 0.161E-04
  34 F= -.38053834E+03 E0= -.38053834E+03  d E =-.116791E-02  mag=     4.0000
       N       E                     dE             d eps       ncg     rms          ort
SDA:   1    -0.378811318262E+03    0.17270E+01    0.00000E+00  9828   0.397E+01 0.000E+00
CGA:   2    -0.380266666763E+03   -0.14553E+01   -0.14554E+01  9828   0.110E+01-0.510E-03
CGA:   3    -0.380489166248E+03   -0.22250E+00   -0.22247E+00  9828   0.196E+00-0.292E-03
CGA:   4    -0.380526249831E+03   -0.37084E-01   -0.37052E-01  9828   0.467E-01-0.268E-03
CGA:   5    -0.380535879052E+03   -0.96292E-02   -0.96131E-02  9828   0.111E-01-0.210E-03
CGA:   6    -0.380538507194E+03   -0.26281E-02   -0.26233E-02  9828   0.302E-02-0.123E-03
CGA:   7    -0.380539380707E+03   -0.87351E-03   -0.87532E-03  9828   0.127E-02-0.977E-04
CGA:   8    -0.380539812328E+03   -0.43162E-03   -0.44309E-03  9828   0.618E-03-0.137E-03
CGA:   9    -0.380540002890E+03   -0.19056E-03   -0.19873E-03  9828   0.250E-03-0.101E-03
CGA:  10    -0.380540069512E+03   -0.66622E-04   -0.67917E-04  9828   0.872E-04-0.313E-04
CGA:  11    -0.380540095902E+03   -0.26390E-04   -0.26320E-04  9828   0.441E-04 0.135E-05
CGA:  12    -0.380540112675E+03   -0.16774E-04   -0.16281E-04  9828   0.308E-04 0.685E-05
CGA:  13    -0.380540122970E+03   -0.10295E-04   -0.10334E-04  9828   0.159E-04 0.147E-04
CGA:  14    -0.380540131636E+03   -0.86666E-05   -0.81894E-05  9828   0.101E-04 0.868E-05
  35 F= -.38054013E+03 E0= -.38054013E+03  d E =-.179572E-02  mag=     4.0000
       N       E                     dE             d eps       ncg     rms          ort
SDA:   1    -0.373759151138E+03    0.67810E+01    0.00000E+00  9828   0.156E+02 0.000E+00
CGA:   2    -0.379436162802E+03   -0.56770E+01   -0.56777E+01  9828   0.433E+01-0.612E-02
CGA:   3    -0.380310390635E+03   -0.87423E+00   -0.87456E+00  9828   0.794E+00 0.166E-02
CGA:   4    -0.380461356371E+03   -0.15097E+00   -0.15100E+00  9828   0.188E+00 0.109E-02
CGA:   5    -0.380500261135E+03   -0.38905E-01   -0.38881E-01  9828   0.467E-01-0.306E-03
CGA:   6    -0.380511637310E+03   -0.11376E-01   -0.11347E-01  9828   0.136E-01-0.724E-03
CGA:   7    -0.380515560874E+03   -0.39236E-02   -0.39295E-02  9828   0.577E-02-0.447E-03
CGA:   8    -0.380517447244E+03   -0.18864E-02   -0.19108E-02  9828   0.254E-02-0.398E-03
CGA:   9    -0.380518209511E+03   -0.76227E-03   -0.76964E-03  9828   0.890E-03-0.180E-03
CGA:  10    -0.380518486975E+03   -0.27746E-03   -0.28733E-03  9828   0.402E-03-0.162E-03
CGA:  11    -0.380518591575E+03   -0.10460E-03   -0.10480E-03  9828   0.220E-03-0.598E-05
CGA:  12    -0.380518688607E+03   -0.97032E-04   -0.10546E-03  9828   0.271E-03-0.424E-04
CGA:  13    -0.380518768276E+03   -0.79669E-04   -0.77344E-04  9828   0.188E-03 0.460E-04
CGA:  14    -0.380518846896E+03   -0.78620E-04   -0.76343E-04  9828   0.107E-03 0.521E-04
CGA:  15    -0.380518889474E+03   -0.42578E-04   -0.42407E-04  9828   0.782E-04 0.377E-04
CGA:  16    -0.380518907112E+03   -0.17638E-04   -0.22974E-04  9828   0.453E-04 0.601E-04
CGA:  17    -0.380518915816E+03   -0.87046E-05   -0.10568E-04  9828   0.247E-04 0.272E-04
  36 F= -.38051892E+03 E0= -.38051892E+03  d E =0.212158E-01  mag=     4.0000
       N       E                     dE             d eps       ncg     rms          ort
SDA:   1    -0.377731102230E+03    0.27878E+01    0.00000E+00  9828   0.648E+01 0.000E+00
CGA:   2    -0.380074258868E+03   -0.23432E+01   -0.23430E+01  9828   0.184E+01 0.342E-02
CGA:   3    -0.380444689783E+03   -0.37043E+00   -0.36981E+00  9828   0.371E+00-0.631E-02
CGA:   4    -0.380512508884E+03   -0.67819E-01   -0.67752E-01  9828   0.782E-01 0.543E-03
CGA:   5    -0.380529351470E+03   -0.16843E-01   -0.16854E-01  9828   0.193E-01 0.180E-03
CGA:   6    -0.380533930382E+03   -0.45789E-02   -0.45751E-02  9828   0.573E-02-0.782E-04
CGA:   7    -0.380535467114E+03   -0.15367E-02   -0.15367E-02  9828   0.233E-02 0.322E-07
CGA:   8    -0.380536253118E+03   -0.78600E-03   -0.80223E-03  9828   0.124E-02-0.256E-03
CGA:   9    -0.380536552383E+03   -0.29926E-03   -0.29870E-03  9828   0.423E-03-0.367E-04
CGA:  10    -0.380536680324E+03   -0.12794E-03   -0.13058E-03  9828   0.155E-03-0.773E-04
CGA:  11    -0.380536708213E+03   -0.27888E-04   -0.29167E-04  9828   0.484E-04 0.231E-04
CGA:  12    -0.380536723166E+03   -0.14954E-04   -0.15080E-04  9828   0.229E-04 0.111E-04
CGA:  13    -0.380536735624E+03   -0.12458E-04   -0.13289E-04  9828   0.291E-04-0.442E-05
CGA:  14    -0.380536737447E+03   -0.18230E-05   -0.33553E-05  9828   0.190E-04 0.103E-04
  37 F= -.38053674E+03 E0= -.38053674E+03  d E =-.178216E-01  mag=     4.0000
       N       E                     dE             d eps       ncg     rms          ort
SDA:   1    -0.379737090150E+03    0.79965E+00    0.00000E+00  9828   0.187E+01 0.000E+00
CGA:   2    -0.380393375598E+03   -0.65629E+00   -0.65660E+00  9828   0.561E+00-0.416E-02
CGA:   3    -0.380507759697E+03   -0.11438E+00   -0.11448E+00  9828   0.119E+00 0.142E-02
CGA:   4    -0.380529540574E+03   -0.21781E-01   -0.21900E-01  9828   0.249E-01 0.133E-02
CGA:   5    -0.380534863759E+03   -0.53232E-02   -0.53340E-02  9828   0.671E-02 0.183E-03
CGA:   6    -0.380536591941E+03   -0.17282E-02   -0.17233E-02  9828   0.237E-02-0.349E-03
CGA:   7    -0.380537229143E+03   -0.63720E-03   -0.63994E-03  9828   0.991E-03-0.158E-03
CGA:   8    -0.380537495611E+03   -0.26647E-03   -0.26527E-03  9828   0.331E-03 0.665E-04
CGA:   9    -0.380537613338E+03   -0.11773E-03   -0.11799E-03  9828   0.135E-03-0.370E-05
CGA:  10    -0.380537662646E+03   -0.49308E-04   -0.53689E-04  9828   0.891E-04-0.336E-04
CGA:  11    -0.380537663904E+03   -0.12580E-05   -0.52684E-04  9828   0.324E-03-0.101E-03
CGA:  12    -0.380537714513E+03   -0.50609E-04   -0.54196E-04  9828   0.576E-04 0.272E-04
CGA:  13    -0.380537731367E+03   -0.16854E-04   -0.17103E-04  9828   0.198E-04 0.105E-04
CGA:  14    -0.380537736568E+03   -0.52005E-05   -0.57281E-05  9828   0.905E-05 0.102E-04
  38 F= -.38053774E+03 E0= -.38053774E+03  d E =-.999121E-03  mag=     4.0000
       N       E                     dE             d eps       ncg     rms          ort
SDA:   1    -0.379975947601E+03    0.56178E+00    0.00000E+00  9828   0.130E+01 0.000E+00
CGA:   2    -0.380450839429E+03   -0.47489E+00   -0.47488E+00  9828   0.368E+00 0.410E-03
CGA:   3    -0.380525150009E+03   -0.74311E-01   -0.74262E-01  9828   0.715E-01-0.404E-03
CGA:   4    -0.380538567662E+03   -0.13418E-01   -0.13390E-01  9828   0.158E-01-0.192E-03
CGA:   5    -0.380541893150E+03   -0.33255E-02   -0.33192E-02  9828   0.388E-02-0.736E-04
CGA:   6    -0.380542793611E+03   -0.90046E-03   -0.90184E-03  9828   0.111E-02 0.257E-04
CGA:   7    -0.380543094816E+03   -0.30121E-03   -0.30132E-03  9828   0.439E-03 0.912E-05
CGA:   8    -0.380543254409E+03   -0.15959E-03   -0.16746E-03  9828   0.268E-03-0.841E-04
CGA:   9    -0.380543308263E+03   -0.53855E-04   -0.54080E-04  9828   0.814E-04 0.629E-05
CGA:  10    -0.380543330467E+03   -0.22204E-04   -0.22218E-04  9828   0.248E-04 0.681E-06
CGA:  11    -0.380543338226E+03   -0.77583E-05   -0.77683E-05  9828   0.117E-04-0.422E-06
  39 F= -.38054334E+03 E0= -.38054334E+03  d E =-.560166E-02  mag=     4.0000
       N       E                     dE             d eps       ncg     rms          ort
SDA:   1    -0.380375410221E+03    0.16792E+00    0.00000E+00  9828   0.390E+00 0.000E+00
CGA:   2    -0.380515310092E+03   -0.13990E+00   -0.13988E+00  9828   0.115E+00 0.311E-03
CGA:   3    -0.380538421724E+03   -0.23112E-01   -0.23108E-01  9828   0.203E-01-0.303E-04
CGA:   4    -0.380542206272E+03   -0.37845E-02   -0.37808E-02  9828   0.473E-02-0.341E-04
CGA:   5    -0.380543190714E+03   -0.98444E-03   -0.98221E-03  9828   0.109E-02-0.311E-04
CGA:   6    -0.380543447582E+03   -0.25687E-03   -0.25692E-03  9828   0.294E-03 0.141E-05
CGA:   7    -0.380543531062E+03   -0.83480E-04   -0.83484E-04  9828   0.123E-03-0.166E-06
CGA:   8    -0.380543577962E+03   -0.46900E-04   -0.50867E-04  9828   0.895E-04-0.283E-04
CGA:   9    -0.380543592374E+03   -0.14412E-04   -0.15186E-04  9828   0.313E-04 0.130E-04
CGA:  10    -0.380543599241E+03   -0.68665E-05   -0.73960E-05  9828   0.118E-04 0.751E-05
  40 F= -.38054360E+03 E0= -.38054360E+03  d E =-.261015E-03  mag=     4.0000
       N       E                     dE             d eps       ncg     rms          ort
SDA:   1    -0.372084638101E+03    0.84590E+01    0.00000E+00  9828   0.219E+02 0.000E+00
CGA:   2    -0.378148875532E+03   -0.60642E+01   -0.60638E+01  9828   0.749E+01 0.311E-01
CGA:   3    -0.379882195850E+03   -0.17333E+01   -0.17337E+01  9828   0.173E+01 0.386E-02
CGA:   4    -0.380193482439E+03   -0.31129E+00   -0.31167E+00  9828   0.363E+00 0.645E-02
CGA:   5    -0.380268563640E+03   -0.75081E-01   -0.75241E-01  9828   0.934E-01 0.263E-02
CGA:   6    -0.380293172610E+03   -0.24609E-01   -0.24609E-01  9828   0.353E-01-0.599E-03
CGA:   7    -0.380303425294E+03   -0.10253E-01   -0.10275E-01  9828   0.156E-01-0.708E-03
CGA:   8    -0.380308586483E+03   -0.51612E-02   -0.51654E-02  9828   0.699E-02-0.617E-04
CGA:   9    -0.380310741479E+03   -0.21550E-02   -0.21426E-02  9828   0.246E-02 0.313E-03
CGA:  10    -0.380311620863E+03   -0.87938E-03   -0.88124E-03  9828   0.103E-02-0.271E-04
CGA:  11    -0.380311997684E+03   -0.37682E-03   -0.37638E-03  9828   0.517E-03 0.475E-05
CGA:  12    -0.380312216284E+03   -0.21860E-03   -0.24758E-03  9828   0.484E-03-0.146E-03
CGA:  13    -0.380312281743E+03   -0.65460E-04   -0.70061E-04  9828   0.196E-03 0.543E-04
CGA:  14    -0.380312318083E+03   -0.36340E-04   -0.41330E-04  9828   0.819E-04 0.532E-04
CGA:  15    -0.380312338576E+03   -0.20493E-04   -0.21316E-04  9828   0.317E-04 0.111E-04
CGA:  16    -0.380312346293E+03   -0.77163E-05   -0.82857E-05  9828   0.177E-04 0.126E-04
  41 F= -.38031235E+03 E0= -.38031235E+03  d E =0.231253E+00  mag=     4.0000
       N       E                     dE             d eps       ncg     rms          ort
SDA:   1    -0.378037650595E+03    0.22747E+01    0.00000E+00  9828   0.591E+01 0.000E+00
CGA:   2    -0.379971533115E+03   -0.19339E+01   -0.19341E+01  9828   0.211E+01 0.241E-02
CGA:   3    -0.380390137240E+03   -0.41860E+00   -0.41830E+00  9828   0.560E+00-0.101E-01
CGA:   4    -0.380502179754E+03   -0.11204E+00   -0.11132E+00  9828   0.952E-01-0.423E-02
CGA:   5    -0.380523391543E+03   -0.21212E-01   -0.21236E-01  9828   0.315E-01 0.631E-03
CGA:   6    -0.380530719404E+03   -0.73279E-02   -0.73491E-02  9828   0.104E-01 0.707E-03
CGA:   7    -0.380533599459E+03   -0.28801E-02   -0.28756E-02  9828   0.380E-02 0.437E-03
CGA:   8    -0.380534861326E+03   -0.12619E-02   -0.12880E-02  9828   0.201E-02-0.412E-03
CGA:   9    -0.380535294877E+03   -0.43355E-03   -0.43412E-03  9828   0.575E-03 0.320E-04
CGA:  10    -0.380535459496E+03   -0.16462E-03   -0.16415E-03  9828   0.186E-03 0.276E-04
CGA:  11    -0.380535518285E+03   -0.58789E-04   -0.57967E-04  9828   0.874E-04 0.245E-04
CGA:  12    -0.380535532154E+03   -0.13869E-04   -0.18358E-04  9828   0.501E-04 0.558E-04
CGA:  13    -0.380535545391E+03   -0.13237E-04   -0.13203E-04  9828   0.279E-04 0.263E-04
CGA:  14    -0.380535551296E+03   -0.59052E-05   -0.65334E-05  9828   0.226E-04 0.223E-04
  42 F= -.38053555E+03 E0= -.38053555E+03  d E =-.223205E+00  mag=     4.0000
       N       E                     dE             d eps       ncg     rms          ort
SDA:   1    -0.380519750226E+03    0.15795E-01    0.00000E+00  9828   0.515E-01 0.000E+00
CGA:   2    -0.380536274489E+03   -0.16524E-01   -0.16569E-01  9828   0.197E-01-0.702E-03
CGA:   3    -0.380539972942E+03   -0.36985E-02   -0.37185E-02  9828   0.484E-02 0.288E-03
CGA:   4    -0.380540996128E+03   -0.10232E-02   -0.10109E-02  9828   0.943E-03-0.222E-03
CGA:   5    -0.380541192724E+03   -0.19660E-03   -0.19579E-03  9828   0.280E-03-0.205E-04
CGA:   6    -0.380541257227E+03   -0.64503E-04   -0.64790E-04  9828   0.970E-04 0.154E-04
CGA:   7    -0.380541290635E+03   -0.33408E-04   -0.34399E-04  9828   0.629E-04-0.120E-04
CGA:   8    -0.380541302677E+03   -0.12043E-04   -0.12493E-04  9828   0.259E-04 0.142E-04
CGA:   9    -0.380541312297E+03   -0.96199E-05   -0.94761E-05  9828   0.173E-04 0.333E-05
  43 F= -.38054131E+03 E0= -.38054131E+03  d E =-.576100E-02  mag=     4.0000
       N       E                     dE             d eps       ncg     rms          ort
SDA:   1    -0.380446735082E+03    0.94568E-01    0.00000E+00  9828   0.255E+00 0.000E+00
CGA:   2    -0.380518822041E+03   -0.72087E-01   -0.72093E-01  9828   0.101E+00-0.260E-03
CGA:   3    -0.380539882612E+03   -0.21061E-01   -0.21067E-01  9828   0.237E-01 0.108E-03
CGA:   4    -0.380544405661E+03   -0.45230E-02   -0.44964E-02  9828   0.484E-02-0.362E-03
CGA:   5    -0.380545373908E+03   -0.96825E-03   -0.96387E-03  9828   0.120E-02-0.804E-04
CGA:   6    -0.380545651272E+03   -0.27736E-03   -0.27827E-03  9828   0.377E-03 0.480E-04
CGA:   7    -0.380545759413E+03   -0.10814E-03   -0.10773E-03  9828   0.146E-03 0.192E-04
CGA:   8    -0.380545808519E+03   -0.49106E-04   -0.48564E-04  9828   0.697E-04 0.868E-05
CGA:   9    -0.380545835770E+03   -0.27251E-04   -0.28528E-04  9828   0.443E-04-0.998E-05
CGA:  10    -0.380545844587E+03   -0.88170E-05   -0.90615E-05  9828   0.181E-04 0.953E-05
  44 F= -.38054584E+03 E0= -.38054584E+03  d E =-.453229E-02  mag=     4.0000
       N       E                     dE             d eps       ncg     rms          ort
SDA:   1    -0.380543271965E+03    0.25638E-02    0.00000E+00  9828   0.820E-02 0.000E+00
CGA:   2    -0.380545596964E+03   -0.23250E-02   -0.23172E-02  9828   0.343E-02 0.366E-03
CGA:   3    -0.380546339557E+03   -0.74259E-03   -0.73649E-03  9828   0.877E-03-0.106E-03
CGA:   4    -0.380546508828E+03   -0.16927E-03   -0.16799E-03  9828   0.167E-03-0.190E-04
CGA:   5    -0.380546542657E+03   -0.33829E-04   -0.34064E-04  9828   0.495E-04 0.491E-05
CGA:   6    -0.380546551536E+03   -0.88791E-05   -0.97318E-05  9828   0.159E-04 0.136E-04
  45 F= -.38054655E+03 E0= -.38054655E+03  d E =-.706948E-03  mag=     4.0000
       N       E                     dE             d eps       ncg     rms          ort
SDA:   1    -0.380541925989E+03    0.46167E-02    0.00000E+00  9828   0.145E-01 0.000E+00
CGA:   2    -0.380545703567E+03   -0.37776E-02   -0.37767E-02  9828   0.558E-02 0.533E-04
CGA:   3    -0.380546926683E+03   -0.12231E-02   -0.12245E-02  9828   0.128E-02 0.537E-04
CGA:   4    -0.380547162897E+03   -0.23621E-03   -0.23647E-03  9828   0.241E-03 0.449E-05
CGA:   5    -0.380547213454E+03   -0.50557E-04   -0.50508E-04  9828   0.626E-04-0.156E-05
CGA:   6    -0.380547226036E+03   -0.12582E-04   -0.12921E-04  9828   0.181E-04 0.110E-04
CGA:   7    -0.380547228165E+03   -0.21294E-05   -0.31695E-05  9828   0.868E-05 0.117E-04
  46 F= -.38054723E+03 E0= -.38054723E+03  d E =-.676630E-03  mag=     4.0000
       N       E                     dE             d eps       ncg     rms          ort
SDA:   1    -0.380387111820E+03    0.16011E+00    0.00000E+00  9828   0.435E+00 0.000E+00
CGA:   2    -0.380506544059E+03   -0.11943E+00   -0.11947E+00  9828   0.156E+00-0.864E-03
CGA:   3    -0.380540903537E+03   -0.34359E-01   -0.34365E-01  9828   0.354E-01 0.544E-03
CGA:   4    -0.380547232076E+03   -0.63285E-02   -0.63388E-02  9828   0.679E-02 0.198E-03
CGA:   5    -0.380548602839E+03   -0.13708E-02   -0.13718E-02  9828   0.161E-02 0.388E-04
CGA:   6    -0.380549005161E+03   -0.40232E-03   -0.40265E-03  9828   0.523E-03-0.143E-04
CGA:   7    -0.380549152769E+03   -0.14761E-03   -0.14730E-03  9828   0.216E-03 0.548E-05
CGA:   8    -0.380549222735E+03   -0.69965E-04   -0.67836E-04  9828   0.937E-04 0.265E-04
CGA:   9    -0.380549249352E+03   -0.26618E-04   -0.26136E-04  9828   0.340E-04 0.340E-04
CGA:  10    -0.380549263571E+03   -0.14219E-04   -0.13578E-04  9828   0.165E-04 0.110E-04
CGA:  11    -0.380549273688E+03   -0.10117E-04   -0.11278E-04  9828   0.178E-04-0.428E-05
CGA:  12    -0.380549274825E+03   -0.11375E-05   -0.18665E-05  9828   0.120E-04 0.655E-05
  47 F= -.38054927E+03 E0= -.38054927E+03  d E =-.204666E-02  mag=     4.0000
       N       E                     dE             d eps       ncg     rms          ort
SDA:   1    -0.380443249854E+03    0.10602E+00    0.00000E+00  9828   0.265E+00 0.000E+00
CGA:   2    -0.380523110781E+03   -0.79861E-01   -0.79815E-01  9828   0.938E-01 0.729E-03
CGA:   3    -0.380543604949E+03   -0.20494E-01   -0.20486E-01  9828   0.203E-01-0.350E-03
CGA:   4    -0.380547153257E+03   -0.35483E-02   -0.35550E-02  9828   0.386E-02 0.135E-03
CGA:   5    -0.380547979220E+03   -0.82596E-03   -0.82522E-03  9828   0.981E-03-0.285E-04
CGA:   6    -0.380548214462E+03   -0.23524E-03   -0.23515E-03  9828   0.311E-03 0.197E-04
CGA:   7    -0.380548280503E+03   -0.66041E-04   -0.67723E-04  9828   0.102E-03 0.717E-04
CGA:   8    -0.380548314070E+03   -0.33567E-04   -0.32710E-04  9828   0.498E-04 0.343E-04
CGA:   9    -0.380548329057E+03   -0.14987E-04   -0.15207E-04  9828   0.222E-04 0.247E-04
CGA:  10    -0.380548333629E+03   -0.45720E-05   -0.57373E-05  9828   0.111E-04 0.181E-04
  48 F= -.38054833E+03 E0= -.38054833E+03  d E =0.941197E-03  mag=     4.0000
       N       E                     dE             d eps       ncg     rms          ort
SDA:   1    -0.380504646833E+03    0.43682E-01    0.00000E+00  9828   0.113E+00 0.000E+00
CGA:   2    -0.380540859894E+03   -0.36213E-01   -0.36282E-01  9828   0.397E-01-0.746E-03
CGA:   3    -0.380548604120E+03   -0.77442E-02   -0.77522E-02  9828   0.836E-02 0.270E-03
CGA:   4    -0.380550231135E+03   -0.16270E-02   -0.16199E-02  9828   0.159E-02-0.155E-03
CGA:   5    -0.380550583701E+03   -0.35257E-03   -0.35250E-03  9828   0.410E-03-0.848E-05
CGA:   6    -0.380550682116E+03   -0.98414E-04   -0.98496E-04  9828   0.143E-03-0.988E-05
CGA:   7    -0.380550724035E+03   -0.41920E-04   -0.44417E-04  9828   0.839E-04-0.294E-04
CGA:   8    -0.380550738631E+03   -0.14596E-04   -0.14817E-04  9828   0.270E-04 0.142E-04
CGA:   9    -0.380550747698E+03   -0.90673E-05   -0.91549E-05  9828   0.153E-04-0.166E-05
CGA:  10    -0.380550754620E+03   -0.69222E-05    0.28028E-03  9828   0.654E-05 0.154E-05
  49 F= -.38055075E+03 E0= -.38055075E+03  d E =-.242099E-02  mag=     4.0000
       N       E                     dE             d eps       ncg     rms          ort
SDA:   1    -0.380539794965E+03    0.10953E-01    0.00000E+00  9828   0.301E-01 0.000E+00
CGA:   2    -0.380548033714E+03   -0.82387E-02   -0.82413E-02  9828   0.127E-01-0.231E-03
CGA:   3    -0.380550617335E+03   -0.25836E-02   -0.25881E-02  9828   0.273E-02 0.781E-04
CGA:   4    -0.380551070151E+03   -0.45282E-03   -0.46362E-03  9828   0.505E-03 0.118E-03
CGA:   5    -0.380551166759E+03   -0.96609E-04   -0.99890E-04  9828   0.112E-03 0.496E-04
CGA:   6    -0.380551200369E+03   -0.33610E-04   -0.33744E-04  9828   0.419E-04-0.628E-05
CGA:   7    -0.380551212564E+03   -0.12195E-04   -0.17713E-04  9828   0.508E-04-0.284E-04
CGA:   8    -0.380551217866E+03   -0.53016E-05   -0.68808E-05  9828   0.745E-05 0.123E-04
  50 F= -.38055122E+03 E0= -.38055122E+03  d E =-.463246E-03  mag=     4.0000
       N       E                     dE             d eps       ncg     rms          ort
SDA:   1    -0.380541001172E+03    0.10211E-01    0.00000E+00  9828   0.260E-01 0.000E+00
CGA:   2    -0.380549186148E+03   -0.81850E-02   -0.81749E-02  9828   0.992E-02 0.158E-03
CGA:   3    -0.380551166032E+03   -0.19799E-02   -0.19747E-02  9828   0.197E-02-0.920E-04
CGA:   4    -0.380551512733E+03   -0.34670E-03   -0.34761E-03  9828   0.380E-03 0.132E-04
CGA:   5    -0.380551590913E+03   -0.78180E-04   -0.78436E-04  9828   0.918E-04 0.607E-05
CGA:   6    -0.380551613639E+03   -0.22727E-04   -0.22727E-04  9828   0.257E-04-0.590E-07
CGA:   7    -0.380551619398E+03   -0.57584E-05   -0.58354E-05  9828   0.775E-05 0.431E-05
  51 F= -.38055162E+03 E0= -.38055162E+03  d E =-.401532E-03  mag=     4.0000
       N       E                     dE             d eps       ncg     rms          ort
SDA:   1    -0.380179446484E+03    0.37217E+00    0.00000E+00  9828   0.874E+00 0.000E+00
CGA:   2    -0.380486632452E+03   -0.30719E+00   -0.30703E+00  9828   0.263E+00 0.150E-02
CGA:   3    -0.380540123000E+03   -0.53491E-01   -0.53424E-01  9828   0.503E-01-0.145E-02
CGA:   4    -0.380549389794E+03   -0.92668E-02   -0.92467E-02  9828   0.107E-01-0.321E-03
CGA:   5    -0.380551587204E+03   -0.21974E-02   -0.21968E-02  9828   0.264E-02-0.160E-04
CGA:   6    -0.380552187036E+03   -0.59983E-03   -0.60044E-03  9828   0.655E-03 0.476E-04
CGA:   7    -0.380552370092E+03   -0.18306E-03   -0.18225E-03  9828   0.243E-03 0.245E-04
CGA:   8    -0.380552457338E+03   -0.87245E-04   -0.88622E-04  9828   0.115E-03-0.124E-04
CGA:   9    -0.380552494512E+03   -0.37175E-04   -0.38999E-04  9828   0.459E-04-0.167E-04
CGA:  10    -0.380552500499E+03   -0.59868E-05   -0.70171E-05  9828   0.138E-04 0.139E-04
[...]
CGA:   4    -0.380556138886E+03   -0.11334E-02   -0.11316E-02  9828   0.123E-02-0.145E-04
CGA:   5    -0.380556382714E+03   -0.24383E-03   -0.24602E-03  9828   0.296E-03 0.314E-04
CGA:   6    -0.380556454437E+03   -0.71724E-04   -0.72211E-04  9828   0.102E-03 0.167E-04
CGA:   7    -0.380556486889E+03   -0.32452E-04   -0.32642E-04  9828   0.490E-04-0.495E-05
CGA:   8    -0.380556498844E+03   -0.11955E-04   -0.12026E-04  9828   0.182E-04 0.739E-05
CGA:   9    -0.380556506018E+03   -0.71736E-05   -0.72816E-05  9828   0.961E-05-0.133E-05
  92 F= -.38055651E+03 E0= -.38055651E+03  d E =-.816410E-04  mag=     4.0000
       N       E                     dE             d eps       ncg     rms          ort
SDA:   1    -0.380539458736E+03    0.17040E-01    0.00000E+00  9828   0.463E-01 0.000E+00
CGA:   2    -0.380551297462E+03   -0.11839E-01   -0.11834E-01  9828   0.192E-01-0.238E-03
CGA:   3    -0.380555458666E+03   -0.41612E-02   -0.41682E-02  9828   0.432E-02 0.125E-03
CGA:   4    -0.380556233158E+03   -0.77449E-03   -0.77253E-03  9828   0.845E-03-0.198E-04
CGA:   5    -0.380556404476E+03   -0.17132E-03   -0.17042E-03  9828   0.211E-03-0.136E-04
CGA:   6    -0.380556455290E+03   -0.50815E-04   -0.50767E-04  9828   0.668E-04-0.234E-05
CGA:   7    -0.380556476759E+03   -0.21468E-04   -0.22799E-04  9828   0.389E-04-0.163E-04
CGA:   8    -0.380556485661E+03   -0.89022E-05   -0.90504E-05  9828   0.162E-04-0.367E-05
  93 F= -.38055649E+03 E0= -.38055649E+03  d E =0.203568E-04  mag=     4.0000
       N       E                     dE             d eps       ncg     rms          ort
SDA:   1    -0.380545534165E+03    0.10943E-01    0.00000E+00  9828   0.298E-01 0.000E+00
CGA:   2    -0.380552944098E+03   -0.74099E-02   -0.74035E-02  9828   0.122E-01-0.178E-03
CGA:   3    -0.380555585063E+03   -0.26410E-02   -0.26525E-02  9828   0.271E-02 0.178E-03
CGA:   4    -0.380556051946E+03   -0.46688E-03   -0.47246E-03  9828   0.470E-03 0.519E-04
CGA:   5    -0.380556150788E+03   -0.98842E-04   -0.98628E-04  9828   0.130E-03-0.311E-05
CGA:   6    -0.380556182811E+03   -0.32022E-04   -0.31838E-04  9828   0.450E-04-0.776E-05
CGA:   7    -0.380556195699E+03   -0.12888E-04   -0.13147E-04  9828   0.215E-04-0.642E-05
CGA:   8    -0.380556202537E+03   -0.68383E-05   -0.91700E-05  9828   0.241E-04-0.104E-04
  94 F= -.38055620E+03 E0= -.38055620E+03  d E =0.283124E-03  mag=     4.0000
       N       E                     dE             d eps       ncg     rms          ort
SDA:   1    -0.380486826951E+03    0.69369E-01    0.00000E+00  9828   0.183E+00 0.000E+00
CGA:   2    -0.380537007518E+03   -0.50181E-01   -0.50179E-01  9828   0.644E-01-0.346E-03
CGA:   3    -0.380551723680E+03   -0.14716E-01   -0.14731E-01  9828   0.129E-01 0.295E-03
CGA:   4    -0.380554013524E+03   -0.22898E-02   -0.22908E-02  9828   0.263E-02 0.677E-05
CGA:   5    -0.380554559150E+03   -0.54563E-03   -0.54448E-03  9828   0.660E-03-0.175E-04
CGA:   6    -0.380554732329E+03   -0.17318E-03   -0.17306E-03  9828   0.243E-03-0.211E-04
CGA:   7    -0.380554808337E+03   -0.76008E-04   -0.77521E-04  9828   0.141E-03-0.252E-04
CGA:   8    -0.380554858387E+03   -0.50050E-04   -0.56060E-04  9828   0.104E-03-0.350E-04
CGA:   9    -0.380554882983E+03   -0.24596E-04   -0.25003E-04  9828   0.368E-04-0.107E-04
CGA:  10    -0.380554894253E+03   -0.11270E-04   -0.11766E-04  9828   0.164E-04-0.673E-05
CGA:  11    -0.380554898289E+03   -0.40359E-05   -0.40177E-05  9828   0.678E-05 0.136E-05
CGA:  12    -0.380554864848E+03    0.33441E-04   -0.18075E-04  9828   0.160E-03-0.303E-04
CGA:  13    -0.380554898357E+03   -0.33509E-04   -0.36837E-04  9828   0.197E-04 0.114E-04
CGA:  14    -0.380554908982E+03   -0.10625E-04   -0.99369E-05  9828   0.430E-04-0.181E-04
CGA:  15    -0.380554909696E+03   -0.71336E-06   -0.47136E-05  9828   0.472E-05 0.103E-04
  95 F= -.38055491E+03 E0= -.38055491E+03  d E =0.129284E-02  mag=     4.0000
       N       E                     dE             d eps       ncg     rms          ort
SDA:   1    -0.380061071510E+03    0.49384E+00    0.00000E+00  9828   0.128E+01 0.000E+00
CGA:   2    -0.380431088392E+03   -0.37002E+00   -0.37021E+00  9828   0.414E+00 0.383E-04
CGA:   3    -0.380531294124E+03   -0.10021E+00   -0.10020E+00  9828   0.673E-01-0.779E-04
CGA:   4    -0.380544358872E+03   -0.13065E-01   -0.13129E-01  9828   0.153E-01 0.259E-03
CGA:   5    -0.380547459564E+03   -0.31007E-02   -0.30932E-02  9828   0.411E-02-0.318E-04
CGA:   6    -0.380548555573E+03   -0.10960E-02   -0.10958E-02  9828   0.142E-02-0.267E-05
CGA:   7    -0.380548998062E+03   -0.44249E-03   -0.44557E-03  9828   0.780E-03 0.299E-04
CGA:   8    -0.380549294653E+03   -0.29659E-03   -0.29508E-03  9828   0.443E-03-0.368E-04
CGA:   9    -0.380549419999E+03   -0.12535E-03   -0.12695E-03  9828   0.157E-03 0.149E-04
CGA:  10    -0.380549478424E+03   -0.58424E-04   -0.57062E-04  9828   0.798E-04-0.260E-04
CGA:  11    -0.380549495140E+03   -0.16717E-04   -0.17826E-04  9828   0.303E-04 0.829E-05
CGA:  12    -0.380549510620E+03   -0.15480E-04   -0.19394E-04  9828   0.464E-04-0.214E-04
CGA:  13    -0.380549523575E+03   -0.12955E-04   -0.12503E-04  9828   0.617E-05-0.337E-05
CGA:  14    -0.380549528443E+03   -0.48674E-05    0.16278E-04  9828   0.394E-05 0.571E-06
  96 F= -.38054953E+03 E0= -.38054953E+03  d E =0.538125E-02  mag=     4.0000
       N       E                     dE             d eps       ncg     rms          ort
SDA:   1    -0.380498440468E+03    0.51083E-01    0.00000E+00  9828   0.129E+00 0.000E+00
CGA:   2    -0.380538562504E+03   -0.40122E-01   -0.40056E-01  9828   0.522E-01-0.755E-03
CGA:   3    -0.380548659313E+03   -0.10097E-01   -0.10096E-01  9828   0.123E-01 0.369E-04
CGA:   4    -0.380551156959E+03   -0.24976E-02   -0.24754E-02  9828   0.237E-02-0.114E-03
CGA:   5    -0.380551666024E+03   -0.50906E-03   -0.50747E-03  9828   0.694E-03-0.989E-05
CGA:   6    -0.380551843287E+03   -0.17726E-03   -0.17476E-03  9828   0.270E-03-0.220E-04
CGA:   7    -0.380551935546E+03   -0.92259E-04   -0.91342E-04  9828   0.177E-03-0.860E-04
CGA:   8    -0.380551972134E+03   -0.36588E-04   -0.34862E-04  9828   0.686E-04-0.243E-04
CGA:   9    -0.380551994767E+03   -0.22633E-04   -0.26839E-04  9828   0.712E-04-0.431E-04
CGA:  10    -0.380552009423E+03   -0.14656E-04   -0.14507E-04  9828   0.135E-04-0.855E-06
CGA:  11    -0.380551869726E+03    0.13970E-03   -0.75458E-04  9828   0.102E-02-0.886E-04
CGA:  12    -0.380552007588E+03   -0.13786E-03   -0.14717E-03  9828   0.957E-04 0.261E-04
CGA:  13    -0.380552034862E+03   -0.27275E-04   -0.26911E-04  9828   0.142E-04-0.932E-06
CGA:  14    -0.380552042405E+03   -0.75431E-05   -0.72071E-05  9828   0.917E-05-0.375E-05
  97 F= -.38055204E+03 E0= -.38055204E+03  d E =-.251396E-02  mag=     4.0000
       N       E                     dE             d eps       ncg     rms          ort
SDA:   1    -0.380503347043E+03    0.48688E-01    0.00000E+00  9828   0.130E+00 0.000E+00
CGA:   2    -0.380541306035E+03   -0.37959E-01   -0.38088E-01  9828   0.424E-01 0.348E-03
CGA:   3    -0.380551481803E+03   -0.10176E-01   -0.10103E-01  9828   0.742E-02-0.216E-03
CGA:   4    -0.380552853473E+03   -0.13717E-02   -0.13911E-02  9828   0.162E-02 0.643E-04
CGA:   5    -0.380553201145E+03   -0.34767E-03   -0.34267E-03  9828   0.421E-03-0.145E-04
CGA:   6    -0.380553305944E+03   -0.10480E-03   -0.10815E-03  9828   0.145E-03 0.123E-04
CGA:   7    -0.380553339634E+03   -0.33690E-04   -0.38938E-04  9828   0.680E-04 0.206E-04
CGA:   8    -0.380553367463E+03   -0.27829E-04   -0.28103E-04  9828   0.423E-04 0.193E-05
CGA:   9    -0.380553375178E+03   -0.77157E-05   -0.10475E-04  9828   0.146E-04 0.108E-04
  98 F= -.38055338E+03 E0= -.38055338E+03  d E =-.133277E-02  mag=     4.0000
       N       E                     dE             d eps       ncg     rms          ort
SDA:   1    -0.380550298345E+03    0.30691E-02    0.00000E+00  9828   0.791E-02 0.000E+00
CGA:   2    -0.380552635756E+03   -0.23374E-02   -0.23513E-02  9828   0.313E-02 0.803E-04
CGA:   3    -0.380553334602E+03   -0.69885E-03   -0.66513E-03  9828   0.718E-03-0.132E-03
CGA:   4    -0.380553466748E+03   -0.13215E-03   -0.12588E-03  9828   0.146E-03-0.231E-04
CGA:   5    -0.380553492009E+03   -0.25262E-04   -0.26746E-04  9828   0.315E-04 0.596E-05
CGA:   6    -0.380553497711E+03   -0.57014E-05   -0.68074E-05  9828   0.870E-05 0.506E-05
  99 F= -.38055350E+03 E0= -.38055350E+03  d E =-.122533E-03  mag=     4.0000
       N       E                     dE             d eps       ncg     rms          ort
SDA:   1    -0.380541954977E+03    0.11537E-01    0.00000E+00  9828   0.285E-01 0.000E+00
CGA:   2    -0.380550788290E+03   -0.88333E-02   -0.88403E-02  9828   0.970E-02 0.697E-04
CGA:   3    -0.380552871713E+03   -0.20834E-02   -0.20734E-02  9828   0.207E-02-0.540E-04
CGA:   4    -0.380553237428E+03   -0.36572E-03   -0.37274E-03  9828   0.413E-03 0.346E-04
CGA:   5    -0.380553319678E+03   -0.82250E-04   -0.84357E-04  9828   0.100E-03 0.118E-04
CGA:   6    -0.380553343553E+03   -0.23874E-04   -0.24428E-04  9828   0.317E-04 0.413E-05
CGA:   7    -0.380553349002E+03   -0.54490E-05   -0.68976E-05  9828   0.107E-04 0.932E-05
 100 F= -.38055335E+03 E0= -.38055335E+03  d E =0.148709E-03  mag=     4.0000
       N       E                     dE             d eps       ncg     rms          ort
SDA:   1    -0.380494569464E+03    0.58774E-01    0.00000E+00  9828   0.138E+00 0.000E+00
CGA:   2    -0.380541362407E+03   -0.46793E-01   -0.46784E-01  9828   0.485E-01-0.705E-03
CGA:   3    -0.380550563882E+03   -0.92015E-02   -0.92376E-02  9828   0.975E-02 0.247E-03
CGA:   4    -0.380552359988E+03   -0.17961E-02   -0.18148E-02  9828   0.202E-02 0.128E-03
CGA:   5    -0.380552788435E+03   -0.42845E-03   -0.42960E-03  9828   0.505E-03 0.954E-05
CGA:   6    -0.380552912586E+03   -0.12415E-03   -0.12293E-03  9828   0.169E-03-0.141E-04
CGA:   7    -0.380552958277E+03   -0.45691E-04   -0.45221E-04  9828   0.671E-04-0.945E-05
CGA:   8    -0.380552975184E+03   -0.16907E-04   -0.17263E-04  9828   0.234E-04 0.726E-05
CGA:   9    -0.380552979706E+03   -0.45221E-05   -0.54880E-05  9828   0.760E-05 0.902E-05
 101 F= -.38055298E+03 E0= -.38055298E+03  d E =0.369295E-03  mag=     4.0000
       N       E                     dE             d eps       ncg     rms          ort
SDA:   1    -0.380427015303E+03    0.12596E+00    0.00000E+00  9828   0.303E+00 0.000E+00
CGA:   2    -0.380524038494E+03   -0.97023E-01   -0.97008E-01  9828   0.106E+00 0.155E-02
CGA:   3    -0.380546100384E+03   -0.22062E-01   -0.21966E-01  9828   0.235E-01-0.908E-03
CGA:   4    -0.380550306742E+03   -0.42064E-02   -0.42124E-02  9828   0.450E-02 0.939E-04
CGA:   5    -0.380551263589E+03   -0.95685E-03   -0.95968E-03  9828   0.118E-02 0.329E-04
CGA:   6    -0.380551544667E+03   -0.28108E-03   -0.28246E-03  9828   0.387E-03 0.240E-04
CGA:   7    -0.380551623475E+03   -0.78808E-04   -0.85102E-04  9828   0.120E-03 0.825E-04
CGA:   8    -0.380551665469E+03   -0.41995E-04   -0.41974E-04  9828   0.604E-04 0.259E-04
CGA:   9    -0.380551684945E+03   -0.19475E-04   -0.19756E-04  9828   0.253E-04 0.145E-04
CGA:  10    -0.380551687474E+03   -0.25292E-05   -0.48327E-05  9828   0.112E-04 0.173E-04
 102 F= -.38055169E+03 E0= -.38055169E+03  d E =0.129223E-02  mag=     4.0000
       N       E                     dE             d eps       ncg     rms          ort
SDA:   1    -0.380519198966E+03    0.32486E-01    0.00000E+00  9828   0.851E-01 0.000E+00
CGA:   2    -0.380546381940E+03   -0.27183E-01   -0.27241E-01  9828   0.319E-01-0.125E-02
CGA:   3    -0.380552530684E+03   -0.61487E-02   -0.61949E-02  9828   0.732E-02 0.585E-03
CGA:   4    -0.380553998624E+03   -0.14679E-02   -0.14665E-02  9828   0.139E-02-0.836E-05
CGA:   5    -0.380554310439E+03   -0.31181E-03   -0.30973E-03  9828   0.430E-03-0.447E-04
CGA:   6    -0.380554423162E+03   -0.11272E-03   -0.11302E-03  9828   0.198E-03-0.650E-04
CGA:   7    -0.380554472798E+03   -0.49637E-04   -0.75660E-04  9828   0.266E-03-0.142E-03
CGA:   8    -0.380554504605E+03   -0.31807E-04   -0.37036E-04  9828   0.328E-04 0.383E-04
CGA:   9    -0.380554513672E+03   -0.90668E-05   -0.91945E-05  9828   0.104E-04 0.527E-05
CGA:  10    -0.380554441948E+03    0.71724E-04   -0.38627E-04  9828   0.402E-03-0.631E-04
CGA:  11    -0.380554505305E+03   -0.63357E-04   -0.68865E-04  9828   0.570E-04 0.181E-04
CGA:  12    -0.380554534500E+03   -0.29195E-04   -0.30520E-04  9828   0.584E-04-0.344E-04
CGA:  13    -0.380554536038E+03   -0.15378E-05   -0.70108E-05  9828   0.725E-05 0.156E-04
 103 F= -.38055454E+03 E0= -.38055454E+03  d E =-.284856E-02  mag=     4.0000
       N       E                     dE             d eps       ncg     rms          ort
SDA:   1    -0.380548371658E+03    0.61628E-02    0.00000E+00  9828   0.159E-01 0.000E+00
CGA:   2    -0.380553117421E+03   -0.47458E-02   -0.47553E-02  9828   0.609E-02 0.719E-04
CGA:   3    -0.380554356224E+03   -0.12388E-02   -0.12525E-02  9828   0.133E-02 0.603E-04
CGA:   4    -0.380554562311E+03   -0.20609E-03   -0.23011E-03  9828   0.222E-03 0.984E-04
CGA:   5    -0.380554607399E+03   -0.45088E-04   -0.49797E-04  9828   0.578E-04 0.235E-04
CGA:   6    -0.380554624842E+03   -0.17443E-04   -0.17202E-04  9828   0.267E-04-0.185E-05
CGA:   7    -0.380554626693E+03   -0.18503E-05   -0.41442E-05  9828   0.931E-05 0.990E-05
 104 F= -.38055463E+03 E0= -.38055463E+03  d E =-.906548E-04  mag=     4.0000
       N       E                     dE             d eps       ncg     rms          ort
SDA:   1    -0.380551415735E+03    0.32091E-02    0.00000E+00  9828   0.821E-02 0.000E+00
CGA:   2    -0.380554224271E+03   -0.28085E-02   -0.28063E-02  9828   0.276E-02-0.833E-04
CGA:   3    -0.380554768121E+03   -0.54385E-03   -0.55008E-03  9828   0.487E-03 0.376E-04
CGA:   4    -0.380554866161E+03   -0.98040E-04   -0.95058E-04  9828   0.121E-03-0.177E-04
CGA:   5    -0.380554891475E+03   -0.25313E-04   -0.24810E-04  9828   0.313E-04-0.365E-05
CGA:   6    -0.380554898939E+03   -0.74642E-05   -0.74527E-05  9828   0.100E-04-0.125E-06
 105 F= -.38055490E+03 E0= -.38055490E+03  d E =-.272246E-03  mag=     4.0000
       N       E                     dE             d eps       ncg     rms          ort
SDA:   1    -0.379541313424E+03    0.10136E+01    0.00000E+00  9828   0.245E+01 0.000E+00
CGA:   2    -0.380353965717E+03   -0.81265E+00   -0.81267E+00  9828   0.771E+00 0.295E-03
CGA:   3    -0.380523756956E+03   -0.16979E+00   -0.16972E+00  9828   0.126E+00-0.748E-03
CGA:   4    -0.380547560265E+03   -0.23803E-01   -0.23783E-01  9828   0.295E-01-0.120E-03
CGA:   5    -0.380553549383E+03   -0.59891E-02   -0.59895E-02  9828   0.730E-02 0.284E-05
CGA:   6    -0.380555374669E+03   -0.18253E-02   -0.18212E-02  9828   0.221E-02-0.588E-04
CGA:   7    -0.380556038089E+03   -0.66342E-03   -0.66238E-03  9828   0.109E-02-0.659E-04
CGA:   8    -0.380556406673E+03   -0.36858E-03   -0.36934E-03  9828   0.529E-03-0.223E-04
CGA:   9    -0.380556589870E+03   -0.18320E-03   -0.18501E-03  9828   0.236E-03-0.471E-04
CGA:  10    -0.380556644930E+03   -0.55061E-04   -0.56498E-04  9828   0.730E-04 0.250E-04
CGA:  11    -0.380556670351E+03   -0.25421E-04   -0.25441E-04  9828   0.355E-04 0.836E-05
CGA:  12    -0.380556681094E+03   -0.10743E-04   -0.11230E-04  9828   0.174E-04 0.144E-04
CGA:  13    -0.380556685429E+03   -0.43354E-05   -0.54772E-05  9828   0.931E-05 0.124E-04
 106 F= -.38055669E+03 E0= -.38055669E+03  d E =-.178649E-02  mag=     4.0000
       N       E                     dE             d eps       ncg     rms          ort
SDA:   1    -0.380352563986E+03    0.20412E+00    0.00000E+00  9828   0.529E+00 0.000E+00
CGA:   2    -0.380506524584E+03   -0.15396E+00   -0.15396E+00  9828   0.179E+00-0.364E-03
CGA:   3    -0.380547789525E+03   -0.41265E-01   -0.41255E-01  9828   0.359E-01-0.110E-03
CGA:   4    -0.380554235592E+03   -0.64461E-02   -0.64754E-02  9828   0.745E-02 0.237E-03
CGA:   5    -0.380555765032E+03   -0.15294E-02   -0.15393E-02  9828   0.189E-02 0.107E-03
CGA:   6    -0.380556278817E+03   -0.51379E-03   -0.51260E-03  9828   0.709E-03-0.457E-04
CGA:   7    -0.380556495518E+03   -0.21670E-03   -0.21833E-03  9828   0.399E-03-0.703E-04
CGA:   8    -0.380556610491E+03   -0.11497E-03   -0.11503E-03  9828   0.179E-03-0.209E-05
CGA:   9    -0.380556663273E+03   -0.52782E-04   -0.52773E-04  9828   0.664E-04 0.101E-04
CGA:  10    -0.380556686021E+03   -0.22748E-04   -0.22735E-04  9828   0.281E-04 0.375E-06
CGA:  11    -0.380556695563E+03   -0.95423E-05   -0.94368E-05  9828   0.133E-04 0.273E-05
 107 F= -.38055670E+03 E0= -.38055670E+03  d E =-.101337E-04  mag=     4.0000
       N       E                     dE             d eps       ncg     rms          ort
SDA:   1    -0.380222693942E+03    0.33399E+00    0.00000E+00  9828   0.805E+00 0.000E+00
CGA:   2    -0.380491086455E+03   -0.26839E+00   -0.26836E+00  9828   0.255E+00 0.103E-02
CGA:   3    -0.380546396616E+03   -0.55310E-01   -0.55273E-01  9828   0.451E-01-0.487E-03
CGA:   4    -0.380554658535E+03   -0.82619E-02   -0.82681E-02  9828   0.100E-01 0.101E-03
CGA:   5    -0.380556766397E+03   -0.21079E-02   -0.21057E-02  9828   0.252E-02-0.242E-04
CGA:   6    -0.380557382518E+03   -0.61612E-03   -0.61702E-03  9828   0.764E-03 0.197E-04
CGA:   7    -0.380557581299E+03   -0.19878E-03   -0.20033E-03  9828   0.310E-03 0.561E-04
CGA:   8    -0.380557701744E+03   -0.12044E-03   -0.12218E-03  9828   0.185E-03-0.212E-04
CGA:   9    -0.380557749155E+03   -0.47411E-04   -0.47574E-04  9828   0.642E-04 0.111E-04
CGA:  10    -0.380557770575E+03   -0.21421E-04   -0.21494E-04  9828   0.246E-04-0.282E-05
CGA:  11    -0.380557778664E+03   -0.80890E-05   -0.80751E-05  9828   0.113E-04 0.259E-06
 108 F= -.38055778E+03 E0= -.38055778E+03  d E =-.108310E-02  mag=     4.0000
       N       E                     dE             d eps       ncg     rms          ort
SDA:   1    -0.380458820387E+03    0.98950E-01    0.00000E+00  9828   0.246E+00 0.000E+00
CGA:   2    -0.380528343020E+03   -0.69523E-01   -0.69520E-01  9828   0.988E-01-0.381E-03
CGA:   3    -0.380548147387E+03   -0.19804E-01   -0.19842E-01  9828   0.223E-01 0.437E-03
CGA:   4    -0.380552371991E+03   -0.42246E-02   -0.42050E-02  9828   0.461E-02-0.187E-03
CGA:   5    -0.380553311599E+03   -0.93961E-03   -0.93186E-03  9828   0.118E-02-0.101E-03
CGA:   6    -0.380553583004E+03   -0.27140E-03   -0.27178E-03  9828   0.358E-03 0.969E-05
CGA:   7    -0.380553690926E+03   -0.10792E-03   -0.10898E-03  9828   0.153E-03-0.371E-04
CGA:   8    -0.380553734895E+03   -0.43968E-04   -0.44540E-04  9828   0.641E-04-0.114E-04
CGA:   9    -0.380553755370E+03   -0.20476E-04   -0.22253E-04  9828   0.339E-04-0.182E-04
CGA:  10    -0.380553763031E+03   -0.76613E-05   -0.78889E-05  9828   0.136E-04-0.541E-05
 109 F= -.38055376E+03 E0= -.38055376E+03  d E =0.401563E-02  mag=     4.0000
       N       E                     dE             d eps       ncg     rms          ort
SDA:   1    -0.380495273811E+03    0.58482E-01    0.00000E+00  9828   0.159E+00 0.000E+00
CGA:   2    -0.380541396498E+03   -0.46123E-01   -0.46122E-01  9828   0.633E-01 0.361E-03
CGA:   3    -0.380554270595E+03   -0.12874E-01   -0.12832E-01  9828   0.146E-01-0.479E-03
CGA:   4    -0.380556916560E+03   -0.26460E-02   -0.26670E-02  9828   0.283E-02 0.228E-03
CGA:   5    -0.380557474031E+03   -0.55747E-03   -0.56570E-03  9828   0.711E-03 0.102E-03
CGA:   6    -0.380557660629E+03   -0.18660E-03   -0.18626E-03  9828   0.255E-03-0.166E-04
CGA:   7    -0.380557714839E+03   -0.54209E-04   -0.56031E-04  9828   0.719E-04 0.385E-04
CGA:   8    -0.380557738298E+03   -0.23460E-04   -0.23325E-04  9828   0.303E-04 0.112E-04
CGA:   9    -0.380557748335E+03   -0.10037E-04   -0.99899E-05  9828   0.119E-04 0.328E-05
CGA:  10    -0.380557749080E+03   -0.74464E-06   -0.17602E-05  9828   0.490E-05 0.736E-05
 110 F= -.38055775E+03 E0= -.38055775E+03  d E =-.398605E-02  mag=     4.0000
