       N       E                     dE             d eps       ncg     rms          ort
DAV:   1     0.249777250469E+04    0.24978E+04   -0.13800E+05 10206   0.168E+03
DAV:   2    -0.170303108897E+03   -0.26681E+04   -0.24589E+04 10206   0.434E+02
DAV:   3    -0.483485720839E+03   -0.31318E+03   -0.30820E+03 10206   0.170E+02
DAV:   4    -0.493851716657E+03   -0.10366E+02   -0.10265E+02 10206   0.311E+01
DAV:   5    -0.494181627990E+03   -0.32991E+00   -0.32924E+00 10206   0.458E+00
SDA:   6    -0.189473037490E+03    0.30471E+03   -0.32924E+00 10206   0.103E+04 0.000E+00
CGA:   7    -0.266845848245E+03   -0.77373E+02   -0.10614E+03 10206   0.129E+04-0.237E+03
CGA:   8    -0.324071904522E+03   -0.57226E+02   -0.49458E+02 10206   0.162E+03-0.110E+03
CGA:   9    -0.341870322821E+03   -0.17798E+02   -0.20528E+02 10206   0.728E+02 0.181E+02
CGA:  10    -0.352523362943E+03   -0.10653E+02   -0.67490E+01 10206   0.314E+02 0.127E+02
CGA:  11    -0.355706838811E+03   -0.31835E+01   -0.39292E+01 10206   0.641E+02-0.138E+01
CGA:  12    -0.359064101276E+03   -0.33573E+01   -0.28165E+01 10206   0.296E+02-0.168E+02
CGA:  13    -0.360093744867E+03   -0.10296E+01   -0.17294E+01 10206   0.196E+02-0.167E+01
CGA:  14    -0.361577290584E+03   -0.14835E+01   -0.15799E+01 10206   0.672E+01-0.373E+00
CGA:  15    -0.362514128751E+03   -0.93684E+00   -0.93398E+00 10206   0.393E+01-0.703E-01
CGA:  16    -0.363078442713E+03   -0.56431E+00   -0.56932E+00 10206   0.211E+01 0.121E+00
CGA:  17    -0.363453041083E+03   -0.37460E+00   -0.37538E+00 10206   0.121E+01-0.630E-01
CGA:  18    -0.363661230909E+03   -0.20819E+00   -0.20846E+00 10206   0.767E+00-0.110E-01
CGA:  19    -0.363780344209E+03   -0.11911E+00   -0.11922E+00 10206   0.389E+00 0.245E-01
CGA:  20    -0.363844567154E+03   -0.64223E-01   -0.64250E-01 10206   0.213E+00 0.229E-01
CGA:  21    -0.363883541425E+03   -0.38974E-01   -0.38824E-01 10206   0.104E+00 0.142E-01
CGA:  22    -0.363902384337E+03   -0.18843E-01   -0.18803E-01 10206   0.520E-01 0.566E-02
CGA:  23    -0.363913209023E+03   -0.10825E-01   -0.10867E-01 10206   0.340E-01-0.940E-03
CGA:  24    -0.363919695908E+03   -0.64869E-02   -0.65369E-02 10206   0.168E-01-0.148E-02
CGA:  25    -0.363922521670E+03   -0.28258E-02   -0.28205E-02 10206   0.100E-01 0.664E-03
CGA:  26    -0.363924836955E+03   -0.23153E-02   -0.24004E-02 10206   0.663E-02-0.123E-02
CGA:  27    -0.363925937194E+03   -0.11002E-02   -0.20138E-02 10206   0.817E-02-0.515E-02
CGA:  28    -0.363927053316E+03   -0.11161E-02   -0.11818E-02 10206   0.334E-02 0.202E-02
CGA:  29    -0.363928131298E+03   -0.10780E-02   -0.10987E-02 10206   0.915E-03-0.247E-03
CGA:  30    -0.363927774651E+03    0.35665E-03   -0.74872E-03 10206   0.526E-02-0.159E-02
CGA:  31    -0.363928581685E+03   -0.80703E-03   -0.81438E-03 10206   0.130E-02 0.118E-03
CGA:  32    -0.363928735857E+03   -0.15417E-03   -0.17377E-03 10206   0.340E-03 0.243E-03
CGA:  33    -0.363928964712E+03   -0.22885E-03    0.11746E-03 10206   0.149E-03 0.165E-03
CGA:  34    -0.363929150195E+03   -0.18548E-03    0.22746E-04 10206   0.139E-03-0.342E-04
CGA:  35    -0.363929277392E+03   -0.12720E-03    0.60110E-05 10206   0.807E-04-0.115E-04
CGA:  36    -0.363929331418E+03   -0.54026E-04    0.10279E-04 10206   0.110E-03-0.115E-04
CGA:  37    -0.363929444026E+03   -0.11261E-03    0.53291E-05 10206   0.994E-04-0.898E-05
CGA:  38    -0.363929588484E+03   -0.14446E-03    0.34132E-05 10206   0.124E-03-0.457E-05
CGA:  39    -0.363929744591E+03   -0.15611E-03    0.56597E-05 10206   0.578E-04-0.570E-04
CGA:  40    -0.363929792960E+03   -0.48369E-04    0.11953E-05 10206   0.442E-04-0.319E-05
CGA:  41    -0.363929814793E+03   -0.21833E-04    0.17224E-04 10206   0.219E-04-0.250E-04
CGA:  42    -0.363929814961E+03   -0.16867E-06   -0.16222E-05 10206   0.753E-05 0.108E-04
   1 F= -.36392981E+03 E0= -.36392981E+03  d E =-.363930E+03  mag=    16.0000
       N       E                     dE             d eps       ncg     rms          ort
SDA:   1    -0.363952921074E+03   -0.23106E-01    0.00000E+00 10206   0.323E-02 0.000E+00
CGA:   2    -0.363953488194E+03   -0.56712E-03   -0.57749E-03 10206   0.104E-02 0.583E-03
CGA:   3    -0.363953719546E+03   -0.23135E-03   -0.23009E-03 10206   0.674E-03-0.141E-03
CGA:   4    -0.363953787163E+03   -0.67617E-04   -0.74136E-04 10206   0.136E-03 0.957E-04
CGA:   5    -0.363953811512E+03   -0.24349E-04   -0.24571E-04 10206   0.853E-04 0.658E-05
CGA:   6    -0.363953632886E+03    0.17863E-03   -0.66130E-04 10206   0.199E-02-0.446E-03
CGA:   7    -0.363953755303E+03   -0.12242E-03   -0.16610E-03 10206   0.310E-03 0.328E-03
CGA:   8    -0.363953796471E+03   -0.41168E-04   -0.49869E-04 10206   0.102E-03 0.120E-03
CGA:   9    -0.363953816431E+03   -0.19959E-04   -0.18970E-04 10206   0.310E-04-0.137E-04
CGA:  10    -0.363953814733E+03    0.16976E-05   -0.13179E-05 10206   0.186E-04 0.195E-04
   2 F= -.36395381E+03 E0= -.36395381E+03  d E =-.239998E-01  mag=    16.0000
       N       E                     dE             d eps       ncg     rms          ort
SDA:   1    -0.363192031904E+03    0.76178E+00    0.00000E+00 10206   0.478E+01 0.000E+00
CGA:   2    -0.364396124010E+03   -0.12041E+01   -0.12036E+01 10206   0.113E+01 0.525E-02
CGA:   3    -0.364672864023E+03   -0.27674E+00   -0.27676E+00 10206   0.466E+00-0.141E-03
CGA:   4    -0.364739451549E+03   -0.66588E-01   -0.66255E-01 10206   0.139E+00-0.945E-02
CGA:   5    -0.364763239953E+03   -0.23788E-01   -0.23833E-01 10206   0.360E-01 0.299E-02
CGA:   6    -0.364771606183E+03   -0.83662E-02   -0.84086E-02 10206   0.184E-01-0.112E-02
CGA:   7    -0.364775906176E+03   -0.43000E-02   -0.42291E-02 10206   0.878E-02 0.158E-02
CGA:   8    -0.364778601801E+03   -0.26956E-02   -0.28839E-02 10206   0.888E-02-0.176E-02
CGA:   9    -0.364779508863E+03   -0.90706E-03   -0.98033E-03 10206   0.338E-02 0.118E-02
CGA:  10    -0.364780125059E+03   -0.61620E-03   -0.63480E-03 10206   0.174E-02 0.589E-03
CGA:  11    -0.364780547252E+03   -0.42219E-03   -0.43890E-03 10206   0.192E-02-0.856E-03
CGA:  12    -0.364780619383E+03   -0.72131E-04   -0.91665E-04 10206   0.134E-02 0.190E-03
CGA:  13    -0.364780670384E+03   -0.51001E-04   -0.10085E-03 10206   0.545E-03 0.406E-03
CGA:  14    -0.364780729951E+03   -0.59567E-04   -0.74924E-04 10206   0.411E-03 0.192E-03
CGA:  15    -0.364780835736E+03   -0.10579E-03   -0.11605E-03 10206   0.338E-03-0.375E-03
CGA:  16    -0.364780855357E+03   -0.19621E-04   -0.34434E-04 10206   0.117E-03 0.184E-03
CGA:  17    -0.364780888894E+03   -0.33537E-04   -0.33282E-04 10206   0.259E-04 0.238E-05
CGA:  18    -0.364780886101E+03    0.27933E-05   -0.69128E-06 10206   0.183E-04 0.221E-04
   3 F= -.36478089E+03 E0= -.36478089E+03  d E =-.827071E+00  mag=    16.0000
       N       E                     dE             d eps       ncg     rms          ort
SDA:   1    -0.359349530215E+03    0.54314E+01    0.00000E+00 10206   0.199E+02 0.000E+00
CGA:   2    -0.364256363096E+03   -0.49068E+01   -0.49082E+01 10206   0.516E+01-0.281E-01
CGA:   3    -0.365261384157E+03   -0.10050E+01   -0.10070E+01 10206   0.288E+01-0.511E-01
CGA:   4    -0.365665078156E+03   -0.40369E+00   -0.40513E+00 10206   0.567E+00-0.110E-01
CGA:   5    -0.365783934886E+03   -0.11886E+00   -0.11872E+00 10206   0.156E+00 0.417E-02
CGA:   6    -0.365820504122E+03   -0.36569E-01   -0.36703E-01 10206   0.817E-01-0.231E-02
CGA:   7    -0.365839688970E+03   -0.19185E-01   -0.18983E-01 10206   0.467E-01 0.345E-02
CGA:   8    -0.365850931177E+03   -0.11242E-01   -0.11427E-01 10206   0.317E-01-0.343E-02
CGA:   9    -0.365856248340E+03   -0.53172E-02   -0.53202E-02 10206   0.121E-01 0.266E-02
CGA:  10    -0.365859473210E+03   -0.32249E-02   -0.32269E-02 10206   0.463E-02-0.288E-04
CGA:  11    -0.365860912155E+03   -0.14389E-02   -0.14408E-02 10206   0.217E-02-0.145E-04
CGA:  12    -0.365861354202E+03   -0.44205E-03   -0.43785E-03 10206   0.120E-02 0.410E-03
CGA:  13    -0.365861731145E+03   -0.37694E-03   -0.40307E-03 10206   0.997E-03-0.291E-03
CGA:  14    -0.365861794837E+03   -0.63692E-04   -0.86421E-04 10206   0.447E-03 0.275E-03
CGA:  15    -0.365861835875E+03   -0.41038E-04   -0.59680E-04 10206   0.239E-03 0.211E-03
CGA:  16    -0.365861892235E+03   -0.56360E-04   -0.57203E-04 10206   0.747E-04 0.321E-04
CGA:  17    -0.365861911508E+03   -0.19273E-04   -0.19992E-04 10206   0.918E-04-0.148E-04
CGA:  18    -0.365861908465E+03    0.30431E-05   -0.34295E-05 10206   0.607E-04 0.452E-04
   4 F= -.36586191E+03 E0= -.36586191E+03  d E =-.108102E+01  mag=    16.0000
       N       E                     dE             d eps       ncg     rms          ort
SDA:   1    -0.361379737994E+03    0.44822E+01    0.00000E+00 10206   0.154E+02 0.000E+00
CGA:   2    -0.365113065374E+03   -0.37333E+01   -0.37318E+01 10206   0.405E+01 0.113E-01
CGA:   3    -0.365898656102E+03   -0.78559E+00   -0.78612E+00 10206   0.224E+01-0.150E-01
CGA:   4    -0.366219778417E+03   -0.32112E+00   -0.32140E+00 10206   0.448E+00-0.225E-01
CGA:   5    -0.366307550152E+03   -0.87772E-01   -0.87670E-01 10206   0.120E+00 0.557E-02
CGA:   6    -0.366333489016E+03   -0.25939E-01   -0.25961E-01 10206   0.594E-01-0.663E-03
CGA:   7    -0.366346351253E+03   -0.12862E-01   -0.12752E-01 10206   0.355E-01 0.314E-02
CGA:   8    -0.366355258859E+03   -0.89076E-02   -0.90429E-02 10206   0.234E-01-0.231E-02
CGA:   9    -0.366360055851E+03   -0.47970E-02   -0.47702E-02 10206   0.110E-01 0.833E-03
CGA:  10    -0.366362856906E+03   -0.28011E-02   -0.28378E-02 10206   0.511E-02-0.592E-03
CGA:  11    -0.366363815702E+03   -0.95880E-03   -0.95435E-03 10206   0.235E-02 0.585E-03
CGA:  12    -0.366364486894E+03   -0.67119E-03   -0.71022E-03 10206   0.163E-02-0.482E-03
CGA:  13    -0.366364644783E+03   -0.15789E-03   -0.17806E-03 10206   0.685E-03 0.355E-03
CGA:  14    -0.366364802583E+03   -0.15780E-03   -0.15809E-03 10206   0.374E-03 0.165E-03
CGA:  15    -0.366364900284E+03   -0.97701E-04   -0.11702E-03 10206   0.658E-03-0.317E-03
CGA:  16    -0.366364921894E+03   -0.21610E-04   -0.45642E-04 10206   0.107E-03 0.193E-03
CGA:  17    -0.366364926972E+03   -0.50782E-05   -0.11380E-04 10206   0.607E-04 0.595E-04
CGA:  18    -0.366364956530E+03   -0.29558E-04    0.16680E-04 10206   0.429E-04 0.452E-05
CGA:  19    -0.366364956083E+03    0.44778E-06   -0.30921E-05 10206   0.200E-04 0.306E-04
   5 F= -.36636496E+03 E0= -.36636496E+03  d E =-.503048E+00  mag=    16.0000
       N       E                     dE             d eps       ncg     rms          ort
SDA:   1    -0.362548747117E+03    0.38162E+01    0.00000E+00 10206   0.125E+02 0.000E+00
CGA:   2    -0.365569199393E+03   -0.30205E+01   -0.30183E+01 10206   0.352E+01 0.196E-01
CGA:   3    -0.366218294232E+03   -0.64909E+00   -0.64966E+00 10206   0.201E+01-0.212E-01
CGA:   4    -0.366509365989E+03   -0.29107E+00   -0.29139E+00 10206   0.363E+00-0.136E-01
CGA:   5    -0.366582235119E+03   -0.72869E-01   -0.72785E-01 10206   0.941E-01 0.305E-02
CGA:   6    -0.366602506727E+03   -0.20272E-01   -0.20299E-01 10206   0.433E-01-0.670E-03
CGA:   7    -0.366612620753E+03   -0.10114E-01   -0.10006E-01 10206   0.263E-01 0.192E-02
CGA:   8    -0.366619196364E+03   -0.65756E-02   -0.66753E-02 10206   0.190E-01-0.158E-02
CGA:   9    -0.366622874390E+03   -0.36780E-02   -0.36546E-02 10206   0.886E-02 0.106E-02
CGA:  10    -0.366625294920E+03   -0.24205E-02   -0.24885E-02 10206   0.419E-02-0.820E-03
CGA:  11    -0.366626057968E+03   -0.76305E-03   -0.75518E-03 10206   0.169E-02 0.696E-03
CGA:  12    -0.366626576822E+03   -0.51885E-03   -0.59952E-03 10206   0.174E-02-0.689E-03
CGA:  13    -0.366626633870E+03   -0.57049E-04   -0.91692E-04 10206   0.976E-03 0.331E-03
CGA:  14    -0.366626694490E+03   -0.60619E-04   -0.99175E-04 10206   0.534E-03 0.374E-03
CGA:  15    -0.366626808379E+03   -0.11389E-03   -0.11457E-03 10206   0.251E-03 0.242E-04
CGA:  16    -0.366624654626E+03    0.21538E-02   -0.11739E-02 10206   0.233E-01-0.249E-02
CGA:  17    -0.366626223385E+03   -0.15688E-02   -0.19010E-02 10206   0.179E-02 0.170E-02
CGA:  18    -0.366626669006E+03   -0.44562E-03   -0.46234E-03 10206   0.638E-03 0.214E-03
CGA:  19    -0.366626864991E+03   -0.19598E-03   -0.13181E-03 10206   0.724E-03-0.492E-03
CGA:  20    -0.366626859242E+03    0.57495E-05   -0.46115E-04 10206   0.101E-03 0.213E-03
   6 F= -.36662686E+03 E0= -.36662686E+03  d E =-.261903E+00  mag=    16.0000
       N       E                     dE             d eps       ncg     rms          ort
SDA:   1    -0.362651932373E+03    0.39749E+01    0.00000E+00 10206   0.119E+02 0.000E+00
CGA:   2    -0.365624563073E+03   -0.29726E+01   -0.29747E+01 10206   0.434E+01 0.672E-02
CGA:   3    -0.366300116931E+03   -0.67555E+00   -0.65411E+00 10206   0.200E+01 0.925E-01
CGA:   4    -0.366644234739E+03   -0.34412E+00   -0.34554E+00 10206   0.340E+00-0.107E-01
CGA:   5    -0.366710957519E+03   -0.66723E-01   -0.66903E-01 10206   0.951E-01 0.273E-02
CGA:   6    -0.366729874140E+03   -0.18917E-01   -0.18838E-01 10206   0.424E-01-0.115E-02
CGA:   7    -0.366738497249E+03   -0.86231E-02   -0.87184E-02 10206   0.242E-01 0.180E-02
CGA:   8    -0.366744856303E+03   -0.63591E-02   -0.63503E-02 10206   0.168E-01-0.976E-03
CGA:   9    -0.366748192822E+03   -0.33365E-02   -0.33950E-02 10206   0.870E-02 0.120E-02
CGA:  10    -0.366750662989E+03   -0.24702E-02   -0.24743E-02 10206   0.431E-02-0.567E-03
CGA:  11    -0.366751328937E+03   -0.66595E-03   -0.72184E-03 10206   0.181E-02 0.708E-03
CGA:  12    -0.366751840741E+03   -0.51180E-03   -0.51082E-03 10206   0.844E-03-0.862E-04
CGA:  13    -0.366751941988E+03   -0.10125E-03   -0.12860E-03 10206   0.372E-03 0.291E-03
CGA:  14    -0.366752054875E+03   -0.11289E-03   -0.11456E-03 10206   0.145E-03 0.830E-04
CGA:  15    -0.366752100861E+03   -0.45986E-04   -0.45684E-04 10206   0.107E-03 0.355E-04
CGA:  16    -0.366752095189E+03    0.56720E-05   -0.94256E-05 10206   0.506E-04 0.849E-04
   7 F= -.36675210E+03 E0= -.36675210E+03  d E =-.125236E+00  mag=    16.0000
       N       E                     dE             d eps       ncg     rms          ort
SDA:   1    -0.361352600237E+03    0.53995E+01    0.00000E+00 10206   0.143E+02 0.000E+00
CGA:   2    -0.365177731661E+03   -0.38251E+01   -0.38183E+01 10206   0.765E+01 0.104E+00
CGA:   3    -0.366219981047E+03   -0.10422E+01   -0.99819E+00 10206   0.230E+01 0.186E+00
CGA:   4    -0.366663318023E+03   -0.44334E+00   -0.44363E+00 10206   0.395E+00-0.115E-02
CGA:   5    -0.366738672554E+03   -0.75355E-01   -0.75472E-01 10206   0.112E+00 0.330E-02
CGA:   6    -0.366761125535E+03   -0.22453E-01   -0.22438E-01 10206   0.421E-01-0.578E-03
CGA:   7    -0.366770421822E+03   -0.92963E-02   -0.92965E-02 10206   0.207E-01 0.302E-03
CGA:   8    -0.366776043623E+03   -0.56218E-02   -0.56538E-02 10206   0.132E-01-0.675E-03
CGA:   9    -0.366778776047E+03   -0.27324E-02   -0.27398E-02 10206   0.840E-02 0.748E-03
CGA:  10    -0.366780856292E+03   -0.20802E-02   -0.20910E-02 10206   0.464E-02-0.100E-02
CGA:  11    -0.366781610950E+03   -0.75466E-03   -0.77351E-03 10206   0.166E-02 0.526E-03
CGA:  12    -0.366782113776E+03   -0.50283E-03   -0.51078E-03 10206   0.851E-03-0.154E-03
CGA:  13    -0.366782240777E+03   -0.12700E-03   -0.13788E-03 10206   0.378E-03 0.228E-03
CGA:  14    -0.366782385513E+03   -0.14474E-03   -0.18458E-03 10206   0.479E-03-0.247E-03
CGA:  15    -0.366782415003E+03   -0.29490E-04   -0.52771E-04 10206   0.114E-03 0.191E-03
CGA:  16    -0.366782439246E+03   -0.24244E-04   -0.25509E-04 10206   0.307E-04 0.191E-04
CGA:  17    -0.366782457798E+03   -0.18552E-04    0.24500E-04 10206   0.234E-04 0.113E-04
CGA:  18    -0.366782457282E+03    0.51592E-06   -0.26258E-05 10206   0.143E-04 0.223E-04
   8 F= -.36678246E+03 E0= -.36678246E+03  d E =-.303621E-01  mag=    16.0000
       N       E                     dE             d eps       ncg     rms          ort
SDA:   1    -0.366102020869E+03    0.68044E+00    0.00000E+00 10206   0.181E+01 0.000E+00
CGA:   2    -0.366666567721E+03   -0.56455E+00   -0.56507E+00 10206   0.671E+00-0.514E-02
CGA:   3    -0.366780440027E+03   -0.11387E+00   -0.11396E+00 10206   0.217E+00 0.277E-02
CGA:   4    -0.366814454909E+03   -0.34015E-01   -0.33872E-01 10206   0.525E-01-0.283E-02
CGA:   5    -0.366822368498E+03   -0.79136E-02   -0.80339E-02 10206   0.135E-01 0.230E-02
CGA:   6    -0.366825241669E+03   -0.28732E-02   -0.28720E-02 10206   0.471E-02-0.597E-03
CGA:   7    -0.366826099028E+03   -0.85736E-03   -0.86194E-03 10206   0.180E-02 0.331E-03
CGA:   8    -0.366826598638E+03   -0.49961E-03   -0.53161E-03 10206   0.155E-02-0.444E-03
CGA:   9    -0.366826748166E+03   -0.14953E-03   -0.16253E-03 10206   0.653E-03 0.188E-03
CGA:  10    -0.366826877659E+03   -0.12949E-03   -0.13175E-03 10206   0.377E-03 0.914E-04
CGA:  11    -0.366826970342E+03   -0.92683E-04   -0.98537E-04 10206   0.477E-03-0.227E-03
CGA:  12    -0.366826990272E+03   -0.19930E-04   -0.37282E-04 10206   0.928E-04 0.137E-03
CGA:  13    -0.366827003066E+03   -0.12794E-04   -0.15263E-04 10206   0.576E-04 0.349E-04
CGA:  14    -0.366826507135E+03    0.49593E-03   -0.26844E-03 10206   0.409E-02-0.554E-03
CGA:  15    -0.366826840157E+03   -0.33302E-03   -0.41804E-03 10206   0.784E-03 0.354E-03
CGA:  16    -0.366827033421E+03   -0.19326E-03   -0.18334E-03 10206   0.764E-04-0.777E-04
CGA:  17    -0.366827045321E+03   -0.11900E-04   -0.14158E-04 10206   0.176E-04 0.173E-04
CGA:  18    -0.366827051600E+03   -0.62787E-05   -0.10546E-04 10206   0.779E-04-0.268E-04
   9 F= -.36682705E+03 E0= -.36682705E+03  d E =-.445943E-01  mag=    16.0000
       N       E                     dE             d eps       ncg     rms          ort
SDA:   1    -0.366144932486E+03    0.68211E+00    0.00000E+00 10206   0.176E+01 0.000E+00
CGA:   2    -0.366697240880E+03   -0.55231E+00   -0.55226E+00 10206   0.641E+00-0.418E-02
CGA:   3    -0.366807192756E+03   -0.10995E+00   -0.11031E+00 10206   0.212E+00 0.360E-02
CGA:   4    -0.366839710699E+03   -0.32518E-01   -0.32338E-01 10206   0.489E-01-0.153E-02
CGA:   5    -0.366847244235E+03   -0.75335E-02   -0.77409E-02 10206   0.132E-01 0.144E-02
CGA:   6    -0.366850011379E+03   -0.27671E-02   -0.27108E-02 10206   0.452E-02-0.561E-03
CGA:   7    -0.366850803550E+03   -0.79217E-03   -0.82245E-03 10206   0.178E-02 0.288E-03
CGA:   8    -0.366851276146E+03   -0.47260E-03   -0.46361E-03 10206   0.119E-02-0.197E-03
CGA:   9    -0.366851422886E+03   -0.14674E-03   -0.17169E-03 10206   0.487E-03 0.199E-03
CGA:  10    -0.366851562410E+03   -0.13952E-03   -0.14097E-03 10206   0.222E-03 0.420E-04
CGA:  11    -0.366851630967E+03   -0.68557E-04   -0.68770E-04 10206   0.246E-03-0.406E-04
CGA:  12    -0.366851634469E+03   -0.35015E-05   -0.17336E-04 10206   0.105E-03 0.712E-04
CGA:  13    -0.366851634049E+03    0.41988E-06   -0.10177E-04 10206   0.604E-04 0.541E-04
CGA:  14    -0.366851489685E+03    0.14436E-03   -0.71848E-04 10206   0.204E-02-0.233E-03
CGA:  15    -0.366851599604E+03   -0.10992E-03   -0.16614E-03 10206   0.195E-03 0.256E-03
CGA:  16    -0.366851633538E+03   -0.33934E-04   -0.37974E-04 10206   0.642E-04 0.328E-04
CGA:  17    -0.366851655602E+03   -0.22065E-04   -0.17346E-04 10206   0.126E-03-0.803E-04
CGA:  18    -0.366851651027E+03    0.45757E-05   -0.68073E-05 10206   0.220E-04 0.489E-04
  10 F= -.36685165E+03 E0= -.36685165E+03  d E =-.245994E-01  mag=    16.0000
       N       E                     dE             d eps       ncg     rms          ort
SDA:   1    -0.364638502763E+03    0.22132E+01    0.00000E+00 10206   0.525E+01 0.000E+00
CGA:   2    -0.366435670267E+03   -0.17972E+01   -0.17980E+01 10206   0.219E+01-0.109E-01
CGA:   3    -0.366731532149E+03   -0.29586E+00   -0.29346E+00 10206   0.650E+00 0.283E-01
CGA:   4    -0.366837647228E+03   -0.10612E+00   -0.10608E+00 10206   0.134E+00-0.450E-02
CGA:   5    -0.366861033407E+03   -0.23386E-01   -0.23535E-01 10206   0.360E-01 0.204E-02
CGA:   6    -0.366868219820E+03   -0.71864E-02   -0.71321E-02 10206   0.119E-01-0.980E-03
CGA:   7    -0.366870283976E+03   -0.20642E-02   -0.20822E-02 10206   0.449E-02 0.271E-03
CGA:   8    -0.366871304608E+03   -0.10206E-02   -0.10160E-02 10206   0.218E-02-0.193E-03
CGA:   9    -0.366871676217E+03   -0.37161E-03   -0.38721E-03 10206   0.881E-03 0.268E-03
CGA:  10    -0.366871957066E+03   -0.28085E-03   -0.28584E-03 10206   0.458E-03-0.105E-03
CGA:  11    -0.366871993300E+03   -0.36234E-04   -0.53321E-04 10206   0.180E-03 0.153E-03
CGA:  12    -0.366872033295E+03   -0.39995E-04   -0.42594E-04 10206   0.701E-04 0.429E-04
CGA:  13    -0.366872039611E+03   -0.63153E-05   -0.44828E-04 10206   0.506E-03-0.137E-03
CGA:  14    -0.366872045988E+03   -0.63778E-05   -0.33803E-04 10206   0.773E-04 0.151E-03
  11 F= -.36687205E+03 E0= -.36687205E+03  d E =-.203950E-01  mag=    16.0000
       N       E                     dE             d eps       ncg     rms          ort
SDA:   1    -0.356659932559E+03    0.10212E+02    0.00000E+00 10206   0.239E+02 0.000E+00
CGA:   2    -0.364768125861E+03   -0.81082E+01   -0.80931E+01 10206   0.120E+02 0.120E+00
CGA:   3    -0.366211770064E+03   -0.14436E+01   -0.13704E+01 10206   0.260E+01 0.467E+00
CGA:   4    -0.366739634841E+03   -0.52786E+00   -0.52806E+00 10206   0.471E+00-0.164E-02
CGA:   5    -0.366834716621E+03   -0.95082E-01   -0.95032E-01 10206   0.167E+00-0.186E-02
CGA:   6    -0.366861158160E+03   -0.26442E-01   -0.26564E-01 10206   0.518E-01 0.209E-02
CGA:   7    -0.366872336939E+03   -0.11179E-01   -0.11155E-01 10206   0.212E-01-0.215E-02
CGA:   8    -0.366876588160E+03   -0.42512E-02   -0.42641E-02 10206   0.926E-02 0.100E-02
CGA:   9    -0.366879176855E+03   -0.25887E-02   -0.26717E-02 10206   0.639E-02-0.159E-02
CGA:  10    -0.366879953303E+03   -0.77645E-03   -0.83288E-03 10206   0.218E-02 0.836E-03
CGA:  11    -0.366880471609E+03   -0.51831E-03   -0.51821E-03 10206   0.854E-03-0.737E-05
CGA:  12    -0.366880625546E+03   -0.15394E-03   -0.36549E-03 10206   0.269E-02-0.102E-02
CGA:  13    -0.366880752372E+03   -0.12683E-03   -0.21559E-03 10206   0.355E-03 0.592E-03
CGA:  14    -0.366880785471E+03   -0.33099E-04   -0.50216E-04 10206   0.180E-03 0.158E-03
CGA:  15    -0.366880846981E+03   -0.61510E-04   -0.69396E-04 10206   0.199E-03-0.165E-03
CGA:  16    -0.366880847967E+03   -0.98552E-06   -0.15526E-04 10206   0.694E-04 0.102E-03
CGA:  17    -0.366880863906E+03   -0.15939E-04   -0.15712E-04 10206   0.172E-04 0.184E-04
CGA:  18    -0.366880848910E+03    0.14996E-04   -0.10915E-04 10206   0.270E-03-0.399E-04
CGA:  19    -0.366880845264E+03    0.36462E-05   -0.24206E-04 10206   0.677E-04 0.924E-04
CGA:  20    -0.366880850429E+03   -0.51655E-05   -0.12130E-04 10206   0.268E-04 0.286E-04
CGA:  21    -0.366880812984E+03    0.37446E-04   -0.27870E-04 10206   0.752E-03-0.179E-03
CGA:  22    -0.366880818342E+03   -0.53577E-05   -0.59713E-04 10206   0.110E-03 0.181E-03
CGA:  23    -0.366880820190E+03   -0.18488E-05   -0.15238E-04 10206   0.602E-04 0.524E-04
CGA:  24    -0.366880849982E+03   -0.29791E-04   -0.24712E-04 10206   0.343E-04-0.661E-04
CGA:  25    -0.366880846087E+03    0.38947E-05   -0.23163E-05 10206   0.155E-04 0.219E-04
  12 F= -.36688085E+03 E0= -.36688085E+03  d E =-.880010E-02  mag=    16.0000
       N       E                     dE             d eps       ncg     rms          ort
SDA:   1    -0.366168648575E+03    0.71220E+00    0.00000E+00 10206   0.181E+01 0.000E+00
CGA:   2    -0.366725911665E+03   -0.55726E+00   -0.55733E+00 10206   0.799E+00 0.419E-02
CGA:   3    -0.366843740521E+03   -0.11783E+00   -0.11813E+00 10206   0.259E+00-0.734E-02
CGA:   4    -0.366884171352E+03   -0.40431E-01   -0.40467E-01 10206   0.577E-01 0.149E-02
CGA:   5    -0.366894455528E+03   -0.10284E-01   -0.10170E-01 10206   0.149E-01-0.912E-03
CGA:   6    -0.366896999612E+03   -0.25441E-02   -0.26330E-02 10206   0.407E-02 0.735E-03
CGA:   7    -0.366898006742E+03   -0.10071E-02   -0.98855E-03 10206   0.200E-02-0.293E-03
CGA:   8    -0.366898274579E+03   -0.26784E-03   -0.30353E-03 10206   0.705E-03 0.278E-03
CGA:   9    -0.366898534169E+03   -0.25959E-03   -0.28676E-03 10206   0.876E-03-0.381E-03
CGA:  10    -0.366898598261E+03   -0.64093E-04   -0.97861E-04 10206   0.158E-03 0.190E-03
CGA:  11    -0.366898653934E+03   -0.55672E-04   -0.58166E-04 10206   0.207E-03-0.115E-03
CGA:  12    -0.366898663998E+03   -0.10064E-04   -0.21480E-04 10206   0.452E-04 0.643E-04
CGA:  13    -0.366898640018E+03    0.23980E-04   -0.41026E-04 10206   0.480E-03-0.155E-03
CGA:  14    -0.366898699818E+03   -0.59800E-04   -0.72701E-04 10206   0.414E-04 0.907E-04
CGA:  15    -0.366897984507E+03    0.71531E-03   -0.39054E-03 10206   0.609E-02-0.516E-03
CGA:  16    -0.366898459686E+03   -0.47518E-03   -0.62151E-03 10206   0.104E-02 0.408E-03
CGA:  17    -0.366898737759E+03   -0.27807E-03   -0.24210E-03 10206   0.376E-04-0.127E-03
CGA:  18    -0.366898739418E+03   -0.16590E-05   -0.52159E-05 10206   0.564E-05 0.108E-04
  13 F= -.36689874E+03 E0= -.36689874E+03  d E =-.178933E-01  mag=    16.0000
       N       E                     dE             d eps       ncg     rms          ort
SDA:   1    -0.366805298218E+03    0.93440E-01    0.00000E+00 10206   0.237E+00 0.000E+00
CGA:   2    -0.366885499288E+03   -0.80201E-01   -0.80281E-01 10206   0.815E-01 0.616E-03
CGA:   3    -0.366899417754E+03   -0.13918E-01   -0.13829E-01 10206   0.285E-01-0.419E-03
CGA:   4    -0.366903686296E+03   -0.42685E-02   -0.42568E-02 10206   0.643E-02-0.121E-04
CGA:   5    -0.366904902362E+03   -0.12161E-02   -0.11536E-02 10206   0.198E-02-0.263E-03
CGA:   6    -0.366905238077E+03   -0.33572E-03   -0.34350E-03 10206   0.585E-03 0.353E-04
CGA:   7    -0.366905424715E+03   -0.18664E-03   -0.16713E-03 10206   0.455E-03-0.169E-03
CGA:   8    -0.366905449429E+03   -0.24714E-04   -0.41168E-04 10206   0.176E-03 0.628E-04
CGA:   9    -0.366905483490E+03   -0.34061E-04   -0.35039E-04 10206   0.101E-03 0.483E-05
CGA:  10    -0.366905219058E+03    0.26443E-03   -0.10264E-03 10206   0.392E-02-0.587E-03
CGA:  11    -0.366905444011E+03   -0.22495E-03   -0.33840E-03 10206   0.451E-03 0.390E-03
CGA:  12    -0.366905550896E+03   -0.10688E-03   -0.10866E-03 10206   0.111E-03 0.109E-04
CGA:  13    -0.366905582064E+03   -0.31168E-04   -0.50279E-04 10206   0.113E-02-0.281E-03
CGA:  14    -0.366905601008E+03   -0.18943E-04   -0.77919E-04 10206   0.598E-04 0.195E-03
CGA:  15    -0.366905596249E+03    0.47591E-05   -0.45231E-05 10206   0.243E-04 0.311E-04
CGA:  16    -0.366905616530E+03   -0.20281E-04    0.20854E-04 10206   0.810E-05-0.246E-05
CGA:  17    -0.366905615198E+03    0.13317E-05   -0.28029E-06 10206   0.457E-05 0.522E-05
  14 F= -.36690562E+03 E0= -.36690562E+03  d E =-.687578E-02  mag=    16.0000
       N       E                     dE             d eps       ncg     rms          ort
SDA:   1    -0.366813726525E+03    0.91890E-01    0.00000E+00 10206   0.231E+00 0.000E+00
CGA:   2    -0.366890522449E+03   -0.76796E-01   -0.76787E-01 10206   0.811E-01 0.557E-03
CGA:   3    -0.366904435711E+03   -0.13913E-01   -0.13908E-01 10206   0.266E-01-0.558E-04
CGA:   4    -0.366908466524E+03   -0.40308E-02   -0.39968E-02 10206   0.574E-02-0.218E-03
CGA:   5    -0.366909475558E+03   -0.10090E-02   -0.98847E-03 10206   0.171E-02-0.159E-03
CGA:   6    -0.366909784716E+03   -0.30916E-03   -0.30922E-03 10206   0.489E-03 0.683E-06
CGA:   7    -0.366909926461E+03   -0.14174E-03   -0.14152E-03 10206   0.432E-03-0.178E-03
CGA:   8    -0.366909946087E+03   -0.19626E-04   -0.30529E-04 10206   0.181E-03 0.609E-04
CGA:   9    -0.366909967712E+03   -0.21625E-04   -0.26239E-04 10206   0.996E-04 0.299E-04
CGA:  10    -0.366909965307E+03    0.24054E-05   -0.58655E-04 10206   0.705E-03-0.264E-03
CGA:  11    -0.366909999284E+03   -0.33977E-04   -0.65153E-04 10206   0.124E-03 0.162E-03
CGA:  12    -0.366910027907E+03   -0.28623E-04   -0.27914E-04 10206   0.249E-04-0.758E-05
CGA:  13    -0.366910054564E+03   -0.26657E-04    0.28919E-05 10206   0.653E-04-0.267E-04
CGA:  14    -0.366910049684E+03    0.48804E-05   -0.27784E-05 10206   0.181E-04 0.335E-04
  15 F= -.36691005E+03 E0= -.36691005E+03  d E =-.443449E-02  mag=    16.0000
       N       E                     dE             d eps       ncg     rms          ort
SDA:   1    -0.366146109690E+03    0.76394E+00    0.00000E+00 10206   0.181E+01 0.000E+00
CGA:   2    -0.366787991336E+03   -0.64188E+00   -0.64208E+00 10206   0.542E+00-0.190E-02
CGA:   3    -0.366884273234E+03   -0.96282E-01   -0.96511E-01 10206   0.174E+00 0.336E-02
CGA:   4    -0.366909804143E+03   -0.25531E-01   -0.25174E-01 10206   0.389E-01-0.378E-02
CGA:   5    -0.366915997416E+03   -0.61933E-02   -0.63058E-02 10206   0.101E-01 0.145E-02
CGA:   6    -0.366918206440E+03   -0.22090E-02   -0.21836E-02 10206   0.348E-02-0.788E-03
CGA:   7    -0.366918774476E+03   -0.56804E-03   -0.58193E-03 10206   0.120E-02 0.241E-03
CGA:   8    -0.366919125830E+03   -0.35135E-03   -0.37337E-03 10206   0.118E-02-0.401E-03
CGA:   9    -0.366919228530E+03   -0.10270E-03   -0.10838E-03 10206   0.523E-03 0.572E-04
CGA:  10    -0.366919321717E+03   -0.93186E-04   -0.94478E-04 10206   0.319E-03 0.209E-04
CGA:  11    -0.366919399018E+03   -0.77301E-04   -0.82754E-04 10206   0.478E-03-0.299E-03
CGA:  12    -0.366919422079E+03   -0.23060E-04   -0.40388E-04 10206   0.828E-04 0.118E-03
CGA:  13    -0.366919439432E+03   -0.17353E-04   -0.17746E-04 10206   0.374E-04 0.748E-05
CGA:  14    -0.366919464217E+03   -0.24786E-04    0.12265E-04 10206   0.641E-04-0.323E-04
CGA:  15    -0.366919462497E+03    0.17204E-05   -0.35255E-05 10206   0.189E-04 0.315E-04
  16 F= -.36691946E+03 E0= -.36691946E+03  d E =-.941281E-02  mag=    16.0000
       N       E                     dE             d eps       ncg     rms          ort
SDA:   1    -0.353783919024E+03    0.13136E+02    0.00000E+00 10206   0.314E+02 0.000E+00
CGA:   2    -0.363908420035E+03   -0.10125E+02   -0.10080E+02 10206   0.175E+02 0.331E+00
CGA:   3    -0.366007405396E+03   -0.20990E+01   -0.19926E+01 10206   0.353E+01 0.570E+00
CGA:   4    -0.366754363946E+03   -0.74696E+00   -0.74697E+00 10206   0.599E+00-0.127E-02
CGA:   5    -0.366871928536E+03   -0.11756E+00   -0.11754E+00 10206   0.223E+00-0.261E-02
CGA:   6    -0.366906890132E+03   -0.34962E-01   -0.35096E-01 10206   0.655E-01 0.331E-02
CGA:   7    -0.366921165944E+03   -0.14276E-01   -0.14305E-01 10206   0.281E-01-0.248E-02
CGA:   8    -0.366927152676E+03   -0.59867E-02   -0.59807E-02 10206   0.130E-01 0.373E-03
CGA:   9    -0.366930694295E+03   -0.35416E-02   -0.37916E-02 10206   0.104E-01-0.304E-02
CGA:  10    -0.366931894241E+03   -0.11999E-02   -0.12443E-02 10206   0.361E-02 0.864E-03
CGA:  11    -0.366932679955E+03   -0.78571E-03   -0.78528E-03 10206   0.149E-02-0.800E-04
CGA:  12    -0.366932717681E+03   -0.37726E-04   -0.69387E-03 10206   0.755E-02-0.243E-02
CGA:  13    -0.366933185882E+03   -0.46820E-03   -0.62529E-03 10206   0.803E-03 0.119E-02
CGA:  14    -0.366933313661E+03   -0.12778E-03   -0.14266E-03 10206   0.387E-03 0.252E-03
CGA:  15    -0.366933409894E+03   -0.96233E-04   -0.16398E-03 10206   0.114E-02-0.602E-03
CGA:  16    -0.366933444137E+03   -0.34243E-04   -0.83820E-04 10206   0.200E-03 0.352E-03
CGA:  17    -0.366933455441E+03   -0.11304E-04   -0.23579E-04 10206   0.109E-03 0.104E-03
CGA:  18    -0.366933528294E+03   -0.72853E-04    0.16801E-04 10206   0.882E-04-0.508E-05
CGA:  19    -0.366933531993E+03   -0.36987E-05   -0.82671E-05 10206   0.336E-04 0.439E-04
  17 F= -.36693353E+03 E0= -.36693353E+03  d E =-.140695E-01  mag=    16.0000
       N       E                     dE             d eps       ncg     rms          ort
SDA:   1    -0.366734745187E+03    0.19878E+00    0.00000E+00 10206   0.485E+00 0.000E+00
CGA:   2    -0.366904694806E+03   -0.16995E+00   -0.17055E+00 10206   0.156E+00-0.371E-02
CGA:   3    -0.366930139594E+03   -0.25445E-01   -0.25609E-01 10206   0.561E-01 0.531E-02
CGA:   4    -0.366938963642E+03   -0.88240E-02   -0.87110E-02 10206   0.117E-01-0.263E-02
CGA:   5    -0.366940911599E+03   -0.19480E-02   -0.19603E-02 10206   0.283E-02 0.689E-03
CGA:   6    -0.366941660145E+03   -0.74855E-03   -0.92643E-03 10206   0.311E-02-0.153E-02
CGA:   7    -0.366941861249E+03   -0.20110E-03   -0.27188E-03 10206   0.466E-03 0.638E-03
CGA:   8    -0.366941942676E+03   -0.81427E-04   -0.86117E-04 10206   0.216E-03 0.118E-03
CGA:   9    -0.366941937372E+03    0.53038E-05   -0.14204E-03 10206   0.156E-02-0.441E-03
CGA:  10    -0.366942015850E+03   -0.78478E-04   -0.12677E-03 10206   0.241E-03 0.384E-03
CGA:  11    -0.366942066170E+03   -0.50320E-04   -0.50235E-04 10206   0.106E-03-0.255E-05
CGA:  12    -0.366942139651E+03   -0.73482E-04    0.13891E-04 10206   0.115E-03-0.898E-04
CGA:  13    -0.366942132230E+03    0.74217E-05   -0.44371E-05 10206   0.485E-04 0.737E-04
  18 F= -.36694213E+03 E0= -.36694213E+03  d E =-.860024E-02  mag=    16.0000
       N       E                     dE             d eps       ncg     rms          ort
SDA:   1    -0.365866696681E+03    0.10754E+01    0.00000E+00 10206   0.249E+01 0.000E+00
CGA:   2    -0.366760907974E+03   -0.89421E+00   -0.89608E+00 10206   0.826E+00-0.104E-01
CGA:   3    -0.366883557132E+03   -0.12265E+00   -0.12282E+00 10206   0.297E+00 0.104E-01
CGA:   4    -0.366927690425E+03   -0.44133E-01   -0.43988E-01 10206   0.493E-01-0.474E-02
CGA:   5    -0.366937091692E+03   -0.94013E-02   -0.93929E-02 10206   0.130E-01 0.154E-02
CGA:   6    -0.366939735213E+03   -0.26435E-02   -0.26502E-02 10206   0.483E-02-0.683E-03
CGA:   7    -0.366940448127E+03   -0.71291E-03   -0.72782E-03 10206   0.152E-02 0.503E-03
CGA:   8    -0.366940899802E+03   -0.45167E-03   -0.47302E-03 10206   0.100E-02-0.227E-03
CGA:   9    -0.366941040964E+03   -0.14116E-03   -0.14493E-03 10206   0.417E-03 0.173E-03
CGA:  10    -0.366941153186E+03   -0.11222E-03   -0.11144E-03 10206   0.171E-03 0.212E-04
CGA:  11    -0.366941199355E+03   -0.46169E-04   -0.46908E-04 10206   0.962E-04-0.109E-04
CGA:  12    -0.366941202787E+03   -0.34318E-05   -0.81485E-05 10206   0.440E-04 0.446E-04
  19 F= -.36694120E+03 E0= -.36694120E+03  d E =0.929443E-03  mag=    16.0000
       N       E                     dE             d eps       ncg     rms          ort
SDA:   1    -0.364581977785E+03    0.23592E+01    0.00000E+00 10206   0.577E+01 0.000E+00
CGA:   2    -0.366373351233E+03   -0.17914E+01   -0.17903E+01 10206   0.236E+01 0.667E-02
CGA:   3    -0.366760523050E+03   -0.38717E+00   -0.38723E+00 10206   0.754E+00 0.131E-02
CGA:   4    -0.366881378153E+03   -0.12086E+00   -0.12088E+00 10206   0.180E+00 0.604E-03
CGA:   5    -0.366911151737E+03   -0.29774E-01   -0.29735E-01 10206   0.508E-01-0.160E-02
CGA:   6    -0.366921008303E+03   -0.98566E-02   -0.98619E-02 10206   0.166E-01-0.684E-03
CGA:   7    -0.366924740902E+03   -0.37326E-02   -0.37882E-02 10206   0.770E-02-0.130E-02
CGA:   8    -0.366925974557E+03   -0.12337E-02   -0.12464E-02 10206   0.293E-02 0.856E-03
CGA:   9    -0.366926791928E+03   -0.81737E-03   -0.85273E-03 10206   0.204E-02-0.489E-03
CGA:  10    -0.366927020134E+03   -0.22821E-03   -0.24725E-03 10206   0.741E-03 0.395E-03
CGA:  11    -0.366927180146E+03   -0.16001E-03   -0.16081E-03 10206   0.342E-03 0.872E-04
CGA:  12    -0.366927184216E+03   -0.40705E-05   -0.17698E-03 10206   0.184E-02-0.635E-03
CGA:  13    -0.366927258753E+03   -0.74537E-04   -0.13653E-03 10206   0.272E-03 0.480E-03
CGA:  14    -0.366927273866E+03   -0.15113E-04   -0.30864E-04 10206   0.133E-03 0.146E-03
CGA:  15    -0.366927332737E+03   -0.58870E-04    0.83202E-04 10206   0.996E-04-0.117E-04
CGA:  16    -0.366927330394E+03    0.23423E-05   -0.54270E-05 10206   0.475E-04 0.586E-04
  20 F= -.36692733E+03 E0= -.36692733E+03  d E =0.138724E-01  mag=    16.0000
       N       E                     dE             d eps       ncg     rms          ort
SDA:   1    -0.366290096752E+03    0.63724E+00    0.00000E+00 10206   0.164E+01 0.000E+00
CGA:   2    -0.366792232098E+03   -0.50214E+00   -0.50297E+00 10206   0.664E+00-0.673E-02
CGA:   3    -0.366894472286E+03   -0.10224E+00   -0.10236E+00 10206   0.244E+00 0.582E-02
CGA:   4    -0.366934691536E+03   -0.40219E-01   -0.40135E-01 10206   0.567E-01-0.477E-02
CGA:   5    -0.366943626297E+03   -0.89348E-02   -0.89858E-02 10206   0.130E-01 0.257E-02
CGA:   6    -0.366946443535E+03   -0.28172E-02   -0.28085E-02 10206   0.450E-02 0.347E-03
CGA:   7    -0.366947386605E+03   -0.94307E-03   -0.93157E-03 10206   0.162E-02 0.590E-03
CGA:   8    -0.366947888188E+03   -0.50158E-03   -0.53595E-03 10206   0.131E-02-0.315E-03
CGA:   9    -0.366948034017E+03   -0.14583E-03   -0.15301E-03 10206   0.528E-03 0.166E-03
CGA:  10    -0.366948150556E+03   -0.11654E-03   -0.11633E-03 10206   0.234E-03 0.237E-04
CGA:  11    -0.366948200376E+03   -0.49819E-04   -0.76867E-04 10206   0.525E-03-0.212E-03
CGA:  12    -0.366948225592E+03   -0.25216E-04   -0.39300E-04 10206   0.669E-04 0.119E-03
CGA:  13    -0.366948234852E+03   -0.92605E-05   -0.10423E-04 10206   0.412E-04 0.193E-04
CGA:  14    -0.366948255266E+03   -0.20413E-04    0.10864E-03 10206   0.175E-04-0.117E-04
CGA:  15    -0.366948257036E+03   -0.17705E-05   -0.19539E-05 10206   0.132E-04 0.651E-05
  21 F= -.36694826E+03 E0= -.36694826E+03  d E =-.209266E-01  mag=    16.0000
       N       E                     dE             d eps       ncg     rms          ort
SDA:   1    -0.366906079539E+03    0.42176E-01    0.00000E+00 10206   0.104E+00 0.000E+00
CGA:   2    -0.366941071005E+03   -0.34991E-01   -0.35105E-01 10206   0.368E-01-0.715E-03
CGA:   3    -0.366947239671E+03   -0.61687E-02   -0.61670E-02 10206   0.126E-01-0.932E-04
CGA:   4    -0.366949193922E+03   -0.19543E-02   -0.19369E-02 10206   0.314E-02-0.557E-03
CGA:   5    -0.366949618829E+03   -0.42491E-03   -0.43800E-03 10206   0.670E-03 0.346E-03
CGA:   6    -0.366949779880E+03   -0.16105E-03   -0.16141E-03 10206   0.248E-03-0.103E-04
CGA:   7    -0.366949813461E+03   -0.33581E-04   -0.36472E-04 10206   0.860E-04 0.835E-04
CGA:   8    -0.366949837404E+03   -0.23943E-04   -0.51365E-04 10206   0.238E-03-0.103E-03
CGA:   9    -0.366949870520E+03   -0.33116E-04   -0.33870E-04 10206   0.320E-04 0.143E-04
CGA:  10    -0.366949877790E+03   -0.72699E-05   -0.94567E-05 10206   0.582E-04-0.255E-04
  22 F= -.36694988E+03 E0= -.36694988E+03  d E =-.162075E-02  mag=    16.0000
       N       E                     dE             d eps       ncg     rms          ort
SDA:   1    -0.366137182045E+03    0.81269E+00    0.00000E+00 10206   0.189E+01 0.000E+00
CGA:   2    -0.366814461272E+03   -0.67728E+00   -0.67827E+00 10206   0.642E+00-0.588E-02
CGA:   3    -0.366909376705E+03   -0.94915E-01   -0.94992E-01 10206   0.218E+00 0.463E-02
CGA:   4    -0.366942233931E+03   -0.32857E-01   -0.32718E-01 10206   0.422E-01-0.376E-02
CGA:   5    -0.366949600449E+03   -0.73665E-02   -0.73912E-02 10206   0.108E-01 0.137E-02
CGA:   6    -0.366951916317E+03   -0.23159E-02   -0.23281E-02 10206   0.377E-02-0.861E-03
CGA:   7    -0.366952436793E+03   -0.52048E-03   -0.54148E-03 10206   0.119E-02 0.524E-03
CGA:   8    -0.366952815322E+03   -0.37853E-03   -0.44343E-03 10206   0.114E-02-0.492E-03
CGA:   9    -0.366952891792E+03   -0.76470E-04   -0.85777E-04 10206   0.624E-03 0.127E-03
CGA:  10    -0.366952987991E+03   -0.96199E-04   -0.99889E-04 10206   0.302E-03 0.695E-04
CGA:  11    -0.366952793466E+03    0.19452E-03   -0.19685E-03 10206   0.304E-02-0.997E-03
CGA:  12    -0.366952992278E+03   -0.19881E-03   -0.27418E-03 10206   0.524E-03 0.613E-03
CGA:  13    -0.366953103093E+03   -0.11082E-03   -0.11235E-03 10206   0.125E-03 0.519E-04
CGA:  14    -0.366953173444E+03   -0.70350E-04    0.60380E-04 10206   0.202E-03-0.116E-03
CGA:  15    -0.366953166498E+03    0.69456E-05   -0.92273E-05 10206   0.554E-04 0.101E-03
  23 F= -.36695317E+03 E0= -.36695317E+03  d E =-.328871E-02  mag=    16.0000
       N       E                     dE             d eps       ncg     rms          ort
SDA:   1    -0.359625891232E+03    0.73273E+01    0.00000E+00 10206   0.172E+02 0.000E+00
CGA:   2    -0.365313612543E+03   -0.56877E+01   -0.56701E+01 10206   0.926E+01 0.118E+00
CGA:   3    -0.366423798494E+03   -0.11102E+01   -0.10732E+01 10206   0.204E+01 0.167E+00
CGA:   4    -0.366818412797E+03   -0.39461E+00   -0.39462E+00 10206   0.385E+00-0.335E-02
CGA:   5    -0.366893018508E+03   -0.74606E-01   -0.74604E-01 10206   0.111E+00 0.134E-02
CGA:   6    -0.366913995989E+03   -0.20977E-01   -0.20976E-01 10206   0.359E-01-0.291E-03
CGA:   7    -0.366921152559E+03   -0.71566E-02   -0.71522E-02 10206   0.132E-01 0.622E-03
CGA:   8    -0.366924603109E+03   -0.34505E-02   -0.34732E-02 10206   0.663E-02-0.344E-03
CGA:   9    -0.366925978829E+03   -0.13757E-02   -0.13721E-02 10206   0.365E-02 0.225E-03
CGA:  10    -0.366926758233E+03   -0.77940E-03   -0.78185E-03 10206   0.160E-02-0.250E-03
CGA:  11    -0.366927017844E+03   -0.25961E-03   -0.26442E-03 10206   0.450E-03 0.232E-03
CGA:  12    -0.366927169145E+03   -0.15130E-03   -0.16294E-03 10206   0.265E-03-0.972E-04
CGA:  13    -0.366927173781E+03   -0.46367E-05   -0.18749E-04 10206   0.154E-03 0.126E-03
CGA:  14    -0.366927179916E+03   -0.61342E-05   -0.19589E-04 10206   0.766E-04 0.121E-03
CGA:  15    -0.366927209733E+03   -0.29817E-04    0.42785E-03 10206   0.474E-04 0.340E-04
CGA:  16    -0.366927205997E+03    0.37356E-05   -0.39547E-05 10206   0.343E-04 0.575E-04
  24 F= -.36692721E+03 E0= -.36692721E+03  d E =0.259605E-01  mag=    16.0000
       N       E                     dE             d eps       ncg     rms          ort
SDA:   1    -0.366120259611E+03    0.80695E+00    0.00000E+00 10206   0.200E+01 0.000E+00
CGA:   2    -0.366766739919E+03   -0.64648E+00   -0.64685E+00 10206   0.962E+00-0.298E-02
CGA:   3    -0.366894425676E+03   -0.12769E+00   -0.12758E+00 10206   0.266E+00 0.749E-02
CGA:   4    -0.366942565904E+03   -0.48140E-01   -0.48132E-01 10206   0.547E-01-0.340E-02
CGA:   5    -0.366952284647E+03   -0.97187E-02   -0.97199E-02 10206   0.149E-01 0.548E-03
CGA:   6    -0.366955303102E+03   -0.30185E-02   -0.30246E-02 10206   0.519E-02-0.324E-03
CGA:   7    -0.366956383333E+03   -0.10802E-02   -0.10944E-02 10206   0.228E-02-0.435E-03
CGA:   8    -0.366956812390E+03   -0.42906E-03   -0.42563E-03 10206   0.822E-03 0.182E-03
CGA:   9    -0.366957023217E+03   -0.21083E-03   -0.35605E-03 10206   0.193E-02-0.673E-03
CGA:  10    -0.366957135213E+03   -0.11200E-03   -0.15674E-03 10206   0.249E-03 0.393E-03
CGA:  11    -0.366957180325E+03   -0.45113E-04   -0.46291E-04 10206   0.112E-03 0.325E-04
CGA:  12    -0.366957237475E+03   -0.57149E-04    0.61241E-04 10206   0.102E-03-0.391E-04
CGA:  13    -0.366957249424E+03   -0.11950E-04   -0.11911E-04 10206   0.644E-04-0.446E-05
CGA:  14    -0.366957251446E+03   -0.20217E-05   -0.49449E-05 10206   0.385E-04 0.271E-04
CGA:  15    -0.366957246184E+03    0.52620E-05   -0.29493E-04 10206   0.265E-03-0.977E-04
CGA:  16    -0.366954752039E+03    0.24941E-02   -0.13655E-02 10206   0.332E-01-0.256E-02
CGA:  17    -0.366957098285E+03   -0.23462E-02   -0.26368E-02 10206   0.960E-03 0.189E-02
CGA:  18    -0.366957270448E+03   -0.17216E-03   -0.19191E-03 10206   0.296E-03 0.121E-03
CGA:  19    -0.366957371237E+03   -0.10079E-03   -0.62620E-04 10206   0.244E-03-0.246E-03
CGA:  20    -0.366957363089E+03    0.81471E-05   -0.14299E-04 10206   0.327E-04 0.814E-04
  25 F= -.36695736E+03 E0= -.36695736E+03  d E =-.301571E-01  mag=    16.0000
       N       E                     dE             d eps       ncg     rms          ort
SDA:   1    -0.366762455851E+03    0.19492E+00    0.00000E+00 10206   0.463E+00 0.000E+00
CGA:   2    -0.366923597549E+03   -0.16114E+00   -0.16116E+00 10206   0.155E+00-0.550E-03
CGA:   3    -0.366950130158E+03   -0.26533E-01   -0.26627E-01 10206   0.469E-01 0.717E-03
CGA:   4    -0.366957249625E+03   -0.71195E-02   -0.71355E-02 10206   0.115E-01 0.908E-04
CGA:   5    -0.366959229647E+03   -0.19800E-02   -0.19702E-02 10206   0.335E-02-0.799E-04
CGA:   6    -0.366959865976E+03   -0.63633E-03   -0.62933E-03 10206   0.106E-02-0.705E-04
CGA:   7    -0.366960143085E+03   -0.27711E-03   -0.27287E-03 10206   0.553E-03-0.200E-03
CGA:   8    -0.366960209831E+03   -0.66747E-04   -0.75917E-04 10206   0.188E-03 0.804E-04
CGA:   9    -0.366960275590E+03   -0.65758E-04   -0.70317E-04 10206   0.211E-03-0.927E-04
CGA:  10    -0.366960281147E+03   -0.55578E-05   -0.10265E-04 10206   0.133E-03 0.256E-04
CGA:  11    -0.366960290035E+03   -0.88873E-05   -0.14267E-04 10206   0.517E-04 0.307E-04
CGA:  12    -0.366960300997E+03   -0.10962E-04   -0.24581E-04 10206   0.170E-03-0.109E-03
CGA:  13    -0.366960314689E+03   -0.13692E-04   -0.21200E-04 10206   0.230E-04 0.525E-04
CGA:  14    -0.366960321087E+03   -0.63975E-05   -0.12045E-04 10206   0.615E-04-0.408E-04
  26 F= -.36696032E+03 E0= -.36696032E+03  d E =-.295800E-02  mag=    16.0000
       N       E                     dE             d eps       ncg     rms          ort
SDA:   1    -0.366927691916E+03    0.32623E-01    0.00000E+00 10206   0.773E-01 0.000E+00
CGA:   2    -0.366952649704E+03   -0.24958E-01   -0.24908E-01 10206   0.340E-01 0.767E-03
CGA:   3    -0.366958166425E+03   -0.55167E-02   -0.54278E-02 10206   0.104E-01-0.861E-03
CGA:   4    -0.366959489466E+03   -0.13230E-02   -0.14085E-02 10206   0.209E-02 0.730E-03
CGA:   5    -0.366959952107E+03   -0.46264E-03   -0.45399E-03 10206   0.765E-03-0.181E-03
CGA:   6    -0.366960054671E+03   -0.10256E-03   -0.10999E-03 10206   0.190E-03 0.816E-04
CGA:   7    -0.366960084654E+03   -0.29983E-04   -0.33986E-04 10206   0.662E-04 0.485E-04
CGA:   8    -0.366960101852E+03   -0.17198E-04   -0.17492E-04 10206   0.324E-04 0.101E-04
CGA:   9    -0.366960100912E+03    0.94002E-06   -0.30496E-05 10206   0.189E-04 0.255E-04
  27 F= -.36696010E+03 E0= -.36696010E+03  d E =0.220175E-03  mag=    16.0000
       N       E                     dE             d eps       ncg     rms          ort
SDA:   1    -0.366785084138E+03    0.17502E+00    0.00000E+00 10206   0.421E+00 0.000E+00
CGA:   2    -0.366916859095E+03   -0.13177E+00   -0.13172E+00 10206   0.203E+00 0.444E-03
CGA:   3    -0.366948738381E+03   -0.31879E-01   -0.31858E-01 10206   0.508E-01-0.215E-03
CGA:   4    -0.366956610850E+03   -0.78725E-02   -0.78811E-02 10206   0.127E-01 0.125E-03
CGA:   5    -0.366958763288E+03   -0.21524E-02   -0.21487E-02 10206   0.360E-02-0.738E-04
CGA:   6    -0.366959437556E+03   -0.67427E-03   -0.67471E-03 10206   0.102E-02 0.144E-04
CGA:   7    -0.366959651961E+03   -0.21440E-03   -0.21437E-03 10206   0.340E-03-0.414E-05
CGA:   8    -0.366959721016E+03   -0.69056E-04   -0.69642E-04 10206   0.110E-03 0.535E-04
CGA:   9    -0.366959753295E+03   -0.32278E-04   -0.31595E-04 10206   0.454E-04 0.216E-04
CGA:  10    -0.366959764267E+03   -0.10972E-04   -0.11174E-04 10206   0.181E-04 0.174E-04
CGA:  11    -0.366959770376E+03   -0.61099E-05   -0.15421E-04 10206   0.546E-04-0.234E-04
  28 F= -.36695977E+03 E0= -.36695977E+03  d E =0.330535E-03  mag=    16.0000
       N       E                     dE             d eps       ncg     rms          ort
SDA:   1    -0.364745770447E+03    0.22140E+01    0.00000E+00 10206   0.519E+01 0.000E+00
CGA:   2    -0.366491603967E+03   -0.17458E+01   -0.17461E+01 10206   0.221E+01-0.371E-02
CGA:   3    -0.366822541623E+03   -0.33094E+00   -0.33078E+00 10206   0.608E+00 0.102E-01
CGA:   4    -0.366917266353E+03   -0.94725E-01   -0.94439E-01 10206   0.140E+00-0.590E-02
CGA:   5    -0.366940488216E+03   -0.23222E-01   -0.23381E-01 10206   0.362E-01 0.286E-02
CGA:   6    -0.366947968042E+03   -0.74798E-02   -0.74628E-02 10206   0.111E-01-0.828E-03
CGA:   7    -0.366949964606E+03   -0.19966E-02   -0.20215E-02 10206   0.371E-02 0.703E-03
CGA:   8    -0.366950938818E+03   -0.97421E-03   -0.98924E-03 10206   0.252E-02-0.495E-03
CGA:   9    -0.366951232662E+03   -0.29384E-03   -0.31995E-03 10206   0.945E-03 0.349E-03
CGA:  10    -0.366951475796E+03   -0.24313E-03   -0.24275E-03 10206   0.429E-03 0.502E-04
CGA:  11    -0.366951576470E+03   -0.10067E-03   -0.16069E-03 10206   0.131E-02-0.439E-03
CGA:  12    -0.366951625146E+03   -0.48676E-04   -0.92325E-04 10206   0.137E-03 0.285E-03
CGA:  13    -0.366951629607E+03   -0.44611E-05   -0.13985E-04 10206   0.734E-04 0.713E-04
CGA:  14    -0.366951667151E+03   -0.37544E-04    0.36374E-04 10206   0.591E-04 0.109E-05
CGA:  15    -0.366951666562E+03    0.58888E-06   -0.43198E-05 10206   0.241E-04 0.354E-04
  29 F= -.36695167E+03 E0= -.36695167E+03  d E =0.810381E-02  mag=    16.0000
       N       E                     dE             d eps       ncg     rms          ort
SDA:   1    -0.366442628959E+03    0.50904E+00    0.00000E+00 10206   0.122E+01 0.000E+00
CGA:   2    -0.366833078141E+03   -0.39045E+00   -0.39078E+00 10206   0.623E+00-0.300E-02
CGA:   3    -0.366918070513E+03   -0.84992E-01   -0.85296E-01 10206   0.164E+00 0.730E-02
CGA:   4    -0.366944711215E+03   -0.26641E-01   -0.26570E-01 10206   0.404E-01-0.222E-02
CGA:   5    -0.366951337216E+03   -0.66260E-02   -0.66576E-02 10206   0.980E-02 0.109E-02
CGA:   6    -0.366953474161E+03   -0.21369E-02   -0.21491E-02 10206   0.355E-02-0.663E-03
CGA:   7    -0.366954042180E+03   -0.56802E-03   -0.57460E-03 10206   0.114E-02 0.291E-03
CGA:   8    -0.366954355362E+03   -0.31318E-03   -0.33083E-03 10206   0.776E-03-0.239E-03
CGA:   9    -0.366954423156E+03   -0.67794E-04   -0.79264E-04 10206   0.312E-03 0.166E-03
CGA:  10    -0.366954482233E+03   -0.59077E-04   -0.61277E-04 10206   0.146E-03 0.663E-04
CGA:  11    -0.366954513676E+03   -0.31443E-04   -0.60248E-04 10206   0.471E-03-0.195E-03
CGA:  12    -0.366954525664E+03   -0.11988E-04   -0.31872E-04 10206   0.764E-04 0.150E-03
CGA:  13    -0.366954526142E+03   -0.47806E-06   -0.65970E-05 10206   0.359E-04 0.476E-04
CGA:  14    -0.366954541562E+03   -0.15420E-04    0.23454E-04 10206   0.146E-04 0.706E-05
CGA:  15    -0.366954540303E+03    0.12592E-05   -0.71317E-06 10206   0.881E-05 0.134E-04
  30 F= -.36695454E+03 E0= -.36695454E+03  d E =-.287374E-02  mag=    16.0000
       N       E                     dE             d eps       ncg     rms          ort
SDA:   1    -0.366422981905E+03    0.53156E+00    0.00000E+00 10206   0.124E+01 0.000E+00
CGA:   2    -0.366869181301E+03   -0.44620E+00   -0.44667E+00 10206   0.389E+00-0.253E-02
CGA:   3    -0.366935445787E+03   -0.66264E-01   -0.66302E-01 10206   0.118E+00 0.323E-02
CGA:   4    -0.366953282196E+03   -0.17836E-01   -0.17744E-01 10206   0.281E-01-0.296E-02
CGA:   5    -0.366957843747E+03   -0.45616E-02   -0.45752E-02 10206   0.723E-02 0.107E-02
CGA:   6    -0.366959454012E+03   -0.16103E-02   -0.16463E-02 10206   0.266E-02-0.898E-03
CGA:   7    -0.366959890252E+03   -0.43624E-03   -0.43546E-03 10206   0.816E-03 0.146E-03
CGA:   8    -0.366960122691E+03   -0.23244E-03   -0.32007E-03 10206   0.997E-03-0.461E-03
CGA:   9    -0.366960206330E+03   -0.83639E-04   -0.10540E-03 10206   0.188E-03 0.255E-03
CGA:  10    -0.366960250338E+03   -0.44008E-04   -0.88065E-04 10206   0.402E-03-0.238E-03
CGA:  11    -0.366960288558E+03   -0.38219E-04   -0.47226E-04 10206   0.612E-04 0.115E-03
CGA:  12    -0.366959862268E+03    0.42629E-03   -0.23004E-03 10206   0.303E-02-0.500E-03
CGA:  13    -0.366960214340E+03   -0.35207E-03   -0.41839E-03 10206   0.577E-03 0.317E-03
CGA:  14    -0.366960371861E+03   -0.15752E-03   -0.11800E-03 10206   0.192E-03-0.256E-03
CGA:  15    -0.366960366210E+03    0.56514E-05   -0.70010E-05 10206   0.754E-04 0.476E-04
  31 F= -.36696037E+03 E0= -.36696037E+03  d E =-.582591E-02  mag=    16.0000
       N       E                     dE             d eps       ncg     rms          ort
SDA:   1    -0.366914595217E+03    0.45777E-01    0.00000E+00 10206   0.107E+00 0.000E+00
CGA:   2    -0.366949682858E+03   -0.35088E-01   -0.35089E-01 10206   0.400E-01-0.649E-04
CGA:   3    -0.366956512399E+03   -0.68295E-02   -0.68393E-02 10206   0.126E-01 0.729E-04
CGA:   4    -0.366958473586E+03   -0.19612E-02   -0.19542E-02 10206   0.317E-02-0.499E-04
CGA:   5    -0.366958962941E+03   -0.48935E-03   -0.50605E-03 10206   0.829E-03 0.126E-03
CGA:   6    -0.366959114048E+03   -0.15111E-03   -0.15727E-03 10206   0.252E-03 0.597E-04
CGA:   7    -0.366959176607E+03   -0.62558E-04   -0.62988E-04 10206   0.103E-03 0.912E-05
CGA:   8    -0.366959193391E+03   -0.16784E-04   -0.19475E-04 10206   0.361E-04 0.281E-04
CGA:   9    -0.366959207620E+03   -0.14229E-04   -0.14385E-04 10206   0.276E-04-0.391E-05
CGA:  10    -0.366959205645E+03    0.19748E-05   -0.16099E-05 10206   0.174E-04 0.171E-04
  32 F= -.36695921E+03 E0= -.36695921E+03  d E =0.116056E-02  mag=    16.0000
       N       E                     dE             d eps       ncg     rms          ort
SDA:   1    -0.366945670261E+03    0.13537E-01    0.00000E+00 10206   0.333E-01 0.000E+00
CGA:   2    -0.366957552687E+03   -0.11882E-01   -0.11919E-01 10206   0.105E-01-0.356E-03
CGA:   3    -0.366959262706E+03   -0.17100E-02   -0.17514E-02 10206   0.323E-02 0.450E-03
CGA:   4    -0.366959879354E+03   -0.61665E-03   -0.57905E-03 10206   0.118E-02-0.447E-03
CGA:   5    -0.366959983885E+03   -0.10453E-03   -0.12428E-03 10206   0.244E-03 0.153E-03
CGA:   6    -0.366960029110E+03   -0.45225E-04   -0.47084E-04 10206   0.101E-03 0.250E-04
CGA:   7    -0.366958936156E+03    0.10930E-02   -0.59316E-03 10206   0.102E-01-0.974E-03
CGA:   8    -0.366959703822E+03   -0.76767E-03   -0.97550E-03 10206   0.119E-02 0.635E-03
CGA:   9    -0.366960017239E+03   -0.31342E-03   -0.28396E-03 10206   0.441E-03-0.148E-03
CGA:  10    -0.366960061792E+03   -0.44552E-04   -0.56318E-04 10206   0.967E-04 0.440E-04
CGA:  11    -0.366960081321E+03   -0.19529E-04   -0.21537E-04 10206   0.433E-04 0.102E-04
CGA:  12    -0.366960089994E+03   -0.86730E-05   -0.28488E-04 10206   0.242E-03-0.967E-04
CGA:  13    -0.366960085810E+03    0.41838E-05   -0.21767E-04 10206   0.529E-04 0.837E-04
  33 F= -.36696009E+03 E0= -.36696009E+03  d E =-.880165E-03  mag=    16.0000
       N       E                     dE             d eps       ncg     rms          ort
SDA:   1    -0.366891347748E+03    0.68742E-01    0.00000E+00 10206   0.158E+00 0.000E+00
CGA:   2    -0.366949414111E+03   -0.58066E-01   -0.58071E-01 10206   0.471E-01 0.112E-02
CGA:   3    -0.366957321078E+03   -0.79070E-02   -0.75705E-02 10206   0.198E-01-0.184E-02
CGA:   4    -0.366959588418E+03   -0.22673E-02   -0.24599E-02 10206   0.251E-02 0.884E-03
CGA:   5    -0.366960168156E+03   -0.57974E-03   -0.58094E-03 10206   0.827E-03 0.935E-05
CGA:   6    -0.366960385022E+03   -0.21687E-03   -0.17919E-03 10206   0.625E-03-0.296E-03
CGA:   7    -0.366960395387E+03   -0.10365E-04   -0.37083E-04 10206   0.235E-03 0.109E-03
CGA:   8    -0.366960393332E+03    0.20551E-05   -0.19729E-04 10206   0.933E-04 0.860E-04
CGA:   9    -0.366960410646E+03   -0.17314E-04   -0.18473E-04 10206   0.696E-04 0.694E-05
CGA:  10    -0.366960459740E+03   -0.49094E-04    0.14009E-03 10206   0.229E-03-0.120E-03
CGA:  11    -0.366960451748E+03    0.79917E-05   -0.15219E-04 10206   0.555E-04 0.978E-04
  34 F= -.36696045E+03 E0= -.36696045E+03  d E =-.365938E-03  mag=    16.0000
       N       E                     dE             d eps       ncg     rms          ort
SDA:   1    -0.364849756151E+03    0.21107E+01    0.00000E+00 10206   0.485E+01 0.000E+00
CGA:   2    -0.366600932992E+03   -0.17512E+01   -0.17517E+01 10206   0.158E+01-0.640E-02
CGA:   3    -0.366846295174E+03   -0.24536E+00   -0.24529E+00 10206   0.547E+00 0.152E-01
CGA:   4    -0.366926056989E+03   -0.79762E-01   -0.79508E-01 10206   0.102E+00-0.756E-02
CGA:   5    -0.366944594316E+03   -0.18537E-01   -0.18691E-01 10206   0.280E-01 0.194E-02
CGA:   6    -0.366950229942E+03   -0.56356E-02   -0.55509E-02 10206   0.981E-02-0.120E-02
CGA:   7    -0.366951796037E+03   -0.15661E-02   -0.16068E-02 10206   0.358E-02 0.452E-03
CGA:   8    -0.366952729180E+03   -0.93314E-03   -0.92869E-03 10206   0.209E-02-0.421E-03
CGA:   9    -0.366953072285E+03   -0.34311E-03   -0.35142E-03 10206   0.901E-03 0.123E-03
CGA:  10    -0.366953330498E+03   -0.25821E-03   -0.25993E-03 10206   0.396E-03-0.973E-04
CGA:  11    -0.366953413290E+03   -0.82792E-04   -0.82583E-04 10206   0.170E-03-0.953E-05
CGA:  12    -0.366953457140E+03   -0.43850E-04   -0.45265E-04 10206   0.178E-03-0.774E-04
CGA:  13    -0.366953463500E+03   -0.63598E-05   -0.93721E-05 10206   0.824E-04 0.189E-04
  35 F= -.36695346E+03 E0= -.36695346E+03  d E =0.698825E-02  mag=    16.0000
       N       E                     dE             d eps       ncg     rms          ort
SDA:   1    -0.366750662110E+03    0.20280E+00    0.00000E+00 10206   0.484E+00 0.000E+00
CGA:   2    -0.366903490890E+03   -0.15283E+00   -0.15277E+00 10206   0.253E+00 0.826E-03
CGA:   3    -0.366936048610E+03   -0.32558E-01   -0.32506E-01 10206   0.721E-01-0.232E-02
CGA:   4    -0.366949126690E+03   -0.13078E-01   -0.13073E-01 10206   0.142E-01-0.263E-04
CGA:   5    -0.366951911769E+03   -0.27851E-02   -0.27624E-02 10206   0.450E-02-0.566E-03
CGA:   6    -0.366952575874E+03   -0.66410E-03   -0.69437E-03 10206   0.135E-02 0.422E-03
CGA:   7    -0.366952977250E+03   -0.40138E-03   -0.43259E-03 10206   0.123E-02-0.488E-03
CGA:   8    -0.366953055228E+03   -0.77978E-04   -0.96652E-04 10206   0.560E-03 0.171E-03
CGA:   9    -0.366953130219E+03   -0.74992E-04   -0.82903E-04 10206   0.267E-03 0.816E-04
CGA:  10    -0.366952436240E+03    0.69398E-03   -0.27920E-03 10206   0.706E-02-0.141E-02
CGA:  11    -0.366952984001E+03   -0.54776E-03   -0.69866E-03 10206   0.119E-02 0.977E-03
CGA:  12    -0.366953267059E+03   -0.28306E-03   -0.27791E-03 10206   0.216E-03-0.118E-03
CGA:  13    -0.366951814182E+03    0.14529E-02   -0.78539E-03 10206   0.129E-01-0.131E-02
CGA:  14    -0.366952889859E+03   -0.10757E-02   -0.13486E-02 10206   0.176E-02 0.908E-03
CGA:  15    -0.366953293848E+03   -0.40399E-03   -0.35736E-03 10206   0.390E-03-0.195E-03
CGA:  16    -0.366953371861E+03   -0.78013E-04   -0.81228E-04 10206   0.571E-04 0.172E-04
CGA:  17    -0.366953388938E+03   -0.17077E-04   -0.12083E-04 10206   0.517E-04-0.241E-04
CGA:  18    -0.366953397428E+03   -0.84901E-05   -0.63365E-05 10206   0.219E-04-0.114E-04
  36 F= -.36695340E+03 E0= -.36695340E+03  d E =0.660720E-04  mag=    16.0000
       N       E                     dE             d eps       ncg     rms          ort
SDA:   1    -0.366387247785E+03    0.56614E+00    0.00000E+00 10206   0.132E+01 0.000E+00
CGA:   2    -0.366858740299E+03   -0.47149E+00   -0.47144E+00 10206   0.477E+00-0.268E-02
CGA:   3    -0.366926514886E+03   -0.67775E-01   -0.67554E-01 10206   0.160E+00 0.846E-02
CGA:   4    -0.366951499736E+03   -0.24985E-01   -0.24713E-01 10206   0.283E-01-0.251E-02
CGA:   5    -0.366956652259E+03   -0.51525E-02   -0.52701E-02 10206   0.769E-02 0.742E-03
CGA:   6    -0.366958218580E+03   -0.15663E-02   -0.15335E-02 10206   0.258E-02-0.219E-03
CGA:   7    -0.366958588514E+03   -0.36993E-03   -0.41594E-03 10206   0.889E-03 0.266E-03
CGA:   8    -0.366958880717E+03   -0.29220E-03   -0.28382E-03 10206   0.683E-03-0.201E-03
CGA:   9    -0.366958934441E+03   -0.53724E-04   -0.75290E-04 10206   0.289E-03 0.116E-03
CGA:  10    -0.366958989087E+03   -0.54647E-04   -0.62004E-04 10206   0.138E-03 0.539E-04
CGA:  11    -0.366959039505E+03   -0.50418E-04   -0.47654E-04 10206   0.292E-03-0.123E-03
CGA:  12    -0.366959038366E+03    0.11389E-05   -0.20082E-04 10206   0.464E-04 0.876E-04
  37 F= -.36695904E+03 E0= -.36695904E+03  d E =-.564094E-02  mag=    16.0000
       N       E                     dE             d eps       ncg     rms          ort
SDA:   1    -0.366902869419E+03    0.56170E-01    0.00000E+00 10206   0.138E+00 0.000E+00
CGA:   2    -0.366942914089E+03   -0.40045E-01   -0.40042E-01 10206   0.645E-01 0.175E-02
CGA:   3    -0.366953431564E+03   -0.10517E-01   -0.10298E-01 10206   0.229E-01-0.184E-02
CGA:   4    -0.366956428466E+03   -0.29969E-02   -0.31313E-02 10206   0.404E-02 0.991E-03
CGA:   5    -0.366957277312E+03   -0.84885E-03   -0.82901E-03 10206   0.131E-02-0.256E-03
CGA:   6    -0.366957494081E+03   -0.21677E-03   -0.22162E-03 10206   0.334E-03 0.540E-04
CGA:   7    -0.366957557199E+03   -0.63118E-04   -0.66317E-04 10206   0.125E-03 0.422E-04
CGA:   8    -0.366957597816E+03   -0.40617E-04   -0.41666E-04 10206   0.991E-04-0.305E-04
CGA:   9    -0.366957600065E+03   -0.22490E-05   -0.76399E-05 10206   0.506E-04 0.332E-04
  38 F= -.36695760E+03 E0= -.36695760E+03  d E =0.143830E-02  mag=    16.0000
       N       E                     dE             d eps       ncg     rms          ort
SDA:   1    -0.366925368663E+03    0.32229E-01    0.00000E+00 10206   0.782E-01 0.000E+00
CGA:   2    -0.366950708001E+03   -0.25339E-01   -0.25283E-01 10206   0.327E-01 0.740E-03
CGA:   3    -0.366955645852E+03   -0.49379E-02   -0.48646E-02 10206   0.119E-01-0.783E-03
CGA:   4    -0.366957335565E+03   -0.16897E-02   -0.17138E-02 10206   0.155E-02 0.248E-03
CGA:   5    -0.366957677340E+03   -0.34178E-03   -0.34302E-03 10206   0.461E-03 0.496E-04
CGA:   6    -0.366957797789E+03   -0.12045E-03   -0.15879E-03 10206   0.974E-03-0.413E-03
CGA:   7    -0.366957829561E+03   -0.31772E-04   -0.72075E-04 10206   0.111E-03 0.235E-03
CGA:   8    -0.366957836382E+03   -0.68216E-05   -0.13196E-04 10206   0.504E-04 0.452E-04
CGA:   9    -0.366957296903E+03    0.53948E-03   -0.29196E-03 10206   0.346E-02-0.511E-03
CGA:  10    -0.366957675292E+03   -0.37839E-03   -0.47411E-03 10206   0.827E-03 0.342E-03
CGA:  11    -0.366957907328E+03   -0.23204E-03   -0.17570E-03 10206   0.313E-03-0.267E-03
CGA:  12    -0.366957905091E+03    0.22379E-05   -0.19313E-04 10206   0.916E-04 0.712E-04
  39 F= -.36695791E+03 E0= -.36695791E+03  d E =-.305026E-03  mag=    16.0000
       N       E                     dE             d eps       ncg     rms          ort
SDA:   1    -0.366916452608E+03    0.41455E-01    0.00000E+00 10206   0.104E+00 0.000E+00
CGA:   2    -0.366946982582E+03   -0.30530E-01   -0.30562E-01 10206   0.379E-01 0.401E-03
CGA:   3    -0.366954486386E+03   -0.75038E-02   -0.74440E-02 10206   0.137E-01-0.372E-03
CGA:   4    -0.366956130997E+03   -0.16446E-02   -0.17293E-02 10206   0.257E-02 0.399E-03
CGA:   5    -0.366956674860E+03   -0.54386E-03   -0.51510E-03 10206   0.895E-03-0.198E-03
CGA:   6    -0.366956792713E+03   -0.11785E-03   -0.13256E-03 10206   0.227E-03 0.850E-04
CGA:   7    -0.366956866542E+03   -0.73829E-04   -0.71851E-04 10206   0.170E-03-0.553E-04
CGA:   8    -0.366956879261E+03   -0.12720E-04   -0.19356E-04 10206   0.822E-04 0.386E-04
CGA:   9    -0.366956899203E+03   -0.19941E-04   -0.20110E-04 10206   0.450E-04 0.146E-05
CGA:  10    -0.366956409589E+03    0.48961E-03   -0.26511E-03 10206   0.316E-02-0.346E-03
CGA:  11    -0.366956660824E+03   -0.25124E-03   -0.37005E-03 10206   0.756E-03 0.279E-03
CGA:  12    -0.366956866033E+03   -0.20521E-03   -0.16883E-03 10206   0.184E-03-0.109E-03
CGA:  13    -0.366956881608E+03   -0.15575E-04   -0.27842E-04 10206   0.604E-04 0.354E-04
CGA:  14    -0.366956911747E+03   -0.30139E-04   -0.26849E-04 10206   0.701E-04-0.246E-04
CGA:  15    -0.366956911696E+03    0.50688E-07   -0.48311E-05 10206   0.465E-04 0.127E-04
  40 F= -.36695691E+03 E0= -.36695691E+03  d E =0.993395E-03  mag=    16.0000
       N       E                     dE             d eps       ncg     rms          ort
SDA:   1    -0.366682084562E+03    0.27483E+00    0.00000E+00 10206   0.664E+00 0.000E+00
CGA:   2    -0.366898294425E+03   -0.21621E+00   -0.21623E+00 10206   0.207E+00-0.826E-04
CGA:   3    -0.366944269644E+03   -0.45975E-01   -0.46070E-01 10206   0.407E-01 0.395E-03
CGA:   4    -0.366950806723E+03   -0.65371E-02   -0.63810E-02 10206   0.129E-01-0.537E-03
CGA:   5    -0.366952798971E+03   -0.19922E-02   -0.20942E-02 10206   0.305E-02 0.385E-03
CGA:   6    -0.366953476145E+03   -0.67717E-03   -0.64237E-03 10206   0.128E-02-0.165E-03
CGA:   7    -0.366953692839E+03   -0.21669E-03   -0.24010E-03 10206   0.434E-03 0.113E-03
CGA:   8    -0.366953871758E+03   -0.17892E-03   -0.17395E-03 10206   0.617E-03-0.182E-03
CGA:   9    -0.366953892659E+03   -0.20901E-04   -0.42195E-04 10206   0.374E-03 0.771E-04
CGA:  10    -0.366953920147E+03   -0.27488E-04   -0.48690E-04 10206   0.172E-03 0.800E-04
CGA:  11    -0.366953984615E+03   -0.64469E-04   -0.49236E-04 10206   0.180E-03-0.116E-03
CGA:  12    -0.366953990285E+03   -0.56696E-05   -0.19765E-04 10206   0.398E-04 0.563E-04
CGA:  13    -0.366954007841E+03   -0.17556E-04   -0.21439E-04 10206   0.108E-03-0.626E-04
CGA:  14    -0.366954009733E+03   -0.18927E-05   -0.11975E-04 10206   0.222E-04 0.419E-04
  41 F= -.36695401E+03 E0= -.36695401E+03  d E =0.290196E-02  mag=    16.0000
       N       E                     dE             d eps       ncg     rms          ort
SDA:   1    -0.366629605978E+03    0.32440E+00    0.00000E+00 10206   0.766E+00 0.000E+00
CGA:   2    -0.366888778633E+03   -0.25917E+00   -0.25917E+00 10206   0.270E+00 0.613E-03
CGA:   3    -0.366937104982E+03   -0.48326E-01   -0.48249E-01 10206   0.759E-01-0.578E-03
CGA:   4    -0.366947994471E+03   -0.10889E-01   -0.10967E-01 10206   0.172E-01 0.447E-03
CGA:   5    -0.366951156139E+03   -0.31617E-02   -0.31050E-02 10206   0.557E-02-0.423E-03
CGA:   6    -0.366952068667E+03   -0.91253E-03   -0.93206E-03 10206   0.148E-02 0.144E-03
CGA:   7    -0.366952463901E+03   -0.39523E-03   -0.38456E-03 10206   0.835E-03-0.219E-03
CGA:   8    -0.366952571108E+03   -0.10721E-03   -0.12082E-03 10206   0.328E-03 0.106E-03
CGA:   9    -0.366952686548E+03   -0.11544E-03   -0.11968E-03 10206   0.354E-03-0.135E-03
CGA:  10    -0.366952717511E+03   -0.30963E-04   -0.32708E-04 10206   0.207E-03 0.128E-04
CGA:  11    -0.366952752958E+03   -0.35448E-04   -0.34830E-04 10206   0.952E-04-0.497E-05
CGA:  12    -0.366951515106E+03    0.12379E-02   -0.67502E-03 10206   0.816E-02-0.914E-03
CGA:  13    -0.366952331288E+03   -0.81618E-03   -0.99448E-03 10206   0.209E-02 0.521E-03
CGA:  14    -0.366952798383E+03   -0.46709E-03   -0.41350E-03 10206   0.228E-03-0.177E-03
CGA:  15    -0.366952818777E+03   -0.20394E-04   -0.36699E-04 10206   0.745E-04 0.540E-04
CGA:  16    -0.366952860686E+03   -0.41909E-04   -0.40711E-04 10206   0.167E-03-0.576E-04
CGA:  17    -0.366952856215E+03    0.44715E-05   -0.14024E-04 10206   0.339E-04 0.491E-04
  42 F= -.36695286E+03 E0= -.36695286E+03  d E =0.115352E-02  mag=    16.0000
       N       E                     dE             d eps       ncg     rms          ort
SDA:   1    -0.366897718376E+03    0.55142E-01    0.00000E+00 10206   0.150E+00 0.000E+00
CGA:   2    -0.366938671782E+03   -0.40953E-01   -0.41017E-01 10206   0.629E-01 0.400E-03
CGA:   3    -0.366949102546E+03   -0.10431E-01   -0.10270E-01 10206   0.276E-01-0.102E-02
CGA:   4    -0.366952894028E+03   -0.37915E-02   -0.39232E-02 10206   0.427E-02 0.613E-03
CGA:   5    -0.366953856658E+03   -0.96263E-03   -0.94225E-03 10206   0.129E-02-0.116E-03
CGA:   6    -0.366954061857E+03   -0.20520E-03   -0.22402E-03 10206   0.421E-03 0.914E-04
CGA:   7    -0.366954202955E+03   -0.14110E-03   -0.13358E-03 10206   0.373E-03-0.966E-04
CGA:   8    -0.366954218140E+03   -0.15185E-04   -0.36804E-04 10206   0.164E-03 0.893E-04
CGA:   9    -0.366954234268E+03   -0.16128E-04   -0.27748E-04 10206   0.864E-04 0.525E-04
CGA:  10    -0.366954271822E+03   -0.37554E-04   -0.35296E-04 10206   0.140E-03-0.595E-04
CGA:  11    -0.366954266579E+03    0.52437E-05   -0.11058E-04 10206   0.372E-04 0.612E-04
  43 F= -.36695427E+03 E0= -.36695427E+03  d E =-.141036E-02  mag=    16.0000
       N       E                     dE             d eps       ncg     rms          ort
SDA:   1    -0.366932968370E+03    0.21303E-01    0.00000E+00 10206   0.557E-01 0.000E+00
CGA:   2    -0.366948132546E+03   -0.15164E-01   -0.15171E-01 10206   0.301E-01 0.123E-03
CGA:   3    -0.366953064947E+03   -0.49324E-02   -0.49168E-02 10206   0.802E-02-0.103E-03
CGA:   4    -0.366954326982E+03   -0.12620E-02   -0.12812E-02 10206   0.216E-02 0.129E-03
CGA:   5    -0.366954699997E+03   -0.37301E-03   -0.37456E-03 10206   0.628E-03 0.114E-04
CGA:   6    -0.366954806852E+03   -0.10686E-03   -0.11198E-03 10206   0.170E-03 0.432E-04
CGA:   7    -0.366954836154E+03   -0.29303E-04   -0.33327E-04 10206   0.554E-04 0.377E-04
CGA:   8    -0.366954851735E+03   -0.15581E-04   -0.16007E-04 10206   0.255E-04 0.890E-05
CGA:   9    -0.366954851078E+03    0.65778E-06   -0.29127E-05 10206   0.137E-04 0.195E-04
  44 F= -.36695485E+03 E0= -.36695485E+03  d E =-.584499E-03  mag=    16.0000
       N       E                     dE             d eps       ncg     rms          ort
SDA:   1    -0.366931233770E+03    0.23618E-01    0.00000E+00 10206   0.558E-01 0.000E+00
CGA:   2    -0.366950078351E+03   -0.18845E-01   -0.18829E-01 10206   0.170E-01 0.198E-03
CGA:   3    -0.366953720174E+03   -0.36418E-02   -0.36403E-02 10206   0.373E-02-0.295E-04
CGA:   4    -0.366954265544E+03   -0.54537E-03   -0.54769E-03 10206   0.106E-02 0.186E-04
CGA:   5    -0.366954466857E+03   -0.20131E-03   -0.19749E-03 10206   0.299E-03-0.519E-04
CGA:   6    -0.366954512584E+03   -0.45727E-04   -0.47481E-04 10206   0.840E-04 0.197E-04
CGA:   7    -0.366954533799E+03   -0.21215E-04   -0.21201E-04 10206   0.349E-04-0.897E-06
CGA:   8    -0.366954542494E+03   -0.86946E-05   -0.86943E-05 10206   0.180E-04 0.606E-06
  45 F= -.36695454E+03 E0= -.36695454E+03  d E =0.308584E-03  mag=    16.0000
