       N       E                     dE             d eps       ncg     rms          ort
DAV:   1     0.229354595780E+04    0.22935E+04   -0.13633E+05 10080   0.152E+03
DAV:   2    -0.225893801491E+03   -0.25194E+04   -0.24259E+04 10080   0.401E+02
DAV:   3    -0.446402106514E+03   -0.22051E+03   -0.21560E+03 10080   0.138E+02
DAV:   4    -0.455540490804E+03   -0.91384E+01   -0.89476E+01 10080   0.304E+01
DAV:   5    -0.456020298876E+03   -0.47981E+00   -0.47617E+00 10080   0.468E+00
SDA:   6    -0.281944818410E+03    0.17408E+03   -0.47617E+00 10080   0.577E+03 0.000E+00
CGA:   7    -0.323077946327E+03   -0.41133E+02   -0.52635E+02 10080   0.271E+03 0.212E+02
CGA:   8    -0.335552112166E+03   -0.12474E+02   -0.17175E+02 10080   0.240E+03 0.112E+03
CGA:   9    -0.332001122891E+03    0.35510E+01   -0.22609E+02 10080   0.446E+03 0.147E+01
CGA:  10    -0.335484373204E+03   -0.34833E+01   -0.11697E+02 10080   0.193E+03-0.208E+03
CGA:  11    -0.339404771212E+03   -0.39204E+01   -0.53444E+01 10080   0.102E+03-0.578E+02
CGA:  12    -0.344867280559E+03   -0.54625E+01   -0.35285E+01 10080   0.768E+02 0.381E+02
CGA:  13    -0.341249327101E+03    0.36180E+01   -0.60612E+01 10080   0.237E+03-0.509E+02
CGA:  14    -0.342347248212E+03   -0.10979E+01   -0.15769E+02 10080   0.480E+03-0.170E+03
CGA:  15    -0.342986883591E+03   -0.63964E+00   -0.34295E+02 10080   0.102E+03-0.353E+02
CGA:  16    -0.349207465228E+03   -0.62206E+01   -0.50142E+01 10080   0.121E+03 0.321E+02
CGA:  17    -0.337985108980E+03    0.11222E+02   -0.77939E+01 10080   0.176E+03-0.770E+02
CGA:  18    -0.348763584132E+03   -0.10778E+02   -0.43363E+01 10080   0.117E+03 0.215E+03
CGA:  19    -0.346045564987E+03    0.27180E+01   -0.63108E+01 10080   0.109E+03-0.301E+02
CGA:  20    -0.349868397740E+03   -0.38228E+01   -0.43351E+01 10080   0.340E+02-0.196E+02
CGA:  21    -0.351114441240E+03   -0.12460E+01   -0.49564E+00 10080   0.720E+02 0.571E+02
CGA:  22    -0.350807860423E+03    0.30658E+00   -0.20856E+01 10080   0.191E+03-0.169E+03
CGA:  23    -0.349828122578E+03    0.97974E+00   -0.10047E+02 10080   0.349E+02-0.192E+02
CGA:  24    -0.350603788482E+03   -0.77567E+00   -0.52445E+00 10080   0.339E+02 0.216E+02
CGA:  25    -0.352685674042E+03   -0.20819E+01   -0.52863E+00 10080   0.292E+02 0.701E+02
CGA:  26    -0.353070173606E+03   -0.38450E+00   -0.40372E+00 10080   0.241E+01-0.514E+01
CGA:  27    -0.353117976993E+03   -0.47803E-01   -0.43127E-01 10080   0.844E+00 0.186E+00
CGA:  28    -0.353227436835E+03   -0.10946E+00   -0.10925E+00 10080   0.526E+01 0.992E-03
CGA:  29    -0.353253510096E+03   -0.26073E-01   -0.14548E+00 10080   0.741E+01-0.102E+02
CGA:  30    -0.353301658604E+03   -0.48149E-01   -0.17315E+00 10080   0.517E+01-0.456E+01
CGA:  31    -0.353368822638E+03   -0.67164E-01   -0.53499E-01 10080   0.680E+00 0.125E+01
CGA:  32    -0.353386171693E+03   -0.17349E-01   -0.15938E-01 10080   0.883E+00 0.797E-01
CGA:  33    -0.353446382668E+03   -0.60211E-01   -0.57184E-01 10080   0.502E+01-0.252E-01
CGA:  34    -0.353495465747E+03   -0.49083E-01   -0.82901E-01 10080   0.585E+01-0.270E+01
CGA:  35    -0.353555707862E+03   -0.60242E-01   -0.94702E-01 10080   0.149E+01-0.194E+01
CGA:  36    -0.353597129377E+03   -0.41422E-01   -0.45616E-01 10080   0.102E+01-0.380E-01
CGA:  37    -0.353627598976E+03   -0.30470E-01   -0.35665E-01 10080   0.800E+00-0.960E-01
CGA:  38    -0.353655785976E+03   -0.28187E-01   -0.30261E-01 10080   0.681E+00-0.459E-01
CGA:  39    -0.353675014129E+03   -0.19228E-01   -0.20367E-01 10080   0.331E+00-0.199E-01
CGA:  40    -0.353688951350E+03   -0.13937E-01   -0.14116E-01 10080   0.290E+00-0.159E-01
CGA:  41    -0.353707324181E+03   -0.18373E-01   -0.18373E-01 10080   0.417E+00-0.938E-02
CGA:  42    -0.353729222226E+03   -0.21898E-01   -0.22418E-01 10080   0.340E+00-0.583E-02
CGA:  43    -0.353739850102E+03   -0.10628E-01   -0.10170E-01 10080   0.914E-01 0.245E-02
CGA:  44    -0.353747783691E+03   -0.79336E-02   -0.80832E-02 10080   0.220E+00-0.108E-01
CGA:  45    -0.353762544131E+03   -0.14760E-01   -0.15323E-01 10080   0.179E+00-0.341E-01
CGA:  46    -0.353769292447E+03   -0.67483E-02   -0.68272E-02 10080   0.514E-01-0.199E-01
CGA:  47    -0.353771615947E+03   -0.23235E-02   -0.22776E-02 10080   0.330E-01-0.447E-02
CGA:  48    -0.353776251655E+03   -0.46357E-02   -0.70902E-02 10080   0.175E+00-0.116E-01
CGA:  49    -0.353782485279E+03   -0.62336E-02   -0.59361E-02 10080   0.273E-01-0.173E-01
CGA:  50    -0.353783867344E+03   -0.13821E-02   -0.13029E-02 10080   0.258E-01-0.500E-02
CGA:  51    -0.353786992795E+03   -0.31255E-02   -0.35390E-02 10080   0.346E-01-0.382E-02
CGA:  52    -0.353787879669E+03   -0.88687E-03   -0.94056E-03 10080   0.779E-02 0.134E-02
CGA:  53    -0.353788612473E+03   -0.73280E-03   -0.71928E-03 10080   0.206E-01 0.859E-03
CGA:  54    -0.353791170837E+03   -0.25584E-02   -0.25397E-02 10080   0.103E-01 0.599E-03
CGA:  55    -0.353791535221E+03   -0.36438E-03   -0.38773E-03 10080   0.520E-02 0.522E-03
CGA:  56    -0.353792243460E+03   -0.70824E-03   -0.60406E-03 10080   0.731E-02 0.286E-02
CGA:  57    -0.353792490936E+03   -0.24748E-03   -0.25518E-03 10080   0.201E-02 0.114E-03
CGA:  58    -0.353792792922E+03   -0.30199E-03   -0.24269E-03 10080   0.109E-02 0.132E-02
CGA:  59    -0.353792840296E+03   -0.47374E-04   -0.58672E-04 10080   0.102E-02 0.504E-03
CGA:  60    -0.353793030062E+03   -0.18977E-03   -0.15429E-03 10080   0.748E-03 0.125E-02
CGA:  61    -0.353793102587E+03   -0.72524E-04   -0.70442E-04 10080   0.159E-02 0.114E-03
CGA:  62    -0.353793329525E+03   -0.22694E-03   -0.18873E-03 10080   0.648E-03 0.148E-02
CGA:  63    -0.353793341240E+03   -0.11715E-04   -0.24095E-04 10080   0.421E-03 0.298E-03
CGA:  64    -0.353793389285E+03   -0.48045E-04   -0.47584E-04 10080   0.705E-03 0.522E-03
CGA:  65    -0.353793441972E+03   -0.52687E-04   -0.51963E-04 10080   0.136E-02-0.253E-03
CGA:  66    -0.353793565872E+03   -0.12390E-03   -0.98743E-04 10080   0.266E-02 0.679E-03
CGA:  67    -0.353793608353E+03   -0.42481E-04   -0.66848E-04 10080   0.286E-03 0.466E-03
CGA:  68    -0.353793613181E+03   -0.48276E-05   -0.12767E-04 10080   0.342E-03 0.210E-03
CGA:  69    -0.353793646426E+03   -0.33245E-04   -0.71742E-04 10080   0.378E-02-0.285E-03
CGA:  70    -0.353793712526E+03   -0.66099E-04   -0.94492E-04 10080   0.259E-03 0.529E-03
CGA:  71    -0.353793716079E+03   -0.35535E-05   -0.10890E-04 10080   0.282E-03 0.179E-03
CGA:  72    -0.353793722172E+03   -0.60932E-05   -0.87223E-04 10080   0.598E-02-0.349E-03
CGA:  73    -0.353793836792E+03   -0.11462E-03   -0.15043E-03 10080   0.230E-03 0.625E-03
CGA:  74    -0.353793839206E+03   -0.24138E-05   -0.94063E-05 10080   0.228E-03 0.147E-03
CGA:  75    -0.353793734017E+03    0.10519E-03   -0.64037E-04 10080   0.127E-01-0.511E-03
CGA:  76    -0.353794006477E+03   -0.27246E-03   -0.32867E-03 10080   0.194E-03 0.806E-03
CGA:  77    -0.353794007248E+03   -0.77089E-06   -0.98216E-05 10080   0.206E-03 0.940E-04
CGA:  78    -0.353794131335E+03   -0.12409E-03   -0.87039E-04 10080   0.551E-03 0.252E-03
CGA:  79    -0.353794176700E+03   -0.45365E-04   -0.26715E-04 10080   0.363E-03-0.196E-03
CGA:  80    -0.353794259716E+03   -0.83016E-04   -0.61391E-04 10080   0.167E-03 0.177E-03
CGA:  81    -0.353794294765E+03   -0.35049E-04   -0.35035E-04 10080   0.985E-03-0.569E-05
CGA:  82    -0.353794493456E+03   -0.19869E-03   -0.18636E-03 10080   0.745E-02 0.171E-03
CGA:  83    -0.353794696616E+03   -0.20316E-03   -0.12029E-03 10080   0.374E-02 0.594E-02
CGA:  84    -0.353794800508E+03   -0.10389E-03   -0.10980E-03 10080   0.410E-03 0.183E-04
CGA:  85    -0.353794842349E+03   -0.41841E-04   -0.44170E-04 10080   0.141E-03 0.781E-04
CGA:  86    -0.353794853736E+03   -0.11386E-04   -0.92609E-05 10080   0.115E-03-0.274E-04
CGA:  87    -0.353794870481E+03   -0.16746E-04   -0.22998E-04 10080   0.253E-03-0.539E-04
CGA:  88    -0.353794887285E+03   -0.16804E-04   -0.14765E-04 10080   0.508E-03-0.765E-04
CGA:  89    -0.353795015716E+03   -0.12843E-03    0.72309E-04 10080   0.345E-03 0.123E-03
CGA:  90    -0.353795136160E+03   -0.12044E-03    0.80714E-03 10080   0.492E-03 0.120E-03
CGA:  91    -0.353795217046E+03   -0.80886E-04   -0.72511E-04 10080   0.972E-03-0.367E-03
CGA:  92    -0.353795243350E+03   -0.26303E-04   -0.27351E-04 10080   0.753E-04 0.357E-05
CGA:  93    -0.353795244971E+03   -0.16213E-05   -0.49707E-05 10080   0.467E-04 0.527E-04
   1 F= -.35379524E+03 E0= -.35378836E+03  d E =-.353795E+03  mag=    10.0000
       N       E                     dE             d eps       ncg     rms          ort
SDA:   1    -0.353805951111E+03   -0.10708E-01    0.00000E+00 10080   0.612E-02 0.000E+00
CGA:   2    -0.353806189589E+03   -0.23848E-03   -0.23384E-03 10080   0.242E-02-0.499E-04
CGA:   3    -0.353806768732E+03   -0.57914E-03   -0.59747E-03 10080   0.108E-02-0.140E-03
CGA:   4    -0.353806806993E+03   -0.38261E-04   -0.46276E-04 10080   0.654E-03 0.102E-03
CGA:   5    -0.353806909616E+03   -0.10262E-03   -0.10265E-03 10080   0.204E-03-0.176E-05
CGA:   6    -0.353806932286E+03   -0.22671E-04   -0.15921E-04 10080   0.417E-03-0.158E-03
CGA:   7    -0.353806934427E+03   -0.21403E-05   -0.10223E-04 10080   0.466E-04 0.841E-04
   2 F= -.35380693E+03 E0= -.35380001E+03  d E =-.116895E-01  mag=    10.0000
       N       E                     dE             d eps       ncg     rms          ort
SDA:   1    -0.353341819371E+03    0.46511E+00    0.00000E+00 10080   0.252E+01 0.000E+00
CGA:   2    -0.353499615367E+03   -0.15780E+00   -0.16448E+00 10080   0.303E+01-0.355E-01
CGA:   3    -0.353910435849E+03   -0.41082E+00   -0.41117E+00 10080   0.513E+00-0.976E-02
CGA:   4    -0.353959505248E+03   -0.49069E-01   -0.48880E-01 10080   0.873E+00-0.285E-02
CGA:   5    -0.354019846652E+03   -0.60341E-01   -0.60641E-01 10080   0.896E-01-0.286E-02
CGA:   6    -0.354025651646E+03   -0.58050E-02   -0.57612E-02 10080   0.922E-01-0.157E-02
CGA:   7    -0.354036570545E+03   -0.10919E-01   -0.10899E-01 10080   0.152E-01 0.126E-02
CGA:   8    -0.354037887326E+03   -0.13168E-02   -0.13192E-02 10080   0.247E-01 0.158E-03
CGA:   9    -0.354040640168E+03   -0.27528E-02   -0.27560E-02 10080   0.479E-02-0.578E-03
CGA:  10    -0.354041403932E+03   -0.76376E-03   -0.75159E-03 10080   0.104E-01 0.214E-03
CGA:  11    -0.354042088491E+03   -0.68456E-03   -0.67010E-03 10080   0.211E-02-0.376E-03
CGA:  12    -0.354042291450E+03   -0.20296E-03   -0.20327E-03 10080   0.317E-02 0.571E-04
CGA:  13    -0.354042603033E+03   -0.31158E-03   -0.31407E-03 10080   0.958E-03 0.277E-03
CGA:  14    -0.354042680233E+03   -0.77200E-04   -0.76124E-04 10080   0.101E-02-0.357E-04
CGA:  15    -0.354042794825E+03   -0.11459E-03   -0.11221E-03 10080   0.348E-03 0.190E-03
CGA:  16    -0.354042816852E+03   -0.22027E-04   -0.26543E-04 10080   0.333E-03 0.113E-03
CGA:  17    -0.354042911968E+03   -0.95115E-04   -0.92489E-04 10080   0.477E-03 0.220E-04
CGA:  18    -0.354042926376E+03   -0.14408E-04   -0.21601E-04 10080   0.160E-03 0.108E-03
CGA:  19    -0.354042958762E+03   -0.32386E-04   -0.27438E-04 10080   0.224E-03 0.136E-03
CGA:  20    -0.354042981029E+03   -0.22267E-04   -0.18872E-04 10080   0.612E-03-0.158E-03
CGA:  21    -0.354042988074E+03   -0.70452E-05   -0.15418E-04 10080   0.792E-04 0.106E-03
   3 F= -.35404299E+03 E0= -.35403606E+03  d E =-.236054E+00  mag=    10.0000
       N       E                     dE             d eps       ncg     rms          ort
SDA:   1    -0.353339502900E+03    0.70348E+00    0.00000E+00 10080   0.330E+01 0.000E+00
CGA:   2    -0.353499676831E+03   -0.16017E+00   -0.16405E+00 10080   0.284E+01-0.444E-01
CGA:   3    -0.353977053196E+03   -0.47738E+00   -0.47789E+00 10080   0.505E+00-0.743E-02
CGA:   4    -0.354048650919E+03   -0.71598E-01   -0.71566E-01 10080   0.101E+01 0.163E-03
CGA:   5    -0.354096750824E+03   -0.48100E-01   -0.48226E-01 10080   0.841E-01-0.311E-02
CGA:   6    -0.354105176814E+03   -0.84260E-02   -0.84279E-02 10080   0.131E+00-0.193E-02
CGA:   7    -0.354115042695E+03   -0.98659E-02   -0.98975E-02 10080   0.159E-01 0.163E-02
CGA:   8    -0.354116830263E+03   -0.17876E-02   -0.17791E-02 10080   0.335E-01 0.618E-03
CGA:   9    -0.354119545390E+03   -0.27151E-02   -0.27030E-02 10080   0.563E-02-0.593E-03
CGA:  10    -0.354120408645E+03   -0.86326E-03   -0.85411E-03 10080   0.137E-01 0.149E-03
CGA:  11    -0.354121228892E+03   -0.82025E-03   -0.82040E-03 10080   0.219E-02 0.305E-04
CGA:  12    -0.354121515299E+03   -0.28641E-03   -0.28605E-03 10080   0.523E-02 0.424E-05
CGA:  13    -0.354121911778E+03   -0.39648E-03   -0.40292E-03 10080   0.835E-03 0.273E-03
CGA:  14    -0.354122000972E+03   -0.89195E-04   -0.88976E-04 10080   0.157E-02 0.799E-04
CGA:  15    -0.354122180514E+03   -0.17954E-03   -0.17860E-03 10080   0.492E-03 0.176E-03
CGA:  16    -0.354122223501E+03   -0.42987E-04   -0.43160E-04 10080   0.784E-03 0.537E-05
CGA:  17    -0.354122348898E+03   -0.12540E-03   -0.11658E-03 10080   0.259E-03 0.171E-03
CGA:  18    -0.354122379526E+03   -0.30628E-04   -0.30953E-04 10080   0.409E-03 0.147E-03
CGA:  19    -0.354122409092E+03   -0.29566E-04   -0.23687E-04 10080   0.526E-03-0.142E-03
CGA:  20    -0.354122496588E+03   -0.87496E-04   -0.87943E-04 10080   0.869E-03-0.718E-05
CGA:  21    -0.354122507076E+03   -0.10488E-04   -0.23620E-04 10080   0.163E-03 0.164E-03
CGA:  22    -0.354122511394E+03   -0.43172E-05   -0.92097E-05 10080   0.213E-03 0.888E-04
CGA:  23    -0.354122521444E+03   -0.10051E-04   -0.35891E-04 10080   0.244E-02-0.379E-03
CGA:  24    -0.354122560039E+03   -0.38594E-04   -0.60120E-04 10080   0.936E-04 0.292E-03
CGA:  25    -0.354122559304E+03    0.73462E-06   -0.29880E-05 10080   0.640E-04 0.525E-04
CGA:  26    -0.354122573140E+03   -0.13836E-04    0.23144E-04 10080   0.814E-04 0.456E-04
CGA:  27    -0.354122573473E+03   -0.33263E-06   -0.29145E-05 10080   0.555E-04 0.430E-04
CGA:  28    -0.354122584942E+03   -0.11469E-04    0.22013E-04 10080   0.712E-04 0.413E-04
CGA:  29    -0.354122585579E+03   -0.63709E-06   -0.27177E-05 10080   0.526E-04 0.381E-04
CGA:  30    -0.354122596138E+03   -0.10560E-04    0.19829E-04 10080   0.740E-04 0.352E-04
CGA:  31    -0.354122596657E+03   -0.51817E-06   -0.25470E-05 10080   0.484E-04 0.364E-04
   4 F= -.35412260E+03 E0= -.35411565E+03  d E =-.796086E-01  mag=    10.0000
       N       E                     dE             d eps       ncg     rms          ort
SDA:   1    -0.354103543445E+03    0.19053E-01    0.00000E+00 10080   0.255E+00 0.000E+00
CGA:   2    -0.354110996304E+03   -0.74529E-02   -0.72817E-02 10080   0.363E-01 0.120E-01
CGA:   3    -0.354120687486E+03   -0.96912E-02   -0.93773E-02 10080   0.540E-01 0.192E-02
CGA:   4    -0.354122677094E+03   -0.19896E-02   -0.19876E-02 10080   0.101E-01-0.179E-02
CGA:   5    -0.354124605654E+03   -0.19286E-02   -0.19036E-02 10080   0.354E-02 0.232E-03
CGA:   6    -0.354124823818E+03   -0.21816E-03   -0.19805E-03 10080   0.287E-02-0.523E-03
CGA:   7    -0.354125099911E+03   -0.27609E-03   -0.27766E-03 10080   0.112E-02-0.826E-04
CGA:   8    -0.354125128712E+03   -0.28801E-04   -0.37854E-04 10080   0.332E-03 0.150E-03
CGA:   9    -0.354125191863E+03   -0.63152E-04   -0.57883E-04 10080   0.534E-03 0.845E-04
CGA:  10    -0.354125224217E+03   -0.32354E-04   -0.33024E-04 10080   0.171E-03 0.127E-04
CGA:  11    -0.354125235399E+03   -0.11182E-04   -0.12343E-04 10080   0.161E-03 0.520E-04
CGA:  12    -0.354125249701E+03   -0.14301E-04   -0.15675E-04 10080   0.905E-04 0.810E-04
CGA:  13    -0.354125255907E+03   -0.62057E-05   -0.59376E-05 10080   0.111E-03-0.112E-04
CGA:  14    -0.354125245067E+03    0.10840E-04   -0.12899E-04 10080   0.959E-03-0.138E-03
CGA:  15    -0.354125259316E+03   -0.14250E-04   -0.29486E-04 10080   0.224E-03 0.117E-03
CGA:  16    -0.354125289051E+03   -0.29734E-04   -0.31739E-04 10080   0.244E-03 0.661E-04
CGA:  17    -0.354125318626E+03   -0.29575E-04   -0.20123E-04 10080   0.158E-03-0.106E-03
CGA:  18    -0.354125318177E+03    0.44945E-06   -0.29779E-05 10080   0.656E-04 0.291E-04
   5 F= -.35412532E+03 E0= -.35411838E+03  d E =-.272152E-02  mag=    10.0000
       N       E                     dE             d eps       ncg     rms          ort
SDA:   1    -0.354087839630E+03    0.37479E-01    0.00000E+00 10080   0.112E+00 0.000E+00
CGA:   2    -0.354103002897E+03   -0.15163E-01   -0.15160E-01 10080   0.242E+00-0.105E-02
CGA:   3    -0.354120027587E+03   -0.17025E-01   -0.17180E-01 10080   0.356E-01 0.111E-02
CGA:   4    -0.354122896155E+03   -0.28686E-02   -0.29178E-02 10080   0.453E-01 0.117E-02
CGA:   5    -0.354126279664E+03   -0.33835E-02   -0.33341E-02 10080   0.549E-02-0.105E-02
CGA:   6    -0.354126727721E+03   -0.44806E-03   -0.44561E-03 10080   0.789E-02-0.582E-04
CGA:   7    -0.354127241925E+03   -0.51420E-03   -0.51221E-03 10080   0.970E-03-0.501E-04
CGA:   8    -0.354127361574E+03   -0.11965E-03   -0.11981E-03 10080   0.254E-02-0.266E-03
CGA:   9    -0.354127452683E+03   -0.91109E-04   -0.10034E-03 10080   0.797E-03 0.132E-03
CGA:  10    -0.354127460275E+03   -0.75915E-05   -0.20875E-04 10080   0.242E-03 0.141E-03
CGA:  11    -0.354127466496E+03   -0.62212E-05   -0.13540E-04 10080   0.317E-03 0.107E-03
CGA:  12    -0.354127502443E+03   -0.35947E-04   -0.37884E-04 10080   0.262E-03 0.658E-04
CGA:  13    -0.354127516125E+03   -0.13683E-04   -0.12518E-04 10080   0.704E-04-0.174E-04
CGA:  14    -0.354127518797E+03   -0.26715E-05   -0.43425E-05 10080   0.683E-04 0.406E-04
   6 F= -.35412752E+03 E0= -.35412055E+03  d E =-.220062E-02  mag=    10.0000
       N       E                     dE             d eps       ncg     rms          ort
SDA:   1    -0.354074764295E+03    0.52752E-01    0.00000E+00 10080   0.585E+00 0.000E+00
CGA:   2    -0.354091905979E+03   -0.17142E-01   -0.18450E-01 10080   0.126E+00-0.383E-01
CGA:   3    -0.354114730722E+03   -0.22825E-01   -0.22594E-01 10080   0.181E+00 0.239E-02
CGA:   4    -0.354122108701E+03   -0.73780E-02   -0.73828E-02 10080   0.326E-01-0.142E-02
CGA:   5    -0.354125475423E+03   -0.33667E-02   -0.33680E-02 10080   0.431E-01-0.788E-03
CGA:   6    -0.354127621409E+03   -0.21460E-02   -0.21871E-02 10080   0.351E-02 0.862E-03
CGA:   7    -0.354128053356E+03   -0.43195E-03   -0.44897E-03 10080   0.823E-02-0.676E-03
CGA:   8    -0.354128395390E+03   -0.34203E-03   -0.34802E-03 10080   0.122E-02 0.115E-03
CGA:   9    -0.354128419642E+03   -0.24252E-04   -0.38891E-04 10080   0.543E-03 0.219E-03
CGA:  10    -0.354128469969E+03   -0.50327E-04   -0.52490E-04 10080   0.800E-03 0.160E-03
CGA:  11    -0.354128543634E+03   -0.73664E-04   -0.68871E-04 10080   0.292E-03-0.173E-03
CGA:  12    -0.354128546941E+03   -0.33072E-05   -0.72228E-05 10080   0.138E-03 0.629E-04
   7 F= -.35412855E+03 E0= -.35412155E+03  d E =-.102814E-02  mag=    10.0000
       N       E                     dE             d eps       ncg     rms          ort
SDA:   1    -0.353843429908E+03    0.28511E+00    0.00000E+00 10080   0.913E+00 0.000E+00
CGA:   2    -0.353917472641E+03   -0.74043E-01   -0.74185E-01 10080   0.161E+01 0.994E-02
CGA:   3    -0.354075470724E+03   -0.15800E+00   -0.15803E+00 10080   0.309E+00-0.255E-02
CGA:   4    -0.354096385441E+03   -0.20915E-01   -0.20991E-01 10080   0.329E+00-0.315E-03
CGA:   5    -0.354121397912E+03   -0.25012E-01   -0.25016E-01 10080   0.468E-01 0.867E-03
CGA:   6    -0.354124429530E+03   -0.30316E-02   -0.30031E-02 10080   0.398E-01-0.208E-02
CGA:   7    -0.354128191284E+03   -0.37618E-02   -0.37543E-02 10080   0.731E-02 0.526E-03
CGA:   8    -0.354128590180E+03   -0.39890E-03   -0.40092E-03 10080   0.677E-02 0.602E-04
CGA:   9    -0.354129462767E+03   -0.87259E-03   -0.88894E-03 10080   0.162E-02-0.362E-03
CGA:  10    -0.354129529960E+03   -0.67193E-04   -0.75851E-04 10080   0.113E-02 0.230E-03
CGA:  11    -0.354129756506E+03   -0.22655E-03   -0.22250E-03 10080   0.594E-03 0.451E-04
CGA:  12    -0.354129791112E+03   -0.34606E-04   -0.33814E-04 10080   0.468E-03-0.254E-04
CGA:  13    -0.354129879025E+03   -0.87913E-04   -0.94797E-04 10080   0.827E-03-0.565E-04
CGA:  14    -0.354129900030E+03   -0.21005E-04   -0.23945E-04 10080   0.140E-03 0.476E-04
CGA:  15    -0.354129921010E+03   -0.20980E-04   -0.19884E-04 10080   0.430E-03 0.249E-04
CGA:  16    -0.354129963967E+03   -0.42957E-04   -0.41294E-04 10080   0.164E-03-0.150E-03
CGA:  17    -0.354129970237E+03   -0.62708E-05   -0.48517E-05 10080   0.748E-04-0.304E-04
   8 F= -.35412997E+03 E0= -.35412294E+03  d E =-.142330E-02  mag=    10.0000
       N       E                     dE             d eps       ncg     rms          ort
SDA:   1    -0.353996817305E+03    0.13315E+00    0.00000E+00 10080   0.520E+00 0.000E+00
CGA:   2    -0.354031012513E+03   -0.34195E-01   -0.34164E-01 10080   0.636E+00 0.160E-02
CGA:   3    -0.354090047510E+03   -0.59035E-01   -0.59027E-01 10080   0.272E+00 0.151E-02
CGA:   4    -0.354104856015E+03   -0.14809E-01   -0.14886E-01 10080   0.171E+00-0.377E-02
CGA:   5    -0.354125470952E+03   -0.20615E-01   -0.20556E-01 10080   0.202E-01 0.175E-02
CGA:   6    -0.354127758545E+03   -0.22876E-02   -0.23109E-02 10080   0.329E-01-0.109E-02
CGA:   7    -0.354129237698E+03   -0.14792E-02   -0.15018E-02 10080   0.423E-02 0.528E-03
CGA:   8    -0.354129461854E+03   -0.22416E-03   -0.23895E-03 10080   0.340E-02 0.439E-03
CGA:   9    -0.354129997206E+03   -0.53535E-03   -0.56752E-03 10080   0.232E-02-0.508E-03
CGA:  10    -0.354130053325E+03   -0.56119E-04   -0.62106E-04 10080   0.698E-03 0.996E-04
CGA:  11    -0.354130125932E+03   -0.72607E-04   -0.70940E-04 10080   0.130E-02 0.167E-03
CGA:  12    -0.354130231488E+03   -0.10556E-03   -0.10114E-03 10080   0.392E-03-0.179E-03
CGA:  13    -0.354130253542E+03   -0.22054E-04   -0.21406E-04 10080   0.305E-03-0.294E-04
CGA:  14    -0.354130283109E+03   -0.29567E-04   -0.28639E-04 10080   0.238E-03 0.582E-04
CGA:  15    -0.354130305018E+03   -0.21909E-04   -0.20990E-04 10080   0.335E-03-0.758E-04
CGA:  16    -0.354130321362E+03   -0.16344E-04   -0.16268E-04 10080   0.103E-03-0.565E-05
CGA:  17    -0.354130323001E+03   -0.16392E-05   -0.28707E-05 10080   0.555E-04 0.214E-04
   9 F= -.35413032E+03 E0= -.35412326E+03  d E =-.352764E-03  mag=    10.0000
       N       E                     dE             d eps       ncg     rms          ort
SDA:   1    -0.354114461804E+03    0.15860E-01    0.00000E+00 10080   0.371E+00 0.000E+00
CGA:   2    -0.354123556431E+03   -0.90946E-02   -0.92538E-02 10080   0.198E-01 0.109E-02
CGA:   3    -0.354127806939E+03   -0.42505E-02   -0.41291E-02 10080   0.470E-01 0.916E-03
CGA:   4    -0.354129898158E+03   -0.20912E-02   -0.20713E-02 10080   0.614E-02-0.125E-02
CGA:   5    -0.354130721014E+03   -0.82286E-03   -0.81302E-03 10080   0.830E-02 0.180E-03
CGA:   6    -0.354131145434E+03   -0.42442E-03   -0.42404E-03 10080   0.107E-02-0.817E-04
CGA:   7    -0.354131227751E+03   -0.82317E-04   -0.82750E-04 10080   0.114E-02 0.527E-04
CGA:   8    -0.354131334471E+03   -0.10672E-03   -0.10719E-03 10080   0.671E-03-0.109E-03
CGA:   9    -0.354131361568E+03   -0.27097E-04   -0.26927E-04 10080   0.173E-03-0.631E-05
CGA:  10    -0.354131376592E+03   -0.15025E-04   -0.14850E-04 10080   0.141E-03 0.528E-04
CGA:  11    -0.354131360890E+03    0.15702E-04   -0.48972E-04 10080   0.252E-02-0.355E-03
CGA:  12    -0.354131405164E+03   -0.44274E-04   -0.60235E-04 10080   0.892E-04 0.233E-03
CGA:  13    -0.354131406814E+03   -0.16504E-05   -0.38716E-05 10080   0.678E-04 0.447E-04
CGA:  14    -0.354131419349E+03   -0.12535E-04    0.45697E-04 10080   0.125E-03-0.110E-04
CGA:  15    -0.354131425749E+03   -0.63996E-05   -0.67695E-05 10080   0.278E-04 0.166E-04
  10 F= -.35413143E+03 E0= -.35412436E+03  d E =-.110275E-02  mag=    10.0000
       N       E                     dE             d eps       ncg     rms          ort
SDA:   1    -0.354129820476E+03    0.15989E-02    0.00000E+00 10080   0.938E-02 0.000E+00
CGA:   2    -0.354130270171E+03   -0.44969E-03   -0.42240E-03 10080   0.593E-02-0.899E-03
CGA:   3    -0.354131130787E+03   -0.86062E-03   -0.85608E-03 10080   0.259E-02 0.522E-04
CGA:   4    -0.354131245338E+03   -0.11455E-03   -0.12204E-03 10080   0.118E-02 0.185E-03
CGA:   5    -0.354131428570E+03   -0.18323E-03   -0.18838E-03 10080   0.647E-03-0.780E-04
CGA:   6    -0.354131445107E+03   -0.16538E-04   -0.18334E-04 10080   0.152E-03 0.312E-04
CGA:   7    -0.354131466985E+03   -0.21877E-04   -0.20372E-04 10080   0.130E-03 0.336E-04
CGA:   8    -0.354131476609E+03   -0.96240E-05   -0.77714E-05 10080   0.924E-04-0.517E-04
  11 F= -.35413148E+03 E0= -.35412440E+03  d E =-.508601E-04  mag=    10.0000
       N       E                     dE             d eps       ncg     rms          ort
SDA:   1    -0.354108128996E+03    0.23338E-01    0.00000E+00 10080   0.128E+00 0.000E+00
CGA:   2    -0.354113745468E+03   -0.56165E-02   -0.56203E-02 10080   0.804E-01-0.224E-02
CGA:   3    -0.354124605884E+03   -0.10860E-01   -0.10925E-01 10080   0.805E-01-0.125E-02
CGA:   4    -0.354127735180E+03   -0.31293E-02   -0.31844E-02 10080   0.177E-01 0.140E-02
CGA:   5    -0.354130959107E+03   -0.32239E-02   -0.32376E-02 10080   0.251E-02-0.147E-03
CGA:   6    -0.354131327561E+03   -0.36845E-03   -0.38037E-03 10080   0.479E-02-0.188E-03
CGA:   7    -0.354131462678E+03   -0.13512E-03   -0.14630E-03 10080   0.449E-03 0.190E-03
CGA:   8    -0.354131487906E+03   -0.25228E-04   -0.28358E-04 10080   0.571E-03 0.113E-03
CGA:   9    -0.354131558813E+03   -0.70907E-04   -0.72702E-04 10080   0.302E-03-0.121E-03
CGA:  10    -0.354131573825E+03   -0.15012E-04   -0.11408E-04 10080   0.169E-03-0.921E-04
CGA:  11    -0.354131591707E+03   -0.17883E-04   -0.20474E-04 10080   0.155E-03-0.294E-04
CGA:  12    -0.354131600385E+03   -0.86776E-05   -0.66213E-05 10080   0.891E-04-0.548E-04
  12 F= -.35413160E+03 E0= -.35412452E+03  d E =-.123776E-03  mag=    10.0000
       N       E                     dE             d eps       ncg     rms          ort
SDA:   1    -0.354038694677E+03    0.92897E-01    0.00000E+00 10080   0.271E+00 0.000E+00
CGA:   2    -0.354074018744E+03   -0.35324E-01   -0.35477E-01 10080   0.634E+00-0.350E-02
CGA:   3    -0.354110868183E+03   -0.36849E-01   -0.37081E-01 10080   0.990E-01-0.275E-02
CGA:   4    -0.354122345901E+03   -0.11478E-01   -0.11451E-01 10080   0.133E+00 0.102E-02
CGA:   5    -0.354128687100E+03   -0.63412E-02   -0.63317E-02 10080   0.159E-01-0.103E-02
CGA:   6    -0.354129774214E+03   -0.10871E-02   -0.10680E-02 10080   0.180E-01-0.948E-03
CGA:   7    -0.354131117779E+03   -0.13436E-02   -0.13494E-02 10080   0.165E-02 0.601E-03
CGA:   8    -0.354131382961E+03   -0.26518E-03   -0.25469E-03 10080   0.301E-02 0.171E-03
CGA:   9    -0.354131577038E+03   -0.19408E-03   -0.17950E-03 10080   0.641E-03-0.406E-03
CGA:  10    -0.354131612522E+03   -0.35484E-04   -0.37658E-04 10080   0.366E-03 0.976E-04
CGA:  11    -0.354131642266E+03   -0.29744E-04   -0.12005E-03 10080   0.297E-02-0.463E-03
CGA:  12    -0.354131701505E+03   -0.59239E-04   -0.74273E-04 10080   0.151E-03 0.202E-03
CGA:  13    -0.354131718181E+03   -0.16676E-04   -0.16374E-04 10080   0.218E-03 0.461E-04
CGA:  14    -0.354131742786E+03   -0.24604E-04   -0.23132E-04 10080   0.175E-03-0.106E-03
CGA:  15    -0.354131743859E+03   -0.10737E-05   -0.24327E-05 10080   0.694E-04 0.199E-04
  13 F= -.35413174E+03 E0= -.35412466E+03  d E =-.143474E-03  mag=    10.0000
       N       E                     dE             d eps       ncg     rms          ort
SDA:   1    -0.353581448376E+03    0.55029E+00    0.00000E+00 10080   0.143E+01 0.000E+00
CGA:   2    -0.353849591569E+03   -0.26814E+00   -0.26058E+00 10080   0.329E+01 0.793E-01
CGA:   3    -0.354026403027E+03   -0.17681E+00   -0.16652E+00 10080   0.516E+00 0.989E-01
CGA:   4    -0.354075008801E+03   -0.48606E-01   -0.48608E-01 10080   0.705E+00 0.428E-03
CGA:   5    -0.354114705395E+03   -0.39697E-01   -0.39809E-01 10080   0.910E-01-0.482E-02
CGA:   6    -0.354119722345E+03   -0.50170E-02   -0.50361E-02 10080   0.678E-01 0.663E-03
CGA:   7    -0.354127165310E+03   -0.74430E-02   -0.74407E-02 10080   0.153E-01-0.401E-04
CGA:   8    -0.354127999049E+03   -0.83374E-03   -0.82989E-03 10080   0.120E-01-0.130E-03
CGA:   9    -0.354129408605E+03   -0.14096E-02   -0.14222E-02 10080   0.887E-02-0.391E-03
CGA:  10    -0.354129740654E+03   -0.33205E-03   -0.32928E-03 10080   0.182E-02-0.786E-04
CGA:  11    -0.354130029647E+03   -0.28899E-03   -0.28005E-03 10080   0.339E-02 0.123E-03
CGA:  12    -0.354130267644E+03   -0.23800E-03   -0.22303E-03 10080   0.115E-02-0.569E-03
CGA:  13    -0.354130322813E+03   -0.55168E-04   -0.58521E-04 10080   0.518E-03 0.125E-03
CGA:  14    -0.354130413940E+03   -0.91127E-04   -0.15210E-03 10080   0.382E-02-0.342E-03
CGA:  15    -0.354130502734E+03   -0.88794E-04   -0.92680E-04 10080   0.105E-03 0.379E-04
CGA:  16    -0.354130517850E+03   -0.15116E-04   -0.13430E-04 10080   0.139E-03 0.488E-04
CGA:  17    -0.354130516786E+03    0.10643E-05   -0.45634E-04 10080   0.224E-02-0.356E-03
CGA:  18    -0.354130555110E+03   -0.38324E-04   -0.53588E-04 10080   0.649E-04 0.209E-03
CGA:  19    -0.354130555402E+03   -0.29266E-06   -0.24235E-05 10080   0.469E-04 0.342E-04
CGA:  20    -0.354130565949E+03   -0.10547E-04    0.10523E-04 10080   0.746E-04 0.869E-05
CGA:  21    -0.354130571949E+03   -0.59996E-05   -0.64754E-05 10080   0.105E-04 0.238E-04
CGA:  22    -0.354130574568E+03   -0.26187E-05    0.22895E-04 10080   0.131E-04 0.750E-05
  14 F= -.35413057E+03 E0= -.35412350E+03  d E =0.116929E-02  mag=    10.0000
       N       E                     dE             d eps       ncg     rms          ort
SDA:   1    -0.354100322073E+03    0.30250E-01    0.00000E+00 10080   0.226E+00 0.000E+00
CGA:   2    -0.354108578047E+03   -0.82560E-02   -0.81200E-02 10080   0.774E-01 0.332E-02
CGA:   3    -0.354123381154E+03   -0.14803E-01   -0.14955E-01 10080   0.725E-01-0.158E-02
CGA:   4    -0.354126375869E+03   -0.29947E-02   -0.30585E-02 10080   0.241E-01 0.233E-02
CGA:   5    -0.354130127542E+03   -0.37517E-02   -0.37365E-02 10080   0.907E-02 0.257E-03
CGA:   6    -0.354130479809E+03   -0.35227E-03   -0.33785E-03 10080   0.325E-02-0.365E-03
CGA:   7    -0.354130939097E+03   -0.45929E-03   -0.45401E-03 10080   0.981E-03 0.984E-04
CGA:   8    -0.354130971667E+03   -0.32570E-04   -0.40929E-04 10080   0.469E-03 0.151E-03
CGA:   9    -0.354131065279E+03   -0.93612E-04   -0.94238E-04 10080   0.345E-03-0.804E-05
CGA:  10    -0.354131082236E+03   -0.16957E-04   -0.14941E-04 10080   0.131E-03-0.397E-04
CGA:  11    -0.354131107550E+03   -0.25314E-04   -0.27230E-04 10080   0.122E-03-0.138E-04
CGA:  12    -0.354131107811E+03   -0.26046E-06   -0.27551E-05 10080   0.346E-04 0.326E-04
  15 F= -.35413111E+03 E0= -.35412404E+03  d E =-.533243E-03  mag=    10.0000
       N       E                     dE             d eps       ncg     rms          ort
SDA:   1    -0.354104496566E+03    0.26611E-01    0.00000E+00 10080   0.138E+00 0.000E+00
CGA:   2    -0.354110731373E+03   -0.62348E-02   -0.63204E-02 10080   0.101E+00 0.180E-02
CGA:   3    -0.354124132741E+03   -0.13401E-01   -0.13414E-01 10080   0.347E-01-0.390E-03
CGA:   4    -0.354126926321E+03   -0.27936E-02   -0.27920E-02 10080   0.504E-01-0.356E-03
CGA:   5    -0.354130372281E+03   -0.34460E-02   -0.34611E-02 10080   0.404E-02 0.623E-03
CGA:   6    -0.354130920290E+03   -0.54801E-03   -0.53504E-03 10080   0.438E-02 0.329E-03
CGA:   7    -0.354131176865E+03   -0.25658E-03   -0.24387E-03 10080   0.900E-03-0.312E-03
CGA:   8    -0.354131230791E+03   -0.53926E-04   -0.56136E-04 10080   0.712E-03 0.872E-04
CGA:   9    -0.354131287870E+03   -0.57079E-04   -0.58102E-04 10080   0.391E-03 0.609E-04
CGA:  10    -0.354131319496E+03   -0.31626E-04   -0.30887E-04 10080   0.236E-03-0.444E-04
CGA:  11    -0.354131331470E+03   -0.11974E-04   -0.13128E-04 10080   0.638E-04 0.434E-04
CGA:  12    -0.354131334346E+03   -0.28762E-05   -0.42369E-05 10080   0.429E-04 0.429E-04
  16 F= -.35413133E+03 E0= -.35412427E+03  d E =-.226535E-03  mag=    10.0000
       N       E                     dE             d eps       ncg     rms          ort
SDA:   1    -0.354095223282E+03    0.36108E-01    0.00000E+00 10080   0.221E+00 0.000E+00
CGA:   2    -0.354103374342E+03   -0.81511E-02   -0.82186E-02 10080   0.103E+00-0.671E-02
CGA:   3    -0.354122846207E+03   -0.19472E-01   -0.19552E-01 10080   0.128E+00-0.793E-03
CGA:   4    -0.354127514441E+03   -0.46682E-02   -0.46964E-02 10080   0.150E-01 0.241E-02
CGA:   5    -0.354130046790E+03   -0.25323E-02   -0.25188E-02 10080   0.163E-01 0.150E-03
CGA:   6    -0.354130614787E+03   -0.56800E-03   -0.57426E-03 10080   0.178E-02 0.188E-03
CGA:   7    -0.354131000105E+03   -0.38532E-03   -0.39862E-03 10080   0.133E-02-0.101E-03
CGA:   8    -0.354131040164E+03   -0.40059E-04   -0.42586E-04 10080   0.392E-03 0.383E-04
CGA:   9    -0.354131097295E+03   -0.57130E-04   -0.53547E-04 10080   0.357E-03 0.863E-04
CGA:  10    -0.354131133268E+03   -0.35974E-04   -0.31804E-04 10080   0.396E-03-0.206E-03
CGA:  11    -0.354131137793E+03   -0.45246E-05   -0.10233E-04 10080   0.557E-04 0.851E-04
  17 F= -.35413114E+03 E0= -.35412406E+03  d E =0.196553E-03  mag=    10.0000
       N       E                     dE             d eps       ncg     rms          ort
SDA:   1    -0.354073864435E+03    0.57269E-01    0.00000E+00 10080   0.156E+00 0.000E+00
CGA:   2    -0.354092221270E+03   -0.18357E-01   -0.18335E-01 10080   0.358E+00 0.933E-03
CGA:   3    -0.354121749391E+03   -0.29528E-01   -0.29525E-01 10080   0.777E-01-0.128E-02
CGA:   4    -0.354125049490E+03   -0.33001E-02   -0.32712E-02 10080   0.366E-01-0.142E-02
CGA:   5    -0.354129628807E+03   -0.45793E-02   -0.45400E-02 10080   0.590E-02 0.956E-03
CGA:   6    -0.354130073051E+03   -0.44424E-03   -0.43652E-03 10080   0.819E-02-0.515E-03
CGA:   7    -0.354130665809E+03   -0.59276E-03   -0.59421E-03 10080   0.100E-02 0.187E-03
CGA:   8    -0.354130716693E+03   -0.50884E-04   -0.57722E-04 10080   0.896E-03 0.226E-03
CGA:   9    -0.354130864927E+03   -0.14823E-03   -0.16558E-03 10080   0.838E-03-0.265E-03
CGA:  10    -0.354130881523E+03   -0.16595E-04   -0.17020E-04 10080   0.237E-03 0.499E-05
CGA:  11    -0.354130893257E+03   -0.11734E-04   -0.12825E-04 10080   0.371E-03 0.338E-04
CGA:  12    -0.354130934844E+03   -0.41587E-04   -0.42196E-04 10080   0.197E-03-0.386E-04
CGA:  13    -0.354130943300E+03   -0.84562E-05   -0.64275E-05 10080   0.944E-04-0.434E-04
CGA:  14    -0.354130956007E+03   -0.12706E-04   -0.11765E-04 10080   0.158E-03 0.121E-04
CGA:  15    -0.354130963046E+03   -0.70391E-05   -0.71039E-05 10080   0.368E-04 0.849E-06
CGA:  16    -0.354130969716E+03   -0.66703E-05    0.20420E-04 10080   0.229E-04 0.140E-04
  18 F= -.35413097E+03 E0= -.35412390E+03  d E =0.168077E-03  mag=    10.0000
       N       E                     dE             d eps       ncg     rms          ort
SDA:   1    -0.354093787764E+03    0.37175E-01    0.00000E+00 10080   0.943E-01 0.000E+00
CGA:   2    -0.354109030477E+03   -0.15243E-01   -0.15286E-01 10080   0.311E+00-0.769E-03
CGA:   3    -0.354125666758E+03   -0.16636E-01   -0.16678E-01 10080   0.229E-01 0.357E-03
CGA:   4    -0.354128042092E+03   -0.23753E-02   -0.23565E-02 10080   0.356E-01 0.967E-03
CGA:   5    -0.354130093573E+03   -0.20515E-02   -0.20368E-02 10080   0.283E-02-0.650E-03
CGA:   6    -0.354130395588E+03   -0.30201E-03   -0.29457E-03 10080   0.352E-02 0.322E-03
CGA:   7    -0.354130668758E+03   -0.27317E-03   -0.26661E-03 10080   0.123E-02-0.420E-03
CGA:   8    -0.354130719959E+03   -0.51202E-04   -0.54075E-04 10080   0.408E-03 0.822E-04
CGA:   9    -0.354130767425E+03   -0.47465E-04   -0.46101E-04 10080   0.459E-03 0.565E-04
CGA:  10    -0.354130806859E+03   -0.39434E-04   -0.37700E-04 10080   0.378E-03-0.159E-03
CGA:  11    -0.354130815530E+03   -0.86705E-05   -0.10367E-04 10080   0.907E-04 0.414E-04
  19 F= -.35413082E+03 E0= -.35412376E+03  d E =0.154186E-03  mag=    10.0000
       N       E                     dE             d eps       ncg     rms          ort
SDA:   1    -0.354124253085E+03    0.65538E-02    0.00000E+00 10080   0.808E-01 0.000E+00
CGA:   2    -0.354126401583E+03   -0.21485E-02   -0.21846E-02 10080   0.127E-01 0.147E-02
CGA:   3    -0.354129499905E+03   -0.30983E-02   -0.29818E-02 10080   0.107E-01 0.750E-03
CGA:   4    -0.354130090035E+03   -0.59013E-03   -0.56224E-03 10080   0.661E-02-0.962E-03
CGA:   5    -0.354130711479E+03   -0.62144E-03   -0.61391E-03 10080   0.272E-02 0.365E-03
CGA:   6    -0.354130809383E+03   -0.97904E-04   -0.10443E-03 10080   0.513E-03 0.134E-03
CGA:   7    -0.354130888682E+03   -0.79299E-04   -0.95467E-04 10080   0.135E-02-0.168E-03
CGA:   8    -0.354130910658E+03   -0.21976E-04   -0.23881E-04 10080   0.326E-03 0.304E-04
CGA:   9    -0.354130913959E+03   -0.33007E-05   -0.61603E-05 10080   0.109E-03 0.439E-04
  20 F= -.35413091E+03 E0= -.35412386E+03  d E =-.984296E-04  mag=    10.0000
       N       E                     dE             d eps       ncg     rms          ort
SDA:   1    -0.354092743630E+03    0.38167E-01    0.00000E+00 10080   0.252E+00 0.000E+00
CGA:   2    -0.354101136937E+03   -0.83933E-02   -0.83688E-02 10080   0.931E-01 0.306E-02
CGA:   3    -0.354124866953E+03   -0.23730E-01   -0.23465E-01 10080   0.805E-01 0.149E-02
CGA:   4    -0.354127670099E+03   -0.28031E-02   -0.27619E-02 10080   0.165E-01-0.280E-02
CGA:   5    -0.354130236380E+03   -0.25663E-02   -0.25621E-02 10080   0.974E-02 0.397E-04
CGA:   6    -0.354130614209E+03   -0.37783E-03   -0.38159E-03 10080   0.197E-02-0.352E-04
CGA:   7    -0.354130917986E+03   -0.30378E-03   -0.29311E-03 10080   0.168E-02 0.158E-03
CGA:   8    -0.354131003865E+03   -0.85879E-04   -0.80563E-04 10080   0.544E-03-0.138E-03
CGA:   9    -0.354131050783E+03   -0.46918E-04   -0.46435E-04 10080   0.394E-03 0.523E-04
CGA:  10    -0.354131073074E+03   -0.22291E-04   -0.23671E-04 10080   0.162E-03 0.459E-04
CGA:  11    -0.354131089165E+03   -0.16092E-04   -0.31602E-04 10080   0.983E-03-0.170E-03
CGA:  12    -0.354131102882E+03   -0.13717E-04   -0.21674E-04 10080   0.418E-04 0.120E-03
CGA:  13    -0.354131102526E+03    0.35637E-06   -0.11812E-05 10080   0.288E-04 0.260E-04
CGA:  14    -0.354131107374E+03   -0.48485E-05    0.30540E-04 10080   0.288E-04 0.163E-04
  21 F= -.35413111E+03 E0= -.35412406E+03  d E =-.193415E-03  mag=    10.0000
       N       E                     dE             d eps       ncg     rms          ort
SDA:   1    -0.354106819517E+03    0.24283E-01    0.00000E+00 10080   0.583E-01 0.000E+00
CGA:   2    -0.354121855382E+03   -0.15036E-01   -0.14679E-01 10080   0.151E+00 0.199E-02
CGA:   3    -0.354127817842E+03   -0.59625E-02   -0.59156E-02 10080   0.166E-01-0.264E-02
CGA:   4    -0.354129741680E+03   -0.19238E-02   -0.19259E-02 10080   0.224E-01-0.867E-04
CGA:   5    -0.354130725186E+03   -0.98351E-03   -0.99076E-03 10080   0.227E-02 0.120E-03
CGA:   6    -0.354130929076E+03   -0.20389E-03   -0.20365E-03 10080   0.310E-02 0.415E-04
CGA:   7    -0.354131155145E+03   -0.22607E-03   -0.22624E-03 10080   0.423E-03 0.762E-05
CGA:   8    -0.354131191919E+03   -0.36774E-04   -0.36848E-04 10080   0.659E-03-0.271E-04
CGA:   9    -0.354131237561E+03   -0.45642E-04   -0.46160E-04 10080   0.824E-04 0.552E-04
CGA:  10    -0.354131244755E+03   -0.71937E-05   -0.72209E-05 10080   0.124E-03 0.956E-05
CGA:  11    -0.354131262668E+03   -0.17913E-04   -0.20259E-04 10080   0.984E-04-0.378E-04
CGA:  12    -0.354131261901E+03    0.76688E-06   -0.12862E-05 10080   0.411E-04 0.302E-04
  22 F= -.35413126E+03 E0= -.35412421E+03  d E =-.154526E-03  mag=    10.0000
       N       E                     dE             d eps       ncg     rms          ort
SDA:   1    -0.353877873359E+03    0.25339E+00    0.00000E+00 10080   0.592E+00 0.000E+00
CGA:   2    -0.354056031937E+03   -0.17816E+00   -0.17762E+00 10080   0.126E+01 0.200E-02
CGA:   3    -0.354097604189E+03   -0.41572E-01   -0.43509E-01 10080   0.177E+00-0.558E-01
CGA:   4    -0.354115714917E+03   -0.18111E-01   -0.18117E-01 10080   0.210E+00-0.776E-03
CGA:   5    -0.354126294699E+03   -0.10580E-01   -0.10594E-01 10080   0.197E-01 0.162E-02
CGA:   6    -0.354128523836E+03   -0.22291E-02   -0.22287E-02 10080   0.344E-01-0.141E-04
CGA:   7    -0.354130396815E+03   -0.18730E-02   -0.18731E-02 10080   0.415E-02-0.135E-03
CGA:   8    -0.354130699469E+03   -0.30265E-03   -0.30785E-03 10080   0.403E-02 0.422E-03
CGA:   9    -0.354131197952E+03   -0.49848E-03   -0.50971E-03 10080   0.217E-02-0.399E-03
CGA:  10    -0.354131264588E+03   -0.66636E-04   -0.73377E-04 10080   0.592E-03 0.135E-03
CGA:  11    -0.354131347796E+03   -0.83209E-04   -0.77748E-04 10080   0.828E-03 0.140E-03
CGA:  12    -0.354131442732E+03   -0.94935E-04   -0.97315E-04 10080   0.777E-03-0.296E-03
CGA:  13    -0.354131459485E+03   -0.16753E-04   -0.21049E-04 10080   0.283E-03 0.946E-04
CGA:  14    -0.354131465710E+03   -0.62254E-05   -0.10605E-04 10080   0.174E-03 0.839E-04
CGA:  15    -0.354131491829E+03   -0.26119E-04   -0.24950E-04 10080   0.449E-03 0.410E-04
CGA:  16    -0.354131525340E+03   -0.33512E-04   -0.31105E-04 10080   0.571E-04-0.868E-04
CGA:  17    -0.354131531862E+03   -0.65214E-05   -0.89311E-05 10080   0.324E-03-0.217E-04
  23 F= -.35413153E+03 E0= -.35412446E+03  d E =-.269961E-03  mag=    10.0000
       N       E                     dE             d eps       ncg     rms          ort
SDA:   1    -0.353997654594E+03    0.13387E+00    0.00000E+00 10080   0.506E+00 0.000E+00
CGA:   2    -0.354024733149E+03   -0.27079E-01   -0.27215E-01 10080   0.539E+00-0.195E-02
CGA:   3    -0.354108156370E+03   -0.83423E-01   -0.83495E-01 10080   0.281E+00-0.125E-02
CGA:   4    -0.354118341256E+03   -0.10185E-01   -0.10429E-01 10080   0.588E-01 0.767E-03
CGA:   5    -0.354127989352E+03   -0.96481E-02   -0.95922E-02 10080   0.400E-01 0.690E-03
CGA:   6    -0.354129456196E+03   -0.14668E-02   -0.14245E-02 10080   0.763E-02-0.159E-02
CGA:   7    -0.354130680411E+03   -0.12242E-02   -0.11927E-02 10080   0.604E-02 0.408E-03
CGA:   8    -0.354130964573E+03   -0.28416E-03   -0.26490E-03 10080   0.192E-02-0.440E-03
CGA:   9    -0.354131148333E+03   -0.18376E-03   -0.18494E-03 10080   0.226E-02-0.781E-04
CGA:  10    -0.354131260857E+03   -0.11252E-03   -0.11647E-03 10080   0.380E-03 0.108E-03
CGA:  11    -0.354131305330E+03   -0.44474E-04   -0.76918E-04 10080   0.255E-02-0.308E-03
CGA:  12    -0.354131354344E+03   -0.49014E-04   -0.61514E-04 10080   0.989E-04 0.191E-03
CGA:  13    -0.354131357107E+03   -0.27628E-05   -0.49651E-05 10080   0.952E-04 0.521E-04
CGA:  14    -0.354131374843E+03   -0.17736E-04    0.56057E-04 10080   0.195E-03-0.707E-05
CGA:  15    -0.354131407261E+03   -0.32418E-04   -0.38020E-04 10080   0.148E-03-0.454E-04
CGA:  16    -0.354131408396E+03   -0.11346E-05   -0.30505E-05 10080   0.553E-04 0.286E-04
  24 F= -.35413141E+03 E0= -.35412433E+03  d E =0.123466E-03  mag=    10.0000
       N       E                     dE             d eps       ncg     rms          ort
SDA:   1    -0.354078757704E+03    0.52650E-01    0.00000E+00 10080   0.244E+00 0.000E+00
CGA:   2    -0.354089772526E+03   -0.11015E-01   -0.11256E-01 10080   0.168E+00-0.698E-03
CGA:   3    -0.354119512526E+03   -0.29740E-01   -0.29655E-01 10080   0.185E+00 0.783E-03
CGA:   4    -0.354126071945E+03   -0.65594E-02   -0.65944E-02 10080   0.218E-01-0.349E-02
CGA:   5    -0.354129551877E+03   -0.34799E-02   -0.35052E-02 10080   0.248E-01-0.346E-03
CGA:   6    -0.354130319807E+03   -0.76793E-03   -0.80737E-03 10080   0.236E-02 0.653E-03
CGA:   7    -0.354130807558E+03   -0.48775E-03   -0.54550E-03 10080   0.394E-02-0.426E-03
CGA:   8    -0.354130904070E+03   -0.96513E-04   -0.10375E-03 10080   0.683E-03 0.934E-04
CGA:   9    -0.354130933357E+03   -0.29287E-04   -0.34805E-04 10080   0.721E-03 0.129E-03
CGA:  10    -0.354131019253E+03   -0.85895E-04   -0.85952E-04 10080   0.396E-03-0.598E-05
CGA:  11    -0.354131047073E+03   -0.27820E-04   -0.19770E-04 10080   0.271E-03-0.204E-03
CGA:  12    -0.354131050542E+03   -0.34692E-05   -0.83859E-05 10080   0.856E-04 0.852E-04
  25 F= -.35413105E+03 E0= -.35412396E+03  d E =0.357854E-03  mag=    10.0000
       N       E                     dE             d eps       ncg     rms          ort
SDA:   1    -0.354111380270E+03    0.19667E-01    0.00000E+00 10080   0.169E+00 0.000E+00
CGA:   2    -0.354117100583E+03   -0.57203E-02   -0.56553E-02 10080   0.379E-01 0.757E-02
CGA:   3    -0.354126737488E+03   -0.96369E-02   -0.94721E-02 10080   0.771E-01 0.102E-02
CGA:   4    -0.354129780701E+03   -0.30432E-02   -0.29858E-02 10080   0.630E-02-0.573E-03
CGA:   5    -0.354130895416E+03   -0.11147E-02   -0.11320E-02 10080   0.864E-02-0.190E-03
CGA:   6    -0.354131168673E+03   -0.27326E-03   -0.26692E-03 10080   0.768E-03-0.124E-03
CGA:   7    -0.354131279336E+03   -0.11066E-03   -0.10293E-03 10080   0.804E-03 0.166E-03
CGA:   8    -0.354131340599E+03   -0.61263E-04   -0.58045E-04 10080   0.313E-03-0.102E-03
CGA:   9    -0.354131359425E+03   -0.18826E-04   -0.19279E-04 10080   0.137E-03 0.221E-04
CGA:  10    -0.354131363180E+03   -0.37546E-05   -0.63104E-05 10080   0.604E-04 0.552E-04
CGA:  11    -0.354131373282E+03   -0.10102E-04   -0.19530E-04 10080   0.358E-03-0.661E-04
CGA:  12    -0.354131379991E+03   -0.67086E-05   -0.95711E-05 10080   0.218E-04 0.402E-04
  26 F= -.35413138E+03 E0= -.35412431E+03  d E =-.329449E-03  mag=    10.0000
       N       E                     dE             d eps       ncg     rms          ort
SDA:   1    -0.354121235904E+03    0.10137E-01    0.00000E+00 10080   0.254E-01 0.000E+00
CGA:   2    -0.354126158855E+03   -0.49230E-02   -0.48782E-02 10080   0.731E-01 0.369E-03
CGA:   3    -0.354130043583E+03   -0.38847E-02   -0.38689E-02 10080   0.739E-02 0.197E-04
CGA:   4    -0.354130656094E+03   -0.61251E-03   -0.60759E-03 10080   0.997E-02-0.616E-03
CGA:   5    -0.354131256272E+03   -0.60018E-03   -0.60838E-03 10080   0.107E-02 0.337E-03
CGA:   6    -0.354131294823E+03   -0.38550E-04   -0.49076E-04 10080   0.704E-03 0.233E-03
CGA:   7    -0.354131410625E+03   -0.11580E-03   -0.11698E-03 10080   0.210E-03-0.241E-04
CGA:   8    -0.354131426704E+03   -0.16079E-04   -0.14979E-04 10080   0.359E-03-0.709E-04
CGA:   9    -0.354131443646E+03   -0.16942E-04   -0.16956E-04 10080   0.208E-03 0.717E-06
CGA:  10    -0.354131446172E+03   -0.25254E-05   -0.48321E-05 10080   0.448E-04 0.348E-04
  27 F= -.35413145E+03 E0= -.35412437E+03  d E =-.661809E-04  mag=    10.0000
       N       E                     dE             d eps       ncg     rms          ort
SDA:   1    -0.354126180414E+03    0.52632E-02    0.00000E+00 10080   0.324E-01 0.000E+00
CGA:   2    -0.354127418012E+03   -0.12376E-02   -0.12583E-02 10080   0.153E-01 0.360E-04
CGA:   3    -0.354129943929E+03   -0.25259E-02   -0.25185E-02 10080   0.153E-01 0.705E-04
CGA:   4    -0.354130614907E+03   -0.67098E-03   -0.65224E-03 10080   0.445E-02-0.550E-03
CGA:   5    -0.354131198721E+03   -0.58381E-03   -0.59296E-03 10080   0.363E-02-0.168E-03
CGA:   6    -0.354131290296E+03   -0.91575E-04   -0.10809E-03 10080   0.412E-03 0.304E-03
CGA:   7    -0.354131348498E+03   -0.58201E-04   -0.55298E-04 10080   0.592E-03 0.689E-04
CGA:   8    -0.354131382862E+03   -0.34364E-04   -0.31790E-04 10080   0.132E-03-0.696E-04
CGA:   9    -0.354131385765E+03   -0.29029E-05   -0.48372E-05 10080   0.509E-04 0.475E-04
  28 F= -.35413139E+03 E0= -.35412430E+03  d E =0.604069E-04  mag=    10.0000
       N       E                     dE             d eps       ncg     rms          ort
SDA:   1    -0.354101545983E+03    0.29837E-01    0.00000E+00 10080   0.291E+00 0.000E+00
CGA:   2    -0.354110034297E+03   -0.84883E-02   -0.85937E-02 10080   0.589E-01 0.276E-02
CGA:   3    -0.354126204092E+03   -0.16170E-01   -0.16299E-01 10080   0.828E-01-0.696E-03
CGA:   4    -0.354128750568E+03   -0.25465E-02   -0.25979E-02 10080   0.115E-01-0.544E-03
CGA:   5    -0.354130318364E+03   -0.15678E-02   -0.15252E-02 10080   0.115E-01 0.904E-03
CGA:   6    -0.354130940409E+03   -0.62204E-03   -0.59702E-03 10080   0.177E-02-0.714E-03
CGA:   7    -0.354131105460E+03   -0.16505E-03   -0.16214E-03 10080   0.118E-02 0.265E-03
CGA:   8    -0.354131228257E+03   -0.12280E-03   -0.12423E-03 10080   0.147E-02-0.354E-03
CGA:   9    -0.354131271901E+03   -0.43644E-04   -0.44208E-04 10080   0.403E-03 0.116E-04
CGA:  10    -0.354131278357E+03   -0.64561E-05   -0.11699E-04 10080   0.168E-03 0.916E-04
CGA:  11    -0.354131287419E+03   -0.90620E-05   -0.10721E-04 10080   0.216E-03 0.536E-04
CGA:  12    -0.354131315127E+03   -0.27708E-04   -0.29991E-04 10080   0.206E-03-0.942E-04
CGA:  13    -0.354131317132E+03   -0.20046E-05   -0.19542E-05 10080   0.823E-04-0.102E-05
  29 F= -.35413132E+03 E0= -.35412423E+03  d E =0.686330E-04  mag=    10.0000
       N       E                     dE             d eps       ncg     rms          ort
SDA:   1    -0.354029753871E+03    0.10156E+00    0.00000E+00 10080   0.247E+00 0.000E+00
CGA:   2    -0.354087568416E+03   -0.57815E-01   -0.57944E-01 10080   0.738E+00-0.972E-03
CGA:   3    -0.354115526194E+03   -0.27958E-01   -0.28057E-01 10080   0.756E-01-0.779E-03
CGA:   4    -0.354122907616E+03   -0.73814E-02   -0.73441E-02 10080   0.892E-01 0.234E-02
CGA:   5    -0.354128521568E+03   -0.56140E-02   -0.55890E-02 10080   0.968E-02-0.174E-02
CGA:   6    -0.354129568175E+03   -0.10466E-02   -0.10251E-02 10080   0.114E-01 0.796E-03
CGA:   7    -0.354130328993E+03   -0.76082E-03   -0.74522E-03 10080   0.321E-02-0.785E-03
CGA:   8    -0.354130498723E+03   -0.16973E-03   -0.17174E-03 10080   0.161E-02 0.775E-04
CGA:   9    -0.354130680975E+03   -0.18225E-03   -0.18064E-03 10080   0.117E-02 0.509E-04
CGA:  10    -0.354130761640E+03   -0.80666E-04   -0.77069E-04 10080   0.676E-03-0.209E-03
CGA:  11    -0.354130794298E+03   -0.32658E-04   -0.33534E-04 10080   0.304E-03 0.419E-04
CGA:  12    -0.354130816185E+03   -0.21887E-04   -0.22097E-04 10080   0.254E-03 0.176E-04
CGA:  13    -0.354130851005E+03   -0.34820E-04   -0.44349E-04 10080   0.440E-03-0.112E-03
CGA:  14    -0.354130860904E+03   -0.98986E-05   -0.87495E-05 10080   0.125E-03-0.249E-04
  30 F= -.35413086E+03 E0= -.35412375E+03  d E =0.456228E-03  mag=    10.0000
       N       E                     dE             d eps       ncg     rms          ort
SDA:   1    -0.354031354053E+03    0.99497E-01    0.00000E+00 10080   0.259E+00 0.000E+00
CGA:   2    -0.354069721948E+03   -0.38368E-01   -0.38276E-01 10080   0.735E+00 0.775E-03
CGA:   3    -0.354116457377E+03   -0.46735E-01   -0.46781E-01 10080   0.914E-01 0.187E-02
CGA:   4    -0.354121990145E+03   -0.55328E-02   -0.54980E-02 10080   0.801E-01-0.254E-02
CGA:   5    -0.354129074801E+03   -0.70847E-02   -0.70792E-02 10080   0.177E-01 0.438E-03
CGA:   6    -0.354129754709E+03   -0.67991E-03   -0.70557E-03 10080   0.736E-02 0.739E-03
CGA:   7    -0.354130977103E+03   -0.12224E-02   -0.12446E-02 10080   0.150E-02-0.270E-03
CGA:   8    -0.354131118012E+03   -0.14091E-03   -0.13669E-03 10080   0.142E-02 0.356E-03
CGA:   9    -0.354131285471E+03   -0.16746E-03   -0.17318E-03 10080   0.121E-02-0.388E-03
CGA:  10    -0.354131307890E+03   -0.22419E-04   -0.31048E-04 10080   0.343E-03 0.176E-03
CGA:  11    -0.354131314410E+03   -0.65196E-05   -0.12797E-04 10080   0.235E-03 0.127E-03
CGA:  12    -0.354131341726E+03   -0.27316E-04   -0.26989E-04 10080   0.386E-03 0.701E-04
CGA:  13    -0.354131374853E+03   -0.33128E-04   -0.30763E-04 10080   0.123E-03-0.132E-03
CGA:  14    -0.354131375359E+03   -0.50517E-06   -0.22600E-05 10080   0.810E-04 0.344E-04
  31 F= -.35413138E+03 E0= -.35412428E+03  d E =-.514455E-03  mag=    10.0000
       N       E                     dE             d eps       ncg     rms          ort
SDA:   1    -0.354042281051E+03    0.89094E-01    0.00000E+00 10080   0.265E+00 0.000E+00
CGA:   2    -0.354064159893E+03   -0.21879E-01   -0.21852E-01 10080   0.499E+00 0.317E-02
CGA:   3    -0.354119347334E+03   -0.55187E-01   -0.55260E-01 10080   0.674E-01-0.231E-02
CGA:   4    -0.354123462643E+03   -0.41153E-02   -0.41068E-02 10080   0.709E-01-0.132E-02
CGA:   5    -0.354129696693E+03   -0.62341E-02   -0.62281E-02 10080   0.997E-02 0.357E-03
CGA:   6    -0.354130189749E+03   -0.49306E-03   -0.50877E-03 10080   0.584E-02 0.561E-03
CGA:   7    -0.354131109566E+03   -0.91982E-03   -0.93253E-03 10080   0.139E-02-0.171E-03
CGA:   8    -0.354131179892E+03   -0.70326E-04   -0.72900E-04 10080   0.125E-02 0.102E-03
CGA:   9    -0.354131341380E+03   -0.16149E-03   -0.16096E-03 10080   0.481E-03 0.111E-04
CGA:  10    -0.354131370949E+03   -0.29569E-04   -0.27855E-04 10080   0.367E-03-0.791E-04
CGA:  11    -0.354131416188E+03   -0.45239E-04   -0.48429E-04 10080   0.324E-03-0.407E-04
CGA:  12    -0.354131420926E+03   -0.47377E-05   -0.82825E-05 10080   0.734E-04 0.658E-04
  32 F= -.35413142E+03 E0= -.35412434E+03  d E =-.455672E-04  mag=    10.0000
       N       E                     dE             d eps       ncg     rms          ort
SDA:   1    -0.354095836286E+03    0.35580E-01    0.00000E+00 10080   0.268E+00 0.000E+00
CGA:   2    -0.354104065884E+03   -0.82296E-02   -0.82538E-02 10080   0.818E-01 0.348E-02
CGA:   3    -0.354126146736E+03   -0.22081E-01   -0.21894E-01 10080   0.494E-01 0.971E-03
CGA:   4    -0.354128134665E+03   -0.19879E-02   -0.19587E-02 10080   0.200E-01-0.190E-02
CGA:   5    -0.354130761425E+03   -0.26268E-02   -0.25963E-02 10080   0.601E-02 0.581E-03
CGA:   6    -0.354131013349E+03   -0.25192E-03   -0.25535E-03 10080   0.244E-02 0.569E-04
CGA:   7    -0.354131327725E+03   -0.31438E-03   -0.31475E-03 10080   0.235E-02-0.112E-04
CGA:   8    -0.354131427523E+03   -0.99798E-04   -0.92944E-04 10080   0.394E-03-0.157E-03
CGA:   9    -0.354131482776E+03   -0.55253E-04   -0.56026E-04 10080   0.600E-03-0.123E-04
CGA:  10    -0.354131508597E+03   -0.25821E-04   -0.26579E-04 10080   0.802E-04 0.166E-04
CGA:  11    -0.354131405486E+03    0.10311E-03   -0.55976E-04 10080   0.540E-02-0.322E-03
CGA:  12    -0.354131520818E+03   -0.11533E-03   -0.13434E-03 10080   0.123E-03 0.211E-03
CGA:  13    -0.354131521956E+03   -0.11377E-05   -0.51339E-05 10080   0.668E-04 0.365E-04
CGA:  14    -0.354131538128E+03   -0.16173E-04   -0.18486E-04 10080   0.135E-03-0.331E-04
CGA:  15    -0.354131540574E+03   -0.24459E-05   -0.11454E-05 10080   0.470E-04-0.102E-04
  33 F= -.35413154E+03 E0= -.35412444E+03  d E =-.119648E-03  mag=    10.0000
       N       E                     dE             d eps       ncg     rms          ort
SDA:   1    -0.354120468805E+03    0.11069E-01    0.00000E+00 10080   0.281E-01 0.000E+00
CGA:   2    -0.354126017938E+03   -0.55491E-02   -0.55390E-02 10080   0.708E-01 0.815E-04
CGA:   3    -0.354129369483E+03   -0.33515E-02   -0.33302E-02 10080   0.101E-01 0.716E-03
CGA:   4    -0.354130601705E+03   -0.12322E-02   -0.12270E-02 10080   0.139E-01-0.467E-03
CGA:   5    -0.354131145849E+03   -0.54414E-03   -0.58611E-03 10080   0.113E-02 0.572E-03
CGA:   6    -0.354131248859E+03   -0.10301E-03   -0.10942E-03 10080   0.149E-02 0.184E-03
CGA:   7    -0.354131380934E+03   -0.13208E-03   -0.11881E-03 10080   0.385E-03-0.238E-03
CGA:   8    -0.354131392633E+03   -0.11698E-04   -0.16454E-04 10080   0.192E-03 0.651E-04
CGA:   9    -0.354131421271E+03   -0.28638E-04   -0.28636E-04 10080   0.171E-03-0.795E-07
CGA:  10    -0.354131435434E+03   -0.14163E-04   -0.10490E-04 10080   0.916E-04-0.635E-04
CGA:  11    -0.354131439036E+03   -0.36025E-05   -0.40760E-05 10080   0.433E-04 0.101E-04
  34 F= -.35413144E+03 E0= -.35412433E+03  d E =0.101538E-03  mag=    10.0000
       N       E                     dE             d eps       ncg     rms          ort
SDA:   1    -0.354129488450E+03    0.19470E-02    0.00000E+00 10080   0.317E-01 0.000E+00
CGA:   2    -0.354130352415E+03   -0.86396E-03   -0.91315E-03 10080   0.336E-02-0.882E-05
CGA:   3    -0.354130789130E+03   -0.43672E-03   -0.43114E-03 10080   0.705E-02 0.264E-03
CGA:   4    -0.354131297723E+03   -0.50859E-03   -0.50099E-03 10080   0.109E-02-0.198E-03
CGA:   5    -0.354131379981E+03   -0.82258E-04   -0.82091E-04 10080   0.119E-02-0.851E-05
CGA:   6    -0.354131448629E+03   -0.68648E-04   -0.74048E-04 10080   0.215E-03 0.125E-03
CGA:   7    -0.354131472815E+03   -0.24186E-04   -0.23308E-04 10080   0.603E-03-0.174E-03
CGA:   8    -0.354131478832E+03   -0.60169E-05   -0.14391E-04 10080   0.453E-04 0.105E-03
  35 F= -.35413148E+03 E0= -.35412437E+03  d E =-.397956E-04  mag=    10.0000
       N       E                     dE             d eps       ncg     rms          ort
SDA:   1    -0.354124693442E+03    0.67794E-02    0.00000E+00 10080   0.217E-01 0.000E+00
CGA:   2    -0.354126400572E+03   -0.17071E-02   -0.17139E-02 10080   0.382E-01 0.423E-03
CGA:   3    -0.354130098518E+03   -0.36979E-02   -0.36980E-02 10080   0.760E-02-0.279E-03
CGA:   4    -0.354130752585E+03   -0.65407E-03   -0.65029E-03 10080   0.930E-02-0.481E-03
CGA:   5    -0.354131334818E+03   -0.58223E-03   -0.58802E-03 10080   0.870E-03 0.207E-03
CGA:   6    -0.354131380054E+03   -0.45236E-04   -0.51648E-04 10080   0.739E-03 0.184E-03
CGA:   7    -0.354131479664E+03   -0.99611E-04   -0.10231E-03 10080   0.252E-03-0.117E-03
CGA:   8    -0.354131485239E+03   -0.55745E-05   -0.77456E-05 10080   0.110E-03 0.387E-04
CGA:   9    -0.354131499185E+03   -0.13946E-04   -0.13356E-04 10080   0.900E-04 0.366E-04
CGA:  10    -0.354131509713E+03   -0.10528E-04   -0.12354E-04 10080   0.414E-03-0.144E-03
CGA:  11    -0.354131513681E+03   -0.39671E-05   -0.88371E-05 10080   0.267E-04 0.698E-04
  36 F= -.35413151E+03 E0= -.35412440E+03  d E =-.348488E-04  mag=    10.0000
       N       E                     dE             d eps       ncg     rms          ort
SDA:   1    -0.354130371734E+03    0.11380E-02    0.00000E+00 10080   0.407E-02 0.000E+00
CGA:   2    -0.354130662051E+03   -0.29032E-03   -0.29084E-03 10080   0.630E-02 0.314E-04
CGA:   3    -0.354131290198E+03   -0.62815E-03   -0.62806E-03 10080   0.145E-02 0.142E-05
CGA:   4    -0.354131366607E+03   -0.76409E-04   -0.83050E-04 10080   0.960E-03 0.243E-03
CGA:   5    -0.354131511479E+03   -0.14487E-03   -0.15487E-03 10080   0.279E-03-0.181E-03
CGA:   6    -0.354131520320E+03   -0.88406E-05   -0.10860E-04 10080   0.128E-03 0.531E-04
CGA:   7    -0.354131539063E+03   -0.18743E-04   -0.18400E-04 10080   0.482E-04 0.912E-05
CGA:   8    -0.354131548585E+03   -0.95218E-05    0.28782E-04 10080   0.117E-03-0.425E-04
  37 F= -.35413155E+03 E0= -.35412443E+03  d E =-.349046E-04  mag=    10.0000
       N       E                     dE             d eps       ncg     rms          ort
SDA:   1    -0.354129123238E+03    0.24158E-02    0.00000E+00 10080   0.194E-01 0.000E+00
CGA:   2    -0.354129908699E+03   -0.78546E-03   -0.74541E-03 10080   0.587E-02-0.129E-02
CGA:   3    -0.354131040245E+03   -0.11315E-02   -0.10677E-02 10080   0.551E-02 0.552E-03
CGA:   4    -0.354131301117E+03   -0.26087E-03   -0.24912E-03 10080   0.148E-02-0.312E-03
CGA:   5    -0.354131455164E+03   -0.15405E-03   -0.15113E-03 10080   0.972E-03 0.114E-03
CGA:   6    -0.354131517170E+03   -0.62006E-04   -0.60584E-04 10080   0.367E-03-0.569E-04
CGA:   7    -0.354131533734E+03   -0.16564E-04   -0.18474E-04 10080   0.956E-04 0.629E-04
CGA:   8    -0.354131530876E+03    0.28572E-05   -0.25037E-04 10080   0.160E-02-0.198E-03
CGA:   9    -0.354131558675E+03   -0.27798E-04   -0.35896E-04 10080   0.297E-04 0.122E-03
CGA:  10    -0.354131558094E+03    0.58079E-06   -0.58515E-06 10080   0.126E-04 0.172E-04
  38 F= -.35413156E+03 E0= -.35412443E+03  d E =-.950857E-05  mag=    10.0000
       N       E                     dE             d eps       ncg     rms          ort
SDA:   1    -0.354128562053E+03    0.29966E-02    0.00000E+00 10080   0.731E-02 0.000E+00
CGA:   2    -0.354130035442E+03   -0.14734E-02   -0.13994E-02 10080   0.163E-01 0.652E-03
CGA:   3    -0.354131116459E+03   -0.10810E-02   -0.10621E-02 10080   0.252E-02-0.805E-03
CGA:   4    -0.354131295187E+03   -0.17873E-03   -0.18122E-03 10080   0.168E-02 0.283E-03
CGA:   5    -0.354131430085E+03   -0.13490E-03   -0.13521E-03 10080   0.994E-03 0.231E-04
CGA:   6    -0.354131483478E+03   -0.53392E-04   -0.50513E-04 10080   0.323E-03-0.907E-04
CGA:   7    -0.354131494475E+03   -0.10997E-04   -0.14052E-04 10080   0.743E-04 0.900E-04
CGA:   8    -0.354131504151E+03   -0.96765E-05   -0.33642E-04 10080   0.528E-03-0.876E-04
CGA:   9    -0.354131516614E+03   -0.12463E-04   -0.13855E-04 10080   0.535E-04 0.187E-04
CGA:  10    -0.354131519444E+03   -0.28300E-05   -0.35472E-05 10080   0.309E-04 0.272E-04
CGA:  11    -0.354131525630E+03   -0.61861E-05    0.11166E-04 10080   0.613E-04-0.134E-04
  39 F= -.35413153E+03 E0= -.35412440E+03  d E =0.324636E-04  mag=    10.0000
       N       E                     dE             d eps       ncg     rms          ort
SDA:   1    -0.352399675790E+03    0.17318E+01    0.00000E+00 10080   0.404E+01 0.000E+00
CGA:   2    -0.353686786750E+03   -0.12871E+01   -0.12686E+01 10080   0.494E+01 0.104E+00
CGA:   3    -0.353908160564E+03   -0.22137E+00   -0.18252E+00 10080   0.801E+00 0.655E+00
CGA:   4    -0.354015371480E+03   -0.10721E+00   -0.10726E+00 10080   0.171E+01 0.383E-03
CGA:   5    -0.354089908386E+03   -0.74537E-01   -0.75586E-01 10080   0.216E+00-0.224E-01
CGA:   6    -0.354099210589E+03   -0.93022E-02   -0.92375E-02 10080   0.168E+00-0.430E-02
CGA:   7    -0.354117818356E+03   -0.18608E-01   -0.18628E-01 10080   0.123E+00-0.995E-03
CGA:   8    -0.354121533628E+03   -0.37153E-02   -0.38451E-02 10080   0.199E-01-0.105E-02
CGA:   9    -0.354123674504E+03   -0.21409E-02   -0.21399E-02 10080   0.437E-01 0.597E-05
CGA:  10    -0.354125989845E+03   -0.23153E-02   -0.23035E-02 10080   0.513E-02-0.376E-03
CGA:  11    -0.354126421328E+03   -0.43148E-03   -0.42894E-03 10080   0.109E-01-0.567E-03
CGA:  12    -0.354127326367E+03   -0.90504E-03   -0.90758E-03 10080   0.596E-02-0.498E-03
CGA:  13    -0.354127472325E+03   -0.14596E-03   -0.16765E-03 10080   0.152E-02 0.371E-03
CGA:  14    -0.354127595519E+03   -0.12319E-03   -0.12532E-03 10080   0.322E-02 0.245E-03
CGA:  15    -0.354127981865E+03   -0.38635E-03   -0.39847E-03 10080   0.784E-03-0.582E-03
CGA:  16    -0.354128017369E+03   -0.35504E-04   -0.29054E-04 10080   0.693E-03-0.159E-03
CGA:  17    -0.354128123671E+03   -0.10630E-03   -0.14071E-03 10080   0.809E-03-0.202E-03
CGA:  18    -0.354128135489E+03   -0.11819E-04   -0.13909E-04 10080   0.212E-03 0.265E-04
CGA:  19    -0.354128142052E+03   -0.65626E-05   -0.82296E-05 10080   0.243E-03 0.310E-04
CGA:  20    -0.354128171615E+03   -0.29563E-04   -0.29214E-04 10080   0.563E-03 0.193E-04
CGA:  21    -0.354128200194E+03   -0.28579E-04   -0.24023E-04 10080   0.975E-04-0.959E-04
CGA:  22    -0.354128204303E+03   -0.41090E-05   -0.96198E-05 10080   0.694E-03-0.167E-03
CGA:  23    -0.354128213219E+03   -0.89164E-05   -0.17266E-04 10080   0.654E-04 0.133E-03
  40 F= -.35412821E+03 E0= -.35412106E+03  d E =0.331241E-02  mag=    10.0000
       N       E                     dE             d eps       ncg     rms          ort
SDA:   1    -0.353209503194E+03    0.91870E+00    0.00000E+00 10080   0.220E+01 0.000E+00
CGA:   2    -0.353734878076E+03   -0.52537E+00   -0.52496E+00 10080   0.719E+01 0.162E-02
CGA:   3    -0.354007004304E+03   -0.27213E+00   -0.27388E+00 10080   0.487E+00-0.442E-01
CGA:   4    -0.354108022585E+03   -0.10102E+00   -0.10142E+00 10080   0.141E+00-0.329E-02
CGA:   5    -0.354114613987E+03   -0.65914E-02   -0.66697E-02 10080   0.960E-01 0.210E-04
CGA:   6    -0.354125581682E+03   -0.10968E-01   -0.10958E-01 10080   0.383E-01 0.288E-03
CGA:   7    -0.354127236328E+03   -0.16546E-02   -0.16411E-02 10080   0.146E-01-0.619E-03
CGA:   8    -0.354129485508E+03   -0.22492E-02   -0.22602E-02 10080   0.121E-01-0.173E-03
CGA:   9    -0.354129870782E+03   -0.38527E-03   -0.41838E-03 10080   0.252E-02 0.592E-03
CGA:  10    -0.354130573487E+03   -0.70270E-03   -0.73230E-03 10080   0.208E-02-0.159E-03
CGA:  11    -0.354130646966E+03   -0.73479E-04   -0.81996E-04 10080   0.912E-03 0.136E-03
CGA:  12    -0.354130842178E+03   -0.19521E-03   -0.18008E-03 10080   0.142E-02 0.169E-03
CGA:  13    -0.354130946620E+03   -0.10444E-03   -0.91664E-04 10080   0.508E-03-0.287E-03
CGA:  14    -0.354130976547E+03   -0.29928E-04   -0.31975E-04 10080   0.186E-03 0.105E-03
CGA:  15    -0.354131013051E+03   -0.36504E-04   -0.37887E-04 10080   0.648E-03-0.200E-04
CGA:  16    -0.354131040596E+03   -0.27545E-04   -0.25416E-04 10080   0.839E-04-0.377E-04
CGA:  17    -0.354131041682E+03   -0.10854E-05   -0.21230E-05 10080   0.445E-04 0.143E-04
  41 F= -.35413104E+03 E0= -.35412390E+03  d E =-.282846E-02  mag=    10.0000
       N       E                     dE             d eps       ncg     rms          ort
SDA:   1    -0.353038742091E+03    0.10923E+01    0.00000E+00 10080   0.286E+01 0.000E+00
CGA:   2    -0.353430887217E+03   -0.39215E+00   -0.39638E+00 10080   0.879E+01-0.677E-01
CGA:   3    -0.353965465222E+03   -0.53458E+00   -0.53641E+00 10080   0.850E+00-0.137E-01
CGA:   4    -0.354028188134E+03   -0.62723E-01   -0.62826E-01 10080   0.902E+00-0.657E-02
CGA:   5    -0.354107009178E+03   -0.78821E-01   -0.78821E-01 10080   0.843E-01 0.176E-02
CGA:   6    -0.354113990309E+03   -0.69811E-02   -0.69877E-02 10080   0.135E+00 0.152E-04
CGA:   7    -0.354123877547E+03   -0.98872E-02   -0.98868E-02 10080   0.147E-01-0.190E-03
CGA:   8    -0.354125167114E+03   -0.12896E-02   -0.12914E-02 10080   0.241E-01 0.684E-03
CGA:   9    -0.354127179508E+03   -0.20124E-02   -0.20086E-02 10080   0.330E-02-0.374E-03
CGA:  10    -0.354127560065E+03   -0.38056E-03   -0.37184E-03 10080   0.571E-02 0.353E-03
CGA:  11    -0.354128073578E+03   -0.51351E-03   -0.50968E-03 10080   0.219E-02-0.372E-03
CGA:  12    -0.354128173811E+03   -0.10023E-03   -0.10821E-03 10080   0.105E-02 0.206E-03
CGA:  13    -0.354128384187E+03   -0.21038E-03   -0.22917E-03 10080   0.325E-02-0.172E-03
CGA:  14    -0.354128485433E+03   -0.10125E-03   -0.10346E-03 10080   0.394E-03 0.354E-04
CGA:  15    -0.354128498645E+03   -0.13212E-04   -0.16915E-04 10080   0.419E-03 0.747E-04
CGA:  16    -0.354128568952E+03   -0.70307E-04   -0.66085E-04 10080   0.397E-03 0.969E-04
CGA:  17    -0.354128595701E+03   -0.26749E-04   -0.20870E-04 10080   0.173E-03-0.123E-03
CGA:  18    -0.354128602299E+03   -0.65977E-05   -0.73467E-05 10080   0.747E-04 0.271E-04
  42 F= -.35412860E+03 E0= -.35412154E+03  d E =0.243938E-02  mag=    10.0000
       N       E                     dE             d eps       ncg     rms          ort
SDA:   1    -0.353338798672E+03    0.78980E+00    0.00000E+00 10080   0.187E+01 0.000E+00
CGA:   2    -0.353926967299E+03   -0.58817E+00   -0.58778E+00 10080   0.278E+01 0.404E-02
CGA:   3    -0.354024532681E+03   -0.97565E-01   -0.97517E-01 10080   0.507E+00-0.605E-01
CGA:   4    -0.354084691178E+03   -0.60158E-01   -0.60130E-01 10080   0.683E+00 0.201E-02
CGA:   5    -0.354115876986E+03   -0.31186E-01   -0.31382E-01 10080   0.563E-01-0.839E-02
CGA:   6    -0.354122372644E+03   -0.64957E-02   -0.64929E-02 10080   0.102E+00-0.685E-04
CGA:   7    -0.354127927343E+03   -0.55547E-02   -0.55570E-02 10080   0.119E-01 0.117E-03
CGA:   8    -0.354128945142E+03   -0.10178E-02   -0.10134E-02 10080   0.165E-01-0.761E-03
CGA:   9    -0.354130346223E+03   -0.14011E-02   -0.14010E-02 10080   0.371E-02-0.950E-04
CGA:  10    -0.354130498860E+03   -0.15264E-03   -0.16612E-03 10080   0.229E-02 0.293E-03
CGA:  11    -0.354131016612E+03   -0.51775E-03   -0.63241E-03 10080   0.170E-02-0.686E-03
CGA:  12    -0.354131053002E+03   -0.36389E-04   -0.45211E-04 10080   0.867E-03 0.148E-03
CGA:  13    -0.354131201751E+03   -0.14875E-03   -0.14330E-03 10080   0.166E-02 0.933E-04
CGA:  14    -0.354131311856E+03   -0.11010E-03   -0.92312E-04 10080   0.399E-03-0.386E-03
CGA:  15    -0.354131326979E+03   -0.15123E-04   -0.15947E-04 10080   0.278E-03 0.186E-04
CGA:  16    -0.354131357094E+03   -0.30115E-04   -0.29668E-04 10080   0.235E-03 0.476E-04
CGA:  17    -0.354131369931E+03   -0.12837E-04   -0.45553E-04 10080   0.174E-02-0.453E-03
CGA:  18    -0.354131394889E+03   -0.24958E-04   -0.42032E-04 10080   0.758E-04 0.241E-03
CGA:  19    -0.354131394376E+03    0.51379E-06   -0.21633E-05 10080   0.384E-04 0.391E-04
CGA:  20    -0.354131402411E+03   -0.80357E-05    0.10494E-04 10080   0.305E-04 0.234E-04
  43 F= -.35413140E+03 E0= -.35412427E+03  d E =-.280011E-02  mag=    10.0000
       N       E                     dE             d eps       ncg     rms          ort
SDA:   1    -0.354126242622E+03    0.51518E-02    0.00000E+00 10080   0.129E-01 0.000E+00
CGA:   2    -0.354128358574E+03   -0.21160E-02   -0.22152E-02 10080   0.419E-01-0.119E-02
CGA:   3    -0.354130197919E+03   -0.18393E-02   -0.18826E-02 10080   0.545E-02 0.110E-02
CGA:   4    -0.354130459084E+03   -0.26116E-03   -0.28058E-03 10080   0.483E-02 0.514E-03
CGA:   5    -0.354131009185E+03   -0.55010E-03   -0.55830E-03 10080   0.264E-02-0.442E-03
CGA:   6    -0.354131105555E+03   -0.96370E-04   -0.86420E-04 10080   0.648E-03-0.201E-03
CGA:   7    -0.354131175513E+03   -0.69957E-04   -0.67477E-04 10080   0.773E-03 0.900E-04
CGA:   8    -0.354131211652E+03   -0.36139E-04   -0.37219E-04 10080   0.123E-03 0.197E-04
CGA:   9    -0.354131232353E+03   -0.20702E-04   -0.19902E-04 10080   0.128E-03 0.108E-04
CGA:  10    -0.354131240713E+03   -0.83592E-05   -0.81020E-05 10080   0.724E-04-0.905E-05
  44 F= -.35413124E+03 E0= -.35412410E+03  d E =0.161699E-03  mag=    10.0000
       N       E                     dE             d eps       ncg     rms          ort
SDA:   1    -0.354125135143E+03    0.60972E-02    0.00000E+00 10080   0.402E-01 0.000E+00
CGA:   2    -0.354126504581E+03   -0.13694E-02   -0.14204E-02 10080   0.163E-01 0.136E-02
CGA:   3    -0.354129654873E+03   -0.31503E-02   -0.31043E-02 10080   0.272E-01 0.437E-03
CGA:   4    -0.354130839177E+03   -0.11843E-02   -0.11540E-02 10080   0.296E-02-0.954E-03
CGA:   5    -0.354131290085E+03   -0.45091E-03   -0.42973E-03 10080   0.262E-02 0.326E-03
CGA:   6    -0.354131438026E+03   -0.14794E-03   -0.13353E-03 10080   0.769E-03-0.360E-03
CGA:   7    -0.354131480681E+03   -0.42655E-04   -0.44407E-04 10080   0.273E-03 0.862E-04
CGA:   8    -0.354131510160E+03   -0.29480E-04   -0.29466E-04 10080   0.304E-03 0.194E-06
CGA:   9    -0.354131531562E+03   -0.21402E-04   -0.21386E-04 10080   0.699E-04-0.170E-05
CGA:  10    -0.354131537740E+03   -0.61781E-05   -0.65265E-05 10080   0.203E-03-0.422E-04
  45 F= -.35413154E+03 E0= -.35412440E+03  d E =-.297027E-03  mag=    10.0000
       N       E                     dE             d eps       ncg     rms          ort
SDA:   1    -0.354129240356E+03    0.22912E-02    0.00000E+00 10080   0.871E-02 0.000E+00
CGA:   2    -0.354129715390E+03   -0.47503E-03   -0.46351E-03 10080   0.999E-02-0.441E-03
CGA:   3    -0.354131220336E+03   -0.15049E-02   -0.14975E-02 10080   0.199E-02 0.942E-04
CGA:   4    -0.354131295345E+03   -0.75009E-04   -0.89099E-04 10080   0.114E-02 0.346E-03
CGA:   5    -0.354131455014E+03   -0.15967E-03   -0.16193E-03 10080   0.610E-03-0.596E-04
CGA:   6    -0.354131479312E+03   -0.24298E-04   -0.21675E-04 10080   0.170E-03-0.580E-04
CGA:   7    -0.354131501823E+03   -0.22511E-04   -0.23836E-04 10080   0.220E-03-0.186E-04
CGA:   8    -0.354131508687E+03   -0.68637E-05   -0.66890E-05 10080   0.268E-04-0.437E-05
  46 F= -.35413151E+03 E0= -.35412436E+03  d E =0.290529E-04  mag=    10.0000
