       N       E                     dE             d eps       ncg     rms          ort
DAV:   1     0.312416932483E+04    0.31242E+04   -0.14123E+05 10962   0.176E+03
DAV:   2     0.182740071051E+02   -0.31059E+04   -0.28346E+04 10962   0.463E+02
DAV:   3    -0.433407454330E+03   -0.45168E+03   -0.44040E+03 10962   0.198E+02
DAV:   4    -0.456467985136E+03   -0.23061E+02   -0.22193E+02 10962   0.427E+01
DAV:   5    -0.457870018632E+03   -0.14020E+01   -0.13687E+01 10962   0.749E+00
SDA:   6    -0.178592846525E+03    0.27928E+03   -0.13687E+01 10962   0.283E+04 0.000E+00
CGA:   7    -0.245945267697E+03   -0.67352E+02   -0.24612E+03 10962   0.450E+04-0.159E+04
CGA:   8    -0.150248347905E+03    0.95697E+02   -0.33247E+03 10962   0.929E+03-0.525E+03
CGA:   9    -0.293226151263E+03   -0.14298E+03   -0.20995E+02 10962   0.335E+03 0.565E+03
CGA:  10    -0.321795263825E+03   -0.28569E+02   -0.99170E+01 10962   0.118E+04-0.104E+04
CGA:  11    -0.261615822002E+03    0.60179E+02   -0.67851E+02 10962   0.717E+04-0.303E+04
CGA:  12    -0.149154313096E+03    0.11246E+03   -0.49988E+03 10962   0.994E+03-0.658E+03
CGA:  13    -0.301329954512E+03   -0.15218E+03   -0.21521E+02 10962   0.321E+03 0.557E+03
CGA:  14    -0.336148597696E+03   -0.34819E+02   -0.84091E+01 10962   0.887E+03-0.557E+03
CGA:  15    -0.306083776783E+03    0.30065E+02   -0.39395E+02 10962   0.637E+03-0.385E+03
CGA:  16    -0.319136191306E+03   -0.13052E+02   -0.10217E+02 10962   0.167E+04-0.110E+04
CGA:  17    -0.256832386392E+03    0.62304E+02   -0.78338E+02 10962   0.443E+04-0.262E+04
CGA:  18    -0.187186746470E+03    0.69646E+02   -0.22189E+03 10962   0.149E+04-0.975E+03
CGA:  19    -0.307261255015E+03   -0.12007E+03   -0.32826E+02 10962   0.282E+03-0.701E+03
CGA:  20    -0.351863405919E+03   -0.44602E+02   -0.17970E+01 10962   0.306E+03 0.120E+04
CGA:  21    -0.318880693096E+03    0.32983E+02   -0.10420E+02 10962   0.369E+04-0.654E+03
CGA:  22    -0.293130928643E+03    0.25750E+02   -0.17260E+03 10962   0.466E+03-0.282E+03
CGA:  23    -0.300312443362E+03   -0.71815E+01   -0.86698E+01 10962   0.428E+03-0.207E+03
CGA:  24    -0.338201715448E+03   -0.37889E+02   -0.30757E+01 10962   0.886E+03 0.220E+04
CGA:  25    -0.329345280565E+03    0.88564E+01   -0.33965E+02 10962   0.176E+04-0.143E+04
CGA:  26    -0.312198411823E+03    0.17147E+02   -0.71877E+02 10962   0.306E+04-0.145E+04
CGA:  27    -0.300022996445E+03    0.12175E+02   -0.11322E+03 10962   0.364E+03-0.570E+02
CGA:  28    -0.326558210302E+03   -0.26535E+02   -0.47840E+01 10962   0.174E+04-0.273E+04
CGA:  29    -0.336799870560E+03   -0.10242E+02   -0.63369E+02 10962   0.615E+03-0.753E+03
CGA:  30    -0.332709621816E+03    0.40902E+01   -0.97007E+01 10962   0.408E+04 0.604E+03
CGA:  31    -0.325305018293E+03    0.74046E+01   -0.13641E+03 10962   0.166E+04-0.794E+03
CGA:  32    -0.340794502732E+03   -0.15489E+02   -0.47010E+02 10962   0.488E+03-0.508E+03
CGA:  33    -0.343840096841E+03   -0.30456E+01   -0.72355E+01 10962   0.106E+04-0.755E+03
CGA:  34    -0.309149488803E+03    0.34691E+02   -0.30973E+02 10962   0.227E+04-0.768E+03
CGA:  35    -0.329176825319E+03   -0.20027E+02   -0.57003E+02 10962   0.228E+04 0.567E+02
CGA:  36    -0.333692461567E+03   -0.45156E+01   -0.69936E+02 10962   0.563E+03 0.242E+03
CGA:  37    -0.351387546170E+03   -0.17695E+02   -0.15032E+02 10962   0.776E+03-0.972E+03
CGA:  38    -0.334822765953E+03    0.16565E+02   -0.21285E+02 10962   0.798E+03-0.257E+03
CGA:  39    -0.313659994650E+03    0.21163E+02   -0.11876E+02 10962   0.692E+03-0.285E+03
CGA:  40    -0.339162758750E+03   -0.25503E+02   -0.67687E+01 10962   0.408E+04-0.255E+04
CGA:  41    -0.318315865088E+03    0.20847E+02   -0.11419E+03 10962   0.220E+04-0.875E+03
CGA:  42    -0.332416173268E+03   -0.14100E+02   -0.40467E+02 10962   0.143E+03-0.827E+02
CGA:  43    -0.339679938954E+03   -0.72638E+01   -0.13004E+01 10962   0.125E+04 0.148E+04
CGA:  44    -0.308581777539E+03    0.31098E+02   -0.26395E+02 10962   0.232E+03-0.124E+03
CGA:  45    -0.330412172448E+03   -0.21830E+02   -0.13919E+01 10962   0.335E+04 0.484E+04
CGA:  46    -0.331103240087E+03   -0.69107E+00   -0.78370E+02 10962   0.576E+03-0.493E+03
CGA:  47    -0.338291799946E+03   -0.71886E+01   -0.78155E+01 10962   0.590E+03 0.243E+03
CGA:  48    -0.306510006331E+03    0.31782E+02   -0.12067E+02 10962   0.235E+03-0.273E+03
CGA:  49    -0.324937713477E+03   -0.18428E+02   -0.43569E+01 10962   0.185E+04-0.456E+03
CGA:  50    -0.337759784085E+03   -0.12822E+02   -0.38134E+02 10962   0.131E+04 0.173E+03
CGA:  51    -0.304790164034E+03    0.32970E+02   -0.23698E+02 10962   0.112E+04-0.913E+03
CGA:  52    -0.341036316107E+03   -0.36246E+02   -0.14613E+02 10962   0.102E+03-0.127E+03
CGA:  53    -0.341871609005E+03   -0.83529E+00   -0.29600E+00 10962   0.316E+03 0.300E+03
CGA:  54    -0.353356263868E+03   -0.11485E+02   -0.22976E+01 10962   0.622E+03-0.145E+04
CGA:  55    -0.345421658002E+03    0.79346E+01   -0.80045E+01 10962   0.165E+04-0.732E+03
CGA:  56    -0.329421571032E+03    0.16000E+02   -0.22274E+02 10962   0.102E+04-0.587E+03
CGA:  57    -0.344403640549E+03   -0.14982E+02   -0.79521E+01 10962   0.187E+04-0.200E+04
CGA:  58    -0.329396129291E+03    0.15008E+02   -0.24431E+02 10962   0.101E+04-0.604E+03
CGA:  59    -0.343804692311E+03   -0.14409E+02   -0.75556E+01 10962   0.195E+04-0.221E+04
CGA:  60    -0.330192917003E+03    0.13612E+02   -0.23899E+02 10962   0.121E+04-0.722E+03
CGA:  61    -0.342798290621E+03   -0.12605E+02   -0.99629E+01 10962   0.140E+04-0.131E+04
CGA:  62    -0.333923479528E+03    0.88748E+01   -0.14670E+02 10962   0.166E+04-0.128E+04
CGA:  63    -0.336181375966E+03   -0.22579E+01   -0.18712E+02 10962   0.920E+03-0.707E+03
CGA:  64    -0.353598657547E+03   -0.17417E+02   -0.57573E+01 10962   0.481E+03-0.106E+04
CGA:  65    -0.354369019782E+03   -0.77036E+00   -0.32266E+01 10962   0.413E+03-0.449E+03
CGA:  66    -0.354545954380E+03   -0.17693E+00   -0.28026E+01 10962   0.339E+03-0.349E+03
CGA:  67    -0.355244599402E+03   -0.69865E+00   -0.20122E+01 10962   0.173E+03-0.247E+03
CGA:  68    -0.355713283433E+03   -0.46868E+00   -0.90072E+00 10962   0.409E+02-0.768E+02
CGA:  69    -0.355891357168E+03   -0.17807E+00   -0.18501E+00 10962   0.318E+01-0.109E+01
CGA:  70    -0.355951264870E+03   -0.59908E-01   -0.60123E-01 10962   0.112E+02-0.238E+00
CGA:  71    -0.356678504158E+03   -0.72724E+00   -0.84279E+00 10962   0.558E+01 0.205E+00
CGA:  72    -0.356843403890E+03   -0.16490E+00   -0.15903E+00 10962   0.121E+01 0.120E+01
CGA:  73    -0.357045607049E+03   -0.20220E+00   -0.33251E-01 10962   0.449E+00 0.186E+00
CGA:  74    -0.357142019827E+03   -0.96413E-01   -0.11349E+00 10962   0.251E+00-0.878E-01
CGA:  75    -0.357224970214E+03   -0.82950E-01   -0.95795E-02 10962   0.107E+00 0.192E-01
CGA:  76    -0.357252332591E+03   -0.27362E-01   -0.33042E-01 10962   0.850E-01-0.291E-01
CGA:  77    -0.357264223489E+03   -0.11891E-01   -0.33550E-02 10962   0.164E+00-0.533E-01
CGA:  78    -0.357293791580E+03   -0.29568E-01   -0.29536E-01 10962   0.245E-01-0.173E-02
CGA:  79    -0.357303375586E+03   -0.95840E-02   -0.10039E-01 10962   0.158E-01-0.204E-02
CGA:  80    -0.357313862254E+03   -0.10487E-01   -0.11508E-01 10962   0.166E-01-0.148E-02
CGA:  81    -0.357320143171E+03   -0.62809E-02   -0.61157E-02 10962   0.867E-02 0.102E-02
CGA:  82    -0.357325371851E+03   -0.52287E-02   -0.50817E-02 10962   0.953E-02 0.542E-03
CGA:  83    -0.357329800874E+03   -0.44290E-02   -0.11619E-01 10962   0.536E-01-0.622E-02
CGA:  84    -0.357340118827E+03   -0.10318E-01   -0.11482E-01 10962   0.948E-02 0.223E-02
CGA:  85    -0.357344829944E+03   -0.47111E-02   -0.47012E-02 10962   0.560E-02-0.148E-03
CGA:  86    -0.357347144473E+03   -0.23145E-02   -0.46789E-02 10962   0.261E-01-0.293E-02
CGA:  87    -0.357352056913E+03   -0.49124E-02   -0.60128E-02 10962   0.504E-02 0.290E-02
CGA:  88    -0.357355683776E+03   -0.36269E-02   -0.32723E-02 10962   0.488E-02 0.120E-02
CGA:  89    -0.357360697532E+03   -0.50138E-02   -0.66164E-02 10962   0.366E-01-0.690E-03
CGA:  90    -0.357358310561E+03    0.23870E-02   -0.23956E-02 10962   0.946E-01 0.981E-02
CGA:  91    -0.357354342720E+03    0.39678E-02   -0.73860E-02 10962   0.136E+00 0.649E-01
CGA:  92    -0.357380641392E+03   -0.26299E-01   -0.33258E-01 10962   0.280E-01 0.136E-01
CGA:  93    -0.357395926157E+03   -0.15285E-01   -0.14333E-01 10962   0.103E-01 0.581E-02
CGA:  94    -0.357405057193E+03   -0.91310E-02   -0.12276E-01 10962   0.360E-01-0.484E-02
CGA:  95    -0.357405928997E+03   -0.87180E-03   -0.19050E-02 10962   0.427E-01 0.144E-02
CGA:  96    -0.357410183300E+03   -0.42543E-02   -0.59461E-02 10962   0.275E-01-0.473E-03
CGA:  97    -0.357414948536E+03   -0.47652E-02   -0.51221E-02 10962   0.267E-01 0.127E-02
CGA:  98    -0.357422531851E+03   -0.75833E-02   -0.75882E-02 10962   0.328E-01-0.175E-03
CGA:  99    -0.357431128056E+03   -0.85962E-02   -0.82738E-02 10962   0.333E-01-0.109E-02
CGA: 100    -0.357438580654E+03   -0.74526E-02   -0.72232E-02 10962   0.334E-01 0.146E-02
CGA: 101    -0.357444649757E+03   -0.60691E-02   -0.63727E-02 10962   0.292E-01 0.264E-02
CGA: 102    -0.357449932906E+03   -0.52831E-02   -0.56214E-02 10962   0.260E-01 0.303E-02
CGA: 103    -0.357454328253E+03   -0.43953E-02   -0.47152E-02 10962   0.205E-01 0.249E-02
CGA: 104    -0.357457355918E+03   -0.30277E-02   -0.33180E-02 10962   0.158E-01 0.178E-02
CGA: 105    -0.357459765175E+03   -0.24093E-02   -0.26815E-02 10962   0.153E-01 0.160E-02
CGA: 106    -0.357462143633E+03   -0.23785E-02   -0.26560E-02 10962   0.145E-01 0.183E-02
CGA: 107    -0.357464163900E+03   -0.20203E-02   -0.22820E-02 10962   0.120E-01 0.180E-02
CGA: 108    -0.357465776970E+03   -0.16131E-02   -0.18266E-02 10962   0.108E-01 0.153E-02
CGA: 109    -0.357467316834E+03   -0.15399E-02   -0.16900E-02 10962   0.103E-01 0.134E-02
CGA: 110    -0.357468651459E+03   -0.13346E-02   -0.14333E-02 10962   0.822E-02 0.928E-03
CGA: 111    -0.357469623584E+03   -0.97213E-03   -0.10183E-02 10962   0.645E-02 0.490E-03
CGA: 112    -0.357470395064E+03   -0.77148E-03   -0.78440E-03 10962   0.575E-02 0.273E-03
CGA: 113    -0.357471060838E+03   -0.66577E-03   -0.66540E-03 10962   0.508E-02 0.189E-03
CGA: 114    -0.357471606999E+03   -0.54616E-03   -0.53751E-03 10962   0.417E-02 0.113E-03
CGA: 115    -0.357472061946E+03   -0.45495E-03   -0.43338E-03 10962   0.362E-02-0.237E-04
CGA: 116    -0.357472482769E+03   -0.42082E-03   -0.37992E-03 10962   0.344E-02-0.214E-03
CGA: 117    -0.357472882776E+03   -0.40001E-03   -0.33675E-03 10962   0.327E-02-0.422E-03
CGA: 118    -0.357473247506E+03   -0.36473E-03   -0.28482E-03 10962   0.309E-02-0.582E-03
CGA: 119    -0.357473582058E+03   -0.33455E-03   -0.24768E-03 10962   0.308E-02-0.681E-03
CGA: 120    -0.357473898171E+03   -0.31611E-03   -0.22698E-03 10962   0.319E-02-0.720E-03
CGA: 121    -0.357474199154E+03   -0.30098E-03   -0.21481E-03 10962   0.319E-02-0.689E-03
SDA: 122    -0.357474490107E+03   -0.29095E-03   -0.21299E-03 10962   0.318E-02-0.639E-03
CGA: 123    -0.357476906003E+03   -0.24159E-02   -0.24271E-02 10962   0.322E-02-0.688E-04
CGA: 124    -0.357478134984E+03   -0.12290E-02   -0.12960E-02 10962   0.111E-02-0.334E-03
CGA: 125    -0.357478406694E+03   -0.27171E-03   -0.26596E-03 10962   0.404E-03 0.143E-03
CGA: 126    -0.357478626986E+03   -0.22029E-03   -0.24644E-03 10962   0.464E-03-0.846E-04
CGA: 127    -0.357477918791E+03    0.70820E-03   -0.40010E-03 10962   0.521E-02-0.973E-03
CGA: 128    -0.357479008220E+03   -0.10894E-02   -0.11511E-02 10962   0.114E-02 0.274E-03
CGA: 129    -0.357479541852E+03   -0.53363E-03   -0.53506E-03 10962   0.225E-03-0.976E-04
CGA: 130    -0.357479594443E+03   -0.52592E-04   -0.58652E-04 10962   0.691E-04 0.411E-04
CGA: 131    -0.357479610012E+03   -0.15569E-04   -0.21910E-04 10962   0.385E-04 0.402E-04
CGA: 132    -0.357479635313E+03   -0.25300E-04   -0.26625E-04 10962   0.650E-04-0.489E-05
CGA: 133    -0.357479645336E+03   -0.10024E-04   -0.15378E-04 10962   0.401E-04 0.333E-04
CGA: 134    -0.357479657142E+03   -0.11806E-04   -0.12579E-04 10962   0.154E-04 0.703E-05
CGA: 135    -0.357479679440E+03   -0.22298E-04   -0.24599E-04 10962   0.598E-04-0.264E-05
CGA: 136    -0.357479692319E+03   -0.12879E-04   -0.15641E-04 10962   0.557E-04 0.177E-04
CGA: 137    -0.357479711171E+03   -0.18851E-04   -0.22022E-04 10962   0.421E-04 0.196E-04
CGA: 138    -0.357479736542E+03   -0.25371E-04   -0.25348E-04 10962   0.246E-04-0.627E-05
CGA: 139    -0.357479742105E+03   -0.55638E-05   -0.58882E-05 10962   0.124E-04 0.147E-05
   1 F= -.35747974E+03 E0= -.35747974E+03  d E =-.357480E+03  mag=    12.0000
       N       E                     dE             d eps       ncg     rms          ort
SDA:   1    -0.357479607496E+03    0.12905E-03    0.00000E+00 10962   0.119E-02 0.000E+00
CGA:   2    -0.357479876060E+03   -0.26856E-03   -0.26674E-03 10962   0.765E-03-0.892E-05
CGA:   3    -0.357479999494E+03   -0.12343E-03   -0.12183E-03 10962   0.224E-03-0.625E-05
CGA:   4    -0.357480032411E+03   -0.32917E-04   -0.33610E-04 10962   0.530E-04 0.261E-05
CGA:   5    -0.357480039979E+03   -0.75679E-05   -0.83229E-05 10962   0.142E-04 0.308E-05
   2 F= -.35748004E+03 E0= -.35748004E+03  d E =-.297873E-03  mag=    12.0000
       N       E                     dE             d eps       ncg     rms          ort
SDA:   1    -0.357471388136E+03    0.86443E-02    0.00000E+00 10962   0.268E-01 0.000E+00
CGA:   2    -0.357477249487E+03   -0.58614E-02   -0.58557E-02 10962   0.169E-01-0.438E-04
CGA:   3    -0.357479988683E+03   -0.27392E-02   -0.27304E-02 10962   0.493E-02-0.464E-04
CGA:   4    -0.357480752941E+03   -0.76426E-03   -0.76427E-03 10962   0.114E-02-0.101E-05
CGA:   5    -0.357480934584E+03   -0.18164E-03   -0.18338E-03 10962   0.298E-03 0.901E-05
CGA:   6    -0.357480988136E+03   -0.53552E-04   -0.53888E-04 10962   0.892E-04 0.204E-05
CGA:   7    -0.357481006622E+03   -0.18486E-04   -0.18801E-04 10962   0.321E-04 0.257E-05
CGA:   8    -0.357481013177E+03   -0.65552E-05   -0.70899E-05 10962   0.124E-04 0.484E-05
   3 F= -.35748101E+03 E0= -.35748101E+03  d E =-.973199E-03  mag=    12.0000
       N       E                     dE             d eps       ncg     rms          ort
SDA:   1    -0.357416965449E+03    0.64041E-01    0.00000E+00 10962   0.187E+00 0.000E+00
CGA:   2    -0.357455898151E+03   -0.38933E-01   -0.38929E-01 10962   0.115E+00-0.115E-03
CGA:   3    -0.357474980104E+03   -0.19082E-01   -0.19058E-01 10962   0.343E-01-0.187E-03
CGA:   4    -0.357480217989E+03   -0.52379E-02   -0.52319E-02 10962   0.783E-02-0.456E-04
CGA:   5    -0.357481458962E+03   -0.12410E-02   -0.12448E-02 10962   0.201E-02 0.267E-04
CGA:   6    -0.357481805989E+03   -0.34703E-03   -0.34913E-03 10962   0.564E-03 0.178E-04
CGA:   7    -0.357481921683E+03   -0.11569E-03   -0.11652E-03 10962   0.186E-03 0.105E-04
CGA:   8    -0.357481963707E+03   -0.42024E-04   -0.42637E-04 10962   0.735E-04 0.113E-04
CGA:   9    -0.357481984652E+03   -0.20945E-04   -0.20981E-04 10962   0.345E-04 0.519E-05
CGA:  10    -0.357481996731E+03   -0.12079E-04   -0.12178E-04 10962   0.205E-04-0.184E-05
CGA:  11    -0.357482003873E+03   -0.71416E-05   -0.83880E-05 10962   0.195E-04-0.814E-05
CGA:  12    -0.357481912104E+03    0.91768E-04   -0.49471E-04 10962   0.462E-03-0.741E-04
CGA:  13    -0.357481996248E+03   -0.84144E-04   -0.88752E-04 10962   0.766E-04 0.138E-04
CGA:  14    -0.357482027383E+03   -0.31134E-04   -0.30319E-04 10962   0.331E-04-0.679E-05
CGA:  15    -0.357482037167E+03   -0.97847E-05   -0.10589E-04 10962   0.130E-04 0.541E-05
CGA:  16    -0.357481789404E+03    0.24776E-03   -0.13406E-03 10962   0.112E-02-0.110E-03
CGA:  17    -0.357481959611E+03   -0.17021E-03   -0.21643E-03 10962   0.198E-03 0.635E-04
CGA:  18    -0.357482040087E+03   -0.80475E-04   -0.63129E-04 10962   0.611E-04-0.310E-04
CGA:  19    -0.357482048218E+03   -0.81316E-05   -0.14857E-04 10962   0.217E-04 0.123E-04
CGA:  20    -0.357482061822E+03   -0.13604E-04   -0.13032E-04 10962   0.110E-04-0.188E-05
CGA:  21    -0.357482069731E+03   -0.79086E-05   -0.69286E-05 10962   0.189E-04-0.982E-05
   4 F= -.35748207E+03 E0= -.35748207E+03  d E =-.105655E-02  mag=    12.0000
       N       E                     dE             d eps       ncg     rms          ort
SDA:   1    -0.357363969270E+03    0.11809E+00    0.00000E+00 10962   0.312E+00 0.000E+00
CGA:   2    -0.357441197127E+03   -0.77228E-01   -0.77218E-01 10962   0.199E+00-0.102E-03
CGA:   3    -0.357471050272E+03   -0.29853E-01   -0.29800E-01 10962   0.510E-01 0.197E-03
CGA:   4    -0.357478921700E+03   -0.78714E-02   -0.78593E-02 10962   0.119E-01-0.694E-05
CGA:   5    -0.357480816355E+03   -0.18947E-02   -0.18988E-02 10962   0.312E-02 0.556E-05
CGA:   6    -0.357481356151E+03   -0.53980E-03   -0.54266E-03 10962   0.885E-03 0.563E-05
CGA:   7    -0.357481537458E+03   -0.18131E-03   -0.18309E-03 10962   0.288E-03 0.410E-05
CGA:   8    -0.357481603916E+03   -0.66458E-04   -0.68477E-04 10962   0.123E-03 0.546E-05
CGA:   9    -0.357481637903E+03   -0.33987E-04   -0.34792E-04 10962   0.581E-04 0.260E-05
CGA:  10    -0.357481656276E+03   -0.18374E-04   -0.18055E-04 10962   0.274E-04-0.124E-05
CGA:  11    -0.357481666217E+03   -0.99407E-05   -0.90943E-05 10962   0.145E-04-0.396E-05
   5 F= -.35748167E+03 E0= -.35748167E+03  d E =0.403514E-03  mag=    12.0000
       N       E                     dE             d eps       ncg     rms          ort
SDA:   1    -0.353746340056E+03    0.37353E+01    0.00000E+00 10962   0.979E+01 0.000E+00
CGA:   2    -0.356237080107E+03   -0.24907E+01   -0.24969E+01 10962   0.603E+01-0.399E-02
CGA:   3    -0.357142001116E+03   -0.90492E+00   -0.90209E+00 10962   0.148E+01 0.934E-01
CGA:   4    -0.357379613676E+03   -0.23761E+00   -0.23680E+00 10962   0.355E+00 0.671E-02
CGA:   5    -0.357436760784E+03   -0.57147E-01   -0.57239E-01 10962   0.940E-01 0.131E-04
CGA:   6    -0.357453274676E+03   -0.16514E-01   -0.16549E-01 10962   0.276E-01 0.804E-04
CGA:   7    -0.357459023750E+03   -0.57491E-02   -0.57385E-02 10962   0.925E-02-0.419E-04
CGA:   8    -0.357461262103E+03   -0.22384E-02   -0.22334E-02 10962   0.408E-02-0.263E-04
CGA:   9    -0.357462404016E+03   -0.11419E-02   -0.11378E-02 10962   0.188E-02-0.261E-04
CGA:  10    -0.357462947681E+03   -0.54367E-03   -0.53776E-03 10962   0.761E-03-0.413E-04
CGA:  11    -0.357463161622E+03   -0.21394E-03   -0.21129E-03 10962   0.267E-03-0.191E-04
CGA:  12    -0.357463248493E+03   -0.86871E-04   -0.84967E-04 10962   0.125E-03-0.210E-04
CGA:  13    -0.357463291284E+03   -0.42791E-04   -0.42820E-04 10962   0.756E-04 0.676E-06
CGA:  14    -0.357463324386E+03   -0.33102E-04   -0.32994E-04 10962   0.526E-04 0.449E-05
CGA:  15    -0.357463355064E+03   -0.30678E-04   -0.33782E-04 10962   0.607E-04-0.160E-04
CGA:  16    -0.357463373300E+03   -0.18236E-04   -0.18339E-04 10962   0.457E-04-0.803E-05
CGA:  17    -0.357463387264E+03   -0.13964E-04   -0.33639E-04 10962   0.128E-03-0.463E-04
CGA:  18    -0.357463422429E+03   -0.35165E-04   -0.36338E-04 10962   0.239E-04 0.729E-05
CGA:  19    -0.357463445556E+03   -0.23127E-04    0.10169E-03 10962   0.218E-04 0.170E-05
CGA:  20    -0.357463450868E+03   -0.53118E-05   -0.66714E-05 10962   0.102E-04 0.911E-05
   6 F= -.35746345E+03 E0= -.35746345E+03  d E =0.182153E-01  mag=    12.0000
       N       E                     dE             d eps       ncg     rms          ort
SDA:   1    -0.355790900852E+03    0.16725E+01    0.00000E+00 10962   0.412E+01 0.000E+00
CGA:   2    -0.356994793296E+03   -0.12039E+01   -0.12042E+01 10962   0.230E+01-0.278E-03
CGA:   3    -0.357322522298E+03   -0.32773E+00   -0.32744E+00 10962   0.590E+00 0.626E-02
CGA:   4    -0.357415177835E+03   -0.92656E-01   -0.92574E-01 10962   0.138E+00 0.143E-03
CGA:   5    -0.357437382220E+03   -0.22204E-01   -0.22211E-01 10962   0.374E-01-0.276E-04
CGA:   6    -0.357444075366E+03   -0.66931E-02   -0.66971E-02 10962   0.112E-01 0.115E-04
CGA:   7    -0.357446400477E+03   -0.23251E-02   -0.23261E-02 10962   0.385E-02 0.340E-05
CGA:   8    -0.357447349332E+03   -0.94885E-03   -0.95115E-03 10962   0.176E-02 0.182E-04
CGA:   9    -0.357447846066E+03   -0.49673E-03   -0.49670E-03 10962   0.819E-03-0.217E-06
CGA:  10    -0.357448090518E+03   -0.24445E-03   -0.24264E-03 10962   0.342E-03-0.287E-04
CGA:  11    -0.357448191218E+03   -0.10070E-03   -0.99293E-04 10962   0.138E-03-0.255E-04
CGA:  12    -0.357448236174E+03   -0.44957E-04   -0.44931E-04 10962   0.794E-04-0.131E-04
CGA:  13    -0.357448266229E+03   -0.30055E-04   -0.30011E-04 10962   0.600E-04 0.820E-06
CGA:  14    -0.357448298577E+03   -0.32348E-04   -0.32787E-04 10962   0.592E-04-0.203E-05
CGA:  15    -0.357448329781E+03   -0.31204E-04   -0.33780E-04 10962   0.622E-04-0.107E-04
CGA:  16    -0.357448356637E+03   -0.26855E-04   -0.30932E-04 10962   0.682E-04-0.165E-04
CGA:  17    -0.357448382131E+03   -0.25494E-04   -0.26424E-04 10962   0.612E-04-0.543E-05
CGA:  18    -0.357448414434E+03   -0.32303E-04   -0.35141E-04 10962   0.692E-04-0.117E-04
CGA:  19    -0.357448440473E+03   -0.26039E-04   -0.26152E-04 10962   0.489E-04-0.980E-06
CGA:  20    -0.357448463951E+03   -0.23478E-04   -0.24925E-04 10962   0.394E-04-0.133E-04
CGA:  21    -0.357448468159E+03   -0.42078E-05   -0.61899E-05 10962   0.211E-04 0.100E-04
   7 F= -.35744847E+03 E0= -.35744847E+03  d E =0.149827E-01  mag=    12.0000
       N       E                     dE             d eps       ncg     rms          ort
SDA:   1    -0.356930569385E+03    0.51789E+00    0.00000E+00 10962   0.157E+01 0.000E+00
CGA:   2    -0.357247637597E+03   -0.31707E+00   -0.31747E+00 10962   0.927E+00 0.856E-04
CGA:   3    -0.357402491654E+03   -0.15485E+00   -0.15495E+00 10962   0.288E+00 0.677E-03
CGA:   4    -0.357446670373E+03   -0.44179E-01   -0.44174E-01 10962   0.668E-01 0.794E-04
CGA:   5    -0.357457211989E+03   -0.10542E-01   -0.10551E-01 10962   0.170E-01 0.252E-04
CGA:   6    -0.357460121962E+03   -0.29100E-02   -0.29170E-02 10962   0.470E-02 0.333E-04
CGA:   7    -0.357461082260E+03   -0.96030E-03   -0.96151E-03 10962   0.150E-02 0.780E-05
CGA:   8    -0.357461422776E+03   -0.34052E-03   -0.34228E-03 10962   0.589E-03 0.158E-04
CGA:   9    -0.357461580405E+03   -0.15763E-03   -0.15817E-03 10962   0.255E-03 0.809E-05
CGA:  10    -0.357461657250E+03   -0.76846E-04   -0.76737E-04 10962   0.114E-03-0.339E-05
CGA:  11    -0.357461687146E+03   -0.29895E-04   -0.30386E-04 10962   0.411E-04 0.844E-05
CGA:  12    -0.357461699588E+03   -0.12443E-04   -0.12599E-04 10962   0.168E-04 0.402E-05
CGA:  13    -0.357461707871E+03   -0.82823E-05   -0.11484E-04 10962   0.330E-04-0.107E-04
   8 F= -.35746171E+03 E0= -.35746171E+03  d E =-.132397E-01  mag=    12.0000
       N       E                     dE             d eps       ncg     rms          ort
SDA:   1    -0.357037547261E+03    0.42415E+00    0.00000E+00 10962   0.104E+01 0.000E+00
CGA:   2    -0.357344434825E+03   -0.30689E+00   -0.30688E+00 10962   0.587E+00-0.492E-03
CGA:   3    -0.357427797155E+03   -0.83362E-01   -0.83364E-01 10962   0.149E+00-0.597E-04
CGA:   4    -0.357450595844E+03   -0.22799E-01   -0.22804E-01 10962   0.349E-01 0.683E-05
CGA:   5    -0.357456224486E+03   -0.56286E-02   -0.56300E-02 10962   0.972E-02 0.173E-05
CGA:   6    -0.357457954906E+03   -0.17304E-02   -0.17303E-02 10962   0.287E-02-0.307E-05
CGA:   7    -0.357458540506E+03   -0.58560E-03   -0.58483E-03 10962   0.980E-03-0.898E-05
CGA:   8    -0.357458780221E+03   -0.23971E-03   -0.23983E-03 10962   0.438E-03 0.229E-05
CGA:   9    -0.357458902668E+03   -0.12245E-03   -0.12245E-03 10962   0.203E-03 0.110E-07
CGA:  10    -0.357458964702E+03   -0.62034E-04   -0.62275E-04 10962   0.910E-04-0.139E-04
CGA:  11    -0.357458987063E+03   -0.22361E-04   -0.22407E-04 10962   0.301E-04 0.175E-05
CGA:  12    -0.357458994286E+03   -0.72234E-05   -0.75033E-05 10962   0.116E-04 0.629E-05
   9 F= -.35745899E+03 E0= -.35745899E+03  d E =0.271358E-02  mag=    12.0000
       N       E                     dE             d eps       ncg     rms          ort
SDA:   1    -0.355108293800E+03    0.23507E+01    0.00000E+00 10962   0.554E+01 0.000E+00
CGA:   2    -0.356998597189E+03   -0.18903E+01   -0.18904E+01 10962   0.202E+01-0.272E-02
CGA:   3    -0.357316818664E+03   -0.31822E+00   -0.31828E+00 10962   0.649E+00-0.157E-03
CGA:   4    -0.357409429510E+03   -0.92611E-01   -0.92626E-01 10962   0.139E+00-0.923E-04
CGA:   5    -0.357433211581E+03   -0.23782E-01   -0.23763E-01 10962   0.426E-01-0.205E-03
CGA:   6    -0.357440727274E+03   -0.75157E-02   -0.75037E-02 10962   0.125E-01-0.139E-03
CGA:   7    -0.357443361876E+03   -0.26346E-02   -0.26295E-02 10962   0.475E-02-0.983E-04
CGA:   8    -0.357444576672E+03   -0.12148E-02   -0.12144E-02 10962   0.228E-02-0.876E-04
CGA:   9    -0.357445231445E+03   -0.65477E-03   -0.65781E-03 10962   0.113E-02-0.921E-04
CGA:  10    -0.357445549444E+03   -0.31800E-03   -0.32138E-03 10962   0.467E-03-0.995E-04
CGA:  11    -0.357445672176E+03   -0.12273E-03   -0.12368E-03 10962   0.173E-03-0.374E-04
CGA:  12    -0.357445718974E+03   -0.46798E-04   -0.46502E-04 10962   0.760E-04 0.113E-04
CGA:  13    -0.357445744683E+03   -0.25709E-04   -0.24863E-04 10962   0.428E-04 0.212E-04
CGA:  14    -0.357445763377E+03   -0.18694E-04   -0.17669E-04 10962   0.277E-04 0.193E-04
CGA:  15    -0.357445779286E+03   -0.15908E-04   -0.14681E-04 10962   0.188E-04 0.131E-04
CGA:  16    -0.357445793900E+03   -0.14614E-04   -0.13453E-04 10962   0.190E-04 0.549E-05
CGA:  17    -0.357445807757E+03   -0.13857E-04   -0.12507E-04 10962   0.222E-04 0.599E-05
CGA:  18    -0.357445829814E+03   -0.22057E-04   -0.29351E-04 10962   0.738E-04-0.103E-04
CGA:  19    -0.357445841496E+03   -0.11682E-04   -0.10998E-04 10962   0.990E-04-0.115E-04
CGA:  20    -0.357445866536E+03   -0.25041E-04   -0.24252E-04 10962   0.813E-04-0.206E-04
CGA:  21    -0.357445888483E+03   -0.21947E-04   -0.22449E-04 10962   0.941E-04-0.298E-04
CGA:  22    -0.357445906611E+03   -0.18128E-04   -0.17333E-04 10962   0.110E-03-0.263E-04
CGA:  23    -0.357445929615E+03   -0.23003E-04   -0.21853E-04 10962   0.118E-03-0.326E-04
CGA:  24    -0.357445955150E+03   -0.25535E-04   -0.23820E-04 10962   0.127E-03-0.559E-04
CGA:  25    -0.357445974000E+03   -0.18851E-04   -0.13447E-04 10962   0.116E-03-0.538E-04
CGA:  26    -0.357445990683E+03   -0.16682E-04   -0.11974E-04 10962   0.927E-04-0.443E-04
CGA:  27    -0.357446002255E+03   -0.11573E-04   -0.89959E-05 10962   0.744E-04-0.237E-04
CGA:  28    -0.357446010693E+03   -0.84377E-05   -0.80844E-05 10962   0.608E-04-0.648E-05
  10 F= -.35744601E+03 E0= -.35744601E+03  d E =0.129836E-01  mag=    12.0000
       N       E                     dE             d eps       ncg     rms          ort
SDA:   1    -0.335230210932E+03    0.22216E+02    0.00000E+00 10962   0.560E+02 0.000E+00
CGA:   2    -0.350517588804E+03   -0.15287E+02   -0.15291E+02 10962   0.325E+02 0.113E+00
CGA:   3    -0.355339214621E+03   -0.48216E+01   -0.48264E+01 10962   0.904E+01 0.103E+00
CGA:   4    -0.356714886998E+03   -0.13757E+01   -0.13749E+01 10962   0.202E+01 0.976E-02
CGA:   5    -0.357038830146E+03   -0.32394E+00   -0.32415E+00 10962   0.588E+00 0.673E-03
CGA:   6    -0.357148296270E+03   -0.10947E+00   -0.10953E+00 10962   0.196E+00 0.333E-03
CGA:   7    -0.357189984151E+03   -0.41688E-01   -0.41661E-01 10962   0.729E-01-0.610E-03
CGA:   8    -0.357208335572E+03   -0.18351E-01   -0.18347E-01 10962   0.346E-01-0.605E-03
CGA:   9    -0.357217796775E+03   -0.94612E-02   -0.94689E-02 10962   0.151E-01-0.508E-03
CGA:  10    -0.357221981873E+03   -0.41851E-02   -0.41964E-02 10962   0.573E-02-0.556E-03
CGA:  11    -0.357223538507E+03   -0.15566E-02   -0.15606E-02 10962   0.206E-02-0.192E-03
CGA:  12    -0.357224157016E+03   -0.61851E-03   -0.61873E-03 10962   0.965E-03-0.450E-05
CGA:  13    -0.357224541355E+03   -0.38434E-03   -0.38086E-03 10962   0.671E-03 0.269E-04
CGA:  14    -0.357224837009E+03   -0.29565E-03   -0.28137E-03 10962   0.459E-03 0.106E-03
CGA:  15    -0.357225062391E+03   -0.22538E-03   -0.21304E-03 10962   0.289E-03 0.102E-03
CGA:  16    -0.357225200246E+03   -0.13785E-03   -0.12823E-03 10962   0.185E-03 0.123E-03
CGA:  17    -0.357225324517E+03   -0.12427E-03   -0.11075E-03 10962   0.165E-03 0.104E-03
CGA:  18    -0.357225416770E+03   -0.92253E-04   -0.10500E-03 10962   0.226E-03-0.379E-04
CGA:  19    -0.357225532150E+03   -0.11538E-03   -0.10147E-03 10962   0.242E-03 0.509E-04
CGA:  20    -0.357225737332E+03   -0.20518E-03   -0.22291E-03 10962   0.489E-03-0.444E-04
CGA:  21    -0.357225881089E+03   -0.14376E-03   -0.14262E-03 10962   0.439E-03 0.107E-03
CGA:  22    -0.357226101368E+03   -0.22028E-03   -0.21596E-03 10962   0.343E-03 0.563E-04
CGA:  23    -0.357226281365E+03   -0.18000E-03   -0.22545E-03 10962   0.823E-03-0.224E-03
CGA:  24    -0.357226393954E+03   -0.11259E-03   -0.14242E-03 10962   0.144E-03 0.157E-03
CGA:  25    -0.357226457882E+03   -0.63928E-04   -0.63977E-04 10962   0.731E-04-0.282E-05
CGA:  26    -0.357226516306E+03   -0.58424E-04    0.83213E-04 10962   0.810E-04 0.191E-04
CGA:  27    -0.357226592691E+03   -0.76385E-04   -0.87927E-04 10962   0.110E-03-0.248E-04
CGA:  28    -0.357226615935E+03   -0.23244E-04   -0.61676E-04 10962   0.208E-03-0.933E-04
CGA:  29    -0.357226703078E+03   -0.87143E-04   -0.10354E-03 10962   0.370E-03-0.167E-03
CGA:  30    -0.357226730872E+03   -0.27794E-04   -0.52499E-04 10962   0.418E-04 0.935E-04
CGA:  31    -0.357226734316E+03   -0.34441E-05   -0.82818E-05 10962   0.249E-04 0.206E-04
CGA:  32    -0.357226753265E+03   -0.18949E-04   -0.32186E-04 10962   0.172E-03-0.275E-04
CGA:  33    -0.357226807390E+03   -0.54125E-04   -0.48659E-04 10962   0.280E-04-0.451E-04
CGA:  34    -0.357226805735E+03    0.16553E-05   -0.24964E-05 10962   0.147E-04 0.149E-04
  11 F= -.35722681E+03 E0= -.35722681E+03  d E =0.219205E+00  mag=    12.0000
       N       E                     dE             d eps       ncg     rms          ort
SDA:   1    -0.356753893751E+03    0.47291E+00    0.00000E+00 10962   0.149E+01 0.000E+00
CGA:   2    -0.357234048447E+03   -0.48015E+00   -0.48007E+00 10962   0.565E+00-0.974E-03
CGA:   3    -0.357341379707E+03   -0.10733E+00   -0.10724E+00 10962   0.223E+00-0.662E-03
CGA:   4    -0.357372933219E+03   -0.31554E-01   -0.31489E-01 10962   0.524E-01-0.346E-03
CGA:   5    -0.357383140009E+03   -0.10207E-01   -0.10179E-01 10962   0.200E-01-0.180E-03
CGA:   6    -0.357386769573E+03   -0.36296E-02   -0.35979E-02 10962   0.709E-02-0.195E-03
CGA:   7    -0.357388574384E+03   -0.18048E-02   -0.17801E-02 10962   0.365E-02-0.305E-03
CGA:   8    -0.357389451918E+03   -0.87753E-03   -0.85547E-03 10962   0.153E-02-0.258E-03
CGA:   9    -0.357389858981E+03   -0.40706E-03   -0.40024E-03 10962   0.681E-03-0.155E-03
CGA:  10    -0.357390030784E+03   -0.17180E-03   -0.16867E-03 10962   0.270E-03-0.647E-04
CGA:  11    -0.357390112011E+03   -0.81227E-04   -0.81737E-04 10962   0.148E-03-0.380E-04
CGA:  12    -0.357390164564E+03   -0.52553E-04   -0.79884E-04 10962   0.286E-03-0.897E-04
CGA:  13    -0.357390232362E+03   -0.67798E-04   -0.66575E-04 10962   0.684E-04-0.118E-04
CGA:  14    -0.357390170406E+03    0.61956E-04   -0.88415E-04 10962   0.747E-03-0.148E-03
CGA:  15    -0.357390321103E+03   -0.15070E-03   -0.15233E-03 10962   0.861E-04 0.899E-05
CGA:  16    -0.357390357544E+03   -0.36440E-04   -0.37437E-04 10962   0.334E-04-0.179E-04
CGA:  17    -0.357390366348E+03   -0.88040E-05   -0.90812E-05 10962   0.205E-04 0.829E-05
CGA:  18    -0.357390390870E+03   -0.24522E-04    0.17234E-04 10962   0.140E-04 0.892E-05
CGA:  19    -0.357390414641E+03   -0.23771E-04    0.66159E-05 10962   0.121E-04 0.143E-04
CGA:  20    -0.357390422445E+03   -0.78046E-05   -0.77181E-05 10962   0.171E-04 0.307E-06
  12 F= -.35739042E+03 E0= -.35739042E+03  d E =-.163617E+00  mag=    12.0000
       N       E                     dE             d eps       ncg     rms          ort
SDA:   1    -0.357362370676E+03    0.28044E-01    0.00000E+00 10962   0.115E+00 0.000E+00
CGA:   2    -0.357395885784E+03   -0.33515E-01   -0.33502E-01 10962   0.591E-01-0.137E-03
CGA:   3    -0.357405265660E+03   -0.93799E-02   -0.93493E-02 10962   0.208E-01-0.149E-03
CGA:   4    -0.357408525765E+03   -0.32601E-02   -0.32388E-02 10962   0.509E-02-0.103E-03
CGA:   5    -0.357409418135E+03   -0.89237E-03   -0.88424E-03 10962   0.185E-02-0.442E-04
CGA:   6    -0.357409775545E+03   -0.35741E-03   -0.34859E-03 10962   0.654E-03-0.545E-04
CGA:   7    -0.357409948331E+03   -0.17279E-03   -0.16504E-03 10962   0.386E-03-0.924E-04
CGA:   8    -0.357410052812E+03   -0.10448E-03   -0.10059E-03 10962   0.244E-03-0.108E-03
CGA:   9    -0.357410108566E+03   -0.55753E-04   -0.53621E-04 10962   0.149E-03-0.663E-04
CGA:  10    -0.357410140487E+03   -0.31922E-04   -0.31074E-04 10962   0.732E-04-0.167E-04
CGA:  11    -0.357410160702E+03   -0.20215E-04   -0.20336E-04 10962   0.450E-04 0.580E-05
CGA:  12    -0.357410179895E+03   -0.19193E-04   -0.18970E-04 10962   0.414E-04 0.394E-05
CGA:  13    -0.357410203318E+03   -0.23423E-04   -0.24202E-04 10962   0.512E-04-0.359E-05
CGA:  14    -0.357410225560E+03   -0.22242E-04   -0.33316E-04 10962   0.995E-04-0.291E-04
CGA:  15    -0.357410262514E+03   -0.36954E-04   -0.37247E-04 10962   0.587E-04-0.286E-04
CGA:  16    -0.357410274032E+03   -0.11518E-04   -0.37123E-04 10962   0.125E-03-0.490E-04
CGA:  17    -0.357410303597E+03   -0.29565E-04   -0.29994E-04 10962   0.185E-04 0.282E-05
CGA:  18    -0.357410305644E+03   -0.20463E-05   -0.38485E-05 10962   0.710E-05 0.101E-04
  13 F= -.35741031E+03 E0= -.35741031E+03  d E =-.198832E-01  mag=    12.0000
       N       E                     dE             d eps       ncg     rms          ort
SDA:   1    -0.357306696725E+03    0.10361E+00    0.00000E+00 10962   0.304E+00 0.000E+00
CGA:   2    -0.357380967156E+03   -0.74270E-01   -0.74254E-01 10962   0.187E+00-0.188E-03
CGA:   3    -0.357410328268E+03   -0.29361E-01   -0.29316E-01 10962   0.590E-01-0.271E-03
CGA:   4    -0.357419627019E+03   -0.92988E-02   -0.92695E-02 10962   0.147E-01-0.160E-03
CGA:   5    -0.357422017097E+03   -0.23901E-02   -0.23821E-02 10962   0.444E-02-0.469E-04
CGA:   6    -0.357422863839E+03   -0.84674E-03   -0.83676E-03 10962   0.154E-02-0.691E-04
CGA:   7    -0.357423228835E+03   -0.36500E-03   -0.35216E-03 10962   0.716E-03-0.137E-03
CGA:   8    -0.357423424806E+03   -0.19597E-03   -0.19115E-03 10962   0.429E-03-0.169E-03
CGA:   9    -0.357423520753E+03   -0.95947E-04   -0.92189E-04 10962   0.213E-03-0.954E-04
CGA:  10    -0.357423562387E+03   -0.41634E-04   -0.41172E-04 10962   0.764E-04-0.651E-05
CGA:  11    -0.357423576590E+03   -0.14202E-04   -0.16125E-04 10962   0.331E-04 0.199E-04
CGA:  12    -0.357423583470E+03   -0.68810E-05   -0.85905E-05 10962   0.185E-04 0.165E-04
  14 F= -.35742358E+03 E0= -.35742358E+03  d E =-.132778E-01  mag=    12.0000
       N       E                     dE             d eps       ncg     rms          ort
SDA:   1    -0.357407703460E+03    0.15873E-01    0.00000E+00 10962   0.574E-01 0.000E+00
CGA:   2    -0.357419447516E+03   -0.11744E-01   -0.11738E-01 10962   0.339E-01-0.799E-04
CGA:   3    -0.357424979087E+03   -0.55316E-02   -0.55165E-02 10962   0.106E-01-0.124E-03
CGA:   4    -0.357426628914E+03   -0.16498E-02   -0.16440E-02 10962   0.268E-02-0.464E-04
CGA:   5    -0.357427044084E+03   -0.41517E-03   -0.41501E-03 10962   0.693E-03-0.171E-05
CGA:   6    -0.357427166026E+03   -0.12194E-03   -0.12015E-03 10962   0.206E-03-0.175E-04
CGA:   7    -0.357427219375E+03   -0.53349E-04   -0.52972E-04 10962   0.119E-03-0.556E-04
CGA:   8    -0.357427242116E+03   -0.22741E-04   -0.35013E-04 10962   0.191E-03-0.918E-04
CGA:   9    -0.357427267873E+03   -0.25756E-04   -0.26603E-04 10962   0.333E-04 0.611E-05
CGA:  10    -0.357427274062E+03   -0.61892E-05   -0.68413E-05 10962   0.870E-05 0.917E-05
  15 F= -.35742727E+03 E0= -.35742727E+03  d E =-.369059E-02  mag=    12.0000
       N       E                     dE             d eps       ncg     rms          ort
SDA:   1    -0.357382150910E+03    0.45117E-01    0.00000E+00 10962   0.149E+00 0.000E+00
CGA:   2    -0.357412246894E+03   -0.30096E-01   -0.30095E-01 10962   0.869E-01-0.734E-04
CGA:   3    -0.357426374081E+03   -0.14127E-01   -0.14113E-01 10962   0.272E-01-0.171E-03
CGA:   4    -0.357430630982E+03   -0.42569E-02   -0.42522E-02 10962   0.678E-02-0.551E-04
CGA:   5    -0.357431690311E+03   -0.10593E-02   -0.10608E-02 10962   0.170E-02 0.146E-04
CGA:   6    -0.357431988223E+03   -0.29791E-03   -0.29700E-03 10962   0.490E-03-0.132E-04
CGA:   7    -0.357432098659E+03   -0.11044E-03   -0.10969E-03 10962   0.194E-03-0.472E-04
CGA:   8    -0.357432145735E+03   -0.47076E-04   -0.49141E-04 10962   0.118E-03-0.514E-04
CGA:   9    -0.357432170346E+03   -0.24611E-04   -0.28141E-04 10962   0.783E-04-0.438E-04
CGA:  10    -0.357432182174E+03   -0.11828E-04   -0.11780E-04 10962   0.291E-04-0.605E-05
CGA:  11    -0.357432185659E+03   -0.34847E-05   -0.43067E-05 10962   0.116E-04 0.955E-05
  16 F= -.35743219E+03 E0= -.35743219E+03  d E =-.491160E-02  mag=    12.0000
       N       E                     dE             d eps       ncg     rms          ort
SDA:   1    -0.357402441953E+03    0.29740E-01    0.00000E+00 10962   0.979E-01 0.000E+00
CGA:   2    -0.357422318551E+03   -0.19877E-01   -0.19877E-01 10962   0.572E-01-0.131E-04
CGA:   3    -0.357431625393E+03   -0.93068E-02   -0.93008E-02 10962   0.180E-01-0.102E-03
CGA:   4    -0.357434419531E+03   -0.27941E-02   -0.27920E-02 10962   0.436E-02-0.330E-04
CGA:   5    -0.357435092609E+03   -0.67308E-03   -0.67373E-03 10962   0.108E-02 0.814E-05
CGA:   6    -0.357435281557E+03   -0.18895E-03   -0.18838E-03 10962   0.314E-03-0.118E-04
CGA:   7    -0.357435349682E+03   -0.68125E-04   -0.68089E-04 10962   0.116E-03-0.260E-04
CGA:   8    -0.357435376778E+03   -0.27096E-04   -0.27985E-04 10962   0.615E-04-0.216E-04
CGA:   9    -0.357435391058E+03   -0.14280E-04   -0.16465E-04 10962   0.409E-04-0.207E-04
CGA:  10    -0.357435397683E+03   -0.66256E-05   -0.66800E-05 10962   0.155E-04-0.307E-05
  17 F= -.35743540E+03 E0= -.35743540E+03  d E =-.321202E-02  mag=    12.0000
       N       E                     dE             d eps       ncg     rms          ort
SDA:   1    -0.356956053189E+03    0.47934E+00    0.00000E+00 10962   0.147E+01 0.000E+00
CGA:   2    -0.357249123979E+03   -0.29307E+00   -0.29313E+00 10962   0.841E+00 0.121E-02
CGA:   3    -0.357387536217E+03   -0.13841E+00   -0.13843E+00 10962   0.272E+00 0.537E-05
CGA:   4    -0.357429722167E+03   -0.42186E-01   -0.42178E-01 10962   0.651E-01-0.173E-03
CGA:   5    -0.357439729245E+03   -0.10007E-01   -0.10012E-01 10962   0.162E-01 0.616E-04
CGA:   6    -0.357442527414E+03   -0.27982E-02   -0.27983E-02 10962   0.461E-02 0.752E-06
CGA:   7    -0.357443482637E+03   -0.95522E-03   -0.95480E-03 10962   0.152E-02-0.828E-04
CGA:   8    -0.357443834339E+03   -0.35170E-03   -0.35295E-03 10962   0.652E-03-0.525E-04
CGA:   9    -0.357444010185E+03   -0.17585E-03   -0.17959E-03 10962   0.315E-03-0.521E-04
CGA:  10    -0.357444095460E+03   -0.85275E-04   -0.87920E-04 10962   0.149E-03-0.307E-04
CGA:  11    -0.357444129744E+03   -0.34284E-04   -0.33912E-04 10962   0.497E-04 0.123E-04
CGA:  12    -0.357444145687E+03   -0.15943E-04   -0.15774E-04 10962   0.230E-04 0.239E-05
CGA:  13    -0.357444154952E+03   -0.92648E-05   -0.93502E-05 10962   0.183E-04-0.519E-06
  18 F= -.35744415E+03 E0= -.35744415E+03  d E =-.875727E-02  mag=    12.0000
       N       E                     dE             d eps       ncg     rms          ort
SDA:   1    -0.356891261567E+03    0.55288E+00    0.00000E+00 10962   0.157E+01 0.000E+00
CGA:   2    -0.357248978583E+03   -0.35772E+00   -0.35774E+00 10962   0.910E+00 0.948E-03
CGA:   3    -0.357391646913E+03   -0.14267E+00   -0.14268E+00 10962   0.278E+00-0.152E-03
CGA:   4    -0.357434753197E+03   -0.43106E-01   -0.43097E-01 10962   0.645E-01-0.155E-03
CGA:   5    -0.357444632331E+03   -0.98791E-02   -0.98868E-02 10962   0.163E-01 0.873E-04
CGA:   6    -0.357447522110E+03   -0.28898E-02   -0.28907E-02 10962   0.490E-02 0.162E-04
CGA:   7    -0.357448546369E+03   -0.10243E-02   -0.10228E-02 10962   0.170E-02-0.991E-04
CGA:   8    -0.357448965648E+03   -0.41928E-03   -0.42274E-03 10962   0.848E-03-0.113E-03
CGA:   9    -0.357449197112E+03   -0.23146E-03   -0.24020E-03 10962   0.467E-03-0.110E-03
CGA:  10    -0.357449316475E+03   -0.11936E-03   -0.12377E-03 10962   0.218E-03-0.577E-04
CGA:  11    -0.357449366137E+03   -0.49662E-04   -0.49432E-04 10962   0.745E-04 0.844E-05
CGA:  12    -0.357449387547E+03   -0.21409E-04   -0.20993E-04 10962   0.335E-04 0.110E-04
CGA:  13    -0.357449399364E+03   -0.11817E-04   -0.11200E-04 10962   0.209E-04 0.110E-04
CGA:  14    -0.357449408657E+03   -0.92932E-05   -0.85266E-05 10962   0.150E-04 0.111E-04
  19 F= -.35744941E+03 E0= -.35744941E+03  d E =-.525370E-02  mag=    12.0000
       N       E                     dE             d eps       ncg     rms          ort
SDA:   1    -0.357038657885E+03    0.41074E+00    0.00000E+00 10962   0.111E+01 0.000E+00
CGA:   2    -0.357325058893E+03   -0.28640E+00   -0.28640E+00 10962   0.587E+00 0.438E-03
CGA:   3    -0.357415465606E+03   -0.90407E-01   -0.90403E-01 10962   0.185E+00-0.192E-03
CGA:   4    -0.357443597106E+03   -0.28132E-01   -0.28126E-01 10962   0.407E-01-0.839E-04
CGA:   5    -0.357449857584E+03   -0.62605E-02   -0.62665E-02 10962   0.109E-01 0.557E-04
CGA:   6    -0.357451821697E+03   -0.19641E-02   -0.19641E-02 10962   0.340E-02-0.142E-05
CGA:   7    -0.357452541100E+03   -0.71940E-03   -0.71700E-03 10962   0.125E-02-0.785E-04
CGA:   8    -0.357452869172E+03   -0.32807E-03   -0.33135E-03 10962   0.690E-03-0.104E-03
CGA:   9    -0.357453060841E+03   -0.19167E-03   -0.19934E-03 10962   0.414E-03-0.105E-03
CGA:  10    -0.357453165315E+03   -0.10447E-03   -0.10826E-03 10962   0.198E-03-0.608E-04
CGA:  11    -0.357453211801E+03   -0.46485E-04   -0.46555E-04 10962   0.767E-04-0.271E-05
CGA:  12    -0.357453234437E+03   -0.22637E-04   -0.22211E-04 10962   0.400E-04 0.965E-05
CGA:  13    -0.357453251245E+03   -0.16807E-04   -0.15843E-04 10962   0.298E-04 0.955E-05
CGA:  14    -0.357453269823E+03   -0.18579E-04   -0.17684E-04 10962   0.305E-04 0.382E-05
CGA:  15    -0.357453283606E+03   -0.13782E-04   -0.33811E-04 10962   0.104E-03-0.288E-04
CGA:  16    -0.357453317320E+03   -0.33714E-04   -0.33895E-04 10962   0.333E-04-0.824E-05
CGA:  17    -0.357453336238E+03   -0.18918E-04    0.44400E-03 10962   0.126E-04 0.111E-04
CGA:  18    -0.357453346948E+03   -0.10710E-04    0.56928E-04 10962   0.787E-05 0.743E-05
CGA:  19    -0.357453353663E+03   -0.67155E-05    0.30197E-05 10962   0.495E-05 0.388E-05
  20 F= -.35745335E+03 E0= -.35745335E+03  d E =-.394501E-02  mag=    12.0000
       N       E                     dE             d eps       ncg     rms          ort
SDA:   1    -0.356755023212E+03    0.69832E+00    0.00000E+00 10962   0.180E+01 0.000E+00
CGA:   2    -0.357282052014E+03   -0.52703E+00   -0.52705E+00 10962   0.736E+00 0.687E-03
CGA:   3    -0.357408902950E+03   -0.12685E+00   -0.12684E+00 10962   0.261E+00-0.238E-03
CGA:   4    -0.357444855342E+03   -0.35952E-01   -0.35968E-01 10962   0.505E-01 0.622E-04
CGA:   5    -0.357453326065E+03   -0.84707E-02   -0.84815E-02 10962   0.155E-01 0.818E-04
CGA:   6    -0.357456101609E+03   -0.27755E-02   -0.27737E-02 10962   0.472E-02-0.212E-04
CGA:   7    -0.357457136173E+03   -0.10346E-02   -0.10295E-02 10962   0.197E-02-0.857E-04
CGA:   8    -0.357457649610E+03   -0.51344E-03   -0.51227E-03 10962   0.105E-02-0.104E-03
CGA:   9    -0.357457954615E+03   -0.30500E-03   -0.30834E-03 10962   0.580E-03-0.962E-04
CGA:  10    -0.357458107452E+03   -0.15284E-03   -0.15369E-03 10962   0.242E-03-0.563E-04
CGA:  11    -0.357458169828E+03   -0.62376E-04   -0.62446E-04 10962   0.915E-04-0.894E-05
CGA:  12    -0.357458197814E+03   -0.27986E-04   -0.27838E-04 10962   0.473E-04 0.383E-05
CGA:  13    -0.357458219427E+03   -0.21613E-04   -0.21876E-04 10962   0.414E-04-0.168E-05
CGA:  14    -0.357458239494E+03   -0.20067E-04   -0.22390E-04 10962   0.461E-04-0.863E-05
CGA:  15    -0.357458250295E+03   -0.10801E-04   -0.29200E-04 10962   0.101E-03-0.371E-04
CGA:  16    -0.357458281794E+03   -0.31499E-04   -0.31471E-04 10962   0.328E-04-0.200E-05
CGA:  17    -0.357458151988E+03    0.12981E-03   -0.71020E-04 10962   0.922E-03-0.115E-03
CGA:  18    -0.357458295670E+03   -0.14368E-03   -0.15998E-03 10962   0.111E-03 0.378E-04
CGA:  19    -0.357458342235E+03   -0.46566E-04   -0.42985E-04 10962   0.415E-04-0.178E-04
CGA:  20    -0.357458354529E+03   -0.12293E-04   -0.12417E-04 10962   0.130E-04 0.590E-06
CGA:  21    -0.357458357644E+03   -0.31158E-05   -0.42624E-05 10962   0.591E-05 0.497E-05
CGA:  22    -0.357458367443E+03   -0.97989E-05    0.20441E-04 10962   0.653E-05-0.669E-07
  21 F= -.35745837E+03 E0= -.35745837E+03  d E =-.501378E-02  mag=    12.0000
       N       E                     dE             d eps       ncg     rms          ort
SDA:   1    -0.355939679397E+03    0.15187E+01    0.00000E+00 10962   0.388E+01 0.000E+00
CGA:   2    -0.357098048965E+03   -0.11584E+01   -0.11598E+01 10962   0.149E+01-0.935E-03
CGA:   3    -0.357367824588E+03   -0.26978E+00   -0.26980E+00 10962   0.521E+00 0.978E-03
CGA:   4    -0.357437672387E+03   -0.69848E-01   -0.69871E-01 10962   0.101E+00 0.595E-03
CGA:   5    -0.357455280444E+03   -0.17608E-01   -0.17630E-01 10962   0.315E-01 0.760E-04
CGA:   6    -0.357460834134E+03   -0.55537E-02   -0.55463E-02 10962   0.978E-02-0.290E-04
CGA:   7    -0.357463010295E+03   -0.21762E-02   -0.21510E-02 10962   0.416E-02-0.962E-04
CGA:   8    -0.357464098188E+03   -0.10879E-02   -0.10636E-02 10962   0.218E-02-0.110E-03
CGA:   9    -0.357464748430E+03   -0.65024E-03   -0.63581E-03 10962   0.111E-02-0.854E-04
CGA:  10    -0.357465058347E+03   -0.30992E-03   -0.30250E-03 10962   0.436E-03-0.419E-04
CGA:  11    -0.357465177599E+03   -0.11925E-03   -0.11871E-03 10962   0.162E-03-0.329E-05
CGA:  12    -0.357465225717E+03   -0.48118E-04   -0.49441E-04 10962   0.794E-04 0.960E-05
CGA:  13    -0.357465258221E+03   -0.32504E-04   -0.32762E-04 10962   0.555E-04 0.529E-05
CGA:  14    -0.357465284468E+03   -0.26247E-04   -0.26220E-04 10962   0.413E-04 0.350E-05
CGA:  15    -0.357465306442E+03   -0.21973E-04   -0.22231E-04 10962   0.376E-04-0.366E-05
CGA:  16    -0.357465327140E+03   -0.20698E-04   -0.27342E-04 10962   0.781E-04-0.186E-04
CGA:  17    -0.357465326727E+03    0.41301E-06   -0.38436E-04 10962   0.232E-03-0.755E-04
CGA:  18    -0.357465415223E+03   -0.88496E-04   -0.87044E-04 10962   0.931E-04-0.136E-04
CGA:  19    -0.357465446739E+03   -0.31516E-04   -0.30144E-04 10962   0.633E-04-0.104E-04
CGA:  20    -0.357465475973E+03   -0.29234E-04   -0.31571E-04 10962   0.625E-04-0.261E-04
CGA:  21    -0.357465495251E+03   -0.19279E-04   -0.21825E-04 10962   0.452E-04-0.215E-04
CGA:  22    -0.357464963415E+03    0.53184E-03   -0.28810E-03 10962   0.265E-02-0.239E-03
CGA:  23    -0.357465387051E+03   -0.42364E-03   -0.47316E-03 10962   0.369E-03 0.669E-04
CGA:  24    -0.357465522880E+03   -0.13583E-03   -0.12943E-03 10962   0.738E-04-0.129E-04
CGA:  25    -0.357465554595E+03   -0.31715E-04   -0.35436E-04 10962   0.364E-04 0.116E-04
CGA:  26    -0.357465572714E+03   -0.18120E-04   -0.20186E-04 10962   0.256E-04 0.640E-05
CGA:  27    -0.357465584565E+03   -0.11850E-04   -0.14433E-04 10962   0.118E-04 0.843E-05
CGA:  28    -0.357465590544E+03   -0.59791E-05   -0.65776E-05 10962   0.658E-05 0.171E-05
  22 F= -.35746559E+03 E0= -.35746559E+03  d E =-.722310E-02  mag=    12.0000
       N       E                     dE             d eps       ncg     rms          ort
SDA:   1    -0.346245106911E+03    0.11220E+02    0.00000E+00 10962   0.289E+02 0.000E+00
CGA:   2    -0.354822084829E+03   -0.85770E+01   -0.86434E+01 10962   0.105E+02 0.370E-01
CGA:   3    -0.356778333563E+03   -0.19562E+01   -0.19614E+01 10962   0.364E+01 0.144E+00
CGA:   4    -0.357282054753E+03   -0.50372E+00   -0.50269E+00 10962   0.713E+00 0.596E-01
CGA:   5    -0.357409924454E+03   -0.12787E+00   -0.12768E+00 10962   0.232E+00 0.135E-02
CGA:   6    -0.357451293983E+03   -0.41370E-01   -0.41304E-01 10962   0.742E-01-0.139E-03
CGA:   7    -0.357468111781E+03   -0.16818E-01   -0.16665E-01 10962   0.324E-01-0.451E-03
CGA:   8    -0.357476672796E+03   -0.85610E-02   -0.83951E-02 10962   0.169E-01-0.524E-03
CGA:   9    -0.357481662824E+03   -0.49900E-02   -0.48860E-02 10962   0.828E-02-0.379E-03
CGA:  10    -0.357483938661E+03   -0.22758E-02   -0.22275E-02 10962   0.310E-02-0.173E-03
CGA:  11    -0.357484797541E+03   -0.85888E-03   -0.85207E-03 10962   0.113E-02-0.268E-04
CGA:  12    -0.357485133136E+03   -0.33560E-03   -0.34638E-03 10962   0.533E-03 0.477E-04
CGA:  13    -0.357485320882E+03   -0.18775E-03   -0.19639E-03 10962   0.302E-03 0.514E-04
CGA:  14    -0.357485435599E+03   -0.11472E-03   -0.12155E-03 10962   0.160E-03 0.467E-04
CGA:  15    -0.357485500348E+03   -0.64749E-04   -0.68132E-04 10962   0.841E-04 0.243E-04
CGA:  16    -0.357485548672E+03   -0.48324E-04   -0.48325E-04 10962   0.771E-04-0.118E-05
CGA:  17    -0.357485601546E+03   -0.52874E-04   -0.57356E-04 10962   0.134E-03-0.188E-04
CGA:  18    -0.357485563401E+03    0.38145E-04   -0.14873E-03 10962   0.713E-03-0.205E-03
CGA:  19    -0.357485735745E+03   -0.17234E-03   -0.19596E-03 10962   0.166E-03 0.831E-04
CGA:  20    -0.357485837572E+03   -0.10183E-03   -0.10301E-03 10962   0.313E-03-0.103E-03
CGA:  21    -0.357485851958E+03   -0.14386E-04   -0.44967E-04 10962   0.512E-04 0.761E-04
CGA:  22    -0.357485864356E+03   -0.12398E-04   -0.16458E-04 10962   0.391E-04 0.152E-04
CGA:  23    -0.357485922572E+03   -0.58215E-04    0.10571E-03 10962   0.816E-04-0.202E-04
CGA:  24    -0.357485929858E+03   -0.72859E-05   -0.16000E-04 10962   0.201E-04 0.276E-04
CGA:  25    -0.357485933146E+03   -0.32885E-05   -0.27294E-04 10962   0.134E-03-0.462E-04
CGA:  26    -0.357485982029E+03   -0.48883E-04   -0.47895E-04 10962   0.106E-04-0.606E-05
CGA:  27    -0.357485998051E+03   -0.16021E-04    0.47859E-05 10962   0.757E-05 0.130E-05
CGA:  28    -0.357486008677E+03   -0.10627E-04    0.10048E-04 10962   0.725E-05 0.510E-05
CGA:  29    -0.357486026774E+03   -0.18097E-04    0.13024E-05 10962   0.105E-04-0.986E-06
CGA:  30    -0.357486032650E+03   -0.58757E-05   -0.11129E-04 10962   0.556E-04-0.751E-05
CGA:  31    -0.357485868105E+03    0.16454E-03   -0.82175E-04 10962   0.170E-02-0.266E-03
CGA:  32    -0.357486044239E+03   -0.17613E-03   -0.26556E-03 10962   0.970E-04 0.201E-03
CGA:  33    -0.357486063271E+03   -0.19032E-04   -0.26050E-04 10962   0.221E-04 0.210E-04
CGA:  34    -0.357486094709E+03   -0.31439E-04    0.15534E-03 10962   0.620E-04-0.379E-04
CGA:  35    -0.357486089991E+03    0.47183E-05   -0.72797E-05 10962   0.145E-04 0.273E-04
  23 F= -.35748609E+03 E0= -.35748609E+03  d E =-.204994E-01  mag=    12.0000
       N       E                     dE             d eps       ncg     rms          ort
SDA:   1    -0.356830023395E+03    0.65607E+00    0.00000E+00 10962   0.172E+01 0.000E+00
CGA:   2    -0.357323201128E+03   -0.49318E+00   -0.49348E+00 10962   0.761E+00-0.399E-03
CGA:   3    -0.357442322586E+03   -0.11912E+00   -0.11903E+00 10962   0.268E+00 0.392E-03
CGA:   4    -0.357481989711E+03   -0.39667E-01   -0.39693E-01 10962   0.535E-01 0.115E-03
CGA:   5    -0.357490688818E+03   -0.86991E-02   -0.87246E-02 10962   0.160E-01 0.785E-04
CGA:   6    -0.357493479273E+03   -0.27905E-02   -0.27932E-02 10962   0.474E-02 0.716E-05
CGA:   7    -0.357494524624E+03   -0.10454E-02   -0.10333E-02 10962   0.190E-02-0.570E-04
CGA:   8    -0.357495031769E+03   -0.50714E-03   -0.49486E-03 10962   0.100E-02-0.757E-04
CGA:   9    -0.357495331523E+03   -0.29975E-03   -0.29118E-03 10962   0.547E-03-0.743E-04
CGA:  10    -0.357495486548E+03   -0.15502E-03   -0.15032E-03 10962   0.230E-03-0.406E-04
CGA:  11    -0.357495544788E+03   -0.58240E-04   -0.58274E-04 10962   0.829E-04 0.121E-06
CGA:  12    -0.357495571356E+03   -0.26567E-04   -0.26655E-04 10962   0.422E-04 0.102E-05
CGA:  13    -0.357495592168E+03   -0.20812E-04   -0.22448E-04 10962   0.501E-04-0.128E-04
CGA:  14    -0.357495607139E+03   -0.14971E-04   -0.22909E-04 10962   0.751E-04-0.316E-04
CGA:  15    -0.357495633993E+03   -0.26855E-04   -0.26119E-04 10962   0.299E-04-0.108E-04
CGA:  16    -0.357495646325E+03   -0.12332E-04   -0.13440E-04 10962   0.270E-04-0.980E-05
CGA:  17    -0.357495671738E+03   -0.25413E-04    0.56382E-05 10962   0.167E-04 0.932E-06
CGA:  18    -0.357495681286E+03   -0.95476E-05   -0.13409E-04 10962   0.507E-04-0.109E-04
CGA:  19    -0.357495702175E+03   -0.20890E-04   -0.26181E-04 10962   0.130E-03-0.662E-04
CGA:  20    -0.357495705501E+03   -0.33254E-05   -0.15825E-04 10962   0.155E-04 0.392E-04
  24 F= -.35749571E+03 E0= -.35749571E+03  d E =-.961551E-02  mag=    12.0000
       N       E                     dE             d eps       ncg     rms          ort
SDA:   1    -0.356392126575E+03    0.11036E+01    0.00000E+00 10962   0.282E+01 0.000E+00
CGA:   2    -0.357223817379E+03   -0.83169E+00   -0.83197E+00 10962   0.107E+01 0.119E-02
CGA:   3    -0.357418346757E+03   -0.19453E+00   -0.19455E+00 10962   0.384E+00 0.193E-03
CGA:   4    -0.357470113842E+03   -0.51767E-01   -0.51688E-01 10962   0.755E-01-0.399E-03
CGA:   5    -0.357483027810E+03   -0.12914E-01   -0.12864E-01 10962   0.235E-01-0.255E-03
CGA:   6    -0.357487165248E+03   -0.41374E-02   -0.41337E-02 10962   0.718E-02-0.246E-04
CGA:   7    -0.357488715460E+03   -0.15502E-02   -0.15562E-02 10962   0.295E-02 0.395E-04
CGA:   8    -0.357489471925E+03   -0.75647E-03   -0.75774E-03 10962   0.151E-02 0.121E-04
CGA:   9    -0.357489926017E+03   -0.45409E-03   -0.45344E-03 10962   0.788E-03-0.144E-04
CGA:  10    -0.357490151407E+03   -0.22539E-03   -0.22391E-03 10962   0.324E-03-0.259E-04
CGA:  11    -0.357490252597E+03   -0.10119E-03   -0.10020E-03 10962   0.144E-03-0.461E-04
CGA:  12    -0.357490297616E+03   -0.45020E-04   -0.46110E-04 10962   0.870E-04-0.329E-04
CGA:  13    -0.357490323279E+03   -0.25663E-04   -0.26506E-04 10962   0.503E-04-0.161E-04
CGA:  14    -0.357490339943E+03   -0.16664E-04   -0.17737E-04 10962   0.271E-04-0.122E-04
CGA:  15    -0.357490346870E+03   -0.69271E-05   -0.69043E-05 10962   0.995E-05-0.190E-05
CGA:  16    -0.357490331718E+03    0.15153E-04   -0.12489E-04 10962   0.105E-03-0.276E-04
CGA:  17    -0.357490353081E+03   -0.21363E-04   -0.23989E-04 10962   0.104E-04 0.155E-04
CGA:  18    -0.357490324843E+03    0.28238E-04   -0.17505E-04 10962   0.183E-03-0.424E-04
CGA:  19    -0.357490344467E+03   -0.19623E-04   -0.31908E-04 10962   0.302E-04 0.455E-04
CGA:  20    -0.357490358097E+03   -0.13631E-04   -0.12854E-04 10962   0.613E-05-0.861E-05
CGA:  21    -0.357490366278E+03   -0.81802E-05    0.78753E-06 10962   0.545E-05-0.235E-05
  25 F= -.35749037E+03 E0= -.35749037E+03  d E =0.533922E-02  mag=    12.0000
       N       E                     dE             d eps       ncg     rms          ort
SDA:   1    -0.357357475388E+03    0.13288E+00    0.00000E+00 10962   0.324E+00 0.000E+00
CGA:   2    -0.357464669238E+03   -0.10719E+00   -0.10719E+00 10962   0.139E+00-0.186E-03
CGA:   3    -0.357485181591E+03   -0.20512E-01   -0.20544E-01 10962   0.410E-01 0.123E-03
CGA:   4    -0.357491309082E+03   -0.61275E-02   -0.61310E-02 10962   0.928E-02 0.807E-05
CGA:   5    -0.357492839955E+03   -0.15309E-02   -0.15268E-02 10962   0.275E-02-0.203E-04
CGA:   6    -0.357493334273E+03   -0.49432E-03   -0.48988E-03 10962   0.824E-03-0.239E-04
CGA:   7    -0.357493517551E+03   -0.18328E-03   -0.17699E-03 10962   0.333E-03-0.445E-04
CGA:   8    -0.357493609810E+03   -0.92259E-04   -0.88316E-04 10962   0.195E-03-0.554E-04
CGA:   9    -0.357493661485E+03   -0.51675E-04   -0.49906E-04 10962   0.112E-03-0.432E-04
CGA:  10    -0.357493686919E+03   -0.25434E-04   -0.24353E-04 10962   0.423E-04-0.162E-04
CGA:  11    -0.357493696320E+03   -0.94011E-05   -0.93330E-05 10962   0.139E-04-0.810E-06
  26 F= -.35749370E+03 E0= -.35749370E+03  d E =-.333004E-02  mag=    12.0000
       N       E                     dE             d eps       ncg     rms          ort
SDA:   1    -0.357229579333E+03    0.26411E+00    0.00000E+00 10962   0.677E+00 0.000E+00
CGA:   2    -0.357438980417E+03   -0.20940E+00   -0.20941E+00 10962   0.230E+00-0.121E-03
CGA:   3    -0.357484537984E+03   -0.45558E-01   -0.45557E-01 10962   0.740E-01-0.306E-04
CGA:   4    -0.357494176894E+03   -0.96389E-02   -0.96547E-02 10962   0.162E-01 0.626E-04
CGA:   5    -0.357497112984E+03   -0.29361E-02   -0.29428E-02 10962   0.477E-02 0.484E-04
CGA:   6    -0.357497947036E+03   -0.83405E-03   -0.83009E-03 10962   0.161E-02-0.307E-04
CGA:   7    -0.357498334521E+03   -0.38749E-03   -0.38163E-03 10962   0.746E-03-0.932E-04
CGA:   8    -0.357498537068E+03   -0.20255E-03   -0.20138E-03 10962   0.468E-03-0.961E-04
CGA:   9    -0.357498661895E+03   -0.12483E-03   -0.12547E-03 10962   0.249E-03-0.690E-04
CGA:  10    -0.357498720180E+03   -0.58285E-04   -0.57769E-04 10962   0.903E-04-0.198E-04
CGA:  11    -0.357498739206E+03   -0.19026E-04   -0.19642E-04 10962   0.294E-04 0.101E-04
CGA:  12    -0.357498745496E+03   -0.62899E-05   -0.70900E-05 10962   0.130E-04 0.104E-04
  27 F= -.35749875E+03 E0= -.35749875E+03  d E =-.504918E-02  mag=    12.0000
       N       E                     dE             d eps       ncg     rms          ort
SDA:   1    -0.348321179032E+03    0.91776E+01    0.00000E+00 10962   0.225E+02 0.000E+00
CGA:   2    -0.355541186440E+03   -0.72200E+01   -0.72185E+01 10962   0.843E+01 0.235E-01
CGA:   3    -0.356955591083E+03   -0.14144E+01   -0.14151E+01 10962   0.287E+01 0.132E-02
CGA:   4    -0.357354863175E+03   -0.39927E+00   -0.39926E+00 10962   0.589E+00 0.176E-03
CGA:   5    -0.357458571706E+03   -0.10371E+00   -0.10367E+00 10962   0.190E+00-0.412E-03
CGA:   6    -0.357491254347E+03   -0.32683E-01   -0.32652E-01 10962   0.578E-01-0.372E-03
CGA:   7    -0.357504240512E+03   -0.12986E-01   -0.12953E-01 10962   0.245E-01-0.838E-03
CGA:   8    -0.357510614686E+03   -0.63742E-02   -0.63742E-02 10962   0.127E-01-0.103E-02
CGA:   9    -0.357514129076E+03   -0.35144E-02   -0.35351E-02 10962   0.624E-02-0.759E-03
CGA:  10    -0.357515766386E+03   -0.16373E-02   -0.16426E-02 10962   0.229E-02-0.356E-03
CGA:  11    -0.357516366709E+03   -0.60032E-03   -0.60111E-03 10962   0.821E-03-0.666E-04
CGA:  12    -0.357516601204E+03   -0.23450E-03   -0.23290E-03 10962   0.355E-03 0.626E-04
CGA:  13    -0.357516731510E+03   -0.13031E-03   -0.12642E-03 10962   0.197E-03 0.611E-04
CGA:  14    -0.357516816803E+03   -0.85292E-04   -0.81645E-04 10962   0.108E-03 0.437E-04
CGA:  15    -0.357516863518E+03   -0.46715E-04   -0.44990E-04 10962   0.516E-04 0.258E-04
CGA:  16    -0.357516895423E+03   -0.31905E-04   -0.36425E-04 10962   0.623E-04-0.156E-04
CGA:  17    -0.357516912077E+03   -0.16654E-04   -0.30604E-04 10962   0.106E-03-0.339E-04
CGA:  18    -0.357516961126E+03   -0.49049E-04   -0.63703E-04 10962   0.996E-04-0.510E-04
CGA:  19    -0.357516968925E+03   -0.77997E-05   -0.10526E-04 10962   0.603E-04 0.219E-04
CGA:  20    -0.357516985723E+03   -0.16798E-04   -0.17688E-04 10962   0.254E-04 0.109E-04
CGA:  21    -0.357517009896E+03   -0.24173E-04    0.17654E-04 10962   0.199E-04 0.385E-05
CGA:  22    -0.357517022146E+03   -0.12250E-04   -0.12756E-04 10962   0.304E-04-0.217E-05
CGA:  23    -0.357517029424E+03   -0.72772E-05   -0.77936E-05 10962   0.350E-04 0.124E-04
CGA:  24    -0.357517041360E+03   -0.11936E-04   -0.57694E-04 10962   0.195E-03-0.544E-04
CGA:  25    -0.357517111933E+03   -0.70574E-04   -0.70437E-04 10962   0.321E-04-0.164E-04
CGA:  26    -0.357517112254E+03   -0.32089E-06   -0.41456E-05 10962   0.130E-04 0.167E-04
  28 F= -.35751711E+03 E0= -.35751711E+03  d E =-.183668E-01  mag=    12.0000
       N       E                     dE             d eps       ncg     rms          ort
SDA:   1    -0.355132775184E+03    0.23843E+01    0.00000E+00 10962   0.561E+01 0.000E+00
CGA:   2    -0.357036127332E+03   -0.19034E+01   -0.19034E+01 10962   0.242E+01-0.966E-03
CGA:   3    -0.357377673336E+03   -0.34155E+00   -0.34166E+00 10962   0.689E+00 0.906E-03
CGA:   4    -0.357482066169E+03   -0.10439E+00   -0.10437E+00 10962   0.155E+00-0.136E-03
CGA:   5    -0.357507738263E+03   -0.25672E-01   -0.25642E-01 10962   0.465E-01-0.190E-03
CGA:   6    -0.357515961169E+03   -0.82229E-02   -0.81959E-02 10962   0.137E-01-0.190E-03
CGA:   7    -0.357518837652E+03   -0.28765E-02   -0.28509E-02 10962   0.492E-02-0.242E-03
CGA:   8    -0.357520107048E+03   -0.12694E-02   -0.12563E-02 10962   0.243E-02-0.264E-03
CGA:   9    -0.357520776027E+03   -0.66898E-03   -0.66480E-03 10962   0.119E-02-0.229E-03
CGA:  10    -0.357521094921E+03   -0.31889E-03   -0.31740E-03 10962   0.472E-03-0.139E-03
CGA:  11    -0.357521209099E+03   -0.11418E-03   -0.11307E-03 10962   0.151E-03-0.324E-04
CGA:  12    -0.357521249925E+03   -0.40826E-04   -0.40879E-04 10962   0.619E-04 0.392E-05
CGA:  13    -0.357521272580E+03   -0.22655E-04   -0.22308E-04 10962   0.383E-04 0.718E-05
CGA:  14    -0.357521291289E+03   -0.18709E-04   -0.18050E-04 10962   0.287E-04 0.561E-05
CGA:  15    -0.357521308123E+03   -0.16834E-04   -0.17687E-04 10962   0.267E-04-0.380E-05
CGA:  16    -0.357521317614E+03   -0.94911E-05   -0.17567E-04 10962   0.466E-04-0.187E-04
CGA:  17    -0.357521335475E+03   -0.17861E-04   -0.18326E-04 10962   0.221E-04-0.953E-05
CGA:  18    -0.357521343683E+03   -0.82079E-05   -0.84154E-05 10962   0.149E-04-0.160E-05
CGA:  19    -0.357521346872E+03   -0.31888E-05   -0.11412E-04 10962   0.731E-04-0.174E-04
  29 F= -.35752135E+03 E0= -.35752135E+03  d E =-.423462E-02  mag=    12.0000
       N       E                     dE             d eps       ncg     rms          ort
SDA:   1    -0.356712585383E+03    0.80876E+00    0.00000E+00 10962   0.200E+01 0.000E+00
CGA:   2    -0.357327126240E+03   -0.61454E+00   -0.61464E+00 10962   0.864E+00 0.113E-02
CGA:   3    -0.357462693808E+03   -0.13557E+00   -0.13548E+00 10962   0.285E+00-0.228E-03
CGA:   4    -0.357504548016E+03   -0.41854E-01   -0.41789E-01 10962   0.576E-01-0.392E-03
CGA:   5    -0.357514275585E+03   -0.97276E-02   -0.97077E-02 10962   0.178E-01-0.127E-03
CGA:   6    -0.357517373592E+03   -0.30980E-02   -0.30973E-02 10962   0.533E-02-0.818E-05
CGA:   7    -0.357518498715E+03   -0.11251E-02   -0.11298E-02 10962   0.206E-02 0.393E-04
CGA:   8    -0.357519022965E+03   -0.52425E-03   -0.52658E-03 10962   0.991E-03 0.351E-04
CGA:   9    -0.357519307408E+03   -0.28444E-03   -0.28508E-03 10962   0.490E-03 0.193E-04
CGA:  10    -0.357519450969E+03   -0.14356E-03   -0.14363E-03 10962   0.198E-03 0.245E-05
CGA:  11    -0.357519512322E+03   -0.61354E-04   -0.61273E-04 10962   0.870E-04-0.153E-04
CGA:  12    -0.357519539943E+03   -0.27621E-04   -0.27952E-04 10962   0.478E-04-0.930E-05
CGA:  13    -0.357519552759E+03   -0.12816E-04   -0.12904E-04 10962   0.222E-04 0.740E-05
CGA:  14    -0.357519558373E+03   -0.56138E-05   -0.62892E-05 10962   0.102E-04 0.983E-05
  30 F= -.35751956E+03 E0= -.35751956E+03  d E =0.178850E-02  mag=    12.0000
       N       E                     dE             d eps       ncg     rms          ort
SDA:   1    -0.357429718919E+03    0.89834E-01    0.00000E+00 10962   0.236E+00 0.000E+00
CGA:   2    -0.357491874280E+03   -0.62155E-01   -0.62174E-01 10962   0.130E+00 0.365E-03
CGA:   3    -0.357511542861E+03   -0.19669E-01   -0.19635E-01 10962   0.403E-01-0.243E-03
CGA:   4    -0.357517779972E+03   -0.62371E-02   -0.62100E-02 10962   0.904E-02-0.202E-03
CGA:   5    -0.357519171147E+03   -0.13912E-02   -0.13848E-02 10962   0.244E-02-0.492E-04
CGA:   6    -0.357519618579E+03   -0.44743E-03   -0.44471E-03 10962   0.805E-03-0.281E-04
CGA:   7    -0.357519793303E+03   -0.17472E-03   -0.17242E-03 10962   0.311E-03-0.384E-04
CGA:   8    -0.357519875588E+03   -0.82285E-04   -0.82482E-04 10962   0.184E-03-0.431E-04
CGA:   9    -0.357519923768E+03   -0.48180E-04   -0.49370E-04 10962   0.107E-03-0.324E-04
CGA:  10    -0.357519947116E+03   -0.23348E-04   -0.23313E-04 10962   0.405E-04-0.344E-05
CGA:  11    -0.357519954554E+03   -0.74384E-05   -0.81474E-05 10962   0.143E-04 0.105E-04
  31 F= -.35751995E+03 E0= -.35751995E+03  d E =-.396182E-03  mag=    12.0000
       N       E                     dE             d eps       ncg     rms          ort
SDA:   1    -0.356721064163E+03    0.79888E+00    0.00000E+00 10962   0.189E+01 0.000E+00
CGA:   2    -0.357357411004E+03   -0.63635E+00   -0.63635E+00 10962   0.820E+00-0.304E-03
CGA:   3    -0.357473500387E+03   -0.11609E+00   -0.11607E+00 10962   0.236E+00-0.237E-03
CGA:   4    -0.357509134754E+03   -0.35634E-01   -0.35624E-01 10962   0.534E-01-0.120E-03
CGA:   5    -0.357517867826E+03   -0.87331E-02   -0.87294E-02 10962   0.157E-01-0.465E-04
CGA:   6    -0.357520645075E+03   -0.27772E-02   -0.27710E-02 10962   0.464E-02-0.829E-04
CGA:   7    -0.357521610785E+03   -0.96571E-03   -0.96068E-03 10962   0.166E-02-0.123E-03
CGA:   8    -0.357522036069E+03   -0.42528E-03   -0.42753E-03 10962   0.853E-03-0.134E-03
CGA:   9    -0.357522264368E+03   -0.22830E-03   -0.23447E-03 10962   0.447E-03-0.121E-03
CGA:  10    -0.357522375028E+03   -0.11066E-03   -0.11357E-03 10962   0.182E-03-0.637E-04
CGA:  11    -0.357522413845E+03   -0.38816E-04   -0.38819E-04 10962   0.542E-04 0.556E-06
CGA:  12    -0.357522426806E+03   -0.12961E-04   -0.13097E-04 10962   0.215E-04 0.112E-04
CGA:  13    -0.357522432608E+03   -0.58017E-05   -0.60143E-05 10962   0.121E-04 0.102E-04
  32 F= -.35752243E+03 E0= -.35752243E+03  d E =-.247805E-02  mag=    12.0000
       N       E                     dE             d eps       ncg     rms          ort
SDA:   1    -0.336614378043E+03    0.20908E+02    0.00000E+00 10962   0.583E+02 0.000E+00
CGA:   2    -0.349308925407E+03   -0.12695E+02   -0.12713E+02 10962   0.342E+02 0.224E+00
CGA:   3    -0.354823777697E+03   -0.55149E+01   -0.55159E+01 10962   0.110E+02 0.646E-01
CGA:   4    -0.356509366266E+03   -0.16856E+01   -0.16835E+01 10962   0.270E+01 0.621E-02
CGA:   5    -0.356928898852E+03   -0.41953E+00   -0.42001E+00 10962   0.712E+00 0.705E-03
CGA:   6    -0.357056511700E+03   -0.12761E+00   -0.12779E+00 10962   0.236E+00 0.242E-02
CGA:   7    -0.357107055201E+03   -0.50544E-01   -0.50574E-01 10962   0.888E-01 0.162E-02
CGA:   8    -0.357128786634E+03   -0.21731E-01   -0.21714E-01 10962   0.396E-01 0.147E-02
CGA:   9    -0.357139707186E+03   -0.10921E-01   -0.10895E-01 10962   0.179E-01 0.652E-03
CGA:  10    -0.357144852579E+03   -0.51454E-02   -0.51665E-02 10962   0.747E-02-0.419E-03
CGA:  11    -0.357146981726E+03   -0.21291E-02   -0.21418E-02 10962   0.306E-02-0.223E-03
CGA:  12    -0.357147920873E+03   -0.93915E-03   -0.94865E-03 10962   0.152E-02-0.120E-03
CGA:  13    -0.357148529738E+03   -0.60886E-03   -0.66869E-03 10962   0.133E-02-0.281E-03
CGA:  14    -0.357148962288E+03   -0.43255E-03   -0.43659E-03 10962   0.868E-03-0.292E-04
CGA:  15    -0.357149286257E+03   -0.32397E-03   -0.31844E-03 10962   0.496E-03 0.477E-04
CGA:  16    -0.357149445089E+03   -0.15883E-03   -0.15378E-03 10962   0.286E-03 0.187E-03
CGA:  17    -0.357149546111E+03   -0.10102E-03   -0.10258E-03 10962   0.199E-03 0.204E-03
CGA:  18    -0.357149641248E+03   -0.95137E-04   -0.83925E-04 10962   0.133E-03 0.730E-04
CGA:  19    -0.357149698275E+03   -0.57027E-04   -0.54012E-04 10962   0.106E-03 0.145E-03
CGA:  20    -0.357149764129E+03   -0.65854E-04   -0.52331E-04 10962   0.905E-04 0.616E-04
CGA:  21    -0.357149778404E+03   -0.14276E-04   -0.19470E-04 10962   0.731E-04 0.718E-04
CGA:  22    -0.357149967473E+03   -0.18907E-03   -0.86099E-04 10962   0.311E-03 0.359E-04
CGA:  23    -0.357150010467E+03   -0.42993E-04   -0.10870E-03 10962   0.610E-04 0.232E-03
CGA:  24    -0.357150074734E+03   -0.64267E-04    0.33154E-03 10962   0.953E-04 0.174E-04
CGA:  25    -0.357150092327E+03   -0.17593E-04   -0.36351E-04 10962   0.597E-04 0.909E-04
CGA:  26    -0.357150111314E+03   -0.18987E-04   -0.22590E-04 10962   0.396E-04 0.312E-04
CGA:  27    -0.357150152554E+03   -0.41240E-04    0.14268E-03 10962   0.499E-04 0.277E-04
CGA:  28    -0.357150146431E+03    0.61226E-05   -0.65246E-05 10962   0.339E-04 0.354E-04
CGA:  29    -0.357150162829E+03   -0.16398E-04   -0.16156E-04 10962   0.328E-04 0.322E-04
CGA:  30    -0.357150286260E+03   -0.12343E-03   -0.23951E-04 10962   0.394E-03 0.858E-05
CGA:  31    -0.357150357864E+03   -0.71604E-04   -0.18091E-03 10962   0.429E-04 0.221E-03
CGA:  32    -0.357150394913E+03   -0.37050E-04   -0.28118E-04 10962   0.174E-03-0.506E-04
CGA:  33    -0.357150382752E+03    0.12162E-04   -0.22201E-04 10962   0.255E-04 0.492E-04
CGA:  34    -0.357150376284E+03    0.64677E-05   -0.42964E-05 10962   0.154E-04 0.164E-04
CGA:  35    -0.357150401416E+03   -0.25133E-04    0.72555E-04 10962   0.409E-04 0.262E-05
CGA:  36    -0.357150394579E+03    0.68375E-05   -0.12473E-04 10962   0.253E-04 0.389E-04
  33 F= -.35715039E+03 E0= -.35715039E+03  d E =0.372038E+00  mag=    12.0000
       N       E                     dE             d eps       ncg     rms          ort
SDA:   1    -0.355238255974E+03    0.19121E+01    0.00000E+00 10962   0.532E+01 0.000E+00
CGA:   2    -0.356932730284E+03   -0.16945E+01   -0.16892E+01 10962   0.180E+01 0.107E-01
CGA:   3    -0.357302670247E+03   -0.36994E+00   -0.37023E+00 10962   0.754E+00-0.490E-03
CGA:   4    -0.357407812241E+03   -0.10514E+00   -0.10492E+00 10962   0.180E+00 0.151E-02
CGA:   5    -0.357442636592E+03   -0.34824E-01   -0.34719E-01 10962   0.655E-01 0.101E-03
CGA:   6    -0.357454714902E+03   -0.12078E-01   -0.11995E-01 10962   0.252E-01-0.150E-03
CGA:   7    -0.357461096474E+03   -0.63816E-02   -0.62183E-02 10962   0.118E-01-0.474E-03
CGA:   8    -0.357463985242E+03   -0.28888E-02   -0.27577E-02 10962   0.486E-02-0.389E-03
CGA:   9    -0.357465257446E+03   -0.12722E-02   -0.12507E-02 10962   0.188E-02-0.718E-04
CGA:  10    -0.357465698840E+03   -0.44139E-03   -0.45967E-03 10962   0.660E-03 0.629E-04
CGA:  11    -0.357465875595E+03   -0.17675E-03   -0.19104E-03 10962   0.289E-03 0.580E-04
CGA:  12    -0.357465956254E+03   -0.80658E-04   -0.96069E-04 10962   0.184E-03 0.737E-04
CGA:  13    -0.357466019076E+03   -0.62823E-04   -0.77456E-04 10962   0.152E-03 0.868E-04
CGA:  14    -0.357466102206E+03   -0.83129E-04   -0.91339E-04 10962   0.155E-03 0.950E-04
CGA:  15    -0.357466170076E+03   -0.67870E-04   -0.67022E-04 10962   0.132E-03-0.146E-04
CGA:  16    -0.357466263070E+03   -0.92994E-04   -0.15827E-03 10962   0.595E-03-0.790E-04
CGA:  17    -0.357466373768E+03   -0.11070E-03   -0.13294E-03 10962   0.126E-03 0.720E-04
CGA:  18    -0.357466430161E+03   -0.56393E-04   -0.57275E-04 10962   0.782E-04 0.794E-05
CGA:  19    -0.357466438846E+03   -0.86846E-05   -0.20613E-04 10962   0.510E-04 0.454E-04
CGA:  20    -0.357466465885E+03   -0.27039E-04   -0.26552E-04 10962   0.345E-04 0.200E-04
CGA:  21    -0.357466572360E+03   -0.10647E-03   -0.78286E-07 10962   0.710E-03-0.201E-04
CGA:  22    -0.357466635381E+03   -0.63021E-04   -0.12135E-03 10962   0.100E-03 0.781E-04
CGA:  23    -0.357466686119E+03   -0.50737E-04   -0.48469E-04 10962   0.379E-04-0.534E-05
CGA:  24    -0.357466716493E+03   -0.30374E-04   -0.24742E-04 10962   0.153E-03-0.355E-04
CGA:  25    -0.357466715637E+03    0.85547E-06   -0.23525E-04 10962   0.241E-04 0.353E-04
  34 F= -.35746672E+03 E0= -.35746672E+03  d E =-.316321E+00  mag=    12.0000
       N       E                     dE             d eps       ncg     rms          ort
SDA:   1    -0.357409698385E+03    0.57018E-01    0.00000E+00 10962   0.192E+00 0.000E+00
CGA:   2    -0.357461949773E+03   -0.52251E-01   -0.52103E-01 10962   0.102E+00-0.214E-03
CGA:   3    -0.357477200432E+03   -0.15251E-01   -0.15200E-01 10962   0.347E-01-0.596E-04
CGA:   4    -0.357483046026E+03   -0.58456E-02   -0.58269E-02 10962   0.957E-02-0.372E-04
CGA:   5    -0.357484554708E+03   -0.15087E-02   -0.15098E-02 10962   0.273E-02 0.348E-05
CGA:   6    -0.357485079708E+03   -0.52500E-03   -0.52037E-03 10962   0.105E-02-0.933E-05
CGA:   7    -0.357485356546E+03   -0.27684E-03   -0.25124E-03 10962   0.505E-03-0.632E-04
CGA:   8    -0.357485521923E+03   -0.16538E-03   -0.13546E-03 10962   0.287E-03-0.881E-04
CGA:   9    -0.357485598026E+03   -0.76103E-04   -0.64828E-04 10962   0.134E-03-0.339E-04
CGA:  10    -0.357485621424E+03   -0.23398E-04   -0.28298E-04 10962   0.519E-04 0.137E-04
CGA:  11    -0.357485627652E+03   -0.62279E-05   -0.13094E-04 10962   0.289E-04 0.198E-04
  35 F= -.35748563E+03 E0= -.35748563E+03  d E =-.189120E-01  mag=    12.0000
       N       E                     dE             d eps       ncg     rms          ort
SDA:   1    -0.357232369800E+03    0.25325E+00    0.00000E+00 10962   0.723E+00 0.000E+00
CGA:   2    -0.357408325666E+03   -0.17596E+00   -0.17577E+00 10962   0.432E+00-0.529E-03
CGA:   3    -0.357473277095E+03   -0.64951E-01   -0.64854E-01 10962   0.132E+00-0.475E-04
CGA:   4    -0.357494947272E+03   -0.21670E-01   -0.21643E-01 10962   0.365E-01-0.801E-04
CGA:   5    -0.357500706602E+03   -0.57593E-02   -0.57610E-02 10962   0.972E-02 0.670E-05
CGA:   6    -0.357502483816E+03   -0.17772E-02   -0.17698E-02 10962   0.344E-02-0.246E-04
CGA:   7    -0.357503306962E+03   -0.82315E-03   -0.78994E-03 10962   0.149E-02-0.145E-03
CGA:   8    -0.357503729027E+03   -0.42206E-03   -0.38731E-03 10962   0.771E-03-0.197E-03
CGA:   9    -0.357503929865E+03   -0.20084E-03   -0.18424E-03 10962   0.342E-03-0.102E-03
CGA:  10    -0.357504001647E+03   -0.71782E-04   -0.72620E-04 10962   0.112E-03 0.438E-05
CGA:  11    -0.357504021400E+03   -0.19753E-04   -0.25070E-04 10962   0.423E-04 0.265E-04
CGA:  12    -0.357504028641E+03   -0.72413E-05   -0.11244E-04 10962   0.236E-04 0.203E-04
  36 F= -.35750403E+03 E0= -.35750403E+03  d E =-.184010E-01  mag=    12.0000
       N       E                     dE             d eps       ncg     rms          ort
SDA:   1    -0.357452832051E+03    0.51189E-01    0.00000E+00 10962   0.159E+00 0.000E+00
CGA:   2    -0.357486268540E+03   -0.33436E-01   -0.33407E-01 10962   0.986E-01-0.209E-03
CGA:   3    -0.357502066745E+03   -0.15798E-01   -0.15784E-01 10962   0.304E-01-0.710E-04
CGA:   4    -0.357506694890E+03   -0.46281E-02   -0.46258E-02 10962   0.757E-02-0.158E-04
CGA:   5    -0.357507875288E+03   -0.11804E-02   -0.11787E-02 10962   0.200E-02-0.968E-05
CGA:   6    -0.357508228150E+03   -0.35286E-03   -0.34955E-03 10962   0.616E-03-0.192E-04
CGA:   7    -0.357508374505E+03   -0.14636E-03   -0.14060E-03 10962   0.264E-03-0.515E-04
CGA:   8    -0.357508450433E+03   -0.75928E-04   -0.73424E-04 10962   0.190E-03-0.749E-04
CGA:   9    -0.357508497029E+03   -0.46596E-04   -0.47703E-04 10962   0.153E-03-0.727E-04
CGA:  10    -0.357508526128E+03   -0.29099E-04   -0.27992E-04 10962   0.820E-04-0.280E-04
CGA:  11    -0.357508543856E+03   -0.17729E-04   -0.18043E-04 10962   0.423E-04 0.476E-05
CGA:  12    -0.357508556609E+03   -0.12752E-04   -0.13066E-04 10962   0.291E-04 0.803E-05
CGA:  13    -0.357508570405E+03   -0.13797E-04   -0.13488E-04 10962   0.258E-04 0.497E-05
CGA:  14    -0.357508585211E+03   -0.14805E-04   -0.14897E-04 10962   0.277E-04-0.786E-06
CGA:  15    -0.357508597075E+03   -0.11865E-04   -0.20023E-04 10962   0.657E-04-0.206E-04
CGA:  16    -0.357508620715E+03   -0.23640E-04   -0.23632E-04 10962   0.328E-04-0.101E-04
CGA:  17    -0.357508611012E+03    0.97031E-05   -0.32699E-04 10962   0.219E-03-0.519E-04
CGA:  18    -0.357508643669E+03   -0.32657E-04   -0.37144E-04 10962   0.288E-04 0.193E-04
CGA:  19    -0.357508654029E+03   -0.10360E-04   -0.10206E-04 10962   0.122E-04-0.244E-05
CGA:  20    -0.357508654316E+03   -0.28695E-06   -0.17875E-05 10962   0.593E-05 0.662E-05
  37 F= -.35750865E+03 E0= -.35750865E+03  d E =-.462568E-02  mag=    12.0000
       N       E                     dE             d eps       ncg     rms          ort
SDA:   1    -0.357321456266E+03    0.18720E+00    0.00000E+00 10962   0.559E+00 0.000E+00
CGA:   2    -0.357436248575E+03   -0.11479E+00   -0.11481E+00 10962   0.346E+00-0.130E-03
CGA:   3    -0.357492694968E+03   -0.56446E-01   -0.56448E-01 10962   0.108E+00 0.229E-04
CGA:   4    -0.357508882913E+03   -0.16188E-01   -0.16182E-01 10962   0.254E-01-0.433E-04
CGA:   5    -0.357512808779E+03   -0.39259E-02   -0.39204E-02 10962   0.649E-02-0.362E-04
CGA:   6    -0.357513939286E+03   -0.11305E-02   -0.11281E-02 10962   0.190E-02-0.177E-04
CGA:   7    -0.357514333819E+03   -0.39453E-03   -0.39145E-03 10962   0.647E-03-0.277E-04
CGA:   8    -0.357514491101E+03   -0.15728E-03   -0.15497E-03 10962   0.287E-03-0.327E-04
CGA:   9    -0.357514574417E+03   -0.83317E-04   -0.83098E-04 10962   0.164E-03-0.419E-04
CGA:  10    -0.357514620237E+03   -0.45820E-04   -0.46588E-04 10962   0.955E-04-0.349E-04
CGA:  11    -0.357514644270E+03   -0.24032E-04   -0.24201E-04 10962   0.469E-04-0.156E-04
CGA:  12    -0.357514659451E+03   -0.15182E-04   -0.20596E-04 10962   0.638E-04-0.254E-04
CGA:  13    -0.357514676558E+03   -0.17107E-04   -0.16748E-04 10962   0.209E-04-0.601E-05
CGA:  14    -0.357514677656E+03   -0.10980E-05   -0.18275E-04 10962   0.110E-03-0.266E-04
CGA:  15    -0.357514697912E+03   -0.20256E-04   -0.21007E-04 10962   0.128E-04 0.464E-05
CGA:  16    -0.357514698320E+03   -0.40785E-06   -0.13282E-04 10962   0.625E-04-0.197E-04
CGA:  17    -0.357514709994E+03   -0.11675E-04   -0.13132E-04 10962   0.140E-04 0.873E-05
CGA:  18    -0.357514515313E+03    0.19468E-03   -0.10535E-03 10962   0.105E-02-0.115E-03
CGA:  19    -0.357514679215E+03   -0.16390E-03   -0.19184E-03 10962   0.187E-03 0.561E-04
CGA:  20    -0.357514740830E+03   -0.61615E-04   -0.57387E-04 10962   0.117E-04-0.120E-04
CGA:  21    -0.357514746238E+03   -0.54081E-05   -0.52632E-05 10962   0.505E-05-0.977E-06
  38 F= -.35751475E+03 E0= -.35751475E+03  d E =-.609192E-02  mag=    12.0000
       N       E                     dE             d eps       ncg     rms          ort
SDA:   1    -0.357331014278E+03    0.18373E+00    0.00000E+00 10962   0.567E+00 0.000E+00
CGA:   2    -0.357440091200E+03   -0.10908E+00   -0.10913E+00 10962   0.339E+00 0.506E-04
CGA:   3    -0.357497233254E+03   -0.57142E-01   -0.57161E-01 10962   0.112E+00 0.242E-03
CGA:   4    -0.357514090199E+03   -0.16857E-01   -0.16853E-01 10962   0.260E-01 0.376E-05
CGA:   5    -0.357518077656E+03   -0.39875E-02   -0.39790E-02 10962   0.658E-02-0.282E-04
CGA:   6    -0.357519211422E+03   -0.11338E-02   -0.11316E-02 10962   0.188E-02-0.782E-05
CGA:   7    -0.357519589759E+03   -0.37834E-03   -0.37967E-03 10962   0.605E-03 0.382E-05
CGA:   8    -0.357519724632E+03   -0.13487E-03   -0.13724E-03 10962   0.237E-03 0.844E-05
CGA:   9    -0.357519792061E+03   -0.67430E-04   -0.66914E-04 10962   0.118E-03-0.251E-05
CGA:  10    -0.357519832868E+03   -0.40807E-04   -0.38861E-04 10962   0.723E-04-0.135E-04
CGA:  11    -0.357519856998E+03   -0.24130E-04   -0.22745E-04 10962   0.452E-04-0.119E-04
CGA:  12    -0.357519875547E+03   -0.18549E-04   -0.20309E-04 10962   0.659E-04-0.242E-04
CGA:  13    -0.357519894520E+03   -0.18973E-04   -0.17672E-04 10962   0.255E-04-0.649E-05
CGA:  14    -0.357519906681E+03   -0.12161E-04   -0.16332E-04 10962   0.599E-04-0.166E-04
CGA:  15    -0.357519919070E+03   -0.12389E-04   -0.12719E-04 10962   0.111E-04 0.125E-05
CGA:  16    -0.357519923798E+03   -0.47271E-05   -0.11716E-04 10962   0.522E-04-0.121E-04
CGA:  17    -0.357519936392E+03   -0.12594E-04   -0.13092E-04 10962   0.138E-04 0.207E-05
CGA:  18    -0.357519937590E+03   -0.11983E-05   -0.12802E-04 10962   0.126E-03-0.280E-04
CGA:  19    -0.357519948888E+03   -0.11298E-04   -0.17623E-04 10962   0.156E-04 0.177E-04
CGA:  20    -0.357519955056E+03   -0.61677E-05   -0.62435E-05 10962   0.917E-05 0.584E-06
CGA:  21    -0.357519750256E+03    0.20480E-03   -0.11144E-03 10962   0.167E-02-0.909E-04
[...]
CGA:  10    -0.357528404469E+03   -0.72853E-05   -0.72528E-05 10962   0.104E-04 0.459E-05
  46 F= -.35752840E+03 E0= -.35752840E+03  d E =-.993506E-03  mag=    12.0000
       N       E                     dE             d eps       ncg     rms          ort
SDA:   1    -0.357360995420E+03    0.16740E+00    0.00000E+00 10962   0.401E+00 0.000E+00
CGA:   2    -0.357486658528E+03   -0.12566E+00   -0.12569E+00 10962   0.224E+00-0.435E-03
CGA:   3    -0.357516997788E+03   -0.30339E-01   -0.30331E-01 10962   0.548E-01-0.119E-03
CGA:   4    -0.357525373339E+03   -0.83756E-02   -0.83823E-02 10962   0.127E-01 0.646E-04
CGA:   5    -0.357527412628E+03   -0.20393E-02   -0.20431E-02 10962   0.363E-02 0.440E-04
CGA:   6    -0.357528062683E+03   -0.65006E-03   -0.64922E-03 10962   0.109E-02-0.143E-04
CGA:   7    -0.357528289083E+03   -0.22640E-03   -0.22545E-03 10962   0.376E-03-0.336E-04
CGA:   8    -0.357528381109E+03   -0.92026E-04   -0.92464E-04 10962   0.180E-03-0.226E-04
CGA:   9    -0.357528428294E+03   -0.47184E-04   -0.47678E-04 10962   0.854E-04-0.107E-04
CGA:  10    -0.357528450743E+03   -0.22450E-04   -0.22524E-04 10962   0.330E-04-0.173E-05
CGA:  11    -0.357528458689E+03   -0.79457E-05   -0.79218E-05 10962   0.110E-04 0.465E-05
  47 F= -.35752846E+03 E0= -.35752846E+03  d E =-.542197E-04  mag=    12.0000
       N       E                     dE             d eps       ncg     rms          ort
SDA:   1    -0.347618773514E+03    0.99097E+01    0.00000E+00 10962   0.234E+02 0.000E+00
CGA:   2    -0.355231380616E+03   -0.76126E+01   -0.76124E+01 10962   0.123E+02-0.812E-03
CGA:   3    -0.356886140797E+03   -0.16548E+01   -0.16560E+01 10962   0.299E+01 0.404E-02
CGA:   4    -0.357343573964E+03   -0.45743E+00   -0.45728E+00 10962   0.715E+00-0.142E-02
CGA:   5    -0.357459429108E+03   -0.11586E+00   -0.11584E+00 10962   0.211E+00-0.381E-03
CGA:   6    -0.357496928857E+03   -0.37500E-01   -0.37482E-01 10962   0.638E-01-0.382E-03
CGA:   7    -0.357509978101E+03   -0.13049E-01   -0.13034E-01 10962   0.218E-01-0.687E-03
CGA:   8    -0.357515453841E+03   -0.54757E-02   -0.54966E-02 10962   0.104E-01-0.751E-03
CGA:   9    -0.357518277347E+03   -0.28235E-02   -0.28601E-02 10962   0.490E-02-0.650E-03
CGA:  10    -0.357519576190E+03   -0.12988E-02   -0.13242E-02 10962   0.189E-02-0.440E-03
CGA:  11    -0.357520048909E+03   -0.47272E-03   -0.48015E-03 10962   0.623E-03-0.161E-03
CGA:  12    -0.357520221286E+03   -0.17238E-03   -0.17455E-03 10962   0.266E-03-0.309E-04
CGA:  13    -0.357520317876E+03   -0.96590E-04   -0.95570E-04 10962   0.172E-03 0.731E-05
CGA:  14    -0.357520396401E+03   -0.78525E-04   -0.73702E-04 10962   0.120E-03 0.284E-04
CGA:  15    -0.357520460721E+03   -0.64320E-04   -0.60245E-04 10962   0.792E-04 0.234E-04
CGA:  16    -0.357520502646E+03   -0.41925E-04   -0.38530E-04 10962   0.505E-04 0.236E-04
CGA:  17    -0.357520545866E+03   -0.43219E-04   -0.44745E-04 10962   0.769E-04-0.390E-05
CGA:  18    -0.357520588380E+03   -0.42514E-04   -0.42475E-04 10962   0.971E-04-0.127E-06
CGA:  19    -0.357520629819E+03   -0.41439E-04   -0.40197E-04 10962   0.713E-04 0.107E-04
CGA:  20    -0.357520649507E+03   -0.19687E-04   -0.21165E-04 10962   0.419E-04 0.324E-04
CGA:  21    -0.357520660489E+03   -0.10982E-04   -0.13666E-04 10962   0.258E-04 0.310E-04
CGA:  22    -0.357520672301E+03   -0.11813E-04   -0.10577E-04 10962   0.143E-04 0.118E-04
CGA:  23    -0.357520674758E+03   -0.24561E-05   -0.42564E-05 10962   0.115E-04 0.169E-04
  48 F= -.35752067E+03 E0= -.35752067E+03  d E =0.778393E-02  mag=    12.0000
       N       E                     dE             d eps       ncg     rms          ort
SDA:   1    -0.348038152410E+03    0.94825E+01    0.00000E+00 10962   0.223E+02 0.000E+00
CGA:   2    -0.355360257663E+03   -0.73221E+01   -0.73216E+01 10962   0.108E+02 0.110E-01
CGA:   3    -0.356877539331E+03   -0.15173E+01   -0.15190E+01 10962   0.290E+01 0.108E-01
CGA:   4    -0.357318863877E+03   -0.44132E+00   -0.44122E+00 10962   0.659E+00-0.672E-03
CGA:   5    -0.357427072015E+03   -0.10821E+00   -0.10815E+00 10962   0.199E+00-0.532E-03
CGA:   6    -0.357463363852E+03   -0.36292E-01   -0.36287E-01 10962   0.640E-01-0.813E-04
CGA:   7    -0.357476582428E+03   -0.13219E-01   -0.13222E-01 10962   0.229E-01 0.302E-04
CGA:   8    -0.357482402515E+03   -0.58201E-02   -0.58160E-02 10962   0.110E-01-0.158E-03
CGA:   9    -0.357485512975E+03   -0.31105E-02   -0.31121E-02 10962   0.508E-02-0.325E-03
CGA:  10    -0.357486917971E+03   -0.14050E-02   -0.14067E-02 10962   0.198E-02-0.289E-03
CGA:  11    -0.357487463690E+03   -0.54572E-03   -0.54828E-03 10962   0.742E-03-0.175E-03
CGA:  12    -0.357487694513E+03   -0.23082E-03   -0.23727E-03 10962   0.426E-03-0.916E-04
CGA:  13    -0.357487859066E+03   -0.16455E-03   -0.17911E-03 10962   0.395E-03-0.747E-04
CGA:  14    -0.357488015193E+03   -0.15613E-03   -0.16452E-03 10962   0.327E-03-0.403E-04
CGA:  15    -0.357488127417E+03   -0.11222E-03   -0.10945E-03 10962   0.170E-03 0.397E-04
CGA:  16    -0.357488193392E+03   -0.65974E-04   -0.64369E-04 10962   0.963E-04 0.519E-04
CGA:  17    -0.357488239709E+03   -0.46317E-04   -0.44164E-04 10962   0.701E-04 0.509E-04
CGA:  18    -0.357488267237E+03   -0.27528E-04   -0.26037E-04 10962   0.362E-04 0.247E-04
CGA:  19    -0.357488290196E+03   -0.22959E-04   -0.19828E-04 10962   0.316E-04 0.341E-04
CGA:  20    -0.357488300828E+03   -0.10631E-04   -0.10405E-04 10962   0.222E-04 0.215E-04
CGA:  21    -0.357488338289E+03   -0.37462E-04   -0.25706E-04 10962   0.474E-04 0.137E-04
CGA:  22    -0.357488335674E+03    0.26154E-05   -0.44206E-05 10962   0.197E-04 0.262E-04
  49 F= -.35748834E+03 E0= -.35748834E+03  d E =0.323391E-01  mag=    12.0000
       N       E                     dE             d eps       ncg     rms          ort
SDA:   1    -0.349069804897E+03    0.84185E+01    0.00000E+00 10962   0.199E+02 0.000E+00
CGA:   2    -0.355576466203E+03   -0.65067E+01   -0.65067E+01 10962   0.103E+02-0.151E-02
CGA:   3    -0.356979478893E+03   -0.14030E+01   -0.14034E+01 10962   0.255E+01 0.260E-01
CGA:   4    -0.357373220568E+03   -0.39374E+00   -0.39352E+00 10962   0.605E+00 0.469E-03
CGA:   5    -0.357472489831E+03   -0.99269E-01   -0.99241E-01 10962   0.180E+00-0.289E-03
CGA:   6    -0.357504918832E+03   -0.32429E-01   -0.32393E-01 10962   0.560E-01-0.318E-03
CGA:   7    -0.357516587178E+03   -0.11668E-01   -0.11610E-01 10962   0.197E-01-0.599E-03
CGA:   8    -0.357521560305E+03   -0.49731E-02   -0.49447E-02 10962   0.925E-02-0.601E-03
CGA:   9    -0.357524078595E+03   -0.25183E-02   -0.25102E-02 10962   0.417E-02-0.436E-03
CGA:  10    -0.357525203733E+03   -0.11251E-02   -0.11211E-02 10962   0.155E-02-0.266E-03
CGA:  11    -0.357525609594E+03   -0.40586E-03   -0.40407E-03 10962   0.506E-03-0.985E-04
CGA:  12    -0.357525748530E+03   -0.13894E-03   -0.13894E-03 10962   0.206E-03 0.197E-05
CGA:  13    -0.357525814080E+03   -0.65549E-04   -0.64797E-04 10962   0.111E-03 0.411E-04
CGA:  14    -0.357525857212E+03   -0.43132E-04   -0.42114E-04 10962   0.706E-04 0.492E-04
CGA:  15    -0.357525893259E+03   -0.36047E-04   -0.34456E-04 10962   0.469E-04 0.397E-04
CGA:  16    -0.357525915626E+03   -0.22368E-04   -0.22645E-04 10962   0.390E-04-0.152E-05
CGA:  17    -0.357525939160E+03   -0.23534E-04   -0.20191E-04 10962   0.314E-04 0.149E-04
CGA:  18    -0.357525969572E+03   -0.30412E-04   -0.26116E-04 10962   0.266E-04 0.155E-04
CGA:  19    -0.357525984424E+03   -0.14852E-04   -0.14253E-04 10962   0.153E-04 0.241E-04
CGA:  20    -0.357525934745E+03    0.49679E-04   -0.27802E-04 10962   0.442E-03-0.477E-04
CGA:  21    -0.357525985313E+03   -0.50568E-04   -0.75043E-04 10962   0.582E-04 0.552E-04
CGA:  22    -0.357526011256E+03   -0.25943E-04   -0.22821E-04 10962   0.152E-04-0.129E-04
CGA:  23    -0.357526026998E+03   -0.15741E-04    0.22049E-04 10962   0.161E-04-0.424E-06
CGA:  24    -0.357526027006E+03   -0.81091E-08   -0.35190E-05 10962   0.945E-05 0.998E-05
  50 F= -.35752603E+03 E0= -.35752603E+03  d E =-.376913E-01  mag=    12.0000
       N       E                     dE             d eps       ncg     rms          ort
SDA:   1    -0.355745974050E+03    0.17801E+01    0.00000E+00 10962   0.426E+01 0.000E+00
CGA:   2    -0.357099742435E+03   -0.13538E+01   -0.13526E+01 10962   0.183E+01-0.969E-03
CGA:   3    -0.357378636395E+03   -0.27889E+00   -0.27849E+00 10962   0.619E+00 0.247E-02
CGA:   4    -0.357475057510E+03   -0.96421E-01   -0.96323E-01 10962   0.142E+00-0.753E-04
CGA:   5    -0.357497786823E+03   -0.22729E-01   -0.22719E-01 10962   0.419E-01 0.597E-05
CGA:   6    -0.357505791411E+03   -0.80046E-02   -0.79616E-02 10962   0.150E-01-0.140E-03
CGA:   7    -0.357509187565E+03   -0.33962E-02   -0.32926E-02 10962   0.596E-02-0.411E-03
CGA:   8    -0.357510762761E+03   -0.15752E-02   -0.14899E-02 10962   0.284E-02-0.422E-03
CGA:   9    -0.357511524469E+03   -0.76171E-03   -0.72693E-03 10962   0.119E-02-0.200E-03
CGA:  10    -0.357511808125E+03   -0.28366E-03   -0.27858E-03 10962   0.366E-03-0.268E-04
CGA:  11    -0.357511892860E+03   -0.84734E-04   -0.89186E-04 10962   0.105E-03 0.245E-04
CGA:  12    -0.357511910033E+03   -0.17173E-04   -0.23932E-04 10962   0.376E-04 0.323E-04
CGA:  13    -0.357511912748E+03   -0.27153E-05   -0.85802E-05 10962   0.201E-04 0.248E-04
  51 F= -.35751191E+03 E0= -.35751191E+03  d E =0.141143E-01  mag=    12.0000
       N       E                     dE             d eps       ncg     rms          ort
SDA:   1    -0.354437965260E+03    0.30739E+01    0.00000E+00 10962   0.726E+01 0.000E+00
CGA:   2    -0.356860043310E+03   -0.24221E+01   -0.24225E+01 10962   0.338E+01 0.193E-02
CGA:   3    -0.357331976579E+03   -0.47193E+00   -0.47243E+00 10962   0.942E+00 0.133E-02
CGA:   4    -0.357475671364E+03   -0.14369E+00   -0.14368E+00 10962   0.220E+00 0.426E-04
CGA:   5    -0.357511168691E+03   -0.35497E-01   -0.35472E-01 10962   0.651E-01-0.140E-03
CGA:   6    -0.357522995615E+03   -0.11827E-01   -0.11830E-01 10962   0.207E-01 0.102E-04
CGA:   7    -0.357527188932E+03   -0.41933E-02   -0.42224E-02 10962   0.709E-02 0.204E-03
CGA:   8    -0.357528908937E+03   -0.17200E-02   -0.17367E-02 10962   0.313E-02 0.176E-03
CGA:   9    -0.357529791790E+03   -0.88285E-03   -0.88431E-03 10962   0.138E-02 0.259E-04
CGA:  10    -0.357530186477E+03   -0.39469E-03   -0.39165E-03 10962   0.522E-03-0.613E-04
CGA:  11    -0.357530333708E+03   -0.14723E-03   -0.14505E-03 10962   0.179E-03-0.594E-04
CGA:  12    -0.357530388902E+03   -0.55195E-04   -0.57046E-04 10962   0.101E-03-0.547E-04
CGA:  13    -0.357530392694E+03   -0.37911E-05   -0.54510E-04 10962   0.303E-03-0.113E-03
CGA:  14    -0.357530454517E+03   -0.61823E-04   -0.62862E-04 10962   0.440E-04 0.726E-05
CGA:  15    -0.357530463677E+03   -0.91599E-05   -0.10665E-04 10962   0.111E-04 0.142E-04
  52 F= -.35753046E+03 E0= -.35753046E+03  d E =-.185509E-01  mag=    12.0000
       N       E                     dE             d eps       ncg     rms          ort
SDA:   1    -0.357268022430E+03    0.26243E+00    0.00000E+00 10962   0.691E+00 0.000E+00
CGA:   2    -0.357438708704E+03   -0.17069E+00   -0.17077E+00 10962   0.449E+00 0.729E-03
CGA:   3    -0.357506111644E+03   -0.67403E-01   -0.67462E-01 10962   0.123E+00 0.340E-03
CGA:   4    -0.357524460110E+03   -0.18348E-01   -0.18331E-01 10962   0.289E-01-0.129E-03
CGA:   5    -0.357528911023E+03   -0.44509E-02   -0.44325E-02 10962   0.755E-02-0.124E-03
CGA:   6    -0.357530238238E+03   -0.13272E-02   -0.13276E-02 10962   0.230E-02 0.214E-05
CGA:   7    -0.357530684242E+03   -0.44600E-03   -0.45409E-03 10962   0.725E-03 0.827E-04
CGA:   8    -0.357530840718E+03   -0.15648E-03   -0.16215E-03 10962   0.275E-03 0.765E-04
CGA:   9    -0.357530916373E+03   -0.75656E-04   -0.76885E-04 10962   0.123E-03 0.371E-04
CGA:  10    -0.357530957184E+03   -0.40810E-04   -0.40780E-04 10962   0.593E-04 0.392E-05
CGA:  11    -0.357530975795E+03   -0.18611E-04   -0.18712E-04 10962   0.266E-04-0.486E-05
CGA:  12    -0.357530984002E+03   -0.82071E-05   -0.86966E-05 10962   0.152E-04-0.704E-05
  53 F= -.35753098E+03 E0= -.35753098E+03  d E =-.520326E-03  mag=    12.0000
       N       E                     dE             d eps       ncg     rms          ort
SDA:   1    -0.356732176398E+03    0.79880E+00    0.00000E+00 10962   0.215E+01 0.000E+00
CGA:   2    -0.357254161299E+03   -0.52198E+00   -0.52219E+00 10962   0.128E+01 0.200E-02
CGA:   3    -0.357448149060E+03   -0.19399E+00   -0.19399E+00 10962   0.379E+00 0.175E-03
CGA:   4    -0.357506797793E+03   -0.58649E-01   -0.58537E-01 10962   0.902E-01-0.818E-03
CGA:   5    -0.357520718224E+03   -0.13920E-01   -0.13872E-01 10962   0.233E-01-0.370E-03
CGA:   6    -0.357524838632E+03   -0.41204E-02   -0.41154E-02 10962   0.704E-02-0.518E-04
CGA:   7    -0.357526310001E+03   -0.14714E-02   -0.14688E-02 10962   0.246E-02-0.397E-04
CGA:   8    -0.357526919812E+03   -0.60981E-03   -0.60722E-03 10962   0.114E-02-0.982E-04
CGA:   9    -0.357527244801E+03   -0.32499E-03   -0.32802E-03 10962   0.618E-03-0.117E-03
CGA:  10    -0.357527410039E+03   -0.16524E-03   -0.16732E-03 10962   0.279E-03-0.772E-04
CGA:  11    -0.357527480104E+03   -0.70065E-04   -0.70289E-04 10962   0.104E-03-0.182E-04
CGA:  12    -0.357527507288E+03   -0.27184E-04   -0.27170E-04 10962   0.413E-04 0.672E-05
CGA:  13    -0.357527520679E+03   -0.13391E-04   -0.13204E-04 10962   0.207E-04 0.802E-05
CGA:  14    -0.357527528475E+03   -0.77961E-05   -0.76082E-05 10962   0.109E-04 0.642E-05
  54 F= -.35752753E+03 E0= -.35752753E+03  d E =0.345553E-02  mag=    12.0000
       N       E                     dE             d eps       ncg     rms          ort
SDA:   1    -0.356294881882E+03    0.12326E+01    0.00000E+00 10962   0.304E+01 0.000E+00
CGA:   2    -0.357176603954E+03   -0.88172E+00   -0.88172E+00 10962   0.188E+01-0.951E-03
CGA:   3    -0.357437900216E+03   -0.26130E+00   -0.26127E+00 10962   0.454E+00-0.447E-03
CGA:   4    -0.357506030822E+03   -0.68131E-01   -0.68124E-01 10962   0.107E+00-0.124E-04
CGA:   5    -0.357522936883E+03   -0.16906E-01   -0.16927E-01 10962   0.294E-01 0.165E-03
CGA:   6    -0.357528185716E+03   -0.52488E-02   -0.52470E-02 10962   0.880E-02-0.250E-04
CGA:   7    -0.357530001218E+03   -0.18155E-02   -0.18057E-02 10962   0.293E-02-0.176E-03
CGA:   8    -0.357530708387E+03   -0.70717E-03   -0.70533E-03 10962   0.132E-02-0.140E-03
CGA:   9    -0.357531059202E+03   -0.35081E-03   -0.35256E-03 10962   0.613E-03-0.777E-04
CGA:  10    -0.357531221258E+03   -0.16206E-03   -0.16296E-03 10962   0.233E-03-0.390E-04
CGA:  11    -0.357531281146E+03   -0.59888E-04   -0.60038E-04 10962   0.735E-04-0.986E-05
CGA:  12    -0.357531302190E+03   -0.21044E-04   -0.21212E-04 10962   0.289E-04-0.420E-05
CGA:  13    -0.357531311621E+03   -0.94307E-05   -0.93812E-05 10962   0.152E-04 0.591E-06
  55 F= -.35753131E+03 E0= -.35753131E+03  d E =-.378315E-02  mag=    12.0000
       N       E                     dE             d eps       ncg     rms          ort
SDA:   1    -0.354525350169E+03    0.30060E+01    0.00000E+00 10962   0.715E+01 0.000E+00
CGA:   2    -0.356753184923E+03   -0.22278E+01   -0.22276E+01 10962   0.399E+01 0.344E-02
CGA:   3    -0.357298883091E+03   -0.54570E+00   -0.54591E+00 10962   0.101E+01 0.716E-03
CGA:   4    -0.357452541797E+03   -0.15366E+00   -0.15363E+00 10962   0.245E+00-0.254E-03
CGA:   5    -0.357491523686E+03   -0.38982E-01   -0.38987E-01 10962   0.697E-01-0.162E-04
CGA:   6    -0.357504095950E+03   -0.12572E-01   -0.12584E-01 10962   0.218E-01 0.145E-03
CGA:   7    -0.357508493037E+03   -0.43971E-02   -0.44138E-02 10962   0.733E-02 0.343E-03
CGA:   8    -0.357510219289E+03   -0.17263E-02   -0.17319E-02 10962   0.302E-02 0.364E-03
CGA:   9    -0.357511067782E+03   -0.84849E-03   -0.84500E-03 10962   0.131E-02 0.180E-03
CGA:  10    -0.357511454449E+03   -0.38667E-03   -0.38645E-03 10962   0.511E-03 0.746E-05
CGA:  11    -0.357511599227E+03   -0.14478E-03   -0.14528E-03 10962   0.178E-03-0.155E-04
CGA:  12    -0.357511652516E+03   -0.53289E-04   -0.54660E-04 10962   0.804E-04-0.209E-04
CGA:  13    -0.357511680747E+03   -0.28231E-04   -0.34559E-04 10962   0.795E-04-0.273E-04
CGA:  14    -0.357511701355E+03   -0.20608E-04   -0.21110E-04 10962   0.543E-04-0.370E-05
CGA:  15    -0.357511713136E+03   -0.11781E-04   -0.12440E-04 10962   0.262E-04 0.199E-04
CGA:  16    -0.357511716092E+03   -0.29561E-05   -0.54511E-05 10962   0.136E-04 0.209E-04
  56 F= -.35751172E+03 E0= -.35751172E+03  d E =0.195955E-01  mag=    12.0000
       N       E                     dE             d eps       ncg     rms          ort
SDA:   1    -0.356440486986E+03    0.10712E+01    0.00000E+00 10962   0.272E+01 0.000E+00
CGA:   2    -0.357201824057E+03   -0.76134E+00   -0.76134E+00 10962   0.167E+01-0.633E-03
CGA:   3    -0.357439740235E+03   -0.23792E+00   -0.23787E+00 10962   0.437E+00-0.398E-03
CGA:   4    -0.357506414996E+03   -0.66675E-01   -0.66617E-01 10962   0.106E+00-0.592E-03
CGA:   5    -0.357523193139E+03   -0.16778E-01   -0.16758E-01 10962   0.293E-01-0.237E-03
CGA:   6    -0.357528504510E+03   -0.53114E-02   -0.53020E-02 10962   0.930E-02-0.152E-03
CGA:   7    -0.357530503314E+03   -0.19988E-02   -0.19899E-02 10962   0.346E-02-0.341E-03
CGA:   8    -0.357531366932E+03   -0.86362E-03   -0.87272E-03 10962   0.171E-02-0.418E-03
CGA:   9    -0.357531794410E+03   -0.42748E-03   -0.44311E-03 10962   0.861E-03-0.287E-03
CGA:  10    -0.357531984979E+03   -0.19057E-03   -0.19321E-03 10962   0.303E-03-0.102E-03
CGA:  11    -0.357532054471E+03   -0.69492E-04   -0.69550E-04 10962   0.920E-04-0.386E-05
CGA:  12    -0.357532073321E+03   -0.18851E-04   -0.19533E-04 10962   0.317E-04 0.223E-04
CGA:  13    -0.357532079171E+03   -0.58496E-05   -0.70407E-05 10962   0.159E-04 0.182E-04
  57 F= -.35753208E+03 E0= -.35753208E+03  d E =-.203631E-01  mag=    12.0000
       N       E                     dE             d eps       ncg     rms          ort
SDA:   1    -0.357466844463E+03    0.65229E-01    0.00000E+00 10962   0.174E+00 0.000E+00
CGA:   2    -0.357507826934E+03   -0.40982E-01   -0.40981E-01 10962   0.104E+00-0.326E-03
CGA:   3    -0.357524076803E+03   -0.16250E-01   -0.16226E-01 10962   0.334E-01-0.303E-03
CGA:   4    -0.357529376028E+03   -0.52992E-02   -0.52831E-02 10962   0.883E-02-0.217E-03
CGA:   5    -0.357530733611E+03   -0.13576E-02   -0.13540E-02 10962   0.228E-02-0.483E-04
CGA:   6    -0.357531146066E+03   -0.41245E-03   -0.41208E-03 10962   0.773E-03-0.854E-05
CGA:   7    -0.357531341192E+03   -0.19513E-03   -0.20023E-03 10962   0.440E-03-0.146E-03
CGA:   8    -0.357531415317E+03   -0.74124E-04   -0.15575E-03 10962   0.799E-03-0.390E-03
CGA:   9    -0.357531516216E+03   -0.10090E-03   -0.10614E-03 10962   0.115E-03 0.500E-04
CGA:  10    -0.357531535863E+03   -0.19648E-04   -0.21673E-04 10962   0.285E-04 0.374E-04
CGA:  11    -0.357531540221E+03   -0.43576E-05   -0.56590E-05 10962   0.118E-04 0.163E-04
  58 F= -.35753154E+03 E0= -.35753154E+03  d E =0.538950E-03  mag=    12.0000
       N       E                     dE             d eps       ncg     rms          ort
SDA:   1    -0.357470728252E+03    0.60808E-01    0.00000E+00 10962   0.145E+00 0.000E+00
CGA:   2    -0.357518337793E+03   -0.47610E-01   -0.47564E-01 10962   0.730E-01 0.419E-03
CGA:   3    -0.357528475869E+03   -0.10138E-01   -0.10145E-01 10962   0.196E-01 0.533E-04
CGA:   4    -0.357531470504E+03   -0.29946E-02   -0.29942E-02 10962   0.467E-02-0.906E-05
CGA:   5    -0.357532227611E+03   -0.75711E-03   -0.75540E-03 10962   0.138E-02-0.302E-04
CGA:   6    -0.357532473534E+03   -0.24592E-03   -0.24633E-03 10962   0.427E-03 0.112E-04
CGA:   7    -0.357532545870E+03   -0.72336E-04   -0.75158E-04 10962   0.125E-03 0.703E-04
CGA:   8    -0.357532565243E+03   -0.19373E-04   -0.22709E-04 10962   0.501E-04 0.583E-04
CGA:   9    -0.357532573591E+03   -0.83478E-05   -0.10657E-04 10962   0.260E-04 0.357E-04
  59 F= -.35753257E+03 E0= -.35753257E+03  d E =-.103337E-02  mag=    12.0000
