 vasp.6.1.2 22Jul20 (build Dec 05 2020 14:50:36) complex                        
  
 executed on         CrayXC-Intel date 2021.06.03  17:17:51
 running on   24 total cores
 distrk:  each k-point on   24 cores,    1 groups
 distr:  one band on NCORE=   6 cores,    4 groups


--------------------------------------------------------------------------------------------------------


 INCAR:
 POTCAR:    PAW_PBE Ca_sv 06Sep2000               
 POTCAR:    PAW_PBE Si 05Jan2001                  
 POTCAR:    PAW_PBE O 08Apr2002                   
 POTCAR:    PAW_PBE Ca_sv 06Sep2000               
   VRHFIN =Ca: 3s3p4s                                                                               
   LEXCH  = PE                                                                                      
   EATOM  =  1006.0909 eV,   73.9456 Ry                                                             
                                                                                                    
   TITEL  = PAW_PBE Ca_sv 06Sep2000                                                                 
   LULTRA =        F    use ultrasoft PP ?                                                          
   IUNSCR =        1    unscreen: 0-lin 1-nonlin 2-no                                               
   RPACOR =    2.000    partial core radius                                                         
   POMASS =   40.078; ZVAL   =   10.000    mass and valenz                                          
   RCORE  =    2.300    outmost cutoff radius                                                       
   RWIGS  =    2.500; RWIGS  =    1.323    wigner-seitz radius (au A)                               
   ENMAX  =  266.622; ENMIN  =  199.967 eV                                                          
   RCLOC  =    1.808    cutoff for local pot                                                        
   LCOR   =        T    correct aug charges                                                         
   LPAW   =        T    paw PP                                                                      
   EAUG   =  420.852                                                                                
   RMAX   =    2.359    core radius for proj-oper                                                   
   RAUG   =    1.300    factor for augmentation sphere                                              
   RDEP   =    2.392    radius for radial grids                                                     
   RDEPT  =    1.987    core radius for aug-charge                                                  
                                                                                                    
   Atomic configuration                                                                             
    7 entries                                                                                       
     n  l   j            E        occ.                                                              
     1  0  0.50     -3949.1705   2.0000                                                             
     2  0  0.50      -414.3434   2.0000                                                             
     2  1  1.50      -334.7047   6.0000                                                             
     3  0  0.50       -47.0896   2.0000                                                             
     4  0  0.50        -3.7663   2.0000                                                             
     3  1  1.50       -28.0061   6.0000                                                             
     3  2  1.50        -4.0817   0.0000                                                             
   Description                                                                                      
     l       E           TYP  RCUT    TYP  RCUT                                                     
     0    -47.0896403     23  2.300                                                                 
     0     -3.7663320     23  2.300                                                                 
     1    -28.0060855     23  2.300                                                                 
     1      6.8029130     23  2.300                                                                 
     2     -4.0817478     23  2.300                                                                 
     2      0.4464412     23  2.300                                                                 
  local pseudopotential read in
  partial core-charges read in
  partial kinetic energy density read in
  atomic valenz-charges read in
  non local Contribution for L=           0  read in
    real space projection operators read in
  non local Contribution for L=           0  read in
    real space projection operators read in
  non local Contribution for L=           1  read in
    real space projection operators read in
  non local Contribution for L=           1  read in
    real space projection operators read in
  non local Contribution for L=           2  read in
    real space projection operators read in
  non local Contribution for L=           2  read in
    real space projection operators read in
    PAW grid and wavefunctions read in
 
   number of l-projection  operators is LMAX  =           6
   number of lm-projection operators is LMMAX =          18
 
 POTCAR:    PAW_PBE Si 05Jan2001                  
   VRHFIN =Si: s2p2                                                                                 
   LEXCH  = PE                                                                                      
   EATOM  =   103.0669 eV,    7.5752 Ry                                                             
                                                                                                    
   TITEL  = PAW_PBE Si 05Jan2001                                                                    
   LULTRA =        F    use ultrasoft PP ?                                                          
   IUNSCR =        1    unscreen: 0-lin 1-nonlin 2-no                                               
   RPACOR =    1.500    partial core radius                                                         
   POMASS =   28.085; ZVAL   =    4.000    mass and valenz                                          
   RCORE  =    1.900    outmost cutoff radius                                                       
   RWIGS  =    2.480; RWIGS  =    1.312    wigner-seitz radius (au A)                               
   ENMAX  =  245.345; ENMIN  =  184.009 eV                                                          
   ICORE  =        2    local potential                                                             
   LCOR   =        T    correct aug charges                                                         
   LPAW   =        T    paw PP                                                                      
   EAUG   =  322.069                                                                                
   DEXC   =    0.000                                                                                
   RMAX   =    1.950    core radius for proj-oper                                                   
   RAUG   =    1.300    factor for augmentation sphere                                              
   RDEP   =    1.993    radius for radial grids                                                     
   RDEPT  =    1.837    core radius for aug-charge                                                  
                                                                                                    
   Atomic configuration                                                                             
    6 entries                                                                                       
     n  l   j            E        occ.                                                              
     1  0  0.50     -1785.8828   2.0000                                                             
     2  0  0.50      -139.4969   2.0000                                                             
     2  1  1.50       -95.5546   6.0000                                                             
     3  0  0.50       -10.8127   2.0000                                                             
     3  1  0.50        -4.0811   2.0000                                                             
     3  2  1.50        -4.0817   0.0000                                                             
   Description                                                                                      
     l       E           TYP  RCUT    TYP  RCUT                                                     
     0    -10.8127223     23  1.900                                                                 
     0     -7.6451159     23  1.900                                                                 
     1     -4.0811372     23  1.900                                                                 
     1      2.4879257     23  1.900                                                                 
     2     -4.0817478      7  1.900                                                                 
  local pseudopotential read in
  partial core-charges read in
  partial kinetic energy density read in
  atomic valenz-charges read in
  non local Contribution for L=           0  read in
    real space projection operators read in
  non local Contribution for L=           0  read in
    real space projection operators read in
  non local Contribution for L=           1  read in
    real space projection operators read in
  non local Contribution for L=           1  read in
    real space projection operators read in
    PAW grid and wavefunctions read in
 
   number of l-projection  operators is LMAX  =           4
   number of lm-projection operators is LMMAX =           8
 
 POTCAR:    PAW_PBE O 08Apr2002                   
   VRHFIN =O: s2p4                                                                                  
   LEXCH  = PE                                                                                      
   EATOM  =   432.3788 eV,   31.7789 Ry                                                             
                                                                                                    
   TITEL  = PAW_PBE O 08Apr2002                                                                     
   LULTRA =        F    use ultrasoft PP ?                                                          
   IUNSCR =        1    unscreen: 0-lin 1-nonlin 2-no                                               
   RPACOR =    1.200    partial core radius                                                         
   POMASS =   16.000; ZVAL   =    6.000    mass and valenz                                          
   RCORE  =    1.520    outmost cutoff radius                                                       
   RWIGS  =    1.550; RWIGS  =    0.820    wigner-seitz radius (au A)                               
   ENMAX  =  400.000; ENMIN  =  300.000 eV                                                          
   ICORE  =        2    local potential                                                             
   LCOR   =        T    correct aug charges                                                         
   LPAW   =        T    paw PP                                                                      
   EAUG   =  605.392                                                                                
   DEXC   =    0.000                                                                                
   RMAX   =    1.553    core radius for proj-oper                                                   
   RAUG   =    1.300    factor for augmentation sphere                                              
   RDEP   =    1.550    radius for radial grids                                                     
   RDEPT  =    1.329    core radius for aug-charge                                                  
                                                                                                    
   Atomic configuration                                                                             
    4 entries                                                                                       
     n  l   j            E        occ.                                                              
     1  0  0.50      -514.6923   2.0000                                                             
     2  0  0.50       -23.9615   2.0000                                                             
     2  1  0.50        -9.0305   4.0000                                                             
     3  2  1.50        -9.5241   0.0000                                                             
   Description                                                                                      
     l       E           TYP  RCUT    TYP  RCUT                                                     
     0    -23.9615318     23  1.200                                                                 
     0     -9.5240782     23  1.200                                                                 
     1     -9.0304911     23  1.520                                                                 
     1      8.1634956     23  1.520                                                                 
     2     -9.5240782      7  1.500                                                                 
  local pseudopotential read in
  partial core-charges read in
  partial kinetic energy density read in
  kinetic energy density of atom read in
  atomic valenz-charges read in
  non local Contribution for L=           0  read in
    real space projection operators read in
  non local Contribution for L=           0  read in
    real space projection operators read in
  non local Contribution for L=           1  read in
    real space projection operators read in
  non local Contribution for L=           1  read in
    real space projection operators read in
    PAW grid and wavefunctions read in
 
   number of l-projection  operators is LMAX  =           4
   number of lm-projection operators is LMMAX =           8
 
 Optimization of the real space projectors (new method)

 maximal supplied QI-value         = 16.25
 optimisation between [QCUT,QGAM] = [ 11.54, 23.24] = [ 37.28,151.24] Ry 
 Optimized for a Real-space Cutoff    1.58 Angstroem

   l    n(q)    QCUT    max X(q) W(low)/X(q) W(high)/X(q)  e(spline) 
   0     11    11.539    11.817    0.25E-04    0.22E-05    0.26E-07
   0     11    11.539     8.461    0.39E-04    0.49E-05    0.55E-07
   1     11    11.539     3.957    0.21E-05    0.44E-05    0.32E-07
   1     11    11.539     4.314    0.56E-04    0.44E-04    0.19E-06
   2     10    11.539    14.565    0.25E-03    0.21E-04    0.75E-06
   2     10    11.539    14.552    0.23E-03    0.22E-04    0.72E-06
 Optimization of the real space projectors (new method)

 maximal supplied QI-value         = 19.84
 optimisation between [QCUT,QGAM] = [ 11.51, 23.22] = [ 37.09,150.92] Ry 
 Optimized for a Real-space Cutoff    1.21 Angstroem

   l    n(q)    QCUT    max X(q) W(low)/X(q) W(high)/X(q)  e(spline) 
   0      8    11.508   159.560    0.71E-04    0.15E-03    0.51E-07
   0      8    11.508   115.863    0.70E-04    0.15E-03    0.51E-07
   1      8    11.508    88.339    0.16E-03    0.38E-04    0.82E-07
   1      8    11.508    48.592    0.15E-03    0.36E-04    0.79E-07
 Optimization of the real space projectors (new method)

 maximal supplied QI-value         = 24.76
 optimisation between [QCUT,QGAM] = [ 11.64, 23.27] = [ 37.91,151.63] Ry 
 Optimized for a Real-space Cutoff    1.14 Angstroem

   l    n(q)    QCUT    max X(q) W(low)/X(q) W(high)/X(q)  e(spline) 
   0      8    11.635    20.381    0.10E-03    0.33E-03    0.24E-06
   0      8    11.635    15.268    0.11E-03    0.35E-03    0.26E-06
   1      7    11.635     5.964    0.24E-03    0.31E-03    0.30E-06
   1      7    11.635     5.382    0.22E-03    0.25E-03    0.26E-06
  PAW_PBE Ca_sv 06Sep2000               :
 energy of atom  1       EATOM=-1006.0909
 kinetic energy error for atom=    0.0022 (will be added to EATOM!!)
  PAW_PBE Si 05Jan2001                  :
 energy of atom  2       EATOM= -103.0669
 kinetic energy error for atom=    0.0005 (will be added to EATOM!!)
  PAW_PBE O 08Apr2002                   :
 energy of atom  3       EATOM= -432.3788
 kinetic energy error for atom=    0.0208 (will be added to EATOM!!)
 
 
 POSCAR: Ca12 Si8 O28
  positions in direct lattice
  velocities in cartesian coordinates

 METAGGA = SCAN     LMAXTAU =  6    LMIXTAU =  F

 exchange correlation table for  LEXCH =        8
   RHO(1)=    0.500       N(1)  =     2000
   RHO(2)=  100.500       N(2)  =     4000
 


--------------------------------------------------------------------------------------------------------


 ion  position               nearest neighbor table
   1  0.509  0.441  0.290-  43 2.28  24 2.33  25 2.39  22 2.46  33 2.56  19 3.07  13 3.09
   2  0.991  0.941  0.710-  44 2.28  23 2.33  26 2.39  21 2.46  34 2.56  20 3.07  14 3.09
   3  0.491  0.559  0.710-  41 2.28  22 2.33  27 2.39  24 2.46  35 2.56  17 3.07  15 3.09
   4  0.009  0.059  0.290-  42 2.28  21 2.33  28 2.39  23 2.46  36 2.56  18 3.07  16 3.09
   5  0.668  0.925  0.209-  37 2.27  42 2.30  30 2.43  21 2.44  39 2.46  26 2.48  14 3.00  19 3.03

   6  0.832  0.425  0.791-  38 2.27  41 2.30  29 2.43  22 2.44  40 2.46  25 2.48  13 3.00  20 3.03

   7  0.332  0.075  0.791-  39 2.27  44 2.30  32 2.43  23 2.44  37 2.46  28 2.48  16 3.00  17 3.03

   8  0.168  0.575  0.209-  40 2.27  43 2.30  31 2.43  24 2.44  38 2.46  27 2.48  15 3.00  18 3.03

   9  0.839  0.592  0.283-  31 2.28  26 2.30  38 2.42  33 2.53  29 2.53  47 2.54  18 3.08
  10  0.661  0.092  0.717-  32 2.28  25 2.30  37 2.42  34 2.53  30 2.53  48 2.54  17 3.08
  11  0.161  0.408  0.717-  29 2.28  28 2.30  40 2.42  35 2.53  31 2.53  45 2.54  20 3.08
  12  0.339  0.908  0.283-  30 2.28  27 2.30  39 2.42  36 2.53  32 2.53  46 2.54  19 3.08
  13  0.796  0.266  0.433-  29 1.61  21 1.61  25 1.62  33 1.68   6 3.00   1 3.09  17 3.10
  14  0.704  0.766  0.567-  30 1.61  22 1.61  26 1.62  34 1.68   5 3.00   2 3.09  18 3.10
  15  0.204  0.734  0.567-  31 1.61  23 1.61  27 1.62  35 1.68   8 3.00   3 3.09  19 3.10
  16  0.296  0.234  0.433-  32 1.61  24 1.61  28 1.62  36 1.68   7 3.00   4 3.09  20 3.10
  17  0.590  0.286  0.985-  41 1.61  37 1.61  45 1.63  33 1.67   7 3.03   3 3.07  10 3.08  13 3.10

  18  0.910  0.786  0.015-  42 1.61  38 1.61  46 1.63  34 1.67   8 3.03   4 3.07   9 3.08  14 3.10

  19  0.410  0.714  0.015-  43 1.61  39 1.61  47 1.63  35 1.67   5 3.03   1 3.07  12 3.08  15 3.10

  20  0.090  0.214  0.985-  44 1.61  40 1.61  48 1.63  36 1.67   6 3.03   2 3.07  11 3.08  16 3.10

  21  0.857  0.102  0.421-  13 1.61   4 2.33   5 2.44   2 2.46
  22  0.643  0.602  0.579-  14 1.61   3 2.33   6 2.44   1 2.46
  23  0.143  0.898  0.579-  15 1.61   2 2.33   7 2.44   4 2.46
  24  0.357  0.398  0.421-  16 1.61   1 2.33   8 2.44   3 2.46
  25  0.678  0.260  0.508-  13 1.62  10 2.30   1 2.39   6 2.48
  26  0.822  0.760  0.492-  14 1.62   9 2.30   2 2.39   5 2.48
  27  0.322  0.740  0.492-  15 1.62  12 2.30   3 2.39   8 2.48
  28  0.178  0.240  0.508-  16 1.62  11 2.30   4 2.39   7 2.48
  29  0.912  0.397  0.550-  13 1.61  11 2.28   6 2.43   9 2.53
  30  0.588  0.897  0.450-  14 1.61  12 2.28   5 2.43  10 2.53
  31  0.088  0.603  0.450-  15 1.61   9 2.28   8 2.43  11 2.53
  32  0.412  0.103  0.550-  16 1.61  10 2.28   7 2.43  12 2.53
  33  0.703  0.346  0.211-  17 1.67  13 1.68   9 2.53   1 2.56
  34  0.797  0.846  0.789-  18 1.67  14 1.68  10 2.53   2 2.56
  35  0.297  0.654  0.789-  19 1.67  15 1.68  11 2.53   3 2.56
  36  0.203  0.154  0.211-  20 1.67  16 1.68  12 2.53   4 2.56
  37  0.599  0.105  0.975-  17 1.61   5 2.27  10 2.42   7 2.46
  38  0.901  0.605  0.025-  18 1.61   6 2.27   9 2.42   8 2.46
  39  0.401  0.895  0.025-  19 1.61   7 2.27  12 2.42   5 2.46
  40  0.099  0.395  0.975-  20 1.61   8 2.27  11 2.42   6 2.46
  41  0.644  0.359  0.845-  17 1.61   3 2.28   6 2.30
  42  0.856  0.859  0.155-  18 1.61   4 2.28   5 2.30
  43  0.356  0.641  0.155-  19 1.61   1 2.28   8 2.30
  44  0.144  0.141  0.845-  20 1.61   2 2.28   7 2.30
  45  0.427  0.339  0.933-  17 1.63  11 2.54
  46  0.073  0.839  0.067-  18 1.63  12 2.54
  47  0.573  0.661  0.067-  19 1.63   9 2.54
  48  0.927  0.161  0.933-  20 1.63  10 2.54
 

IMPORTANT INFORMATION: All symmetrisations will be switched off!
NOSYMM: (Re-)initialisation of all symmetry stuff for point group C_1.


----------------------------------------------------------------------------------------

                                     Primitive cell                                     

  volume of cell :     642.1346

  direct lattice vectors                    reciprocal lattice vectors
     9.175111778 -0.000000453 -5.215775827     0.108974716  0.000000004 -0.000027762
    -0.000000329  8.899309863  0.000000187     0.000000004  0.112368264 -0.000000002
     0.002003168  0.000000164  7.863130562     0.072285165  0.000000000  0.127157395

  length of vectors
    10.554003677  8.899309863  7.863130817     0.108974720  0.112368264  0.146267386

  position of ions in fractional coordinates (direct lattice)
     0.508777172  0.440865969  0.289710848
     0.991224537  0.940865728  0.710292999
     0.491224535  0.559134258  0.710292996
     0.008777168  0.059134045  0.289710842
     0.668034518  0.925010783  0.209315969
     0.831964653  0.425010628  0.790683151
     0.331964655  0.074989378  0.790683148
     0.168034520  0.574989209  0.209315970
     0.839439619  0.592408391  0.283218396
     0.660569880  0.092404615  0.716792338
     0.160569869  0.407595394  0.716792323
     0.339439622  0.907591595  0.283218406
     0.796349036  0.266053090  0.433105087
     0.703649769  0.766051377  0.566893635
     0.203649762  0.733948481  0.566893574
     0.296349033  0.233947046  0.433105026
     0.590254602  0.285684946  0.984558395
     0.909744757  0.785683914  0.015441291
     0.409744738  0.714316009  0.015441331
     0.090254585  0.214315134  0.984558433
     0.856870937  0.102316897  0.421445713
     0.643129147  0.602314410  0.578549807
     0.143129118  0.897685666  0.578549799
     0.356870912  0.397683024  0.421445713
     0.678484949  0.260496029  0.507817185
     0.821514893  0.760499475  0.492182656
     0.321514876  0.739500537  0.492182654
     0.178484940  0.239503955  0.507817191
     0.911804178  0.397432743  0.549976011
     0.588193403  0.897432000  0.450022416
     0.088193436  0.602568055  0.450022463
     0.411804224  0.102567204  0.549976063
     0.703277827  0.346252298  0.210981271
     0.796720818  0.846250534  0.789017350
     0.296720821  0.653749491  0.789017349
     0.203277826  0.153747684  0.210981268
     0.598637148  0.105058239  0.974700986
     0.901360597  0.605057588  0.025300890
     0.401360594  0.894942464  0.025300895
     0.098637142  0.394941710  0.974700993
     0.644398473  0.359183211  0.844828397
     0.855600373  0.859186096  0.155168578
     0.355600390  0.640813924  0.155168533
     0.144398493  0.140816772  0.844828353
     0.427369167  0.338840325  0.932560380
     0.072629549  0.838836909  0.067436267
     0.572629557  0.661163104  0.067436269
     0.927369181  0.161159664  0.932560392

  ion indices of the primitive-cell ions
   primitive index   ion index
                 1           1
                 2           2
                 3           3
                 4           4
                 5           5
                 6           6
                 7           7
                 8           8
                 9           9
                10          10
                11          11
                12          12
                13          13
                14          14
                15          15
                16          16
                17          17
                18          18
                19          19
                20          20
                21          21
                22          22
                23          23
                24          24
                25          25
                26          26
                27          27
                28          28
                29          29
                30          30
                31          31
                32          32
                33          33
                34          34
                35          35
                36          36
                37          37
                38          38
                39          39
                40          40
                41          41
                42          42
                43          43
                44          44
                45          45
                46          46
                47          47
                48          48

----------------------------------------------------------------------------------------

 
 
 KPOINTS: K-points file                           

Automatic generation of k-mesh.
Space group operators:
 irot       det(A)        alpha          n_x          n_y          n_z        tau_x        tau_y        tau_z
    1     1.000000     0.000000     1.000000     0.000000     0.000000     0.000000     0.000000     0.000000
 
 Subroutine IBZKPT returns following result:
 ===========================================
 
 Found     42 irreducible k-points:
 
 Following reciprocal coordinates:
            Coordinates               Weight
  0.000000  0.000000  0.000000      1.000000
  0.250000  0.000000  0.000000      2.000000
  0.500000  0.000000 -0.000000      1.000000
 -0.000000  0.250000  0.000000      2.000000
  0.250000  0.250000  0.000000      2.000000
 -0.250000  0.250000 -0.000000      2.000000
  0.500000  0.250000 -0.000000      2.000000
 -0.000000  0.500000  0.000000      1.000000
  0.250000  0.500000 -0.000000      2.000000
  0.500000  0.500000 -0.000000      1.000000
  0.000000  0.000000  0.200000      2.000000
  0.250000 -0.000000  0.200000      2.000000
  0.500000 -0.000000  0.200000      2.000000
 -0.250000  0.000000  0.200000      2.000000
 -0.000000  0.250000  0.200000      2.000000
  0.000000  0.250000 -0.200000      2.000000
  0.250000  0.250000  0.200000      2.000000
 -0.250000  0.250000 -0.200000      2.000000
  0.500000  0.250000  0.200000      2.000000
  0.500000  0.250000 -0.200000      2.000000
 -0.250000  0.250000  0.200000      2.000000
  0.250000  0.250000 -0.200000      2.000000
 -0.000000  0.500000  0.200000      2.000000
  0.250000  0.500000  0.200000      2.000000
  0.500000  0.500000  0.200000      2.000000
 -0.250000  0.500000  0.200000      2.000000
  0.000000  0.000000  0.400000      2.000000
  0.250000  0.000000  0.400000      2.000000
  0.500000 -0.000000  0.400000      2.000000
 -0.250000 -0.000000  0.400000      2.000000
 -0.000000  0.250000  0.400000      2.000000
  0.000000  0.250000 -0.400000      2.000000
  0.250000  0.250000  0.400000      2.000000
 -0.250000  0.250000 -0.400000      2.000000
  0.500000  0.250000  0.400000      2.000000
  0.500000  0.250000 -0.400000      2.000000
 -0.250000  0.250000  0.400000      2.000000
  0.250000  0.250000 -0.400000      2.000000
 -0.000000  0.500000  0.400000      2.000000
  0.250000  0.500000  0.400000      2.000000
  0.500000  0.500000  0.400000      2.000000
 -0.250000  0.500000  0.400000      2.000000
 
 Following cartesian coordinates:
            Coordinates               Weight
  0.000000  0.000000  0.000000      1.000000
  0.027244  0.000000 -0.000007      2.000000
  0.054487  0.000000 -0.000014      1.000000
  0.000000  0.028092 -0.000000      2.000000
  0.027244  0.028092 -0.000007      2.000000
 -0.027244  0.028092  0.000007      2.000000
  0.054487  0.028092 -0.000014      2.000000
  0.000000  0.056184 -0.000000      1.000000
  0.027244  0.056184 -0.000007      2.000000
  0.054487  0.056184 -0.000014      1.000000
  0.014457  0.000000  0.025431      2.000000
  0.041701  0.000000  0.025425      2.000000
  0.068944  0.000000  0.025418      2.000000
 -0.012787 -0.000000  0.025438      2.000000
  0.014457  0.028092  0.025431      2.000000
 -0.014457  0.028092 -0.025431      2.000000
  0.041701  0.028092  0.025425      2.000000
 -0.041701  0.028092 -0.025425      2.000000
  0.068944  0.028092  0.025418      2.000000
  0.040030  0.028092 -0.025445      2.000000
 -0.012787  0.028092  0.025438      2.000000
  0.012787  0.028092 -0.025438      2.000000
  0.014457  0.056184  0.025431      2.000000
  0.041701  0.056184  0.025425      2.000000
  0.068944  0.056184  0.025418      2.000000
 -0.012787  0.056184  0.025438      2.000000
  0.028914  0.000000  0.050863      2.000000
  0.056158  0.000000  0.050856      2.000000
  0.083401  0.000000  0.050849      2.000000
  0.001670 -0.000000  0.050870      2.000000
  0.028914  0.028092  0.050863      2.000000
 -0.028914  0.028092 -0.050863      2.000000
  0.056158  0.028092  0.050856      2.000000
 -0.056158  0.028092 -0.050856      2.000000
  0.083401  0.028092  0.050849      2.000000
  0.025573  0.028092 -0.050877      2.000000
  0.001670  0.028092  0.050870      2.000000
 -0.001670  0.028092 -0.050870      2.000000
  0.028914  0.056184  0.050863      2.000000
  0.056158  0.056184  0.050856      2.000000
  0.083401  0.056184  0.050849      2.000000
  0.001670  0.056184  0.050870      2.000000
 


--------------------------------------------------------------------------------------------------------




 Dimension of arrays:
   k-points           NKPTS =     42   k-points in BZ     NKDIM =     42   number of bands    NBANDS=    196
   number of dos      NEDOS =    301   number of ions     NIONS =     48
   non local maximal  LDIM  =      6   non local SUM 2l+1 LMDIM =     18
   total plane-waves  NPLWV = 336000
   max r-space proj   IRMAX =   8692   max aug-charges    IRDMAX=  25162
   dimension x,y,z NGX =    80 NGY =   70 NGZ =   60
   dimension x,y,z NGXF=   160 NGYF=  140 NGZF=  120
   support grid    NGXF=   160 NGYF=  140 NGZF=  120
   ions per type =              12   8  28
   NGX,Y,Z   is equivalent  to a cutoff of  12.60, 13.08, 12.69 a.u.
   NGXF,Y,Z  is equivalent  to a cutoff of  25.20, 26.15, 25.37 a.u.

 SYSTEM =  unknown system                          
 POSCAR =  Ca12 Si8 O28                            

 Startparameter for this run:
   NWRITE =      2    write-flag & timer
   PREC   = accura    normal or accurate (medium, high low for compatibility)
   ISTART =      0    job   : 0-new  1-cont  2-samecut
   ICHARG =      1    charge: 1-file 2-atom 10-const
   ISPIN  =      2    spin polarized calculation?
   LNONCOLLINEAR =      F non collinear calculations
   LSORBIT =      F    spin-orbit coupling
   INIWAV =      1    electr: 0-lowe 1-rand  2-diag
   LASPH  =      T    aspherical Exc in radial PAW
   METAGGA=      F    non-selfconsistent MetaGGA calc.

 Electronic Relaxation 1
   ENCUT  =  520.0 eV  38.22 Ry    6.18 a.u.  19.62 16.55 14.62*2*pi/ulx,y,z
   ENINI  =  520.0     initial cutoff
   ENAUG  =  605.4 eV  augmentation charge cutoff
   NELM   =    100;   NELMIN=  6; NELMDL= -5     # of ELM steps 
   EDIFF  = 0.1E-04   stopping-criterion for ELM
   LREAL  =      T    real-space projection
   NLSPLINE    = F    spline interpolate recip. space projectors
   LCOMPAT=      F    compatible to vasp.4.4
   GGA_COMPAT  = T    GGA compatible to vasp.4.4-vasp.4.6
   LMAXPAW     = -100 max onsite density
   LMAXMIX     =    4 max onsite mixed and CHGCAR
   VOSKOWN=      0    Vosko Wilk Nusair interpolation
   ROPT   =   -0.00025  -0.00025  -0.00025
 Ionic relaxation
   EDIFFG = -.3E-01   stopping-criterion for IOM
   NSW    =     99    number of steps for IOM
   NBLOCK =      1;   KBLOCK =     99    inner block; outer block 
   IBRION =      2    ionic relax: 0-MD 1-quasi-New 2-CG
   NFREE  =      1    steps in history (QN), initial steepest desc. (CG)
   ISIF   =      3    stress and relaxation
   IWAVPR =     11    prediction:  0-non 1-charg 2-wave 3-comb
   ISYM   =      0    0-nonsym 1-usesym 2-fastsym
   LCORR  =      T    Harris-Foulkes like correction to forces

   POTIM  = 0.5000    time-step for ionic-motion
   TEIN   =    0.0    initial temperature
   TEBEG  =    0.0;   TEEND  =   0.0 temperature during run
   SMASS  =  -3.00    Nose mass-parameter (am)
   estimated Nose-frequenzy (Omega)   =  0.10E-29 period in steps = 0.13E+47 mass=  -0.255E-26a.u.
   SCALEE = 1.0000    scale energy and forces
   NPACO  =    256;   APACO  = 16.0  distance and # of slots for P.C.
   PSTRESS=    0.0 pullay stress

  Mass of Ions in am
   POMASS =  40.08 28.09 16.00
  Ionic Valenz
   ZVAL   =  10.00  4.00  6.00
  Atomic Wigner-Seitz radii
   RWIGS  =  -1.00 -1.00 -1.00
  virtual crystal weights 
   VCA    =   1.00  1.00  1.00
   NELECT =     320.0000    total number of electrons
   NUPDOWN=      -1.0000    fix difference up-down

 DOS related values:
   EMIN   =  10.00;   EMAX   =-10.00  energy-range for DOS
   EFERMI =   0.00
   ISMEAR =     0;   SIGMA  =   0.05  broadening in eV -4-tet -1-fermi 0-gaus

 Electronic relaxation 2 (details)
   IALGO  =     38    algorithm
   LDIAG  =      T    sub-space diagonalisation (order eigenvalues)
   LSUBROT=      F    optimize rotation matrix (better conditioning)
   TURBO    =      0    0=normal 1=particle mesh
   IRESTART =      0    0=no restart 2=restart with 2 vectors
   NREBOOT  =      0    no. of reboots
   NMIN     =      0    reboot dimension
   EREF     =   0.00    reference energy to select bands
   IMIX   =      4    mixing-type and parameters
     AMIX     =   0.40;   BMIX     =  1.00
     AMIX_MAG =   1.60;   BMIX_MAG =  1.00
     AMIN     =   0.10
     WC   =   100.;   INIMIX=   1;  MIXPRE=   1;  MAXMIX= -45

 Intra band minimization:
   WEIMIN = 0.0010     energy-eigenvalue tresh-hold
   EBREAK =  0.13E-07  absolut break condition
   DEPER  =   0.30     relativ break condition  

   TIME   =   0.40     timestep for ELM

  volume/ion in A,a.u.               =      13.38        90.28
  Fermi-wavevector in a.u.,A,eV,Ry     =   1.297925  2.452722 22.920487  1.684608
  Thomas-Fermi vector in A             =   2.429286
 
 Write flags
   LWAVE        =      F    write WAVECAR
   LDOWNSAMPLE  =      F    k-point downsampling of WAVECAR
   LCHARG       =      T    write CHGCAR
   LVTOT        =      F    write LOCPOT, total local potential
   LVHAR        =      F    write LOCPOT, Hartree potential only
   LELF         =      F    write electronic localiz. function (ELF)
   LORBIT       =     11    0 simple, 1 ext, 2 COOP (PROOUT), +10 PAW based schemes


 Dipole corrections
   LMONO  =      F    monopole corrections only (constant potential shift)
   LDIPOL =      F    correct potential (dipole corrections)
   IDIPOL =      0    1-x, 2-y, 3-z, 4-all directions 
   EPSILON=  1.0000000 bulk dielectric constant

 LDA+U is selected, type is set to LDAUTYPE =  2
   angular momentum for each species LDAUL =    -1   -1   -1
   U (eV)           for each species LDAUU =   0.0  0.0  0.0
   J (eV)           for each species LDAUJ =   0.0  0.0  0.0
 Exchange correlation treatment:
   GGA     =    --    GGA type
   LEXCH   =     8    internal setting for exchange type
   VOSKOWN=      0    Vosko Wilk Nusair interpolation
   LHFCALC =     F    Hartree Fock is set to
   LHFONE  =     F    Hartree Fock one center treatment
   AEXX    =    0.0000 exact exchange contribution

 Linear response parameters
   LEPSILON=     F    determine dielectric tensor
   LRPA    =     F    only Hartree local field effects (RPA)
   LNABLA  =     F    use nabla operator in PAW spheres
   LVEL    =     F    velocity operator in full k-point grid
   LINTERFAST=   F  fast interpolation
   KINTER  =     0    interpolate to denser k-point grid
   CSHIFT  =0.1000    complex shift for real part using Kramers Kronig
   OMEGAMAX=  -1.0    maximum frequency
   DEG_THRESHOLD= 0.2000000E-02 threshold for treating states as degnerate
   RTIME   =   -0.100 relaxation time in fs
  (WPLASMAI=    0.000 imaginary part of plasma frequency in eV, 0.658/RTIME)
   DFIELD  = 0.0000000 0.0000000 0.0000000 field for delta impulse in time
 
 Orbital magnetization related:
   ORBITALMAG=     F  switch on orbital magnetization
   LCHIMAG   =     F  perturbation theory with respect to B field
   DQ        =  0.001000  dq finite difference perturbation B field
   LLRAUG    =     F  two centre corrections for induced B field



--------------------------------------------------------------------------------------------------------


 conjugate gradient relaxation of ions
 charge density and potential will be updated during run
 spin polarized calculation
 Variant of blocked Davidson
 Davidson routine will perform the subspace rotation
 perform sub-space diagonalisation
    after iterative eigenvector-optimisation
 modified Broyden-mixing scheme, WC =      100.0
 initial mixing is a Kerker type mixing with AMIX =  0.4000 and BMIX =      1.0000
 Hartree-type preconditioning will be used
 using additional bands           36
 real space projection scheme for non local part
 use partial core corrections
 calculate Harris-corrections to forces 
   (improved forces if not selfconsistent)
 use gradient corrections 
 use of overlap-Matrix (Vanderbilt PP)
 Gauss-broadening in eV      SIGMA  =   0.05


--------------------------------------------------------------------------------------------------------


  energy-cutoff  :      520.00
  volume of cell :      642.13
      direct lattice vectors                 reciprocal lattice vectors
     9.175111778 -0.000000453 -5.215775827     0.108974716  0.000000004 -0.000027762
    -0.000000329  8.899309863  0.000000187     0.000000004  0.112368264 -0.000000002
     0.002003168  0.000000164  7.863130562     0.072285165  0.000000000  0.127157395

  length of vectors
    10.554003677  8.899309863  7.863130817     0.108974720  0.112368264  0.146267386


 
 k-points in units of 2pi/SCALE and weight: K-points file                           
   0.00000000  0.00000000  0.00000000       0.013
   0.02724368  0.00000000 -0.00000694       0.025
   0.05448736  0.00000000 -0.00001388       0.013
   0.00000000  0.02809207 -0.00000000       0.025
   0.02724368  0.02809207 -0.00000694       0.025
  -0.02724368  0.02809206  0.00000694       0.025
   0.05448736  0.02809207 -0.00001388       0.025
   0.00000000  0.05618413 -0.00000000       0.013
   0.02724368  0.05618413 -0.00000694       0.025
   0.05448736  0.05618413 -0.00001388       0.013
   0.01445703  0.00000000  0.02543148       0.025
   0.04170071  0.00000000  0.02542454       0.025
   0.06894439  0.00000000  0.02541760       0.025
  -0.01278665 -0.00000000  0.02543842       0.025
   0.01445703  0.02809207  0.02543148       0.025
  -0.01445703  0.02809207 -0.02543148       0.025
   0.04170071  0.02809207  0.02542454       0.025
  -0.04170071  0.02809206 -0.02542454       0.025
   0.06894439  0.02809207  0.02541760       0.025
   0.04003033  0.02809207 -0.02544536       0.025
  -0.01278664  0.02809206  0.02543842       0.025
   0.01278665  0.02809207 -0.02543842       0.025
   0.01445704  0.05618413  0.02543148       0.025
   0.04170071  0.05618413  0.02542454       0.025
   0.06894439  0.05618413  0.02541760       0.025
  -0.01278664  0.05618413  0.02543842       0.025
   0.02891407  0.00000000  0.05086296       0.025
   0.05615774  0.00000000  0.05085602       0.025
   0.08340142  0.00000000  0.05084908       0.025
   0.00167039 -0.00000000  0.05086990       0.025
   0.02891407  0.02809207  0.05086296       0.025
  -0.02891406  0.02809207 -0.05086296       0.025
   0.05615775  0.02809207  0.05085602       0.025
  -0.05615774  0.02809206 -0.05085602       0.025
   0.08340143  0.02809207  0.05084908       0.025
   0.02557329  0.02809207 -0.05087684       0.025
   0.00167039  0.02809206  0.05086990       0.025
  -0.00167039  0.02809207 -0.05086990       0.025
   0.02891407  0.05618413  0.05086296       0.025
   0.05615775  0.05618413  0.05085602       0.025
   0.08340143  0.05618413  0.05084908       0.025
   0.00167039  0.05618413  0.05086990       0.025
 
 k-points in reciprocal lattice and weights: K-points file                           
   0.00000000  0.00000000  0.00000000       0.013
   0.25000000  0.00000000  0.00000000       0.025
   0.50000000  0.00000000 -0.00000000       0.013
  -0.00000000  0.25000000  0.00000000       0.025
   0.25000000  0.25000000  0.00000000       0.025
  -0.25000000  0.25000000 -0.00000000       0.025
   0.50000000  0.25000000 -0.00000000       0.025
  -0.00000000  0.50000000  0.00000000       0.013
   0.25000000  0.50000000 -0.00000000       0.025
   0.50000000  0.50000000 -0.00000000       0.013
   0.00000000  0.00000000  0.20000000       0.025
   0.25000000 -0.00000000  0.20000000       0.025
   0.50000000 -0.00000000  0.20000000       0.025
  -0.25000000  0.00000000  0.20000000       0.025
  -0.00000000  0.25000000  0.20000000       0.025
   0.00000000  0.25000000 -0.20000000       0.025
   0.25000000  0.25000000  0.20000000       0.025
  -0.25000000  0.25000000 -0.20000000       0.025
   0.50000000  0.25000000  0.20000000       0.025
   0.50000000  0.25000000 -0.20000000       0.025
  -0.25000000  0.25000000  0.20000000       0.025
   0.25000000  0.25000000 -0.20000000       0.025
  -0.00000000  0.50000000  0.20000000       0.025
   0.25000000  0.50000000  0.20000000       0.025
   0.50000000  0.50000000  0.20000000       0.025
  -0.25000000  0.50000000  0.20000000       0.025
   0.00000000  0.00000000  0.40000000       0.025
   0.25000000  0.00000000  0.40000000       0.025
   0.50000000 -0.00000000  0.40000000       0.025
  -0.25000000 -0.00000000  0.40000000       0.025
  -0.00000000  0.25000000  0.40000000       0.025
   0.00000000  0.25000000 -0.40000000       0.025
   0.25000000  0.25000000  0.40000000       0.025
  -0.25000000  0.25000000 -0.40000000       0.025
   0.50000000  0.25000000  0.40000000       0.025
   0.50000000  0.25000000 -0.40000000       0.025
  -0.25000000  0.25000000  0.40000000       0.025
   0.25000000  0.25000000 -0.40000000       0.025
  -0.00000000  0.50000000  0.40000000       0.025
   0.25000000  0.50000000  0.40000000       0.025
   0.50000000  0.50000000  0.40000000       0.025
  -0.25000000  0.50000000  0.40000000       0.025
 
 position of ions in fractional coordinates (direct lattice) 
   0.50877717  0.44086597  0.28971085
   0.99122454  0.94086573  0.71029300
   0.49122453  0.55913426  0.71029300
   0.00877717  0.05913405  0.28971084
   0.66803452  0.92501078  0.20931597
   0.83196465  0.42501063  0.79068315
   0.33196465  0.07498938  0.79068315
   0.16803452  0.57498921  0.20931597
   0.83943962  0.59240839  0.28321840
   0.66056988  0.09240461  0.71679234
   0.16056987  0.40759539  0.71679232
   0.33943962  0.90759160  0.28321841
   0.79634904  0.26605309  0.43310509
   0.70364977  0.76605138  0.56689363
   0.20364976  0.73394848  0.56689357
   0.29634903  0.23394705  0.43310503
   0.59025460  0.28568495  0.98455839
   0.90974476  0.78568391  0.01544129
   0.40974474  0.71431601  0.01544133
   0.09025459  0.21431513  0.98455843
   0.85687094  0.10231690  0.42144571
   0.64312915  0.60231441  0.57854981
   0.14312912  0.89768567  0.57854980
   0.35687091  0.39768302  0.42144571
   0.67848495  0.26049603  0.50781719
   0.82151489  0.76049947  0.49218266
   0.32151488  0.73950054  0.49218265
   0.17848494  0.23950395  0.50781719
   0.91180418  0.39743274  0.54997601
   0.58819340  0.89743200  0.45002242
   0.08819344  0.60256806  0.45002246
   0.41180422  0.10256720  0.54997606
   0.70327783  0.34625230  0.21098127
   0.79672082  0.84625053  0.78901735
   0.29672082  0.65374949  0.78901735
   0.20327783  0.15374768  0.21098127
   0.59863715  0.10505824  0.97470099
   0.90136060  0.60505759  0.02530089
   0.40136059  0.89494246  0.02530090
   0.09863714  0.39494171  0.97470099
   0.64439847  0.35918321  0.84482840
   0.85560037  0.85918610  0.15516858
   0.35560039  0.64081392  0.15516853
   0.14439849  0.14081677  0.84482835
   0.42736917  0.33884033  0.93256038
   0.07262955  0.83883691  0.06743627
   0.57262956  0.66116310  0.06743627
   0.92736918  0.16115966  0.93256039
 
 position of ions in cartesian coordinates  (Angst):
   4.66866762  3.92340268 -0.37563337
   9.09601845  8.37305532  0.41512178
   4.50846266  4.97590891  3.02300961
   0.08111182  0.52625224  2.23225444
   6.12971036  8.23195732 -1.83843933
   7.63495242  3.78230103  1.87790380
   3.04739666  0.66735369  4.48579162
   1.54215461  5.11700710  0.76944852
   7.70251947  5.27202551 -2.15134554
   6.06223832  0.82233712  2.19084734
   1.47468222  3.62731776  4.79873525
   3.11496351  8.07693873  0.45654250
   7.30745891  2.36768860 -0.74801615
   6.45720061  6.81732835  0.78747935
   1.86964467  6.53163496  3.39536682
   2.71990301  2.08196719  1.85987129
   5.41762409  2.54239875  4.66307557
   8.34704051  6.99204419 -4.62360768
   3.75948447  6.35691932 -2.01571936
   0.83006807  1.90725690  7.27096386
   7.86273082  0.91054945 -1.15536404
   5.90194055  5.36018237  1.19479532
   1.31438430  7.98878293  3.80268338
   3.27517460  3.53910436  1.45252406
   6.22619241  2.31823466  0.45420748
   7.53847665  6.76792019 -0.41474089
   2.95092061  6.58104435  2.19314708
   1.63863644  2.13141991  3.06209549
   8.36700682  3.53687680 -0.43123294
   5.39764139  7.98652525  0.47070025
   0.81008591  5.36243987  3.07858830
   3.77945144  0.91277723  2.17665509
   6.45307519  3.08140620 -2.00916614
   7.31158281  7.53104549  2.04862942
   2.72402702  5.81791929  4.65651727
   1.86551935  1.36824823  0.59872172
   5.49451520  0.93494571  4.54184396
   8.27013472  5.38459456 -4.50235050
   3.68257870  7.96437012 -1.89446248
   0.90695916  3.51470877  7.14973202
   5.91412024  3.19648254  3.28195808
   7.85053961  7.64616294 -3.24250880
   3.26298394  5.70280154 -0.63462136
   1.32656460  1.25317216  5.88984550
   3.92302784  3.01544501  5.10378232
   0.66651904  7.46506956  0.15144088
   5.25407506  5.88389508 -2.45644709
   8.51058392  1.43420952  2.49589439
 


--------------------------------------------------------------------------------------------------------


 k-point   1 :   0.0000 0.0000 0.0000  plane waves:   17327
 k-point   2 :   0.2500 0.0000 0.0000  plane waves:   17288
 k-point   3 :   0.5000 0.0000-0.0000  plane waves:   17296
 k-point   4 :  -0.0000 0.2500 0.0000  plane waves:   17291
 k-point   5 :   0.2500 0.2500 0.0000  plane waves:   17312
 k-point   6 :  -0.2500 0.2500-0.0000  plane waves:   17312
 k-point   7 :   0.5000 0.2500-0.0000  plane waves:   17306
 k-point   8 :  -0.0000 0.5000 0.0000  plane waves:   17286
 k-point   9 :   0.2500 0.5000-0.0000  plane waves:   17284
 k-point  10 :   0.5000 0.5000-0.0000  plane waves:   17308
 k-point  11 :   0.0000 0.0000 0.2000  plane waves:   17308
 k-point  12 :   0.2500-0.0000 0.2000  plane waves:   17298
 k-point  13 :   0.5000-0.0000 0.2000  plane waves:   17261
 k-point  14 :  -0.2500 0.0000 0.2000  plane waves:   17295
 k-point  15 :  -0.0000 0.2500 0.2000  plane waves:   17290
 k-point  16 :   0.0000 0.2500-0.2000  plane waves:   17290
 k-point  17 :   0.2500 0.2500 0.2000  plane waves:   17287
 k-point  18 :  -0.2500 0.2500-0.2000  plane waves:   17287
 k-point  19 :   0.5000 0.2500 0.2000  plane waves:   17291
 k-point  20 :   0.5000 0.2500-0.2000  plane waves:   17291
 k-point  21 :  -0.2500 0.2500 0.2000  plane waves:   17283
 k-point  22 :   0.2500 0.2500-0.2000  plane waves:   17283
 k-point  23 :  -0.0000 0.5000 0.2000  plane waves:   17302
 k-point  24 :   0.2500 0.5000 0.2000  plane waves:   17316
 k-point  25 :   0.5000 0.5000 0.2000  plane waves:   17258
 k-point  26 :  -0.2500 0.5000 0.2000  plane waves:   17302
 k-point  27 :   0.0000 0.0000 0.4000  plane waves:   17309
 k-point  28 :   0.2500 0.0000 0.4000  plane waves:   17274
 k-point  29 :   0.5000-0.0000 0.4000  plane waves:   17293
 k-point  30 :  -0.2500-0.0000 0.4000  plane waves:   17325
 k-point  31 :  -0.0000 0.2500 0.4000  plane waves:   17291
 k-point  32 :   0.0000 0.2500-0.4000  plane waves:   17291
 k-point  33 :   0.2500 0.2500 0.4000  plane waves:   17288
 k-point  34 :  -0.2500 0.2500-0.4000  plane waves:   17288
 k-point  35 :   0.5000 0.2500 0.4000  plane waves:   17276
 k-point  36 :   0.5000 0.2500-0.4000  plane waves:   17276
 k-point  37 :  -0.2500 0.2500 0.4000  plane waves:   17304
 k-point  38 :   0.2500 0.2500-0.4000  plane waves:   17304
 k-point  39 :  -0.0000 0.5000 0.4000  plane waves:   17258
 k-point  40 :   0.2500 0.5000 0.4000  plane waves:   17268
 k-point  41 :   0.5000 0.5000 0.4000  plane waves:   17272
 k-point  42 :  -0.2500 0.5000 0.4000  plane waves:   17268

 maximum and minimum number of plane-waves per node :      2933     2831

 maximum number of plane-waves:     17327
 maximum index in each direction: 
   IXMAX=   19   IYMAX=   16   IZMAX=   15
   IXMIN=  -20   IYMIN=  -17   IZMIN=  -15


 real space projection operators:
  total allocation   :      21561.84 KBytes
  max/ min on nodes  :       3728.78       3519.84


 parallel 3D FFT for wavefunctions:
    minimum data exchange during FFTs selected (reduces bandwidth)
 parallel 3D FFT for charge:
    minimum data exchange during FFTs selected (reduces bandwidth)


 total amount of memory used by VASP MPI-rank0   267409. kBytes
=======================================================================

   base      :      30000. kBytes
   nonlr-proj:      11661. kBytes
   fftplans  :       5714. kBytes
   grid      :      20901. kBytes
   one-center:        248. kBytes
   wavefun   :     198885. kBytes
 
     INWAV:  cpu time    0.0001: real time    0.0003
 Broyden mixing: mesh for mixing (old mesh)
   NGX = 39   NGY = 33   NGZ = 29
  (NGX  =160   NGY  =140   NGZ  =120)
  gives a total of  37323 points

 initial charge density was supplied:
 number of electron     319.9999961 magnetization       0.0000000
 keeping initial charge density in first step


--------------------------------------------------------------------------------------------------------


 Maximum index for non-local projection operator         1708
 Maximum index for augmentation-charges         1339 (set IRDMAX)


--------------------------------------------------------------------------------------------------------


 First call to EWALD:  gamma=   0.205
 Maximum number of real-space cells 3x 3x 3
 Maximum number of reciprocal cells 3x 3x 3

    FEWALD:  cpu time    0.0026: real time    0.0026


--------------------------------------- Iteration      1(   1)  ---------------------------------------


    POTLOK:  cpu time    0.3079: real time    0.3106
    SETDIJ:  cpu time    1.7482: real time    1.7483
     EDDAV:  cpu time  153.2851: real time  153.2995
       DOS:  cpu time    0.0104: real time    0.0104
    --------------------------------------------
      LOOP:  cpu time  155.3517: real time  155.3688

 eigenvalue-minimisations  : 32928
 total energy-change (2. order) : 0.3075497E+04  (-0.1629511E+05)
 number of electron     319.9999961 magnetization       0.0000000
 augmentation part      319.9999961 magnetization       0.0000000

 Free energy of the ion-electron system (eV)
  ---------------------------------------------------
  alpha Z        PSCENC =      1115.86400502
  Ewald energy   TEWEN  =    -17972.35829313
  -Hartree energ DENC   =     -6912.00622327
  -exchange      EXHF   =         0.00000000
  -V(xc)+E(xc)   XCENC  =      1501.27363526
  PAW double counting   =     39914.77643310   -39993.14569854
  entropy T*S    EENTRO =        -0.01338084
  eigenvalues    EBANDS =       417.48772756
  atomic energy  EATOM  =     25003.61856785
  Solvation  Ediel_sol  =         0.00000000
  ---------------------------------------------------
  free energy    TOTEN  =      3075.49677300 eV

  energy without entropy =     3075.51015385  energy(sigma->0) =     3075.50346342


--------------------------------------------------------------------------------------------------------




--------------------------------------- Iteration      1(   2)  ---------------------------------------


     EDDAV:  cpu time  168.4546: real time  168.4647
       DOS:  cpu time    0.0041: real time    0.0041
    --------------------------------------------
      LOOP:  cpu time  168.4587: real time  168.4688

 eigenvalue-minimisations  : 38212
 total energy-change (2. order) :-0.3329220E+04  (-0.3199150E+04)
 number of electron     319.9999961 magnetization       0.0000000
 augmentation part      319.9999961 magnetization       0.0000000

 Free energy of the ion-electron system (eV)
  ---------------------------------------------------
  alpha Z        PSCENC =      1115.86400502
  Ewald energy   TEWEN  =    -17972.35829313
  -Hartree energ DENC   =     -6912.00622327
  -exchange      EXHF   =         0.00000000
  -V(xc)+E(xc)   XCENC  =      1501.27363526
  PAW double counting   =     39914.77643310   -39993.14569854
  entropy T*S    EENTRO =        -0.00000000
  eigenvalues    EBANDS =     -2911.74524084
  atomic energy  EATOM  =     25003.61856785
  Solvation  Ediel_sol  =         0.00000000
  ---------------------------------------------------
  free energy    TOTEN  =      -253.72281455 eV

  energy without entropy =     -253.72281455  energy(sigma->0) =     -253.72281455


--------------------------------------------------------------------------------------------------------




--------------------------------------- Iteration      1(   3)  ---------------------------------------


     EDDAV:  cpu time  180.4528: real time  180.4636
       DOS:  cpu time    0.0040: real time    0.0040
    --------------------------------------------
      LOOP:  cpu time  180.4568: real time  180.4676

 eigenvalue-minimisations  : 42552
 total energy-change (2. order) :-0.3541736E+03  (-0.3516880E+03)
 number of electron     319.9999961 magnetization       0.0000000
 augmentation part      319.9999961 magnetization       0.0000000

 Free energy of the ion-electron system (eV)
  ---------------------------------------------------
  alpha Z        PSCENC =      1115.86400502
  Ewald energy   TEWEN  =    -17972.35829313
  -Hartree energ DENC   =     -6912.00622327
  -exchange      EXHF   =         0.00000000
  -V(xc)+E(xc)   XCENC  =      1501.27363526
  PAW double counting   =     39914.77643310   -39993.14569854
  entropy T*S    EENTRO =        -0.00000000
  eigenvalues    EBANDS =     -3265.91883081
  atomic energy  EATOM  =     25003.61856785
  Solvation  Ediel_sol  =         0.00000000
  ---------------------------------------------------
  free energy    TOTEN  =      -607.89640453 eV

  energy without entropy =     -607.89640453  energy(sigma->0) =     -607.89640453


--------------------------------------------------------------------------------------------------------




--------------------------------------- Iteration      1(   4)  ---------------------------------------


     EDDAV:  cpu time  209.2245: real time  209.2371
       DOS:  cpu time    0.0042: real time    0.0042
    --------------------------------------------
      LOOP:  cpu time  209.2287: real time  209.2413

 eigenvalue-minimisations  : 52936
 total energy-change (2. order) :-0.1849682E+02  (-0.1844380E+02)
 number of electron     319.9999961 magnetization       0.0000000
 augmentation part      319.9999961 magnetization       0.0000000

 Free energy of the ion-electron system (eV)
  ---------------------------------------------------
  alpha Z        PSCENC =      1115.86400502
  Ewald energy   TEWEN  =    -17972.35829313
  -Hartree energ DENC   =     -6912.00622327
  -exchange      EXHF   =         0.00000000
  -V(xc)+E(xc)   XCENC  =      1501.27363526
  PAW double counting   =     39914.77643310   -39993.14569854
  entropy T*S    EENTRO =        -0.00000000
  eigenvalues    EBANDS =     -3284.41564963
  atomic energy  EATOM  =     25003.61856785
  Solvation  Ediel_sol  =         0.00000000
  ---------------------------------------------------
  free energy    TOTEN  =      -626.39322335 eV

  energy without entropy =     -626.39322335  energy(sigma->0) =     -626.39322335


--------------------------------------------------------------------------------------------------------




--------------------------------------- Iteration      1(   5)  ---------------------------------------


     EDDAV:  cpu time  213.6810: real time  213.6942
       DOS:  cpu time    0.0040: real time    0.0040
    CHARGE:  cpu time   22.6042: real time   22.6055
    MIXING:  cpu time    0.0040: real time    0.0040
    --------------------------------------------
      LOOP:  cpu time  236.2932: real time  236.3076

 eigenvalue-minimisations  : 54496
 total energy-change (2. order) :-0.1560928E+01  (-0.1560259E+01)
 number of electron     319.9999964 magnetization       0.0000000
 augmentation part       46.4846330 magnetization      -0.0202007

 Broyden mixing:
  rms(total) = 0.58648E+00    rms(broyden)= 0.58615E+00
  rms(prec ) = 0.77080E+00
  weight for this iteration     100.00

 Free energy of the ion-electron system (eV)
  ---------------------------------------------------
  alpha Z        PSCENC =      1115.86400502
  Ewald energy   TEWEN  =    -17972.35829313
  -Hartree energ DENC   =     -6912.00622327
  -exchange      EXHF   =         0.00000000
  -V(xc)+E(xc)   XCENC  =      1501.27363526
  PAW double counting   =     39914.77643310   -39993.14569854
  entropy T*S    EENTRO =        -0.00000000
  eigenvalues    EBANDS =     -3285.97657786
  atomic energy  EATOM  =     25003.61856785
  Solvation  Ediel_sol  =         0.00000000
  ---------------------------------------------------
  free energy    TOTEN  =      -627.95415157 eV

  energy without entropy =     -627.95415157  energy(sigma->0) =     -627.95415157


--------------------------------------------------------------------------------------------------------




--------------------------------------- Iteration      1(   6)  ---------------------------------------


    POTLOK:  cpu time    0.2993: real time    0.2994
    SETDIJ:  cpu time    1.7476: real time    1.7476
     EDDAV:  cpu time  161.2662: real time  161.2761
       DOS:  cpu time    0.0041: real time    0.0041
    CHARGE:  cpu time   23.0911: real time   23.0923
    MIXING:  cpu time    0.0041: real time    0.0041
    --------------------------------------------
      LOOP:  cpu time  186.4124: real time  186.4237

 eigenvalue-minimisations  : 35768
 total energy-change (2. order) : 0.9792301E+02  (-0.3587686E+01)
 number of electron     319.9999960 magnetization       0.0000000
 augmentation part       49.1669243 magnetization      -0.0105715

 Broyden mixing:
  rms(total) = 0.52873E+00    rms(broyden)= 0.52807E+00
  rms(prec ) = 0.68932E+00
  weight for this iteration     100.00

 eigenvalues of (default mixing * dielectric matrix)
  average eigenvalue GAMMA=   0.5266
  0.5266

 Free energy of the ion-electron system (eV)
  ---------------------------------------------------
  alpha Z        PSCENC =      1115.86400502
  Ewald energy   TEWEN  =    -17972.35829313
  -Hartree energ DENC   =     -6841.62678258
  -exchange      EXHF   =         0.00000000
  -V(xc)+E(xc)   XCENC  =      1533.39955641
  PAW double counting   =     40051.73539566   -40122.99654056
  entropy T*S    EENTRO =        -0.00000000
  eigenvalues    EBANDS =     -3297.66705385
  atomic energy  EATOM  =     25003.61856785
  Solvation  Ediel_sol  =         0.00000000
  ---------------------------------------------------
  free energy    TOTEN  =      -530.03114518 eV

  energy without entropy =     -530.03114518  energy(sigma->0) =     -530.03114518


--------------------------------------------------------------------------------------------------------




--------------------------------------- Iteration      1(   7)  ---------------------------------------


    POTLOK:  cpu time    0.2967: real time    0.2967
    SETDIJ:  cpu time    1.7473: real time    1.7474
     EDDAV:  cpu time  191.5225: real time  191.5348
       DOS:  cpu time    0.0041: real time    0.0041
    CHARGE:  cpu time   22.9785: real time   22.9799
    MIXING:  cpu time    0.0042: real time    0.0042
    --------------------------------------------
      LOOP:  cpu time  216.5533: real time  216.5670

 eigenvalue-minimisations  : 46632
 total energy-change (2. order) : 0.2332362E+00  (-0.2567788E+00)
 number of electron     319.9999961 magnetization       0.0000000
 augmentation part       49.2361057 magnetization      -0.0058888

 Broyden mixing:
  rms(total) = 0.29714E+00    rms(broyden)= 0.29714E+00
  rms(prec ) = 0.38990E+00
  weight for this iteration     100.00

 eigenvalues of (default mixing * dielectric matrix)
  average eigenvalue GAMMA=   0.6317
  0.6317  0.6317

 Free energy of the ion-electron system (eV)
  ---------------------------------------------------
  alpha Z        PSCENC =      1115.86400502
  Ewald energy   TEWEN  =    -17972.35829313
  -Hartree energ DENC   =     -6875.17403577
  -exchange      EXHF   =         0.00000000
  -V(xc)+E(xc)   XCENC  =      1540.32600314
  PAW double counting   =     40010.64803097   -40082.41378289
  entropy T*S    EENTRO =        -0.00000000
  eigenvalues    EBANDS =     -3270.30840417
  atomic energy  EATOM  =     25003.61856785
  Solvation  Ediel_sol  =         0.00000000
  ---------------------------------------------------
  free energy    TOTEN  =      -529.79790898 eV

  energy without entropy =     -529.79790898  energy(sigma->0) =     -529.79790898


--------------------------------------------------------------------------------------------------------




--------------------------------------- Iteration      1(   8)  ---------------------------------------


    POTLOK:  cpu time    0.2964: real time    0.2965
    SETDIJ:  cpu time    1.7474: real time    1.7475
     EDDAV:  cpu time  183.8559: real time  183.8669
       DOS:  cpu time    0.0040: real time    0.0040
    CHARGE:  cpu time   23.1047: real time   23.1059
    MIXING:  cpu time    0.0041: real time    0.0042
    --------------------------------------------
      LOOP:  cpu time  209.0125: real time  209.0249

 eigenvalue-minimisations  : 43808
 total energy-change (2. order) : 0.1580427E+00  (-0.2292001E-01)
 number of electron     319.9999961 magnetization       0.0000000
 augmentation part       49.1959737 magnetization      -0.0018525

 Broyden mixing:
  rms(total) = 0.18694E+00    rms(broyden)= 0.18693E+00
  rms(prec ) = 0.24525E+00
  weight for this iteration     100.00

 eigenvalues of (default mixing * dielectric matrix)
  average eigenvalue GAMMA=   0.7680
  0.6001  0.8520  0.8520

 Free energy of the ion-electron system (eV)
  ---------------------------------------------------
  alpha Z        PSCENC =      1115.86400502
  Ewald energy   TEWEN  =    -17972.35829313
  -Hartree energ DENC   =     -6888.67985931
  -exchange      EXHF   =         0.00000000
  -V(xc)+E(xc)   XCENC  =      1540.26689775
  PAW double counting   =     40040.55608235   -40114.04546813
  entropy T*S    EENTRO =        -0.00000000
  eigenvalues    EBANDS =     -3254.86179866
  atomic energy  EATOM  =     25003.61856785
  Solvation  Ediel_sol  =         0.00000000
  ---------------------------------------------------
  free energy    TOTEN  =      -529.63986625 eV

  energy without entropy =     -529.63986625  energy(sigma->0) =     -529.63986625


--------------------------------------------------------------------------------------------------------




--------------------------------------- Iteration      1(   9)  ---------------------------------------


    POTLOK:  cpu time    0.2967: real time    0.2967
    SETDIJ:  cpu time    1.7470: real time    1.7471
     EDDAV:  cpu time  172.5452: real time  172.5557
       DOS:  cpu time    0.0041: real time    0.0041
    CHARGE:  cpu time   23.1010: real time   23.1022
    MIXING:  cpu time    0.0042: real time    0.0042
    --------------------------------------------
      LOOP:  cpu time  197.6982: real time  197.7100

 eigenvalue-minimisations  : 39536
 total energy-change (2. order) : 0.5775264E-01  (-0.7363514E-02)
 number of electron     319.9999961 magnetization       0.0000000
 augmentation part       49.1500067 magnetization      -0.0010348

 Broyden mixing:
  rms(total) = 0.11633E+00    rms(broyden)= 0.11632E+00
  rms(prec ) = 0.15306E+00
  weight for this iteration     100.00

 eigenvalues of (default mixing * dielectric matrix)
  average eigenvalue GAMMA=   0.8024
  0.9960  0.9960  0.6087  0.6087

 Free energy of the ion-electron system (eV)
  ---------------------------------------------------
  alpha Z        PSCENC =      1115.86400502
  Ewald energy   TEWEN  =    -17972.35829313
  -Hartree energ DENC   =     -6896.72469300
  -exchange      EXHF   =         0.00000000
  -V(xc)+E(xc)   XCENC  =      1540.39983954
  PAW double counting   =     40031.03084977   -40105.97077432
  entropy T*S    EENTRO =        -0.00000000
  eigenvalues    EBANDS =     -3245.44161534
  atomic energy  EATOM  =     25003.61856785
  Solvation  Ediel_sol  =         0.00000000
  ---------------------------------------------------
  free energy    TOTEN  =      -529.58211361 eV

  energy without entropy =     -529.58211361  energy(sigma->0) =     -529.58211361


--------------------------------------------------------------------------------------------------------




--------------------------------------- Iteration      1(  10)  ---------------------------------------


    POTLOK:  cpu time    0.2971: real time    0.2972
    SETDIJ:  cpu time    1.7472: real time    1.7473
     EDDAV:  cpu time  173.3412: real time  173.3519
       DOS:  cpu time    0.0037: real time    0.0037
    CHARGE:  cpu time   23.1979: real time   23.1993
    MIXING:  cpu time    0.0043: real time    0.0043
    --------------------------------------------
      LOOP:  cpu time  198.5915: real time  198.6036

 eigenvalue-minimisations  : 39864
 total energy-change (2. order) : 0.1515882E-01  (-0.8311988E-03)
 number of electron     319.9999961 magnetization       0.0000000
 augmentation part       49.1322216 magnetization      -0.0011056

 Broyden mixing:
  rms(total) = 0.94232E-01    rms(broyden)= 0.94230E-01
  rms(prec ) = 0.12377E+00
  weight for this iteration     100.00

 eigenvalues of (default mixing * dielectric matrix)
  average eigenvalue GAMMA=   0.7629
  1.0648  1.0648  0.5982  0.5982  0.4887

 Free energy of the ion-electron system (eV)
  ---------------------------------------------------
  alpha Z        PSCENC =      1115.86400502
  Ewald energy   TEWEN  =    -17972.35829313
  -Hartree energ DENC   =     -6899.57096110
  -exchange      EXHF   =         0.00000000
  -V(xc)+E(xc)   XCENC  =      1540.33016524
  PAW double counting   =     40014.25507245   -40089.82429588
  entropy T*S    EENTRO =        -0.00000000
  eigenvalues    EBANDS =     -3241.88121524
  atomic energy  EATOM  =     25003.61856785
  Solvation  Ediel_sol  =         0.00000000
  ---------------------------------------------------
  free energy    TOTEN  =      -529.56695479 eV

  energy without entropy =     -529.56695479  energy(sigma->0) =     -529.56695479


--------------------------------------------------------------------------------------------------------




--------------------------------------- Iteration      1(  11)  ---------------------------------------


    POTLOK:  cpu time    0.2984: real time    0.2984
    SETDIJ:  cpu time    1.7480: real time    1.7481
     EDDAV:  cpu time  192.1818: real time  192.1934
       DOS:  cpu time    0.0039: real time    0.0039
    CHARGE:  cpu time   22.6358: real time   22.6371
    MIXING:  cpu time    0.0044: real time    0.0044
    --------------------------------------------
      LOOP:  cpu time  216.8723: real time  216.8853

 eigenvalue-minimisations  : 46592
 total energy-change (2. order) : 0.4439600E-02  (-0.1253521E-03)
 number of electron     319.9999961 magnetization       0.0000000
 augmentation part       49.1276913 magnetization      -0.0006560

 Broyden mixing:
  rms(total) = 0.86448E-01    rms(broyden)= 0.86448E-01
  rms(prec ) = 0.11358E+00
  weight for this iteration     100.00

 eigenvalues of (default mixing * dielectric matrix)
  average eigenvalue GAMMA=   0.7223
  1.0980  1.0980  0.5601  0.5601  0.5087  0.5087

 Free energy of the ion-electron system (eV)
  ---------------------------------------------------
  alpha Z        PSCENC =      1115.86400502
  Ewald energy   TEWEN  =    -17972.35829313
  -Hartree energ DENC   =     -6900.60062814
  -exchange      EXHF   =         0.00000000
  -V(xc)+E(xc)   XCENC  =      1540.32406388
  PAW double counting   =     40001.39067988   -40077.21518674
  entropy T*S    EENTRO =        -0.00000000
  eigenvalues    EBANDS =     -3240.58572381
  atomic energy  EATOM  =     25003.61856785
  Solvation  Ediel_sol  =         0.00000000
  ---------------------------------------------------
  free energy    TOTEN  =      -529.56251519 eV

  energy without entropy =     -529.56251519  energy(sigma->0) =     -529.56251519


--------------------------------------------------------------------------------------------------------




--------------------------------------- Iteration      1(  12)  ---------------------------------------


    POTLOK:  cpu time    0.2974: real time    0.2974
    SETDIJ:  cpu time    1.7493: real time    1.7494
     EDDAV:  cpu time  170.0126: real time  170.0235
       DOS:  cpu time    0.0041: real time    0.0041
    CHARGE:  cpu time   22.5835: real time   22.5846
    MIXING:  cpu time    0.0044: real time    0.0044
    --------------------------------------------
      LOOP:  cpu time  194.6513: real time  194.6635

 eigenvalue-minimisations  : 38560
 total energy-change (2. order) : 0.7590445E-02  (-0.2955278E-03)
 number of electron     319.9999961 magnetization       0.0000000
 augmentation part       49.1164343 magnetization      -0.0004590

 Broyden mixing:
  rms(total) = 0.70803E-01    rms(broyden)= 0.70802E-01
  rms(prec ) = 0.93096E-01
  weight for this iteration     100.00

 eigenvalues of (default mixing * dielectric matrix)
  average eigenvalue GAMMA=   0.9051
  1.4927  1.4927  0.8004  0.8004  0.6019  0.6019  0.5457

 Free energy of the ion-electron system (eV)
  ---------------------------------------------------
  alpha Z        PSCENC =      1115.86400502
  Ewald energy   TEWEN  =    -17972.35829313
  -Hartree energ DENC   =     -6902.75060198
  -exchange      EXHF   =         0.00000000
  -V(xc)+E(xc)   XCENC  =      1540.46868744
  PAW double counting   =     39980.07927675   -40056.41444326
  entropy T*S    EENTRO =        -0.00000000
  eigenvalues    EBANDS =     -3238.06212345
  atomic energy  EATOM  =     25003.61856785
  Solvation  Ediel_sol  =         0.00000000
  ---------------------------------------------------
  free energy    TOTEN  =      -529.55492474 eV

  energy without entropy =     -529.55492474  energy(sigma->0) =     -529.55492474


--------------------------------------------------------------------------------------------------------




--------------------------------------- Iteration      1(  13)  ---------------------------------------


    POTLOK:  cpu time    0.2970: real time    0.2971
    SETDIJ:  cpu time    1.7486: real time    1.7487
     EDDAV:  cpu time  171.6811: real time  171.6912
       DOS:  cpu time    0.0040: real time    0.0040
    CHARGE:  cpu time   22.6720: real time   22.6734
    MIXING:  cpu time    0.0045: real time    0.0045
    --------------------------------------------
      LOOP:  cpu time  196.4073: real time  196.4188

 eigenvalue-minimisations  : 39032
 total energy-change (2. order) : 0.1088521E-01  (-0.1091510E-02)
 number of electron     319.9999961 magnetization       0.0000000
 augmentation part       49.0946986 magnetization      -0.0002660

 Broyden mixing:
  rms(total) = 0.41131E-01    rms(broyden)= 0.41128E-01
  rms(prec ) = 0.54123E-01
  weight for this iteration     100.00

 eigenvalues of (default mixing * dielectric matrix)
  average eigenvalue GAMMA=   0.8964
  1.5917  1.5917  0.8331  0.8331  0.6120  0.6120  0.5487  0.5487

 Free energy of the ion-electron system (eV)
  ---------------------------------------------------
  alpha Z        PSCENC =      1115.86400502
  Ewald energy   TEWEN  =    -17972.35829313
  -Hartree energ DENC   =     -6906.63613114
  -exchange      EXHF   =         0.00000000
  -V(xc)+E(xc)   XCENC  =      1540.72111476
  PAW double counting   =     39949.38530761   -40026.60672547
  entropy T*S    EENTRO =        -0.00000000
  eigenvalues    EBANDS =     -3233.53188504
  atomic energy  EATOM  =     25003.61856785
  Solvation  Ediel_sol  =         0.00000000
  ---------------------------------------------------
  free energy    TOTEN  =      -529.54403954 eV

  energy without entropy =     -529.54403954  energy(sigma->0) =     -529.54403954


--------------------------------------------------------------------------------------------------------




--------------------------------------- Iteration      1(  14)  ---------------------------------------


    POTLOK:  cpu time    0.2971: real time    0.2971
    SETDIJ:  cpu time    1.7488: real time    1.7489
     EDDAV:  cpu time  176.3488: real time  176.3591
       DOS:  cpu time    0.0040: real time    0.0040
    CHARGE:  cpu time   22.6376: real time   22.6389
    MIXING:  cpu time    0.0046: real time    0.0046
    --------------------------------------------
      LOOP:  cpu time  201.0410: real time  201.0527

 eigenvalue-minimisations  : 40912
 total energy-change (2. order) : 0.2337553E-02  (-0.1232937E-03)
 number of electron     319.9999961 magnetization      -0.0000000
 augmentation part       49.0873007 magnetization      -0.0001495

 Broyden mixing:
  rms(total) = 0.33157E-01    rms(broyden)= 0.33156E-01
  rms(prec ) = 0.43657E-01
  weight for this iteration     100.00

 eigenvalues of (default mixing * dielectric matrix)
  average eigenvalue GAMMA=   0.9055
  1.7486  1.7486  0.8750  0.8750  0.6458  0.6458  0.5517  0.5517  0.5073

 Free energy of the ion-electron system (eV)
  ---------------------------------------------------
  alpha Z        PSCENC =      1115.86400502
  Ewald energy   TEWEN  =    -17972.35829313
  -Hartree energ DENC   =     -6907.57889121
  -exchange      EXHF   =         0.00000000
  -V(xc)+E(xc)   XCENC  =      1540.67965425
  PAW double counting   =     39943.05046567   -40020.48347915
  entropy T*S    EENTRO =        -0.00000000
  eigenvalues    EBANDS =     -3232.33373128
  atomic energy  EATOM  =     25003.61856785
  Solvation  Ediel_sol  =         0.00000000
  ---------------------------------------------------
  free energy    TOTEN  =      -529.54170198 eV

  energy without entropy =     -529.54170198  energy(sigma->0) =     -529.54170198


--------------------------------------------------------------------------------------------------------




--------------------------------------- Iteration      1(  15)  ---------------------------------------


    POTLOK:  cpu time    0.2971: real time    0.2971
    SETDIJ:  cpu time    1.7484: real time    1.7485
     EDDAV:  cpu time  171.7504: real time  171.7609
       DOS:  cpu time    0.0040: real time    0.0040
    CHARGE:  cpu time   22.6623: real time   22.6634
    MIXING:  cpu time    0.0047: real time    0.0047
    --------------------------------------------
      LOOP:  cpu time  196.4667: real time  196.4785

 eigenvalue-minimisations  : 39160
 total energy-change (2. order) : 0.2805857E-02  (-0.1594263E-03)
 number of electron     319.9999961 magnetization      -0.0000000
 augmentation part       49.0788287 magnetization      -0.0001097

 Broyden mixing:
  rms(total) = 0.21826E-01    rms(broyden)= 0.21825E-01
  rms(prec ) = 0.28748E-01
  weight for this iteration     100.00

 eigenvalues of (default mixing * dielectric matrix)
  average eigenvalue GAMMA=   0.9599
  1.9703  1.9703  0.9789  0.9789  0.7153  0.7153  0.5918  0.5918  0.5432  0.5432

 Free energy of the ion-electron system (eV)
  ---------------------------------------------------
  alpha Z        PSCENC =      1115.86400502
  Ewald energy   TEWEN  =    -17972.35829313
  -Hartree energ DENC   =     -6909.14176958
  -exchange      EXHF   =         0.00000000
  -V(xc)+E(xc)   XCENC  =      1540.77594152
  PAW double counting   =     39930.47090863   -40008.25889081
  entropy T*S    EENTRO =        -0.00000000
  eigenvalues    EBANDS =     -3230.50936564
  atomic energy  EATOM  =     25003.61856785
  Solvation  Ediel_sol  =         0.00000000
  ---------------------------------------------------
  free energy    TOTEN  =      -529.53889613 eV

  energy without entropy =     -529.53889613  energy(sigma->0) =     -529.53889613


--------------------------------------------------------------------------------------------------------




--------------------------------------- Iteration      1(  16)  ---------------------------------------


    POTLOK:  cpu time    0.2971: real time    0.2971
    SETDIJ:  cpu time    1.7483: real time    1.7484
     EDDAV:  cpu time  174.1918: real time  174.2023
       DOS:  cpu time    0.0040: real time    0.0040
    CHARGE:  cpu time   22.6531: real time   22.6544
    MIXING:  cpu time    0.0048: real time    0.0048
    --------------------------------------------
      LOOP:  cpu time  198.8992: real time  198.9111

 eigenvalue-minimisations  : 40200
 total energy-change (2. order) : 0.2159128E-02  (-0.1801622E-03)
 number of electron     319.9999961 magnetization       0.0000000
 augmentation part       49.0697787 magnetization      -0.0000777

 Broyden mixing:
  rms(total) = 0.10060E-01    rms(broyden)= 0.10057E-01
  rms(prec ) = 0.13266E-01
  weight for this iteration     100.00

 eigenvalues of (default mixing * dielectric matrix)
  average eigenvalue GAMMA=   1.0432
  2.3835  2.3835  1.1337  1.1337  0.7653  0.7653  0.6271  0.6271  0.5575  0.5575
  0.5406

 Free energy of the ion-electron system (eV)
  ---------------------------------------------------
  alpha Z        PSCENC =      1115.86400502
  Ewald energy   TEWEN  =    -17972.35829313
  -Hartree energ DENC   =     -6910.68828489
  -exchange      EXHF   =         0.00000000
  -V(xc)+E(xc)   XCENC  =      1540.85944107
  PAW double counting   =     39920.85336673   -39998.97104272
  entropy T*S    EENTRO =        -0.00000000
  eigenvalues    EBANDS =     -3228.71449694
  atomic energy  EATOM  =     25003.61856785
  Solvation  Ediel_sol  =         0.00000000
  ---------------------------------------------------
  free energy    TOTEN  =      -529.53673700 eV

  energy without entropy =     -529.53673700  energy(sigma->0) =     -529.53673700


--------------------------------------------------------------------------------------------------------




--------------------------------------- Iteration      1(  17)  ---------------------------------------


    POTLOK:  cpu time    0.2969: real time    0.2969
    SETDIJ:  cpu time    1.7486: real time    1.7486
     EDDAV:  cpu time  178.7118: real time  178.7227
       DOS:  cpu time    0.0040: real time    0.0040
    CHARGE:  cpu time   22.6978: real time   22.6991
    MIXING:  cpu time    0.0049: real time    0.0049
    --------------------------------------------
      LOOP:  cpu time  203.4640: real time  203.4763

 eigenvalue-minimisations  : 41760
 total energy-change (2. order) : 0.9795163E-03  (-0.6621536E-04)
 number of electron     319.9999961 magnetization       0.0000000
 augmentation part       49.0640101 magnetization      -0.0000578

 Broyden mixing:
  rms(total) = 0.30681E-02    rms(broyden)= 0.30645E-02
[...]
   47        0.000   0.000   0.000   0.000
   48        0.000  -0.000   0.000   0.000
--------------------------------------------------
tot          0.000  -0.000   0.000  -0.000
 
    CHARGE:  cpu time    2.4648: real time    2.4650
    FORLOC:  cpu time    0.0215: real time    0.0215
    FORNL :  cpu time   18.6609: real time   18.6620
    STRESS:  cpu time  450.7008: real time  450.7255
    FORCOR:  cpu time    0.3087: real time    0.3087
    FORHAR:  cpu time    0.0347: real time    0.0347
    MIXING:  cpu time    0.0053: real time    0.0053
    OFIELD:  cpu time    0.0000: real time    0.0000

  FORCE on cell =-STRESS in cart. coord.  units (eV):
  Direction    XX          YY          ZZ          XY          YZ          ZX
  --------------------------------------------------------------------------------------
  Alpha Z  1115.86401  1115.86401  1115.86401
  Ewald   -5811.28849 -6094.04695 -6067.11227     0.00131    -0.00078  -163.60031
  Hartree  2471.62539  2166.28109  2274.11040     0.00033    -0.00019   -39.18335
  E(xc)   -1575.60896 -1577.46825 -1575.87906    -0.00000     0.00000     0.58448
  Local   -1349.51575  -733.55642  -887.35610    -0.00154     0.00091   199.50049
  n-local  -843.26521  -829.02106  -845.47324     0.00010    -0.00005   -10.26404
  augment   506.48926   502.33815   506.15270    -0.00000     0.00000     1.19306
  Kinetic  5485.65792  5449.72489  5479.49316    -0.00002     0.00002    11.71301
  Fock        0.00000     0.00000     0.00000     0.00000     0.00000     0.00000
  -------------------------------------------------------------------------------------
  Total      -0.04183     0.11546    -0.20041     0.00018    -0.00009    -0.05667
  in kB      -0.10437     0.28809    -0.50005     0.00044    -0.00022    -0.14139
  external pressure =       -0.11 kB  Pullay stress =        0.00 kB


 VOLUME and BASIS-vectors are now :
 -----------------------------------------------------------------------------
  energy-cutoff  :      520.00
  volume of cell :      642.13
      direct lattice vectors                 reciprocal lattice vectors
     9.175111778 -0.000000453 -5.215775827     0.108974716  0.000000004 -0.000027762
    -0.000000329  8.899309863  0.000000187     0.000000004  0.112368264 -0.000000002
     0.002003168  0.000000164  7.863130562     0.072285165  0.000000000  0.127157395

  length of vectors
    10.554003677  8.899309863  7.863130817     0.108974720  0.112368264  0.146267386


 FORCES acting on ions
    electron-ion (+dipol)            ewald-force                    non-local-force                 convergence-correction
 -----------------------------------------------------------------------------------------------
   0.400E+02 0.824E+02 0.525E+02   -.409E+02 -.808E+02 -.497E+02   0.893E+00 -.152E+01 -.277E+01   -.145E-03 0.993E-04 0.322E-03
   -.400E+02 0.824E+02 -.525E+02   0.409E+02 -.808E+02 0.497E+02   -.894E+00 -.152E+01 0.277E+01   0.143E-03 0.893E-04 -.322E-03
   -.400E+02 -.824E+02 -.525E+02   0.409E+02 0.808E+02 0.497E+02   -.894E+00 0.152E+01 0.277E+01   0.142E-03 -.886E-04 -.321E-03
   0.400E+02 -.824E+02 0.525E+02   -.409E+02 0.808E+02 -.497E+02   0.893E+00 0.152E+01 -.277E+01   -.145E-03 -.964E-04 0.324E-03
   0.581E+02 -.480E+02 0.393E+02   -.571E+02 0.484E+02 -.404E+02   -.953E+00 -.414E+00 0.104E+01   0.113E-03 0.465E-04 -.635E-04
   -.581E+02 -.480E+02 -.393E+02   0.571E+02 0.484E+02 0.404E+02   0.952E+00 -.413E+00 -.104E+01   -.114E-03 0.507E-04 0.664E-04
   -.581E+02 0.480E+02 -.393E+02   0.571E+02 -.484E+02 0.404E+02   0.952E+00 0.413E+00 -.104E+01   -.117E-03 -.518E-04 0.654E-04
   0.581E+02 0.480E+02 0.393E+02   -.571E+02 -.484E+02 -.404E+02   -.953E+00 0.414E+00 0.104E+01   0.115E-03 -.467E-04 -.626E-04
   0.146E+02 0.753E+02 0.283E+02   -.120E+02 -.732E+02 -.272E+02   -.255E+01 -.214E+01 -.115E+01   0.139E-03 0.132E-03 0.499E-04
   -.146E+02 0.753E+02 -.283E+02   0.120E+02 -.732E+02 0.272E+02   0.256E+01 -.214E+01 0.115E+01   -.137E-03 0.129E-03 -.451E-04
   -.146E+02 -.753E+02 -.283E+02   0.120E+02 0.732E+02 0.272E+02   0.256E+01 0.214E+01 0.115E+01   -.138E-03 -.130E-03 -.484E-04
   0.146E+02 -.753E+02 0.283E+02   -.120E+02 0.732E+02 -.272E+02   -.255E+01 0.214E+01 -.115E+01   0.139E-03 -.134E-03 0.482E-04
   -.126E+02 0.273E+02 0.308E+02   0.139E+02 -.269E+02 -.264E+02   -.120E+01 -.452E+00 -.420E+01   -.494E-05 -.240E-05 0.203E-04
   0.126E+02 0.273E+02 -.308E+02   -.139E+02 -.269E+02 0.264E+02   0.120E+01 -.451E+00 0.420E+01   0.606E-05 -.228E-05 -.213E-04
   0.126E+02 -.273E+02 -.308E+02   -.139E+02 0.269E+02 0.264E+02   0.120E+01 0.451E+00 0.420E+01   0.571E-05 0.199E-05 -.206E-04
   -.126E+02 -.273E+02 0.308E+02   0.139E+02 0.269E+02 -.264E+02   -.120E+01 0.452E+00 -.420E+01   -.721E-05 0.278E-05 0.214E-04
   -.170E+02 -.164E+00 -.239E+02   0.146E+02 -.178E+01 0.198E+02   0.232E+01 0.183E+01 0.395E+01   -.177E-04 0.848E-05 -.204E-04
   0.170E+02 -.163E+00 0.239E+02   -.146E+02 -.178E+01 -.198E+02   -.232E+01 0.183E+01 -.395E+01   0.163E-04 0.889E-05 0.221E-04
   0.170E+02 0.163E+00 0.239E+02   -.146E+02 0.178E+01 -.198E+02   -.232E+01 -.183E+01 -.395E+01   0.170E-04 -.804E-05 0.214E-04
   -.170E+02 0.165E+00 -.239E+02   0.146E+02 0.178E+01 0.198E+02   0.232E+01 -.183E+01 0.395E+01   -.170E-04 -.856E-05 -.215E-04
   -.158E+01 -.755E+01 0.104E+02   0.100E+02 -.149E+02 -.156E+02   -.842E+01 0.224E+02 0.520E+01   0.171E-03 -.378E-03 -.840E-04
   0.158E+01 -.755E+01 -.104E+02   -.999E+01 -.149E+02 0.156E+02   0.842E+01 0.224E+02 -.520E+01   -.171E-03 -.373E-03 0.827E-04
   0.158E+01 0.755E+01 -.104E+02   -.999E+01 0.149E+02 0.156E+02   0.842E+01 -.224E+02 -.520E+01   -.171E-03 0.373E-03 0.832E-04
   -.158E+01 0.755E+01 0.104E+02   0.100E+02 0.149E+02 -.156E+02   -.842E+01 -.224E+02 0.520E+01   0.170E-03 0.378E-03 -.834E-04
   0.845E+02 0.580E+02 0.756E+00   -.103E+03 -.601E+02 0.176E+02   0.186E+02 0.210E+01 -.183E+02   -.221E-03 0.321E-04 0.273E-03
   -.845E+02 0.580E+02 -.757E+00   0.103E+03 -.601E+02 -.176E+02   -.186E+02 0.210E+01 0.183E+02   0.222E-03 0.335E-04 -.273E-03
   -.845E+02 -.580E+02 -.757E+00   0.103E+03 0.601E+02 -.176E+02   -.186E+02 -.210E+01 0.183E+02   0.221E-03 -.329E-04 -.273E-03
   0.845E+02 -.580E+02 0.756E+00   -.103E+03 0.601E+02 0.176E+02   0.186E+02 -.210E+01 -.183E+02   -.224E-03 -.318E-04 0.273E-03
   -.480E+02 -.585E+02 0.204E+02   0.649E+02 0.780E+02 -.159E+02   -.170E+02 -.195E+02 -.453E+01   0.205E-03 0.264E-03 0.843E-04
   0.480E+02 -.585E+02 -.204E+02   -.649E+02 0.780E+02 0.159E+02   0.170E+02 -.195E+02 0.453E+01   -.203E-03 0.262E-03 -.861E-04
   0.480E+02 0.585E+02 -.204E+02   -.649E+02 -.780E+02 0.159E+02   0.170E+02 0.195E+02 0.453E+01   -.202E-03 -.262E-03 -.848E-04
   -.480E+02 0.585E+02 0.204E+02   0.649E+02 -.780E+02 -.159E+02   -.170E+02 0.195E+02 -.453E+01   0.204E-03 -.266E-03 0.855E-04
   -.363E+02 -.822E+01 0.520E+02   0.406E+02 0.248E+02 -.539E+02   -.437E+01 -.166E+02 0.188E+01   0.465E-04 0.236E-03 -.149E-04
   0.363E+02 -.821E+01 -.520E+02   -.406E+02 0.248E+02 0.539E+02   0.436E+01 -.166E+02 -.188E+01   -.469E-04 0.234E-03 0.161E-04
   0.363E+02 0.821E+01 -.520E+02   -.406E+02 -.248E+02 0.539E+02   0.436E+01 0.166E+02 -.188E+01   -.472E-04 -.235E-03 0.154E-04
   -.363E+02 0.822E+01 0.520E+02   0.406E+02 -.248E+02 -.539E+02   -.437E+01 0.166E+02 0.188E+01   0.449E-04 -.236E-03 -.145E-04
   -.299E+02 0.699E+02 -.547E+01   0.320E+02 -.952E+02 0.331E+01   -.205E+01 0.253E+02 0.216E+01   -.111E-04 -.356E-03 -.613E-04
   0.299E+02 0.699E+02 0.547E+01   -.320E+02 -.952E+02 -.331E+01   0.205E+01 0.253E+02 -.216E+01   0.121E-04 -.352E-03 0.603E-04
   0.299E+02 -.699E+02 0.547E+01   -.320E+02 0.952E+02 -.331E+01   0.205E+01 -.253E+02 -.216E+01   0.129E-04 0.352E-03 0.617E-04
   -.299E+02 -.699E+02 -.547E+01   0.320E+02 0.952E+02 0.331E+01   -.205E+01 -.253E+02 0.216E+01   -.115E-04 0.355E-03 -.607E-04
   -.480E+02 -.988E+01 -.280E+01   0.566E+02 0.187E+02 -.193E+02   -.863E+01 -.886E+01 0.221E+02   0.868E-04 0.149E-03 -.313E-03
   0.480E+02 -.988E+01 0.280E+01   -.566E+02 0.187E+02 0.193E+02   0.863E+01 -.886E+01 -.221E+02   -.867E-04 0.147E-03 0.312E-03
   0.480E+02 0.988E+01 0.280E+01   -.566E+02 -.187E+02 0.193E+02   0.863E+01 0.886E+01 -.221E+02   -.870E-04 -.147E-03 0.312E-03
   -.480E+02 0.988E+01 -.280E+01   0.566E+02 -.187E+02 -.193E+02   -.863E+01 0.886E+01 0.221E+02   0.859E-04 -.148E-03 -.314E-03
   0.585E+02 -.150E+02 -.651E+02   -.820E+02 0.234E+02 0.724E+02   0.235E+02 -.844E+01 -.732E+01   -.266E-03 0.798E-04 0.758E-04
   -.586E+02 -.150E+02 0.651E+02   0.820E+02 0.234E+02 -.724E+02   -.235E+02 -.844E+01 0.732E+01   0.265E-03 0.770E-04 -.741E-04
   -.586E+02 0.150E+02 0.651E+02   0.820E+02 -.234E+02 -.724E+02   -.235E+02 0.844E+01 0.732E+01   0.265E-03 -.771E-04 -.749E-04
   0.585E+02 0.150E+02 -.651E+02   -.820E+02 -.234E+02 0.724E+02   0.235E+02 0.844E+01 -.732E+01   -.265E-03 -.797E-04 0.749E-04
 -----------------------------------------------------------------------------------------------
   0.674E-02 0.731E-05 0.229E-02   -.568E-13 0.277E-12 -.853E-13   -.694E-02 -.609E-05 -.199E-02   -.714E-05 -.215E-05 0.145E-04
 
 
 POSITION                                       TOTAL-FORCE (eV/Angst)
 -----------------------------------------------------------------------------------
      4.66867      3.92340     -0.37563        -0.007913      0.019233     -0.010128
      9.09602      8.37306      0.41512         0.007858      0.019242      0.010124
      4.50846      4.97591      3.02301         0.007856     -0.019237      0.010129
      0.08111      0.52625      2.23225        -0.007914     -0.019238     -0.010123
      6.12971      8.23196     -1.83844        -0.005952      0.007810     -0.004051
      7.63495      3.78230      1.87790         0.005990      0.007742      0.004053
      3.04740      0.66735      4.48579         0.005989     -0.007747      0.004051
      1.54215      5.11701      0.76945        -0.005953     -0.007805     -0.004054
      7.70252      5.27203     -2.15135         0.010781      0.002240     -0.007370
      6.06224      0.82234      2.19085        -0.010723      0.002142      0.007322
      1.47468      3.62732      4.79874        -0.010721     -0.002152      0.007321
      3.11496      8.07694      0.45654         0.010783     -0.002230     -0.007371
      7.30746      2.36769     -0.74802         0.013124     -0.009556      0.002155
      6.45720      6.81733      0.78748        -0.012999     -0.009122     -0.002427
      1.86964      6.53163      3.39537        -0.012996      0.009239     -0.002389
      2.71990      2.08197      1.85987         0.013127      0.009440      0.002194
      5.41762      2.54240      4.66308         0.009239     -0.001816     -0.001212
      8.34704      6.99204     -4.62361        -0.009285     -0.001727      0.001207
      3.75948      6.35692     -2.01572        -0.009269      0.001793      0.001171
      0.83007      1.90726      7.27096         0.009255      0.001750     -0.001247
      7.86273      0.91055     -1.15536         0.008153     -0.027204      0.004313
      5.90194      5.36018      1.19480        -0.008166     -0.027105     -0.004149
      1.31438      7.98878      3.80268        -0.008144      0.027042     -0.004167
      3.27517      3.53910      1.45252         0.008176      0.027266      0.004294
      6.22619      2.31823      0.45421         0.008314      0.013270     -0.004004
      7.53848      6.76792     -0.41474        -0.008328      0.013237      0.004103
      2.95092      6.58104      2.19315        -0.008320     -0.013250      0.004092
      1.63864      2.13142      3.06210         0.008323     -0.013259     -0.004014
      8.36701      3.53688     -0.43123        -0.011002      0.003942     -0.001107
      5.39764      7.98653      0.47070         0.010863      0.003973      0.001198
      0.81009      5.36244      3.07859         0.010828     -0.004017      0.001185
      3.77945      0.91278      2.17666        -0.011038     -0.003897     -0.001120
      6.45308      3.08141     -2.00917        -0.021875     -0.009757     -0.005599
      7.31158      7.53105      2.04863         0.021428     -0.009864      0.005545
      2.72403      5.81792      4.65652         0.021427      0.009852      0.005546
      1.86552      1.36825      0.59872        -0.021873      0.009769     -0.005598
      5.49452      0.93495      4.54184        -0.002727     -0.010342     -0.004717
      8.27013      5.38459     -4.50235         0.002737     -0.010434      0.004738
      3.68258      7.96437     -1.89446         0.002738      0.010393      0.004738
      0.90696      3.51471      7.14973        -0.002726      0.010384     -0.004717
      5.91412      3.19648      3.28196        -0.010115     -0.010735      0.011095
      7.85054      7.64616     -3.24251         0.010157     -0.010773     -0.011093
      3.26298      5.70280     -0.63462         0.010143      0.010748     -0.011057
      1.32656      1.25317      5.88985        -0.010128      0.010759      0.011131
      3.92303      3.01545      5.10378        -0.004626     -0.014755      0.008207
      0.66652      7.46507      0.15144         0.005070     -0.014985     -0.008204
      5.25408      5.88390     -2.45645         0.005065      0.014978     -0.008201
      8.51058      1.43421      2.49589        -0.004633      0.014762      0.008208
 -----------------------------------------------------------------------------------
    total drift:                               -0.000211     -0.000001      0.000311


--------------------------------------------------------------------------------------------------------



  FREE ENERGIE OF THE ION-ELECTRON SYSTEM (eV)
  ---------------------------------------------------
  free  energy   TOTEN  =      -529.53546825 eV

  energy  without entropy=     -529.53546825  energy(sigma->0) =     -529.53546825
 


--------------------------------------------------------------------------------------------------------


    POTLOK:  cpu time    2.0326: real time    2.0327


--------------------------------------------------------------------------------------------------------




--------------------------------------------------------------------------------------------------------


  
 reached required accuracy - stopping structural energy minimisation
     LOOP+:  cpu time 4583.6690: real time 4584.1099
    4ORBIT:  cpu time    0.0000: real time    0.0000
 


 total charge     
 
# of ion       s       p       d       tot
------------------------------------------
    1        2.023   5.867   0.221   8.111
    2        2.023   5.867   0.221   8.111
    3        2.023   5.867   0.221   8.111
    4        2.023   5.867   0.221   8.111
    5        2.026   5.876   0.242   8.144
    6        2.026   5.876   0.242   8.144
    7        2.026   5.876   0.242   8.144
    8        2.026   5.876   0.242   8.144
    9        2.022   5.867   0.217   8.106
   10        2.022   5.867   0.217   8.106
   11        2.022   5.867   0.217   8.106
   12        2.022   5.867   0.217   8.106
   13        0.665   1.032   0.000   1.698
   14        0.665   1.032   0.000   1.698
   15        0.665   1.032   0.000   1.698
   16        0.665   1.032   0.000   1.698
   17        0.664   1.034   0.000   1.698
   18        0.664   1.034   0.000   1.698
   19        0.664   1.034   0.000   1.698
   20        0.664   1.034   0.000   1.698
   21        1.565   3.603   0.000   5.167
   22        1.565   3.603   0.000   5.167
   23        1.565   3.603   0.000   5.167
   24        1.565   3.603   0.000   5.167
   25        1.567   3.607   0.000   5.174
   26        1.567   3.607   0.000   5.174
   27        1.567   3.607   0.000   5.174
   28        1.567   3.607   0.000   5.174
   29        1.567   3.608   0.000   5.175
   30        1.567   3.608   0.000   5.175
   31        1.567   3.608   0.000   5.175
   32        1.567   3.608   0.000   5.175
   33        1.565   3.693   0.000   5.258
   34        1.565   3.693   0.000   5.258
   35        1.565   3.693   0.000   5.258
   36        1.565   3.693   0.000   5.258
   37        1.567   3.612   0.000   5.178
   38        1.567   3.612   0.000   5.178
   39        1.567   3.612   0.000   5.178
   40        1.567   3.612   0.000   5.178
   41        1.567   3.617   0.000   5.184
   42        1.567   3.617   0.000   5.184
   43        1.567   3.617   0.000   5.184
   44        1.567   3.617   0.000   5.184
   45        1.562   3.561   0.000   5.123
   46        1.562   3.561   0.000   5.123
   47        1.562   3.561   0.000   5.123
   48        1.562   3.561   0.000   5.123
--------------------------------------------------
tot         73.442 179.912   2.722 256.076
 


 magnetization (x)
 
# of ion       s       p       d       tot
------------------------------------------
    1       -0.000   0.000  -0.000  -0.000
    2       -0.000   0.000  -0.000  -0.000
    3       -0.000   0.000  -0.000  -0.000
    4       -0.000   0.000  -0.000  -0.000
    5        0.000   0.000   0.000   0.000
    6        0.000   0.000   0.000   0.000
    7        0.000   0.000   0.000   0.000
    8        0.000   0.000   0.000   0.000
    9       -0.000  -0.000  -0.000  -0.000
   10       -0.000  -0.000  -0.000  -0.000
   11       -0.000  -0.000  -0.000  -0.000
   12       -0.000  -0.000   0.000  -0.000
   13       -0.000  -0.000   0.000  -0.000
   14       -0.000  -0.000   0.000  -0.000
   15       -0.000  -0.000   0.000  -0.000
   16       -0.000  -0.000   0.000  -0.000
   17       -0.000  -0.000   0.000  -0.000
   18       -0.000  -0.000   0.000  -0.000
   19       -0.000  -0.000   0.000  -0.000
   20       -0.000  -0.000   0.000  -0.000
   21       -0.000  -0.000   0.000  -0.000
   22       -0.000  -0.000   0.000  -0.000
   23       -0.000  -0.000   0.000  -0.000
   24       -0.000  -0.000   0.000  -0.000
   25       -0.000  -0.000   0.000  -0.000
   26       -0.000  -0.000   0.000  -0.000
   27       -0.000  -0.000   0.000  -0.000
   28       -0.000  -0.000   0.000  -0.000
   29       -0.000  -0.000   0.000  -0.000
   30       -0.000  -0.000   0.000  -0.000
   31       -0.000  -0.000   0.000  -0.000
   32       -0.000  -0.000   0.000  -0.000
   33        0.000   0.000   0.000   0.000
   34        0.000   0.000   0.000   0.000
   35        0.000   0.000   0.000   0.000
   36       -0.000   0.000   0.000   0.000
   37       -0.000  -0.000   0.000  -0.000
   38       -0.000  -0.000   0.000  -0.000
   39       -0.000  -0.000   0.000  -0.000
   40       -0.000  -0.000   0.000  -0.000
   41       -0.000  -0.000   0.000  -0.000
   42       -0.000  -0.000   0.000  -0.000
   43       -0.000  -0.000   0.000  -0.000
   44       -0.000  -0.000   0.000  -0.000
   45        0.000   0.000   0.000   0.000
   46        0.000   0.000   0.000   0.000
   47        0.000   0.000   0.000   0.000
   48        0.000  -0.000   0.000   0.000
--------------------------------------------------
tot          0.000  -0.000   0.000  -0.000
 

 total amount of memory used by VASP MPI-rank0   267409. kBytes
=======================================================================

   base      :      30000. kBytes
   nonlr-proj:      11661. kBytes
   fftplans  :       5714. kBytes
   grid      :      20901. kBytes
   one-center:        248. kBytes
   wavefun   :     198885. kBytes
 
  
  
 General timing and accounting informations for this job:
 ========================================================
  
                  Total CPU time used (sec):     4620.834
                            User time (sec):     4612.247
                          System time (sec):        8.588
                         Elapsed time (sec):     4622.347
  
                   Maximum memory used (kb):      346184.
                   Average memory used (kb):           0.
  
                          Minor page faults:       140299
                          Major page faults:           13
                 Voluntary context switches:          622
