       N       E                     dE             d eps       ncg     rms          ort
DAV:   1     0.264492708016E+04    0.26449E+04   -0.14767E+05  6336   0.155E+03
DAV:   2    -0.261953598594E+03   -0.29069E+04   -0.28072E+04  6336   0.430E+02
DAV:   3    -0.512630777833E+03   -0.25068E+03   -0.24612E+03  6336   0.141E+02
DAV:   4    -0.523557892666E+03   -0.10927E+02   -0.10807E+02  6336   0.309E+01
DAV:   5    -0.524188816976E+03   -0.63092E+00   -0.62869E+00  6336   0.453E+00
SDA:   6    -0.351370164003E+03    0.17282E+03   -0.62869E+00  6336   0.568E+03 0.000E+00
CGA:   7    -0.396211679033E+03   -0.44842E+02   -0.62563E+02  6336   0.250E+03 0.250E+02
CGA:   8    -0.400970024605E+03   -0.47583E+01   -0.12657E+02  6336   0.256E+03-0.187E+02
CGA:   9    -0.404177447699E+03   -0.32074E+01   -0.88869E+01  6336   0.380E+03-0.137E+03
CGA:  10    -0.412905675118E+03   -0.87282E+01   -0.19149E+02  6336   0.319E+03-0.868E+02
CGA:  11    -0.404209332828E+03    0.86963E+01   -0.17426E+02  6336   0.271E+03 0.175E+02
CGA:  12    -0.416995010629E+03   -0.12786E+02   -0.12396E+02  6336   0.116E+03-0.792E+02
CGA:  13    -0.414226696516E+03    0.27683E+01   -0.46043E+01  6336   0.555E+03-0.239E+03
CGA:  14    -0.418864492929E+03   -0.46378E+01   -0.35713E+02  6336   0.369E+02-0.285E+02
CGA:  15    -0.421524226842E+03   -0.26597E+01   -0.11169E+01  6336   0.252E+02 0.151E+02
CGA:  16    -0.421528824418E+03   -0.45976E-02   -0.72683E+00  6336   0.112E+03-0.287E+02
CGA:  17    -0.422286802230E+03   -0.75798E+00   -0.65061E+01  6336   0.626E+02-0.434E+02
CGA:  18    -0.423437695562E+03   -0.11509E+01   -0.18066E+01  6336   0.424E+02-0.205E+02
CGA:  19    -0.424323194514E+03   -0.88550E+00   -0.50281E+00  6336   0.226E+02 0.151E+00
CGA:  20    -0.423637694790E+03    0.68550E+00   -0.56377E+00  6336   0.749E+02-0.464E+02
CGA:  21    -0.422289901916E+03    0.13478E+01   -0.31571E+01  6336   0.169E+03-0.619E+02
CGA:  22    -0.421040866035E+03    0.12490E+01   -0.82881E+01  6336   0.695E+02-0.379E+02
CGA:  23    -0.424082123619E+03   -0.30413E+01   -0.14681E+01  6336   0.621E+02 0.560E+02
CGA:  24    -0.424270100748E+03   -0.18798E+00   -0.16864E+01  6336   0.614E+02-0.558E+02
CGA:  25    -0.423161429103E+03    0.11087E+01   -0.22758E+01  6336   0.739E+02-0.448E+02
CGA:  26    -0.423713955559E+03   -0.55253E+00   -0.17905E+01  6336   0.130E+03-0.144E+03
CGA:  27    -0.422045773025E+03    0.16682E+01   -0.54520E+01  6336   0.512E+02-0.256E+02
CGA:  28    -0.424126092942E+03   -0.20803E+01   -0.70201E+00  6336   0.705E+02 0.936E+02
CGA:  29    -0.424403063487E+03   -0.27697E+00   -0.14448E+01  6336   0.855E+02-0.945E+02
CGA:  30    -0.422881826251E+03    0.15212E+01   -0.30502E+01  6336   0.674E+02-0.359E+02
CGA:  31    -0.424731358801E+03   -0.18495E+01   -0.68733E+00  6336   0.475E+02 0.557E+02
CGA:  32    -0.425163069301E+03   -0.43171E+00   -0.72714E+00  6336   0.176E+02-0.319E+02
CGA:  33    -0.425124135502E+03    0.38934E-01   -0.37076E+00  6336   0.209E+02-0.167E+02
CGA:  34    -0.425339424706E+03   -0.21529E+00   -0.25014E+00  6336   0.140E+01-0.432E+01
CGA:  35    -0.425366697465E+03   -0.27273E-01   -0.30043E-01  6336   0.116E+01-0.119E+00
CGA:  36    -0.425458699821E+03   -0.92002E-01   -0.91079E-01  6336   0.393E+01 0.349E-01
CGA:  37    -0.425674755599E+03   -0.21606E+00   -0.22786E+00  6336   0.146E+01 0.326E+00
CGA:  38    -0.425727307350E+03   -0.52552E-01   -0.59226E-01  6336   0.453E+00-0.105E+00
CGA:  39    -0.425744305519E+03   -0.16998E-01   -0.17010E-01  6336   0.249E+00-0.545E-02
CGA:  40    -0.425758925983E+03   -0.14620E-01   -0.14584E-01  6336   0.221E+00-0.156E-02
CGA:  41    -0.425783541976E+03   -0.24616E-01   -0.24617E-01  6336   0.273E+00-0.204E-02
CGA:  42    -0.425796143116E+03   -0.12601E-01   -0.12523E-01  6336   0.916E-01-0.198E-02
CGA:  43    -0.425799845920E+03   -0.37028E-02   -0.36545E-02  6336   0.507E-01-0.352E-02
CGA:  44    -0.425805001152E+03   -0.51552E-02   -0.54276E-02  6336   0.971E-01-0.640E-02
CGA:  45    -0.425811295591E+03   -0.62944E-02   -0.63351E-02  6336   0.426E-01-0.666E-02
CGA:  46    -0.425812830990E+03   -0.15354E-02   -0.14984E-02  6336   0.152E-01-0.195E-02
CGA:  47    -0.425814112758E+03   -0.12818E-02   -0.13962E-02  6336   0.392E-01-0.412E-02
CGA:  48    -0.425816508946E+03   -0.23962E-02   -0.26269E-02  6336   0.281E-01-0.912E-02
CGA:  49    -0.425817306444E+03   -0.79750E-03   -0.78162E-03  6336   0.541E-02-0.523E-03
CGA:  50    -0.425817675737E+03   -0.36929E-03   -0.16171E-02  6336   0.720E-01-0.519E-02
CGA:  51    -0.425819074851E+03   -0.13991E-02   -0.14188E-02  6336   0.265E-02 0.649E-03
CGA:  52    -0.425819290615E+03   -0.21576E-03   -0.21425E-03  6336   0.429E-02 0.481E-03
CGA:  53    -0.425819655943E+03   -0.36533E-03   -0.37105E-03  6336   0.112E-02 0.141E-02
CGA:  54    -0.425819835389E+03   -0.17945E-03   -0.15445E-03  6336   0.206E-02 0.951E-03
CGA:  55    -0.425819924874E+03   -0.89486E-04   -0.80256E-04  6336   0.199E-02-0.253E-03
CGA:  56    -0.425820275028E+03   -0.35015E-03   -0.37593E-03  6336   0.601E-02-0.190E-03
CGA:  57    -0.425820442283E+03   -0.16725E-03   -0.21464E-03  6336   0.194E-02 0.119E-02
CGA:  58    -0.425820546738E+03   -0.10445E-03   -0.13092E-03  6336   0.287E-02 0.108E-02
CGA:  59    -0.425820693629E+03   -0.14689E-03   -0.13435E-03  6336   0.262E-02-0.408E-03
CGA:  60    -0.425820842011E+03   -0.14838E-03   -0.15172E-03  6336   0.240E-02 0.298E-03
CGA:  61    -0.425820891442E+03   -0.49431E-04   -0.89337E-04  6336   0.494E-03 0.910E-03
CGA:  62    -0.425820905012E+03   -0.13570E-04   -0.25788E-04  6336   0.641E-03 0.326E-03
CGA:  63    -0.425820956405E+03   -0.51392E-04   -0.60840E-04  6336   0.344E-02-0.452E-03
CGA:  64    -0.425821007916E+03   -0.51511E-04   -0.68038E-04  6336   0.429E-03 0.297E-03
CGA:  65    -0.425821020705E+03   -0.12790E-04   -0.20946E-04  6336   0.514E-03 0.302E-03
CGA:  66    -0.425821056427E+03   -0.35721E-04   -0.74501E-04  6336   0.567E-02-0.528E-03
CGA:  67    -0.425821142545E+03   -0.86119E-04   -0.11020E-03  6336   0.487E-03 0.430E-03
CGA:  68    -0.425821148076E+03   -0.55310E-05   -0.17155E-04  6336   0.413E-03 0.299E-03
CGA:  69    -0.425821173134E+03   -0.25058E-04   -0.11483E-03  6336   0.103E-01-0.430E-03
CGA:  70    -0.425821338649E+03   -0.16551E-03   -0.19712E-03  6336   0.573E-03 0.519E-03
CGA:  71    -0.425821342795E+03   -0.41467E-05   -0.18051E-04  6336   0.372E-03 0.295E-03
CGA:  72    -0.425821352488E+03   -0.96926E-05   -0.25448E-04  6336   0.176E-01-0.390E-03
CGA:  73    -0.425821646977E+03   -0.29449E-03   -0.33844E-03  6336   0.710E-03 0.472E-03
CGA:  74    -0.425821649500E+03   -0.25231E-05   -0.24064E-04  6336   0.366E-03 0.222E-03
CGA:  75    -0.425821708590E+03   -0.59090E-04   -0.59541E-04  6336   0.158E-02 0.284E-03
CGA:  76    -0.425821781523E+03   -0.72933E-04   -0.51768E-04  6336   0.718E-03-0.253E-03
CGA:  77    -0.425821860929E+03   -0.79405E-04   -0.83444E-04  6336   0.422E-02-0.241E-03
CGA:  78    -0.425807008501E+03    0.14852E-01   -0.39695E-02  6336   0.919E+00-0.490E-01
CGA:  79    -0.425818474975E+03   -0.11466E-01   -0.29406E-01  6336   0.372E+00-0.548E+00
CGA:  80    -0.425825501790E+03   -0.70268E-02   -0.74457E-02  6336   0.446E-02-0.208E-01
CGA:  81    -0.425825598538E+03   -0.96748E-04   -0.11563E-03  6336   0.133E-02 0.827E-04
CGA:  82    -0.425825932474E+03   -0.33394E-03   -0.31806E-03  6336   0.205E-02 0.387E-03
CGA:  83    -0.425826144966E+03   -0.21249E-03   -0.18162E-03  6336   0.272E-02-0.396E-03
CGA:  84    -0.425826357488E+03   -0.21252E-03   -0.22288E-03  6336   0.476E-02 0.115E-03
CGA:  85    -0.425826507614E+03   -0.15013E-03   -0.22893E-03  6336   0.124E-02 0.459E-03
CGA:  86    -0.425826786853E+03   -0.27924E-03   -0.30111E-03  6336   0.809E-02-0.504E-03
CGA:  87    -0.425826994891E+03   -0.20804E-03   -0.18162E-03  6336   0.790E-02 0.955E-03
CGA:  88    -0.425827138274E+03   -0.14338E-03   -0.21789E-03  6336   0.153E-02 0.413E-03
CGA:  89    -0.425827171559E+03   -0.33285E-04   -0.71877E-04  6336   0.233E-02 0.279E-03
CGA:  90    -0.425827523749E+03   -0.35219E-03   -0.35569E-03  6336   0.697E-02 0.493E-03
CGA:  91    -0.425827859170E+03   -0.33542E-03   -0.24252E-03  6336   0.489E-02 0.268E-02
CGA:  92    -0.425828130838E+03   -0.27167E-03   -0.31254E-03  6336   0.494E-02-0.194E-02
CGA:  93    -0.425828372323E+03   -0.24148E-03   -0.27254E-03  6336   0.467E-02 0.227E-03
CGA:  94    -0.425828477269E+03   -0.10495E-03   -0.85675E-04  6336   0.208E-02 0.179E-02
CGA:  95    -0.425828586108E+03   -0.10884E-03   -0.10748E-03  6336   0.409E-02 0.408E-03
CGA:  96    -0.425828785342E+03   -0.19923E-03   -0.16528E-03  6336   0.789E-02 0.766E-03
CGA:  97    -0.425829037777E+03   -0.25244E-03   -0.20773E-03  6336   0.499E-02 0.121E-03
CGA:  98    -0.425829168502E+03   -0.13072E-03   -0.11047E-03  6336   0.110E-02-0.199E-02
CGA:  99    -0.425829223144E+03   -0.54642E-04   -0.21954E-04  6336   0.999E-03-0.425E-03
CGA: 100    -0.425829276358E+03   -0.53214E-04   -0.90887E-04  6336   0.799E-02-0.106E-02
CGA: 101    -0.425829397687E+03   -0.12133E-03   -0.17396E-03  6336   0.551E-03 0.714E-03
CGA: 102    -0.425829399506E+03   -0.18186E-05   -0.18769E-04  6336   0.304E-03 0.213E-03
CGA: 103    -0.425829428206E+03   -0.28700E-04   -0.33358E-04  6336   0.631E-03 0.172E-03
CGA: 104    -0.425829461875E+03   -0.33669E-04   -0.23616E-04  6336   0.326E-03-0.152E-03
CGA: 105    -0.425829493185E+03   -0.31310E-04   -0.40204E-04  6336   0.177E-02-0.148E-03
CGA: 106    -0.425829511882E+03   -0.18697E-04   -0.39771E-04  6336   0.107E-02 0.332E-03
CGA: 107    -0.425829513650E+03   -0.17678E-05   -0.21692E-04  6336   0.112E-03 0.237E-03
   1 F= -.42582951E+03 E0= -.42581900E+03  d E =-.425830E+03  mag=    10.0000
       N       E                     dE             d eps       ncg     rms          ort
SDA:   1    -0.425828998510E+03    0.51337E-03    0.00000E+00  6336   0.642E-01 0.000E+00
CGA:   2    -0.425830195234E+03   -0.11967E-02   -0.12627E-02  6336   0.259E-02 0.155E-03
CGA:   3    -0.425830786037E+03   -0.59080E-03   -0.56698E-03  6336   0.559E-02 0.183E-03
CGA:   4    -0.425831063984E+03   -0.27795E-03   -0.24773E-03  6336   0.122E-02-0.610E-03
CGA:   5    -0.425831154636E+03   -0.90652E-04   -0.91750E-04  6336   0.879E-03 0.117E-03
CGA:   6    -0.425831215727E+03   -0.61092E-04   -0.60178E-04  6336   0.487E-03-0.316E-04
CGA:   7    -0.425831233400E+03   -0.17672E-04   -0.20408E-04  6336   0.154E-03 0.547E-04
CGA:   8    -0.425831246312E+03   -0.12912E-04   -0.11823E-04  6336   0.306E-03-0.557E-04
CGA:   9    -0.425831260242E+03   -0.13930E-04   -0.13639E-04  6336   0.168E-03-0.160E-04
CGA:  10    -0.425831260839E+03   -0.59668E-06   -0.26193E-05  6336   0.408E-04 0.280E-04
   2 F= -.42583126E+03 E0= -.42582073E+03  d E =-.174719E-02  mag=    10.0000
       N       E                     dE             d eps       ncg     rms          ort
SDA:   1    -0.425821933499E+03    0.93267E-02    0.00000E+00  6336   0.531E-01 0.000E+00
CGA:   2    -0.425824373561E+03   -0.24401E-02   -0.24625E-02  6336   0.659E-01 0.155E-03
CGA:   3    -0.425833159526E+03   -0.87860E-02   -0.89196E-02  6336   0.121E-01-0.241E-02
CGA:   4    -0.425834628082E+03   -0.14686E-02   -0.14024E-02  6336   0.135E-01 0.172E-02
CGA:   5    -0.425835442343E+03   -0.81426E-03   -0.77101E-03  6336   0.450E-02-0.147E-02
CGA:   6    -0.425835599134E+03   -0.15679E-03   -0.17216E-03  6336   0.189E-02 0.379E-03
CGA:   7    -0.425835693594E+03   -0.94460E-04   -0.10654E-03  6336   0.113E-02 0.424E-03
CGA:   8    -0.425835823801E+03   -0.13021E-03   -0.13698E-03  6336   0.172E-02-0.341E-03
CGA:   9    -0.425835861428E+03   -0.37627E-04   -0.39664E-04  6336   0.436E-03 0.405E-04
CGA:  10    -0.425835864397E+03   -0.29691E-05   -0.90560E-05  6336   0.193E-03 0.106E-03
   3 F= -.42583586E+03 E0= -.42582532E+03  d E =-.460356E-02  mag=    10.0000
       N       E                     dE             d eps       ncg     rms          ort
SDA:   1    -0.425752359346E+03    0.83502E-01    0.00000E+00  6336   0.808E+00 0.000E+00
CGA:   2    -0.425775338122E+03   -0.22979E-01   -0.22688E-01  6336   0.224E+00 0.115E-01
CGA:   3    -0.425807174065E+03   -0.31836E-01   -0.31719E-01  6336   0.512E+00 0.131E-02
CGA:   4    -0.425826058343E+03   -0.18884E-01   -0.19034E-01  6336   0.712E-01-0.130E-01
CGA:   5    -0.425834801267E+03   -0.87429E-02   -0.88939E-02  6336   0.112E+00-0.293E-02
CGA:   6    -0.425839428920E+03   -0.46277E-02   -0.47312E-02  6336   0.761E-02 0.403E-02
CGA:   7    -0.425840237728E+03   -0.80881E-03   -0.77902E-03  6336   0.137E-01 0.114E-02
CGA:   8    -0.425841031388E+03   -0.79366E-03   -0.79605E-03  6336   0.274E-02 0.149E-04
CGA:   9    -0.425841175649E+03   -0.14426E-03   -0.13037E-03  6336   0.241E-02-0.562E-03
CGA:  10    -0.425841383642E+03   -0.20799E-03   -0.20062E-03  6336   0.691E-03 0.222E-03
CGA:  11    -0.425841414003E+03   -0.30360E-04   -0.34315E-04  6336   0.519E-03 0.138E-03
CGA:  12    -0.425841444618E+03   -0.30615E-04   -0.19467E-03  6336   0.325E-02-0.685E-03
CGA:  13    -0.425841524349E+03   -0.79731E-04   -0.75239E-04  6336   0.498E-03-0.888E-04
CGA:  14    -0.425841604115E+03   -0.79766E-04   -0.72492E-04  6336   0.196E-03 0.106E-03
CGA:  15    -0.425841612161E+03   -0.80462E-05   -0.85447E-05  6336   0.795E-04 0.960E-05
   4 F= -.42584161E+03 E0= -.42583104E+03  d E =-.574776E-02  mag=    10.0000
       N       E                     dE             d eps       ncg     rms          ort
SDA:   1    -0.425831047530E+03    0.10557E-01    0.00000E+00  6336   0.559E-01 0.000E+00
CGA:   2    -0.425833557256E+03   -0.25097E-02   -0.24921E-02  6336   0.559E-01-0.323E-03
CGA:   3    -0.425839843282E+03   -0.62860E-02   -0.62942E-02  6336   0.380E-01-0.306E-03
CGA:   4    -0.425841240931E+03   -0.13976E-02   -0.13595E-02  6336   0.114E-01-0.188E-02
CGA:   5    -0.425842770254E+03   -0.15293E-02   -0.15758E-02  6336   0.132E-01-0.713E-03
CGA:   6    -0.425843093729E+03   -0.32347E-03   -0.38269E-03  6336   0.119E-02 0.122E-02
CGA:   7    -0.425843166031E+03   -0.72303E-04   -0.80316E-04  6336   0.139E-02 0.465E-03
CGA:   8    -0.425843329926E+03   -0.16389E-03   -0.16454E-03  6336   0.409E-03-0.963E-04
CGA:   9    -0.425843335105E+03   -0.51793E-05   -0.11494E-04  6336   0.133E-03 0.130E-03
   5 F= -.42584334E+03 E0= -.42583275E+03  d E =-.172294E-02  mag=    10.0000
       N       E                     dE             d eps       ncg     rms          ort
SDA:   1    -0.422183898433E+03    0.36594E+01    0.00000E+00  6336   0.140E+02 0.000E+00
CGA:   2    -0.422933235368E+03   -0.74934E+00   -0.77720E+00  6336   0.208E+02-0.123E+00
CGA:   3    -0.425036793970E+03   -0.21036E+01   -0.21186E+01  6336   0.499E+01-0.391E+00
CGA:   4    -0.425284193875E+03   -0.24740E+00   -0.26581E+00  6336   0.419E+01 0.564E-01
CGA:   5    -0.425711377375E+03   -0.42718E+00   -0.42959E+00  6336   0.141E+01-0.619E-01
CGA:   6    -0.425762768689E+03   -0.51391E-01   -0.49619E-01  6336   0.388E+00 0.336E-01
CGA:   7    -0.425808662425E+03   -0.45894E-01   -0.45557E-01  6336   0.623E+00 0.631E-02
CGA:   8    -0.425830084639E+03   -0.21422E-01   -0.21667E-01  6336   0.578E-01-0.302E-02
CGA:   9    -0.425835553990E+03   -0.54694E-02   -0.53900E-02  6336   0.843E-01 0.384E-02
CGA:  10    -0.425843802029E+03   -0.82480E-02   -0.83250E-02  6336   0.260E-01-0.466E-02
CGA:  11    -0.425844843649E+03   -0.10416E-02   -0.10729E-02  6336   0.143E-01 0.112E-02
CGA:  12    -0.425846345863E+03   -0.15022E-02   -0.15027E-02  6336   0.296E-01-0.416E-04
CGA:  13    -0.425848379213E+03   -0.20333E-02   -0.20112E-02  6336   0.627E-02-0.328E-02
CGA:  14    -0.425848736623E+03   -0.35741E-03   -0.36114E-03  6336   0.608E-02 0.351E-03
CGA:  15    -0.425849661814E+03   -0.92519E-03   -0.93957E-03  6336   0.109E-01-0.223E-03
CGA:  16    -0.425850127116E+03   -0.46530E-03   -0.43180E-03  6336   0.239E-02-0.963E-03
CGA:  17    -0.425850244076E+03   -0.11696E-03   -0.12038E-03  6336   0.213E-02 0.151E-03
CGA:  18    -0.425850502461E+03   -0.25839E-03   -0.24789E-03  6336   0.203E-02 0.305E-03
CGA:  19    -0.425850682140E+03   -0.17968E-03   -0.18030E-03  6336   0.268E-02-0.962E-03
CGA:  20    -0.425850740906E+03   -0.58766E-04   -0.65163E-04  6336   0.977E-03 0.208E-03
CGA:  21    -0.425850747197E+03   -0.62909E-05   -0.22095E-04  6336   0.349E-03 0.290E-03
CGA:  22    -0.425850756355E+03   -0.91584E-05   -0.17027E-04  6336   0.515E-03 0.224E-03
CGA:  23    -0.425850688410E+03    0.67944E-04   -0.95287E-04  6336   0.104E-01-0.144E-02
CGA:  24    -0.425850866328E+03   -0.17792E-03   -0.23213E-03  6336   0.228E-03 0.112E-02
CGA:  25    -0.425850863248E+03    0.30808E-05   -0.44663E-05  6336   0.111E-03 0.133E-03
   6 F= -.42585086E+03 E0= -.42584012E+03  d E =-.752814E-02  mag=    10.0000
       N       E                     dE             d eps       ncg     rms          ort
SDA:   1    -0.425734856776E+03    0.11601E+00    0.00000E+00  6336   0.546E+00 0.000E+00
CGA:   2    -0.425760545637E+03   -0.25689E-01   -0.25360E-01  6336   0.479E+00 0.348E-02
CGA:   3    -0.425819141847E+03   -0.58596E-01   -0.58343E-01  6336   0.377E+00 0.456E-02
CGA:   4    -0.425831177773E+03   -0.12036E-01   -0.12371E-01  6336   0.110E+00-0.130E-01
CGA:   5    -0.425845685613E+03   -0.14508E-01   -0.14697E-01  6336   0.115E+00-0.292E-02
CGA:   6    -0.425849174716E+03   -0.34891E-02   -0.35948E-02  6336   0.126E-01 0.446E-02
CGA:   7    -0.425850919712E+03   -0.17450E-02   -0.17165E-02  6336   0.269E-01 0.456E-03
CGA:   8    -0.425852077557E+03   -0.11578E-02   -0.11151E-02  6336   0.217E-02-0.145E-02
CGA:   9    -0.425852285196E+03   -0.20764E-03   -0.20821E-03  6336   0.517E-02-0.275E-04
CGA:  10    -0.425852574596E+03   -0.28940E-03   -0.29273E-03  6336   0.513E-03 0.191E-03
CGA:  11    -0.425852637090E+03   -0.62494E-04   -0.67178E-04  6336   0.191E-02-0.909E-04
CGA:  12    -0.425852696577E+03   -0.59487E-04   -0.70166E-04  6336   0.650E-03 0.341E-03
CGA:  13    -0.425852698519E+03   -0.19419E-05   -0.13923E-04  6336   0.169E-03 0.212E-03
   7 F= -.42585270E+03 E0= -.42584190E+03  d E =-.183527E-02  mag=    10.0000
       N       E                     dE             d eps       ncg     rms          ort
SDA:   1    -0.425750775646E+03    0.10192E+00    0.00000E+00  6336   0.371E+00 0.000E+00
CGA:   2    -0.425776798926E+03   -0.26023E-01   -0.26026E-01  6336   0.570E+00 0.181E-02
CGA:   3    -0.425833174385E+03   -0.56375E-01   -0.56279E-01  6336   0.101E+00 0.256E-02
CGA:   4    -0.425839738681E+03   -0.65643E-02   -0.65589E-02  6336   0.164E+00-0.183E-02
CGA:   5    -0.425851608696E+03   -0.11870E-01   -0.11871E-01  6336   0.145E-01-0.488E-03
CGA:   6    -0.425852666012E+03   -0.10573E-02   -0.10521E-02  6336   0.151E-01 0.209E-02
CGA:   7    -0.425854201762E+03   -0.15358E-02   -0.15992E-02  6336   0.517E-02-0.291E-02
CGA:   8    -0.425854313689E+03   -0.11193E-03   -0.14018E-03  6336   0.145E-02 0.751E-03
CGA:   9    -0.425854436999E+03   -0.12331E-03   -0.12119E-03  6336   0.185E-02 0.628E-03
CGA:  10    -0.425854668957E+03   -0.23196E-03   -0.25700E-03  6336   0.190E-02-0.941E-03
CGA:  11    -0.425854689892E+03   -0.20935E-04   -0.42101E-04  6336   0.260E-03 0.435E-03
CGA:  12    -0.425854692883E+03   -0.29912E-05   -0.96263E-05  6336   0.239E-03 0.171E-03
CGA:  13    -0.425854727849E+03   -0.34966E-04    0.84894E-04  6336   0.290E-03 0.484E-04
CGA:  14    -0.425854755693E+03   -0.27845E-04   -0.26483E-04  6336   0.651E-04 0.152E-03
CGA:  15    -0.425854755934E+03   -0.24080E-06   -0.21285E-05  6336   0.575E-04 0.544E-04
CGA:  16    -0.425854763957E+03   -0.80229E-05    0.29328E-04  6336   0.535E-04 0.523E-04
   8 F= -.42585476E+03 E0= -.42584398E+03  d E =-.206544E-02  mag=    10.0000
       N       E                     dE             d eps       ncg     rms          ort
SDA:   1    -0.425833165383E+03    0.21591E-01    0.00000E+00  6336   0.819E-01 0.000E+00
CGA:   2    -0.425839128501E+03   -0.59631E-02   -0.59380E-02  6336   0.123E+00 0.366E-02
CGA:   3    -0.425848358610E+03   -0.92301E-02   -0.92262E-02  6336   0.534E-01 0.294E-03
CGA:   4    -0.425850645644E+03   -0.22870E-02   -0.22489E-02  6336   0.306E-01-0.264E-02
CGA:   5    -0.425854205474E+03   -0.35598E-02   -0.35049E-02  6336   0.947E-02 0.965E-03
CGA:   6    -0.425854541612E+03   -0.33614E-03   -0.34717E-03  6336   0.382E-02 0.307E-03
CGA:   7    -0.425855040974E+03   -0.49936E-03   -0.54863E-03  6336   0.577E-02-0.684E-03
CGA:   8    -0.425855160660E+03   -0.11969E-03   -0.12260E-03  6336   0.628E-03 0.635E-04
CGA:   9    -0.425855176373E+03   -0.15713E-04   -0.22454E-04  6336   0.614E-03 0.208E-03
CGA:  10    -0.425855239039E+03   -0.62666E-04   -0.60606E-04  6336   0.462E-03 0.250E-03
CGA:  11    -0.425855246154E+03   -0.71154E-05   -0.83863E-04  6336   0.396E-02-0.123E-02
CGA:  12    -0.425855293423E+03   -0.47269E-04   -0.83180E-04  6336   0.276E-03 0.725E-03
CGA:  13    -0.425855290675E+03    0.27480E-05   -0.56899E-05  6336   0.129E-03 0.169E-03
CGA:  14    -0.425855302169E+03   -0.11494E-04   -0.10358E-04  6336   0.996E-04 0.732E-04
CGA:  15    -0.425855306171E+03   -0.40017E-05   -0.11747E-04  6336   0.934E-03-0.149E-03
CGA:  16    -0.425855318864E+03   -0.12693E-04   -0.17339E-04  6336   0.337E-04 0.911E-04
CGA:  17    -0.425855318035E+03    0.82835E-06   -0.54179E-06  6336   0.252E-04 0.269E-04
   9 F= -.42585532E+03 E0= -.42584453E+03  d E =-.554078E-03  mag=    10.0000
       N       E                     dE             d eps       ncg     rms          ort
SDA:   1    -0.423976546187E+03    0.18788E+01    0.00000E+00  6336   0.687E+01 0.000E+00
CGA:   2    -0.424548833453E+03   -0.57229E+00   -0.56560E+00  6336   0.932E+01 0.237E+00
CGA:   3    -0.425323932973E+03   -0.77510E+00   -0.77498E+00  6336   0.265E+01-0.115E-01
CGA:   4    -0.425494181561E+03   -0.17025E+00   -0.17028E+00  6336   0.378E+01-0.237E-01
CGA:   5    -0.425759534446E+03   -0.26535E+00   -0.26604E+00  6336   0.491E+00-0.500E-01
CGA:   6    -0.425784221911E+03   -0.24687E-01   -0.24836E-01  6336   0.334E+00-0.578E-02
CGA:   7    -0.425818909740E+03   -0.34688E-01   -0.34637E-01  6336   0.155E+00 0.874E-03
CGA:   8    -0.425823623895E+03   -0.47142E-02   -0.47435E-02  6336   0.386E-01 0.288E-02
CGA:   9    -0.425828811063E+03   -0.51872E-02   -0.53120E-02  6336   0.755E-01-0.182E-02
CGA:  10    -0.425831839245E+03   -0.30282E-02   -0.30199E-02  6336   0.775E-02-0.785E-04
CGA:  11    -0.425832475463E+03   -0.63622E-03   -0.61172E-03  6336   0.963E-02 0.183E-02
CGA:  12    -0.425833868179E+03   -0.13927E-02   -0.15783E-02  6336   0.105E-01-0.284E-02
CGA:  13    -0.425834049145E+03   -0.18097E-03   -0.21371E-03  6336   0.268E-02 0.800E-03
CGA:  14    -0.425834104231E+03   -0.55086E-04   -0.85586E-04  6336   0.204E-02 0.787E-03
CGA:  15    -0.425834332720E+03   -0.22849E-03   -0.21560E-03  6336   0.469E-02 0.803E-03
CGA:  16    -0.425834770135E+03   -0.43742E-03   -0.43781E-03  6336   0.858E-03-0.123E-02
CGA:  17    -0.425834793840E+03   -0.23704E-04   -0.27942E-04  6336   0.698E-03 0.186E-03
CGA:  18    -0.425834874454E+03   -0.80614E-04   -0.73411E-04  6336   0.832E-03 0.343E-03
CGA:  19    -0.425834862539E+03    0.11914E-04   -0.25038E-03  6336   0.871E-02-0.195E-02
CGA:  20    -0.425835009985E+03   -0.14745E-03   -0.20520E-03  6336   0.432E-03 0.111E-02
CGA:  21    -0.425835014049E+03   -0.40637E-05   -0.14045E-04  6336   0.291E-03 0.236E-03
CGA:  22    -0.425835058250E+03   -0.44201E-04    0.95205E-04  6336   0.244E-03 0.150E-03
CGA:  23    -0.425835058999E+03   -0.74870E-06   -0.66527E-05  6336   0.133E-03 0.142E-03
CGA:  24    -0.425835103536E+03   -0.44537E-04   -0.37543E-04  6336   0.744E-04 0.324E-04
CGA:  25    -0.425835105463E+03   -0.19269E-05   -0.30505E-05  6336   0.352E-04 0.248E-04
  10 F= -.42583511E+03 E0= -.42582428E+03  d E =0.202126E-01  mag=    10.0000
       N       E                     dE             d eps       ncg     rms          ort
SDA:   1    -0.424709095184E+03    0.11260E+01    0.00000E+00  6336   0.372E+01 0.000E+00
CGA:   2    -0.425110937162E+03   -0.40184E+00   -0.40460E+00  6336   0.914E+01-0.484E-01
CGA:   3    -0.425519252116E+03   -0.40831E+00   -0.41141E+00  6336   0.198E+01-0.651E-01
CGA:   4    -0.425632585446E+03   -0.11333E+00   -0.11397E+00  6336   0.181E+01-0.190E-01
CGA:   5    -0.425809927654E+03   -0.17734E+00   -0.17705E+00  6336   0.215E+00 0.133E-01
CGA:   6    -0.425824438842E+03   -0.14511E-01   -0.14534E-01  6336   0.333E+00-0.209E-02
CGA:   7    -0.425845430581E+03   -0.20992E-01   -0.21017E-01  6336   0.775E-01 0.872E-03
CGA:   8    -0.425847898922E+03   -0.24683E-02   -0.26107E-02  6336   0.211E-01 0.482E-02
CGA:   9    -0.425851873040E+03   -0.39741E-02   -0.39628E-02  6336   0.363E-01 0.795E-04
CGA:  10    -0.425853000899E+03   -0.11279E-02   -0.11088E-02  6336   0.513E-02-0.107E-02
CGA:  11    -0.425853413944E+03   -0.41305E-03   -0.41422E-03  6336   0.106E-01-0.175E-03
CGA:  12    -0.425854296369E+03   -0.88243E-03   -0.88333E-03  6336   0.124E-02-0.955E-04
CGA:  13    -0.425854418887E+03   -0.12252E-03   -0.28910E-03  6336   0.153E-01-0.105E-02
CGA:  14    -0.425854701191E+03   -0.28230E-03   -0.31275E-03  6336   0.582E-03 0.671E-03
CGA:  15    -0.425854710304E+03   -0.91126E-05   -0.21314E-04  6336   0.404E-03 0.264E-03
CGA:  16    -0.425854788762E+03   -0.78458E-04   -0.70754E-04  6336   0.108E-02 0.183E-03
CGA:  17    -0.425854907271E+03   -0.11851E-03   -0.11340E-03  6336   0.764E-03-0.602E-03
CGA:  18    -0.425854915223E+03   -0.79519E-05   -0.18126E-04  6336   0.211E-03 0.178E-03
CGA:  19    -0.425854926353E+03   -0.11130E-04   -0.14194E-04  6336   0.273E-03 0.133E-03
CGA:  20    -0.425854426845E+03    0.49951E-03   -0.98628E-04  6336   0.307E-01-0.211E-02
CGA:  21    -0.425855009836E+03   -0.58299E-03   -0.66675E-03  6336   0.696E-03 0.170E-02
CGA:  22    -0.425855007934E+03    0.19018E-05   -0.13103E-04  6336   0.842E-04 0.214E-03
  11 F= -.42585501E+03 E0= -.42584418E+03  d E =-.199025E-01  mag=    10.0000
       N       E                     dE             d eps       ncg     rms          ort
SDA:   1    -0.425705818319E+03    0.14919E+00    0.00000E+00  6336   0.576E+00 0.000E+00
CGA:   2    -0.425733951478E+03   -0.28133E-01   -0.28188E-01  6336   0.747E+00-0.310E-02
CGA:   3    -0.425827814252E+03   -0.93863E-01   -0.93951E-01  6336   0.133E+00-0.253E-02
CGA:   4    -0.425836381051E+03   -0.85668E-02   -0.85931E-02  6336   0.165E+00 0.270E-02
CGA:   5    -0.425851208910E+03   -0.14828E-01   -0.14832E-01  6336   0.208E-01-0.901E-03
CGA:   6    -0.425852211165E+03   -0.10023E-02   -0.98799E-03  6336   0.213E-01-0.706E-03
CGA:   7    -0.425854033755E+03   -0.18226E-02   -0.18178E-02  6336   0.656E-02 0.473E-03
CGA:   8    -0.425854234507E+03   -0.20075E-03   -0.22497E-03  6336   0.174E-02 0.538E-03
CGA:   9    -0.425854667154E+03   -0.43265E-03   -0.42851E-03  6336   0.134E-02 0.270E-04
CGA:  10    -0.425854739519E+03   -0.72365E-04   -0.55128E-04  6336   0.929E-03-0.405E-03
CGA:  11    -0.425854786725E+03   -0.47206E-04   -0.14625E-03  6336   0.528E-02-0.696E-03
CGA:  12    -0.425854865310E+03   -0.78585E-04   -0.10775E-03  6336   0.301E-03 0.451E-03
CGA:  13    -0.425854866431E+03   -0.11213E-05   -0.10342E-04  6336   0.224E-03 0.169E-03
CGA:  14    -0.425854905911E+03   -0.39480E-04    0.16828E-03  6336   0.409E-03 0.381E-04
CGA:  15    -0.425854942207E+03   -0.36296E-04   -0.36861E-04  6336   0.146E-03 0.885E-04
CGA:  16    -0.425854943495E+03   -0.12872E-05   -0.47801E-05  6336   0.372E-04 0.618E-04
CGA:  17    -0.425854957334E+03   -0.13840E-04   -0.14102E-04  6336   0.355E-03-0.161E-05
CGA:  18    -0.425854973125E+03   -0.15791E-04   -0.11781E-04  6336   0.136E-03-0.728E-04
CGA:  19    -0.425854979134E+03   -0.60088E-05   -0.24028E-05  6336   0.554E-04-0.565E-04
  12 F= -.42585498E+03 E0= -.42584413E+03  d E =0.287996E-04  mag=    10.0000
       N       E                     dE             d eps       ncg     rms          ort
SDA:   1    -0.424184141312E+03    0.16708E+01    0.00000E+00  6336   0.653E+01 0.000E+00
CGA:   2    -0.424485372546E+03   -0.30123E+00   -0.31921E+00  6336   0.844E+01-0.188E+00
CGA:   3    -0.425550178251E+03   -0.10648E+01   -0.10616E+01  6336   0.225E+01 0.573E-01
CGA:   4    -0.425642562976E+03   -0.92385E-01   -0.90707E-01  6336   0.109E+01 0.301E-01
CGA:   5    -0.425803581699E+03   -0.16102E+00   -0.16062E+00  6336   0.672E+00 0.531E-02
CGA:   6    -0.425821517465E+03   -0.17936E-01   -0.19614E-01  6336   0.136E+00-0.593E-01
CGA:   7    -0.425834432489E+03   -0.12915E-01   -0.12899E-01  6336   0.191E+00 0.386E-03
CGA:   8    -0.425842663979E+03   -0.82315E-02   -0.82512E-02  6336   0.227E-01 0.368E-02
CGA:   9    -0.425844697711E+03   -0.20337E-02   -0.20449E-02  6336   0.424E-01-0.180E-02
CGA:  10    -0.425847395857E+03   -0.26981E-02   -0.26969E-02  6336   0.116E-01-0.127E-03
CGA:  11    -0.425847731633E+03   -0.33578E-03   -0.38718E-03  6336   0.370E-02 0.115E-02
CGA:  12    -0.425848787294E+03   -0.10557E-02   -0.15523E-02  6336   0.386E-02-0.164E-02
CGA:  13    -0.425848872362E+03   -0.85068E-04   -0.81327E-04  6336   0.276E-02-0.795E-04
CGA:  14    -0.425849353567E+03   -0.48120E-03   -0.49890E-03  6336   0.572E-02-0.189E-03
CGA:  15    -0.425849536276E+03   -0.18271E-03   -0.16329E-03  6336   0.640E-03-0.323E-03
CGA:  16    -0.425849629787E+03   -0.93511E-04   -0.12827E-03  6336   0.496E-02-0.294E-03
CGA:  17    -0.425849692438E+03   -0.62651E-04   -0.63636E-04  6336   0.373E-02 0.160E-04
CGA:  18    -0.425849735143E+03   -0.42705E-04   -0.55369E-04  6336   0.664E-03 0.155E-03
CGA:  19    -0.425849739938E+03   -0.47946E-05   -0.11137E-04  6336   0.325E-03 0.828E-04
CGA:  20    -0.425849748603E+03   -0.86656E-05   -0.12431E-04  6336   0.628E-03 0.700E-04
CGA:  21    -0.425849804216E+03   -0.55613E-04   -0.55085E-04  6336   0.170E-02-0.445E-04
CGA:  22    -0.425849854143E+03   -0.49927E-04   -0.34906E-04  6336   0.626E-03-0.251E-03
CGA:  23    -0.425849872523E+03   -0.18379E-04   -0.85170E-05  6336   0.161E-03-0.157E-03
CGA:  24    -0.425849881000E+03   -0.84775E-05   -0.10094E-04  6336   0.125E-02-0.271E-03
CGA:  25    -0.425849895555E+03   -0.14555E-04   -0.26505E-04  6336   0.131E-03 0.212E-03
CGA:  26    -0.425849894856E+03    0.69958E-06   -0.39165E-05  6336   0.110E-03 0.931E-04
CGA:  27    -0.425849900309E+03   -0.54531E-05   -0.30040E-04  6336   0.172E-02-0.123E-03
CGA:  28    -0.425849925672E+03   -0.25363E-04   -0.35350E-04  6336   0.494E-04 0.163E-03
CGA:  29    -0.425849924333E+03    0.13384E-05   -0.75509E-06  6336   0.239E-04 0.319E-04
  13 F= -.42584992E+03 E0= -.42583902E+03  d E =0.505480E-02  mag=    10.0000
       N       E                     dE             d eps       ncg     rms          ort
SDA:   1    -0.421065813743E+03    0.47841E+01    0.00000E+00  6336   0.147E+02 0.000E+00
CGA:   2    -0.422080833089E+03   -0.10150E+01   -0.10159E+01  6336   0.298E+02 0.136E-01
CGA:   3    -0.425125584332E+03   -0.30448E+01   -0.30561E+01  6336   0.372E+01-0.286E+00
CGA:   4    -0.425371823967E+03   -0.24624E+00   -0.24889E+00  6336   0.423E+01 0.139E+00
CGA:   5    -0.425742913280E+03   -0.37109E+00   -0.37188E+00  6336   0.464E+00-0.496E-01
CGA:   6    -0.425773560114E+03   -0.30647E-01   -0.30629E-01  6336   0.490E+00 0.245E-02
CGA:   7    -0.425817731280E+03   -0.44171E-01   -0.44162E-01  6336   0.117E+00-0.169E-02
CGA:   8    -0.425822258518E+03   -0.45272E-02   -0.45247E-02  6336   0.750E-01 0.173E-02
CGA:   9    -0.425830853480E+03   -0.85950E-02   -0.85197E-02  6336   0.881E-01 0.186E-02
CGA:  10    -0.425834741429E+03   -0.38879E-02   -0.38210E-02  6336   0.130E-01-0.403E-02
CGA:  11    -0.425836059529E+03   -0.13181E-02   -0.12833E-02  6336   0.178E-01 0.116E-02
CGA:  12    -0.425837902136E+03   -0.18426E-02   -0.18904E-02  6336   0.150E-01-0.225E-02
CGA:  13    -0.425838526268E+03   -0.62413E-03   -0.62533E-03  6336   0.457E-02 0.973E-05
CGA:  14    -0.425838825933E+03   -0.29967E-03   -0.30000E-03  6336   0.699E-02 0.259E-04
CGA:  15    -0.425839680668E+03   -0.85473E-03   -0.95078E-03  6336   0.731E-02-0.158E-02
CGA:  16    -0.425839898180E+03   -0.21751E-03   -0.19729E-03  6336   0.110E-02-0.527E-03
CGA:  17    -0.425840084679E+03   -0.18650E-03   -0.15712E-03  6336   0.173E-02 0.371E-03
CGA:  18    -0.425840260409E+03   -0.17573E-03   -0.17233E-03  6336   0.233E-02-0.745E-03
CGA:  19    -0.425840327023E+03   -0.66615E-04   -0.64280E-04  6336   0.107E-02-0.791E-04
CGA:  20    -0.425840333505E+03   -0.64821E-05   -0.19576E-04  6336   0.323E-03 0.224E-03
  14 F= -.42584033E+03 E0= -.42582940E+03  d E =0.959083E-02  mag=    10.0000
       N       E                     dE             d eps       ncg     rms          ort
SDA:   1    -0.423891638073E+03    0.19487E+01    0.00000E+00  6336   0.488E+01 0.000E+00
CGA:   2    -0.425042550332E+03   -0.11509E+01   -0.11804E+01  6336   0.146E+02-0.166E+00
CGA:   3    -0.425509641187E+03   -0.46709E+00   -0.54470E+00  6336   0.242E+01-0.155E+01
CGA:   4    -0.425608857389E+03   -0.99216E-01   -0.10418E+00  6336   0.219E+01-0.409E-01
CGA:   5    -0.425781666479E+03   -0.17281E+00   -0.17289E+00  6336   0.608E+00-0.715E-02
CGA:   6    -0.425807517505E+03   -0.25851E-01   -0.26624E-01  6336   0.213E+00-0.250E-01
CGA:   7    -0.425829654430E+03   -0.22137E-01   -0.22080E-01  6336   0.158E+00 0.178E-02
CGA:   8    -0.425837093282E+03   -0.74389E-02   -0.73651E-02  6336   0.384E-01-0.211E-03
CGA:   9    -0.425840966757E+03   -0.38735E-02   -0.39428E-02  6336   0.572E-01-0.270E-02
CGA:  10    -0.425843694437E+03   -0.27277E-02   -0.27760E-02  6336   0.173E-01 0.204E-02
CGA:  11    -0.425844297359E+03   -0.60292E-03   -0.63413E-03  6336   0.768E-02 0.808E-03
CGA:  12    -0.425845688326E+03   -0.13910E-02   -0.15372E-02  6336   0.117E-01-0.126E-02
CGA:  13    -0.425845913224E+03   -0.22490E-03   -0.30046E-03  6336   0.231E-02 0.152E-02
CGA:  14    -0.425845998585E+03   -0.85361E-04   -0.11259E-03  6336   0.283E-02 0.797E-03
CGA:  15    -0.425846678956E+03   -0.68037E-03   -0.65534E-03  6336   0.322E-02 0.256E-03
CGA:  16    -0.425846860659E+03   -0.18170E-03   -0.13761E-03  6336   0.149E-02-0.112E-02
CGA:  17    -0.425846985755E+03   -0.12510E-03   -0.13417E-03  6336   0.337E-02-0.156E-03
CGA:  18    -0.425847076158E+03   -0.90403E-04   -0.10826E-03  6336   0.707E-03 0.377E-03
CGA:  19    -0.425847218750E+03   -0.14259E-03   -0.14792E-03  6336   0.267E-02-0.521E-04
CGA:  20    -0.425847309211E+03   -0.90461E-04   -0.88374E-04  6336   0.587E-03-0.509E-04
CGA:  21    -0.425847324681E+03   -0.15470E-04   -0.18120E-04  6336   0.368E-03 0.507E-04
CGA:  22    -0.425847358479E+03   -0.33798E-04   -0.33214E-04  6336   0.860E-03 0.161E-03
CGA:  23    -0.425847435391E+03   -0.76912E-04   -0.79152E-04  6336   0.272E-03 0.139E-03
CGA:  24    -0.425847463261E+03   -0.27870E-04   -0.46147E-04  6336   0.165E-02-0.277E-03
CGA:  25    -0.425847483815E+03   -0.20554E-04   -0.36660E-04  6336   0.128E-03 0.268E-03
CGA:  26    -0.425847484440E+03   -0.62569E-06   -0.45453E-05  6336   0.116E-03 0.802E-04
CGA:  27    -0.425847505229E+03   -0.20789E-04    0.25998E-04  6336   0.162E-03 0.398E-04
CGA:  28    -0.425847534231E+03   -0.29003E-04   -0.25477E-04  6336   0.646E-04 0.868E-04
CGA:  29    -0.425847539518E+03   -0.52861E-05   -0.66981E-05  6336   0.337E-03-0.575E-04
  15 F= -.42584754E+03 E0= -.42583658E+03  d E =-.720601E-02  mag=    10.0000
       N       E                     dE             d eps       ncg     rms          ort
SDA:   1    -0.424912773159E+03    0.93476E+00    0.00000E+00  6336   0.362E+01 0.000E+00
CGA:   2    -0.425103639161E+03   -0.19087E+00   -0.19465E+00  6336   0.505E+01-0.167E-01
CGA:   3    -0.425616359541E+03   -0.51272E+00   -0.51080E+00  6336   0.271E+01 0.562E-01
CGA:   4    -0.425713423082E+03   -0.97064E-01   -0.95247E-01  6336   0.570E+00 0.737E-01
CGA:   5    -0.425828596939E+03   -0.11517E+00   -0.11578E+00  6336   0.385E+00-0.484E-02
CGA:   6    -0.425837889997E+03   -0.92931E-02   -0.98223E-02  6336   0.829E-01-0.192E-01
CGA:   7    -0.425851666772E+03   -0.13777E-01   -0.13951E-01  6336   0.490E-01-0.180E-02
CGA:   8    -0.425852960973E+03   -0.12942E-02   -0.13671E-02  6336   0.121E-01 0.159E-02
CGA:   9    -0.425854917994E+03   -0.19570E-02   -0.18646E-02  6336   0.205E-01 0.133E-02
CGA:  10    -0.425855988847E+03   -0.10709E-02   -0.10147E-02  6336   0.409E-02-0.173E-02
CGA:  11    -0.425856243574E+03   -0.25473E-03   -0.26009E-03  6336   0.402E-02 0.422E-03
CGA:  12    -0.425856565198E+03   -0.32162E-03   -0.32580E-03  6336   0.383E-02 0.511E-03
CGA:  13    -0.425856853187E+03   -0.28799E-03   -0.27955E-03  6336   0.300E-02-0.527E-03
CGA:  14    -0.425856980844E+03   -0.12766E-03   -0.13621E-03  6336   0.728E-03 0.300E-03
CGA:  15    -0.425857041169E+03   -0.60325E-04   -0.61174E-04  6336   0.754E-03 0.337E-03
CGA:  16    -0.425857115780E+03   -0.74611E-04   -0.28393E-03  6336   0.969E-02-0.118E-02
CGA:  17    -0.425857269545E+03   -0.15377E-03   -0.19555E-03  6336   0.439E-03 0.719E-03
CGA:  18    -0.425857266180E+03    0.33655E-05   -0.11332E-04  6336   0.237E-03 0.242E-03
CGA:  19    -0.425857305163E+03   -0.38984E-04   -0.45704E-04  6336   0.123E-02-0.607E-04
CGA:  20    -0.425857324544E+03   -0.19380E-04   -0.23712E-04  6336   0.321E-03 0.709E-04
CGA:  21    -0.425857324825E+03   -0.28140E-06   -0.47783E-05  6336   0.816E-04 0.643E-04
  16 F= -.42585732E+03 E0= -.42584639E+03  d E =-.978531E-02  mag=    10.0000
       N       E                     dE             d eps       ncg     rms          ort
SDA:   1    -0.424642029829E+03    0.12153E+01    0.00000E+00  6336   0.350E+01 0.000E+00
CGA:   2    -0.424949491100E+03   -0.30746E+00   -0.30914E+00  6336   0.953E+01-0.931E-01
CGA:   3    -0.425646395003E+03   -0.69690E+00   -0.69664E+00  6336   0.138E+01-0.522E-01
CGA:   4    -0.425709339217E+03   -0.62944E-01   -0.63337E-01  6336   0.930E+00-0.288E-01
CGA:   5    -0.425824786249E+03   -0.11545E+00   -0.11528E+00  6336   0.244E+00 0.337E-02
CGA:   6    -0.425831792423E+03   -0.70062E-02   -0.69206E-02  6336   0.828E-01 0.939E-02
CGA:   7    -0.425842777417E+03   -0.10985E-01   -0.10843E-01  6336   0.113E+00 0.276E-02
CGA:   8    -0.425847238733E+03   -0.44613E-02   -0.44056E-02  6336   0.130E-01-0.383E-02
CGA:   9    -0.425849085342E+03   -0.18466E-02   -0.17729E-02  6336   0.260E-01 0.112E-02
CGA:  10    -0.425850243532E+03   -0.11582E-02   -0.11398E-02  6336   0.635E-02-0.751E-03
CGA:  11    -0.425850591179E+03   -0.34765E-03   -0.32244E-03  6336   0.515E-02-0.104E-02
CGA:  12    -0.425851033854E+03   -0.44267E-03   -0.43522E-03  6336   0.217E-02 0.300E-03
CGA:  13    -0.425851201095E+03   -0.16724E-03   -0.16345E-03  6336   0.393E-02-0.580E-03
CGA:  14    -0.425851481145E+03   -0.28005E-03   -0.30653E-03  6336   0.315E-02-0.919E-03
CGA:  15    -0.425851525790E+03   -0.44645E-04   -0.58065E-04  6336   0.705E-03 0.246E-03
CGA:  16    -0.425851543366E+03   -0.17575E-04   -0.26166E-04  6336   0.831E-03 0.205E-03
CGA:  17    -0.425851673435E+03   -0.13007E-03   -0.12143E-03  6336   0.127E-02 0.220E-03
CGA:  18    -0.425851756499E+03   -0.83065E-04   -0.63885E-04  6336   0.454E-03-0.539E-03
CGA:  19    -0.425851774772E+03   -0.18272E-04   -0.15734E-04  6336   0.441E-03-0.182E-03
CGA:  20    -0.425851775842E+03   -0.10707E-05   -0.69527E-05  6336   0.208E-03 0.124E-03
  17 F= -.42585178E+03 E0= -.42584082E+03  d E =0.554898E-02  mag=    10.0000
       N       E                     dE             d eps       ncg     rms          ort
SDA:   1    -0.425032970153E+03    0.81880E+00    0.00000E+00  6336   0.321E+01 0.000E+00
CGA:   2    -0.425229678433E+03   -0.19671E+00   -0.19668E+00  6336   0.408E+01-0.161E-02
CGA:   3    -0.425619878690E+03   -0.39020E+00   -0.38903E+00  6336   0.230E+01 0.328E-01
CGA:   4    -0.425697829239E+03   -0.77951E-01   -0.75529E-01  6336   0.844E+00 0.142E-01
CGA:   5    -0.425828849319E+03   -0.13102E+00   -0.12989E+00  6336   0.154E+00 0.138E-01
CGA:   6    -0.425838173548E+03   -0.93242E-02   -0.92294E-02  6336   0.142E+00-0.998E-02
CGA:   7    -0.425851331409E+03   -0.13158E-01   -0.12985E-01  6336   0.201E-01 0.645E-02
CGA:   8    -0.425852261963E+03   -0.93055E-03   -0.95213E-03  6336   0.210E-01 0.890E-03
CGA:   9    -0.425854985282E+03   -0.27233E-02   -0.27580E-02  6336   0.957E-02-0.653E-03
CGA:  10    -0.425855352622E+03   -0.36734E-03   -0.33289E-03  6336   0.353E-02-0.982E-03
CGA:  11    -0.425855942126E+03   -0.58950E-03   -0.55855E-03  6336   0.420E-02 0.292E-03
CGA:  12    -0.425856072305E+03   -0.13018E-03   -0.13825E-03  6336   0.103E-02 0.180E-03
CGA:  13    -0.425856256094E+03   -0.18379E-03   -0.17430E-03  6336   0.225E-02 0.106E-03
CGA:  14    -0.425856374126E+03   -0.11803E-03   -0.11854E-03  6336   0.735E-03 0.131E-04
CGA:  15    -0.425856418625E+03   -0.44499E-04   -0.45712E-04  6336   0.731E-03 0.728E-04
CGA:  16    -0.425856504067E+03   -0.85442E-04   -0.87206E-04  6336   0.115E-02-0.579E-04
CGA:  17    -0.425856558003E+03   -0.53936E-04   -0.53265E-04  6336   0.236E-03-0.290E-04
CGA:  18    -0.425856573157E+03   -0.15154E-04   -0.15545E-04  6336   0.306E-03 0.398E-04
CGA:  19    -0.425856606655E+03   -0.33497E-04   -0.32606E-04  6336   0.212E-03 0.596E-04
CGA:  20    -0.425856621194E+03   -0.14540E-04   -0.14205E-04  6336   0.191E-03-0.166E-04
CGA:  21    -0.425856631923E+03   -0.10728E-04   -0.11317E-04  6336   0.621E-04 0.475E-04
CGA:  22    -0.425856635862E+03   -0.39390E-05   -0.45225E-05  6336   0.601E-04 0.331E-04
  18 F= -.42585664E+03 E0= -.42584575E+03  d E =-.486002E-02  mag=    10.0000
       N       E                     dE             d eps       ncg     rms          ort
SDA:   1    -0.423373796612E+03    0.24828E+01    0.00000E+00  6336   0.739E+01 0.000E+00
CGA:   2    -0.424150766132E+03   -0.77697E+00   -0.79527E+00  6336   0.180E+02-0.426E+00
CGA:   3    -0.425314184587E+03   -0.11634E+01   -0.11647E+01  6336   0.333E+01 0.395E-01
CGA:   4    -0.425485724688E+03   -0.17154E+00   -0.16471E+00  6336   0.324E+01-0.132E-01
CGA:   5    -0.425770267139E+03   -0.28454E+00   -0.28466E+00  6336   0.729E+00 0.104E-02
CGA:   6    -0.425795443833E+03   -0.25177E-01   -0.25462E-01  6336   0.295E+00-0.215E-01
CGA:   7    -0.425834640777E+03   -0.39197E-01   -0.39601E-01  6336   0.254E+00-0.652E-02
CGA:   8    -0.425842168623E+03   -0.75278E-02   -0.76108E-02  6336   0.365E-01 0.142E-01
CGA:   9    -0.425845444607E+03   -0.32760E-02   -0.32483E-02  6336   0.738E-01 0.281E-02
CGA:  10    -0.425851306894E+03   -0.58623E-02   -0.58579E-02  6336   0.850E-02-0.387E-02
CGA:  11    -0.425851837364E+03   -0.53047E-03   -0.53339E-03  6336   0.120E-01 0.343E-03
CGA:  12    -0.425853312444E+03   -0.14751E-02   -0.14294E-02  6336   0.292E-02 0.114E-02
CGA:  13    -0.425853578232E+03   -0.26579E-03   -0.36771E-03  6336   0.142E-01-0.265E-02
CGA:  14    -0.425853824624E+03   -0.24639E-03   -0.34506E-03  6336   0.117E-02 0.190E-02
CGA:  15    -0.425853869757E+03   -0.45133E-04   -0.61571E-04  6336   0.138E-02 0.561E-03
CGA:  16    -0.425854285517E+03   -0.41576E-03   -0.53005E-03  6336   0.124E-02-0.617E-03
CGA:  17    -0.425854335075E+03   -0.49558E-04   -0.41313E-04  6336   0.205E-02-0.364E-03
CGA:  18    -0.425854482224E+03   -0.14715E-03   -0.14739E-03  6336   0.134E-02-0.140E-04
CGA:  19    -0.425854501315E+03   -0.19091E-04   -0.43945E-04  6336   0.634E-03 0.495E-03
CGA:  20    -0.425854562523E+03   -0.61208E-04   -0.63891E-04  6336   0.947E-03 0.372E-03
CGA:  21    -0.425854638464E+03   -0.75941E-04   -0.77231E-04  6336   0.379E-02-0.114E-02
CGA:  22    -0.425854678811E+03   -0.40347E-04   -0.75659E-04  6336   0.336E-03 0.609E-03
CGA:  23    -0.425854674751E+03    0.40596E-05   -0.79069E-05  6336   0.207E-03 0.209E-03
CGA:  24    -0.425854714027E+03   -0.39276E-04   -0.44726E-04  6336   0.155E-02-0.392E-04
CGA:  25    -0.425854758855E+03   -0.44827E-04   -0.46535E-04  6336   0.329E-03 0.366E-04
CGA:  26    -0.425854761452E+03   -0.25970E-05   -0.49582E-05  6336   0.454E-04 0.351E-04
  19 F= -.42585476E+03 E0= -.42584396E+03  d E =0.187441E-02  mag=    10.0000
       N       E                     dE             d eps       ncg     rms          ort
SDA:   1    -0.422120085719E+03    0.37347E+01    0.00000E+00  6336   0.958E+01 0.000E+00
CGA:   2    -0.423452712117E+03   -0.13326E+01   -0.13542E+01  6336   0.323E+02 0.812E-01
CGA:   3    -0.425239137960E+03   -0.17864E+01   -0.17501E+01  6336   0.615E+01-0.470E+00
CGA:   4    -0.425435793859E+03   -0.19666E+00   -0.22045E+00  6336   0.283E+01-0.575E+00
CGA:   5    -0.425744878311E+03   -0.30908E+00   -0.31181E+00  6336   0.123E+01-0.493E-01
CGA:   6    -0.425779239549E+03   -0.34361E-01   -0.34836E-01  6336   0.311E+00-0.807E-02
CGA:   7    -0.425814624160E+03   -0.35385E-01   -0.35327E-01  6336   0.480E+00 0.127E-02
CGA:   8    -0.425834486445E+03   -0.19862E-01   -0.20006E-01  6336   0.523E-01-0.578E-02
CGA:   9    -0.425837932282E+03   -0.34458E-02   -0.34544E-02  6336   0.788E-01 0.140E-02
CGA:  10    -0.425844381872E+03   -0.64496E-02   -0.64440E-02  6336   0.326E-01 0.748E-03
CGA:  11    -0.425845683914E+03   -0.13020E-02   -0.12463E-02  6336   0.992E-02-0.201E-02
CGA:  12    -0.425846670139E+03   -0.98622E-03   -0.97563E-03  6336   0.167E-01 0.301E-03
CGA:  13    -0.425847540511E+03   -0.87037E-03   -0.87213E-03  6336   0.618E-02 0.101E-03
CGA:  14    -0.425847951703E+03   -0.41119E-03   -0.40318E-03  6336   0.674E-02-0.109E-02
CGA:  15    -0.425848426146E+03   -0.47444E-03   -0.47546E-03  6336   0.361E-02-0.839E-04
CGA:  16    -0.425848553343E+03   -0.12720E-03   -0.13499E-03  6336   0.156E-02 0.215E-03
CGA:  17    -0.425848804688E+03   -0.25135E-03   -0.36966E-03  6336   0.963E-02-0.777E-03
CGA:  18    -0.425848920891E+03   -0.11620E-03   -0.10383E-03  6336   0.464E-02-0.214E-03
CGA:  19    -0.425848975638E+03   -0.54747E-04   -0.59197E-04  6336   0.801E-03 0.577E-04
CGA:  20    -0.425848984069E+03   -0.84313E-05   -0.14456E-04  6336   0.597E-03 0.108E-03
CGA:  21    -0.425849002277E+03   -0.18207E-04   -0.24334E-04  6336   0.120E-02 0.179E-03
CGA:  22    -0.425849079702E+03   -0.77426E-04   -0.79414E-04  6336   0.182E-02 0.114E-03
CGA:  23    -0.425849148126E+03   -0.68424E-04   -0.55067E-04  6336   0.487E-03-0.339E-03
CGA:  24    -0.425849165727E+03   -0.17600E-04   -0.94033E-05  6336   0.225E-03-0.200E-03
CGA:  25    -0.425849183394E+03   -0.17668E-04    0.81588E-04  6336   0.459E-03 0.336E-04
CGA:  26    -0.425849206758E+03   -0.23364E-04   -0.24891E-04  6336   0.191E-03 0.936E-04
CGA:  27    -0.425849217953E+03   -0.11194E-04   -0.12035E-04  6336   0.927E-04 0.824E-04
CGA:  28    -0.425849237851E+03   -0.19898E-04    0.19788E-04  6336   0.663E-04 0.817E-04
CGA:  29    -0.425849238104E+03   -0.25332E-06   -0.16350E-05  6336   0.421E-04 0.368E-04
  20 F= -.42584924E+03 E0= -.42583845E+03  d E =0.552335E-02  mag=    10.0000
       N       E                     dE             d eps       ncg     rms          ort
SDA:   1    -0.419650533288E+03    0.61987E+01    0.00000E+00  6336   0.166E+02 0.000E+00
CGA:   2    -0.422311142833E+03   -0.26606E+01   -0.26523E+01  6336   0.398E+02 0.837E+00
CGA:   3    -0.424399714684E+03   -0.20886E+01   -0.20872E+01  6336   0.154E+02-0.189E+01
CGA:   4    -0.424846654445E+03   -0.44694E+00   -0.52657E+00  6336   0.807E+01-0.138E+01
CGA:   5    -0.425451944013E+03   -0.60529E+00   -0.60183E+00  6336   0.466E+01 0.155E+00
CGA:   6    -0.425602778182E+03   -0.15083E+00   -0.16178E+00  6336   0.200E+01-0.232E+00
CGA:   7    -0.425670546728E+03   -0.67769E-01   -0.69159E-01  6336   0.846E+00-0.445E-01
CGA:   8    -0.425728503911E+03   -0.57957E-01   -0.57824E-01  6336   0.675E+00 0.204E-01
CGA:   9    -0.425754550312E+03   -0.26046E-01   -0.26078E-01  6336   0.370E+00-0.522E-02
CGA:  10    -0.425771394598E+03   -0.16844E-01   -0.16698E-01  6336   0.148E+00-0.116E-01
CGA:  11    -0.425780576675E+03   -0.91821E-02   -0.91591E-02  6336   0.959E-01 0.953E-02
CGA:  12    -0.425785235034E+03   -0.46584E-02   -0.46424E-02  6336   0.811E-01-0.128E-02
CGA:  13    -0.425790274669E+03   -0.50396E-02   -0.50521E-02  6336   0.477E-01-0.573E-02
CGA:  14    -0.425792325805E+03   -0.20511E-02   -0.21119E-02  6336   0.135E-01 0.463E-02
CGA:  15    -0.425793248168E+03   -0.92236E-03   -0.92327E-03  6336   0.239E-01-0.457E-03
CGA:  16    -0.425795300669E+03   -0.20525E-02   -0.21526E-02  6336   0.216E-01-0.308E-02
CGA:  17    -0.425795783639E+03   -0.48297E-03   -0.51767E-03  6336   0.440E-02 0.109E-02
CGA:  18    -0.425795945101E+03   -0.16146E-03   -0.18182E-03  6336   0.520E-02 0.966E-03
CGA:  19    -0.425796735742E+03   -0.79064E-03   -0.74830E-03  6336   0.964E-02 0.714E-03
CGA:  20    -0.425797240998E+03   -0.50526E-03   -0.46954E-03  6336   0.288E-02-0.189E-02
CGA:  21    -0.425797313651E+03   -0.72652E-04   -0.68572E-04  6336   0.128E-02-0.141E-03
CGA:  22    -0.425797377047E+03   -0.63397E-04   -0.66226E-04  6336   0.137E-02 0.563E-03
CGA:  23    -0.425797504531E+03   -0.12748E-03   -0.12732E-03  6336   0.260E-02 0.314E-04
CGA:  24    -0.425797702956E+03   -0.19843E-03   -0.22902E-03  6336   0.166E-02-0.116E-02
CGA:  25    -0.425797707143E+03   -0.41863E-05   -0.12718E-04  6336   0.834E-03 0.179E-03
CGA:  26    -0.425797706961E+03    0.18146E-06   -0.13456E-04  6336   0.578E-03 0.309E-03
CGA:  27    -0.425797710422E+03   -0.34603E-05   -0.16731E-04  6336   0.775E-03 0.375E-03
CGA:  28    -0.425797565110E+03    0.14531E-03   -0.14415E-03  6336   0.174E-01-0.221E-02
CGA:  29    -0.425797867485E+03   -0.30237E-03   -0.35690E-03  6336   0.505E-03 0.156E-02
CGA:  30    -0.425797864317E+03    0.31682E-05   -0.82607E-05  6336   0.166E-03 0.258E-03
  21 F= -.42579786E+03 E0= -.42578737E+03  d E =0.513738E-01  mag=    10.0000
       N       E                     dE             d eps       ncg     rms          ort
SDA:   1    -0.422533125154E+03    0.32647E+01    0.00000E+00  6336   0.971E+01 0.000E+00
CGA:   2    -0.423542176980E+03   -0.10091E+01   -0.10972E+01  6336   0.296E+02-0.130E+01
CGA:   3    -0.425030999779E+03   -0.14888E+01   -0.14888E+01  6336   0.631E+01-0.908E-01
CGA:   4    -0.425269332673E+03   -0.23833E+00   -0.25471E+00  6336   0.456E+01 0.220E-01
CGA:   5    -0.425724737250E+03   -0.45540E+00   -0.45487E+00  6336   0.105E+01 0.168E-01
CGA:   6    -0.425760778562E+03   -0.36041E-01   -0.35161E-01  6336   0.394E+00 0.374E-01
CGA:   7    -0.425812126136E+03   -0.51348E-01   -0.51010E-01  6336   0.569E+00 0.459E-02
CGA:   8    -0.425831659312E+03   -0.19533E-01   -0.19074E-01  6336   0.583E-01-0.123E-01
CGA:   9    -0.425837082574E+03   -0.54233E-02   -0.55499E-02  6336   0.142E+00-0.366E-02
CGA:  10    -0.425845045067E+03   -0.79625E-02   -0.79640E-02  6336   0.186E-01 0.972E-03
CGA:  11    -0.425845713884E+03   -0.66882E-03   -0.70222E-03  6336   0.124E-01 0.142E-02
CGA:  12    -0.425848007050E+03   -0.22932E-02   -0.21781E-02  6336   0.113E-01 0.112E-02
CGA:  13    -0.425848497149E+03   -0.49010E-03   -0.43814E-03  6336   0.378E-02-0.178E-02
CGA:  14    -0.425848859121E+03   -0.36197E-03   -0.44972E-03  6336   0.150E-01-0.115E-02
CGA:  15    -0.425849262928E+03   -0.40381E-03   -0.41609E-03  6336   0.386E-02 0.440E-03
CGA:  16    -0.425849333149E+03   -0.70222E-04   -0.85454E-04  6336   0.136E-02 0.339E-03
CGA:  17    -0.425849437373E+03   -0.10422E-03   -0.10343E-03  6336   0.332E-02 0.143E-03
CGA:  18    -0.425849723475E+03   -0.28610E-03   -0.30425E-03  6336   0.376E-02-0.994E-03
CGA:  19    -0.425849781264E+03   -0.57788E-04   -0.45012E-04  6336   0.796E-03-0.276E-03
CGA:  20    -0.425849793854E+03   -0.12591E-04   -0.12382E-04  6336   0.434E-03-0.808E-05
CGA:  21    -0.425849809981E+03   -0.16127E-04   -0.18215E-04  6336   0.108E-02 0.113E-03
CGA:  22    -0.425849885081E+03   -0.75100E-04   -0.76236E-04  6336   0.630E-03 0.318E-03
CGA:  23    -0.425849917155E+03   -0.32074E-04   -0.25594E-04  6336   0.317E-03-0.233E-03
CGA:  24    -0.425849941407E+03   -0.24252E-04    0.13302E-03  6336   0.253E-03-0.584E-04
CGA:  25    -0.425849940043E+03    0.13644E-05   -0.37962E-05  6336   0.149E-03 0.129E-03
  22 F= -.42584994E+03 E0= -.42583927E+03  d E =-.520757E-01  mag=    10.0000
       N       E                     dE             d eps       ncg     rms          ort
SDA:   1    -0.425510310241E+03    0.33963E+00    0.00000E+00  6336   0.975E+00 0.000E+00
CGA:   2    -0.425607851020E+03   -0.97541E-01   -0.95230E-01  6336   0.239E+01 0.487E-01
CGA:   3    -0.425782286627E+03   -0.17444E+00   -0.17395E+00  6336   0.949E+00 0.255E-01
CGA:   4    -0.425812070441E+03   -0.29784E-01   -0.30019E-01  6336   0.185E+00 0.149E-01
CGA:   5    -0.425841264650E+03   -0.29194E-01   -0.29017E-01  6336   0.173E+00 0.180E-02
CGA:   6    -0.425847350440E+03   -0.60858E-02   -0.60370E-02  6336   0.242E-01-0.354E-02
CGA:   7    -0.425850537100E+03   -0.31867E-02   -0.30210E-02  6336   0.278E-01 0.239E-02
CGA:   8    -0.425851956134E+03   -0.14190E-02   -0.13713E-02  6336   0.112E-01-0.303E-02
CGA:   9    -0.425852399086E+03   -0.44295E-03   -0.43120E-03  6336   0.586E-02-0.664E-03
CGA:  10    -0.425852693315E+03   -0.29423E-03   -0.30196E-03  6336   0.208E-02 0.125E-02
CGA:  11    -0.425852785924E+03   -0.92610E-04   -0.55755E-03  6336   0.216E-01-0.291E-02
CGA:  12    -0.425853182334E+03   -0.39641E-03   -0.47104E-03  6336   0.817E-03 0.196E-02
CGA:  13    -0.425853185635E+03   -0.33007E-05   -0.19123E-04  6336   0.329E-03 0.353E-03
CGA:  14    -0.425853196792E+03   -0.11157E-04   -0.17817E-04  6336   0.463E-03 0.254E-03
CGA:  15    -0.425852126694E+03    0.10701E-02   -0.58928E-03  6336   0.624E-01-0.369E-02
CGA:  16    -0.425853333492E+03   -0.12068E-02   -0.12902E-02  6336   0.189E-02 0.479E-02
CGA:  17    -0.425853336650E+03   -0.31580E-05   -0.39442E-04  6336   0.142E-03 0.404E-03
  23 F= -.42585334E+03 E0= -.42584265E+03  d E =-.339661E-02  mag=    10.0000
       N       E                     dE             d eps       ncg     rms          ort
SDA:   1    -0.425798760177E+03    0.54573E-01    0.00000E+00  6336   0.138E+00 0.000E+00
CGA:   2    -0.425827097422E+03   -0.28337E-01   -0.28860E-01  6336   0.447E+00-0.502E-02
CGA:   3    -0.425843417459E+03   -0.16320E-01   -0.16403E-01  6336   0.658E-01 0.682E-02
CGA:   4    -0.425846196642E+03   -0.27792E-02   -0.28551E-02  6336   0.515E-01 0.275E-02
CGA:   5    -0.425851632439E+03   -0.54358E-02   -0.54378E-02  6336   0.110E-01-0.139E-02
CGA:   6    -0.425852220145E+03   -0.58771E-03   -0.51159E-03  6336   0.789E-02-0.168E-02
CGA:   7    -0.425852949479E+03   -0.72933E-03   -0.72117E-03  6336   0.104E-02 0.770E-03
CGA:   8    -0.425852980283E+03   -0.30804E-04   -0.49669E-04  6336   0.875E-03 0.344E-03
CGA:   9    -0.425853106628E+03   -0.12635E-03   -0.12446E-03  6336   0.632E-03 0.159E-03
CGA:  10    -0.425853163069E+03   -0.56441E-04   -0.40823E-04  6336   0.710E-03-0.386E-03
CGA:  11    -0.425853165904E+03   -0.28345E-05   -0.13720E-04  6336   0.111E-03 0.147E-03
  24 F= -.42585317E+03 E0= -.42584252E+03  d E =0.170746E-03  mag=    10.0000
       N       E                     dE             d eps       ncg     rms          ort
SDA:   1    -0.425471787028E+03    0.38138E+00    0.00000E+00  6336   0.106E+01 0.000E+00
CGA:   2    -0.425568923270E+03   -0.97136E-01   -0.97122E-01  6336   0.294E+01 0.114E-02
CGA:   3    -0.425786290378E+03   -0.21737E+00   -0.21699E+00  6336   0.524E+00-0.957E-02
CGA:   4    -0.425807586706E+03   -0.21296E-01   -0.21865E-01  6336   0.291E+00-0.169E-01
CGA:   5    -0.425840647997E+03   -0.33061E-01   -0.33181E-01  6336   0.879E-01-0.347E-02
CGA:   6    -0.425843428453E+03   -0.27805E-02   -0.28600E-02  6336   0.311E-01 0.434E-02
CGA:   7    -0.425846862996E+03   -0.34345E-02   -0.34103E-02  6336   0.511E-01 0.113E-02
CGA:   8    -0.425848982340E+03   -0.21193E-02   -0.20646E-02  6336   0.426E-02-0.204E-02
CGA:   9    -0.425849502287E+03   -0.51995E-03   -0.49346E-03  6336   0.707E-02 0.680E-03
CGA:  10    -0.425849926544E+03   -0.42426E-03   -0.41368E-03  6336   0.317E-02-0.369E-03
CGA:  11    -0.425850067188E+03   -0.14064E-03   -0.13275E-03  6336   0.131E-02-0.218E-03
CGA:  12    -0.425850127913E+03   -0.60724E-04   -0.66907E-04  6336   0.599E-03 0.239E-03
CGA:  13    -0.425850223121E+03   -0.95209E-04   -0.11474E-03  6336   0.258E-02-0.237E-03
CGA:  14    -0.425850274854E+03   -0.51733E-04   -0.49323E-04  6336   0.129E-02-0.475E-04
CGA:  15    -0.425850291073E+03   -0.16219E-04   -0.20726E-04  6336   0.293E-03 0.668E-04
CGA:  16    -0.425850295191E+03   -0.41181E-05   -0.76380E-05  6336   0.291E-03 0.663E-04
CGA:  17    -0.425850315977E+03   -0.20786E-04   -0.21961E-04  6336   0.751E-03 0.889E-04
CGA:  18    -0.425850371015E+03   -0.55038E-04   -0.53000E-04  6336   0.251E-03-0.102E-03
CGA:  19    -0.425850381024E+03   -0.10009E-04   -0.55184E-05  6336   0.843E-04-0.956E-04
CGA:  20    -0.425850391336E+03   -0.10312E-04    0.46578E-05  6336   0.846E-04 0.325E-04
CGA:  21    -0.425850393159E+03   -0.18232E-05   -0.38203E-05  6336   0.461E-04 0.522E-04
  25 F= -.42585039E+03 E0= -.42583977E+03  d E =0.277274E-02  mag=    10.0000
       N       E                     dE             d eps       ncg     rms          ort
SDA:   1    -0.424172665485E+03    0.16777E+01    0.00000E+00  6336   0.445E+01 0.000E+00
CGA:   2    -0.425023175587E+03   -0.85051E+00   -0.79234E+00  6336   0.873E+01 0.586E+00
CGA:   3    -0.425489218572E+03   -0.46604E+00   -0.40895E+00  6336   0.239E+01 0.457E+00
CGA:   4    -0.425612663196E+03   -0.12344E+00   -0.12231E+00  6336   0.177E+01 0.963E-02
CGA:   5    -0.425796085618E+03   -0.18342E+00   -0.18469E+00  6336   0.540E+00-0.390E-01
CGA:   6    -0.425816800496E+03   -0.20715E-01   -0.20519E-01  6336   0.168E+00 0.180E-01
CGA:   7    -0.425828858291E+03   -0.12058E-01   -0.12057E-01  6336   0.267E+00-0.482E-03
CGA:   8    -0.425844355182E+03   -0.15497E-01   -0.15430E-01  6336   0.295E-01-0.718E-02
CGA:   9    -0.425845830013E+03   -0.14748E-02   -0.15324E-02  6336   0.201E-01 0.354E-02
CGA:  10    -0.425849168926E+03   -0.33389E-02   -0.35613E-02  6336   0.313E-01-0.252E-02
CGA:  11    -0.425849883782E+03   -0.71486E-03   -0.71664E-03  6336   0.461E-02-0.208E-03
CGA:  12    -0.425850056981E+03   -0.17320E-03   -0.19587E-03  6336   0.467E-02 0.811E-03
CGA:  13    -0.425850648910E+03   -0.59193E-03   -0.57015E-03  6336   0.912E-02 0.631E-03
CGA:  14    -0.425851081989E+03   -0.43308E-03   -0.40263E-03  6336   0.189E-02-0.103E-02
CGA:  15    -0.425851197945E+03   -0.11596E-03   -0.11574E-03  6336   0.256E-02-0.352E-03
CGA:  16    -0.425851429825E+03   -0.23188E-03   -0.21558E-03  6336   0.120E-02 0.482E-03
CGA:  17    -0.425851503837E+03   -0.74012E-04   -0.67129E-04  6336   0.145E-02-0.291E-03
CGA:  18    -0.425851593827E+03   -0.89990E-04   -0.20152E-03  6336   0.287E-02-0.991E-03
CGA:  19    -0.425851622162E+03   -0.28335E-04   -0.63829E-04  6336   0.387E-03 0.671E-03
CGA:  20    -0.425851624564E+03   -0.24020E-05   -0.13536E-04  6336   0.326E-03 0.248E-03
CGA:  21    -0.425851679988E+03   -0.55424E-04    0.57918E-04  6336   0.375E-03 0.984E-04
CGA:  22    -0.425851715777E+03   -0.35789E-04   -0.35442E-04  6336   0.924E-04 0.208E-03
CGA:  23    -0.425851718720E+03   -0.29432E-05   -0.38766E-05  6336   0.882E-04 0.320E-04
CGA:  24    -0.425851736503E+03   -0.17783E-04   -0.14374E-04  6336   0.752E-04 0.660E-04
CGA:  25    -0.425851441042E+03    0.29546E-03   -0.16252E-03  6336   0.159E-01-0.837E-03
CGA:  26    -0.425851768267E+03   -0.32722E-03   -0.35791E-03  6336   0.252E-03 0.713E-03
CGA:  27    -0.425851765269E+03    0.29976E-05   -0.45078E-05  6336   0.259E-04 0.683E-04
  26 F= -.42585177E+03 E0= -.42584121E+03  d E =-.137211E-02  mag=    10.0000
       N       E                     dE             d eps       ncg     rms          ort
SDA:   1    -0.425300163682E+03    0.55160E+00    0.00000E+00  6336   0.142E+01 0.000E+00
CGA:   2    -0.425574412471E+03   -0.27425E+00   -0.27369E+00  6336   0.492E+01 0.713E-02
CGA:   3    -0.425743304648E+03   -0.16889E+00   -0.18261E+00  6336   0.718E+00-0.333E+00
CGA:   4    -0.425781709499E+03   -0.38405E-01   -0.37974E-01  6336   0.709E+00 0.329E-02
CGA:   5    -0.425834305631E+03   -0.52596E-01   -0.52808E-01  6336   0.116E+00 0.109E-02
CGA:   6    -0.425839974149E+03   -0.56685E-02   -0.56635E-02  6336   0.853E-01-0.492E-02
CGA:   7    -0.425847419635E+03   -0.74455E-02   -0.74482E-02  6336   0.618E-01 0.213E-04
CGA:   8    -0.425849259997E+03   -0.18404E-02   -0.18518E-02  6336   0.913E-02 0.166E-02
CGA:   9    -0.425850824448E+03   -0.15645E-02   -0.16941E-02  6336   0.245E-01-0.167E-02
CGA:  10    -0.425851492765E+03   -0.66832E-03   -0.68992E-03  6336   0.285E-02 0.415E-03
CGA:  11    -0.425851569197E+03   -0.76432E-04   -0.10576E-03  6336   0.237E-02 0.455E-03
CGA:  12    -0.425851918411E+03   -0.34921E-03   -0.34091E-03  6336   0.368E-02 0.340E-03
CGA:  13    -0.425852120545E+03   -0.20213E-03   -0.15821E-03  6336   0.809E-03-0.751E-03
CGA:  14    -0.425852185175E+03   -0.64630E-04   -0.65272E-04  6336   0.178E-02-0.169E-03
CGA:  15    -0.425852272996E+03   -0.87821E-04   -0.94046E-04  6336   0.614E-03 0.199E-03
CGA:  16    -0.425852321071E+03   -0.48075E-04   -0.40974E-04  6336   0.967E-03-0.200E-03
CGA:  17    -0.425852390944E+03   -0.69873E-04   -0.10439E-03  6336   0.122E-02-0.526E-03
CGA:  18    -0.425852397576E+03   -0.66317E-05   -0.28520E-04  6336   0.227E-03 0.299E-03
CGA:  19    -0.425852400703E+03   -0.31272E-05   -0.11219E-04  6336   0.259E-03 0.149E-03
CGA:  20    -0.425852448092E+03   -0.47389E-04    0.23636E-02  6336   0.802E-03-0.150E-03
CGA:  21    -0.425852448054E+03    0.38046E-07   -0.15960E-04  6336   0.109E-03 0.226E-03
  27 F= -.42585245E+03 E0= -.42584186E+03  d E =-.682785E-03  mag=    10.0000
       N       E                     dE             d eps       ncg     rms          ort
SDA:   1    -0.425151947112E+03    0.70050E+00    0.00000E+00  6336   0.183E+01 0.000E+00
CGA:   2    -0.425470363852E+03   -0.31842E+00   -0.32370E+00  6336   0.674E+01-0.539E-01
CGA:   3    -0.425716716627E+03   -0.24635E+00   -0.25382E+00  6336   0.109E+01-0.169E+00
CGA:   4    -0.425760901925E+03   -0.44185E-01   -0.43382E-01  6336   0.604E+00-0.157E-01
CGA:   5    -0.425835712800E+03   -0.74811E-01   -0.74395E-01  6336   0.622E-01 0.995E-02
CGA:   6    -0.425847546811E+03   -0.11834E-01   -0.11585E-01  6336   0.693E-01 0.252E-02
CGA:   7    -0.425849687920E+03   -0.21411E-02   -0.21022E-02  6336   0.137E-01-0.250E-02
CGA:   8    -0.425850984838E+03   -0.12969E-02   -0.13109E-02  6336   0.291E-01-0.126E-02
CGA:   9    -0.425852305079E+03   -0.13202E-02   -0.13629E-02  6336   0.226E-02 0.124E-02
CGA:  10    -0.425852466892E+03   -0.16181E-03   -0.17178E-03  6336   0.260E-02 0.716E-03
CGA:  11    -0.425852923283E+03   -0.45639E-03   -0.54474E-03  6336   0.368E-02-0.121E-02
CGA:  12    -0.425852942365E+03   -0.19082E-04   -0.39460E-04  6336   0.155E-02 0.289E-03
CGA:  13    -0.425852947520E+03   -0.51550E-05   -0.30617E-04  6336   0.791E-03 0.367E-03
CGA:  14    -0.425852962414E+03   -0.14894E-04   -0.32114E-04  6336   0.121E-02 0.343E-03
CGA:  15    -0.425853088968E+03   -0.12655E-03   -0.12773E-03  6336   0.231E-02 0.174E-03
CGA:  16    -0.425853197402E+03   -0.10843E-03   -0.80346E-04  6336   0.327E-03-0.577E-03
CGA:  17    -0.425853175577E+03    0.21825E-04   -0.33358E-04  6336   0.538E-02-0.948E-03
CGA:  18    -0.425853247851E+03   -0.72274E-04   -0.10765E-03  6336   0.345E-03 0.626E-03
CGA:  19    -0.425853244121E+03    0.37302E-05   -0.77518E-05  6336   0.175E-03 0.200E-03
CGA:  20    -0.425853264067E+03   -0.19946E-04   -0.18223E-04  6336   0.325E-03 0.572E-04
CGA:  21    -0.425853290238E+03   -0.26170E-04   -0.25922E-04  6336   0.206E-03-0.166E-04
CGA:  22    -0.425853299124E+03   -0.88863E-05   -0.86317E-05  6336   0.410E-04-0.874E-05
  28 F= -.42585330E+03 E0= -.42584269E+03  d E =-.851070E-03  mag=    10.0000
       N       E                     dE             d eps       ncg     rms          ort
SDA:   1    -0.425775462508E+03    0.77828E-01    0.00000E+00  6336   0.195E+00 0.000E+00
CGA:   2    -0.425816824376E+03   -0.41362E-01   -0.41474E-01  6336   0.604E+00-0.602E-03
CGA:   3    -0.425839521656E+03   -0.22697E-01   -0.22484E-01  6336   0.803E-01 0.964E-02
CGA:   4    -0.425843273121E+03   -0.37515E-02   -0.37930E-02  6336   0.744E-01 0.234E-02
CGA:   5    -0.425850762496E+03   -0.74894E-02   -0.75129E-02  6336   0.162E-01-0.112E-02
CGA:   6    -0.425851550366E+03   -0.78787E-03   -0.71649E-03  6336   0.929E-02-0.255E-02
CGA:   7    -0.425852499733E+03   -0.94937E-03   -0.91626E-03  6336   0.126E-02 0.786E-03
CGA:   8    -0.425852632128E+03   -0.13239E-03   -0.13878E-03  6336   0.407E-02-0.268E-03
CGA:   9    -0.425852793889E+03   -0.16176E-03   -0.15873E-03  6336   0.172E-02-0.107E-03
CGA:  10    -0.425852816841E+03   -0.22951E-04   -0.31106E-04  6336   0.365E-03 0.140E-03
CGA:  11    -0.425852822399E+03   -0.55586E-05   -0.10589E-04  6336   0.322E-03 0.106E-03
CGA:  12    -0.425852849675E+03   -0.27275E-04   -0.27716E-04  6336   0.708E-03 0.865E-04
CGA:  13    -0.425852896753E+03   -0.47078E-04   -0.42892E-04  6336   0.142E-03-0.179E-03
CGA:  14    -0.425852903703E+03   -0.69507E-05   -0.51462E-05  6336   0.250E-03-0.834E-04
  29 F= -.42585290E+03 E0= -.42584229E+03  d E =0.395421E-03  mag=    10.0000
       N       E                     dE             d eps       ncg     rms          ort
SDA:   1    -0.425626141260E+03    0.22676E+00    0.00000E+00  6336   0.555E+00 0.000E+00
CGA:   2    -0.425755231672E+03   -0.12909E+00   -0.12738E+00  6336   0.181E+01 0.141E-01
CGA:   3    -0.425816564943E+03   -0.61333E-01   -0.58075E-01  6336   0.174E+00 0.766E-01
CGA:   4    -0.425827429332E+03   -0.10864E-01   -0.10889E-01  6336   0.202E+00 0.524E-02
CGA:   5    -0.425847019412E+03   -0.19590E-01   -0.19705E-01  6336   0.348E-01-0.557E-02
CGA:   6    -0.425848382798E+03   -0.13634E-02   -0.13272E-02  6336   0.181E-01-0.174E-02
CGA:   7    -0.425850319621E+03   -0.19368E-02   -0.19291E-02  6336   0.235E-01 0.166E-03
CGA:   8    -0.425851019920E+03   -0.70030E-03   -0.71017E-03  6336   0.219E-02 0.330E-03
CGA:   9    -0.425851323539E+03   -0.30362E-03   -0.68455E-03  6336   0.150E-01-0.162E-02
CGA:  10    -0.425851629815E+03   -0.30628E-03   -0.36321E-03  6336   0.572E-03 0.106E-02
CGA:  11    -0.425851648736E+03   -0.18921E-04   -0.28215E-04  6336   0.535E-03 0.271E-03
CGA:  12    -0.425851774214E+03   -0.12548E-03   -0.14329E-03  6336   0.624E-03-0.173E-03
CGA:  13    -0.425851799329E+03   -0.25115E-04   -0.16105E-04  6336   0.350E-03-0.201E-03
CGA:  14    -0.425851840739E+03   -0.41410E-04   -0.43482E-04  6336   0.108E-02-0.207E-04
CGA:  15    -0.425851878793E+03   -0.38055E-04   -0.40167E-04  6336   0.201E-03 0.422E-04
CGA:  16    -0.425851919171E+03   -0.40378E-04    0.60320E-04  6336   0.190E-03 0.107E-03
CGA:  17    -0.425851919186E+03   -0.15203E-07   -0.52655E-05  6336   0.973E-04 0.927E-04
  30 F= -.42585192E+03 E0= -.42584128E+03  d E =0.984517E-03  mag=    10.0000
       N       E                     dE             d eps       ncg     rms          ort
SDA:   1    -0.425553206606E+03    0.29871E+00    0.00000E+00  6336   0.115E+01 0.000E+00
CGA:   2    -0.425614551583E+03   -0.61345E-01   -0.60455E-01  6336   0.124E+01 0.130E-01
CGA:   3    -0.425760440491E+03   -0.14589E+00   -0.14613E+00  6336   0.155E+01-0.538E-02
CGA:   4    -0.425806868827E+03   -0.46428E-01   -0.47588E-01  6336   0.194E+00-0.567E-01
CGA:   5    -0.425835142287E+03   -0.28273E-01   -0.28424E-01  6336   0.239E+00-0.216E-02
CGA:   6    -0.425841850880E+03   -0.67086E-02   -0.67408E-02  6336   0.250E-01 0.538E-02
CGA:   7    -0.425843973422E+03   -0.21225E-02   -0.21164E-02  6336   0.404E-01 0.169E-02
CGA:   8    -0.425846808694E+03   -0.28353E-02   -0.28136E-02  6336   0.474E-02-0.174E-02
CGA:   9    -0.425847082037E+03   -0.27334E-03   -0.27427E-03  6336   0.600E-02 0.420E-04
CGA:  10    -0.425847629039E+03   -0.54700E-03   -0.54594E-03  6336   0.368E-02 0.774E-04
CGA:  11    -0.425847764252E+03   -0.13521E-03   -0.12822E-03  6336   0.816E-03-0.169E-03
CGA:  12    -0.425847875293E+03   -0.11104E-03   -0.11900E-03  6336   0.218E-02-0.105E-03
CGA:  13    -0.425847953261E+03   -0.77968E-04   -0.80386E-04  6336   0.350E-03 0.623E-04
CGA:  14    -0.425847971765E+03   -0.18504E-04   -0.18977E-04  6336   0.380E-03 0.183E-04
CGA:  15    -0.425848048535E+03   -0.76770E-04   -0.84886E-04  6336   0.164E-03-0.601E-04
CGA:  16    -0.425848049239E+03   -0.70421E-06   -0.20958E-04  6336   0.187E-02-0.300E-03
CGA:  17    -0.425848078669E+03   -0.29430E-04   -0.39944E-04  6336   0.845E-04 0.158E-03
CGA:  18    -0.425848078758E+03   -0.89341E-07   -0.25058E-05  6336   0.540E-04 0.428E-04
CGA:  19    -0.425848089198E+03   -0.10440E-04    0.11128E-04  6336   0.611E-04 0.246E-04
CGA:  20    -0.425848096757E+03   -0.75591E-05   -0.74831E-05  6336   0.316E-04 0.225E-04
CGA:  21    -0.425848103828E+03   -0.70711E-05    0.16558E-03  6336   0.477E-04-0.521E-05
  31 F= -.42584810E+03 E0= -.42583744E+03  d E =0.381536E-02  mag=    10.0000
       N       E                     dE             d eps       ncg     rms          ort
SDA:   1    -0.425802933348E+03    0.45163E-01    0.00000E+00  6336   0.267E+00 0.000E+00
CGA:   2    -0.425811253521E+03   -0.83202E-02   -0.84892E-02  6336   0.165E+00-0.321E-02
CGA:   3    -0.425840259207E+03   -0.29006E-01   -0.28889E-01  6336   0.419E-01 0.114E-02
CGA:   4    -0.425843515980E+03   -0.32568E-02   -0.32113E-02  6336   0.593E-01-0.484E-02
CGA:   5    -0.425847698132E+03   -0.41822E-02   -0.41979E-02  6336   0.816E-02 0.299E-02
CGA:   6    -0.425847936397E+03   -0.23826E-03   -0.29894E-03  6336   0.431E-02 0.125E-02
CGA:   7    -0.425848533378E+03   -0.59698E-03   -0.58323E-03  6336   0.346E-02 0.390E-03
CGA:   8    -0.425848740542E+03   -0.20716E-03   -0.15954E-03  6336   0.133E-02-0.116E-02
CGA:   9    -0.425848789900E+03   -0.49358E-04   -0.54948E-04  6336   0.666E-03 0.278E-03
CGA:  10    -0.425848807395E+03   -0.17496E-04   -0.30398E-04  6336   0.344E-03 0.298E-03
CGA:  11    -0.425848885482E+03   -0.78087E-04   -0.94510E-04  6336   0.215E-03-0.148E-03
CGA:  12    -0.425848883803E+03    0.16793E-05   -0.23499E-05  6336   0.147E-03 0.617E-04
  32 F= -.42584888E+03 E0= -.42583822E+03  d E =-.779975E-03  mag=    10.0000
       N       E                     dE             d eps       ncg     rms          ort
SDA:   1    -0.425840199815E+03    0.86857E-02    0.00000E+00  6336   0.108E+00 0.000E+00
CGA:   2    -0.425842669800E+03   -0.24700E-02   -0.25391E-02  6336   0.201E-01 0.528E-02
CGA:   3    -0.425844801524E+03   -0.21317E-02   -0.20679E-02  6336   0.302E-01 0.287E-02
CGA:   4    -0.425847065388E+03   -0.22639E-02   -0.22176E-02  6336   0.104E-01-0.378E-02
CGA:   5    -0.425847572972E+03   -0.50758E-03   -0.52583E-03  6336   0.852E-02 0.101E-02
CGA:   6    -0.425848098008E+03   -0.52504E-03   -0.52986E-03  6336   0.621E-02 0.252E-03
CGA:   7    -0.425848521649E+03   -0.42364E-03   -0.40506E-03  6336   0.258E-02-0.172E-02
CGA:   8    -0.425848564437E+03   -0.42788E-04   -0.57976E-04  6336   0.504E-03 0.356E-03
CGA:   9    -0.425848570534E+03   -0.60972E-05   -0.17671E-04  6336   0.366E-03 0.282E-03
CGA:  10    -0.425848623050E+03   -0.52516E-04    0.43183E-03  6336   0.465E-03 0.713E-04
CGA:  11    -0.425848657115E+03   -0.34065E-04   -0.34837E-04  6336   0.157E-03 0.110E-03
CGA:  12    -0.425848657119E+03   -0.44674E-08   -0.42887E-05  6336   0.388E-04 0.903E-04
  33 F= -.42584866E+03 E0= -.42583798E+03  d E =0.226683E-03  mag=    10.0000
       N       E                     dE             d eps       ncg     rms          ort
SDA:   1    -0.425777928319E+03    0.70729E-01    0.00000E+00  6336   0.236E+01 0.000E+00
CGA:   2    -0.425826944940E+03   -0.49017E-01   -0.48462E-01  6336   0.659E-01-0.401E-01
CGA:   3    -0.425832131048E+03   -0.51861E-02   -0.51937E-02  6336   0.120E+00 0.100E-02
CGA:   4    -0.425844438418E+03   -0.12307E-01   -0.12319E-01  6336   0.188E-01 0.588E-03
CGA:   5    -0.425845571819E+03   -0.11334E-02   -0.10596E-02  6336   0.214E-01-0.167E-02
CGA:   6    -0.425847101438E+03   -0.15296E-02   -0.15280E-02  6336   0.102E-01-0.381E-04
CGA:   7    -0.425847319416E+03   -0.21798E-03   -0.27283E-03  6336   0.998E-03 0.833E-03
CGA:   8    -0.425847496432E+03   -0.17702E-03   -0.16891E-03  6336   0.206E-02 0.159E-03
CGA:   9    -0.425847600778E+03   -0.10435E-03   -0.86130E-04  6336   0.415E-03-0.267E-03
CGA:  10    -0.425847630392E+03   -0.29614E-04   -0.24072E-04  6336   0.619E-03-0.148E-03
CGA:  11    -0.425847651693E+03   -0.21301E-04   -0.24661E-04  6336   0.956E-04 0.820E-04
CGA:  12    -0.425847652836E+03   -0.11422E-05   -0.35987E-05  6336   0.729E-04 0.362E-04
  34 F= -.42584765E+03 E0= -.42583698E+03  d E =0.100428E-02  mag=    10.0000
       N       E                     dE             d eps       ncg     rms          ort
SDA:   1    -0.424981062395E+03    0.86659E+00    0.00000E+00  6336   0.232E+01 0.000E+00
CGA:   2    -0.425276436952E+03   -0.29537E+00   -0.29211E+00  6336   0.593E+01 0.878E-01
CGA:   3    -0.425685150406E+03   -0.40871E+00   -0.41322E+00  6336   0.206E+01-0.381E-01
CGA:   4    -0.425740632793E+03   -0.55482E-01   -0.65493E-01  6336   0.648E+00-0.272E+00
CGA:   5    -0.425804173390E+03   -0.63541E-01   -0.63772E-01  6336   0.507E+00-0.712E-02
CGA:   6    -0.425823007829E+03   -0.18834E-01   -0.19362E-01  6336   0.101E+00-0.148E-01
CGA:   7    -0.425828685479E+03   -0.56776E-02   -0.56465E-02  6336   0.909E-01-0.380E-02
CGA:   8    -0.425834746452E+03   -0.60610E-02   -0.60691E-02  6336   0.435E-01 0.853E-03
CGA:   9    -0.425836548830E+03   -0.18024E-02   -0.18186E-02  6336   0.127E-01 0.434E-04
CGA:  10    -0.425837842802E+03   -0.12940E-02   -0.13232E-02  6336   0.217E-01-0.176E-02
CGA:  11    -0.425838759737E+03   -0.91693E-03   -0.94502E-03  6336   0.436E-02 0.797E-03
CGA:  12    -0.425838877411E+03   -0.11767E-03   -0.14902E-03  6336   0.173E-02 0.617E-03
CGA:  13    -0.425839398627E+03   -0.52122E-03   -0.58421E-03  6336   0.243E-02-0.297E-03
CGA:  14    -0.425839432023E+03   -0.33396E-04   -0.44190E-04  6336   0.699E-03 0.150E-03
CGA:  15    -0.425839460317E+03   -0.28294E-04   -0.38367E-04  6336   0.125E-02 0.262E-03
CGA:  16    -0.425839625520E+03   -0.16520E-03   -0.16444E-03  6336   0.173E-02 0.101E-03
CGA:  17    -0.425839761825E+03   -0.13630E-03   -0.10257E-03  6336   0.720E-03-0.101E-02
CGA:  18    -0.425839760614E+03    0.12106E-05   -0.16827E-04  6336   0.230E-03 0.282E-03
CGA:  19    -0.425839762237E+03   -0.16228E-05   -0.10688E-04  6336   0.246E-03 0.180E-03
CGA:  20    -0.425839814971E+03   -0.52734E-04    0.30816E-04  6336   0.499E-03-0.536E-04
CGA:  21    -0.425839852004E+03   -0.37033E-04   -0.36935E-04  6336   0.390E-03 0.704E-05
CGA:  22    -0.425839847240E+03    0.47641E-05   -0.63437E-05  6336   0.101E-03 0.168E-03
  35 F= -.42583985E+03 E0= -.42582919E+03  d E =0.780560E-02  mag=    10.0000
       N       E                     dE             d eps       ncg     rms          ort
SDA:   1    -0.425312029345E+03    0.52782E+00    0.00000E+00  6336   0.141E+01 0.000E+00
CGA:   2    -0.425471824509E+03   -0.15980E+00   -0.16153E+00  6336   0.498E+01-0.364E-01
CGA:   3    -0.425745861088E+03   -0.27404E+00   -0.27515E+00  6336   0.408E+00 0.583E-02
CGA:   4    -0.425778367943E+03   -0.32507E-01   -0.32468E-01  6336   0.668E+00 0.351E-02
CGA:   5    -0.425817745362E+03   -0.39377E-01   -0.39285E-01  6336   0.161E+00-0.183E-02
CGA:   6    -0.425822476772E+03   -0.47314E-02   -0.46897E-02  6336   0.416E-01 0.357E-02
CGA:   7    -0.425829218156E+03   -0.67414E-02   -0.66869E-02  6336   0.393E-01 0.620E-03
CGA:   8    -0.425830632582E+03   -0.14144E-02   -0.13214E-02  6336   0.933E-02-0.322E-02
CGA:   9    -0.425831292205E+03   -0.65962E-03   -0.66179E-03  6336   0.168E-01-0.104E-02
CGA:  10    -0.425832200495E+03   -0.90829E-03   -0.92655E-03  6336   0.172E-02 0.138E-02
CGA:  11    -0.425832336786E+03   -0.13629E-03   -0.13567E-03  6336   0.456E-02-0.404E-03
CGA:  12    -0.425832598885E+03   -0.26210E-03   -0.26254E-03  6336   0.500E-02-0.494E-03
CGA:  13    -0.425832654833E+03   -0.55948E-04   -0.82671E-04  6336   0.128E-02 0.495E-03
CGA:  14    -0.425832656759E+03   -0.19261E-05   -0.24788E-04  6336   0.683E-03 0.423E-03
CGA:  15    -0.425832664578E+03   -0.78187E-05   -0.23295E-04  6336   0.811E-03 0.355E-03
CGA:  16    -0.425832773153E+03   -0.10858E-03    0.11480E-01  6336   0.120E-02-0.203E-03
CGA:  17    -0.425832894906E+03   -0.12175E-03   -0.17116E-03  6336   0.983E-03-0.399E-03
CGA:  18    -0.425832892491E+03    0.24150E-05   -0.96620E-05  6336   0.390E-03 0.206E-03
  36 F= -.42583289E+03 E0= -.42582227E+03  d E =0.695475E-02  mag=    10.0000
       N       E                     dE             d eps       ncg     rms          ort
SDA:   1    -0.424857032341E+03    0.97586E+00    0.00000E+00  6336   0.255E+01 0.000E+00
CGA:   2    -0.425304148304E+03   -0.44712E+00   -0.43173E+00  6336   0.687E+01 0.175E+00
CGA:   3    -0.425682481543E+03   -0.37833E+00   -0.35753E+00  6336   0.114E+01-0.432E-01
CGA:   4    -0.425731177597E+03   -0.48696E-01   -0.48799E-01  6336   0.806E+00-0.159E-03
CGA:   5    -0.425817970320E+03   -0.86793E-01   -0.86398E-01  6336   0.288E+00 0.809E-02
CGA:   6    -0.425828317870E+03   -0.10348E-01   -0.10252E-01  6336   0.650E-01 0.105E-01
CGA:   7    -0.425834724340E+03   -0.64065E-02   -0.63533E-02  6336   0.119E+00 0.218E-02
CGA:   8    -0.425840887284E+03   -0.61629E-02   -0.61530E-02  6336   0.149E-01-0.175E-02
CGA:   9    -0.425841629524E+03   -0.74224E-03   -0.75827E-03  6336   0.117E-01 0.887E-03
CGA:  10    -0.425843035382E+03   -0.14059E-02   -0.13938E-02  6336   0.122E-01 0.261E-03
CGA:  11    -0.425843505849E+03   -0.47047E-03   -0.44895E-03  6336   0.244E-02-0.689E-03
CGA:  12    -0.425843694837E+03   -0.18899E-03   -0.19354E-03  6336   0.434E-02-0.322E-03
CGA:  13    -0.425844013398E+03   -0.31856E-03   -0.31520E-03  6336   0.121E-02 0.246E-03
CGA:  14    -0.425844104917E+03   -0.91519E-04   -0.92778E-04  6336   0.311E-02-0.672E-03
CGA:  15    -0.425844152625E+03   -0.47708E-04   -0.63660E-04  6336   0.372E-03 0.322E-03
CGA:  16    -0.425844166305E+03   -0.13679E-04   -0.19153E-04  6336   0.434E-03 0.249E-03
CGA:  17    -0.425844170787E+03   -0.44820E-05   -0.64740E-04  6336   0.578E-02-0.740E-03
CGA:  18    -0.425844259004E+03   -0.88217E-04   -0.11339E-03  6336   0.269E-03 0.508E-03
CGA:  19    -0.425844257905E+03    0.10986E-05   -0.63763E-05  6336   0.167E-03 0.158E-03
CGA:  20    -0.425844292514E+03   -0.34609E-04   -0.29381E-04  6336   0.744E-03 0.479E-04
CGA:  21    -0.425844364452E+03   -0.71937E-04   -0.71705E-04  6336   0.459E-03 0.748E-04
CGA:  22    -0.425844391106E+03   -0.26654E-04   -0.25613E-04  6336   0.269E-03-0.500E-04
CGA:  23    -0.425844404448E+03   -0.13342E-04   -0.13910E-04  6336   0.890E-04 0.429E-04
CGA:  24    -0.425844414410E+03   -0.99619E-05   -0.14008E-04  6336   0.609E-03-0.623E-04
CGA:  25    -0.425844424497E+03   -0.10088E-04   -0.11560E-04  6336   0.219E-04 0.259E-04
CGA:  26    -0.425844426538E+03   -0.20407E-05   -0.18872E-05  6336   0.373E-04 0.132E-04
  37 F= -.42584443E+03 E0= -.42583375E+03  d E =-.115340E-01  mag=    10.0000
       N       E                     dE             d eps       ncg     rms          ort
SDA:   1    -0.425683964215E+03    0.16046E+00    0.00000E+00  6336   0.612E+00 0.000E+00
CGA:   2    -0.425712894880E+03   -0.28931E-01   -0.28917E-01  6336   0.752E+00 0.342E-02
CGA:   3    -0.425806645349E+03   -0.93750E-01   -0.93403E-01  6336   0.295E+00 0.622E-02
CGA:   4    -0.425820152380E+03   -0.13507E-01   -0.13080E-01  6336   0.137E+00-0.118E-01
CGA:   5    -0.425837934614E+03   -0.17782E-01   -0.17601E-01  6336   0.181E-01 0.284E-02
CGA:   6    -0.425839643234E+03   -0.17086E-02   -0.17584E-02  6336   0.346E-01-0.240E-02
CGA:   7    -0.425841410679E+03   -0.17674E-02   -0.17657E-02  6336   0.627E-02-0.106E-03
[...]
CGA:   5    -0.425865208094E+03   -0.40512E-02   -0.40521E-02  6336   0.973E-02 0.144E-03
CGA:   6    -0.425865691212E+03   -0.48312E-03   -0.42841E-03  6336   0.541E-02-0.956E-03
CGA:   7    -0.425866308134E+03   -0.61692E-03   -0.61368E-03  6336   0.278E-02 0.169E-03
CGA:   8    -0.425866388596E+03   -0.80462E-04   -0.78578E-04  6336   0.667E-03-0.407E-04
CGA:   9    -0.425866521081E+03   -0.13248E-03   -0.17671E-03  6336   0.158E-02-0.268E-03
CGA:  10    -0.425866534468E+03   -0.13387E-04   -0.17719E-04  6336   0.416E-03 0.468E-04
CGA:  11    -0.425866536065E+03   -0.15970E-05   -0.78456E-05  6336   0.234E-03 0.707E-04
  87 F= -.42586654E+03 E0= -.42585586E+03  d E =0.431714E-03  mag=    10.0000
       N       E                     dE             d eps       ncg     rms          ort
SDA:   1    -0.425783741705E+03    0.82793E-01    0.00000E+00  6336   0.309E+01 0.000E+00
CGA:   2    -0.425843908183E+03   -0.60166E-01   -0.75193E-01  6336   0.230E+00-0.561E+00
CGA:   3    -0.425850053346E+03   -0.61452E-02   -0.63307E-02  6336   0.625E-01-0.914E-02
CGA:   4    -0.425857159732E+03   -0.71064E-02   -0.70120E-02  6336   0.878E-01 0.383E-02
CGA:   5    -0.425862900781E+03   -0.57410E-02   -0.56567E-02  6336   0.329E-01-0.321E-02
CGA:   6    -0.425864151551E+03   -0.12508E-02   -0.12600E-02  6336   0.122E-01 0.409E-03
CGA:   7    -0.425864876843E+03   -0.72529E-03   -0.75616E-03  6336   0.747E-02 0.114E-02
CGA:   8    -0.425865525484E+03   -0.64864E-03   -0.64343E-03  6336   0.517E-02-0.598E-03
CGA:   9    -0.425865737845E+03   -0.21236E-03   -0.21600E-03  6336   0.109E-02 0.866E-04
CGA:  10    -0.425865758958E+03   -0.21113E-04   -0.37559E-04  6336   0.400E-03 0.317E-03
CGA:  11    -0.425865824315E+03   -0.65357E-04   -0.63038E-04  6336   0.802E-03 0.590E-04
CGA:  12    -0.425865884266E+03   -0.59951E-04   -0.54461E-04  6336   0.234E-03-0.215E-03
CGA:  13    -0.425865882719E+03    0.15464E-05   -0.34781E-05  6336   0.104E-03 0.791E-04
  88 F= -.42586588E+03 E0= -.42585522E+03  d E =0.653345E-03  mag=    10.0000
       N       E                     dE             d eps       ncg     rms          ort
SDA:   1    -0.425835384892E+03    0.30499E-01    0.00000E+00  6336   0.131E+00 0.000E+00
CGA:   2    -0.425840579791E+03   -0.51949E-02   -0.51718E-02  6336   0.125E+00 0.204E-02
CGA:   3    -0.425861605521E+03   -0.21026E-01   -0.20928E-01  6336   0.274E-01 0.107E-02
CGA:   4    -0.425864441941E+03   -0.28364E-02   -0.29739E-02  6336   0.534E-01-0.505E-02
CGA:   5    -0.425866205226E+03   -0.17633E-02   -0.18165E-02  6336   0.118E-01 0.142E-02
CGA:   6    -0.425866414830E+03   -0.20960E-03   -0.28999E-03  6336   0.284E-02 0.155E-02
CGA:   7    -0.425866580042E+03   -0.16521E-03   -0.18132E-03  6336   0.440E-02 0.795E-03
CGA:   8    -0.425866948516E+03   -0.36847E-03   -0.36513E-03  6336   0.630E-03-0.318E-03
CGA:   9    -0.425866914181E+03    0.34335E-04   -0.10476E-03  6336   0.846E-02-0.134E-02
CGA:  10    -0.425867057077E+03   -0.14290E-03   -0.19892E-03  6336   0.267E-03 0.984E-03
CGA:  11    -0.425867055344E+03    0.17331E-05   -0.64746E-05  6336   0.128E-03 0.147E-03
  89 F= -.42586706E+03 E0= -.42585640E+03  d E =-.117262E-02  mag=    10.0000
       N       E                     dE             d eps       ncg     rms          ort
SDA:   1    -0.425240712151E+03    0.62634E+00    0.00000E+00  6336   0.344E+01 0.000E+00
CGA:   2    -0.425369021402E+03   -0.12831E+00   -0.16514E+00  6336   0.279E+01-0.546E+00
CGA:   3    -0.425763429887E+03   -0.39441E+00   -0.39554E+00  6336   0.848E+00-0.250E-01
CGA:   4    -0.425796141581E+03   -0.32712E-01   -0.30631E-01  6336   0.454E+00 0.617E-01
CGA:   5    -0.425841084691E+03   -0.44943E-01   -0.45097E-01  6336   0.478E+00 0.502E-02
CGA:   6    -0.425857637796E+03   -0.16553E-01   -0.18052E-01  6336   0.548E-01-0.401E-01
CGA:   7    -0.425864077467E+03   -0.64397E-02   -0.64335E-02  6336   0.754E-01 0.123E-02
CGA:   8    -0.425867598339E+03   -0.35209E-02   -0.34671E-02  6336   0.141E-01-0.156E-02
CGA:   9    -0.425868294077E+03   -0.69574E-03   -0.66113E-03  6336   0.114E-01-0.713E-03
CGA:  10    -0.425869175869E+03   -0.88179E-03   -0.88837E-03  6336   0.840E-02 0.197E-03
CGA:  11    -0.425869563468E+03   -0.38760E-03   -0.38092E-03  6336   0.208E-02-0.118E-03
CGA:  12    -0.425869771316E+03   -0.20785E-03   -0.20584E-03  6336   0.309E-02-0.212E-03
CGA:  13    -0.425869937688E+03   -0.16637E-03   -0.17568E-03  6336   0.802E-03 0.197E-03
CGA:  14    -0.425869966685E+03   -0.28997E-04   -0.34627E-04  6336   0.601E-03 0.835E-04
CGA:  15    -0.425870091993E+03   -0.12531E-03   -0.13308E-03  6336   0.111E-02-0.800E-04
CGA:  16    -0.425870116454E+03   -0.24461E-04   -0.29559E-04  6336   0.156E-03 0.652E-04
CGA:  17    -0.425870123971E+03   -0.75171E-05   -0.10414E-04  6336   0.232E-03 0.691E-04
CGA:  18    -0.425870167672E+03   -0.43701E-04   -0.44060E-04  6336   0.234E-03-0.122E-04
CGA:  19    -0.425870179346E+03   -0.11674E-04   -0.79144E-05  6336   0.752E-04-0.554E-04
CGA:  20    -0.425870184112E+03   -0.47661E-05   -0.45141E-05  6336   0.116E-03-0.115E-04
  90 F= -.42587018E+03 E0= -.42585955E+03  d E =-.312877E-02  mag=    10.0000
       N       E                     dE             d eps       ncg     rms          ort
SDA:   1    -0.425599518880E+03    0.27066E+00    0.00000E+00  6336   0.722E+00 0.000E+00
CGA:   2    -0.425692867842E+03   -0.93349E-01   -0.94115E-01  6336   0.210E+01-0.179E-01
CGA:   3    -0.425821174126E+03   -0.12831E+00   -0.12925E+00  6336   0.221E+00 0.484E-03
CGA:   4    -0.425843307309E+03   -0.22133E-01   -0.22128E-01  6336   0.402E+00 0.265E-03
CGA:   5    -0.425859110573E+03   -0.15803E-01   -0.15641E-01  6336   0.356E-01 0.316E-02
CGA:   6    -0.425861288299E+03   -0.21777E-02   -0.21822E-02  6336   0.429E-01 0.411E-03
CGA:   7    -0.425865039981E+03   -0.37517E-02   -0.37504E-02  6336   0.573E-02-0.253E-03
CGA:   8    -0.425865526363E+03   -0.48638E-03   -0.46758E-03  6336   0.116E-01-0.187E-02
CGA:   9    -0.425866059221E+03   -0.53286E-03   -0.53632E-03  6336   0.770E-02 0.149E-03
CGA:  10    -0.425866164929E+03   -0.10571E-03   -0.17537E-03  6336   0.107E-02 0.102E-02
CGA:  11    -0.425866176975E+03   -0.12046E-04   -0.33724E-04  6336   0.836E-03 0.367E-03
CGA:  12    -0.425866270534E+03   -0.93559E-04   -0.93818E-04  6336   0.158E-02 0.341E-03
CGA:  13    -0.425866389428E+03   -0.11889E-03   -0.10344E-03  6336   0.356E-03-0.417E-03
CGA:  14    -0.425866401924E+03   -0.12496E-04   -0.11294E-04  6336   0.286E-03-0.319E-04
CGA:  15    -0.425866411916E+03   -0.99922E-05   -0.14149E-04  6336   0.165E-03 0.160E-03
CGA:  16    -0.425866366462E+03    0.45455E-04   -0.43045E-04  6336   0.602E-02-0.488E-03
CGA:  17    -0.425866466093E+03   -0.99632E-04   -0.11740E-03  6336   0.103E-03 0.272E-03
CGA:  18    -0.425866463112E+03    0.29820E-05   -0.14051E-05  6336   0.403E-04 0.611E-04
  91 F= -.42586646E+03 E0= -.42585585E+03  d E =0.372100E-02  mag=    10.0000
       N       E                     dE             d eps       ncg     rms          ort
SDA:   1    -0.425447974995E+03    0.41849E+00    0.00000E+00  6336   0.129E+01 0.000E+00
CGA:   2    -0.425564333170E+03   -0.11636E+00   -0.11747E+00  6336   0.273E+01-0.487E-01
CGA:   3    -0.425762061230E+03   -0.19773E+00   -0.19782E+00  6336   0.690E+00 0.100E-01
CGA:   4    -0.425794239106E+03   -0.32178E-01   -0.33335E-01  6336   0.622E+00-0.204E-01
CGA:   5    -0.425845448450E+03   -0.51209E-01   -0.51256E-01  6336   0.211E+00-0.686E-02
CGA:   6    -0.425851684983E+03   -0.62365E-02   -0.65907E-02  6336   0.420E-01 0.453E-02
CGA:   7    -0.425858574105E+03   -0.68891E-02   -0.69674E-02  6336   0.592E-01-0.924E-03
CGA:   8    -0.425860471238E+03   -0.18971E-02   -0.18550E-02  6336   0.662E-02-0.235E-02
CGA:   9    -0.425861397938E+03   -0.92670E-03   -0.93885E-03  6336   0.189E-01-0.182E-03
CGA:  10    -0.425862070550E+03   -0.67261E-03   -0.69287E-03  6336   0.126E-02 0.510E-03
CGA:  11    -0.425862220557E+03   -0.15001E-03   -0.14896E-03  6336   0.332E-02 0.268E-04
CGA:  12    -0.425862463953E+03   -0.24340E-03   -0.24250E-03  6336   0.410E-03-0.109E-03
CGA:  13    -0.425862502763E+03   -0.38810E-04   -0.41966E-04  6336   0.174E-02-0.122E-03
CGA:  14    -0.425862602643E+03   -0.99880E-04   -0.10032E-03  6336   0.152E-02-0.370E-03
CGA:  15    -0.425862619035E+03   -0.16392E-04   -0.18411E-04  6336   0.336E-03 0.298E-04
CGA:  16    -0.425862620236E+03   -0.12008E-05   -0.57907E-05  6336   0.221E-03 0.754E-04
  92 F= -.42586262E+03 E0= -.42585201E+03  d E =0.384288E-02  mag=    10.0000
       N       E                     dE             d eps       ncg     rms          ort
SDA:   1    -0.425689970143E+03    0.17265E+00    0.00000E+00  6336   0.128E+01 0.000E+00
CGA:   2    -0.425725175657E+03   -0.35206E-01   -0.36773E-01  6336   0.521E+00-0.435E-01
CGA:   3    -0.425815053101E+03   -0.89877E-01   -0.90005E-01  6336   0.941E+00-0.177E-02
CGA:   4    -0.425846486851E+03   -0.31434E-01   -0.32474E-01  6336   0.955E-01-0.236E-01
CGA:   5    -0.425859881502E+03   -0.13395E-01   -0.13382E-01  6336   0.123E+00 0.113E-03
CGA:   6    -0.425864030408E+03   -0.41489E-02   -0.42280E-02  6336   0.156E-01 0.410E-02
CGA:   7    -0.425864841515E+03   -0.81111E-03   -0.83906E-03  6336   0.164E-01 0.128E-02
CGA:   8    -0.425866605745E+03   -0.17642E-02   -0.17806E-02  6336   0.377E-02-0.635E-03
CGA:   9    -0.425866737703E+03   -0.13196E-03   -0.14245E-03  6336   0.169E-02 0.290E-03
CGA:  10    -0.425867045264E+03   -0.30756E-03   -0.29840E-03  6336   0.236E-02 0.999E-04
CGA:  11    -0.425867129641E+03   -0.84377E-04   -0.77756E-04  6336   0.386E-03-0.149E-03
CGA:  12    -0.425867155004E+03   -0.25363E-04   -0.72128E-04  6336   0.384E-02-0.379E-03
CGA:  13    -0.425867212294E+03   -0.57290E-04   -0.74433E-04  6336   0.147E-03 0.290E-03
CGA:  14    -0.425867210764E+03    0.15297E-05   -0.34490E-05  6336   0.850E-04 0.874E-04
  93 F= -.42586721E+03 E0= -.42585658E+03  d E =-.459053E-02  mag=    10.0000
       N       E                     dE             d eps       ncg     rms          ort
SDA:   1    -0.425846125912E+03    0.21086E-01    0.00000E+00  6336   0.345E+00 0.000E+00
CGA:   2    -0.425853489350E+03   -0.73634E-02   -0.75415E-02  6336   0.426E-01-0.393E-02
CGA:   3    -0.425860951224E+03   -0.74619E-02   -0.70369E-02  6336   0.662E-01 0.454E-02
CGA:   4    -0.425864857546E+03   -0.39063E-02   -0.37643E-02  6336   0.182E-01-0.527E-02
CGA:   5    -0.425866147400E+03   -0.12899E-02   -0.12910E-02  6336   0.109E-01 0.252E-02
CGA:   6    -0.425866844276E+03   -0.69688E-03   -0.68600E-03  6336   0.938E-02-0.593E-03
CGA:   7    -0.425867325325E+03   -0.48105E-03   -0.46914E-03  6336   0.276E-02-0.548E-03
CGA:   8    -0.425867393235E+03   -0.67910E-04   -0.92545E-04  6336   0.637E-03 0.627E-03
CGA:   9    -0.425867484212E+03   -0.90977E-04   -0.84855E-04  6336   0.109E-02 0.174E-03
CGA:  10    -0.425867577274E+03   -0.93062E-04   -0.87012E-04  6336   0.843E-03-0.490E-03
CGA:  11    -0.425867593124E+03   -0.15850E-04   -0.12994E-04  6336   0.272E-03-0.630E-04
CGA:  12    -0.425867592571E+03    0.55225E-06   -0.47958E-05  6336   0.174E-03 0.101E-03
  94 F= -.42586759E+03 E0= -.42585695E+03  d E =-.381807E-03  mag=    10.0000
       N       E                     dE             d eps       ncg     rms          ort
SDA:   1    -0.425861904882E+03    0.56882E-02    0.00000E+00  6336   0.140E+00 0.000E+00
CGA:   2    -0.425864761791E+03   -0.28569E-02   -0.29016E-02  6336   0.974E-02 0.238E-02
CGA:   3    -0.425865583365E+03   -0.82157E-03   -0.78632E-03  6336   0.130E-01 0.240E-02
CGA:   4    -0.425867381109E+03   -0.17977E-02   -0.19846E-02  6336   0.125E-01-0.332E-02
CGA:   5    -0.425867596065E+03   -0.21496E-03   -0.24335E-03  6336   0.341E-02 0.711E-03
CGA:   6    -0.425867650505E+03   -0.54440E-04   -0.95483E-04  6336   0.193E-02 0.103E-02
CGA:   7    -0.425867734077E+03   -0.83572E-04   -0.10248E-03  6336   0.210E-02 0.800E-03
CGA:   8    -0.425867917417E+03   -0.18334E-03   -0.18297E-03  6336   0.728E-03-0.263E-03
CGA:   9    -0.425867931194E+03   -0.13777E-04   -0.13826E-04  6336   0.215E-03-0.150E-05
CGA:  10    -0.425867933649E+03   -0.24549E-05   -0.62760E-05  6336   0.213E-03 0.120E-03
CGA:  11    -0.425867943687E+03   -0.10038E-04   -0.10016E-04  6336   0.248E-03-0.224E-05
CGA:  12    -0.425867829817E+03    0.11387E-03   -0.64643E-04  6336   0.207E-02-0.632E-03
CGA:  13    -0.425867879057E+03   -0.49240E-04   -0.55870E-04  6336   0.732E-03 0.869E-04
CGA:  14    -0.425867979266E+03   -0.10021E-03   -0.96849E-04  6336   0.112E-03 0.142E-03
CGA:  15    -0.425867985639E+03   -0.63736E-05   -0.53938E-05  6336   0.594E-04-0.156E-04
  95 F= -.42586799E+03 E0= -.42585734E+03  d E =-.393068E-03  mag=    10.0000
       N       E                     dE             d eps       ncg     rms          ort
SDA:   1    -0.425854162979E+03    0.13816E-01    0.00000E+00  6336   0.855E-01 0.000E+00
CGA:   2    -0.425857084981E+03   -0.29220E-02   -0.28886E-02  6336   0.472E-01-0.112E-02
CGA:   3    -0.425863984981E+03   -0.69000E-02   -0.69876E-02  6336   0.771E-01-0.168E-02
CGA:   4    -0.425866301697E+03   -0.23167E-02   -0.23587E-02  6336   0.105E-01 0.194E-02
CGA:   5    -0.425867799804E+03   -0.14981E-02   -0.14318E-02  6336   0.822E-02 0.172E-02
CGA:   6    -0.425868179395E+03   -0.37959E-03   -0.34174E-03  6336   0.234E-02-0.766E-03
CGA:   7    -0.425868299135E+03   -0.11974E-03   -0.12115E-03  6336   0.185E-02 0.339E-04
CGA:   8    -0.425868368291E+03   -0.69157E-04   -0.88703E-04  6336   0.434E-03 0.438E-03
CGA:   9    -0.425868425315E+03   -0.57024E-04   -0.62994E-04  6336   0.143E-02-0.217E-03
CGA:  10    -0.425868450330E+03   -0.25015E-04   -0.33065E-04  6336   0.733E-04 0.117E-03
CGA:  11    -0.425868455575E+03   -0.52445E-05   -0.57032E-05  6336   0.124E-03 0.289E-04
CGA:  12    -0.425868469573E+03   -0.13998E-04   -0.42099E-04  6336   0.556E-03-0.179E-03
CGA:  13    -0.425868480664E+03   -0.11091E-04   -0.14153E-04  6336   0.781E-04 0.425E-04
CGA:  14    -0.425868485710E+03   -0.50462E-05   -0.59053E-05  6336   0.770E-04 0.407E-04
  96 F= -.42586849E+03 E0= -.42585785E+03  d E =-.500071E-03  mag=    10.0000
       N       E                     dE             d eps       ncg     rms          ort
SDA:   1    -0.425852696796E+03    0.15784E-01    0.00000E+00  6336   0.291E+00 0.000E+00
CGA:   2    -0.425859406707E+03   -0.67099E-02   -0.68571E-02  6336   0.311E-01-0.793E-02
CGA:   3    -0.425862137412E+03   -0.27307E-02   -0.27283E-02  6336   0.617E-01 0.457E-03
CGA:   4    -0.425866213285E+03   -0.40759E-02   -0.40777E-02  6336   0.953E-02-0.918E-04
CGA:   5    -0.425867287117E+03   -0.10738E-02   -0.11325E-02  6336   0.224E-01-0.172E-02
CGA:   6    -0.425868086403E+03   -0.79929E-03   -0.78624E-03  6336   0.322E-02-0.319E-03
CGA:   7    -0.425868141079E+03   -0.54676E-04   -0.78784E-04  6336   0.899E-03 0.426E-03
CGA:   8    -0.425868197678E+03   -0.56599E-04   -0.62673E-04  6336   0.134E-02 0.313E-03
CGA:   9    -0.425868314461E+03   -0.11678E-03   -0.11240E-03  6336   0.284E-03-0.250E-03
CGA:  10    -0.425868328681E+03   -0.14220E-04   -0.12996E-04  6336   0.242E-03-0.544E-04
CGA:  11    -0.425868342616E+03   -0.13935E-04   -0.14237E-04  6336   0.977E-04 0.577E-04
CGA:  12    -0.425868349311E+03   -0.66948E-05   -0.65157E-05  6336   0.105E-03-0.780E-05
CGA:  13    -0.425868354837E+03   -0.55263E-05   -0.16234E-04  6336   0.138E-03-0.116E-03
  97 F= -.42586835E+03 E0= -.42585771E+03  d E =0.130873E-03  mag=    10.0000
       N       E                     dE             d eps       ncg     rms          ort
SDA:   1    -0.425739229993E+03    0.12912E+00    0.00000E+00  6336   0.337E+00 0.000E+00
CGA:   2    -0.425792006779E+03   -0.52777E-01   -0.52621E-01  6336   0.106E+01 0.166E-02
CGA:   3    -0.425838985289E+03   -0.46979E-01   -0.47420E-01  6336   0.217E+00-0.850E-02
CGA:   4    -0.425848628166E+03   -0.96429E-02   -0.93581E-02  6336   0.131E+00-0.829E-02
CGA:   5    -0.425862484881E+03   -0.13857E-01   -0.13868E-01  6336   0.238E-01-0.356E-03
CGA:   6    -0.425863429717E+03   -0.94484E-03   -0.94820E-03  6336   0.169E-01-0.524E-04
CGA:   7    -0.425865334872E+03   -0.19052E-02   -0.19219E-02  6336   0.968E-02-0.479E-03
CGA:   8    -0.425865629364E+03   -0.29449E-03   -0.28880E-03  6336   0.175E-02-0.144E-03
CGA:   9    -0.425865879623E+03   -0.25026E-03   -0.22339E-03  6336   0.162E-02 0.515E-03
CGA:  10    -0.425866007603E+03   -0.12798E-03   -0.11702E-03  6336   0.179E-02-0.467E-03
CGA:  11    -0.425866080376E+03   -0.72773E-04   -0.71424E-04  6336   0.615E-03-0.610E-04
CGA:  12    -0.425866078847E+03    0.15291E-05   -0.12123E-04  6336   0.232E-03 0.237E-03
  98 F= -.42586608E+03 E0= -.42585542E+03  d E =0.227599E-02  mag=    10.0000
       N       E                     dE             d eps       ncg     rms          ort
SDA:   1    -0.425819716228E+03    0.46364E-01    0.00000E+00  6336   0.236E+00 0.000E+00
CGA:   2    -0.425827902687E+03   -0.81865E-02   -0.82732E-02  6336   0.151E+00 0.759E-02
CGA:   3    -0.425848947811E+03   -0.21045E-01   -0.20751E-01  6336   0.219E+00 0.455E-02
CGA:   4    -0.425858391667E+03   -0.94439E-02   -0.93084E-02  6336   0.302E-01-0.899E-02
CGA:   5    -0.425863024806E+03   -0.46331E-02   -0.44783E-02  6336   0.151E-01 0.186E-02
CGA:   6    -0.425863832451E+03   -0.80765E-03   -0.74740E-03  6336   0.819E-02-0.230E-02
CGA:   7    -0.425864309367E+03   -0.47692E-03   -0.47562E-03  6336   0.748E-02-0.251E-03
CGA:   8    -0.425864526516E+03   -0.21715E-03   -0.25911E-03  6336   0.952E-03 0.108E-02
CGA:   9    -0.425864635038E+03   -0.10852E-03   -0.20030E-03  6336   0.751E-02-0.824E-03
CGA:  10    -0.425864761275E+03   -0.12624E-03   -0.15203E-03  6336   0.324E-03 0.501E-03
CGA:  11    -0.425864758318E+03    0.29575E-05   -0.71243E-05  6336   0.160E-03 0.185E-03
CGA:  12    -0.425864770316E+03   -0.11999E-04   -0.11843E-04  6336   0.181E-03 0.926E-04
CGA:  13    -0.425864783391E+03   -0.13075E-04   -0.15551E-04  6336   0.982E-03-0.184E-03
CGA:  14    -0.425864795633E+03   -0.12242E-04   -0.18206E-04  6336   0.722E-04 0.110E-03
CGA:  15    -0.425864796087E+03   -0.45358E-06   -0.25341E-05  6336   0.820E-04 0.538E-04
CGA:  16    -0.425864772424E+03    0.23662E-04   -0.22796E-04  6336   0.347E-02-0.222E-03
CGA:  17    -0.425864827042E+03   -0.54618E-04   -0.64095E-04  6336   0.350E-04 0.174E-03
CGA:  18    -0.425864826075E+03    0.96718E-06   -0.59872E-06  6336   0.264E-04 0.263E-04
  99 F= -.42586483E+03 E0= -.42585417E+03  d E =0.125277E-02  mag=    10.0000
       N       E                     dE             d eps       ncg     rms          ort
SDA:   1    -0.425819795468E+03    0.45032E-01    0.00000E+00  6336   0.132E+00 0.000E+00
CGA:   2    -0.425835878065E+03   -0.16083E-01   -0.16267E-01  6336   0.416E+00-0.414E-02
CGA:   3    -0.425856338325E+03   -0.20460E-01   -0.20392E-01  6336   0.693E-01 0.907E-03
CGA:   4    -0.425859786491E+03   -0.34482E-02   -0.35721E-02  6336   0.495E-01 0.615E-02
CGA:   5    -0.425864851184E+03   -0.50647E-02   -0.50740E-02  6336   0.232E-01-0.453E-03
CGA:   6    -0.425865440503E+03   -0.58932E-03   -0.58928E-03  6336   0.464E-02-0.429E-04
CGA:   7    -0.425866029597E+03   -0.58909E-03   -0.54427E-03  6336   0.428E-02 0.949E-03
CGA:   8    -0.425866296778E+03   -0.26718E-03   -0.24929E-03  6336   0.215E-02-0.759E-03
CGA:   9    -0.425866386777E+03   -0.89999E-04   -0.89053E-04  6336   0.114E-02-0.470E-04
CGA:  10    -0.425866419744E+03   -0.32967E-04   -0.40039E-04  6336   0.390E-03 0.204E-03
CGA:  11    -0.425866465871E+03   -0.46127E-04   -0.46309E-04  6336   0.842E-03-0.631E-05
CGA:  12    -0.425866508185E+03   -0.42314E-04   -0.39143E-04  6336   0.326E-03-0.138E-03
CGA:  13    -0.425866518700E+03   -0.10515E-04   -0.85896E-05  6336   0.884E-04-0.520E-04
CGA:  14    -0.425866522931E+03   -0.42312E-05   -0.44383E-05  6336   0.112E-03 0.269E-04
 100 F= -.42586652E+03 E0= -.42585586E+03  d E =-.169686E-02  mag=    10.0000
