       N       E                     dE             d eps       ncg     rms          ort
DAV:   1     0.309016074295E+04    0.30902E+04   -0.14654E+05  6624   0.178E+03
DAV:   2     0.160644626896E+01   -0.30886E+04   -0.28629E+04  6624   0.468E+02
DAV:   3    -0.459377201809E+03   -0.46098E+03   -0.43072E+03  6624   0.190E+02
DAV:   4    -0.488402273552E+03   -0.29025E+02   -0.28708E+02  6624   0.445E+01
DAV:   5    -0.490168837247E+03   -0.17666E+01   -0.17589E+01  6624   0.793E+00
SDA:   6    -0.407460672717E+03    0.82708E+02   -0.17589E+01  6624   0.337E+02 0.000E+00
CGA:   7    -0.408404058671E+03   -0.94339E+00   -0.10455E+01  6624   0.339E+02-0.671E+01
CGA:   8    -0.410657455261E+03   -0.22534E+01   -0.23744E+01  6624   0.195E+02-0.801E+00
CGA:   9    -0.410992553579E+03   -0.33510E+00   -0.36103E+00  6624   0.286E+01-0.113E+01
CGA:  10    -0.411385173091E+03   -0.39262E+00   -0.39251E+00  6624   0.571E+01-0.667E-01
CGA:  11    -0.411529087520E+03   -0.14391E+00   -0.22741E+00  6624   0.295E+01-0.224E+01
CGA:  12    -0.411672261098E+03   -0.14317E+00   -0.13841E+00  6624   0.164E+01-0.661E-01
CGA:  13    -0.411771935737E+03   -0.99675E-01   -0.10711E+00  6624   0.164E+01-0.138E+00
CGA:  14    -0.411845373876E+03   -0.73438E-01   -0.77324E-01  6624   0.404E+00-0.115E+00
CGA:  15    -0.411888382678E+03   -0.43009E-01   -0.43566E-01  6624   0.721E+00-0.150E-01
CGA:  16    -0.411929572350E+03   -0.41190E-01   -0.41200E-01  6624   0.154E+00-0.398E-01
CGA:  17    -0.411942798215E+03   -0.13226E-01   -0.13069E-01  6624   0.204E+00-0.964E-02
CGA:  18    -0.411957957198E+03   -0.15159E-01   -0.14797E-01  6624   0.821E-01-0.110E-01
CGA:  19    -0.411964635496E+03   -0.66783E-02   -0.66152E-02  6624   0.936E-01-0.469E-02
CGA:  20    -0.411971718789E+03   -0.70833E-02   -0.69144E-02  6624   0.252E-01-0.533E-02
CGA:  21    -0.411974098200E+03   -0.23794E-02   -0.22327E-02  6624   0.394E-01-0.427E-02
CGA:  22    -0.411978690244E+03   -0.45920E-02   -0.47559E-02  6624   0.298E-01-0.146E-01
CGA:  23    -0.411980021673E+03   -0.13314E-02   -0.95513E-03  6624   0.135E-01-0.496E-02
CGA:  24    -0.411979917472E+03    0.10420E-03   -0.40853E-02  6624   0.670E-01-0.180E-01
CGA:  25    -0.411982511913E+03   -0.25944E-02   -0.28396E-02  6624   0.240E-01 0.532E-03
CGA:  26    -0.411984207914E+03   -0.16960E-02   -0.19152E-02  6624   0.485E-02 0.378E-02
CGA:  27    -0.411984368556E+03   -0.16064E-03   -0.24259E-03  6624   0.186E-02 0.870E-03
CGA:  28    -0.411984528783E+03   -0.16023E-03   -0.20866E-03  6624   0.119E-02 0.142E-02
CGA:  29    -0.411984599791E+03   -0.71007E-04   -0.84340E-04  6624   0.131E-02 0.240E-03
CGA:  30    -0.411984720979E+03   -0.12119E-03   -0.14627E-03  6624   0.580E-03 0.783E-03
CGA:  31    -0.411984725568E+03   -0.45890E-05   -0.25331E-04  6624   0.376E-03 0.262E-03
CGA:  32    -0.411984719820E+03    0.57476E-05   -0.26388E-04  6624   0.386E-03 0.454E-03
CGA:  33    -0.411984724019E+03   -0.41983E-05   -0.17920E-04  6624   0.281E-03 0.199E-03
CGA:  34    -0.411984725005E+03   -0.98653E-06   -0.14153E-04  6624   0.247E-03 0.213E-03
CGA:  35    -0.411984725630E+03   -0.62421E-06   -0.12472E-04  6624   0.223E-03 0.203E-03
CGA:  36    -0.411984725858E+03   -0.22809E-06   -0.10972E-04  6624   0.204E-03 0.189E-03
   1 F= -.41198473E+03 E0= -.41198051E+03  d E =-.411985E+03  mag=    14.0000
       N       E                     dE             d eps       ncg     rms          ort
SDA:   1    -0.411965178206E+03    0.19547E-01    0.00000E+00  6624   0.114E+00 0.000E+00
CGA:   2    -0.411969592553E+03   -0.44143E-02   -0.44213E-02  6624   0.633E-01 0.429E-03
CGA:   3    -0.411979744544E+03   -0.10152E-01   -0.10070E-01  6624   0.244E-01 0.132E-02
CGA:   4    -0.411982161584E+03   -0.24170E-02   -0.24193E-02  6624   0.248E-01 0.559E-03
CGA:   5    -0.411983674928E+03   -0.15133E-02   -0.15243E-02  6624   0.411E-02 0.231E-03
CGA:   6    -0.411984365860E+03   -0.69093E-03   -0.68881E-03  6624   0.167E-02 0.280E-04
CGA:   7    -0.411984468142E+03   -0.10228E-03   -0.10037E-03  6624   0.109E-02-0.525E-04
CGA:   8    -0.411984594104E+03   -0.12596E-03   -0.12919E-03  6624   0.493E-03-0.144E-03
CGA:   9    -0.411984613216E+03   -0.19112E-04   -0.18785E-04  6624   0.271E-03-0.756E-05
CGA:  10    -0.411984651818E+03   -0.38602E-04   -0.38911E-04  6624   0.297E-03-0.679E-05
CGA:  11    -0.411984664753E+03   -0.12935E-04   -0.13488E-04  6624   0.771E-04 0.918E-05
CGA:  12    -0.411984678960E+03   -0.14207E-04   -0.12304E-04  6624   0.750E-04 0.332E-04
CGA:  13    -0.411984686851E+03   -0.78903E-05   -0.76375E-05  6624   0.123E-03-0.913E-05
CGA:  14    -0.411984700342E+03   -0.13491E-04   -0.16713E-04  6624   0.139E-03-0.582E-04
CGA:  15    -0.411984706389E+03   -0.60472E-05   -0.35742E-05  6624   0.134E-03-0.467E-04
   2 F= -.41198471E+03 E0= -.41198045E+03  d E =0.194689E-04  mag=    14.0000
       N       E                     dE             d eps       ncg     rms          ort
SDA:   1    -0.411973797465E+03    0.10903E-01    0.00000E+00  6624   0.244E+00 0.000E+00
CGA:   2    -0.411981126372E+03   -0.73289E-02   -0.73024E-02  6624   0.109E-01 0.163E-02
CGA:   3    -0.411982853542E+03   -0.17272E-02   -0.17434E-02  6624   0.269E-01-0.285E-03
CGA:   4    -0.411984050640E+03   -0.11971E-02   -0.11778E-02  6624   0.393E-02-0.443E-03
CGA:   5    -0.411984683382E+03   -0.63274E-03   -0.66930E-03  6624   0.250E-02-0.478E-03
CGA:   6    -0.411984778517E+03   -0.95135E-04   -0.94597E-04  6624   0.105E-02-0.196E-04
CGA:   7    -0.411984900976E+03   -0.12246E-03   -0.12264E-03  6624   0.876E-03-0.946E-05
CGA:   8    -0.411984933413E+03   -0.32437E-04   -0.31819E-04  6624   0.152E-03-0.132E-04
CGA:   9    -0.411984964167E+03   -0.30754E-04   -0.35727E-04  6624   0.131E-03-0.347E-04
CGA:  10    -0.411984971415E+03   -0.72482E-05   -0.57102E-05  6624   0.109E-03-0.340E-04
   3 F= -.41198497E+03 E0= -.41198069E+03  d E =-.245558E-03  mag=    14.0000
       N       E                     dE             d eps       ncg     rms          ort
SDA:   1    -0.411983346765E+03    0.16174E-02    0.00000E+00  6624   0.561E-01 0.000E+00
CGA:   2    -0.411984887143E+03   -0.15404E-02   -0.15788E-02  6624   0.917E-03-0.472E-03
CGA:   3    -0.411984926737E+03   -0.39594E-04   -0.37589E-04  6624   0.515E-03-0.400E-04
CGA:   4    -0.411984986929E+03   -0.60192E-04   -0.13590E-03  6624   0.943E-03-0.416E-03
CGA:   5    -0.411985028367E+03   -0.41438E-04   -0.42040E-04  6624   0.483E-03 0.716E-05
CGA:   6    -0.411985061447E+03   -0.33080E-04   -0.33324E-04  6624   0.788E-04 0.717E-05
CGA:   7    -0.411985066758E+03   -0.53115E-05   -0.48577E-05  6624   0.647E-04-0.125E-04
   4 F= -.41198507E+03 E0= -.41198078E+03  d E =-.340901E-03  mag=    14.0000
       N       E                     dE             d eps       ncg     rms          ort
SDA:   1    -0.411984170724E+03    0.89072E-03    0.00000E+00  6624   0.392E-01 0.000E+00
CGA:   2    -0.411985081002E+03   -0.91028E-03   -0.91524E-03  6624   0.177E-03 0.131E-03
CGA:   3    -0.411985104329E+03   -0.23327E-04   -0.23707E-04  6624   0.261E-03-0.106E-04
CGA:   4    -0.411985120719E+03   -0.16390E-04   -0.15218E-04  6624   0.927E-04-0.340E-04
CGA:   5    -0.411985132482E+03   -0.11763E-04   -0.13587E-04  6624   0.146E-03-0.252E-04
CGA:   6    -0.411985136702E+03   -0.42196E-05   -0.33257E-05  6624   0.293E-04-0.137E-04
CGA:   7    -0.411985064579E+03    0.72123E-04   -0.38946E-04  6624   0.280E-02-0.171E-03
CGA:   8    -0.411985136244E+03   -0.71665E-04   -0.72952E-04  6624   0.188E-03-0.430E-05
CGA:   9    -0.411985158208E+03   -0.21964E-04   -0.21040E-04  6624   0.152E-03-0.170E-04
CGA:  10    -0.411985165571E+03   -0.73628E-05   -0.58428E-05  6624   0.194E-04-0.130E-04
CGA:  11    -0.411985171659E+03   -0.60886E-05    0.16113E-04  6624   0.131E-04 0.493E-05
   5 F= -.41198517E+03 E0= -.41198088E+03  d E =-.445802E-03  mag=    14.0000
       N       E                     dE             d eps       ncg     rms          ort
SDA:   1    -0.411976955902E+03    0.82097E-02    0.00000E+00  6624   0.692E-01 0.000E+00
CGA:   2    -0.411979252489E+03   -0.22966E-02   -0.23302E-02  6624   0.223E-01-0.465E-03
CGA:   3    -0.411982613187E+03   -0.33607E-02   -0.33608E-02  6624   0.248E-01-0.322E-04
CGA:   4    -0.411983820295E+03   -0.12071E-02   -0.12012E-02  6624   0.798E-02-0.199E-03
CGA:   5    -0.411984930703E+03   -0.11104E-02   -0.11100E-02  6624   0.213E-02-0.135E-03
CGA:   6    -0.411985081966E+03   -0.15126E-03   -0.14709E-03  6624   0.227E-02-0.640E-04
CGA:   7    -0.411985239759E+03   -0.15779E-03   -0.15213E-03  6624   0.519E-03-0.853E-04
CGA:   8    -0.411985267680E+03   -0.27922E-04   -0.26619E-04  6624   0.302E-03-0.185E-04
CGA:   9    -0.411985311685E+03   -0.44004E-04   -0.46555E-04  6624   0.186E-03-0.925E-04
CGA:  10    -0.411985317779E+03   -0.60946E-05   -0.52951E-05  6624   0.752E-04-0.936E-05
CGA:  11    -0.411985328907E+03   -0.11128E-04   -0.11745E-04  6624   0.154E-03-0.173E-04
CGA:  12    -0.411985335258E+03   -0.63510E-05   -0.47567E-05  6624   0.282E-04-0.179E-04
   6 F= -.41198534E+03 E0= -.41198105E+03  d E =-.163599E-03  mag=    14.0000
