 vasp.6.1.2 22Jul20 (build Apr 14 2021 21:39:43) complex                        
  
 executed on             LinuxIFC date 2022.06.29  09:11:11
 running on  128 total cores
 distrk:  each k-point on  128 cores,    1 groups
 distr:  one band on NCORE=  16 cores,    8 groups


--------------------------------------------------------------------------------------------------------


 INCAR:
 POTCAR:    PAW_PBE Ca_sv 06Sep2000               
 POTCAR:    PAW_PBE Co_pv 23Apr2009               
 POTCAR:    PAW_PBE P 06Sep2000                   
 POTCAR:    PAW_PBE O 08Apr2002                   
 POTCAR:    PAW_PBE Ca_sv 06Sep2000               
   SHA256 =  a47365830e737f14e0e6c5cf1ed81b94e081eecf0a33df105380881bc9da05d5 Ca_sv/POTCAR          
   COPYR  = (c) Copyright 06Sep2000 Georg Kresse                                                    
   COPYR  = This file is part of the software VASP. Any use, copying, and all other rights are regul
   COPYR  = If you do not have a valid VASP license, you may not use, copy or distribute this file. 
   VRHFIN =Ca: 3s3p4s                                                                               
   LEXCH  = PE                                                                                      
   EATOM  =  1006.0909 eV,   73.9456 Ry                                                             
                                                                                                    
   TITEL  = PAW_PBE Ca_sv 06Sep2000                                                                 
   LULTRA =        F    use ultrasoft PP ?                                                          
   IUNSCR =        1    unscreen: 0-lin 1-nonlin 2-no                                               
   RPACOR =    2.000    partial core radius                                                         
   POMASS =   40.078; ZVAL   =   10.000    mass and valenz                                          
   RCORE  =    2.300    outmost cutoff radius                                                       
   RWIGS  =    2.500; RWIGS  =    1.323    wigner-seitz radius (au A)                               
   ENMAX  =  266.622; ENMIN  =  199.967 eV                                                          
   RCLOC  =    1.808    cutoff for local pot                                                        
   LCOR   =        T    correct aug charges                                                         
   LPAW   =        T    paw PP                                                                      
   EAUG   =  420.852                                                                                
   RMAX   =    2.359    core radius for proj-oper                                                   
   RAUG   =    1.300    factor for augmentation sphere                                              
   RDEP   =    2.392    radius for radial grids                                                     
   RDEPT  =    1.987    core radius for aug-charge                                                  
                                                                                                    
   Atomic configuration                                                                             
    7 entries                                                                                       
     n  l   j            E        occ.                                                              
     1  0  0.50     -3949.1705   2.0000                                                             
     2  0  0.50      -414.3434   2.0000                                                             
     2  1  1.50      -334.7047   6.0000                                                             
     3  0  0.50       -47.0896   2.0000                                                             
     4  0  0.50        -3.7663   2.0000                                                             
     3  1  1.50       -28.0061   6.0000                                                             
     3  2  1.50        -4.0817   0.0000                                                             
   Description                                                                                      
     l       E           TYP  RCUT    TYP  RCUT                                                     
     0    -47.0896403     23  2.300                                                                 
     0     -3.7663320     23  2.300                                                                 
     1    -28.0060855     23  2.300                                                                 
     1      6.8029130     23  2.300                                                                 
     2     -4.0817478     23  2.300                                                                 
     2      0.4464412     23  2.300                                                                 
  local pseudopotential read in
  partial core-charges read in
  partial kinetic energy density read in
  atomic valenz-charges read in
  non local Contribution for L=           0  read in
    real space projection operators read in
  non local Contribution for L=           0  read in
    real space projection operators read in
  non local Contribution for L=           1  read in
    real space projection operators read in
  non local Contribution for L=           1  read in
    real space projection operators read in
  non local Contribution for L=           2  read in
    real space projection operators read in
  non local Contribution for L=           2  read in
    real space projection operators read in
    PAW grid and wavefunctions read in
 
   number of l-projection  operators is LMAX  =           6
   number of lm-projection operators is LMMAX =          18
 
 POTCAR:    PAW_PBE Co_pv 23Apr2009               
   SHA256 =  3976ceda5ffbe51ec93a685baffd6f73dbb9ab174e5bb5a29ab07fb1a961362f Co_pv/POTCAR          
   COPYR  = (c) Copyright 23Apr2009 Georg Kresse                                                    
   COPYR  = This file is part of the software VASP. Any use, copying, and all other rights are regul
   COPYR  = If you do not have a valid VASP license, you may not use, copy or distribute this file. 
   VRHFIN =Co: 3pd7s1                                                                               
   LEXCH  = PE                                                                                      
   EATOM  =  2948.1334 eV,  216.6817 Ry                                                             
                                                                                                    
   TITEL  = PAW_PBE Co_pv 23Apr2009                                                                 
   LULTRA =        F    use ultrasoft PP ?                                                          
   IUNSCR =        1    unscreen: 0-lin 1-nonlin 2-no                                               
   RPACOR =    2.000    partial core radius                                                         
   POMASS =   58.933; ZVAL   =   15.000    mass and valenz                                          
   RCORE  =    2.300    outmost cutoff radius                                                       
   RWIGS  =    2.460; RWIGS  =    1.302    wigner-seitz radius (au A)                               
   ENMAX  =  271.042; ENMIN  =  203.281 eV                                                          
   ICORE  =        3    local potential                                                             
   LCOR   =        T    correct aug charges                                                         
   LPAW   =        T    paw PP                                                                      
   EAUG   =  543.066                                                                                
   DEXC   =    0.000                                                                                
   RMAX   =    2.360    core radius for proj-oper                                                   
   RAUG   =    1.300    factor for augmentation sphere                                              
   RDEP   =    2.393    radius for radial grids                                                     
   RDEPT  =    1.841    core radius for aug-charge                                                  
                                                                                                    
   Atomic configuration                                                                             
    8 entries                                                                                       
     n  l   j            E        occ.                                                              
     1  0  0.50     -7587.6674   2.0000                                                             
     2  0  0.50      -893.6084   2.0000                                                             
     2  1  1.50      -764.5805   6.0000                                                             
     3  0  0.50       -97.5973   2.0000                                                             
     3  1  1.50       -60.9648   6.0000                                                             
     3  2  2.50        -4.2382   8.0000                                                             
     4  0  0.50        -4.3746   1.0000                                                             
     4  3  2.50        -1.3606   0.0000                                                             
   Description                                                                                      
     l       E           TYP  RCUT    TYP  RCUT                                                     
     1    -60.9647990     23  2.000                                                                 
     1     -5.4423304     23  2.000                                                                 
     2     -4.2382362     23  2.300                                                                 
     2     -5.5988188     23  2.300                                                                 
     0     -4.3745797     23  2.300                                                                 
     0      5.7660125     23  2.300                                                                 
     3     -1.3605826     23  2.300                                                                 
  local pseudopotential read in
  partial core-charges read in
  partial kinetic energy density read in
  atomic valenz-charges read in
  non local Contribution for L=           1  read in
    real space projection operators read in
  non local Contribution for L=           1  read in
    real space projection operators read in
  non local Contribution for L=           2  read in
    real space projection operators read in
  non local Contribution for L=           2  read in
    real space projection operators read in
  non local Contribution for L=           0  read in
    real space projection operators read in
  non local Contribution for L=           0  read in
    real space projection operators read in
    PAW grid and wavefunctions read in
 
   number of l-projection  operators is LMAX  =           6
   number of lm-projection operators is LMMAX =          18
 
 POTCAR:    PAW_PBE P 06Sep2000                   
   SHA256 =  df60c54a93efe35c9e85ae94c010c75e9f6960a95d5595d7cdba4096d109af88 P/POTCAR              
   COPYR  = (c) Copyright 06Sep2000 Georg Kresse                                                    
   COPYR  = This file is part of the software VASP. Any use, copying, and all other rights are regul
   COPYR  = If you do not have a valid VASP license, you may not use, copy or distribute this file. 
   VRHFIN =P : s2p3                                                                                 
   LEXCH  = PE                                                                                      
   EATOM  =   176.0430 eV,   12.9388 Ry                                                             
                                                                                                    
   TITEL  = PAW_PBE P 06Sep2000                                                                     
   LULTRA =        F    use ultrasoft PP ?                                                          
   IUNSCR =        1    unscreen: 0-lin 1-nonlin 2-no                                               
   RPACOR =    1.500    partial core radius                                                         
   POMASS =   30.974; ZVAL   =    5.000    mass and valenz                                          
   RCORE  =    1.900    outmost cutoff radius                                                       
   RWIGS  =    2.330; RWIGS  =    1.233    wigner-seitz radius (au A)                               
   ENMAX  =  255.040; ENMIN  =  191.280 eV                                                          
   ICORE  =        2    local potential                                                             
   LCOR   =        T    correct aug charges                                                         
   LPAW   =        T    paw PP                                                                      
   EAUG   =  342.924                                                                                
   DEXC   =    0.000                                                                                
   RMAX   =    1.935    core radius for proj-oper                                                   
   RAUG   =    1.300    factor for augmentation sphere                                              
   RDEP   =    1.931    radius for radial grids                                                     
   RDEPT  =    1.794    core radius for aug-charge                                                  
                                                                                                    
   Atomic configuration                                                                             
    6 entries                                                                                       
     n  l   j            E        occ.                                                              
     1  0  0.50     -2084.0982   2.0000                                                             
     2  0  0.50      -173.9859   2.0000                                                             
     2  1  1.50      -124.4865   6.0000                                                             
     3  0  0.50       -13.9692   2.0000                                                             
     3  1  0.50        -5.5067   3.0000                                                             
     3  2  1.50        -5.4423   0.0000                                                             
   Description                                                                                      
     l       E           TYP  RCUT    TYP  RCUT                                                     
     0    -13.9691527     23  1.900                                                                 
     0    -11.7794650     23  1.900                                                                 
     1     -5.5066937     23  1.900                                                                 
     1     -0.2556953     23  1.900                                                                 
     2     -5.4423304     23  1.900                                                                 
  local pseudopotential read in
  partial core-charges read in
  partial kinetic energy density read in
  atomic valenz-charges read in
  non local Contribution for L=           0  read in
    real space projection operators read in
  non local Contribution for L=           0  read in
    real space projection operators read in
  non local Contribution for L=           1  read in
    real space projection operators read in
  non local Contribution for L=           1  read in
    real space projection operators read in
    PAW grid and wavefunctions read in
 
   number of l-projection  operators is LMAX  =           4
   number of lm-projection operators is LMMAX =           8
 
 POTCAR:    PAW_PBE O 08Apr2002                   
   SHA256 =  818f92134a0a090dccd8ba1447fa70422a3b330e708bb4f08108d8ae51209ddf O/POTCAR              
   COPYR  = (c) Copyright 08Apr2002 Georg Kresse                                                    
   COPYR  = This file is part of the software VASP. Any use, copying, and all other rights are regul
   COPYR  = If you do not have a valid VASP license, you may not use, copy or distribute this file. 
   VRHFIN =O: s2p4                                                                                  
   LEXCH  = PE                                                                                      
   EATOM  =   432.3788 eV,   31.7789 Ry                                                             
                                                                                                    
   TITEL  = PAW_PBE O 08Apr2002                                                                     
   LULTRA =        F    use ultrasoft PP ?                                                          
   IUNSCR =        1    unscreen: 0-lin 1-nonlin 2-no                                               
   RPACOR =    1.200    partial core radius                                                         
   POMASS =   16.000; ZVAL   =    6.000    mass and valenz                                          
   RCORE  =    1.520    outmost cutoff radius                                                       
   RWIGS  =    1.550; RWIGS  =    0.820    wigner-seitz radius (au A)                               
   ENMAX  =  400.000; ENMIN  =  300.000 eV                                                          
   ICORE  =        2    local potential                                                             
   LCOR   =        T    correct aug charges                                                         
   LPAW   =        T    paw PP                                                                      
   EAUG   =  605.392                                                                                
   DEXC   =    0.000                                                                                
   RMAX   =    1.553    core radius for proj-oper                                                   
   RAUG   =    1.300    factor for augmentation sphere                                              
   RDEP   =    1.550    radius for radial grids                                                     
   RDEPT  =    1.329    core radius for aug-charge                                                  
                                                                                                    
   Atomic configuration                                                                             
    4 entries                                                                                       
     n  l   j            E        occ.                                                              
     1  0  0.50      -514.6923   2.0000                                                             
     2  0  0.50       -23.9615   2.0000                                                             
     2  1  0.50        -9.0305   4.0000                                                             
     3  2  1.50        -9.5241   0.0000                                                             
   Description                                                                                      
     l       E           TYP  RCUT    TYP  RCUT                                                     
     0    -23.9615318     23  1.200                                                                 
     0     -9.5240782     23  1.200                                                                 
     1     -9.0304911     23  1.520                                                                 
     1      8.1634956     23  1.520                                                                 
     2     -9.5240782      7  1.500                                                                 
  local pseudopotential read in
  partial core-charges read in
  partial kinetic energy density read in
  kinetic energy density of atom read in
  atomic valenz-charges read in
  non local Contribution for L=           0  read in
    real space projection operators read in
  non local Contribution for L=           0  read in
    real space projection operators read in
  non local Contribution for L=           1  read in
    real space projection operators read in
  non local Contribution for L=           1  read in
    real space projection operators read in
    PAW grid and wavefunctions read in
 
   number of l-projection  operators is LMAX  =           4
   number of lm-projection operators is LMMAX =           8
 
 Optimization of the real space projectors (new method)

 maximal supplied QI-value         = 16.25
 optimisation between [QCUT,QGAM] = [ 11.54, 23.24] = [ 37.28,151.24] Ry 
 Optimized for a Real-space Cutoff    1.58 Angstroem

   l    n(q)    QCUT    max X(q) W(low)/X(q) W(high)/X(q)  e(spline) 
   0     11    11.539    11.817    0.25E-04    0.22E-05    0.26E-07
   0     11    11.539     8.461    0.39E-04    0.49E-05    0.55E-07
   1     11    11.539     3.957    0.21E-05    0.44E-05    0.32E-07
   1     11    11.539     4.314    0.56E-04    0.44E-04    0.19E-06
   2     10    11.539    14.565    0.25E-03    0.21E-04    0.75E-06
   2     10    11.539    14.552    0.23E-03    0.22E-04    0.72E-06
 Optimization of the real space projectors (new method)

 maximal supplied QI-value         = 16.25
 optimisation between [QCUT,QGAM] = [ 11.54, 23.24] = [ 37.28,151.24] Ry 
 Optimized for a Real-space Cutoff    1.32 Angstroem

   l    n(q)    QCUT    max X(q) W(low)/X(q) W(high)/X(q)  e(spline) 
   1      9    11.539     4.946    0.12E-03    0.47E-03    0.20E-06
   1      9    11.539     5.991    0.19E-03    0.70E-03    0.29E-06
   2      8    11.539    46.947    0.22E-03    0.40E-03    0.23E-06
   2      8    11.539    42.928    0.24E-03    0.42E-03    0.23E-06
   0      9    11.539    68.324    0.11E-03    0.13E-03    0.74E-07
   0      9    11.539    36.926    0.10E-03    0.12E-03    0.70E-07
 Optimization of the real space projectors (new method)

 maximal supplied QI-value         = 19.84
 optimisation between [QCUT,QGAM] = [ 11.51, 23.22] = [ 37.09,150.92] Ry 
 Optimized for a Real-space Cutoff    1.21 Angstroem

   l    n(q)    QCUT    max X(q) W(low)/X(q) W(high)/X(q)  e(spline) 
   0      8    11.508   160.924    0.96E-04    0.17E-03    0.52E-07
   0      8    11.508   130.086    0.95E-04    0.17E-03    0.51E-07
   1      8    11.508    74.434    0.16E-03    0.74E-04    0.91E-07
   1      8    11.508    49.120    0.16E-03    0.71E-04    0.89E-07
 Optimization of the real space projectors (new method)

 maximal supplied QI-value         = 24.76
 optimisation between [QCUT,QGAM] = [ 11.64, 23.27] = [ 37.91,151.63] Ry 
 Optimized for a Real-space Cutoff    1.14 Angstroem

   l    n(q)    QCUT    max X(q) W(low)/X(q) W(high)/X(q)  e(spline) 
   0      8    11.635    20.381    0.10E-03    0.33E-03    0.24E-06
   0      8    11.635    15.268    0.11E-03    0.35E-03    0.26E-06
   1      7    11.635     5.964    0.24E-03    0.31E-03    0.30E-06
   1      7    11.635     5.382    0.22E-03    0.25E-03    0.26E-06
  PAW_PBE Ca_sv 06Sep2000               :
 energy of atom  1       EATOM=-1006.0909
 kinetic energy error for atom=    0.0022 (will be added to EATOM!!)
  PAW_PBE Co_pv 23Apr2009               :
 energy of atom  2       EATOM=-2948.1334
 kinetic energy error for atom=    0.0056 (will be added to EATOM!!)
  PAW_PBE P 06Sep2000                   :
 energy of atom  3       EATOM= -176.0430
 kinetic energy error for atom=    0.0011 (will be added to EATOM!!)
  PAW_PBE O 08Apr2002                   :
 energy of atom  4       EATOM= -432.3788
 kinetic energy error for atom=    0.0208 (will be added to EATOM!!)
 
 
 POSCAR: Ca5 Co4 P6 O24
  positions in direct lattice
  velocities in cartesian coordinates

 METAGGA = SCAN     LMAXTAU =  6    LMIXTAU =  F

 exchange correlation table for  LEXCH =        8
   RHO(1)=    0.500       N(1)  =     2000
   RHO(2)=  100.500       N(2)  =     4000
 


--------------------------------------------------------------------------------------------------------


 ion  position               nearest neighbor table
   1  0.534  0.476  0.497-  19 2.25  17 2.31  15 2.33  22 2.33  26 2.37   5 3.00
   2  0.962  0.997  0.021-  23 2.25  25 2.31  21 2.33  18 2.34  20 2.37   7 3.00
   3  0.389  0.743  0.086-  33 2.36  22 2.38  31 2.38  20 2.45  16 2.45  24 2.52  14 2.87  12 2.90

   4  0.108  0.409  0.753-  27 2.36  18 2.38  35 2.38  26 2.44  24 2.45  16 2.52  14 2.88  10 2.90

   5  0.650  0.646  0.633-  30 1.98  32 2.00  15 2.00  28 2.02  19 2.02  17 2.17   1 3.00
   6  0.156  0.144  0.155-  29 1.85  27 2.00  31 2.02  16 2.10  20 2.14  18 2.30
   7  0.846  0.864  0.849-  34 1.98  21 2.00  38 2.00  36 2.01  23 2.03  25 2.17   2 3.00
   8  0.340  0.341  0.351-  37 1.85  33 2.00  35 2.02  24 2.10  26 2.15  22 2.30
   9  0.248  0.548  0.948-  25 1.53  17 1.53  33 1.54  27 1.54
  10  0.040  0.751  0.449-  28 1.51  34 1.52  20 1.54  24 1.59   4 2.90
  11  0.962  0.244  0.557-  29 1.52  21 1.53  19 1.53  35 1.54
  12  0.456  0.048  0.744-  36 1.51  30 1.52  26 1.54  16 1.59   3 2.90
  13  0.534  0.939  0.252-  37 1.52  15 1.53  23 1.53  31 1.54
  14  0.748  0.459  0.037-  32 1.52  38 1.52  18 1.54  22 1.54   3 2.87   4 2.88
  15  0.568  0.758  0.413-  13 1.53   5 2.00   1 2.33
  16  0.264  0.071  0.911-  12 1.59   6 2.10   3 2.45   4 2.52
  17  0.411  0.560  0.764-   9 1.53   5 2.17   1 2.31
  18  0.914  0.275  0.049-  14 1.54   6 2.30   2 2.34   4 2.38
  19  0.780  0.409  0.559-  11 1.53   5 2.02   1 2.25
  20  0.075  0.907  0.259-  10 1.54   6 2.14   2 2.37   3 2.45
  21  0.928  0.084  0.738-  11 1.53   7 2.00   2 2.33
  22  0.582  0.446  0.221-  14 1.54   8 2.30   1 2.33   3 2.38
  23  0.716  0.937  0.087-  13 1.53   7 2.03   2 2.25
  24  0.232  0.585  0.425-  10 1.59   8 2.10   4 2.45   3 2.52
  25  0.084  0.732  0.936-   9 1.53   7 2.17   2 2.31
  26  0.421  0.237  0.589-  12 1.54   8 2.15   1 2.37   4 2.44
  27  0.198  0.385  0.981-   9 1.54   6 2.00   4 2.36
  28  0.888  0.699  0.477-  10 1.51   5 2.02
  29  0.027  0.189  0.385-  11 1.52   6 1.85
  30  0.487  0.874  0.713-  12 1.52   5 1.98
  31  0.392  0.944  0.198-  13 1.54   6 2.02   3 2.38
  32  0.696  0.497  0.876-  14 1.52   5 2.00
  33  0.298  0.516  0.110-   9 1.54   8 2.00   3 2.36
  34  0.010  0.783  0.621-  10 1.52   7 1.98
  35  0.104  0.298  0.552-  11 1.54   8 2.02   4 2.38
  36  0.608  0.020  0.797-  12 1.51   7 2.01
  37  0.468  0.111  0.307-  13 1.52   8 1.85
  38  0.799  0.621  0.998-  14 1.52   7 2.00
 

IMPORTANT INFORMATION: All symmetrisations will be switched off!
NOSYMM: (Re-)initialisation of all symmetry stuff for point group C_1.


----------------------------------------------------------------------------------------

                                     Primitive cell                                     

  volume of cell :     476.9636

  direct lattice vectors                    reciprocal lattice vectors
     2.574251781  7.318283147  4.407834085    -0.001225518  0.137795624 -0.001196188
    -0.025970933  0.074894620  8.654137507    -0.063044322 -0.047554967  0.115774020
     7.581941194  0.103642278  4.171290294     0.132092487 -0.046947829  0.000802703

  length of vectors
     8.922614066  8.654500545  8.654261188     0.137806265  0.140141661  0.140189758

  position of ions in fractional coordinates (direct lattice)
     0.533631301  0.475891147  0.497441620
     0.962448443  0.997363120  0.020965752
     0.389108444  0.742819480  0.086203683
     0.108248726  0.409422847  0.752656280
     0.649812750  0.645675697  0.633041838
     0.155687015  0.143914245  0.154764529
     0.846264363  0.863953224  0.849201288
     0.340452506  0.341039133  0.351231818
     0.247678850  0.547997629  0.948103755
     0.040119704  0.751404076  0.448509445
     0.961674413  0.244309937  0.556557209
     0.456229101  0.047657270  0.744431829
     0.534248884  0.939245692  0.251897031
     0.748003235  0.458582643  0.037109466
     0.567938811  0.758430475  0.412811904
     0.263854054  0.071342575  0.910904106
     0.411418065  0.560335920  0.763935457
     0.913965239  0.275379437  0.049328469
     0.779861003  0.408735834  0.559440667
     0.074690239  0.907001276  0.259432649
     0.927997925  0.083576689  0.737844520
     0.582303692  0.445792976  0.220721816
     0.715872066  0.936590641  0.087184458
     0.232427497  0.585082551  0.424533888
     0.083611927  0.731682223  0.935882432
     0.421410368  0.236565970  0.588867775
     0.197807546  0.385457267  0.980538225
     0.888348370  0.698564722  0.477414707
     0.027196098  0.188679139  0.384848054
     0.487218686  0.874255043  0.713136700
     0.391788522  0.943666939  0.198317125
     0.696395114  0.497165387  0.875830884
     0.297645504  0.516388291  0.110195404
     0.009548283  0.783091541  0.621498817
     0.104002974  0.298245523  0.551953836
     0.607697476  0.019625276  0.797112066
     0.468209134  0.111248152  0.307134542
     0.798512064  0.620809641  0.998232337

  ion indices of the primitive-cell ions
   primitive index   ion index
                 1           1
                 2           2
                 3           3
                 4           4
                 5           5
                 6           6
                 7           7
                 8           8
                 9           9
                10          10
                11          11
                12          12
                13          13
                14          14
                15          15
                16          16
                17          17
                18          18
                19          19
                20          20
                21          21
                22          22
                23          23
                24          24
                25          25
                26          26
                27          27
                28          28
                29          29
                30          30
                31          31
                32          32
                33          33
                34          34
                35          35
                36          36
                37          37
                38          38

----------------------------------------------------------------------------------------

 
 
 KPOINTS: Fully automatic kpoint scheme           

Automatic generation of k-mesh.
 generate k-points for:    4    4    4
Space group operators:
 irot       det(A)        alpha          n_x          n_y          n_z        tau_x        tau_y        tau_z
    1     1.000000     0.000001     1.000000     0.000000     0.000000     0.000000     0.000000     0.000000
 
 Subroutine IBZKPT returns following result:
 ===========================================
 
 Found     36 irreducible k-points:
 
 Following reciprocal coordinates:
            Coordinates               Weight
  0.000000  0.000000  0.000000      1.000000
  0.250000  0.000000 -0.000000      2.000000
  0.500000  0.000000  0.000000      1.000000
  0.000000  0.250000  0.000000      2.000000
  0.250000  0.250000 -0.000000      2.000000
  0.500000  0.250000  0.000000      2.000000
 -0.250000  0.250000 -0.000000      2.000000
  0.000000  0.500000  0.000000      1.000000
  0.250000  0.500000 -0.000000      2.000000
  0.500000  0.500000  0.000000      1.000000
  0.000000 -0.000000  0.250000      2.000000
  0.250000 -0.000000  0.250000      2.000000
  0.500000 -0.000000  0.250000      2.000000
 -0.250000 -0.000000  0.250000      2.000000
  0.000000  0.250000  0.250000      2.000000
  0.250000  0.250000  0.250000      2.000000
  0.500000  0.250000  0.250000      2.000000
 -0.250000  0.250000  0.250000      2.000000
  0.000000  0.500000  0.250000      2.000000
  0.250000  0.500000  0.250000      2.000000
  0.500000  0.500000  0.250000      2.000000
 -0.250000  0.500000  0.250000      2.000000
  0.000000 -0.250000  0.250000      2.000000
  0.250000 -0.250000  0.250000      2.000000
  0.500000 -0.250000  0.250000      2.000000
 -0.250000 -0.250000  0.250000      2.000000
  0.000000 -0.000000  0.500000      1.000000
  0.250000 -0.000000  0.500000      2.000000
  0.500000 -0.000000  0.500000      1.000000
 -0.000000  0.250000  0.500000      2.000000
  0.250000  0.250000  0.500000      2.000000
  0.500000  0.250000  0.500000      2.000000
 -0.250000  0.250000  0.500000      2.000000
  0.000000  0.500000  0.500000      1.000000
  0.250000  0.500000  0.500000      2.000000
  0.500000  0.500000  0.500000      1.000000
 
 Following cartesian coordinates:
            Coordinates               Weight
  0.000000  0.000000  0.000000      1.000000
 -0.000306  0.034449 -0.000299      2.000000
 -0.000613  0.068898 -0.000598      1.000000
 -0.015761 -0.011889  0.028944      2.000000
 -0.016067  0.022560  0.028644      2.000000
 -0.016374  0.057009  0.028345      2.000000
 -0.015455 -0.046338  0.029243      2.000000
 -0.031522 -0.023777  0.057887      1.000000
 -0.031829  0.010671  0.057588      2.000000
 -0.032135  0.045120  0.057289      1.000000
  0.033023 -0.011737  0.000201      2.000000
  0.032717  0.022712 -0.000098      2.000000
  0.032410  0.057161 -0.000397      2.000000
  0.033330 -0.046186  0.000500      2.000000
  0.017262 -0.023626  0.029144      2.000000
  0.016956  0.010823  0.028845      2.000000
  0.016649  0.045272  0.028546      2.000000
  0.017568 -0.058075  0.029443      2.000000
  0.001501 -0.035514  0.058088      2.000000
  0.001195 -0.001066  0.057789      2.000000
  0.000888  0.033383  0.057490      2.000000
  0.001807 -0.069963  0.058387      2.000000
  0.048784  0.000152 -0.028743      2.000000
  0.048478  0.034601 -0.029042      2.000000
  0.048171  0.069050 -0.029341      2.000000
  0.049091 -0.034297 -0.028444      2.000000
  0.066046 -0.023474  0.000401      1.000000
  0.065740  0.010975  0.000102      2.000000
  0.065433  0.045424 -0.000197      1.000000
  0.050285 -0.035363  0.029345      2.000000
  0.049979 -0.000914  0.029046      2.000000
  0.049672  0.033535  0.028747      2.000000
  0.050592 -0.069812  0.029644      2.000000
  0.034524 -0.047251  0.058288      1.000000
  0.034218 -0.012802  0.057989      2.000000
  0.033911  0.021646  0.057690      1.000000
 


--------------------------------------------------------------------------------------------------------




 Dimension of arrays:
   k-points           NKPTS =     36   k-points in BZ     NKDIM =     36   number of bands    NBANDS=    184
   number of dos      NEDOS =    301   number of ions     NIONS =     38
   non local maximal  LDIM  =      6   non local SUM 2l+1 LMDIM =     18
   total plane-waves  NPLWV = 286720
   max r-space proj   IRMAX =   9978   max aug-charges    IRDMAX=  28877
   dimension x,y,z NGX =    70 NGY =   64 NGZ =   64
   dimension x,y,z NGXF=   140 NGYF=  128 NGZF=  128
   support grid    NGXF=   140 NGYF=  128 NGZF=  128
   ions per type =               4   4   6  24
   NGX,Y,Z   is equivalent  to a cutoff of  13.04, 12.29, 12.29 a.u.
   NGXF,Y,Z  is equivalent  to a cutoff of  26.08, 24.59, 24.59 a.u.

 SYSTEM =  unknown system                          
 POSCAR =  Ca5 Co4 P6 O24                          

 Startparameter for this run:
   NWRITE =      2    write-flag & timer
   PREC   = accura    normal or accurate (medium, high low for compatibility)
   ISTART =      0    job   : 0-new  1-cont  2-samecut
   ICHARG =      1    charge: 1-file 2-atom 10-const
   ISPIN  =      2    spin polarized calculation?
   LNONCOLLINEAR =      F non collinear calculations
   LSORBIT =      F    spin-orbit coupling
   INIWAV =      1    electr: 0-lowe 1-rand  2-diag
   LASPH  =      T    aspherical Exc in radial PAW
   METAGGA=      F    non-selfconsistent MetaGGA calc.

 Electronic Relaxation 1
   ENCUT  =  520.0 eV  38.22 Ry    6.18 a.u.  16.59 16.09 16.09*2*pi/ulx,y,z
   ENINI  =  520.0     initial cutoff
   ENAUG  =  605.4 eV  augmentation charge cutoff
   NELM   =    150;   NELMIN=  6; NELMDL= -5     # of ELM steps 
   EDIFF  = 0.1E-04   stopping-criterion for ELM
   LREAL  =      T    real-space projection
   NLSPLINE    = F    spline interpolate recip. space projectors
   LCOMPAT=      F    compatible to vasp.4.4
   GGA_COMPAT  = T    GGA compatible to vasp.4.4-vasp.4.6
   LMAXPAW     = -100 max onsite density
   LMAXMIX     =    2 max onsite mixed and CHGCAR
   VOSKOWN=      0    Vosko Wilk Nusair interpolation
   ROPT   =   -0.00025  -0.00025  -0.00025  -0.00025
 Ionic relaxation
   EDIFFG = -.3E-01   stopping-criterion for IOM
   NSW    =    199    number of steps for IOM
   NBLOCK =      1;   KBLOCK =    199    inner block; outer block 
   IBRION =      2    ionic relax: 0-MD 1-quasi-New 2-CG
   NFREE  =      1    steps in history (QN), initial steepest desc. (CG)
   ISIF   =      3    stress and relaxation
   IWAVPR =     11    prediction:  0-non 1-charg 2-wave 3-comb
   ISYM   =      0    0-nonsym 1-usesym 2-fastsym
   LCORR  =      T    Harris-Foulkes like correction to forces

   POTIM  = 0.5000    time-step for ionic-motion
   TEIN   =    0.0    initial temperature
   TEBEG  =    0.0;   TEEND  =   0.0 temperature during run
   SMASS  =  -3.00    Nose mass-parameter (am)
   estimated Nose-frequenzy (Omega)   =  0.10E-29 period in steps = 0.13E+47 mass=  -0.182E-26a.u.
   SCALEE = 1.0000    scale energy and forces
   NPACO  =    256;   APACO  = 16.0  distance and # of slots for P.C.
   PSTRESS=    0.0 pullay stress

  Mass of Ions in am
   POMASS =  40.08 58.93 30.97 16.00
  Ionic Valenz
   ZVAL   =  10.00 15.00  5.00  6.00
  Atomic Wigner-Seitz radii
   RWIGS  =  -1.00 -1.00 -1.00 -1.00
  virtual crystal weights 
   VCA    =   1.00  1.00  1.00  1.00
   NELECT =     274.0000    total number of electrons
   NUPDOWN=      -1.0000    fix difference up-down

 DOS related values:
   EMIN   =  10.00;   EMAX   =-10.00  energy-range for DOS
   EFERMI =   0.00
   ISMEAR =     0;   SIGMA  =   0.05  broadening in eV -4-tet -1-fermi 0-gaus

 Electronic relaxation 2 (details)
   IALGO  =     58    algorithm
   LDIAG  =      T    sub-space diagonalisation (order eigenvalues)
   LSUBROT=      F    optimize rotation matrix (better conditioning)
   TURBO    =      0    0=normal 1=particle mesh
   IRESTART =      0    0=no restart 2=restart with 2 vectors
   NREBOOT  =      0    no. of reboots
   NMIN     =      0    reboot dimension
   EREF     =   0.00    reference energy to select bands
   IMIX   =      4    mixing-type and parameters
     AMIX     =   0.40;   BMIX     =  1.00
     AMIX_MAG =   1.60;   BMIX_MAG =  1.00
     AMIN     =   0.10
     WC   =   100.;   INIMIX=   1;  MIXPRE=   1;  MAXMIX= -45

 Intra band minimization:
   WEIMIN = 0.0010     energy-eigenvalue tresh-hold
   EBREAK =  0.14E-07  absolut break condition
   DEPER  =   0.30     relativ break condition  

   TIME   =   0.40     timestep for ELM

  volume/ion in A,a.u.               =      12.55        84.70
  Fermi-wavevector in a.u.,A,eV,Ry     =   1.360912  2.571750 25.199087  1.852081
  Thomas-Fermi vector in A             =   2.487533
 
 Write flags
   LWAVE        =      F    write WAVECAR
   LDOWNSAMPLE  =      F    k-point downsampling of WAVECAR
   LCHARG       =      T    write CHGCAR
   LVTOT        =      F    write LOCPOT, total local potential
   LVHAR        =      F    write LOCPOT, Hartree potential only
   LELF         =      F    write electronic localiz. function (ELF)
   LORBIT       =     11    0 simple, 1 ext, 2 COOP (PROOUT), +10 PAW based schemes


 Dipole corrections
   LMONO  =      F    monopole corrections only (constant potential shift)
   LDIPOL =      F    correct potential (dipole corrections)
   IDIPOL =      0    1-x, 2-y, 3-z, 4-all directions 
   EPSILON=  1.0000000 bulk dielectric constant

 Exchange correlation treatment:
   GGA     =    --    GGA type
   LEXCH   =     8    internal setting for exchange type
   VOSKOWN=      0    Vosko Wilk Nusair interpolation
   LHFCALC =     F    Hartree Fock is set to
   LHFONE  =     F    Hartree Fock one center treatment
   AEXX    =    0.0000 exact exchange contribution

 Linear response parameters
   LEPSILON=     F    determine dielectric tensor
   LRPA    =     F    only Hartree local field effects (RPA)
   LNABLA  =     F    use nabla operator in PAW spheres
   LVEL    =     F    velocity operator in full k-point grid
   LINTERFAST=   F  fast interpolation
   KINTER  =     0    interpolate to denser k-point grid
   CSHIFT  =0.1000    complex shift for real part using Kramers Kronig
   OMEGAMAX=  -1.0    maximum frequency
   DEG_THRESHOLD= 0.2000000E-02 threshold for treating states as degnerate
   RTIME   =   -0.100 relaxation time in fs
  (WPLASMAI=    0.000 imaginary part of plasma frequency in eV, 0.658/RTIME)
   DFIELD  = 0.0000000 0.0000000 0.0000000 field for delta impulse in time
 
 Orbital magnetization related:
   ORBITALMAG=     F  switch on orbital magnetization
   LCHIMAG   =     F  perturbation theory with respect to B field
   DQ        =  0.001000  dq finite difference perturbation B field
   LLRAUG    =     F  two centre corrections for induced B field



--------------------------------------------------------------------------------------------------------


 conjugate gradient relaxation of ions
 charge density and potential will be updated during run
 spin polarized calculation
 Conjugate gradient for all bands (Freysoldt, et al. PRB 79, 241103 (2009))
 preconditioned conjugated gradient                                        
 perform sub-space diagonalisation
    before iterative eigenvector-optimisation
 modified Broyden-mixing scheme, WC =      100.0
 initial mixing is a Kerker type mixing with AMIX =  0.4000 and BMIX =      1.0000
 Hartree-type preconditioning will be used
 using additional bands           47
 real space projection scheme for non local part
 use partial core corrections
 no Harris-corrections to forces 
 use gradient corrections 
 use of overlap-Matrix (Vanderbilt PP)
 Gauss-broadening in eV      SIGMA  =   0.05


--------------------------------------------------------------------------------------------------------


  energy-cutoff  :      520.00
  volume of cell :      476.96
      direct lattice vectors                 reciprocal lattice vectors
     2.574251781  7.318283147  4.407834085    -0.001225518  0.137795624 -0.001196188
    -0.025970933  0.074894620  8.654137507    -0.063044322 -0.047554967  0.115774020
     7.581941194  0.103642278  4.171290294     0.132092487 -0.046947829  0.000802703

  length of vectors
     8.922614066  8.654500545  8.654261188     0.137806265  0.140141661  0.140189758


 
 k-points in units of 2pi/SCALE and weight: Fully automatic kpoint scheme           
   0.00000000  0.00000000  0.00000000       0.016
  -0.00030638  0.03444891 -0.00029905       0.031
  -0.00061276  0.06889781 -0.00059809       0.016
  -0.01576108 -0.01188874  0.02894351       0.031
  -0.01606746  0.02256016  0.02864446       0.031
  -0.01637384  0.05700907  0.02834541       0.031
  -0.01545470 -0.04633765  0.02924255       0.031
  -0.03152216 -0.02377748  0.05788701       0.016
  -0.03182854  0.01067142  0.05758796       0.031
  -0.03213492  0.04512033  0.05728892       0.016
   0.03302312 -0.01173696  0.00020068       0.031
   0.03271674  0.02271195 -0.00009837       0.031
   0.03241036  0.05716085 -0.00039742       0.031
   0.03332950 -0.04618586  0.00049972       0.031
   0.01726204 -0.02362570  0.02914418       0.031
   0.01695566  0.01082321  0.02884513       0.031
   0.01664928  0.04527211  0.02854609       0.031
   0.01756842 -0.05807460  0.02944323       0.031
   0.00150096 -0.03551444  0.05808769       0.031
   0.00119458 -0.00106553  0.05778864       0.031
   0.00088820  0.03338337  0.05748959       0.031
   0.00180734 -0.06996335  0.05838673       0.031
   0.04878420  0.00015178 -0.02874283       0.031
   0.04847782  0.03460069 -0.02904188       0.031
   0.04817144  0.06904960 -0.02934092       0.031
   0.04909058 -0.03429712 -0.02844378       0.031
   0.06604624 -0.02347391  0.00040135       0.016
   0.06573986  0.01097499  0.00010230       0.031
   0.06543348  0.04542390 -0.00019674       0.016
   0.05028516 -0.03536266  0.02934486       0.031
   0.04997878 -0.00091375  0.02904581       0.031
   0.04967240  0.03353516  0.02874676       0.031
   0.05059154 -0.06981156  0.02964390       0.031
   0.03452408 -0.04725140  0.05828836       0.016
   0.03421770 -0.01280249  0.05798931       0.031
   0.03391132  0.02164641  0.05769027       0.016
 
 k-points in reciprocal lattice and weights: Fully automatic kpoint scheme           
   0.00000000  0.00000000  0.00000000       0.016
   0.25000000  0.00000000 -0.00000000       0.031
   0.50000000  0.00000000  0.00000000       0.016
   0.00000000  0.25000000  0.00000000       0.031
   0.25000000  0.25000000 -0.00000000       0.031
   0.50000000  0.25000000  0.00000000       0.031
  -0.25000000  0.25000000 -0.00000000       0.031
   0.00000000  0.50000000  0.00000000       0.016
   0.25000000  0.50000000 -0.00000000       0.031
   0.50000000  0.50000000  0.00000000       0.016
   0.00000000 -0.00000000  0.25000000       0.031
   0.25000000 -0.00000000  0.25000000       0.031
   0.50000000 -0.00000000  0.25000000       0.031
  -0.25000000 -0.00000000  0.25000000       0.031
   0.00000000  0.25000000  0.25000000       0.031
   0.25000000  0.25000000  0.25000000       0.031
   0.50000000  0.25000000  0.25000000       0.031
  -0.25000000  0.25000000  0.25000000       0.031
   0.00000000  0.50000000  0.25000000       0.031
   0.25000000  0.50000000  0.25000000       0.031
   0.50000000  0.50000000  0.25000000       0.031
  -0.25000000  0.50000000  0.25000000       0.031
   0.00000000 -0.25000000  0.25000000       0.031
   0.25000000 -0.25000000  0.25000000       0.031
   0.50000000 -0.25000000  0.25000000       0.031
  -0.25000000 -0.25000000  0.25000000       0.031
   0.00000000 -0.00000000  0.50000000       0.016
   0.25000000 -0.00000000  0.50000000       0.031
   0.50000000 -0.00000000  0.50000000       0.016
  -0.00000000  0.25000000  0.50000000       0.031
   0.25000000  0.25000000  0.50000000       0.031
   0.50000000  0.25000000  0.50000000       0.031
  -0.25000000  0.25000000  0.50000000       0.031
   0.00000000  0.50000000  0.50000000       0.016
   0.25000000  0.50000000  0.50000000       0.031
   0.50000000  0.50000000  0.50000000       0.016
 
 position of ions in fractional coordinates (direct lattice) 
   0.53363130  0.47589115  0.49744162
   0.96244844  0.99736312  0.02096575
   0.38910844  0.74281948  0.08620368
   0.10824873  0.40942285  0.75265628
   0.64981275  0.64567570  0.63304184
   0.15568701  0.14391425  0.15476453
   0.84626436  0.86395322  0.84920129
   0.34045251  0.34103913  0.35123182
   0.24767885  0.54799763  0.94810376
   0.04011970  0.75140408  0.44850945
   0.96167441  0.24430994  0.55655721
   0.45622910  0.04765727  0.74443183
   0.53424888  0.93924569  0.25189703
   0.74800323  0.45858264  0.03710947
   0.56793881  0.75843047  0.41281190
   0.26385405  0.07134258  0.91090411
   0.41141807  0.56033592  0.76393546
   0.91396524  0.27537944  0.04932847
   0.77986100  0.40873583  0.55944067
   0.07469024  0.90700128  0.25943265
   0.92799792  0.08357669  0.73784452
   0.58230369  0.44579298  0.22072182
   0.71587207  0.93659064  0.08718446
   0.23242750  0.58508255  0.42453389
   0.08361193  0.73168222  0.93588243
   0.42141037  0.23656597  0.58886778
   0.19780755  0.38545727  0.98053823
   0.88834837  0.69856472  0.47741471
   0.02719610  0.18867914  0.38484805
   0.48721869  0.87425504  0.71313670
   0.39178852  0.94366694  0.19831712
   0.69639511  0.49716539  0.87583088
   0.29764550  0.51638829  0.11019540
   0.00954828  0.78309154  0.62149882
   0.10400297  0.29824552  0.55195384
   0.60769748  0.01962528  0.79711207
   0.46820913  0.11124815  0.30713454
   0.79851206  0.62080964  0.99823234
 
 position of ions in cartesian coordinates  (Angst):
   5.13291510  3.99246263  8.54555907
   2.61064326  7.12034029 12.96108487
   1.63596264  2.91217329  8.50316797
   5.97462203  0.90086540  7.15989188
   6.45569882  4.86948123 11.09263433
   1.57045555  1.16618021  2.57726398
   8.59465410  6.34592083 14.74922799
   3.53057235  2.55347230  5.91714758
   7.81182263  1.95188966  9.78899011
   3.48433579  0.39636802  8.55045829
   6.68903115  7.11378601  8.67475473
   6.81744922  3.41953763  5.52865601
   3.26076653  4.00623624 11.53397745
   2.19500063  5.51229095  7.42050576
   4.57223592  4.25592415 10.78889995
   7.58379530  2.03071003  5.58007881
   6.83665495  3.13201605  9.84928323
   2.71963033  6.71439336  6.61754201
   6.23858956  5.79583746  9.30834345
   2.13571890  0.64142202  9.26070484
   7.98102350  6.87408290  7.89150873
   3.16091848  4.31772691  7.34534654
   2.47953824  5.31813607 11.62450117
   3.80192273  1.78878943  7.85874078
   7.29204125  0.76369181 10.60446337
   5.54343339  3.16274951  6.36111986
   7.93357891  1.57810552  8.29781262
   5.88842023  6.60298399 11.95260272
   2.98300474  0.25304633  3.35804405
   6.63847888  3.70499241 12.68820269
   2.48768316  2.95844895 10.72080055
   8.42028278  5.22442475 11.02547661
   1.58829845  2.22834968  6.24052429
   4.71640955  0.19293994  9.41152111
   4.44486566  0.84066595  5.34184530
   7.60751343  4.53138654  6.17345531
   3.53107502  3.46665103  4.30769233
   9.60798698  5.99369176 13.05619755
 


--------------------------------------------------------------------------------------------------------


 k-point   1 :   0.0000 0.0000 0.0000  plane waves:   12871
 k-point   2 :   0.2500 0.0000-0.0000  plane waves:   12848
 k-point   3 :   0.5000 0.0000 0.0000  plane waves:   12808
 k-point   4 :   0.0000 0.2500 0.0000  plane waves:   12850
 k-point   5 :   0.2500 0.2500-0.0000  plane waves:   12841
 k-point   6 :   0.5000 0.2500 0.0000  plane waves:   12840
 k-point   7 :  -0.2500 0.2500-0.0000  plane waves:   12816
 k-point   8 :   0.0000 0.5000 0.0000  plane waves:   12832
 k-point   9 :   0.2500 0.5000-0.0000  plane waves:   12846
 k-point  10 :   0.5000 0.5000 0.0000  plane waves:   12846
 k-point  11 :   0.0000-0.0000 0.2500  plane waves:   12849
 k-point  12 :   0.2500-0.0000 0.2500  plane waves:   12845
 k-point  13 :   0.5000-0.0000 0.2500  plane waves:   12839
 k-point  14 :  -0.2500-0.0000 0.2500  plane waves:   12821
 k-point  15 :   0.0000 0.2500 0.2500  plane waves:   12841
 k-point  16 :   0.2500 0.2500 0.2500  plane waves:   12855
 k-point  17 :   0.5000 0.2500 0.2500  plane waves:   12838
 k-point  18 :  -0.2500 0.2500 0.2500  plane waves:   12860
 k-point  19 :   0.0000 0.5000 0.2500  plane waves:   12853
 k-point  20 :   0.2500 0.5000 0.2500  plane waves:   12847
 k-point  21 :   0.5000 0.5000 0.2500  plane waves:   12838
 k-point  22 :  -0.2500 0.5000 0.2500  plane waves:   12859
 k-point  23 :   0.0000-0.2500 0.2500  plane waves:   12855
 k-point  24 :   0.2500-0.2500 0.2500  plane waves:   12831
 k-point  25 :   0.5000-0.2500 0.2500  plane waves:   12832
 k-point  26 :  -0.2500-0.2500 0.2500  plane waves:   12832
 k-point  27 :   0.0000-0.0000 0.5000  plane waves:   12838
 k-point  28 :   0.2500-0.0000 0.5000  plane waves:   12844
 k-point  29 :   0.5000-0.0000 0.5000  plane waves:   12860
 k-point  30 :  -0.0000 0.2500 0.5000  plane waves:   12857
 k-point  31 :   0.2500 0.2500 0.5000  plane waves:   12846
 k-point  32 :   0.5000 0.2500 0.5000  plane waves:   12836
 k-point  33 :  -0.2500 0.2500 0.5000  plane waves:   12863
 k-point  34 :   0.0000 0.5000 0.5000  plane waves:   12862
 k-point  35 :   0.2500 0.5000 0.5000  plane waves:   12847
 k-point  36 :   0.5000 0.5000 0.5000  plane waves:   12860

 maximum and minimum number of plane-waves per node :       828      777

 maximum number of plane-waves:     12871
 maximum index in each direction: 
   IXMAX=   16   IYMAX=   16   IZMAX=   16
   IXMIN=  -17   IYMIN=  -16   IZMIN=  -16


 real space projection operators:
  total allocation   :      15667.28 KBytes
  max/ min on nodes  :       1165.03        851.38


 parallel 3D FFT for wavefunctions:
    minimum data exchange during FFTs selected (reduces bandwidth)
 parallel 3D FFT for charge:
    minimum data exchange during FFTs selected (reduces bandwidth)


 total amount of memory used by VASP MPI-rank0   113672. kBytes
=======================================================================

   base      :      30000. kBytes
   nonlr-proj:       7867. kBytes
   fftplans  :       1630. kBytes
   grid      :       6678. kBytes
   one-center:         93. kBytes
   wavefun   :      67404. kBytes
 
     INWAV:  cpu time    0.0000: real time    0.0000
 Broyden mixing: mesh for mixing (old mesh)
   NGX = 33   NGY = 33   NGZ = 33
  (NGX  =140   NGY  =128   NGZ  =128)
  gives a total of  35937 points

 initial charge density was supplied:
 number of electron     274.0000012 magnetization      14.0000003
 keeping initial charge density in first step


--------------------------------------------------------------------------------------------------------


 Maximum index for non-local projection operator          919
 Maximum index for augmentation-charges         1782 (set IRDMAX)


--------------------------------------------------------------------------------------------------------


 First call to EWALD:  gamma=   0.227
 Maximum number of real-space cells 3x 3x 3
 Maximum number of reciprocal cells 3x 3x 3

    FEWALD:  cpu time    0.0028: real time    0.0030


--------------------------------------- Iteration      1(   1)  ---------------------------------------


    POTLOK:  cpu time    0.0979: real time    0.1068
    SETDIJ:  cpu time    0.8970: real time    0.8977
    TRIAL :  cpu time   23.4147: real time   23.4659
    CORREC:  cpu time    0.0048: real time    0.0048
    --------------------------------------------
      LOOP:  cpu time   24.4926: real time   24.5552

 eigenvalue-minimisations  : 27760
 total energy-change (2. order) : 0.3090161E+04  (-0.1465427E+05)
 number of electron     274.0000012 magnetization      14.0000003
 augmentation part      274.0000012 magnetization      14.0000003

 Free energy of the ion-electron system (eV)
  ---------------------------------------------------
  alpha Z        PSCENC =       922.13749522
  Ewald energy   TEWEN  =    -16102.68064768
  -Hartree energ DENC   =     -9767.75895669
  -exchange      EXHF   =         0.00000000
  -V(xc)+E(xc)   XCENC  =      1475.02157013
  PAW double counting   =     42934.38382456   -43867.06050545
  entropy T*S    EENTRO =        -0.00866326
  eigenvalues    EBANDS =       246.41747203
  atomic energy  EATOM  =     27249.70915408
  ---------------------------------------------------
  free energy    TOTEN  =      3090.16074295 eV

  energy without entropy =     3090.16940621  energy(sigma->0) =     3090.16507458


--------------------------------------------------------------------------------------------------------




--------------------------------------- Iteration      1(   2)  ---------------------------------------


    TRIAL :  cpu time   23.2607: real time   23.3241
    CORREC:  cpu time    0.0049: real time    0.0049
    --------------------------------------------
      LOOP:  cpu time   23.2677: real time   23.3597

 eigenvalue-minimisations  : 27432
 total energy-change (2. order) :-0.3088554E+04  (-0.2862928E+04)
 number of electron     274.0000012 magnetization      14.0000003
 augmentation part      274.0000012 magnetization      14.0000003

 Free energy of the ion-electron system (eV)
  ---------------------------------------------------
  alpha Z        PSCENC =       922.13749522
  Ewald energy   TEWEN  =    -16102.68064768
  -Hartree energ DENC   =     -9767.75895669
  -exchange      EXHF   =         0.00000000
  -V(xc)+E(xc)   XCENC  =      1475.02157013
  PAW double counting   =     42934.38382456   -43867.06050545
  entropy T*S    EENTRO =        -0.01115825
  eigenvalues    EBANDS =     -2842.13432966
  atomic energy  EATOM  =     27249.70915408
  ---------------------------------------------------
  free energy    TOTEN  =         1.60644627 eV

  energy without entropy =        1.61760452  energy(sigma->0) =        1.61202539


--------------------------------------------------------------------------------------------------------




--------------------------------------- Iteration      1(   3)  ---------------------------------------


    TRIAL :  cpu time   24.4262: real time   24.4827
    CORREC:  cpu time    0.0052: real time    0.0052
    --------------------------------------------
      LOOP:  cpu time   24.4331: real time   24.4983

 eigenvalue-minimisations  : 29888
 total energy-change (2. order) :-0.4609836E+03  (-0.4307168E+03)
 number of electron     274.0000012 magnetization      14.0000003
 augmentation part      274.0000012 magnetization      14.0000003

 Free energy of the ion-electron system (eV)
  ---------------------------------------------------
  alpha Z        PSCENC =       922.13749522
  Ewald energy   TEWEN  =    -16102.68064768
  -Hartree energ DENC   =     -9767.75895669
  -exchange      EXHF   =         0.00000000
  -V(xc)+E(xc)   XCENC  =      1475.02157013
  PAW double counting   =     42934.38382456   -43867.06050545
  entropy T*S    EENTRO =        -0.02081474
  eigenvalues    EBANDS =     -3303.10832125
  atomic energy  EATOM  =     27249.70915408
  ---------------------------------------------------
  free energy    TOTEN  =      -459.37720181 eV

  energy without entropy =     -459.35638707  energy(sigma->0) =     -459.36679444


--------------------------------------------------------------------------------------------------------




--------------------------------------- Iteration      1(   4)  ---------------------------------------


    TRIAL :  cpu time   26.3280: real time   26.3856
    CORREC:  cpu time    0.0049: real time    0.0049
    --------------------------------------------
      LOOP:  cpu time   26.3378: real time   26.4280

 eigenvalue-minimisations  : 33544
 total energy-change (2. order) :-0.2902507E+02  (-0.2870801E+02)
 number of electron     274.0000012 magnetization      14.0000003
 augmentation part      274.0000012 magnetization      14.0000003

 Free energy of the ion-electron system (eV)
  ---------------------------------------------------
  alpha Z        PSCENC =       922.13749522
  Ewald energy   TEWEN  =    -16102.68064768
  -Hartree energ DENC   =     -9767.75895669
  -exchange      EXHF   =         0.00000000
  -V(xc)+E(xc)   XCENC  =      1475.02157013
  PAW double counting   =     42934.38382456   -43867.06050545
  entropy T*S    EENTRO =        -0.02010615
  eigenvalues    EBANDS =     -3332.13410159
  atomic energy  EATOM  =     27249.70915408
  ---------------------------------------------------
  free energy    TOTEN  =      -488.40227355 eV

  energy without entropy =     -488.38216741  energy(sigma->0) =     -488.39222048


--------------------------------------------------------------------------------------------------------




--------------------------------------- Iteration      1(   5)  ---------------------------------------


    TRIAL :  cpu time   32.4891: real time   32.5480
    CORREC:  cpu time    0.0047: real time    0.0047
    CHARGE:  cpu time    2.7548: real time    2.7612
    --------------------------------------------
      LOOP:  cpu time   35.2490: real time   35.3143

 eigenvalue-minimisations  : 45464
 total energy-change (2. order) :-0.1766564E+01  (-0.1758937E+01)
 number of electron     274.0000012 magnetization      14.0000003
 augmentation part       61.9090887 magnetization      10.2215767

 Free energy of the ion-electron system (eV)
  ---------------------------------------------------
  alpha Z        PSCENC =       922.13749522
  Ewald energy   TEWEN  =    -16102.68064768
  -Hartree energ DENC   =     -9767.75895669
  -exchange      EXHF   =         0.00000000
  -V(xc)+E(xc)   XCENC  =      1475.02157013
  PAW double counting   =     42934.38382456   -43867.06050545
  entropy T*S    EENTRO =        -0.02009452
  eigenvalues    EBANDS =     -3333.90067691
  atomic energy  EATOM  =     27249.70915408
  ---------------------------------------------------
  free energy    TOTEN  =      -490.16883725 eV

  energy without entropy =     -490.14874273  energy(sigma->0) =     -490.15878999


--------------------------------------------------------------------------------------------------------




--------------------------------------- Iteration      1(   6)  ---------------------------------------


    POTLOK:  cpu time    0.0928: real time    0.1001
    SETDIJ:  cpu time    0.8975: real time    0.8976
    TRIAL :  cpu time   17.8825: real time   17.9262
    CORREC:  cpu time    9.5660: real time    9.5837
    CHARGE:  cpu time    2.7458: real time    2.7622
    --------------------------------------------
      LOOP:  cpu time   31.1860: real time   31.3161

 eigenvalue-minimisations  :     0
 total energy-change (2. order) : 0.8270816E+02  (-0.1045537E+01)
 number of electron     274.0000012 magnetization      14.0000003
 augmentation part       62.1249478 magnetization      10.2362328

 Free energy of the ion-electron system (eV)
  ---------------------------------------------------
  alpha Z        PSCENC =       922.13749522
  Ewald energy   TEWEN  =    -16102.68064768
  -Hartree energ DENC   =     -9574.94976021
  -exchange      EXHF   =         0.00000000
  -V(xc)+E(xc)   XCENC  =      1493.30226340
  PAW double counting   =     42940.68132285   -43851.83687344
  entropy T*S    EENTRO =        -0.02508800
  eigenvalues    EBANDS =     -3483.80353242
  atomic energy  EATOM  =     27249.70915408
  ---------------------------------------------------
  free energy    TOTEN  =      -407.46067272 eV

  energy without entropy =     -407.43558472  energy(sigma->0) =     -407.44812872


--------------------------------------------------------------------------------------------------------




--------------------------------------- Iteration      1(   7)  ---------------------------------------


    POTLOK:  cpu time    0.0934: real time    0.0934
    SETDIJ:  cpu time    0.8982: real time    0.8983
    TRIAL :  cpu time   17.8986: real time   17.9185
    CORREC:  cpu time    9.5449: real time    9.5684
    CHARGE:  cpu time    2.7475: real time    2.7684
    --------------------------------------------
      LOOP:  cpu time   31.1883: real time   31.2851

 eigenvalue-minimisations  :     0
 total energy-change (2. order) :-0.9433860E+00  (-0.2374361E+01)
 number of electron     274.0000013 magnetization      14.0000003
 augmentation part       63.2294478 magnetization      10.2949768

 Free energy of the ion-electron system (eV)
  ---------------------------------------------------
  alpha Z        PSCENC =       922.13749522
  Ewald energy   TEWEN  =    -16102.68064768
  -Hartree energ DENC   =     -9609.95519039
  -exchange      EXHF   =         0.00000000
  -V(xc)+E(xc)   XCENC  =      1495.70721584
  PAW double counting   =     42893.74284493   -43808.89909180
  entropy T*S    EENTRO =        -0.01785443
  eigenvalues    EBANDS =     -3448.14075088
  atomic energy  EATOM  =     27249.70915408
  ---------------------------------------------------
  free energy    TOTEN  =      -408.40405867 eV

  energy without entropy =     -408.38620424  energy(sigma->0) =     -408.39513145


--------------------------------------------------------------------------------------------------------




--------------------------------------- Iteration      1(   8)  ---------------------------------------


    POTLOK:  cpu time    0.0921: real time    0.0988
    SETDIJ:  cpu time    0.8994: real time    0.8995
    TRIAL :  cpu time   17.9282: real time   17.9679
    CORREC:  cpu time    9.4871: real time    9.5181
    CHARGE:  cpu time    2.7464: real time    2.7467
    --------------------------------------------
      LOOP:  cpu time   31.1578: real time   31.2798

 eigenvalue-minimisations  :     0
 total energy-change (2. order) :-0.2253397E+01  (-0.3610349E+00)
 number of electron     274.0000013 magnetization      14.0000003
 augmentation part       63.3548259 magnetization      10.3002078

 Free energy of the ion-electron system (eV)
  ---------------------------------------------------
  alpha Z        PSCENC =       922.13749522
  Ewald energy   TEWEN  =    -16102.68064768
  -Hartree energ DENC   =     -9782.14997478
  -exchange      EXHF   =         0.00000000
  -V(xc)+E(xc)   XCENC  =      1507.97791243
  PAW double counting   =     42686.53728175   -43621.95289363
  entropy T*S    EENTRO =        -0.01715644
  eigenvalues    EBANDS =     -3270.21792822
  atomic energy  EATOM  =     27249.70915408
  ---------------------------------------------------
  free energy    TOTEN  =      -410.65745526 eV

  energy without entropy =     -410.64029882  energy(sigma->0) =     -410.64887704


--------------------------------------------------------------------------------------------------------




--------------------------------------- Iteration      1(   9)  ---------------------------------------


    POTLOK:  cpu time    0.0935: real time    0.0936
    SETDIJ:  cpu time    0.9013: real time    0.9014
    TRIAL :  cpu time   17.8898: real time   17.9290
    CORREC:  cpu time    9.5019: real time    9.5219
    CHARGE:  cpu time    2.7478: real time    2.7480
    --------------------------------------------
      LOOP:  cpu time   31.1364: real time   31.2301

 eigenvalue-minimisations  :     0
 total energy-change (2. order) :-0.3350983E+00  (-0.3925088E+00)
 number of electron     274.0000012 magnetization      14.0000003
 augmentation part       63.3142811 magnetization      10.3092177

 Free energy of the ion-electron system (eV)
  ---------------------------------------------------
  alpha Z        PSCENC =       922.13749522
  Ewald energy   TEWEN  =    -16102.68064768
  -Hartree energ DENC   =     -9798.95567378
  -exchange      EXHF   =         0.00000000
  -V(xc)+E(xc)   XCENC  =      1509.30171667
  PAW double counting   =     42673.90502214   -43610.79099818
  entropy T*S    EENTRO =        -0.01460825
  eigenvalues    EBANDS =     -3253.60146561
  atomic energy  EATOM  =     27249.70915408
  ---------------------------------------------------
  free energy    TOTEN  =      -410.99255358 eV

  energy without entropy =     -410.97794533  energy(sigma->0) =     -410.98524945


--------------------------------------------------------------------------------------------------------




--------------------------------------- Iteration      1(  10)  ---------------------------------------


    POTLOK:  cpu time    0.0911: real time    0.0912
    SETDIJ:  cpu time    0.9004: real time    0.9005
    TRIAL :  cpu time   17.9153: real time   17.9523
    CORREC:  cpu time    9.4680: real time    9.4865
    CHARGE:  cpu time    2.7498: real time    2.7500
    --------------------------------------------
      LOOP:  cpu time   31.1283: real time   31.2211

 eigenvalue-minimisations  :     0
 total energy-change (2. order) :-0.3926195E+00  (-0.2274100E+00)
 number of electron     274.0000012 magnetization      14.0000003
 augmentation part       63.2969747 magnetization      10.3145626

 Free energy of the ion-electron system (eV)
  ---------------------------------------------------
  alpha Z        PSCENC =       922.13749522
  Ewald energy   TEWEN  =    -16102.68064768
  -Hartree energ DENC   =     -9773.78752928
  -exchange      EXHF   =         0.00000000
  -V(xc)+E(xc)   XCENC  =      1508.43126461
  PAW double counting   =     42765.56911328   -43694.90959914
  entropy T*S    EENTRO =        -0.01452077
  eigenvalues    EBANDS =     -3285.83981593
  atomic energy  EATOM  =     27249.70915408
  ---------------------------------------------------
  free energy    TOTEN  =      -411.38517309 eV

  energy without entropy =     -411.37065232  energy(sigma->0) =     -411.37791271


--------------------------------------------------------------------------------------------------------




--------------------------------------- Iteration      1(  11)  ---------------------------------------


    POTLOK:  cpu time    0.0917: real time    0.0918
    SETDIJ:  cpu time    0.8990: real time    0.8990
    TRIAL :  cpu time   17.8948: real time   17.9414
    CORREC:  cpu time    9.4764: real time    9.5544
    CHARGE:  cpu time    2.7465: real time    2.7495
    --------------------------------------------
      LOOP:  cpu time   31.1132: real time   31.2725

 eigenvalue-minimisations  :     0
 total energy-change (2. order) :-0.1439144E+00  (-0.1384087E+00)
 number of electron     274.0000012 magnetization      14.0000003
 augmentation part       63.3491251 magnetization      10.3153090

 Free energy of the ion-electron system (eV)
  ---------------------------------------------------
  alpha Z        PSCENC =       922.13749522
  Ewald energy   TEWEN  =    -16102.68064768
  -Hartree energ DENC   =     -9757.96910305
  -exchange      EXHF   =         0.00000000
  -V(xc)+E(xc)   XCENC  =      1507.69711033
  PAW double counting   =     42847.26359512   -43773.16968491
  entropy T*S    EENTRO =        -0.01307867
  eigenvalues    EBANDS =     -3304.50248588
  atomic energy  EATOM  =     27249.70915408
  ---------------------------------------------------
  free energy    TOTEN  =      -411.52908752 eV

  energy without entropy =     -411.51600885  energy(sigma->0) =     -411.52254819


--------------------------------------------------------------------------------------------------------




--------------------------------------- Iteration      1(  12)  ---------------------------------------


    POTLOK:  cpu time    0.0929: real time    0.1008
    SETDIJ:  cpu time    0.9011: real time    0.9012
    TRIAL :  cpu time   17.9473: real time   17.9833
    CORREC:  cpu time    9.5476: real time    9.5646
    CHARGE:  cpu time    2.7457: real time    2.7460
    --------------------------------------------
      LOOP:  cpu time   31.2385: real time   31.3388

 eigenvalue-minimisations  :     0
 total energy-change (2. order) :-0.1431736E+00  (-0.1071110E+00)
 number of electron     274.0000012 magnetization      14.0000003
 augmentation part       63.4284400 magnetization      10.3185995

 Free energy of the ion-electron system (eV)
  ---------------------------------------------------
  alpha Z        PSCENC =       922.13749522
  Ewald energy   TEWEN  =    -16102.68064768
  -Hartree energ DENC   =     -9750.33362172
  -exchange      EXHF   =         0.00000000
  -V(xc)+E(xc)   XCENC  =      1507.05115753
  PAW double counting   =     42974.22715477   -43901.22131315
  entropy T*S    EENTRO =        -0.01270141
  eigenvalues    EBANDS =     -3310.54856148
  atomic energy  EATOM  =     27249.70915408
  ---------------------------------------------------
  free energy    TOTEN  =      -411.67226110 eV

  energy without entropy =     -411.65955969  energy(sigma->0) =     -411.66591039


--------------------------------------------------------------------------------------------------------




--------------------------------------- Iteration      1(  13)  ---------------------------------------


    POTLOK:  cpu time    0.0937: real time    0.0937
    SETDIJ:  cpu time    0.8984: real time    0.8984
    TRIAL :  cpu time   17.8939: real time   17.9307
    CORREC:  cpu time    9.5062: real time    9.5255
    CHARGE:  cpu time    2.7485: real time    2.7487
    --------------------------------------------
      LOOP:  cpu time   31.1440: real time   31.2380

 eigenvalue-minimisations  :     0
 total energy-change (2. order) :-0.9967464E-01  (-0.7732426E-01)
 number of electron     274.0000012 magnetization      14.0000003
 augmentation part       63.5108207 magnetization      10.3178909

 Free energy of the ion-electron system (eV)
  ---------------------------------------------------
  alpha Z        PSCENC =       922.13749522
  Ewald energy   TEWEN  =    -16102.68064768
  -Hartree energ DENC   =     -9755.92034196
  -exchange      EXHF   =         0.00000000
  -V(xc)+E(xc)   XCENC  =      1507.09474061
  PAW double counting   =     43045.85864230   -43976.50098727
  entropy T*S    EENTRO =        -0.01147081
  eigenvalues    EBANDS =     -3301.45728963
  atomic energy  EATOM  =     27249.70915408
  ---------------------------------------------------
  free energy    TOTEN  =      -411.77193574 eV

  energy without entropy =     -411.76046493  energy(sigma->0) =     -411.76620033


--------------------------------------------------------------------------------------------------------




--------------------------------------- Iteration      1(  14)  ---------------------------------------


    POTLOK:  cpu time    0.0908: real time    0.0908
    SETDIJ:  cpu time    0.8794: real time    0.8981
    TRIAL :  cpu time   17.9258: real time   17.9457
    CORREC:  cpu time    9.4998: real time    9.5167
    CHARGE:  cpu time    2.7445: real time    2.7610
    --------------------------------------------
      LOOP:  cpu time   31.1471: real time   31.2542

 eigenvalue-minimisations  :     0
 total energy-change (2. order) :-0.7343814E-01  (-0.4356613E-01)
 number of electron     274.0000012 magnetization      14.0000003
 augmentation part       63.5371662 magnetization      10.3200302

 Free energy of the ion-electron system (eV)
  ---------------------------------------------------
  alpha Z        PSCENC =       922.13749522
  Ewald energy   TEWEN  =    -16102.68064768
  -Hartree energ DENC   =     -9764.35004981
  -exchange      EXHF   =         0.00000000
  -V(xc)+E(xc)   XCENC  =      1507.34027142
  PAW double counting   =     43095.35855122   -44029.84843925
  entropy T*S    EENTRO =        -0.01109122
  eigenvalues    EBANDS =     -3289.50023827
  atomic energy  EATOM  =     27249.70915408
  ---------------------------------------------------
  free energy    TOTEN  =      -411.84537388 eV

  energy without entropy =     -411.83428266  energy(sigma->0) =     -411.83982827


--------------------------------------------------------------------------------------------------------




--------------------------------------- Iteration      1(  15)  ---------------------------------------


    POTLOK:  cpu time    0.0916: real time    0.0916
    SETDIJ:  cpu time    0.9021: real time    0.9022
    TRIAL :  cpu time   17.9288: real time   17.9510
    CORREC:  cpu time    9.4831: real time    9.5108
    CHARGE:  cpu time    2.7488: real time    2.7653
    --------------------------------------------
      LOOP:  cpu time   31.1580: real time   31.2547

 eigenvalue-minimisations  :     0
 total energy-change (2. order) :-0.4300880E-01  (-0.4119961E-01)
 number of electron     274.0000012 magnetization      14.0000003
 augmentation part       63.5479163 magnetization      10.3193945

 Free energy of the ion-electron system (eV)
  ---------------------------------------------------
  alpha Z        PSCENC =       922.13749522
  Ewald energy   TEWEN  =    -16102.68064768
  -Hartree energ DENC   =     -9768.71350378
  -exchange      EXHF   =         0.00000000
  -V(xc)+E(xc)   XCENC  =      1507.71007130
  PAW double counting   =     43080.96872794   -44016.13421125
  entropy T*S    EENTRO =        -0.01023874
  eigenvalues    EBANDS =     -3284.87437729
  atomic energy  EATOM  =     27249.70915408
  ---------------------------------------------------
  free energy    TOTEN  =      -411.88838268 eV

  energy without entropy =     -411.87814393  energy(sigma->0) =     -411.88326331


--------------------------------------------------------------------------------------------------------




--------------------------------------- Iteration      1(  16)  ---------------------------------------


    POTLOK:  cpu time    0.0906: real time    0.0906
    SETDIJ:  cpu time    0.8984: real time    0.8985
    TRIAL :  cpu time   17.9415: real time   17.9803
    CORREC:  cpu time    9.5140: real time    9.5336
    CHARGE:  cpu time    2.7482: real time    2.7484
    --------------------------------------------
      LOOP:  cpu time   31.1965: real time   31.2929

 eigenvalue-minimisations  :     0
 total energy-change (2. order) :-0.4118967E-01  (-0.1306861E-01)
 number of electron     274.0000012 magnetization      14.0000003
 augmentation part       63.5291361 magnetization      10.3192185

 Free energy of the ion-electron system (eV)
  ---------------------------------------------------
  alpha Z        PSCENC =       922.13749522
  Ewald energy   TEWEN  =    -16102.68064768
  -Hartree energ DENC   =     -9771.33401035
  -exchange      EXHF   =         0.00000000
  -V(xc)+E(xc)   XCENC  =      1508.04258435
  PAW double counting   =     43053.39481027   -43988.41467737
  entropy T*S    EENTRO =        -0.01017535
  eigenvalues    EBANDS =     -3282.77404212
  atomic energy  EATOM  =     27249.70915408
  ---------------------------------------------------
  free energy    TOTEN  =      -411.92957235 eV

  energy without entropy =     -411.91939700  energy(sigma->0) =     -411.92448467


--------------------------------------------------------------------------------------------------------




--------------------------------------- Iteration      1(  17)  ---------------------------------------


    POTLOK:  cpu time    0.0921: real time    0.0921
    SETDIJ:  cpu time    0.8982: real time    0.8983
    TRIAL :  cpu time   17.8968: real time   17.9347
    CORREC:  cpu time    9.5365: real time    9.5628
    CHARGE:  cpu time    2.7444: real time    2.7446
    --------------------------------------------
      LOOP:  cpu time   31.1712: real time   31.2694

 eigenvalue-minimisations  :     0
 total energy-change (2. order) :-0.1322587E-01  (-0.1479726E-01)
 number of electron     274.0000012 magnetization      14.0000003
 augmentation part       63.5027787 magnetization      10.3163280

 Free energy of the ion-electron system (eV)
  ---------------------------------------------------
  alpha Z        PSCENC =       922.13749522
  Ewald energy   TEWEN  =    -16102.68064768
  -Hartree energ DENC   =     -9769.16879437
  -exchange      EXHF   =         0.00000000
  -V(xc)+E(xc)   XCENC  =      1508.00801392
  PAW double counting   =     43034.69133077   -43968.77369875
  entropy T*S    EENTRO =        -0.00957795
  eigenvalues    EBANDS =     -3285.85547605
  atomic energy  EATOM  =     27249.70915408
  ---------------------------------------------------
  free energy    TOTEN  =      -411.94279822 eV

  energy without entropy =     -411.93322027  energy(sigma->0) =     -411.93800924


--------------------------------------------------------------------------------------------------------




--------------------------------------- Iteration      1(  18)  ---------------------------------------


    POTLOK:  cpu time    0.0913: real time    0.0914
    SETDIJ:  cpu time    0.8991: real time    0.8992
    TRIAL :  cpu time   17.9781: real time   18.0154
    CORREC:  cpu time    9.4743: real time    9.4915
    CHARGE:  cpu time    2.7502: real time    2.7504
    --------------------------------------------
      LOOP:  cpu time   31.1957: real time   31.2910

[...]
 -0.000   0.000  -0.000  -0.000   0.000   0.000   0.000   0.000   0.000   0.001   0.001   0.000  -0.000  -0.000  -0.000  -0.000
  0.000   0.000  -0.000  -0.000  -0.000   0.000   0.000  -0.000   0.000   0.000   0.000  -0.000  -0.000  -0.000  -0.000  -0.000


------------------------ aborting loop because EDIFF is reached ----------------------------------------


 


 total charge     
 
# of ion       s       p       d       tot
------------------------------------------
    1        2.023   5.873   0.219   8.116
    2        2.023   5.873   0.219   8.116
    3        2.021   5.869   0.230   8.120
    4        2.021   5.869   0.230   8.120
    5        0.309   6.370   6.917  13.596
    6        0.313   6.366   6.969  13.648
    7        0.309   6.370   6.916  13.596
    8        0.313   6.366   6.970  13.649
    9        0.899   1.513   0.000   2.412
   10        0.903   1.525   0.000   2.428
   11        0.898   1.527   0.000   2.425
   12        0.903   1.525   0.000   2.427
   13        0.898   1.527   0.000   2.425
   14        0.907   1.552   0.000   2.458
   15        1.572   3.649   0.000   5.221
   16        1.571   3.623   0.000   5.193
   17        1.573   3.630   0.000   5.203
   18        1.576   3.641   0.000   5.216
   19        1.574   3.654   0.000   5.228
   20        1.573   3.643   0.000   5.216
   21        1.572   3.649   0.000   5.221
   22        1.576   3.641   0.000   5.217
   23        1.574   3.654   0.000   5.228
   24        1.571   3.623   0.000   5.194
   25        1.573   3.631   0.000   5.203
   26        1.573   3.643   0.000   5.216
   27        1.568   3.642   0.000   5.210
   28        1.575   3.622   0.000   5.197
   29        1.570   3.638   0.000   5.208
   30        1.574   3.631   0.000   5.205
   31        1.571   3.639   0.000   5.210
   32        1.574   3.627   0.000   5.201
   33        1.568   3.642   0.000   5.210
   34        1.574   3.632   0.000   5.206
   35        1.571   3.640   0.000   5.211
   36        1.575   3.622   0.000   5.197
   37        1.570   3.639   0.000   5.209
   38        1.574   3.626   0.000   5.200
--------------------------------------------------
tot         52.482 145.404  28.670 226.556
 


 magnetization (x)
 
# of ion       s       p       d       tot
------------------------------------------
    1       -0.000   0.000  -0.001  -0.000
    2       -0.000   0.000  -0.001  -0.000
    3       -0.000  -0.000  -0.001  -0.002
    4       -0.000  -0.000  -0.001  -0.002
    5        0.002   0.010   2.973   2.985
    6        0.004   0.015   2.891   2.910
    7        0.002   0.010   2.973   2.985
    8        0.004   0.015   2.889   2.909
    9        0.002   0.007   0.000   0.009
   10        0.004   0.010   0.000   0.014
   11        0.003   0.007   0.000   0.011
   12        0.004   0.010   0.000   0.014
   13        0.003   0.007   0.000   0.011
   14        0.004   0.009   0.000   0.013
   15        0.008   0.092   0.000   0.100
   16        0.006   0.052   0.000   0.058
   17        0.006   0.058   0.000   0.065
   18        0.004   0.030   0.000   0.034
   19        0.008   0.088   0.000   0.096
   20        0.005   0.041   0.000   0.046
   21        0.009   0.093   0.000   0.101
   22        0.004   0.030   0.000   0.034
   23        0.007   0.087   0.000   0.095
   24        0.006   0.051   0.000   0.057
   25        0.006   0.058   0.000   0.064
   26        0.005   0.041   0.000   0.046
   27        0.008   0.061   0.000   0.069
   28        0.009   0.061   0.000   0.070
   29        0.011   0.150   0.000   0.161
   30        0.009   0.059   0.000   0.067
   31        0.007   0.069   0.000   0.076
   32        0.009   0.059   0.000   0.067
   33        0.008   0.061   0.000   0.068
   34        0.009   0.059   0.000   0.067
   35        0.007   0.068   0.000   0.075
   36        0.009   0.062   0.000   0.070
   37        0.011   0.150   0.000   0.162
   38        0.009   0.058   0.000   0.066
--------------------------------------------------
tot          0.213   1.737  11.723  13.673
 
    FORLOC:  cpu time    0.0023: real time    0.0023
    FORNL :  cpu time    1.6895: real time    1.6897
    STRESS:  cpu time   51.3908: real time   51.3975
    FORCOR:  cpu time    0.0794: real time    0.0794
    OFIELD:  cpu time    0.0002: real time    0.0002

  FORCE on cell =-STRESS in cart. coord.  units (eV):
  Direction    XX          YY          ZZ          XY          YZ          ZX
  --------------------------------------------------------------------------------------
  Alpha Z   922.02120   922.02120   922.02120
  Ewald   -5208.05234 -6121.71493 -4772.51659   -68.65742  -120.78610   392.88113
  Hartree  3352.73121  2755.34050  3659.72967   -48.29118   -82.36459   277.68177
  E(xc)   -1502.19384 -1502.08488 -1501.97501     0.01234     0.03589     0.20786
  Local   -2387.03838  -889.02441 -3136.31833   111.05005   192.78447  -677.67201
  n-local  -549.61061  -552.77417  -550.55052    -0.95297    -1.78971    -1.01109
  augment   861.79273   864.79585   868.88748     4.48646     7.67147     6.92407
  Kinetic  4510.35004  4523.50337  4510.69409     2.33397     4.45269     1.01034
  Fock        0.00000     0.00000     0.00000     0.00000     0.00000     0.00000
  -------------------------------------------------------------------------------------
  Total      -0.00000     0.06253    -0.02802    -0.01875     0.00410     0.02207
  in kB      -0.00001     0.21001    -0.09413    -0.06298     0.01378     0.07412
  external pressure =        0.04 kB  Pullay stress =        0.00 kB


 VOLUME and BASIS-vectors are now :
 -----------------------------------------------------------------------------
  energy-cutoff  :      520.00
  volume of cell :      477.02
      direct lattice vectors                 reciprocal lattice vectors
     2.574343391  7.319485097  4.409179386    -0.001235464  0.137787692 -0.001214388
    -0.026874491  0.076034519  8.654421825    -0.063029101 -0.047570630  0.115770083
     7.581778826  0.104740816  4.170812296     0.132091249 -0.046953529  0.000822698

  length of vectors
     8.924290943  8.654797549  8.653901780     0.137798582  0.140136878  0.140190616


 FORCES acting on ions:
    Electron-Ion                     Ewald-Force                    Non-Local-Force
 -----------------------------------------------------------------------------------------------
   -.487E+01 -.738E+02 0.652E+02   0.590E+01 0.750E+02 -.636E+02   -.102E+01 -.115E+01 -.161E+01
   -.607E+02 0.727E+02 -.276E+02   0.597E+02 -.738E+02 0.259E+02   0.933E+00 0.115E+01 0.167E+01
   0.409E+02 -.337E+02 0.165E+02   -.390E+02 0.322E+02 -.168E+02   -.189E+01 0.145E+01 0.237E+00
   0.408E+01 0.355E+02 -.443E+02   -.296E+01 -.340E+02 0.427E+02   -.112E+01 -.146E+01 0.159E+01
   0.738E+02 0.538E+01 -.469E+02   -.740E+02 -.409E+01 0.486E+02   0.237E+00 -.129E+01 -.171E+01
   -.110E+03 0.113E+03 -.126E+03   0.115E+03 -.111E+03 0.131E+03   -.529E+01 -.182E+01 -.476E+01
   0.755E+02 -.459E+01 -.397E+02   -.772E+02 0.337E+01 0.391E+02   0.163E+01 0.119E+01 0.569E+00
   0.574E+02 -.112E+03 0.157E+03   -.589E+02 0.110E+03 -.164E+03   0.145E+01 0.190E+01 0.696E+01
   0.158E+01 0.283E+00 -.953E+00   -.292E+01 -.298E+00 0.177E+01   0.140E+01 0.232E-01 -.852E+00
   0.407E+02 0.550E+02 -.511E+02   -.386E+02 -.588E+02 0.501E+02   -.219E+01 0.393E+01 0.105E+01
   0.117E+02 0.126E+02 0.376E+02   -.115E+02 -.129E+02 -.374E+02   -.233E+00 0.345E+00 -.256E+00
   0.658E+02 -.543E+02 -.102E+02   -.639E+02 0.581E+02 0.893E+01   -.200E+01 -.395E+01 0.133E+01
   -.278E+02 -.131E+02 -.284E+02   0.277E+02 0.135E+02 0.281E+02   0.101E+00 -.410E+00 0.310E+00
   -.758E+02 -.169E+01 0.443E+02   0.730E+02 0.162E+01 -.426E+02   0.298E+01 0.687E-01 -.174E+01
   0.945E+02 0.306E+02 0.319E+02   -.699E+02 -.268E+02 -.488E+02   -.246E+02 -.382E+01 0.169E+02
   0.104E+03 0.235E+02 0.100E+03   -.933E+02 -.494E+02 -.102E+03   -.103E+02 0.259E+02 0.174E+01
   0.304E+02 0.478E+02 0.708E+02   -.512E+02 -.236E+02 -.700E+02   0.209E+02 -.241E+02 -.773E+00
   -.673E+02 0.105E+03 0.920E+02   0.820E+02 -.810E+02 -.110E+03   -.147E+02 -.242E+02 0.179E+02
   0.628E+02 -.154E+02 0.151E+03   -.731E+02 -.106E+02 -.140E+03   0.103E+02 0.260E+02 -.105E+02
   0.554E+01 0.154E+03 0.556E+02   -.331E+02 -.153E+03 -.408E+02   0.276E+02 -.164E+01 -.148E+02
   0.163E+02 -.315E+02 -.100E+03   0.105E+02 0.279E+02 0.872E+02   -.268E+02 0.356E+01 0.131E+02
   -.113E+03 -.107E+03 0.150E+02   0.136E+03 0.829E+02 -.194E+02   -.230E+02 0.240E+02 0.438E+01
   -.102E+03 0.147E+02 -.127E+03   0.875E+02 0.112E+02 0.131E+03   0.144E+02 -.259E+02 -.392E+01
   -.371E+02 -.233E+02 -.138E+03   0.433E+02 0.493E+02 0.129E+03   -.627E+01 -.260E+02 0.815E+01
   -.482E+02 -.471E+02 -.602E+02   0.375E+02 0.227E+02 0.779E+02   0.106E+02 0.244E+02 -.177E+02
   -.441E+02 -.154E+03 -.310E+02   0.177E+02 0.152E+03 0.478E+02   0.264E+02 0.182E+01 -.169E+02
   0.360E+02 -.368E+02 -.923E+02   -.357E+02 0.297E+02 0.647E+02   -.261E+00 0.709E+01 0.276E+02
   0.161E+03 -.924E+01 -.194E+02   -.171E+03 -.136E+02 -.620E+01   0.948E+01 0.229E+02 0.257E+02
   -.823E+02 0.135E+03 -.117E+02   0.628E+02 -.130E+03 -.759E+01   0.195E+02 -.500E+01 0.193E+02
   0.920E+02 0.965E+02 -.193E+02   -.983E+02 -.981E+02 -.141E+02   0.635E+01 0.160E+01 0.334E+02
   -.100E+03 -.759E+02 0.307E+02   0.863E+02 0.563E+02 -.502E+02   0.139E+02 0.196E+02 0.195E+02
   -.778E+02 -.157E+01 0.139E+03   0.511E+02 -.779E+01 -.158E+03   0.267E+02 0.937E+01 0.184E+02
   0.975E+02 0.388E+02 0.121E+02   -.733E+02 -.316E+02 0.125E+01   -.242E+02 -.716E+01 -.134E+02
   0.609E+02 -.973E+02 -.704E+02   -.348E+02 0.991E+02 0.922E+02   -.261E+02 -.189E+01 -.218E+02
   -.761E+02 0.756E+02 0.721E+02   0.863E+02 -.560E+02 -.503E+02   -.102E+02 -.195E+02 -.218E+02
   0.956E+02 0.116E+02 -.132E+03   -.779E+02 0.111E+02 0.153E+03   -.177E+02 -.227E+02 -.210E+02
   -.299E+02 -.136E+03 0.784E+02   0.372E+02 0.130E+03 -.521E+02   -.732E+01 0.513E+01 -.263E+02
   -.157E+03 -.550E+00 -.694E+00   0.160E+03 0.961E+01 0.331E+02   -.289E+01 -.908E+01 -.324E+02
 -----------------------------------------------------------------------------------------------
   0.132E+02 -.210E+00 -.763E+01   -.199E-12 0.515E-13 -.348E-12   -.132E+02 0.229E+00 0.752E+01
 
 
 POSITION                                       TOTAL-FORCE (eV/Angst)
 -----------------------------------------------------------------------------------
      5.13254      3.99408      8.54568         0.007570      0.000971      0.004275
      2.60951      7.12252     12.96319         0.002016      0.002938      0.006500
      1.63591      2.91314      8.50392         0.004786     -0.009581     -0.003878
      5.97414      0.90246      7.15968         0.002395      0.001345     -0.000211
      6.45492      4.87198     11.09335         0.002031     -0.002495     -0.002378
      1.57093      1.16484      2.57710         0.000530      0.012298     -0.011116
      8.59302      6.34708     14.75006        -0.014553     -0.018295     -0.008826
      3.53218      2.55531      5.91792        -0.018088     -0.015860     -0.002845
      7.81104      1.95369      9.78908         0.007262      0.008796      0.002187
      3.48290      0.39740      8.55013        -0.000491     -0.005184     -0.008958
      6.68900      7.11597      8.67563        -0.004984     -0.000289      0.007875
      6.81717      3.42119      5.52944         0.002031     -0.002653     -0.005200
      3.25984      4.00797     11.53466         0.005918     -0.005203      0.005021
      2.19489      5.51383      7.42163        -0.002279      0.001348     -0.002519
      4.57103      4.25868     10.78993         0.017254      0.007710     -0.001298
      7.58397      2.03299      5.58023         0.008588     -0.001298      0.013399
      6.83639      3.13432      9.85003        -0.002235      0.013090      0.003962
      2.71969      6.71627      6.61905         0.011537      0.008860      0.005374
      6.23816      5.79813      9.30830        -0.005941     -0.016440      0.009290
      2.13502      0.64316      9.26086        -0.012568      0.002438      0.007525
      7.98019      6.87599      7.89286         0.012182     -0.004427     -0.009860
      3.16042      4.31905      7.34605         0.005129     -0.001516     -0.002561
      2.47983      5.32018     11.62615         0.003603      0.006035      0.006864
      3.80094      1.78973      7.85922        -0.005920      0.008013     -0.011786
      7.29107      0.76606     10.60472         0.000107      0.004034      0.007911
      5.54247      3.16397      6.36149         0.002039      0.001884     -0.004753
      7.93317      1.58006      8.29774         0.000562      0.003973     -0.004306
      5.88687      6.60541     11.95371        -0.012715     -0.009971     -0.007112
      2.98268      0.25483      3.35843        -0.001655      0.008882      0.002198
      6.63875      3.70754     12.68919         0.004150      0.015732     -0.006585
      2.48695      2.96075     10.72082        -0.005318     -0.011223     -0.002280
      8.42021      5.22743     11.02581        -0.010691      0.007175     -0.008047
      1.58760      2.22954      6.24087         0.010080      0.003276      0.003329
      4.71514      0.19465      9.41061        -0.002843     -0.006204     -0.003171
      4.44456      0.84086      5.34126         0.005963      0.013436      0.016482
      7.60676      4.53296      6.17463        -0.017870     -0.008987      0.014491
      3.53092      3.46717      4.30845         0.002040     -0.004998     -0.006550
      9.60708      5.99601     13.05662         0.000381     -0.007610     -0.002443
 -----------------------------------------------------------------------------------
    total drift:                                0.003542      0.019391     -0.106203


--------------------------------------------------------------------------------------------------------



  FREE ENERGIE OF THE ION-ELECTRON SYSTEM (eV)
  ---------------------------------------------------
  free  energy   TOTEN  =      -411.98533526 eV

  energy  without entropy=     -411.97675702  energy(sigma->0) =     -411.98104614
 
 d Force = 0.1713278E-03[ 0.599E-04, 0.283E-03]  d Energy = 0.1635986E-03 0.773E-05
 d Force = 0.1307664E+00[ 0.130E+00, 0.132E+00]  d Ewald  =-0.7419992E+00 0.873E+00


--------------------------------------------------------------------------------------------------------


    POTLOK:  cpu time    0.9825: real time    0.9827


--------------------------------------------------------------------------------------------------------


 Conjugate gradient step on ions:
 trial-energy change:   -0.000164  1 .order   -0.000196   -0.000328   -0.000064
  (g-gl).g = 0.510E-03      g.g   = 0.600E-03  gl.gl    = 0.629E-03
 g(Force)  = 0.533E-03   g(Stress)= 0.675E-04 ortho     = 0.899E-04
 gamma     =   0.81110
 trial     =   0.48712
 opt step  =   0.60632  (harmonic =   0.60632) maximal distance =0.00137848
 next E    =  -411.985376   (d E  =  -0.00020)


--------------------------------------------------------------------------------------------------------


  
 reached required accuracy - stopping structural energy minimisation
     LOOP+:  cpu time  433.1723: real time  434.7371
    4ORBIT:  cpu time    0.0000: real time    0.0000
 


 total charge     
 
# of ion       s       p       d       tot
------------------------------------------
    1        2.023   5.873   0.219   8.116
    2        2.023   5.873   0.219   8.116
    3        2.021   5.869   0.230   8.120
    4        2.021   5.869   0.230   8.120
    5        0.309   6.370   6.917  13.596
    6        0.313   6.366   6.969  13.648
    7        0.309   6.370   6.916  13.596
    8        0.313   6.366   6.970  13.649
    9        0.899   1.513   0.000   2.412
   10        0.903   1.525   0.000   2.428
   11        0.898   1.527   0.000   2.425
   12        0.903   1.525   0.000   2.427
   13        0.898   1.527   0.000   2.425
   14        0.907   1.552   0.000   2.458
   15        1.572   3.649   0.000   5.221
   16        1.571   3.623   0.000   5.193
   17        1.573   3.630   0.000   5.203
   18        1.576   3.641   0.000   5.216
   19        1.574   3.654   0.000   5.228
   20        1.573   3.643   0.000   5.216
   21        1.572   3.649   0.000   5.221
   22        1.576   3.641   0.000   5.217
   23        1.574   3.654   0.000   5.228
   24        1.571   3.623   0.000   5.194
   25        1.573   3.631   0.000   5.203
   26        1.573   3.643   0.000   5.216
   27        1.568   3.642   0.000   5.210
   28        1.575   3.622   0.000   5.197
   29        1.570   3.638   0.000   5.208
   30        1.574   3.631   0.000   5.205
   31        1.571   3.639   0.000   5.210
   32        1.574   3.627   0.000   5.201
   33        1.568   3.642   0.000   5.210
   34        1.574   3.632   0.000   5.206
   35        1.571   3.640   0.000   5.211
   36        1.575   3.622   0.000   5.197
   37        1.570   3.639   0.000   5.209
   38        1.574   3.626   0.000   5.200
--------------------------------------------------
tot         52.482 145.404  28.670 226.556
 


 magnetization (x)
 
# of ion       s       p       d       tot
------------------------------------------
    1       -0.000   0.000  -0.001  -0.000
    2       -0.000   0.000  -0.001  -0.000
    3       -0.000  -0.000  -0.001  -0.002
    4       -0.000  -0.000  -0.001  -0.002
    5        0.002   0.010   2.973   2.985
    6        0.004   0.015   2.891   2.910
    7        0.002   0.010   2.973   2.985
    8        0.004   0.015   2.889   2.909
    9        0.002   0.007   0.000   0.009
   10        0.004   0.010   0.000   0.014
   11        0.003   0.007   0.000   0.011
   12        0.004   0.010   0.000   0.014
   13        0.003   0.007   0.000   0.011
   14        0.004   0.009   0.000   0.013
   15        0.008   0.092   0.000   0.100
   16        0.006   0.052   0.000   0.058
   17        0.006   0.058   0.000   0.065
   18        0.004   0.030   0.000   0.034
   19        0.008   0.088   0.000   0.096
   20        0.005   0.041   0.000   0.046
   21        0.009   0.093   0.000   0.101
   22        0.004   0.030   0.000   0.034
   23        0.007   0.087   0.000   0.095
   24        0.006   0.051   0.000   0.057
   25        0.006   0.058   0.000   0.064
   26        0.005   0.041   0.000   0.046
   27        0.008   0.061   0.000   0.069
   28        0.009   0.061   0.000   0.070
   29        0.011   0.150   0.000   0.161
   30        0.009   0.059   0.000   0.067
   31        0.007   0.069   0.000   0.076
   32        0.009   0.059   0.000   0.067
   33        0.008   0.061   0.000   0.068
   34        0.009   0.059   0.000   0.067
   35        0.007   0.068   0.000   0.075
   36        0.009   0.062   0.000   0.070
   37        0.011   0.150   0.000   0.162
   38        0.009   0.058   0.000   0.066
--------------------------------------------------
tot          0.213   1.737  11.723  13.673
 

 total amount of memory used by VASP MPI-rank0   113672. kBytes
=======================================================================

   base      :      30000. kBytes
   nonlr-proj:       7867. kBytes
   fftplans  :       1630. kBytes
   grid      :       6678. kBytes
   one-center:         93. kBytes
   wavefun   :      67404. kBytes
 
  
  
 General timing and accounting informations for this job:
 ========================================================
  
                  Total CPU time used (sec):     3273.128
                            User time (sec):     3207.446
                          System time (sec):       65.682
                         Elapsed time (sec):     3285.777
  
                   Maximum memory used (kb):      349344.
                   Average memory used (kb):           0.
  
                          Minor page faults:       161383
                          Major page faults:            0
                 Voluntary context switches:         5003
