 vasp.6.1.2 22Jul20 (build Mar 19 2021 09:51:12) complex                        
  
 executed on             LinuxIFC date 2021.07.24  20:08:47
 running on   12 total cores
 distrk:  each k-point on   12 cores,    1 groups
 distr:  one band on NCORE=   4 cores,    3 groups


--------------------------------------------------------------------------------------------------------


 INCAR:
 POTCAR:    PAW_PBE Mn_pv 02Aug2007               
 POTCAR:    PAW_PBE Si 05Jan2001                  
 POTCAR:    PAW_PBE O 08Apr2002                   
 POTCAR:    PAW_PBE Mn_pv 02Aug2007               
   VRHFIN =Mn: 3p4s3d                                                                               
   LEXCH  = PE                                                                                      
   EATOM  =  2025.2664 eV,  148.8529 Ry                                                             
                                                                                                    
   TITEL  = PAW_PBE Mn_pv 02Aug2007                                                                 
   LULTRA =        F    use ultrasoft PP ?                                                          
   IUNSCR =        1    unscreen: 0-lin 1-nonlin 2-no                                               
   RPACOR =    2.080    partial core radius                                                         
   POMASS =   54.938; ZVAL   =   13.000    mass and valenz                                          
   RCORE  =    2.300    outmost cutoff radius                                                       
   RWIGS  =    2.500; RWIGS  =    1.323    wigner-seitz radius (au A)                               
   ENMAX  =  269.864; ENMIN  =  202.398 eV                                                          
   ICORE  =        3    local potential                                                             
   LCOR   =        T    correct aug charges                                                         
   LPAW   =        T    paw PP                                                                      
   EAUG   =  569.085                                                                                
   DEXC   =    0.000                                                                                
   RMAX   =    2.343    core radius for proj-oper                                                   
   RAUG   =    1.300    factor for augmentation sphere                                              
   RDEP   =    2.338    radius for radial grids                                                     
   RDEPT  =    1.798    core radius for aug-charge                                                  
                                                                                                    
   Atomic configuration                                                                             
    8 entries                                                                                       
     n  l   j            E        occ.                                                              
     1  0  0.50     -6424.8287   2.0000                                                             
     2  0  0.50      -739.1154   2.0000                                                             
     2  1  1.50      -625.3949   6.0000                                                             
     3  0  0.50       -81.6100   2.0000                                                             
     3  1  1.50       -50.4667   6.0000                                                             
     3  2  2.50        -3.3745   6.0000                                                             
     4  0  0.50        -4.1331   1.0000                                                             
     4  3  2.50        -1.3606   0.0000                                                             
   Description                                                                                      
     l       E           TYP  RCUT    TYP  RCUT                                                     
     1    -50.4666628     23  2.000                                                                 
     1     -1.3605826     23  2.000                                                                 
     2     -3.3744729     23  2.300                                                                 
     2     -4.7350555     23  2.300                                                                 
     0     -4.1331431     23  2.300                                                                 
     0      7.6656591     23  2.300                                                                 
     3      9.5240782     23  2.300                                                                 
  local pseudopotential read in
  partial core-charges read in
  partial kinetic energy density read in
  atomic valenz-charges read in
  non local Contribution for L=           1  read in
    real space projection operators read in
  non local Contribution for L=           1  read in
    real space projection operators read in
  non local Contribution for L=           2  read in
    real space projection operators read in
  non local Contribution for L=           2  read in
    real space projection operators read in
  non local Contribution for L=           0  read in
    real space projection operators read in
  non local Contribution for L=           0  read in
    real space projection operators read in
    PAW grid and wavefunctions read in
 
   number of l-projection  operators is LMAX  =           6
   number of lm-projection operators is LMMAX =          18
 
 POTCAR:    PAW_PBE Si 05Jan2001                  
   VRHFIN =Si: s2p2                                                                                 
   LEXCH  = PE                                                                                      
   EATOM  =   103.0669 eV,    7.5752 Ry                                                             
                                                                                                    
   TITEL  = PAW_PBE Si 05Jan2001                                                                    
   LULTRA =        F    use ultrasoft PP ?                                                          
   IUNSCR =        1    unscreen: 0-lin 1-nonlin 2-no                                               
   RPACOR =    1.500    partial core radius                                                         
   POMASS =   28.085; ZVAL   =    4.000    mass and valenz                                          
   RCORE  =    1.900    outmost cutoff radius                                                       
   RWIGS  =    2.480; RWIGS  =    1.312    wigner-seitz radius (au A)                               
   ENMAX  =  245.345; ENMIN  =  184.009 eV                                                          
   ICORE  =        2    local potential                                                             
   LCOR   =        T    correct aug charges                                                         
   LPAW   =        T    paw PP                                                                      
   EAUG   =  322.069                                                                                
   DEXC   =    0.000                                                                                
   RMAX   =    1.950    core radius for proj-oper                                                   
   RAUG   =    1.300    factor for augmentation sphere                                              
   RDEP   =    1.993    radius for radial grids                                                     
   RDEPT  =    1.837    core radius for aug-charge                                                  
                                                                                                    
   Atomic configuration                                                                             
    6 entries                                                                                       
     n  l   j            E        occ.                                                              
     1  0  0.50     -1785.8828   2.0000                                                             
     2  0  0.50      -139.4969   2.0000                                                             
     2  1  1.50       -95.5546   6.0000                                                             
     3  0  0.50       -10.8127   2.0000                                                             
     3  1  0.50        -4.0811   2.0000                                                             
     3  2  1.50        -4.0817   0.0000                                                             
   Description                                                                                      
     l       E           TYP  RCUT    TYP  RCUT                                                     
     0    -10.8127223     23  1.900                                                                 
     0     -7.6451159     23  1.900                                                                 
     1     -4.0811372     23  1.900                                                                 
     1      2.4879257     23  1.900                                                                 
     2     -4.0817478      7  1.900                                                                 
  local pseudopotential read in
  partial core-charges read in
  partial kinetic energy density read in
  atomic valenz-charges read in
  non local Contribution for L=           0  read in
    real space projection operators read in
  non local Contribution for L=           0  read in
    real space projection operators read in
  non local Contribution for L=           1  read in
    real space projection operators read in
  non local Contribution for L=           1  read in
    real space projection operators read in
    PAW grid and wavefunctions read in
 
   number of l-projection  operators is LMAX  =           4
   number of lm-projection operators is LMMAX =           8
 
 POTCAR:    PAW_PBE O 08Apr2002                   
   VRHFIN =O: s2p4                                                                                  
   LEXCH  = PE                                                                                      
   EATOM  =   432.3788 eV,   31.7789 Ry                                                             
                                                                                                    
   TITEL  = PAW_PBE O 08Apr2002                                                                     
   LULTRA =        F    use ultrasoft PP ?                                                          
   IUNSCR =        1    unscreen: 0-lin 1-nonlin 2-no                                               
   RPACOR =    1.200    partial core radius                                                         
   POMASS =   16.000; ZVAL   =    6.000    mass and valenz                                          
   RCORE  =    1.520    outmost cutoff radius                                                       
   RWIGS  =    1.550; RWIGS  =    0.820    wigner-seitz radius (au A)                               
   ENMAX  =  400.000; ENMIN  =  300.000 eV                                                          
   ICORE  =        2    local potential                                                             
   LCOR   =        T    correct aug charges                                                         
   LPAW   =        T    paw PP                                                                      
   EAUG   =  605.392                                                                                
   DEXC   =    0.000                                                                                
   RMAX   =    1.553    core radius for proj-oper                                                   
   RAUG   =    1.300    factor for augmentation sphere                                              
   RDEP   =    1.550    radius for radial grids                                                     
   RDEPT  =    1.329    core radius for aug-charge                                                  
                                                                                                    
   Atomic configuration                                                                             
    4 entries                                                                                       
     n  l   j            E        occ.                                                              
     1  0  0.50      -514.6923   2.0000                                                             
     2  0  0.50       -23.9615   2.0000                                                             
     2  1  0.50        -9.0305   4.0000                                                             
     3  2  1.50        -9.5241   0.0000                                                             
   Description                                                                                      
     l       E           TYP  RCUT    TYP  RCUT                                                     
     0    -23.9615318     23  1.200                                                                 
     0     -9.5240782     23  1.200                                                                 
     1     -9.0304911     23  1.520                                                                 
     1      8.1634956     23  1.520                                                                 
     2     -9.5240782      7  1.500                                                                 
  local pseudopotential read in
  partial core-charges read in
  partial kinetic energy density read in
  kinetic energy density of atom read in
  atomic valenz-charges read in
  non local Contribution for L=           0  read in
    real space projection operators read in
  non local Contribution for L=           0  read in
    real space projection operators read in
  non local Contribution for L=           1  read in
    real space projection operators read in
  non local Contribution for L=           1  read in
    real space projection operators read in
    PAW grid and wavefunctions read in
 
   number of l-projection  operators is LMAX  =           4
   number of lm-projection operators is LMMAX =           8
 
 Optimization of the real space projectors (new method)

 maximal supplied QI-value         = 16.25
 optimisation between [QCUT,QGAM] = [ 11.54, 23.24] = [ 37.28,151.24] Ry 
 Optimized for a Real-space Cutoff    1.45 Angstroem

   l    n(q)    QCUT    max X(q) W(low)/X(q) W(high)/X(q)  e(spline) 
   1     10    11.539     3.658    0.56E-04    0.12E-03    0.13E-06
   1     10    11.539     5.612    0.11E-03    0.23E-03    0.24E-06
   2      9    11.539    55.373    0.45E-04    0.92E-04    0.22E-06
   2      9    11.539    50.863    0.47E-04    0.95E-04    0.22E-06
   0     10    11.539    79.536    0.46E-04    0.27E-04    0.11E-06
   0     10    11.539    38.668    0.38E-04    0.25E-04    0.10E-06
 Optimization of the real space projectors (new method)

 maximal supplied QI-value         = 19.84
 optimisation between [QCUT,QGAM] = [ 11.51, 23.22] = [ 37.09,150.92] Ry 
 Optimized for a Real-space Cutoff    1.21 Angstroem

   l    n(q)    QCUT    max X(q) W(low)/X(q) W(high)/X(q)  e(spline) 
   0      8    11.508   159.560    0.71E-04    0.15E-03    0.51E-07
   0      8    11.508   115.863    0.70E-04    0.15E-03    0.51E-07
   1      8    11.508    88.339    0.16E-03    0.38E-04    0.82E-07
   1      8    11.508    48.592    0.15E-03    0.36E-04    0.79E-07
 Optimization of the real space projectors (new method)

 maximal supplied QI-value         = 24.76
 optimisation between [QCUT,QGAM] = [ 11.64, 23.27] = [ 37.91,151.63] Ry 
 Optimized for a Real-space Cutoff    1.14 Angstroem

   l    n(q)    QCUT    max X(q) W(low)/X(q) W(high)/X(q)  e(spline) 
   0      8    11.635    20.381    0.10E-03    0.33E-03    0.24E-06
   0      8    11.635    15.268    0.11E-03    0.35E-03    0.26E-06
   1      7    11.635     5.964    0.24E-03    0.31E-03    0.30E-06
   1      7    11.635     5.382    0.22E-03    0.25E-03    0.26E-06
  PAW_PBE Mn_pv 02Aug2007               :
 energy of atom  1       EATOM=-2025.2664
 kinetic energy error for atom=    0.0058 (will be added to EATOM!!)
  PAW_PBE Si 05Jan2001                  :
 energy of atom  2       EATOM= -103.0669
 kinetic energy error for atom=    0.0005 (will be added to EATOM!!)
  PAW_PBE O 08Apr2002                   :
 energy of atom  3       EATOM= -432.3788
 kinetic energy error for atom=    0.0208 (will be added to EATOM!!)
 
 
 POSCAR: Mn2 Si4 O10
  positions in direct lattice
  velocities in cartesian coordinates

 METAGGA = SCAN     LMAXTAU =  6    LMIXTAU =  F

 exchange correlation table for  LEXCH =        8
   RHO(1)=    0.500       N(1)  =     2000
   RHO(2)=  100.500       N(2)  =     4000
 


--------------------------------------------------------------------------------------------------------


 ion  position               nearest neighbor table
   1  0.320  0.680  0.250-   7 2.09   9 2.27  10 2.27  14 2.33  13 2.33  15 2.36  16 2.36   6 2.90
                             4 3.09   3 3.09
   2  0.680  0.320  0.750-   8 2.09  12 2.27  11 2.27  15 2.33  16 2.33  14 2.36  13 2.36   5 2.90
                             3 3.09   4 3.09
   3  1.000  0.000  0.500-   8 1.73   7 1.73  11 1.80   9 1.80  16 1.82  14 1.82   2 3.09   1 3.09
                             6 3.11   5 3.11
   4  0.000  1.000  1.000-   7 1.73   8 1.73  10 1.80  12 1.80  13 1.82  15 1.82   1 3.09   2 3.09
                             5 3.11   6 3.11
   5  0.323  0.677  0.750-  12 1.62  11 1.62  13 1.63  14 1.63   2 2.90   4 3.11   3 3.11
   6  0.677  0.323  0.250-   9 1.62  10 1.62  16 1.63  15 1.63   1 2.90   3 3.11   4 3.11
   7  0.065  0.935  0.250-   4 1.73   3 1.73   1 2.09
   8  0.935  0.065  0.750-   3 1.73   4 1.73   2 2.09
   9  0.750  0.646  0.409-   6 1.62   3 1.80   1 2.27
  10  0.354  0.250  0.091-   6 1.62   4 1.80   1 2.27
  11  0.250  0.354  0.591-   5 1.62   3 1.80   2 2.27
  12  0.646  0.750  0.909-   5 1.62   4 1.80   2 2.27
  13  0.116  0.701  0.898-   5 1.63   4 1.82   1 2.33   2 2.36
  14  0.299  0.884  0.602-   5 1.63   3 1.82   1 2.33   2 2.36
  15  0.884  0.299  0.102-   6 1.63   4 1.82   2 2.33   1 2.36
  16  0.701  0.116  0.398-   6 1.63   3 1.82   2 2.33   1 2.36
 

IMPORTANT INFORMATION: All symmetrisations will be switched off!
NOSYMM: (Re-)initialisation of all symmetry stuff for point group C_1.


----------------------------------------------------------------------------------------

                                     Primitive cell                                     

  volume of cell :     154.3364

  direct lattice vectors                    reciprocal lattice vectors
    -2.876893119 -4.078216950  1.309248141    -0.173788012 -0.122602600  0.000023267
    -2.876893144  4.078216962  1.309248121    -0.173788011  0.122602599  0.000023268
    -0.000880527  0.000000016 -6.576847318    -0.069191702 -0.000000001 -0.152039271

  length of vectors
     5.159699430  5.159699448  6.576847377     0.212682090  0.212682088  0.167043203

  position of ions in fractional coordinates (direct lattice)
     0.320478748  0.679521245  0.250000175
     0.679521250  0.320478747  0.750000186
     0.999999734  0.000000135  0.499999929
     0.000000135  0.999999732  0.999999932
     0.323482680  0.676517012  0.750000188
     0.676517010  0.323482681  0.250000189
     0.064837663  0.935162837  0.250000133
     0.935162839  0.064837665  0.750000125
     0.749904769  0.646391858  0.408534850
     0.353608005  0.250095132  0.091465186
     0.250095123  0.353607992  0.591465186
     0.646391836  0.749904751  0.908534850
     0.115641007  0.700670292  0.898179825
     0.299329903  0.884358995  0.601819707
     0.884358998  0.299329927  0.101819709
     0.700670300  0.115640999  0.398179829

  ion indices of the primitive-cell ions
   primitive index   ion index
                 1           1
                 2           2
                 3           3
                 4           4
                 5           5
                 6           6
                 7           7
                 8           8
                 9           9
                10          10
                11          11
                12          12
                13          13
                14          14
                15          15
                16          16

----------------------------------------------------------------------------------------

 
 
 KPOINTS: K-points file                           

Automatic generation of k-mesh.
Space group operators:
 irot       det(A)        alpha          n_x          n_y          n_z        tau_x        tau_y        tau_z
    1     1.000000     0.000000     1.000000     0.000000     0.000000     0.000000     0.000000     0.000000
 
 Subroutine IBZKPT returns following result:
 ===========================================
 
 Found    123 irreducible k-points:
 
 Following reciprocal coordinates:
            Coordinates               Weight
  0.000000  0.000000  0.000000      1.000000
  0.142857  0.000000 -0.000000      2.000000
  0.000000 -0.142857  0.000000      2.000000
  0.285714  0.000000  0.000000      2.000000
  0.000000 -0.285714 -0.000000      2.000000
  0.428571  0.000000 -0.000000      2.000000
  0.000000 -0.428571  0.000000      2.000000
  0.142857  0.142857 -0.000000      2.000000
  0.285714  0.142857  0.000000      2.000000
 -0.142857 -0.285714  0.000000      2.000000
  0.428571  0.142857 -0.000000      2.000000
 -0.142857 -0.428571  0.000000      2.000000
 -0.428571  0.142857 -0.000000      2.000000
 -0.142857  0.428571 -0.000000      2.000000
 -0.285714  0.142857 -0.000000      2.000000
 -0.142857  0.285714  0.000000      2.000000
 -0.142857  0.142857 -0.000000      2.000000
  0.285714  0.285714  0.000000      2.000000
  0.428571  0.285714 -0.000000      2.000000
 -0.285714 -0.428571 -0.000000      2.000000
 -0.428571  0.285714 -0.000000      2.000000
 -0.285714  0.428571  0.000000      2.000000
 -0.285714  0.285714 -0.000000      2.000000
  0.428571  0.428571 -0.000000      2.000000
 -0.428571  0.428571  0.000000      2.000000
  0.000000 -0.000000  0.200000      2.000000
  0.142857  0.000000  0.200000      2.000000
  0.000000 -0.142857 -0.200000      2.000000
  0.285714  0.000000  0.200000      2.000000
  0.000000 -0.285714 -0.200000      2.000000
  0.428571  0.000000  0.200000      2.000000
  0.000000 -0.428571 -0.200000      2.000000
 -0.428571 -0.000000  0.200000      2.000000
 -0.000000  0.428571 -0.200000      2.000000
 -0.285714 -0.000000  0.200000      2.000000
 -0.000000  0.285714 -0.200000      2.000000
 -0.142857 -0.000000  0.200000      2.000000
  0.000000  0.142857 -0.200000      2.000000
  0.142857  0.142857  0.200000      2.000000
  0.285714  0.142857  0.200000      2.000000
 -0.142857 -0.285714 -0.200000      2.000000
  0.428571  0.142857  0.200000      2.000000
 -0.142857 -0.428571 -0.200000      2.000000
 -0.428571  0.142857  0.200000      2.000000
 -0.142857  0.428571 -0.200000      2.000000
 -0.285714  0.142857  0.200000      2.000000
 -0.142857  0.285714 -0.200000      2.000000
 -0.142857  0.142857  0.200000      2.000000
 -0.142857  0.142857 -0.200000      2.000000
  0.285714  0.285714  0.200000      2.000000
  0.428571  0.285714  0.200000      2.000000
 -0.285714 -0.428571 -0.200000      2.000000
 -0.428571  0.285714  0.200000      2.000000
 -0.285714  0.428571 -0.200000      2.000000
 -0.285714  0.285714  0.200000      2.000000
 -0.285714  0.285714 -0.200000      2.000000
 -0.142857  0.285714  0.200000      2.000000
 -0.285714  0.142857 -0.200000      2.000000
  0.428571  0.428571  0.200000      2.000000
 -0.428571  0.428571  0.200000      2.000000
 -0.428571  0.428571 -0.200000      2.000000
 -0.285714  0.428571  0.200000      2.000000
 -0.428571  0.285714 -0.200000      2.000000
 -0.142857  0.428571  0.200000      2.000000
 -0.428571  0.142857 -0.200000      2.000000
 -0.428571 -0.428571  0.200000      2.000000
 -0.285714 -0.428571  0.200000      2.000000
  0.428571  0.285714 -0.200000      2.000000
 -0.142857 -0.428571  0.200000      2.000000
  0.428571  0.142857 -0.200000      2.000000
 -0.285714 -0.285714  0.200000      2.000000
 -0.142857 -0.285714  0.200000      2.000000
  0.285714  0.142857 -0.200000      2.000000
 -0.142857 -0.142857  0.200000      2.000000
  0.000000 -0.000000  0.400000      2.000000
  0.142857  0.000000  0.400000      2.000000
  0.000000 -0.142857 -0.400000      2.000000
  0.285714  0.000000  0.400000      2.000000
  0.000000 -0.285714 -0.400000      2.000000
  0.428571  0.000000  0.400000      2.000000
  0.000000 -0.428571 -0.400000      2.000000
 -0.428571 -0.000000  0.400000      2.000000
  0.000000  0.428571 -0.400000      2.000000
 -0.285714 -0.000000  0.400000      2.000000
  0.000000  0.285714 -0.400000      2.000000
 -0.142857 -0.000000  0.400000      2.000000
 -0.000000  0.142857 -0.400000      2.000000
  0.142857  0.142857  0.400000      2.000000
  0.285714  0.142857  0.400000      2.000000
 -0.142857 -0.285714 -0.400000      2.000000
  0.428571  0.142857  0.400000      2.000000
 -0.142857 -0.428571 -0.400000      2.000000
 -0.428571  0.142857  0.400000      2.000000
 -0.142857  0.428571 -0.400000      2.000000
 -0.285714  0.142857  0.400000      2.000000
 -0.142857  0.285714 -0.400000      2.000000
 -0.142857  0.142857  0.400000      2.000000
 -0.142857  0.142857 -0.400000      2.000000
  0.285714  0.285714  0.400000      2.000000
  0.428571  0.285714  0.400000      2.000000
 -0.285714 -0.428571 -0.400000      2.000000
 -0.428571  0.285714  0.400000      2.000000
 -0.285714  0.428571 -0.400000      2.000000
 -0.285714  0.285714  0.400000      2.000000
 -0.285714  0.285714 -0.400000      2.000000
 -0.142857  0.285714  0.400000      2.000000
 -0.285714  0.142857 -0.400000      2.000000
  0.428571  0.428571  0.400000      2.000000
 -0.428571  0.428571  0.400000      2.000000
 -0.428571  0.428571 -0.400000      2.000000
 -0.285714  0.428571  0.400000      2.000000
 -0.428571  0.285714 -0.400000      2.000000
 -0.142857  0.428571  0.400000      2.000000
 -0.428571  0.142857 -0.400000      2.000000
 -0.428571 -0.428571  0.400000      2.000000
 -0.285714 -0.428571  0.400000      2.000000
  0.428571  0.285714 -0.400000      2.000000
 -0.142857 -0.428571  0.400000      2.000000
  0.428571  0.142857 -0.400000      2.000000
 -0.285714 -0.285714  0.400000      2.000000
 -0.142857 -0.285714  0.400000      2.000000
  0.285714  0.142857 -0.400000      2.000000
 -0.142857 -0.142857  0.400000      2.000000
 
 Following cartesian coordinates:
            Coordinates               Weight
  0.000000  0.000000  0.000000      1.000000
 -0.024827 -0.017515  0.000003      2.000000
  0.024827 -0.017515 -0.000003      2.000000
 -0.049654 -0.035029  0.000007      2.000000
  0.049654 -0.035029 -0.000007      2.000000
 -0.074481 -0.052544  0.000010      2.000000
  0.074481 -0.052544 -0.000010      2.000000
 -0.049654 -0.000000  0.000007      2.000000
 -0.074481 -0.017515  0.000010      2.000000
  0.074481 -0.017515 -0.000010      2.000000
 -0.099307 -0.035029  0.000013      2.000000
  0.099307 -0.035029 -0.000013      2.000000
  0.049654  0.070059 -0.000007      2.000000
 -0.049654  0.070059  0.000007      2.000000
  0.024827  0.052544 -0.000003      2.000000
 -0.024827  0.052544  0.000003      2.000000
  0.000000  0.035029  0.000000      2.000000
 -0.099307 -0.000000  0.000013      2.000000
 -0.124134 -0.017515  0.000017      2.000000
  0.124134 -0.017515 -0.000017      2.000000
  0.024827  0.087573 -0.000003      2.000000
 -0.024827  0.087573  0.000003      2.000000
  0.000000  0.070059  0.000000      2.000000
 -0.148961 -0.000000  0.000020      2.000000
  0.000000  0.105088  0.000000      2.000000
 -0.013838 -0.000000 -0.030408      2.000000
 -0.038665 -0.017515 -0.030405      2.000000
  0.038665 -0.017515  0.030405      2.000000
 -0.063492 -0.035029 -0.030401      2.000000
  0.063492 -0.035029  0.030401      2.000000
 -0.088319 -0.052544 -0.030398      2.000000
  0.088319 -0.052544  0.030398      2.000000
  0.060642  0.052544 -0.030418      2.000000
 -0.060642  0.052544  0.030418      2.000000
  0.035815  0.035029 -0.030415      2.000000
 -0.035815  0.035029  0.030415      2.000000
  0.010989  0.017515 -0.030411      2.000000
 -0.010989  0.017515  0.030411      2.000000
 -0.063492 -0.000000 -0.030401      2.000000
 -0.088319 -0.017515 -0.030398      2.000000
  0.088319 -0.017515  0.030398      2.000000
 -0.113146 -0.035029 -0.030395      2.000000
  0.113146 -0.035029  0.030395      2.000000
  0.035815  0.070059 -0.030415      2.000000
 -0.035815  0.070059  0.030415      2.000000
  0.010989  0.052544 -0.030411      2.000000
 -0.010989  0.052544  0.030411      2.000000
 -0.013838  0.035029 -0.030408      2.000000
  0.013838  0.035029  0.030408      2.000000
 -0.113146 -0.000000 -0.030395      2.000000
 -0.137973 -0.017515 -0.030391      2.000000
  0.137973 -0.017515  0.030391      2.000000
  0.010989  0.087573 -0.030411      2.000000
 -0.010989  0.087573  0.030411      2.000000
 -0.013838  0.070059 -0.030408      2.000000
  0.013838  0.070059  0.030408      2.000000
 -0.038665  0.052544 -0.030405      2.000000
  0.038665  0.052544  0.030405      2.000000
 -0.162799 -0.000000 -0.030388      2.000000
 -0.013838  0.105088 -0.030408      2.000000
  0.013838  0.105088  0.030408      2.000000
 -0.038665  0.087573 -0.030405      2.000000
  0.038665  0.087573  0.030405      2.000000
 -0.063492  0.070059 -0.030401      2.000000
  0.063492  0.070059  0.030401      2.000000
  0.135123  0.000000 -0.030428      2.000000
  0.110296 -0.017515 -0.030424      2.000000
 -0.110296 -0.017515  0.030424      2.000000
  0.085469 -0.035029 -0.030421      2.000000
 -0.085469 -0.035029  0.030421      2.000000
  0.085469  0.000000 -0.030421      2.000000
  0.060642 -0.017515 -0.030418      2.000000
 -0.060642 -0.017515  0.030418      2.000000
  0.035815  0.000000 -0.030415      2.000000
 -0.027677 -0.000000 -0.060816      2.000000
 -0.052504 -0.017515 -0.060812      2.000000
  0.052504 -0.017515  0.060812      2.000000
 -0.077330 -0.035029 -0.060809      2.000000
  0.077330 -0.035029  0.060809      2.000000
 -0.102157 -0.052544 -0.060806      2.000000
  0.102157 -0.052544  0.060806      2.000000
  0.046804  0.052544 -0.060826      2.000000
 -0.046804  0.052544  0.060826      2.000000
  0.021977  0.035029 -0.060822      2.000000
 -0.021977  0.035029  0.060822      2.000000
 -0.002850  0.017515 -0.060819      2.000000
  0.002850  0.017515  0.060819      2.000000
 -0.077330 -0.000000 -0.060809      2.000000
 -0.102157 -0.017515 -0.060806      2.000000
  0.102157 -0.017515  0.060806      2.000000
 -0.126984 -0.035029 -0.060802      2.000000
  0.126984 -0.035029  0.060802      2.000000
  0.021977  0.070059 -0.060822      2.000000
 -0.021977  0.070059  0.060822      2.000000
 -0.002850  0.052544 -0.060819      2.000000
  0.002850  0.052544  0.060819      2.000000
 -0.027677  0.035029 -0.060816      2.000000
  0.027677  0.035029  0.060816      2.000000
 -0.126984 -0.000000 -0.060802      2.000000
 -0.151811 -0.017515 -0.060799      2.000000
  0.151811 -0.017515  0.060799      2.000000
 -0.002850  0.087573 -0.060819      2.000000
  0.002850  0.087573  0.060819      2.000000
 -0.027677  0.070059 -0.060816      2.000000
  0.027677  0.070059  0.060816      2.000000
 -0.052504  0.052544 -0.060812      2.000000
  0.052504  0.052544  0.060812      2.000000
 -0.176638 -0.000000 -0.060796      2.000000
 -0.027677  0.105088 -0.060816      2.000000
  0.027677  0.105088  0.060816      2.000000
 -0.052504  0.087573 -0.060812      2.000000
  0.052504  0.087573  0.060812      2.000000
 -0.077330  0.070059 -0.060809      2.000000
  0.077330  0.070059  0.060809      2.000000
  0.121284  0.000000 -0.060836      2.000000
  0.096458 -0.017515 -0.060832      2.000000
 -0.096458 -0.017515  0.060832      2.000000
  0.071631 -0.035029 -0.060829      2.000000
 -0.071631 -0.035029  0.060829      2.000000
  0.071631  0.000000 -0.060829      2.000000
  0.046804 -0.017515 -0.060826      2.000000
 -0.046804 -0.017515  0.060826      2.000000
  0.021977 -0.000000 -0.060822      2.000000
 


--------------------------------------------------------------------------------------------------------




 Dimension of arrays:
   k-points           NKPTS =    123   k-points in BZ     NKDIM =    123   number of bands    NBANDS=     66
   number of dos      NEDOS =    301   number of ions     NIONS =     16
   non local maximal  LDIM  =      6   non local SUM 2l+1 LMDIM =     18
   total plane-waves  NPLWV =  80000
   max r-space proj   IRMAX =   6611   max aug-charges    IRDMAX=  17528
   dimension x,y,z NGX =    40 NGY =   40 NGZ =   50
   dimension x,y,z NGXF=    80 NGYF=   80 NGZF=  100
   support grid    NGXF=    80 NGYF=   80 NGZF=  100
   ions per type =               2   4  10
   NGX,Y,Z   is equivalent  to a cutoff of  12.89, 12.89, 12.64 a.u.
   NGXF,Y,Z  is equivalent  to a cutoff of  25.78, 25.78, 25.28 a.u.

 SYSTEM =  unknown system                          
 POSCAR =  Mn2 Si4 O10                             

 Startparameter for this run:
   NWRITE =      2    write-flag & timer
   PREC   = accura    normal or accurate (medium, high low for compatibility)
   ISTART =      0    job   : 0-new  1-cont  2-samecut
   ICHARG =      1    charge: 1-file 2-atom 10-const
   ISPIN  =      2    spin polarized calculation?
   LNONCOLLINEAR =      F non collinear calculations
   LSORBIT =      F    spin-orbit coupling
   INIWAV =      1    electr: 0-lowe 1-rand  2-diag
   LASPH  =      T    aspherical Exc in radial PAW
   METAGGA=      F    non-selfconsistent MetaGGA calc.

 Electronic Relaxation 1
   ENCUT  =  520.0 eV  38.22 Ry    6.18 a.u.   9.59  9.59 12.23*2*pi/ulx,y,z
   ENINI  =  520.0     initial cutoff
   ENAUG  =  605.4 eV  augmentation charge cutoff
   NELM   =    100;   NELMIN=  6; NELMDL= -5     # of ELM steps 
   EDIFF  = 0.1E-04   stopping-criterion for ELM
   LREAL  =      T    real-space projection
   NLSPLINE    = F    spline interpolate recip. space projectors
   LCOMPAT=      F    compatible to vasp.4.4
   GGA_COMPAT  = T    GGA compatible to vasp.4.4-vasp.4.6
   LMAXPAW     = -100 max onsite density
   LMAXMIX     =    4 max onsite mixed and CHGCAR
   VOSKOWN=      0    Vosko Wilk Nusair interpolation
   ROPT   =   -0.00025  -0.00025  -0.00025
 Ionic relaxation
   EDIFFG = -.3E-01   stopping-criterion for IOM
   NSW    =     99    number of steps for IOM
   NBLOCK =      1;   KBLOCK =     99    inner block; outer block 
   IBRION =      2    ionic relax: 0-MD 1-quasi-New 2-CG
   NFREE  =      1    steps in history (QN), initial steepest desc. (CG)
   ISIF   =      3    stress and relaxation
   IWAVPR =     11    prediction:  0-non 1-charg 2-wave 3-comb
   ISYM   =      0    0-nonsym 1-usesym 2-fastsym
   LCORR  =      T    Harris-Foulkes like correction to forces

   POTIM  = 0.5000    time-step for ionic-motion
   TEIN   =    0.0    initial temperature
   TEBEG  =    0.0;   TEEND  =   0.0 temperature during run
   SMASS  =  -3.00    Nose mass-parameter (am)
   estimated Nose-frequenzy (Omega)   =  0.10E-29 period in steps = 0.13E+47 mass=  -0.608E-27a.u.
   SCALEE = 1.0000    scale energy and forces
   NPACO  =    256;   APACO  = 16.0  distance and # of slots for P.C.
   PSTRESS=    0.0 pullay stress

  Mass of Ions in am
   POMASS =  54.94 28.09 16.00
  Ionic Valenz
   ZVAL   =  13.00  4.00  6.00
  Atomic Wigner-Seitz radii
   RWIGS  =  -1.00 -1.00 -1.00
  virtual crystal weights 
   VCA    =   1.00  1.00  1.00
   NELECT =     102.0000    total number of electrons
   NUPDOWN=      -1.0000    fix difference up-down

 DOS related values:
   EMIN   =  10.00;   EMAX   =-10.00  energy-range for DOS
   EFERMI =   0.00
   ISMEAR =     0;   SIGMA  =   0.05  broadening in eV -4-tet -1-fermi 0-gaus

 Electronic relaxation 2 (details)
   IALGO  =     38    algorithm
   LDIAG  =      T    sub-space diagonalisation (order eigenvalues)
   LSUBROT=      F    optimize rotation matrix (better conditioning)
   TURBO    =      0    0=normal 1=particle mesh
   IRESTART =      0    0=no restart 2=restart with 2 vectors
   NREBOOT  =      0    no. of reboots
   NMIN     =      0    reboot dimension
   EREF     =   0.00    reference energy to select bands
   IMIX   =      4    mixing-type and parameters
     AMIX     =   0.40;   BMIX     =  1.00
     AMIX_MAG =   1.60;   BMIX_MAG =  1.00
     AMIN     =   0.10
     WC   =   100.;   INIMIX=   1;  MIXPRE=   1;  MAXMIX= -45

 Intra band minimization:
   WEIMIN = 0.0010     energy-eigenvalue tresh-hold
   EBREAK =  0.38E-07  absolut break condition
   DEPER  =   0.30     relativ break condition  

   TIME   =   0.40     timestep for ELM

  volume/ion in A,a.u.               =       9.65        65.09
  Fermi-wavevector in a.u.,A,eV,Ry     =   1.425998  2.694745 27.667028  2.033469
  Thomas-Fermi vector in A             =   2.546322
 
 Write flags
   LWAVE        =      F    write WAVECAR
   LDOWNSAMPLE  =      F    k-point downsampling of WAVECAR
   LCHARG       =      T    write CHGCAR
   LVTOT        =      F    write LOCPOT, total local potential
   LVHAR        =      F    write LOCPOT, Hartree potential only
   LELF         =      F    write electronic localiz. function (ELF)
   LORBIT       =     11    0 simple, 1 ext, 2 COOP (PROOUT), +10 PAW based schemes


 Dipole corrections
   LMONO  =      F    monopole corrections only (constant potential shift)
   LDIPOL =      F    correct potential (dipole corrections)
   IDIPOL =      0    1-x, 2-y, 3-z, 4-all directions 
   EPSILON=  1.0000000 bulk dielectric constant

 LDA+U is selected, type is set to LDAUTYPE =  2
   angular momentum for each species LDAUL =     2   -1   -1
   U (eV)           for each species LDAUU =   2.7  0.0  0.0
   J (eV)           for each species LDAUJ =   0.0  0.0  0.0
 Exchange correlation treatment:
   GGA     =    --    GGA type
   LEXCH   =     8    internal setting for exchange type
   VOSKOWN=      0    Vosko Wilk Nusair interpolation
   LHFCALC =     F    Hartree Fock is set to
   LHFONE  =     F    Hartree Fock one center treatment
   AEXX    =    0.0000 exact exchange contribution

 Linear response parameters
   LEPSILON=     F    determine dielectric tensor
   LRPA    =     F    only Hartree local field effects (RPA)
   LNABLA  =     F    use nabla operator in PAW spheres
   LVEL    =     F    velocity operator in full k-point grid
   LINTERFAST=   F  fast interpolation
   KINTER  =     0    interpolate to denser k-point grid
   CSHIFT  =0.1000    complex shift for real part using Kramers Kronig
   OMEGAMAX=  -1.0    maximum frequency
   DEG_THRESHOLD= 0.2000000E-02 threshold for treating states as degnerate
   RTIME   =   -0.100 relaxation time in fs
  (WPLASMAI=    0.000 imaginary part of plasma frequency in eV, 0.658/RTIME)
   DFIELD  = 0.0000000 0.0000000 0.0000000 field for delta impulse in time
 
 Orbital magnetization related:
   ORBITALMAG=     F  switch on orbital magnetization
   LCHIMAG   =     F  perturbation theory with respect to B field
   DQ        =  0.001000  dq finite difference perturbation B field
   LLRAUG    =     F  two centre corrections for induced B field



--------------------------------------------------------------------------------------------------------


 conjugate gradient relaxation of ions
 charge density and potential will be updated during run
 spin polarized calculation
 Variant of blocked Davidson
 Davidson routine will perform the subspace rotation
 perform sub-space diagonalisation
    after iterative eigenvector-optimisation
 modified Broyden-mixing scheme, WC =      100.0
 initial mixing is a Kerker type mixing with AMIX =  0.4000 and BMIX =      1.0000
 Hartree-type preconditioning will be used
 using additional bands           15
 real space projection scheme for non local part
 use partial core corrections
 calculate Harris-corrections to forces 
   (improved forces if not selfconsistent)
 use gradient corrections 
 use of overlap-Matrix (Vanderbilt PP)
 Gauss-broadening in eV      SIGMA  =   0.05


--------------------------------------------------------------------------------------------------------


  energy-cutoff  :      520.00
  volume of cell :      154.34
      direct lattice vectors                 reciprocal lattice vectors
    -2.876893119 -4.078216950  1.309248141    -0.173788012 -0.122602600  0.000023267
    -2.876893144  4.078216962  1.309248121    -0.173788011  0.122602599  0.000023268
    -0.000880527  0.000000016 -6.576847318    -0.069191702 -0.000000001 -0.152039271

  length of vectors
     5.159699430  5.159699448  6.576847377     0.212682090  0.212682088  0.167043203


 
 k-points in units of 2pi/SCALE and weight: K-points file                           
   0.00000000  0.00000000  0.00000000       0.004
  -0.02482686 -0.01751466  0.00000332       0.008
   0.02482686 -0.01751466 -0.00000332       0.008
  -0.04965372 -0.03502931  0.00000665       0.008
   0.04965372 -0.03502931 -0.00000665       0.008
  -0.07448058 -0.05254397  0.00000997       0.008
   0.07448058 -0.05254397 -0.00000997       0.008
  -0.04965372 -0.00000000  0.00000665       0.008
  -0.07448058 -0.01751466  0.00000997       0.008
   0.07448058 -0.01751466 -0.00000997       0.008
  -0.09930744 -0.03502931  0.00001330       0.008
   0.09930744 -0.03502931 -0.00001330       0.008
   0.04965372  0.07005863 -0.00000665       0.008
  -0.04965372  0.07005863  0.00000665       0.008
   0.02482686  0.05254397 -0.00000332       0.008
  -0.02482686  0.05254397  0.00000332       0.008
   0.00000000  0.03502931  0.00000000       0.008
  -0.09930744 -0.00000000  0.00001330       0.008
  -0.12413429 -0.01751466  0.00001662       0.008
   0.12413429 -0.01751466 -0.00001662       0.008
   0.02482686  0.08757329 -0.00000332       0.008
  -0.02482686  0.08757329  0.00000332       0.008
   0.00000000  0.07005863  0.00000000       0.008
  -0.14896115 -0.00000000  0.00001994       0.008
   0.00000000  0.10508794  0.00000000       0.008
  -0.01383834 -0.00000000 -0.03040785       0.008
  -0.03866520 -0.01751466 -0.03040453       0.008
   0.03866520 -0.01751466  0.03040453       0.008
  -0.06349206 -0.03502931 -0.03040121       0.008
   0.06349206 -0.03502931  0.03040121       0.008
  -0.08831892 -0.05254397 -0.03039788       0.008
   0.08831892 -0.05254397  0.03039788       0.008
   0.06064224  0.05254397 -0.03041783       0.008
  -0.06064224  0.05254397  0.03041783       0.008
   0.03581538  0.03502931 -0.03041450       0.008
  -0.03581538  0.03502931  0.03041450       0.008
   0.01098852  0.01751466 -0.03041118       0.008
  -0.01098852  0.01751466  0.03041118       0.008
  -0.06349206 -0.00000000 -0.03040121       0.008
  -0.08831892 -0.01751466 -0.03039788       0.008
   0.08831892 -0.01751466  0.03039788       0.008
  -0.11314578 -0.03502931 -0.03039456       0.008
   0.11314578 -0.03502931  0.03039456       0.008
   0.03581538  0.07005863 -0.03041450       0.008
  -0.03581538  0.07005863  0.03041450       0.008
   0.01098852  0.05254397 -0.03041118       0.008
  -0.01098852  0.05254397  0.03041118       0.008
  -0.01383834  0.03502931 -0.03040785       0.008
   0.01383834  0.03502931  0.03040785       0.008
  -0.11314578 -0.00000000 -0.03039456       0.008
  -0.13797263 -0.01751466 -0.03039123       0.008
   0.13797263 -0.01751466  0.03039123       0.008
   0.01098852  0.08757329 -0.03041118       0.008
  -0.01098852  0.08757329  0.03041118       0.008
  -0.01383834  0.07005863 -0.03040785       0.008
   0.01383834  0.07005863  0.03040785       0.008
  -0.03866520  0.05254397 -0.03040453       0.008
   0.03866520  0.05254397  0.03040453       0.008
  -0.16279949 -0.00000000 -0.03038791       0.008
  -0.01383834  0.10508794 -0.03040785       0.008
   0.01383834  0.10508794  0.03040785       0.008
  -0.03866520  0.08757329 -0.03040453       0.008
   0.03866520  0.08757329  0.03040453       0.008
  -0.06349206  0.07005863 -0.03040121       0.008
   0.06349206  0.07005863  0.03040121       0.008
   0.13512281  0.00000000 -0.03042780       0.008
   0.11029595 -0.01751466 -0.03042447       0.008
  -0.11029595 -0.01751466  0.03042447       0.008
   0.08546909 -0.03502931 -0.03042115       0.008
  -0.08546910 -0.03502931  0.03042115       0.008
   0.08546909  0.00000000 -0.03042115       0.008
   0.06064224 -0.01751466 -0.03041783       0.008
  -0.06064224 -0.01751466  0.03041783       0.008
   0.03581538  0.00000000 -0.03041450       0.008
  -0.02767668 -0.00000000 -0.06081571       0.008
  -0.05250354 -0.01751466 -0.06081238       0.008
   0.05250354 -0.01751466  0.06081238       0.008
  -0.07733040 -0.03502931 -0.06080906       0.008
   0.07733040 -0.03502931  0.06080906       0.008
  -0.10215726 -0.05254397 -0.06080574       0.008
   0.10215726 -0.05254397  0.06080574       0.008
   0.04680390  0.05254397 -0.06082568       0.008
  -0.04680390  0.05254397  0.06082568       0.008
   0.02197704  0.03502931 -0.06082236       0.008
  -0.02197704  0.03502931  0.06082236       0.008
  -0.00284982  0.01751466 -0.06081903       0.008
   0.00284982  0.01751466  0.06081903       0.008
  -0.07733040 -0.00000000 -0.06080906       0.008
  -0.10215726 -0.01751466 -0.06080574       0.008
   0.10215726 -0.01751466  0.06080574       0.008
  -0.12698412 -0.03502931 -0.06080241       0.008
   0.12698412 -0.03502931  0.06080241       0.008
   0.02197704  0.07005863 -0.06082236       0.008
  -0.02197704  0.07005863  0.06082236       0.008
  -0.00284982  0.05254397 -0.06081903       0.008
   0.00284982  0.05254397  0.06081903       0.008
  -0.02767668  0.03502931 -0.06081571       0.008
   0.02767668  0.03502931  0.06081571       0.008
  -0.12698412 -0.00000000 -0.06080241       0.008
  -0.15181097 -0.01751466 -0.06079909       0.008
   0.15181097 -0.01751466  0.06079909       0.008
  -0.00284982  0.08757329 -0.06081903       0.008
   0.00284982  0.08757329  0.06081903       0.008
  -0.02767668  0.07005863 -0.06081571       0.008
   0.02767668  0.07005863  0.06081571       0.008
  -0.05250354  0.05254397 -0.06081238       0.008
   0.05250354  0.05254397  0.06081238       0.008
  -0.17663783 -0.00000000 -0.06079577       0.008
  -0.02767668  0.10508794 -0.06081571       0.008
   0.02767668  0.10508794  0.06081571       0.008
  -0.05250354  0.08757329 -0.06081238       0.008
   0.05250354  0.08757329  0.06081238       0.008
  -0.07733040  0.07005863 -0.06080906       0.008
   0.07733040  0.07005863  0.06080906       0.008
   0.12128447  0.00000000 -0.06083565       0.008
   0.09645761 -0.01751466 -0.06083233       0.008
  -0.09645761 -0.01751466  0.06083233       0.008
   0.07163075 -0.03502931 -0.06082900       0.008
  -0.07163075 -0.03502931  0.06082900       0.008
   0.07163075  0.00000000 -0.06082900       0.008
   0.04680390 -0.01751466 -0.06082568       0.008
  -0.04680390 -0.01751466  0.06082568       0.008
   0.02197704 -0.00000000 -0.06082236       0.008
 
 k-points in reciprocal lattice and weights: K-points file                           
   0.00000000  0.00000000  0.00000000       0.004
   0.14285714  0.00000000 -0.00000000       0.008
   0.00000000 -0.14285714  0.00000000       0.008
   0.28571429  0.00000000  0.00000000       0.008
   0.00000000 -0.28571429 -0.00000000       0.008
   0.42857143  0.00000000 -0.00000000       0.008
   0.00000000 -0.42857143  0.00000000       0.008
   0.14285714  0.14285714 -0.00000000       0.008
   0.28571429  0.14285714  0.00000000       0.008
  -0.14285714 -0.28571429  0.00000000       0.008
   0.42857143  0.14285714 -0.00000000       0.008
  -0.14285714 -0.42857143  0.00000000       0.008
  -0.42857143  0.14285714 -0.00000000       0.008
  -0.14285714  0.42857143 -0.00000000       0.008
  -0.28571429  0.14285714 -0.00000000       0.008
  -0.14285714  0.28571429  0.00000000       0.008
  -0.14285714  0.14285714 -0.00000000       0.008
   0.28571429  0.28571429  0.00000000       0.008
   0.42857143  0.28571429 -0.00000000       0.008
  -0.28571429 -0.42857143 -0.00000000       0.008
  -0.42857143  0.28571429 -0.00000000       0.008
  -0.28571429  0.42857143  0.00000000       0.008
  -0.28571429  0.28571429 -0.00000000       0.008
   0.42857143  0.42857143 -0.00000000       0.008
  -0.42857143  0.42857143  0.00000000       0.008
   0.00000000 -0.00000000  0.20000000       0.008
   0.14285714  0.00000000  0.20000000       0.008
   0.00000000 -0.14285714 -0.20000000       0.008
   0.28571429  0.00000000  0.20000000       0.008
   0.00000000 -0.28571429 -0.20000000       0.008
   0.42857143  0.00000000  0.20000000       0.008
   0.00000000 -0.42857143 -0.20000000       0.008
  -0.42857143 -0.00000000  0.20000000       0.008
  -0.00000000  0.42857143 -0.20000000       0.008
  -0.28571429 -0.00000000  0.20000000       0.008
  -0.00000000  0.28571429 -0.20000000       0.008
  -0.14285714 -0.00000000  0.20000000       0.008
   0.00000000  0.14285714 -0.20000000       0.008
   0.14285714  0.14285714  0.20000000       0.008
   0.28571429  0.14285714  0.20000000       0.008
  -0.14285714 -0.28571429 -0.20000000       0.008
   0.42857143  0.14285714  0.20000000       0.008
  -0.14285714 -0.42857143 -0.20000000       0.008
  -0.42857143  0.14285714  0.20000000       0.008
  -0.14285714  0.42857143 -0.20000000       0.008
  -0.28571429  0.14285714  0.20000000       0.008
  -0.14285714  0.28571429 -0.20000000       0.008
  -0.14285714  0.14285714  0.20000000       0.008
  -0.14285714  0.14285714 -0.20000000       0.008
   0.28571429  0.28571429  0.20000000       0.008
   0.42857143  0.28571429  0.20000000       0.008
  -0.28571429 -0.42857143 -0.20000000       0.008
  -0.42857143  0.28571429  0.20000000       0.008
  -0.28571429  0.42857143 -0.20000000       0.008
  -0.28571429  0.28571429  0.20000000       0.008
  -0.28571429  0.28571429 -0.20000000       0.008
  -0.14285714  0.28571429  0.20000000       0.008
  -0.28571429  0.14285714 -0.20000000       0.008
   0.42857143  0.42857143  0.20000000       0.008
  -0.42857143  0.42857143  0.20000000       0.008
  -0.42857143  0.42857143 -0.20000000       0.008
  -0.28571429  0.42857143  0.20000000       0.008
  -0.42857143  0.28571429 -0.20000000       0.008
  -0.14285714  0.42857143  0.20000000       0.008
  -0.42857143  0.14285714 -0.20000000       0.008
  -0.42857143 -0.42857143  0.20000000       0.008
  -0.28571429 -0.42857143  0.20000000       0.008
   0.42857143  0.28571429 -0.20000000       0.008
  -0.14285714 -0.42857143  0.20000000       0.008
   0.42857143  0.14285714 -0.20000000       0.008
  -0.28571429 -0.28571429  0.20000000       0.008
  -0.14285714 -0.28571429  0.20000000       0.008
   0.28571429  0.14285714 -0.20000000       0.008
  -0.14285714 -0.14285714  0.20000000       0.008
   0.00000000 -0.00000000  0.40000000       0.008
   0.14285714  0.00000000  0.40000000       0.008
   0.00000000 -0.14285714 -0.40000000       0.008
   0.28571429  0.00000000  0.40000000       0.008
   0.00000000 -0.28571429 -0.40000000       0.008
   0.42857143  0.00000000  0.40000000       0.008
   0.00000000 -0.42857143 -0.40000000       0.008
  -0.42857143 -0.00000000  0.40000000       0.008
   0.00000000  0.42857143 -0.40000000       0.008
  -0.28571429 -0.00000000  0.40000000       0.008
   0.00000000  0.28571429 -0.40000000       0.008
  -0.14285714 -0.00000000  0.40000000       0.008
  -0.00000000  0.14285714 -0.40000000       0.008
   0.14285714  0.14285714  0.40000000       0.008
   0.28571429  0.14285714  0.40000000       0.008
  -0.14285714 -0.28571429 -0.40000000       0.008
   0.42857143  0.14285714  0.40000000       0.008
  -0.14285714 -0.42857143 -0.40000000       0.008
  -0.42857143  0.14285714  0.40000000       0.008
  -0.14285714  0.42857143 -0.40000000       0.008
  -0.28571429  0.14285714  0.40000000       0.008
  -0.14285714  0.28571429 -0.40000000       0.008
  -0.14285714  0.14285714  0.40000000       0.008
  -0.14285714  0.14285714 -0.40000000       0.008
   0.28571429  0.28571429  0.40000000       0.008
   0.42857143  0.28571429  0.40000000       0.008
  -0.28571429 -0.42857143 -0.40000000       0.008
  -0.42857143  0.28571429  0.40000000       0.008
  -0.28571429  0.42857143 -0.40000000       0.008
  -0.28571429  0.28571429  0.40000000       0.008
  -0.28571429  0.28571429 -0.40000000       0.008
  -0.14285714  0.28571429  0.40000000       0.008
  -0.28571429  0.14285714 -0.40000000       0.008
   0.42857143  0.42857143  0.40000000       0.008
  -0.42857143  0.42857143  0.40000000       0.008
  -0.42857143  0.42857143 -0.40000000       0.008
  -0.28571429  0.42857143  0.40000000       0.008
  -0.42857143  0.28571429 -0.40000000       0.008
  -0.14285714  0.42857143  0.40000000       0.008
  -0.42857143  0.14285714 -0.40000000       0.008
  -0.42857143 -0.42857143  0.40000000       0.008
  -0.28571429 -0.42857143  0.40000000       0.008
   0.42857143  0.28571429 -0.40000000       0.008
  -0.14285714 -0.42857143  0.40000000       0.008
   0.42857143  0.14285714 -0.40000000       0.008
  -0.28571429 -0.28571429  0.40000000       0.008
  -0.14285714 -0.28571429  0.40000000       0.008
   0.28571429  0.14285714 -0.40000000       0.008
  -0.14285714 -0.14285714  0.40000000       0.008
 
 position of ions in fractional coordinates (direct lattice) 
   0.32047875  0.67952124  0.25000018
   0.67952125  0.32047875  0.75000019
   0.99999973  0.00000014  0.49999993
   0.00000013  0.99999973  0.99999993
   0.32348268  0.67651701  0.75000019
   0.67651701  0.32348268  0.25000019
   0.06483766  0.93516284  0.25000013
   0.93516284  0.06483766  0.75000013
   0.74990477  0.64639186  0.40853485
   0.35360800  0.25009513  0.09146519
   0.25009512  0.35360799  0.59146519
   0.64639184  0.74990475  0.90853485
   0.11564101  0.70067029  0.89817983
   0.29932990  0.88435899  0.60181971
   0.88435900  0.29932993  0.10181971
   0.70067030  0.11564100  0.39817983
 
 position of ions in cartesian coordinates  (Angst):
  -2.87711325  1.46425321 -0.33496487
  -2.87755352 -1.46425321 -3.62338858
  -2.87733301 -4.07821531 -1.97917522
  -2.87777329  4.07821534 -5.26759893
  -2.87755265  1.43975062 -3.62338900
  -2.87711237 -1.43975058 -0.33496534
  -2.87711471  3.54937489 -0.33496393
  -2.87755496 -3.54937486 -3.62338751
  -4.01735590 -0.42214809 -0.85877258
  -1.73686994 -0.42214795  0.18884464
  -1.73731015  0.42214795 -3.09957904
  -4.01779605  0.42214815 -4.14719630
  -2.34923125  2.38587637 -4.83843754
  -3.40587639  2.38587558 -2.40833385
  -3.40543619 -2.38587547  0.88008984
  -2.34879097 -2.38587640 -1.55001389
 


--------------------------------------------------------------------------------------------------------


 k-point   1 :   0.0000 0.0000 0.0000  plane waves:    4181
 k-point   2 :   0.1429 0.0000-0.0000  plane waves:    4175
 k-point   3 :   0.0000-0.1429 0.0000  plane waves:    4175
 k-point   4 :   0.2857 0.0000 0.0000  plane waves:    4152
 k-point   5 :   0.0000-0.2857-0.0000  plane waves:    4152
 k-point   6 :   0.4286 0.0000-0.0000  plane waves:    4154
 k-point   7 :   0.0000-0.4286 0.0000  plane waves:    4154
 k-point   8 :   0.1429 0.1429-0.0000  plane waves:    4168
 k-point   9 :   0.2857 0.1429 0.0000  plane waves:    4166
 k-point  10 :  -0.1429-0.2857 0.0000  plane waves:    4166
 k-point  11 :   0.4286 0.1429-0.0000  plane waves:    4157
 k-point  12 :  -0.1429-0.4286 0.0000  plane waves:    4157
 k-point  13 :  -0.4286 0.1429-0.0000  plane waves:    4154
 k-point  14 :  -0.1429 0.4286-0.0000  plane waves:    4154
 k-point  15 :  -0.2857 0.1429-0.0000  plane waves:    4165
 k-point  16 :  -0.1429 0.2857 0.0000  plane waves:    4165
 k-point  17 :  -0.1429 0.1429-0.0000  plane waves:    4165
 k-point  18 :   0.2857 0.2857 0.0000  plane waves:    4163
 k-point  19 :   0.4286 0.2857-0.0000  plane waves:    4143
 k-point  20 :  -0.2857-0.4286-0.0000  plane waves:    4143
 k-point  21 :  -0.4286 0.2857-0.0000  plane waves:    4149
 k-point  22 :  -0.2857 0.4286 0.0000  plane waves:    4149
 k-point  23 :  -0.2857 0.2857-0.0000  plane waves:    4155
 k-point  24 :   0.4286 0.4286-0.0000  plane waves:    4116
 k-point  25 :  -0.4286 0.4286 0.0000  plane waves:    4128
 k-point  26 :   0.0000-0.0000 0.2000  plane waves:    4166
 k-point  27 :   0.1429 0.0000 0.2000  plane waves:    4167
 k-point  28 :   0.0000-0.1429-0.2000  plane waves:    4167
 k-point  29 :   0.2857 0.0000 0.2000  plane waves:    4163
 k-point  30 :   0.0000-0.2857-0.2000  plane waves:    4163
 k-point  31 :   0.4286 0.0000 0.2000  plane waves:    4157
 k-point  32 :   0.0000-0.4286-0.2000  plane waves:    4157
 k-point  33 :  -0.4286-0.0000 0.2000  plane waves:    4165
 k-point  34 :  -0.0000 0.4286-0.2000  plane waves:    4165
 k-point  35 :  -0.2857-0.0000 0.2000  plane waves:    4166
 k-point  36 :  -0.0000 0.2857-0.2000  plane waves:    4166
 k-point  37 :  -0.1429-0.0000 0.2000  plane waves:    4159
 k-point  38 :   0.0000 0.1429-0.2000  plane waves:    4159
 k-point  39 :   0.1429 0.1429 0.2000  plane waves:    4173
 k-point  40 :   0.2857 0.1429 0.2000  plane waves:    4165
 k-point  41 :  -0.1429-0.2857-0.2000  plane waves:    4165
 k-point  42 :   0.4286 0.1429 0.2000  plane waves:    4156
 k-point  43 :  -0.1429-0.4286-0.2000  plane waves:    4156
 k-point  44 :  -0.4286 0.1429 0.2000  plane waves:    4148
 k-point  45 :  -0.1429 0.4286-0.2000  plane waves:    4148
 k-point  46 :  -0.2857 0.1429 0.2000  plane waves:    4155
 k-point  47 :  -0.1429 0.2857-0.2000  plane waves:    4155
 k-point  48 :  -0.1429 0.1429 0.2000  plane waves:    4160
 k-point  49 :  -0.1429 0.1429-0.2000  plane waves:    4160
 k-point  50 :   0.2857 0.2857 0.2000  plane waves:    4139
 k-point  51 :   0.4286 0.2857 0.2000  plane waves:    4142
 k-point  52 :  -0.2857-0.4286-0.2000  plane waves:    4142
 k-point  53 :  -0.4286 0.2857 0.2000  plane waves:    4145
 k-point  54 :  -0.2857 0.4286-0.2000  plane waves:    4145
 k-point  55 :  -0.2857 0.2857 0.2000  plane waves:    4150
 k-point  56 :  -0.2857 0.2857-0.2000  plane waves:    4150
 k-point  57 :  -0.1429 0.2857 0.2000  plane waves:    4162
 k-point  58 :  -0.2857 0.1429-0.2000  plane waves:    4162
 k-point  59 :   0.4286 0.4286 0.2000  plane waves:    4127
 k-point  60 :  -0.4286 0.4286 0.2000  plane waves:    4141
 k-point  61 :  -0.4286 0.4286-0.2000  plane waves:    4141
 k-point  62 :  -0.2857 0.4286 0.2000  plane waves:    4151
 k-point  63 :  -0.4286 0.2857-0.2000  plane waves:    4151
 k-point  64 :  -0.1429 0.4286 0.2000  plane waves:    4153
 k-point  65 :  -0.4286 0.1429-0.2000  plane waves:    4153
 k-point  66 :  -0.4286-0.4286 0.2000  plane waves:    4141
 k-point  67 :  -0.2857-0.4286 0.2000  plane waves:    4152
 k-point  68 :   0.4286 0.2857-0.2000  plane waves:    4152
 k-point  69 :  -0.1429-0.4286 0.2000  plane waves:    4160
 k-point  70 :   0.4286 0.1429-0.2000  plane waves:    4160
 k-point  71 :  -0.2857-0.2857 0.2000  plane waves:    4158
 k-point  72 :  -0.1429-0.2857 0.2000  plane waves:    4160
 k-point  73 :   0.2857 0.1429-0.2000  plane waves:    4160
 k-point  74 :  -0.1429-0.1429 0.2000  plane waves:    4150
 k-point  75 :   0.0000-0.0000 0.4000  plane waves:    4159
 k-point  76 :   0.1429 0.0000 0.4000  plane waves:    4153
 k-point  77 :   0.0000-0.1429-0.4000  plane waves:    4153
 k-point  78 :   0.2857 0.0000 0.4000  plane waves:    4160
 k-point  79 :   0.0000-0.2857-0.4000  plane waves:    4160
 k-point  80 :   0.4286 0.0000 0.4000  plane waves:    4160
 k-point  81 :   0.0000-0.4286-0.4000  plane waves:    4160
 k-point  82 :  -0.4286-0.0000 0.4000  plane waves:    4162
 k-point  83 :   0.0000 0.4286-0.4000  plane waves:    4162
 k-point  84 :  -0.2857-0.0000 0.4000  plane waves:    4167
 k-point  85 :   0.0000 0.2857-0.4000  plane waves:    4167
 k-point  86 :  -0.1429-0.0000 0.4000  plane waves:    4162
 k-point  87 :  -0.0000 0.1429-0.4000  plane waves:    4162
 k-point  88 :   0.1429 0.1429 0.4000  plane waves:    4156
 k-point  89 :   0.2857 0.1429 0.4000  plane waves:    4155
 k-point  90 :  -0.1429-0.2857-0.4000  plane waves:    4155
 k-point  91 :   0.4286 0.1429 0.4000  plane waves:    4146
 k-point  92 :  -0.1429-0.4286-0.4000  plane waves:    4146
 k-point  93 :  -0.4286 0.1429 0.4000  plane waves:    4154
 k-point  94 :  -0.1429 0.4286-0.4000  plane waves:    4154
 k-point  95 :  -0.2857 0.1429 0.4000  plane waves:    4159
 k-point  96 :  -0.1429 0.2857-0.4000  plane waves:    4159
 k-point  97 :  -0.1429 0.1429 0.4000  plane waves:    4157
 k-point  98 :  -0.1429 0.1429-0.4000  plane waves:    4157
 k-point  99 :   0.2857 0.2857 0.4000  plane waves:    4124
 k-point 100 :   0.4286 0.2857 0.4000  plane waves:    4142
 k-point 101 :  -0.2857-0.4286-0.4000  plane waves:    4142
 k-point 102 :  -0.4286 0.2857 0.4000  plane waves:    4158
 k-point 103 :  -0.2857 0.4286-0.4000  plane waves:    4158
 k-point 104 :  -0.2857 0.2857 0.4000  plane waves:    4166
 k-point 105 :  -0.2857 0.2857-0.4000  plane waves:    4166
 k-point 106 :  -0.1429 0.2857 0.4000  plane waves:    4162
 k-point 107 :  -0.2857 0.1429-0.4000  plane waves:    4162
 k-point 108 :   0.4286 0.4286 0.4000  plane waves:    4146
 k-point 109 :  -0.4286 0.4286 0.4000  plane waves:    4155
 k-point 110 :  -0.4286 0.4286-0.4000  plane waves:    4155
 k-point 111 :  -0.2857 0.4286 0.4000  plane waves:    4164
 k-point 112 :  -0.4286 0.2857-0.4000  plane waves:    4164
 k-point 113 :  -0.1429 0.4286 0.4000  plane waves:    4155
 k-point 114 :  -0.4286 0.1429-0.4000  plane waves:    4155
 k-point 115 :  -0.4286-0.4286 0.4000  plane waves:    4158
 k-point 116 :  -0.2857-0.4286 0.4000  plane waves:    4169
 k-point 117 :   0.4286 0.2857-0.4000  plane waves:    4169
 k-point 118 :  -0.1429-0.4286 0.4000  plane waves:    4155
 k-point 119 :   0.4286 0.1429-0.4000  plane waves:    4155
 k-point 120 :  -0.2857-0.2857 0.4000  plane waves:    4158
 k-point 121 :  -0.1429-0.2857 0.4000  plane waves:    4151
 k-point 122 :   0.2857 0.1429-0.4000  plane waves:    4151
 k-point 123 :  -0.1429-0.1429 0.4000  plane waves:    4161

 maximum and minimum number of plane-waves per node :      1063     1007

 maximum number of plane-waves:      4181
 maximum index in each direction: 
   IXMAX=   10   IYMAX=   10   IZMAX=   12
   IXMIN=  -10   IYMIN=  -10   IZMIN=  -12


 real space projection operators:
  total allocation   :       4679.88 KBytes
  max/ min on nodes  :       1172.19       1168.42


 parallel 3D FFT for wavefunctions:
    minimum data exchange during FFTs selected (reduces bandwidth)
 parallel 3D FFT for charge:
    minimum data exchange during FFTs selected (reduces bandwidth)


 total amount of memory used by VASP MPI-rank0   139736. kBytes
=======================================================================

   base      :      30000. kBytes
   nonlr-proj:       3230. kBytes
   fftplans  :       2490. kBytes
   grid      :       8814. kBytes
   one-center:        124. kBytes
   wavefun   :      95078. kBytes
 
     INWAV:  cpu time    0.0000: real time    0.0000
 Broyden mixing: mesh for mixing (old mesh)
   NGX = 19   NGY = 19   NGZ = 25
  (NGX  = 80   NGY  = 80   NGZ  =100)
  gives a total of   9025 points

 initial charge density was supplied:
 number of electron     102.0000010 magnetization       9.9999996
 keeping initial charge density in first step


--------------------------------------------------------------------------------------------------------


 Maximum index for non-local projection operator         1586
 Maximum index for augmentation-charges         1694 (set IRDMAX)


--------------------------------------------------------------------------------------------------------


 First call to EWALD:  gamma=   0.330
 Maximum number of real-space cells 3x 3x 3
 Maximum number of reciprocal cells 3x 3x 3

    FEWALD:  cpu time    0.0011: real time    0.0011


--------------------------------------- Iteration      1(   1)  ---------------------------------------


    POTLOK:  cpu time    0.1826: real time    0.1827
    SETDIJ:  cpu time    1.2691: real time    1.2691
atom =   1  type =  1  l = 2
 
 onsite density matrix
 
spin component  1
 
  0.9585  0.0077 -0.0000 -0.0000  0.0000
  0.0077  0.9493 -0.0000 -0.0000  0.0000
 -0.0000 -0.0000  0.9598  0.0083  0.0010
 -0.0000 -0.0000  0.0083  0.9424 -0.0007
  0.0000  0.0000  0.0010 -0.0007  0.9685
 
spin component  2
 
  0.0362  0.0098 -0.0000 -0.0000 -0.0000
  0.0098  0.0214 -0.0000 -0.0000 -0.0000
 -0.0000 -0.0000  0.0426  0.0073  0.0140
 -0.0000 -0.0000  0.0073  0.0116 -0.0035
 -0.0000 -0.0000  0.0140 -0.0035  0.0571
 
 occupancies and eigenvectors
 
  o =  0.0090  v =  0.0000  0.0000  0.0000  0.0000  0.0000  0.0000 -0.0000 -0.2677  0.9522  0.1472      0.0000  0.0000  0.0000  0.0000  0.0000  0.0000  0.0000  0.0000  0.0000  0.0000
  o =  0.0165  v =  0.0000  0.0000  0.0000  0.0000  0.0000 -0.4480  0.8940  0.0000  0.0000 -0.0000      0.0000  0.0000  0.0000  0.0000  0.0000  0.0000  0.0000  0.0000  0.0000  0.0000
  o =  0.0366  v =  0.0000  0.0000  0.0000  0.0000  0.0000  0.0003  0.0002 -0.8095 -0.3052  0.5015      0.0000  0.0000  0.0000  0.0000  0.0000  0.0000  0.0000  0.0000  0.0000  0.0000
  o =  0.0411  v =  0.0000  0.0000  0.0000  0.0000  0.0000 -0.8940 -0.4480 -0.0004 -0.0001 -0.0000      0.0000  0.0000  0.0000  0.0000  0.0000  0.0000  0.0000  0.0000  0.0000  0.0000
  o =  0.0656  v =  0.0000  0.0000  0.0000  0.0000  0.0000  0.0002  0.0001 -0.5225 -0.0151 -0.8525      0.0000  0.0000  0.0000  0.0000  0.0000  0.0000  0.0000  0.0000  0.0000  0.0000
  o =  0.9391  v =  0.0000 -0.0000  0.3711 -0.9280 -0.0333  0.0000  0.0000  0.0000  0.0000  0.0000      0.0000  0.0000  0.0000  0.0000  0.0000  0.0000  0.0000  0.0000  0.0000  0.0000
  o =  0.9449  v =  0.4955 -0.8686 -0.0000  0.0000 -0.0000  0.0000  0.0000  0.0000  0.0000  0.0000      0.0000  0.0000  0.0000  0.0000  0.0000  0.0000  0.0000  0.0000  0.0000  0.0000
  o =  0.9629  v =  0.8686  0.4955  0.0002  0.0001 -0.0000  0.0000  0.0000  0.0000  0.0000  0.0000      0.0000  0.0000  0.0000  0.0000  0.0000  0.0000  0.0000  0.0000  0.0000  0.0000
  o =  0.9630  v =  0.0002  0.0001 -0.9209 -0.3723  0.1154  0.0000  0.0000  0.0000  0.0000  0.0000      0.0000  0.0000  0.0000  0.0000  0.0000  0.0000  0.0000  0.0000  0.0000  0.0000
  o =  0.9686  v = -0.0000 -0.0000 -0.1195 -0.0122 -0.9928  0.0000  0.0000  0.0000  0.0000  0.0000      0.0000  0.0000  0.0000  0.0000  0.0000  0.0000  0.0000  0.0000  0.0000  0.0000
atom =   2  type =  1  l = 2
 
 onsite density matrix
 
spin component  1
 
  0.9585  0.0077  0.0000  0.0000 -0.0000
  0.0077  0.9493  0.0000  0.0000 -0.0000
  0.0000  0.0000  0.9598  0.0083  0.0010
  0.0000  0.0000  0.0083  0.9424 -0.0007
 -0.0000 -0.0000  0.0010 -0.0007  0.9685
 
spin component  2
 
  0.0362  0.0098  0.0000  0.0000  0.0000
  0.0098  0.0214  0.0000  0.0000  0.0000
  0.0000  0.0000  0.0426  0.0073  0.0140
  0.0000  0.0000  0.0073  0.0116 -0.0035
  0.0000  0.0000  0.0140 -0.0035  0.0571
 
 occupancies and eigenvectors
 
  o =  0.0090  v =  0.0000  0.0000  0.0000  0.0000  0.0000 -0.0000  0.0000 -0.2677  0.9522  0.1472      0.0000  0.0000  0.0000  0.0000  0.0000  0.0000  0.0000  0.0000  0.0000  0.0000
  o =  0.0165  v =  0.0000  0.0000  0.0000  0.0000  0.0000 -0.4480  0.8940 -0.0000 -0.0000  0.0000      0.0000  0.0000  0.0000  0.0000  0.0000  0.0000  0.0000  0.0000  0.0000  0.0000
  o =  0.0366  v =  0.0000  0.0000  0.0000  0.0000  0.0000 -0.0003 -0.0002 -0.8095 -0.3052  0.5016      0.0000  0.0000  0.0000  0.0000  0.0000  0.0000  0.0000  0.0000  0.0000  0.0000
  o =  0.0411  v =  0.0000  0.0000  0.0000  0.0000  0.0000 -0.8940 -0.4480  0.0004  0.0001  0.0000      0.0000  0.0000  0.0000  0.0000  0.0000  0.0000  0.0000  0.0000  0.0000  0.0000
  o =  0.0656  v =  0.0000  0.0000  0.0000  0.0000  0.0000 -0.0002 -0.0001 -0.5225 -0.0151 -0.8525      0.0000  0.0000  0.0000  0.0000  0.0000  0.0000  0.0000  0.0000  0.0000  0.0000
  o =  0.9391  v = -0.0000  0.0000  0.3711 -0.9280 -0.0333  0.0000  0.0000  0.0000  0.0000  0.0000      0.0000  0.0000  0.0000  0.0000  0.0000  0.0000  0.0000  0.0000  0.0000  0.0000
  o =  0.9449  v =  0.4955 -0.8686  0.0000 -0.0000  0.0000  0.0000  0.0000  0.0000  0.0000  0.0000      0.0000  0.0000  0.0000  0.0000  0.0000  0.0000  0.0000  0.0000  0.0000  0.0000
  o =  0.9629  v =  0.8686  0.4955 -0.0002 -0.0001  0.0000  0.0000  0.0000  0.0000  0.0000  0.0000      0.0000  0.0000  0.0000  0.0000  0.0000  0.0000  0.0000  0.0000  0.0000  0.0000
  o =  0.9630  v = -0.0002 -0.0001 -0.9209 -0.3723  0.1154  0.0000  0.0000  0.0000  0.0000  0.0000      0.0000  0.0000  0.0000  0.0000  0.0000  0.0000  0.0000  0.0000  0.0000  0.0000
  o =  0.9686  v =  0.0000  0.0000 -0.1195 -0.0122 -0.9928  0.0000  0.0000  0.0000  0.0000  0.0000      0.0000  0.0000  0.0000  0.0000  0.0000  0.0000  0.0000  0.0000  0.0000  0.0000
     EDDAV:  cpu time   95.0833: real time   95.0909
       DOS:  cpu time    0.0112: real time    0.0112
    --------------------------------------------
      LOOP:  cpu time   96.5461: real time   96.5538

 eigenvalue-minimisations  : 32967
 total energy-change (2. order) : 0.9613868E+03  (-0.5483131E+04)
 number of electron     102.0000010 magnetization       9.9999996
 augmentation part      102.0000010 magnetization       9.9999996

 Free energy of the ion-electron system (eV)
  ---------------------------------------------------
  alpha Z        PSCENC =       297.91288146
  Ewald energy   TEWEN  =     -6531.80334775
  -Hartree energ DENC   =     -2440.40252602
  -exchange      EXHF   =         0.00000000
  -V(xc)+E(xc)   XCENC  =       489.19764044
  PAW double counting   =     16241.95267899   -16345.68532264
  entropy T*S    EENTRO =        -0.00412159
  eigenvalues    EBANDS =       463.85237466
  atomic energy  EATOM  =      8786.36651486
  Solvation  Ediel_sol  =         0.00000000
  ---------------------------------------------------
  free energy    TOTEN  =       961.38677240 eV

  energy without entropy =      961.39089400  energy(sigma->0) =      961.38883320


--------------------------------------------------------------------------------------------------------




--------------------------------------- Iteration      1(   2)  ---------------------------------------


     EDDAV:  cpu time   99.5097: real time   99.5175
       DOS:  cpu time    0.0101: real time    0.0101
    --------------------------------------------
      LOOP:  cpu time   99.5198: real time   99.5276

 eigenvalue-minimisations  : 35559
 total energy-change (2. order) :-0.1069105E+04  (-0.9945658E+03)
 number of electron     102.0000010 magnetization       9.9999996
 augmentation part      102.0000010 magnetization       9.9999996

 Free energy of the ion-electron system (eV)
  ---------------------------------------------------
  alpha Z        PSCENC =       297.91288146
  Ewald energy   TEWEN  =     -6531.80334775
  -Hartree energ DENC   =     -2440.40252602
  -exchange      EXHF   =         0.00000000
  -V(xc)+E(xc)   XCENC  =       489.19764044
  PAW double counting   =     16241.95267899   -16345.68532264
  entropy T*S    EENTRO =        -0.00007162
  eigenvalues    EBANDS =      -605.25651765
  atomic energy  EATOM  =      8786.36651486
  Solvation  Ediel_sol  =         0.00000000
  ---------------------------------------------------
  free energy    TOTEN  =      -107.71806994 eV

  energy without entropy =     -107.71799832  energy(sigma->0) =     -107.71803413


--------------------------------------------------------------------------------------------------------




--------------------------------------- Iteration      1(   3)  ---------------------------------------


     EDDAV:  cpu time  106.4195: real time  106.4292
       DOS:  cpu time    0.0032: real time    0.0032
    --------------------------------------------
      LOOP:  cpu time  106.4227: real time  106.4324

 eigenvalue-minimisations  : 37794
 total energy-change (2. order) :-0.1023005E+03  (-0.1007827E+03)
 number of electron     102.0000010 magnetization       9.9999996
 augmentation part      102.0000010 magnetization       9.9999996

 Free energy of the ion-electron system (eV)
  ---------------------------------------------------
  alpha Z        PSCENC =       297.91288146
  Ewald energy   TEWEN  =     -6531.80334775
  -Hartree energ DENC   =     -2440.40252602
  -exchange      EXHF   =         0.00000000
  -V(xc)+E(xc)   XCENC  =       489.19764044
  PAW double counting   =     16241.95267899   -16345.68532264
  entropy T*S    EENTRO =        -0.00000000
  eigenvalues    EBANDS =      -707.55704342
  atomic energy  EATOM  =      8786.36651486
  Solvation  Ediel_sol  =         0.00000000
  ---------------------------------------------------
  free energy    TOTEN  =      -210.01852409 eV

  energy without entropy =     -210.01852409  energy(sigma->0) =     -210.01852409


--------------------------------------------------------------------------------------------------------




--------------------------------------- Iteration      1(   4)  ---------------------------------------


     EDDAV:  cpu time  108.7644: real time  108.7745
       DOS:  cpu time    0.0032: real time    0.0032
    --------------------------------------------
      LOOP:  cpu time  108.7677: real time  108.7778

 eigenvalue-minimisations  : 38223
 total energy-change (2. order) :-0.2496728E+01  (-0.2483552E+01)
 number of electron     102.0000010 magnetization       9.9999996
 augmentation part      102.0000010 magnetization       9.9999996

 Free energy of the ion-electron system (eV)
  ---------------------------------------------------
  alpha Z        PSCENC =       297.91288146
  Ewald energy   TEWEN  =     -6531.80334775
  -Hartree energ DENC   =     -2440.40252602
  -exchange      EXHF   =         0.00000000
  -V(xc)+E(xc)   XCENC  =       489.19764044
  PAW double counting   =     16241.95267899   -16345.68532264
  entropy T*S    EENTRO =        -0.00000000
  eigenvalues    EBANDS =      -710.05377095
  atomic energy  EATOM  =      8786.36651486
  Solvation  Ediel_sol  =         0.00000000
  ---------------------------------------------------
  free energy    TOTEN  =      -212.51525162 eV

  energy without entropy =     -212.51525162  energy(sigma->0) =     -212.51525162


--------------------------------------------------------------------------------------------------------




--------------------------------------- Iteration      1(   5)  ---------------------------------------


     EDDAV:  cpu time  108.6964: real time  108.7050
       DOS:  cpu time    0.0036: real time    0.0036
    CHARGE:  cpu time   10.7492: real time   10.7496
    MIXING:  cpu time    0.0038: real time    0.0038
    --------------------------------------------
      LOOP:  cpu time  119.4530: real time  119.4620

 eigenvalue-minimisations  : 38988
 total energy-change (2. order) :-0.4804801E-01  (-0.4795854E-01)
 number of electron     102.0000009 magnetization       9.9999996
 augmentation part       20.3491958 magnetization       6.4779986

 Broyden mixing:
  rms(total) = 0.54406E+00    rms(broyden)= 0.54397E+00
  rms(prec ) = 0.67212E+00
  weight for this iteration     100.00

 Free energy of the ion-electron system (eV)
  ---------------------------------------------------
  alpha Z        PSCENC =       297.91288146
  Ewald energy   TEWEN  =     -6531.80334775
  -Hartree energ DENC   =     -2440.40252602
  -exchange      EXHF   =         0.00000000
  -V(xc)+E(xc)   XCENC  =       489.19764044
  PAW double counting   =     16241.95267899   -16345.68532264
  entropy T*S    EENTRO =        -0.00000000
  eigenvalues    EBANDS =      -710.10181896
  atomic energy  EATOM  =      8786.36651486
  Solvation  Ediel_sol  =         0.00000000
  ---------------------------------------------------
  free energy    TOTEN  =      -212.56329962 eV

  energy without entropy =     -212.56329962  energy(sigma->0) =     -212.56329962


--------------------------------------------------------------------------------------------------------




--------------------------------------- Iteration      1(   6)  ---------------------------------------


    POTLOK:  cpu time    0.1895: real time    0.1895
    SETDIJ:  cpu time    1.5561: real time    1.5562
atom =   1  type =  1  l = 2
 
 onsite density matrix
 
spin component  1
 
  0.9534  0.0083 -0.0000  0.0000  0.0000
  0.0083  0.9432 -0.0000  0.0000  0.0000
 -0.0000 -0.0000  0.9546  0.0094  0.0004
  0.0000  0.0000  0.0094  0.9361 -0.0006
  0.0000  0.0000  0.0004 -0.0006  0.9635
 
spin component  2
 
  0.0399  0.0096  0.0000 -0.0000 -0.0000
  0.0096  0.0258  0.0000 -0.0000 -0.0000
  0.0000  0.0000  0.0462  0.0066  0.0142
 -0.0000 -0.0000  0.0066  0.0158 -0.0035
 -0.0000 -0.0000  0.0142 -0.0035  0.0607
 
 occupancies and eigenvectors
 
  o =  0.0134  v =  0.0000  0.0000  0.0000  0.0000  0.0000  0.0000  0.0001 -0.2572  0.9548  0.1490      0.0000  0.0000  0.0000  0.0000  0.0000  0.0000  0.0000  0.0000  0.0000  0.0000
  o =  0.0209  v =  0.0000  0.0000  0.0000  0.0000  0.0000 -0.4512  0.8924 -0.0000 -0.0000 -0.0000      0.0000  0.0000  0.0000  0.0000  0.0000  0.0000  0.0000  0.0000  0.0000  0.0000
  o =  0.0398  v =  0.0000  0.0000  0.0000  0.0000  0.0000  0.0006  0.0003 -0.8122 -0.2972  0.5019      0.0000  0.0000  0.0000  0.0000  0.0000  0.0000  0.0000  0.0000  0.0000  0.0000
  o =  0.0447  v =  0.0000  0.0000  0.0000  0.0000  0.0000 -0.8924 -0.4512 -0.0007 -0.0002  0.0002      0.0000  0.0000  0.0000  0.0000  0.0000  0.0000  0.0000  0.0000  0.0000  0.0000
  o =  0.0694  v =  0.0000  0.0000  0.0000  0.0000  0.0000  0.0002  0.0001 -0.5235 -0.0081 -0.8520      0.0000  0.0000  0.0000  0.0000  0.0000  0.0000  0.0000  0.0000  0.0000  0.0000
  o =  0.9321  v =  0.0000 -0.0001 -0.3857  0.9224  0.0213  0.0000  0.0000  0.0000  0.0000  0.0000      0.0000  0.0000  0.0000  0.0000  0.0000  0.0000  0.0000  0.0000  0.0000  0.0000
  o =  0.9386  v =  0.4883 -0.8727 -0.0000 -0.0001  0.0000  0.0000  0.0000  0.0000  0.0000  0.0000      0.0000  0.0000  0.0000  0.0000  0.0000  0.0000  0.0000  0.0000  0.0000  0.0000
  o =  0.9581  v =  0.8727  0.4883  0.0043  0.0019 -0.0003  0.0000  0.0000  0.0000  0.0000  0.0000      0.0000  0.0000  0.0000  0.0000  0.0000  0.0000  0.0000  0.0000  0.0000  0.0000
  o =  0.9586  v =  0.0041  0.0024 -0.9221 -0.3861  0.0242  0.0000  0.0000  0.0000  0.0000  0.0000      0.0000  0.0000  0.0000  0.0000  0.0000  0.0000  0.0000  0.0000  0.0000  0.0000
  o =  0.9636  v =  0.0001  0.0001  0.0305 -0.0103  0.9995  0.0000  0.0000  0.0000  0.0000  0.0000      0.0000  0.0000  0.0000  0.0000  0.0000  0.0000  0.0000  0.0000  0.0000  0.0000
atom =   2  type =  1  l = 2
 
 onsite density matrix
 
spin component  1
 
  0.9534  0.0083  0.0000  0.0000 -0.0000
  0.0083  0.9432  0.0000 -0.0000  0.0000
  0.0000  0.0000  0.9546  0.0094  0.0004
  0.0000 -0.0000  0.0094  0.9361 -0.0006
 -0.0000  0.0000  0.0004 -0.0006  0.9635
 
spin component  2
 
  0.0399  0.0096  0.0000 -0.0000  0.0000
  0.0096  0.0258  0.0000  0.0000  0.0000
  0.0000  0.0000  0.0462  0.0066  0.0142
 -0.0000  0.0000  0.0066  0.0158 -0.0035
  0.0000  0.0000  0.0142 -0.0035  0.0607
 
 occupancies and eigenvectors
 
  o =  0.0134  v =  0.0000  0.0000  0.0000  0.0000  0.0000 -0.0000  0.0001  0.2572 -0.9548 -0.1491      0.0000  0.0000  0.0000  0.0000  0.0000  0.0000  0.0000  0.0000  0.0000  0.0000
  o =  0.0209  v =  0.0000  0.0000  0.0000  0.0000  0.0000 -0.4513  0.8924 -0.0001  0.0000  0.0001      0.0000  0.0000  0.0000  0.0000  0.0000  0.0000  0.0000  0.0000  0.0000  0.0000
[...]
     62      14.9919      0.00000
     63      15.3619      0.00000
     64      15.5918      0.00000
     65      15.9878      0.00000
     66      16.0602      0.00000


--------------------------------------------------------------------------------------------------------


 soft charge-density along one line, spin component           1
         0         1         2         3         4         5         6         7         8         9
 total charge-density along one line
 
 soft charge-density along one line, spin component           2
         0         1         2         3         4         5         6         7         8         9
 total charge-density along one line
 
 pseudopotential strength for first ion, spin component:           1
-45.093   0.000  -0.000   8.992  -0.000   0.000  -0.000   0.000
  0.000 -45.221   0.037  -0.000   9.016  -0.013   0.003   0.041
 -0.000   0.037 -45.172   0.000  -0.013   8.999   0.048   0.003
  8.992  -0.000   0.000   5.251  -0.000  -0.000   0.000  -0.000
 -0.000   9.016  -0.013  -0.000   5.273   0.001  -0.002  -0.007
  0.000  -0.013   8.999  -0.000   0.001   5.276  -0.014  -0.002
 -0.000   0.003   0.048   0.000  -0.002  -0.014  -5.192   0.007
  0.000   0.041   0.003  -0.000  -0.007  -0.002   0.007  -5.207
 -0.030   0.000   0.000   0.007  -0.000  -0.000  -0.000  -0.000
  0.003  -0.000   0.000  -0.002   0.000  -0.000  -0.000  -0.000
 -0.046   0.000  -0.000   0.004  -0.000   0.000   0.000  -0.000
 -0.000   0.002   0.047   0.000  -0.002  -0.014  -5.698   0.006
  0.000   0.041   0.002  -0.000  -0.008  -0.002   0.006  -5.712
 -0.030   0.000   0.000   0.007  -0.000  -0.000  -0.000  -0.000
  0.002  -0.000   0.000  -0.002   0.000  -0.000  -0.000  -0.000
 -0.046   0.000  -0.000   0.006  -0.000   0.000   0.000  -0.000
 -0.009  -0.000   0.000  -0.005   0.000  -0.000   0.000  -0.000
 -0.016  -0.000   0.000  -0.008   0.000  -0.000   0.000  -0.000
 pseudopotential strength for first ion, spin component:           2
-40.616   0.000  -0.000   6.920  -0.000  -0.000  -0.000  -0.000
  0.000 -40.775   0.057  -0.000   6.989  -0.023  -0.005   0.070
 -0.000   0.057 -40.697  -0.000  -0.023   6.958   0.049  -0.005
  6.920  -0.000  -0.000   6.059  -0.000   0.001  -0.000   0.000
 -0.000   6.989  -0.023  -0.000   6.104  -0.014   0.004  -0.039
 -0.000  -0.023   6.958   0.001  -0.014   6.088  -0.024   0.004
 -0.000  -0.005   0.049  -0.000   0.004  -0.024   1.163  -0.001
 -0.000   0.070  -0.005   0.000  -0.039   0.004  -0.001   1.167
 -0.031  -0.000   0.000   0.016   0.000  -0.000   0.000   0.000
 -0.005   0.000  -0.000   0.004  -0.000   0.000   0.000   0.000
 -0.074  -0.000   0.000   0.043   0.000  -0.000   0.001   0.000
 -0.000  -0.005   0.048   0.000   0.005  -0.026   0.673  -0.003
 -0.000   0.069  -0.005   0.000  -0.042   0.005  -0.003   0.679
 -0.030  -0.000   0.000   0.016   0.000  -0.000   0.000   0.000
 -0.005   0.000  -0.000   0.005  -0.000   0.001   0.000   0.000
 -0.072  -0.000   0.000   0.044   0.000  -0.000   0.001   0.000
 -0.027  -0.000   0.000  -0.014   0.000  -0.000   0.000  -0.000
 -0.054  -0.000   0.000  -0.029   0.001  -0.000   0.000  -0.000
 total augmentation occupancy for first ion, spin component:           1
  1.996   0.000   0.000  -0.022   0.000   0.000  -0.000   0.000   0.006  -0.000   0.006   0.000  -0.000  -0.004   0.001  -0.002
  0.000   1.997  -0.000   0.000  -0.019  -0.001   0.000  -0.002   0.000  -0.000   0.000   0.000  -0.002  -0.000   0.000  -0.000
  0.000  -0.000   1.997   0.000  -0.001  -0.020  -0.006   0.000   0.000   0.000   0.000   0.004   0.000  -0.000  -0.000  -0.000
 -0.022   0.000   0.000   0.119   0.000  -0.000   0.000   0.000   0.017   0.050   0.209  -0.000  -0.000  -0.022  -0.047  -0.199
  0.000  -0.019  -0.001   0.000   0.062   0.010   0.037  -0.147   0.000  -0.000   0.000  -0.036   0.130  -0.000   0.000  -0.000
  0.000  -0.001  -0.020  -0.000   0.010   0.073   0.059   0.044  -0.000   0.000  -0.000  -0.057  -0.041   0.000  -0.000   0.000
 -0.000   0.000  -0.006   0.000   0.037   0.059   6.007   1.054   0.000   0.000   0.000  -4.033  -0.974  -0.000  -0.000  -0.000
  0.000  -0.002   0.000   0.000  -0.147   0.044   1.054   4.912  -0.000   0.000  -0.000  -0.974  -3.021   0.000  -0.000   0.000
  0.006   0.000   0.000   0.017   0.000  -0.000   0.000  -0.000   6.552   0.742   0.844  -0.000   0.000  -4.584  -0.666  -0.864
 -0.000  -0.000   0.000   0.050  -0.000   0.000   0.000   0.000   0.742   3.926  -0.245  -0.000  -0.000  -0.667  -2.087   0.244
  0.006   0.000   0.000   0.209   0.000  -0.000   0.000  -0.000   0.844  -0.245   8.028  -0.000   0.000  -0.865   0.246  -5.989
  0.000   0.000   0.004  -0.000  -0.036  -0.057  -4.033  -0.974  -0.000  -0.000  -0.000   3.218   0.911   0.000   0.000   0.000
 -0.000  -0.002   0.000  -0.000   0.130  -0.041  -0.974  -3.021   0.000  -0.000   0.000   0.911   2.265  -0.000   0.000  -0.000
 -0.004  -0.000  -0.000  -0.022  -0.000   0.000  -0.000   0.000  -4.584  -0.667  -0.865   0.000  -0.000   3.779   0.608   0.893
  0.001   0.000  -0.000  -0.047   0.000  -0.000  -0.000  -0.000  -0.666  -2.087   0.246   0.000   0.000   0.608   1.368  -0.249
 -0.002  -0.000  -0.000  -0.199  -0.000   0.000  -0.000   0.000  -0.864   0.244  -5.989   0.000  -0.000   0.893  -0.249   5.133
  0.062  -0.000   0.001   0.071  -0.000   0.000   0.001   0.000   0.548  -0.252   0.665  -0.001  -0.000  -0.636   0.294  -0.766
 -0.032   0.000  -0.000  -0.015   0.000  -0.000  -0.000  -0.000  -0.024   0.009  -0.047   0.000   0.000   0.097  -0.049   0.118
 total augmentation occupancy for first ion, spin component:           2
 -0.006  -0.000  -0.000  -0.022  -0.000  -0.000   0.000  -0.000  -0.003  -0.001  -0.013  -0.000   0.000   0.002   0.001   0.011
 -0.000  -0.005  -0.000  -0.000  -0.019  -0.001  -0.001   0.010  -0.000   0.000  -0.000   0.001  -0.008   0.000  -0.000   0.000
 -0.000  -0.000  -0.005  -0.000  -0.001  -0.020   0.004  -0.001  -0.000  -0.000  -0.000  -0.002   0.001   0.000   0.000   0.000
 -0.022  -0.000  -0.000   0.017  -0.000   0.000  -0.000  -0.000   0.005   0.020   0.084   0.000   0.000  -0.004  -0.010  -0.050
 -0.000  -0.019  -0.001  -0.000   0.011   0.001   0.011  -0.064  -0.000   0.000  -0.000  -0.005   0.034   0.000  -0.000   0.000
 -0.000  -0.001  -0.020   0.000   0.001   0.011   0.020   0.019   0.000  -0.000   0.000  -0.013  -0.011  -0.000   0.000  -0.000
  0.000  -0.001   0.004  -0.000   0.011   0.020   4.596   0.605  -0.000  -0.000  -0.000  -2.370  -0.452   0.000   0.000   0.000
 -0.000   0.010  -0.001  -0.000  -0.064   0.019   0.605   3.902   0.000  -0.000   0.000  -0.452  -1.852  -0.000   0.000  -0.000
 -0.003  -0.000  -0.000   0.005  -0.000   0.000  -0.000   0.000   4.800   0.481   0.348   0.000  -0.000  -2.530  -0.356  -0.277
 -0.001   0.000  -0.000   0.020   0.000  -0.000  -0.000  -0.000   0.481   3.415  -0.100   0.000   0.000  -0.355  -1.491   0.076
 -0.013  -0.000  -0.000   0.084  -0.000   0.000  -0.000   0.000   0.348  -0.100   5.579   0.000  -0.000  -0.276   0.075  -3.133
 -0.000   0.001  -0.002   0.000  -0.005  -0.013  -2.370  -0.452   0.000   0.000   0.000   1.252   0.304  -0.000  -0.000  -0.000
  0.000  -0.008   0.001   0.000   0.034  -0.011  -0.452  -1.852  -0.000   0.000  -0.000   0.304   0.909   0.000  -0.000   0.000
  0.002   0.000   0.000  -0.004   0.000  -0.000   0.000  -0.000  -2.530  -0.355  -0.276  -0.000   0.000   1.365   0.236   0.194
  0.001  -0.000   0.000  -0.010  -0.000   0.000   0.000   0.000  -0.356  -1.491   0.075  -0.000  -0.000   0.236   0.671  -0.049
  0.011   0.000   0.000  -0.050   0.000  -0.000   0.000  -0.000  -0.277   0.076  -3.133  -0.000   0.000   0.194  -0.049   1.792
  0.003   0.000  -0.001  -0.003   0.000  -0.000  -0.000  -0.000  -0.056   0.059  -0.021   0.001   0.000   0.063  -0.062   0.031
 -0.002  -0.000   0.000   0.004  -0.000   0.000   0.000   0.000   0.144  -0.078   0.140  -0.000  -0.000  -0.097   0.050  -0.098


------------------------ aborting loop because EDIFF is reached ----------------------------------------


 


 total charge     
 
# of ion       s       p       d       tot
------------------------------------------
    1        0.177   6.139   4.930  11.246
    2        0.177   6.139   4.930  11.246
    3        0.560   0.837   0.000   1.397
    4        0.560   0.837   0.000   1.397
    5        0.658   1.028   0.000   1.686
    6        0.658   1.028   0.000   1.686
    7        1.560   3.702   0.000   5.262
    8        1.560   3.702   0.000   5.262
    9        1.565   3.677   0.000   5.242
   10        1.565   3.677   0.000   5.242
   11        1.565   3.677   0.000   5.242
   12        1.565   3.677   0.000   5.242
   13        1.566   3.665   0.000   5.232
   14        1.566   3.665   0.000   5.232
   15        1.566   3.665   0.000   5.232
   16        1.566   3.665   0.000   5.232
--------------------------------------------------
tot         18.437  52.781   9.860  81.078
 


 magnetization (x)
 
# of ion       s       p       d       tot
------------------------------------------
    1        0.024   0.019   4.601   4.644
    2        0.024   0.019   4.601   4.644
    3        0.000   0.002   0.000   0.002
    4        0.000   0.002   0.000   0.002
    5        0.000   0.002   0.000   0.002
    6        0.000   0.002   0.000   0.002
    7        0.003   0.022   0.000   0.026
    8        0.003   0.022   0.000   0.026
    9        0.003   0.017   0.000   0.020
   10        0.003   0.017   0.000   0.020
   11        0.003   0.017   0.000   0.020
   12        0.003   0.017   0.000   0.020
   13        0.006   0.028   0.000   0.034
   14        0.006   0.028   0.000   0.034
   15        0.006   0.028   0.000   0.034
   16        0.006   0.028   0.000   0.034
--------------------------------------------------
tot          0.091   0.270   9.202   9.564
 
    CHARGE:  cpu time    1.2813: real time    1.2813
    FORLOC:  cpu time    0.0060: real time    0.0060
    FORNL :  cpu time   12.1876: real time   12.1889
    STRESS:  cpu time  214.3559: real time  214.3619
    FORCOR:  cpu time    0.1665: real time    0.1665
    FORHAR:  cpu time    0.0159: real time    0.0159
    MIXING:  cpu time    0.0045: real time    0.0045
    OFIELD:  cpu time    0.0000: real time    0.0000

  FORCE on cell =-STRESS in cart. coord.  units (eV):
  Direction    XX          YY          ZZ          XY          YZ          ZX
  --------------------------------------------------------------------------------------
  Alpha Z   297.91288   297.91288   297.91288
  Ewald   -2223.27546 -1821.66391 -2486.87707     0.00004    -0.00002   212.03980
  Hartree   829.54828   999.91868   610.93885     0.00003    -0.00003   165.79439
  E(xc)    -551.74123  -552.51970  -552.30204     0.00000    -0.00000     0.07955
  Local    -169.00519  -722.25212   316.12476    -0.00007     0.00006  -380.30136
  n-local  -207.23890  -200.47451  -200.89182     0.00000     0.00000     0.37519
  augment   263.43639   263.28543   260.86581     0.00000    -0.00000     1.36065
  Kinetic  1760.43863  1736.19685  1754.45846     0.00000    -0.00000     0.68369
  Fock        0.00000     0.00000     0.00000     0.00000     0.00000     0.00000
  -------------------------------------------------------------------------------------
  Total       0.07540     0.40360     0.22983     0.00000    -0.00000     0.03190
  in kB       0.78276     4.18978     2.38586     0.00005    -0.00000     0.33119
  external pressure =        2.45 kB  Pullay stress =        0.00 kB


 VOLUME and BASIS-vectors are now :
 -----------------------------------------------------------------------------
  energy-cutoff  :      520.00
  volume of cell :      154.34
      direct lattice vectors                 reciprocal lattice vectors
    -2.876893119 -4.078216950  1.309248141    -0.173788012 -0.122602600  0.000023267
    -2.876893144  4.078216962  1.309248121    -0.173788011  0.122602599  0.000023268
    -0.000880527  0.000000016 -6.576847318    -0.069191702 -0.000000001 -0.152039271

  length of vectors
     5.159699430  5.159699448  6.576847377     0.212682090  0.212682088  0.167043203


 FORCES acting on ions
    electron-ion (+dipol)            ewald-force                    non-local-force                 convergence-correction
 -----------------------------------------------------------------------------------------------
   -.454E-02 0.978E+02 0.277E-02   0.259E-03 -.934E+02 0.358E-03   0.431E-02 -.432E+01 -.319E-02   -.645E-05 0.124E-03 0.453E-05
   -.457E-02 -.978E+02 0.273E-02   0.288E-03 0.934E+02 0.399E-03   0.431E-02 0.432E+01 -.319E-02   -.684E-05 -.124E-03 0.502E-05
   -.210E-03 0.289E-03 0.124E-03   0.186E-03 -.204E-03 -.970E-04   0.241E-04 -.791E-04 -.216E-04   0.786E-07 0.667E-06 0.481E-06
   -.219E-03 -.297E-03 0.124E-03   0.194E-03 0.211E-03 -.963E-04   0.249E-04 0.800E-04 -.202E-04   0.211E-06 -.395E-06 -.151E-06
   0.311E-03 -.153E+02 -.599E-03   -.249E-03 0.147E+02 0.470E-03   -.749E-04 0.598E+00 0.193E-03   0.422E-06 -.576E-05 -.567E-06
   0.312E-03 0.153E+02 -.564E-03   -.250E-03 -.147E+02 0.440E-03   -.790E-04 -.598E+00 0.188E-03   0.272E-06 0.527E-05 -.662E-06
   -.966E-04 -.854E+02 -.198E-03   -.131E-05 0.779E+02 0.174E-03   0.761E-04 0.753E+01 0.425E-04   0.258E-06 -.351E-04 -.148E-06
   -.114E-03 0.854E+02 -.157E-03   0.154E-04 -.779E+02 0.133E-03   0.776E-04 -.753E+01 0.390E-04   0.133E-06 0.355E-04 0.133E-06
   0.234E+01 0.494E+02 0.526E+02   -.748E+01 -.374E+02 -.661E+02   0.514E+01 -.119E+02 0.136E+02   -.146E-03 0.126E-03 -.682E-04
   -.234E+01 0.494E+02 -.526E+02   0.748E+01 -.374E+02 0.661E+02   -.514E+01 -.119E+02 -.136E+02   0.146E-03 0.126E-03 0.680E-04
   -.234E+01 -.494E+02 -.526E+02   0.748E+01 0.374E+02 0.661E+02   -.514E+01 0.119E+02 -.136E+02   0.146E-03 -.126E-03 0.683E-04
   0.234E+01 -.494E+02 0.526E+02   -.748E+01 0.374E+02 -.661E+02   0.514E+01 0.119E+02 0.136E+02   -.146E-03 -.126E-03 -.681E-04
   0.209E+02 0.172E+02 -.570E+02   -.799E+01 -.151E+02 0.417E+02   -.129E+02 -.211E+01 0.153E+02   0.910E-04 0.120E-03 -.184E-03
   -.209E+02 0.172E+02 0.570E+02   0.799E+01 -.151E+02 -.417E+02   0.129E+02 -.211E+01 -.153E+02   -.903E-04 0.120E-03 0.184E-03
   -.209E+02 -.172E+02 0.570E+02   0.799E+01 0.151E+02 -.417E+02   0.129E+02 0.211E+01 -.153E+02   -.904E-04 -.121E-03 0.184E-03
   0.209E+02 -.172E+02 -.570E+02   -.799E+01 0.151E+02 0.417E+02   -.129E+02 0.211E+01 0.153E+02   0.907E-04 -.120E-03 -.184E-03
 -----------------------------------------------------------------------------------------------
   -.841E-02 -.211E-05 0.571E-02   0.124E-13 0.480E-13 -.426E-13   0.843E-02 0.164E-05 -.567E-02   -.112E-04 -.162E-07 0.856E-05
 
 
 POSITION                                       TOTAL-FORCE (eV/Angst)
 -----------------------------------------------------------------------------------
     -2.87711      1.46425     -0.33496         0.000017      0.003933     -0.000052
     -2.87755     -1.46425     -3.62339         0.000017     -0.003933     -0.000051
     -2.87733     -4.07822     -1.97918        -0.000000      0.000003      0.000002
     -2.87777      4.07822     -5.26760         0.000000     -0.000002      0.000003
     -2.87755      1.43975     -3.62339        -0.000016      0.011526      0.000069
     -2.87711     -1.43975     -0.33497        -0.000020     -0.011527      0.000067
     -2.87711      3.54937     -0.33496        -0.000022     -0.004045      0.000016
     -2.87755     -3.54937     -3.62339        -0.000022      0.004044      0.000012
     -4.01736     -0.42215     -0.85877        -0.007741      0.015660      0.022787
     -1.73687     -0.42215      0.18884         0.007746      0.015644     -0.022807
     -1.73731      0.42215     -3.09958         0.007744     -0.015643     -0.022806
     -4.01780      0.42215     -4.14720        -0.007745     -0.015662      0.022786
     -2.34923      2.38588     -4.83844         0.008381     -0.002827     -0.000629
     -3.40588      2.38588     -2.40833        -0.008360     -0.002916      0.000614
     -3.40544     -2.38588      0.88009        -0.008359      0.002914      0.000614
     -2.34879     -2.38588     -1.55001         0.008380      0.002830     -0.000627
 -----------------------------------------------------------------------------------
    total drift:                                0.000011     -0.000000      0.000043


--------------------------------------------------------------------------------------------------------



  FREE ENERGIE OF THE ION-ELECTRON SYSTEM (eV)
  ---------------------------------------------------
  free  energy   TOTEN  =      -181.35867313 eV

  energy  without entropy=     -181.35867313  energy(sigma->0) =     -181.35867313
 


--------------------------------------------------------------------------------------------------------


    POTLOK:  cpu time    1.7173: real time    1.7174


--------------------------------------------------------------------------------------------------------




--------------------------------------------------------------------------------------------------------


  
 reached required accuracy - stopping structural energy minimisation
     LOOP+:  cpu time 2391.9033: real time 2392.0411
    4ORBIT:  cpu time    0.0000: real time    0.0000
 


 total charge     
 
# of ion       s       p       d       tot
------------------------------------------
    1        0.177   6.139   4.930  11.246
    2        0.177   6.139   4.930  11.246
    3        0.560   0.837   0.000   1.397
    4        0.560   0.837   0.000   1.397
    5        0.658   1.028   0.000   1.686
    6        0.658   1.028   0.000   1.686
    7        1.560   3.702   0.000   5.262
    8        1.560   3.702   0.000   5.262
    9        1.565   3.677   0.000   5.242
   10        1.565   3.677   0.000   5.242
   11        1.565   3.677   0.000   5.242
   12        1.565   3.677   0.000   5.242
   13        1.566   3.665   0.000   5.232
   14        1.566   3.665   0.000   5.232
   15        1.566   3.665   0.000   5.232
   16        1.566   3.665   0.000   5.232
--------------------------------------------------
tot         18.437  52.781   9.860  81.078
 


 magnetization (x)
 
# of ion       s       p       d       tot
------------------------------------------
    1        0.024   0.019   4.601   4.644
    2        0.024   0.019   4.601   4.644
    3        0.000   0.002   0.000   0.002
    4        0.000   0.002   0.000   0.002
    5        0.000   0.002   0.000   0.002
    6        0.000   0.002   0.000   0.002
    7        0.003   0.022   0.000   0.026
    8        0.003   0.022   0.000   0.026
    9        0.003   0.017   0.000   0.020
   10        0.003   0.017   0.000   0.020
   11        0.003   0.017   0.000   0.020
   12        0.003   0.017   0.000   0.020
   13        0.006   0.028   0.000   0.034
   14        0.006   0.028   0.000   0.034
   15        0.006   0.028   0.000   0.034
   16        0.006   0.028   0.000   0.034
--------------------------------------------------
tot          0.091   0.270   9.202   9.564
 

 total amount of memory used by VASP MPI-rank0   139736. kBytes
=======================================================================

   base      :      30000. kBytes
   nonlr-proj:       3230. kBytes
   fftplans  :       2490. kBytes
   grid      :       8814. kBytes
   one-center:        124. kBytes
   wavefun   :      95078. kBytes
 
  
  
 General timing and accounting informations for this job:
 ========================================================
  
                  Total CPU time used (sec):     2405.492
                            User time (sec):     2403.780
                          System time (sec):        1.712
                         Elapsed time (sec):     2405.881
  
                   Maximum memory used (kb):      299412.
                   Average memory used (kb):           0.
  
                          Minor page faults:        42534
                          Major page faults:            0
                 Voluntary context switches:           67
