       N       E                     dE             d eps       ncg     rms          ort
DAV:   1     0.112998148724E+05    0.11300E+05   -0.60705E+05   720   0.157E+03
DAV:   2    -0.709039829830E+03   -0.12009E+05   -0.11497E+05   720   0.445E+02
DAV:   3    -0.204247567215E+04   -0.13334E+04   -0.13007E+04   720   0.159E+02
DAV:   4    -0.211974773584E+04   -0.77272E+02   -0.76067E+02   720   0.404E+01
DAV:   5    -0.212694103743E+04   -0.71933E+01   -0.71474E+01   720   0.811E+00
SDA:   6    -0.146489733121E+04    0.66204E+03   -0.71474E+01   720   0.207E+04 0.000E+00
CGA:   7    -0.167076820469E+04   -0.20587E+03   -0.22826E+03   720   0.419E+03 0.258E+03
CGA:   8    -0.170115009301E+04   -0.30382E+02   -0.33507E+02   720   0.242E+03 0.650E+02
CGA:   9    -0.170952289125E+04   -0.83728E+01   -0.22105E+02   720   0.361E+03 0.246E+02
CGA:  10    -0.171154688523E+04   -0.20240E+01   -0.18698E+02   720   0.545E+03-0.150E+02
CGA:  11    -0.170607730672E+04    0.54696E+01   -0.19961E+02   720   0.227E+03-0.266E+03
CGA:  12    -0.170786352902E+04   -0.17862E+01   -0.62858E+01   720   0.278E+03-0.683E+02
CGA:  13    -0.170718370129E+04    0.67983E+00   -0.11465E+02   720   0.196E+03-0.509E+02
CGA:  14    -0.171820981913E+04   -0.11026E+02   -0.11357E+02   720   0.226E+03 0.401E+02
CGA:  15    -0.171638680701E+04    0.18230E+01   -0.15465E+02   720   0.168E+03-0.763E+02
CGA:  16    -0.171660969855E+04   -0.22289E+00   -0.59650E+01   720   0.117E+03-0.489E+02
CGA:  17    -0.172382915435E+04   -0.72195E+01   -0.68185E+01   720   0.575E+02-0.922E+01
CGA:  18    -0.172744290199E+04   -0.36137E+01   -0.50327E+01   720   0.701E+02 0.113E+02
CGA:  19    -0.172821913883E+04   -0.77624E+00   -0.41426E+01   720   0.105E+03-0.501E+02
CGA:  20    -0.173014834269E+04   -0.19292E+01   -0.69764E+01   720   0.494E+02-0.201E+02
CGA:  21    -0.173342276643E+04   -0.32744E+01   -0.29513E+01   720   0.244E+02-0.405E-01
CGA:  22    -0.173392121354E+04   -0.49845E+00   -0.10175E+01   720   0.751E+02-0.136E+01
CGA:  23    -0.173098176877E+04    0.29394E+01   -0.21870E+01   720   0.614E+02-0.792E+02
CGA:  24    -0.173523254762E+04   -0.42508E+01   -0.39656E+01   720   0.359E+02-0.302E+02
CGA:  25    -0.173498119066E+04    0.25136E+00   -0.78508E+00   720   0.355E+02-0.126E+02
CGA:  26    -0.173657067299E+04   -0.15895E+01   -0.54009E+00   720   0.212E+02-0.244E+01
CGA:  27    -0.173525922733E+04    0.13114E+01   -0.50640E+00   720   0.122E+03-0.571E+02
CGA:  28    -0.173522217417E+04    0.37053E-01   -0.58789E+01   720   0.408E+02-0.166E+02
CGA:  29    -0.173661651800E+04   -0.13943E+01   -0.10811E+01   720   0.379E+02 0.235E+02
CGA:  30    -0.173706881440E+04   -0.45230E+00   -0.10832E+01   720   0.397E+02-0.397E+02
CGA:  31    -0.173671434352E+04    0.35447E+00   -0.16204E+01   720   0.187E+02-0.111E+02
CGA:  32    -0.173745276887E+04   -0.73843E+00   -0.30092E+00   720   0.118E+02 0.153E+02
CGA:  33    -0.173762569563E+04   -0.17293E+00   -0.23007E+00   720   0.382E+01-0.617E+01
CGA:  34    -0.173765477425E+04   -0.29079E-01   -0.87143E-01   720   0.276E+01-0.214E+01
CGA:  35    -0.173769699764E+04   -0.42223E-01   -0.38157E-01   720   0.473E+00 0.172E+00
CGA:  36    -0.173787020632E+04   -0.17321E+00   -0.16683E+00   720   0.823E+01 0.251E-01
CGA:  37    -0.173802274877E+04   -0.15254E+00   -0.13888E+00   720   0.362E+01-0.183E+01
CGA:  38    -0.173802859379E+04   -0.58450E-02   -0.31700E-01   720   0.447E+01-0.238E+01
CGA:  39    -0.173810966208E+04   -0.81068E-01   -0.14264E+00   720   0.784E+00-0.105E+01
CGA:  40    -0.173812894184E+04   -0.19280E-01   -0.17466E-01   720   0.194E+00 0.572E-01
CGA:  41    -0.173813609716E+04   -0.71553E-02   -0.66454E-02   720   0.114E+00 0.167E-01
CGA:  42    -0.173814879174E+04   -0.12695E-01   -0.12519E-01   720   0.369E+00 0.612E-02
CGA:  43    -0.173816772110E+04   -0.18929E-01   -0.18766E-01   720   0.182E+00 0.179E-01
CGA:  44    -0.173817415078E+04   -0.64297E-02   -0.65692E-02   720   0.862E-01 0.574E-02
CGA:  45    -0.173817829650E+04   -0.41457E-02   -0.42357E-02   720   0.104E+00 0.713E-03
CGA:  46    -0.173818551273E+04   -0.72162E-02   -0.72313E-02   720   0.180E+00 0.567E-02
CGA:  47    -0.173819434132E+04   -0.88286E-02   -0.86766E-02   720   0.901E-01 0.174E-01
CGA:  48    -0.173819733356E+04   -0.29922E-02   -0.30328E-02   720   0.404E-01 0.479E-02
CGA:  49    -0.173819903737E+04   -0.17038E-02   -0.17663E-02   720   0.358E-01 0.856E-03
CGA:  50    -0.173820173182E+04   -0.26945E-02   -0.26750E-02   720   0.598E-01 0.281E-02
CGA:  51    -0.173820431879E+04   -0.25870E-02   -0.26735E-02   720   0.305E-01 0.985E-03
CGA:  52    -0.173820596357E+04   -0.16448E-02   -0.16551E-02   720   0.195E-01 0.105E-02
CGA:  53    -0.173820721061E+04   -0.12470E-02   -0.12504E-02   720   0.285E-01 0.974E-03
CGA:  54    -0.173820921008E+04   -0.19995E-02   -0.19986E-02   720   0.252E-01 0.385E-03
CGA:  55    -0.173821049030E+04   -0.12802E-02   -0.12913E-02   720   0.150E-01 0.797E-04
CGA:  56    -0.173821166845E+04   -0.11782E-02   -0.12025E-02   720   0.279E-01-0.134E-02
CGA:  57    -0.173821341020E+04   -0.17418E-02   -0.17556E-02   720   0.291E-01-0.351E-02
CGA:  58    -0.173821444346E+04   -0.10333E-02   -0.10214E-02   720   0.148E-01-0.241E-02
CGA:  59    -0.173821516464E+04   -0.72119E-03   -0.70698E-03   720   0.918E-02-0.130E-02
CGA:  60    -0.173821573965E+04   -0.57501E-03   -0.58042E-03   720   0.152E-01-0.911E-03
CGA:  61    -0.173821675807E+04   -0.10184E-02   -0.10386E-02   720   0.124E-01-0.169E-02
CGA:  62    -0.173821722504E+04   -0.46697E-03   -0.44365E-03   720   0.582E-02-0.125E-02
CGA:  63    -0.173821752955E+04   -0.30451E-03   -0.30145E-03   720   0.492E-02-0.481E-03
CGA:  64    -0.173821790750E+04   -0.37796E-03   -0.37640E-03   720   0.958E-02 0.121E-03
CGA:  65    -0.173821851987E+04   -0.61237E-03   -0.61282E-03   720   0.272E-02 0.158E-03
CGA:  66    -0.173821870076E+04   -0.18089E-03   -0.18164E-03   720   0.494E-02-0.531E-03
CGA:  67    -0.173821903301E+04   -0.33224E-03   -0.36193E-03   720   0.556E-02-0.103E-02
CGA:  68    -0.173821919204E+04   -0.15903E-03   -0.15013E-03   720   0.272E-02-0.216E-03
SDA:  69    -0.173821930282E+04   -0.11078E-03   -0.10544E-03   720   0.191E-02-0.225E-03
CGA:  70    -0.173821940955E+04   -0.10672E-03   -0.10611E-03   720   0.169E-02-0.902E-04
CGA:  71    -0.173821930478E+04    0.10477E-03   -0.14071E-03   720   0.255E-01-0.211E-02
CGA:  72    -0.173821987184E+04   -0.56706E-03   -0.53586E-03   720   0.169E-02 0.182E-02
CGA:  73    -0.173821996177E+04   -0.89938E-04   -0.99118E-04   720   0.129E-02 0.179E-03
CGA:  74    -0.173822003649E+04   -0.74712E-04   -0.83778E-04   720   0.111E-02 0.186E-03
CGA:  75    -0.173822009123E+04   -0.54747E-04   -0.60203E-04   720   0.409E-03 0.963E-04
CGA:  76    -0.173822010638E+04   -0.15150E-04   -0.19757E-04   720   0.206E-03 0.804E-04
CGA:  77    -0.173822011031E+04   -0.39228E-05   -0.10467E-04   720   0.159E-03 0.117E-03
CGA:  78    -0.173822012091E+04   -0.10609E-04   -0.10677E-04   720   0.202E-03 0.215E-05
CGA:  79    -0.173822013528E+04   -0.14370E-04   -0.15106E-04   720   0.206E-03 0.360E-04
CGA:  80    -0.173822014476E+04   -0.94717E-05   -0.13060E-04   720   0.107E-03 0.914E-04
   1 F= -.17382201E+04 E0= -.17381908E+04  d E =-.173822E+04  mag=    46.0000
       N       E                     dE             d eps       ncg     rms          ort
SDA:   1    -0.173828139005E+04   -0.61255E-01    0.00000E+00   720   0.103E+00 0.000E+00
CGA:   2    -0.173828381382E+04   -0.24238E-02   -0.23218E-02   720   0.153E-01 0.603E-02
CGA:   3    -0.173828559556E+04   -0.17817E-02   -0.17477E-02   720   0.205E-01 0.162E-02
CGA:   4    -0.173828672166E+04   -0.11261E-02   -0.11582E-02   720   0.982E-02 0.818E-03
CGA:   5    -0.173828711545E+04   -0.39379E-03   -0.41114E-03   720   0.372E-02 0.335E-03
CGA:   6    -0.173828735533E+04   -0.23987E-03   -0.23984E-03   720   0.343E-02-0.458E-05
CGA:   7    -0.173828765051E+04   -0.29518E-03   -0.29683E-03   720   0.329E-02-0.399E-03
CGA:   8    -0.173828777223E+04   -0.12172E-03   -0.11876E-03   720   0.704E-03-0.854E-04
CGA:   9    -0.173828779741E+04   -0.25183E-04   -0.26462E-04   720   0.388E-03 0.279E-04
CGA:  10    -0.173828782771E+04   -0.30300E-04   -0.30444E-04   720   0.453E-03 0.483E-04
CGA:  11    -0.173828786125E+04   -0.33538E-04   -0.33275E-04   720   0.236E-03-0.211E-04
CGA:  12    -0.173828787521E+04   -0.13960E-04   -0.11522E-04   720   0.190E-03-0.928E-04
CGA:  13    -0.173828788547E+04   -0.10263E-04   -0.11056E-04   720   0.294E-03-0.408E-04
CGA:  14    -0.173828788891E+04   -0.34343E-05   -0.65111E-05   720   0.809E-04 0.624E-04
   2 F= -.17382879E+04 E0= -.17382585E+04  d E =-.677442E-01  mag=    46.0000
       N       E                     dE             d eps       ncg     rms          ort
SDA:   1    -0.172843255548E+04    0.98553E+01    0.00000E+00   720   0.724E+02 0.000E+00
CGA:   2    -0.173219765929E+04   -0.37651E+01   -0.43001E+01   720   0.391E+02 0.134E+02
CGA:   3    -0.173540942937E+04   -0.32118E+01   -0.48473E+01   720   0.123E+03-0.432E+02
CGA:   4    -0.173731637370E+04   -0.19069E+01   -0.45651E+01   720   0.192E+02-0.142E+02
CGA:   5    -0.173811409723E+04   -0.79772E+00   -0.36216E+00   720   0.191E+02 0.221E+02
CGA:   6    -0.173869472866E+04   -0.58063E+00   -0.31195E+00   720   0.513E+01 0.101E+02
CGA:   7    -0.173895416406E+04   -0.25944E+00   -0.25112E+00   720   0.117E+02-0.143E+00
CGA:   8    -0.173988080773E+04   -0.92664E+00   -0.94501E+00   720   0.239E+02-0.743E+00
CGA:   9    -0.174034865892E+04   -0.46785E+00   -0.64474E+00   720   0.403E+01-0.302E+01
CGA:  10    -0.174044617217E+04   -0.97513E-01   -0.10121E+00   720   0.131E+01-0.101E+00
CGA:  11    -0.174050554585E+04   -0.59374E-01   -0.48577E-01   720   0.848E+00 0.116E+00
CGA:  12    -0.174055576401E+04   -0.50218E-01   -0.50534E-01   720   0.159E+01 0.249E-01
CGA:  13    -0.174061801511E+04   -0.62251E-01   -0.63759E-01   720   0.831E+00 0.164E-03
CGA:  14    -0.174063833352E+04   -0.20318E-01   -0.19785E-01   720   0.261E+00 0.188E-02
CGA:  15    -0.174065132537E+04   -0.12992E-01   -0.13021E-01   720   0.355E+00-0.249E-02
CGA:  16    -0.174066813479E+04   -0.16809E-01   -0.16912E-01   720   0.375E+00 0.270E-02
CGA:  17    -0.174068855625E+04   -0.20421E-01   -0.20432E-01   720   0.261E+00 0.171E-03
CGA:  18    -0.174069721409E+04   -0.86578E-02   -0.85994E-02   720   0.101E+00-0.435E-02
CGA:  19    -0.174070176530E+04   -0.45512E-02   -0.44713E-02   720   0.709E-01-0.280E-02
CGA:  20    -0.174070494838E+04   -0.31831E-02   -0.31960E-02   720   0.853E-01 0.116E-02
CGA:  21    -0.174071150533E+04   -0.65569E-02   -0.65224E-02   720   0.129E+00 0.160E-02
CGA:  22    -0.174071584964E+04   -0.43443E-02   -0.43685E-02   720   0.308E-01-0.475E-03
CGA:  23    -0.174071694762E+04   -0.10980E-02   -0.10923E-02   720   0.182E-01-0.653E-03
CGA:  24    -0.174071808236E+04   -0.11347E-02   -0.11305E-02   720   0.269E-01 0.321E-03
CGA:  25    -0.174072002881E+04   -0.19464E-02   -0.19076E-02   720   0.300E-01 0.253E-02
CGA:  26    -0.174072120920E+04   -0.11804E-02   -0.12158E-02   720   0.973E-02 0.191E-02
CGA:  27    -0.174072175124E+04   -0.54204E-03   -0.54188E-03   720   0.868E-02-0.175E-03
CGA:  28    -0.174072238382E+04   -0.63257E-03   -0.65004E-03   720   0.153E-01-0.809E-03
CGA:  29    -0.174072315287E+04   -0.76905E-03   -0.76898E-03   720   0.860E-02 0.293E-03
CGA:  30    -0.174072343008E+04   -0.27721E-03   -0.28622E-03   720   0.444E-02 0.382E-03
CGA:  31    -0.174072373599E+04   -0.30591E-03   -0.30957E-03   720   0.555E-02-0.270E-03
CGA:  32    -0.174072400766E+04   -0.27167E-03   -0.27001E-03   720   0.516E-02-0.592E-03
CGA:  33    -0.174072424042E+04   -0.23276E-03   -0.23123E-03   720   0.396E-02-0.364E-03
CGA:  34    -0.174072438603E+04   -0.14561E-03   -0.14290E-03   720   0.175E-02-0.185E-03
CGA:  35    -0.174072445686E+04   -0.70822E-04   -0.69550E-04   720   0.147E-02-0.111E-03
CGA:  36    -0.174072455729E+04   -0.10044E-03   -0.97075E-04   720   0.186E-02 0.196E-03
SDA:  37    -0.174072462164E+04   -0.64348E-04   -0.70606E-04   720   0.472E-03 0.307E-03
CGA:  38    -0.174072464800E+04   -0.26356E-04   -0.26279E-04   720   0.340E-03 0.269E-04
CGA:  39    -0.174072467116E+04   -0.23163E-04   -0.21860E-04   720   0.264E-03 0.164E-03
CGA:  40    -0.174072470536E+04   -0.34202E-04   -0.31847E-04   720   0.187E-03 0.841E-04
CGA:  41    -0.174072472428E+04   -0.18923E-04   -0.18680E-04   720   0.228E-03 0.111E-04
CGA:  42    -0.174072473199E+04   -0.77080E-05   -0.94769E-05   720   0.936E-04 0.106E-03
   3 F= -.17407247E+04 E0= -.17406961E+04  d E =-.243684E+01  mag=    46.0000
       N       E                     dE             d eps       ncg     rms          ort
SDA:   1    -0.172333348847E+04    0.17391E+02    0.00000E+00   720   0.907E+02 0.000E+00
CGA:   2    -0.172993072292E+04   -0.65972E+01   -0.62256E+01   720   0.584E+02 0.221E+02
CGA:   3    -0.173424371601E+04   -0.43130E+01   -0.79242E+01   720   0.182E+03-0.685E+02
CGA:   4    -0.173709924618E+04   -0.28555E+01   -0.58634E+01   720   0.482E+02-0.186E+02
CGA:   5    -0.173906099082E+04   -0.19617E+01   -0.11307E+01   720   0.336E+02 0.162E+02
CGA:   6    -0.173916213584E+04   -0.10115E+00   -0.61874E+00   720   0.432E+02-0.422E+02
CGA:   7    -0.173968155139E+04   -0.51942E+00   -0.96402E+00   720   0.211E+02-0.179E+02
CGA:   8    -0.174024637307E+04   -0.56482E+00   -0.56608E+00   720   0.108E+02-0.230E-01
CGA:   9    -0.174078470714E+04   -0.53833E+00   -0.53358E+00   720   0.946E+01-0.199E+01
CGA:  10    -0.174151696719E+04   -0.73226E+00   -0.71213E+00   720   0.108E+02 0.489E+00
CGA:  11    -0.174176169357E+04   -0.24473E+00   -0.30387E+00   720   0.321E+01-0.123E+01
CGA:  12    -0.174186565014E+04   -0.10396E+00   -0.10587E+00   720   0.850E+00 0.111E-02
CGA:  13    -0.174192204207E+04   -0.56392E-01   -0.55468E-01   720   0.104E+01 0.476E-01
CGA:  14    -0.174198280342E+04   -0.60761E-01   -0.60785E-01   720   0.858E+00-0.998E-02
CGA:  15    -0.174202160255E+04   -0.38799E-01   -0.39184E-01   720   0.276E+00 0.382E-01
CGA:  16    -0.174203982610E+04   -0.18224E-01   -0.18134E-01   720   0.321E+00 0.246E-02
CGA:  17    -0.174207224649E+04   -0.32420E-01   -0.30652E-01   720   0.323E+00 0.377E-01
CGA:  18    -0.174208858528E+04   -0.16339E-01   -0.16318E-01   720   0.129E+00-0.775E-02
CGA:  19    -0.174209685159E+04   -0.82663E-02   -0.81644E-02   720   0.101E+00 0.645E-02
CGA:  20    -0.174210549764E+04   -0.86460E-02   -0.86862E-02   720   0.108E+00-0.197E-02
CGA:  21    -0.174211293394E+04   -0.74363E-02   -0.73888E-02   720   0.517E-01 0.225E-02
CGA:  22    -0.174211577653E+04   -0.28426E-02   -0.28391E-02   720   0.302E-01-0.189E-02
CGA:  23    -0.174211810616E+04   -0.23296E-02   -0.22551E-02   720   0.214E-01 0.333E-02
CGA:  24    -0.174211981204E+04   -0.17059E-02   -0.17364E-02   720   0.232E-01-0.207E-02
CGA:  25    -0.174212120002E+04   -0.13880E-02   -0.13684E-02   720   0.709E-02 0.255E-02
CGA:  26    -0.174212173885E+04   -0.53883E-03   -0.53973E-03   720   0.749E-02-0.141E-03
CGA:  27    -0.174212262284E+04   -0.88399E-03   -0.82561E-03   720   0.528E-02 0.108E-02
CGA:  28    -0.174212306031E+04   -0.43747E-03   -0.44149E-03   720   0.357E-02-0.373E-03
CGA:  29    -0.174212327028E+04   -0.20997E-03   -0.20917E-03   720   0.218E-02 0.803E-03
CGA:  30    -0.174212349758E+04   -0.22731E-03   -0.23574E-03   720   0.275E-02-0.330E-03
CGA:  31    -0.174212363661E+04   -0.13902E-03   -0.14055E-03   720   0.150E-02 0.473E-03
CGA:  32    -0.174212372165E+04   -0.85040E-04   -0.86035E-04   720   0.470E-03 0.655E-04
CGA:  33    -0.174212376006E+04   -0.38412E-04   -0.39588E-04   720   0.765E-03-0.663E-04
CGA:  34    -0.174212379055E+04   -0.30492E-04   -0.33608E-04   720   0.512E-03 0.254E-03
CGA:  35    -0.174212381728E+04   -0.26735E-04   -0.28492E-04   720   0.229E-03 0.807E-04
CGA:  36    -0.174212382318E+04   -0.58953E-05   -0.36068E-04   720   0.215E-02-0.407E-03
CGA:  37    -0.174212385463E+04   -0.31454E-04   -0.47018E-04   720   0.175E-03 0.363E-03
CGA:  38    -0.174212385811E+04   -0.34754E-05   -0.55173E-05   720   0.642E-04 0.562E-04
CGA:  39    -0.174212386322E+04   -0.51104E-05   -0.10013E-04   720   0.458E-03-0.873E-04
CGA:  40    -0.174212387326E+04   -0.10037E-04   -0.12779E-04   720   0.588E-04 0.733E-04
CGA:  41    -0.174212373917E+04    0.13409E-03   -0.73177E-04   720   0.529E-02-0.466E-03
CGA:  42    -0.174212387824E+04   -0.13907E-03   -0.16340E-03   720   0.408E-03 0.350E-03
CGA:  43    -0.174212390161E+04   -0.23372E-04   -0.15627E-04   720   0.721E-04-0.103E-03
CGA:  44    -0.174212390163E+04   -0.20111E-07   -0.16001E-05   720   0.242E-04 0.204E-04
   4 F= -.17421239E+04 E0= -.17420971E+04  d E =-.139917E+01  mag=    46.0000
       N       E                     dE             d eps       ncg     rms          ort
SDA:   1    -0.173638938906E+04    0.57345E+01    0.00000E+00   720   0.299E+02 0.000E+00
CGA:   2    -0.173803690049E+04   -0.16475E+01   -0.19984E+01   720   0.362E+02-0.577E+00
CGA:   3    -0.174094760093E+04   -0.29107E+01   -0.26722E+01   720   0.102E+02-0.768E+00
CGA:   4    -0.174143296760E+04   -0.48537E+00   -0.56040E+00   720   0.510E+01-0.650E-01
CGA:   5    -0.174182407033E+04   -0.39110E+00   -0.39683E+00   720   0.852E+01 0.956E-01
CGA:   6    -0.174212107593E+04   -0.29701E+00   -0.24556E+00   720   0.194E+01 0.141E+01
CGA:   7    -0.174221938504E+04   -0.98309E-01   -0.79343E-01   720   0.835E+00 0.384E+00
CGA:   8    -0.174226941138E+04   -0.50026E-01   -0.51398E-01   720   0.155E+01-0.878E-02
CGA:   9    -0.174233609661E+04   -0.66685E-01   -0.67896E-01   720   0.111E+01-0.386E-01
CGA:  10    -0.174236555881E+04   -0.29462E-01   -0.30517E-01   720   0.458E+00-0.392E-01
CGA:  11    -0.174237450714E+04   -0.89483E-02   -0.92468E-02   720   0.128E+00 0.903E-02
CGA:  12    -0.174238039157E+04   -0.58844E-02   -0.62314E-02   720   0.262E+00 0.397E-02
CGA:  13    -0.174239802931E+04   -0.17638E-01   -0.17675E-01   720   0.252E+00 0.413E-03
CGA:  14    -0.174240462603E+04   -0.65967E-02   -0.67896E-02   720   0.891E-01-0.917E-02
CGA:  15    -0.174240726965E+04   -0.26436E-02   -0.27345E-02   720   0.494E-01 0.337E-02
CGA:  16    -0.174241004633E+04   -0.27767E-02   -0.28315E-02   720   0.804E-01 0.266E-02
CGA:  17    -0.174241469445E+04   -0.46481E-02   -0.45930E-02   720   0.838E-01-0.273E-02
CGA:  18    -0.174241831112E+04   -0.36167E-02   -0.35835E-02   720   0.706E-01-0.215E-02
CGA:  19    -0.174242079772E+04   -0.24866E-02   -0.25756E-02   720   0.461E-01 0.723E-03
CGA:  20    -0.174242270257E+04   -0.19048E-02   -0.18967E-02   720   0.274E-01-0.594E-03
CGA:  21    -0.174242384953E+04   -0.11470E-02   -0.11014E-02   720   0.232E-01-0.225E-02
CGA:  22    -0.174242532983E+04   -0.14803E-02   -0.14783E-02   720   0.337E-01 0.299E-03
CGA:  23    -0.174242658486E+04   -0.12550E-02   -0.13094E-02   720   0.153E-01 0.183E-02
CGA:  24    -0.174242721891E+04   -0.63405E-03   -0.61984E-03   720   0.806E-02-0.534E-03
CGA:  25    -0.174242762515E+04   -0.40624E-03   -0.40087E-03   720   0.792E-02-0.522E-03
CGA:  26    -0.174242794585E+04   -0.32071E-03   -0.33982E-03   720   0.644E-02 0.120E-02
CGA:  27    -0.174242835535E+04   -0.40950E-03   -0.41274E-03   720   0.677E-02 0.628E-03
CGA:  28    -0.174242876766E+04   -0.41230E-03   -0.40172E-03   720   0.540E-02-0.169E-02
CGA:  29    -0.174242894139E+04   -0.17373E-03   -0.17539E-03   720   0.300E-02 0.932E-04
CGA:  30    -0.174242899993E+04   -0.58538E-04   -0.81880E-04   720   0.160E-02 0.726E-03
CGA:  31    -0.174242909063E+04   -0.90699E-04   -0.96023E-04   720   0.223E-02 0.573E-03
SDA:  32    -0.174242926955E+04   -0.17892E-03   -0.17929E-03   720   0.222E-02-0.180E-03
CGA:  33    -0.174242933521E+04   -0.65661E-04   -0.70872E-04   720   0.560E-03 0.205E-03
CGA:  34    -0.174242882482E+04    0.51039E-03   -0.28041E-03   720   0.170E-01-0.236E-02
CGA:  35    -0.174242936082E+04   -0.53600E-03   -0.60202E-03   720   0.314E-02 0.138E-02
CGA:  36    -0.174242949911E+04   -0.13829E-03   -0.13044E-03   720   0.443E-03-0.796E-04
CGA:  37    -0.174242951113E+04   -0.12018E-04   -0.17936E-04   720   0.106E-03 0.111E-03
CGA:  38    -0.174242952076E+04   -0.96374E-05   -0.91806E-05   720   0.123E-03-0.190E-04
   5 F= -.17424295E+04 E0= -.17424036E+04  d E =-.305619E+00  mag=    46.0000
       N       E                     dE             d eps       ncg     rms          ort
SDA:   1    -0.173722762260E+04    0.52019E+01    0.00000E+00   720   0.214E+02 0.000E+00
CGA:   2    -0.173896166697E+04   -0.17340E+01   -0.17886E+01   720   0.294E+02 0.237E+01
CGA:   3    -0.174115760766E+04   -0.21959E+01   -0.20341E+01   720   0.874E+01-0.143E+01
CGA:   4    -0.174165841696E+04   -0.50081E+00   -0.48613E+00   720   0.578E+01-0.838E-01
CGA:   5    -0.174209863731E+04   -0.44022E+00   -0.44050E+00   720   0.571E+01-0.460E-01
CGA:   6    -0.174235658560E+04   -0.25795E+00   -0.26548E+00   720   0.168E+01-0.126E+00
CGA:   7    -0.174243294952E+04   -0.76364E-01   -0.77874E-01   720   0.101E+01-0.455E-01
CGA:   8    -0.174250119498E+04   -0.68245E-01   -0.68369E-01   720   0.621E+00 0.441E-02
CGA:   9    -0.174253115146E+04   -0.29956E-01   -0.30092E-01   720   0.252E+00-0.123E-01
CGA:  10    -0.174254329718E+04   -0.12146E-01   -0.12572E-01   720   0.151E+00 0.643E-02
CGA:  11    -0.174255544882E+04   -0.12152E-01   -0.12150E-01   720   0.133E+00-0.452E-02
CGA:  12    -0.174256241898E+04   -0.69702E-02   -0.71326E-02   720   0.666E-01 0.515E-02
CGA:  13    -0.174256761367E+04   -0.51947E-02   -0.51926E-02   720   0.704E-01-0.177E-02
CGA:  14    -0.174257226822E+04   -0.46545E-02   -0.47102E-02   720   0.459E-01 0.467E-02
CGA:  15    -0.174257575813E+04   -0.34899E-02   -0.34801E-02   720   0.459E-01-0.202E-02
CGA:  16    -0.174257962732E+04   -0.38692E-02   -0.38440E-02   720   0.293E-01 0.215E-02
CGA:  17    -0.174258150728E+04   -0.18800E-02   -0.18615E-02   720   0.235E-01-0.132E-02
CGA:  18    -0.174258346161E+04   -0.19543E-02   -0.19332E-02   720   0.197E-01 0.229E-02
CGA:  19    -0.174258489463E+04   -0.14330E-02   -0.14108E-02   720   0.134E-01-0.211E-02
CGA:  20    -0.174258551070E+04   -0.61607E-03   -0.65243E-03   720   0.565E-02 0.158E-02
CGA:  21    -0.174258611518E+04   -0.60449E-03   -0.61320E-03   720   0.596E-02-0.405E-03
CGA:  22    -0.174258655336E+04   -0.43817E-03   -0.43695E-03   720   0.282E-02 0.652E-03
CGA:  23    -0.174258676126E+04   -0.20790E-03   -0.20124E-03   720   0.288E-02-0.543E-03
CGA:  24    -0.174258686486E+04   -0.10361E-03   -0.12151E-03   720   0.161E-02 0.738E-03
CGA:  25    -0.174258695186E+04   -0.86996E-04   -0.97186E-04   720   0.910E-03 0.392E-03
CGA:  26    -0.174258703832E+04   -0.86456E-04   -0.14295E-03   720   0.648E-02-0.108E-02
CGA:  27    -0.174258713681E+04   -0.98490E-04   -0.14271E-03   720   0.540E-03 0.753E-03
CGA:  28    -0.174258715768E+04   -0.20876E-04   -0.23991E-04   720   0.246E-03 0.893E-04
CGA:  29    -0.174258674073E+04    0.41695E-03   -0.22535E-03   720   0.246E-01-0.142E-02
CGA:  30    -0.174258721893E+04   -0.47820E-03   -0.55796E-03   720   0.140E-02 0.132E-02
CGA:  31    -0.174258728856E+04   -0.69631E-04   -0.62464E-04   720   0.160E-03-0.834E-04
CGA:  32    -0.174258729940E+04   -0.10839E-04   -0.29276E-04   720   0.224E-02-0.256E-03
CGA:  33    -0.174258731427E+04   -0.14872E-04   -0.43813E-04   720   0.862E-04 0.273E-03
CGA:  34    -0.174258731303E+04    0.12437E-05   -0.22432E-05   720   0.415E-04 0.358E-04
   6 F= -.17425873E+04 E0= -.17425619E+04  d E =-.157792E+00  mag=    46.0000
       N       E                     dE             d eps       ncg     rms          ort
SDA:   1    -0.172686916380E+04    0.15718E+02    0.00000E+00   720   0.631E+02 0.000E+00
CGA:   2    -0.173339875464E+04   -0.65296E+01   -0.66874E+01   720   0.593E+02 0.104E+02
CGA:   3    -0.173809812384E+04   -0.46994E+01   -0.56223E+01   720   0.280E+02 0.674E+01
CGA:   4    -0.173965987883E+04   -0.15618E+01   -0.93889E+00   720   0.146E+02 0.396E+01
CGA:   5    -0.174014781504E+04   -0.48794E+00   -0.43571E+00   720   0.276E+02-0.967E-01
CGA:   6    -0.173986749484E+04    0.28032E+00   -0.48465E+00   720   0.776E+02-0.511E+02
CGA:   7    -0.174054376062E+04   -0.67627E+00   -0.36162E+01   720   0.217E+02-0.146E+02
CGA:   8    -0.174147933386E+04   -0.93557E+00   -0.69449E+00   720   0.915E+01-0.310E+01
CGA:   9    -0.174163839937E+04   -0.15907E+00   -0.90139E-01   720   0.616E+01 0.580E+01
CGA:  10    -0.174182399236E+04   -0.18559E+00   -0.21013E+00   720   0.247E+01-0.516E+00
CGA:  11    -0.174198866470E+04   -0.16467E+00   -0.16205E+00   720   0.472E+01-0.468E-01
CGA:  12    -0.174233740609E+04   -0.34874E+00   -0.35327E+00   720   0.312E+01 0.174E+00
CGA:  13    -0.174244296143E+04   -0.10556E+00   -0.11301E+00   720   0.925E+00-0.157E+00
CGA:  14    -0.174247053931E+04   -0.27578E-01   -0.27953E-01   720   0.291E+00 0.208E-01
CGA:  15    -0.174248985983E+04   -0.19321E-01   -0.19395E-01   720   0.366E+00 0.304E-03
CGA:  16    -0.174251378184E+04   -0.23922E-01   -0.23894E-01   720   0.388E+00-0.100E-01
CGA:  17    -0.174252867175E+04   -0.14890E-01   -0.14695E-01   720   0.886E-01 0.108E-01
CGA:  18    -0.174253332133E+04   -0.46496E-02   -0.46719E-02   720   0.933E-01 0.288E-02
CGA:  19    -0.174254167775E+04   -0.83564E-02   -0.83835E-02   720   0.199E+00-0.336E-02
CGA:  20    -0.174255491646E+04   -0.13239E-01   -0.13265E-01   720   0.133E+00 0.185E-02
CGA:  21    -0.174255910642E+04   -0.41900E-02   -0.43593E-02   720   0.433E-01-0.210E-03
CGA:  22    -0.174256163074E+04   -0.25243E-02   -0.24836E-02   720   0.468E-01-0.335E-02
CGA:  23    -0.174256539601E+04   -0.37653E-02   -0.37676E-02   720   0.574E-01-0.283E-03
CGA:  24    -0.174256744087E+04   -0.20449E-02   -0.21601E-02   720   0.161E-01 0.334E-02
CGA:  25    -0.174256834385E+04   -0.90298E-03   -0.88068E-03   720   0.145E-01-0.128E-02
CGA:  26    -0.174256972208E+04   -0.13782E-02   -0.14570E-02   720   0.325E-01-0.209E-02
CGA:  27    -0.174257084234E+04   -0.11203E-02   -0.11890E-02   720   0.133E-01 0.239E-02
CGA:  28    -0.174257127176E+04   -0.42941E-03   -0.47187E-03   720   0.581E-02 0.940E-03
CGA:  29    -0.174257164349E+04   -0.37173E-03   -0.36543E-03   720   0.725E-02-0.593E-03
CGA:  30    -0.174257198127E+04   -0.33778E-03   -0.34834E-03   720   0.649E-02 0.694E-03
CGA:  31    -0.174257218685E+04   -0.20558E-03   -0.24179E-03   720   0.318E-02 0.108E-02
CGA:  32    -0.174257237294E+04   -0.18608E-03   -0.18380E-03   720   0.265E-02-0.166E-03
CGA:  33    -0.174257254170E+04   -0.16877E-03   -0.17074E-03   720   0.418E-02-0.777E-03
CGA:  34    -0.174257261316E+04   -0.71454E-04   -0.91693E-04   720   0.297E-02 0.595E-03
CGA:  35    -0.174257265570E+04   -0.42542E-04   -0.76393E-04   720   0.122E-02 0.827E-03
CGA:  36    -0.174257269658E+04   -0.40883E-04   -0.48371E-04   720   0.763E-03 0.246E-03
CGA:  37    -0.174257275264E+04   -0.56062E-04   -0.73014E-04   720   0.263E-02-0.872E-03
CGA:  38    -0.174257280235E+04   -0.49708E-04   -0.69164E-04   720   0.428E-03 0.572E-03
CGA:  39    -0.174257283151E+04   -0.29162E-04   -0.28805E-04   720   0.217E-03-0.848E-04
CGA:  40    -0.174257285829E+04   -0.26777E-04    0.17080E-04   720   0.273E-03 0.278E-04
CGA:  41    -0.174257288326E+04   -0.24971E-04   -0.23363E-04   720   0.174E-03 0.963E-04
CGA:  42    -0.174257288901E+04   -0.57520E-05   -0.82753E-05   720   0.663E-04 0.101E-03
CGA:  43    -0.174257289751E+04   -0.84986E-05    0.21670E-04   720   0.592E-04 0.513E-05
   7 F= -.17425729E+04 E0= -.17425484E+04  d E =0.144155E-01  mag=    46.0000
       N       E                     dE             d eps       ncg     rms          ort
SDA:   1    -0.173804212282E+04    0.45308E+01    0.00000E+00   720   0.141E+02 0.000E+00
CGA:   2    -0.173986482289E+04   -0.18227E+01   -0.20050E+01   720   0.421E+02-0.276E+01
CGA:   3    -0.174148211559E+04   -0.16173E+01   -0.16330E+01   720   0.100E+02 0.163E+00
CGA:   4    -0.174190898247E+04   -0.42687E+00   -0.29910E+00   720   0.393E+01 0.348E+01
CGA:   5    -0.174207453532E+04   -0.16555E+00   -0.13206E+00   720   0.540E+01 0.872E+00
CGA:   6    -0.174232828501E+04   -0.25375E+00   -0.25100E+00   720   0.106E+02 0.317E-01
CGA:   7    -0.174244992148E+04   -0.12164E+00   -0.14181E+00   720   0.559E+01-0.127E+01
CGA:   8    -0.174251534428E+04   -0.65423E-01   -0.88719E-01   720   0.288E+01-0.895E+00
CGA:   9    -0.174255168120E+04   -0.36337E-01   -0.39283E-01   720   0.137E+01-0.132E+00
CGA:  10    -0.174257956673E+04   -0.27886E-01   -0.28448E-01   720   0.104E+01-0.323E-02
CGA:  11    -0.174260947578E+04   -0.29909E-01   -0.28180E-01   720   0.134E+01 0.329E-01
CGA:  12    -0.174265371940E+04   -0.44244E-01   -0.44892E-01   720   0.167E+01 0.247E-02
CGA:  13    -0.174268439160E+04   -0.30672E-01   -0.32908E-01   720   0.769E+00-0.760E-01
CGA:  14    -0.174270029991E+04   -0.15908E-01   -0.16263E-01   720   0.367E+00-0.779E-02
CGA:  15    -0.174270756104E+04   -0.72611E-02   -0.70105E-02   720   0.182E+00 0.129E-01
CGA:  16    -0.174271235105E+04   -0.47900E-02   -0.48129E-02   720   0.178E+00 0.129E-02
CGA:  17    -0.174271905184E+04   -0.67008E-02   -0.66935E-02   720   0.281E+00-0.342E-02
CGA:  18    -0.174272796145E+04   -0.89096E-02   -0.88685E-02   720   0.251E+00-0.899E-02
CGA:  19    -0.174273394219E+04   -0.59807E-02   -0.60927E-02   720   0.138E+00-0.515E-02
CGA:  20    -0.174273702008E+04   -0.30779E-02   -0.31525E-02   720   0.742E-01 0.344E-02
CGA:  21    -0.174273925016E+04   -0.22301E-02   -0.22316E-02   720   0.668E-01 0.451E-02
CGA:  22    -0.174274104615E+04   -0.17960E-02   -0.16776E-02   720   0.490E-01 0.365E-02
CGA:  23    -0.174274214326E+04   -0.10971E-02   -0.10391E-02   720   0.407E-01-0.710E-03
CGA:  24    -0.174274329987E+04   -0.11566E-02   -0.11275E-02   720   0.647E-01-0.328E-02
CGA:  25    -0.174274500181E+04   -0.17019E-02   -0.16779E-02   720   0.890E-01-0.311E-02
CGA:  26    -0.174274657702E+04   -0.15752E-02   -0.16070E-02   720   0.527E-01-0.295E-03
CGA:  27    -0.174274734845E+04   -0.77143E-03   -0.81479E-03   720   0.248E-01 0.173E-02
CGA:  28    -0.174274777358E+04   -0.42513E-03   -0.44978E-03   720   0.160E-01 0.147E-02
CGA:  29    -0.174274810033E+04   -0.32676E-03   -0.33518E-03   720   0.118E-01 0.719E-03
CGA:  30    -0.174274836809E+04   -0.26776E-03   -0.26959E-03   720   0.114E-01 0.157E-03
CGA:  31    -0.174274867330E+04   -0.30520E-03   -0.30719E-03   720   0.157E-01 0.293E-03
SDA:  32    -0.174274908734E+04   -0.41404E-03   -0.42009E-03   720   0.181E-01 0.900E-03
CGA:  33    -0.174274975769E+04   -0.67035E-03   -0.67074E-03   720   0.517E-02-0.390E-04
CGA:  34    -0.174275014579E+04   -0.38810E-03   -0.49204E-03   720   0.585E-02-0.163E-02
CGA:  35    -0.174275049506E+04   -0.34927E-03   -0.33758E-03   720   0.433E-02 0.235E-03
CGA:  36    -0.174275074539E+04   -0.25033E-03   -0.23598E-03   720   0.180E-02 0.999E-03
CGA:  37    -0.174275093771E+04   -0.19232E-03   -0.17827E-03   720   0.120E-02 0.337E-03
CGA:  38    -0.174275103272E+04   -0.95015E-04   -0.95412E-04   720   0.105E-02-0.149E-04
CGA:  39    -0.174275114181E+04   -0.10909E-03   -0.14594E-03   720   0.369E-02-0.371E-03
CGA:  40    -0.174275129557E+04   -0.15376E-03   -0.15963E-03   720   0.412E-02-0.302E-03
CGA:  41    -0.174275141239E+04   -0.11682E-03   -0.12095E-03   720   0.168E-02 0.275E-03
CGA:  42    -0.174275145512E+04   -0.42727E-04   -0.49708E-04   720   0.694E-03 0.376E-03
CGA:  43    -0.174275147873E+04   -0.23613E-04   -0.26821E-04   720   0.595E-03 0.218E-03
CGA:  44    -0.174275153291E+04   -0.54177E-04   -0.51643E-04   720   0.107E-02 0.123E-03
CGA:  45    -0.174275159409E+04   -0.61177E-04   -0.61342E-04   720   0.722E-03-0.170E-03
CGA:  46    -0.174275162265E+04   -0.28568E-04   -0.28777E-04   720   0.561E-03-0.275E-03
CGA:  47    -0.174275163680E+04   -0.14148E-04   -0.12605E-04   720   0.450E-03-0.150E-03
CGA:  48    -0.174275165241E+04   -0.15605E-04   -0.15699E-04   720   0.519E-03-0.648E-04
CGA:  49    -0.174275166665E+04   -0.14244E-04   -0.14739E-04   720   0.334E-03 0.386E-04
CGA:  50    -0.174275167685E+04   -0.10203E-04   -0.11440E-04   720   0.270E-03 0.898E-04
CGA:  51    -0.174275168793E+04   -0.11078E-04   -0.12017E-04   720   0.152E-03 0.969E-04
CGA:  52    -0.174275169522E+04   -0.72924E-05   -0.74016E-05   720   0.820E-04 0.128E-04
CGA:  53    -0.174275169752E+04   -0.22959E-05   -0.11617E-04   720   0.254E-03-0.107E-03
CGA:  54    -0.174275170731E+04   -0.97926E-05   -0.10361E-04   720   0.603E-04 0.770E-04
   8 F= -.17427517E+04 E0= -.17427271E+04  d E =-.178810E+00  mag=    46.0000
       N       E                     dE             d eps       ncg     rms          ort
SDA:   1    -0.174173414044E+04    0.10176E+01    0.00000E+00   720   0.363E+01 0.000E+00
CGA:   2    -0.174219250790E+04   -0.45837E+00   -0.43637E+00   720   0.568E+01 0.338E+00
CGA:   3    -0.174251265246E+04   -0.32014E+00   -0.31917E+00   720   0.203E+01-0.307E+00
CGA:   4    -0.174262040844E+04   -0.10776E+00   -0.10776E+00   720   0.102E+01-0.111E-01
CGA:   5    -0.174271850496E+04   -0.98097E-01   -0.99216E-01   720   0.101E+01-0.243E-01
CGA:   6    -0.174276362207E+04   -0.45117E-01   -0.45480E-01   720   0.191E+00 0.165E-01
CGA:   7    -0.174277755806E+04   -0.13936E-01   -0.13933E-01   720   0.124E+00 0.219E-02
CGA:   8    -0.174278810263E+04   -0.10545E-01   -0.10406E-01   720   0.681E-01 0.493E-02
CGA:   9    -0.174279162626E+04   -0.35236E-02   -0.35083E-02   720   0.262E-01-0.197E-02
CGA:  10    -0.174279380803E+04   -0.21818E-02   -0.21625E-02   720   0.209E-01 0.616E-03
CGA:  11    -0.174279549719E+04   -0.16892E-02   -0.16841E-02   720   0.156E-01 0.159E-03
CGA:  12    -0.174279654813E+04   -0.10509E-02   -0.10470E-02   720   0.915E-02 0.526E-03
CGA:  13    -0.174279742164E+04   -0.87351E-03   -0.93948E-03   720   0.135E-01-0.166E-02
CGA:  14    -0.174279794170E+04   -0.52006E-03   -0.54312E-03   720   0.563E-02 0.187E-02
CGA:  15    -0.174279837251E+04   -0.43082E-03   -0.43100E-03   720   0.669E-02-0.415E-04
CGA:  16    -0.174279889391E+04   -0.52139E-03   -0.53384E-03   720   0.729E-02-0.666E-03
CGA:  17    -0.174279911716E+04   -0.22326E-03   -0.24749E-03   720   0.320E-02 0.103E-02
CGA:  18    -0.174279930384E+04   -0.18667E-03   -0.18936E-03   720   0.310E-02 0.301E-03
CGA:  19    -0.174279952512E+04   -0.22128E-03   -0.22908E-03   720   0.309E-02-0.102E-02
CGA:  20    -0.174279957867E+04   -0.53553E-04   -0.62387E-04   720   0.214E-02 0.296E-03
CGA:  21    -0.174279964513E+04   -0.66459E-04   -0.78528E-04   720   0.178E-02 0.476E-03
CGA:  22    -0.174279976904E+04   -0.12391E-03   -0.12334E-03   720   0.126E-02-0.530E-03
CGA:  23    -0.174279967362E+04    0.95417E-04   -0.11920E-03   720   0.107E-01-0.276E-02
CGA:  24    -0.174279984965E+04   -0.17602E-03   -0.23509E-03   720   0.115E-02 0.159E-02
CGA:  25    -0.174279989779E+04   -0.48141E-04   -0.54825E-04   720   0.700E-03 0.391E-03
CGA:  26    -0.174279995064E+04   -0.52854E-04   -0.51695E-04   720   0.447E-03-0.287E-03
CGA:  27    -0.174279994923E+04    0.14061E-05   -0.47309E-05   720   0.345E-03 0.151E-03
   9 F= -.17427999E+04 E0= -.17427752E+04  d E =-.482419E-01  mag=    46.0000
       N       E                     dE             d eps       ncg     rms          ort
SDA:   1    -0.174138368007E+04    0.14163E+01    0.00000E+00   720   0.483E+01 0.000E+00
CGA:   2    -0.174199848761E+04   -0.61481E+00   -0.59428E+00   720   0.840E+01 0.346E+00
CGA:   3    -0.174243737299E+04   -0.43889E+00   -0.42707E+00   720   0.245E+01-0.360E+00
CGA:   4    -0.174259966366E+04   -0.16229E+00   -0.16005E+00   720   0.146E+01 0.129E+00
CGA:   5    -0.174271831497E+04   -0.11865E+00   -0.11636E+00   720   0.100E+01 0.991E-01
CGA:   6    -0.174277998373E+04   -0.61669E-01   -0.61601E-01   720   0.278E+00-0.216E-01
CGA:   7    -0.174279985473E+04   -0.19871E-01   -0.19661E-01   720   0.165E+00 0.143E-01
CGA:   8    -0.174280982634E+04   -0.99716E-02   -0.99739E-02   720   0.827E-01 0.274E-02
CGA:   9    -0.174281583474E+04   -0.60084E-02   -0.60042E-02   720   0.424E-01 0.167E-03
CGA:  10    -0.174281861178E+04   -0.27770E-02   -0.27734E-02   720   0.206E-01 0.759E-03
CGA:  11    -0.174282022307E+04   -0.16113E-02   -0.16113E-02   720   0.185E-01-0.447E-05
CGA:  12    -0.174282188012E+04   -0.16570E-02   -0.16822E-02   720   0.138E-01-0.903E-03
CGA:  13    -0.174282278136E+04   -0.90124E-03   -0.90924E-03   720   0.951E-02-0.122E-02
CGA:  14    -0.174282332093E+04   -0.53957E-03   -0.54032E-03   720   0.600E-02 0.114E-02
CGA:  15    -0.174282408281E+04   -0.76188E-03   -0.82214E-03   720   0.127E-01-0.102E-02
CGA:  16    -0.174282456362E+04   -0.48081E-03   -0.50691E-03   720   0.496E-02 0.146E-02
CGA:  17    -0.174282481543E+04   -0.25181E-03   -0.25508E-03   720   0.299E-02 0.204E-03
CGA:  18    -0.174282506058E+04   -0.24515E-03   -0.28165E-03   720   0.831E-02-0.140E-02
CGA:  19    -0.174282523226E+04   -0.17168E-03   -0.17265E-03   720   0.945E-02 0.292E-04
CGA:  20    -0.174282539957E+04   -0.16731E-03   -0.20636E-03   720   0.235E-02 0.943E-03
CGA:  21    -0.174282545603E+04   -0.56463E-04   -0.65719E-04   720   0.117E-02 0.250E-03
CGA:  22    -0.174282552874E+04   -0.72708E-04   -0.69977E-04   720   0.180E-02-0.442E-03
CGA:  23    -0.174282558523E+04   -0.56497E-04   -0.50362E-04   720   0.295E-02-0.414E-03
CGA:  24    -0.174282564992E+04   -0.64689E-04   -0.62588E-04   720   0.202E-02-0.651E-04
CGA:  25    -0.174282569379E+04   -0.43867E-04   -0.45073E-04   720   0.981E-03 0.339E-04
CGA:  26    -0.174282573397E+04   -0.40183E-04   -0.35384E-04   720   0.964E-03-0.240E-03
CGA:  27    -0.174282577206E+04   -0.38083E-04   -0.34711E-04   720   0.126E-02-0.466E-03
CGA:  28    -0.174282578037E+04   -0.83135E-05   -0.89605E-05   720   0.913E-03 0.207E-04
CGA:  29    -0.174282578528E+04   -0.49129E-05   -0.12617E-04   720   0.522E-03 0.199E-03
  10 F= -.17428258E+04 E0= -.17428009E+04  d E =-.258360E-01  mag=    46.0000
       N       E                     dE             d eps       ncg     rms          ort
SDA:   1    -0.173667572750E+04    0.61501E+01    0.00000E+00   720   0.178E+02 0.000E+00
CGA:   2    -0.173914658768E+04   -0.24709E+01   -0.24527E+01   720   0.434E+02 0.672E+00
CGA:   3    -0.174129774203E+04   -0.21512E+01   -0.21560E+01   720   0.828E+01 0.205E-02
CGA:   4    -0.174172587258E+04   -0.42813E+00   -0.56819E+00   720   0.214E+02-0.708E+01
CGA:   5    -0.174212677933E+04   -0.40091E+00   -0.63873E+00   720   0.349E+01-0.192E+01
CGA:   6    -0.174236843350E+04   -0.24165E+00   -0.27504E+00   720   0.526E+01-0.914E+00
CGA:   7    -0.174259447808E+04   -0.22604E+00   -0.22523E+00   720   0.143E+01 0.117E+00
CGA:   8    -0.174263952158E+04   -0.45044E-01   -0.52891E-01   720   0.630E+00 0.168E-01
CGA:   9    -0.174270859590E+04   -0.69074E-01   -0.68739E-01   720   0.102E+01 0.586E-02
CGA:  10    -0.174275573738E+04   -0.47141E-01   -0.47433E-01   720   0.325E+00-0.513E-02
CGA:  11    -0.174276801624E+04   -0.12279E-01   -0.12433E-01   720   0.970E-01 0.406E-02
CGA:  12    -0.174277310867E+04   -0.50924E-02   -0.50992E-02   720   0.631E-01 0.377E-02
CGA:  13    -0.174277792450E+04   -0.48158E-02   -0.49665E-02   720   0.977E-01-0.764E-02
CGA:  14    -0.174278247085E+04   -0.45463E-02   -0.45386E-02   720   0.349E-01-0.325E-02
CGA:  15    -0.174278343764E+04   -0.96679E-03   -0.10160E-02   720   0.140E-01 0.232E-02
CGA:  16    -0.174278453833E+04   -0.11007E-02   -0.10914E-02   720   0.278E-01 0.436E-03
CGA:  17    -0.174278696749E+04   -0.24292E-02   -0.24639E-02   720   0.366E-01-0.116E-02
CGA:  18    -0.174278811735E+04   -0.11499E-02   -0.11747E-02   720   0.134E-01 0.108E-02
CGA:  19    -0.174278870561E+04   -0.58826E-03   -0.58903E-03   720   0.967E-02-0.830E-04
CGA:  20    -0.174278934559E+04   -0.63998E-03   -0.67221E-03   720   0.162E-01-0.220E-02
CGA:  21    -0.174278986468E+04   -0.51909E-03   -0.51914E-03   720   0.967E-02 0.188E-04
CGA:  22    -0.174279009518E+04   -0.23050E-03   -0.26062E-03   720   0.528E-02 0.105E-02
CGA:  23    -0.174279038761E+04   -0.29243E-03   -0.29381E-03   720   0.651E-02 0.423E-03
CGA:  24    -0.174279069923E+04   -0.31162E-03   -0.29992E-03   720   0.450E-02-0.987E-03
CGA:  25    -0.174279083522E+04   -0.13599E-03   -0.13225E-03   720   0.291E-02-0.201E-03
CGA:  26    -0.174279090852E+04   -0.73304E-04   -0.81232E-04   720   0.213E-02 0.354E-03
CGA:  27    -0.174279102145E+04   -0.11293E-03   -0.11364E-03   720   0.303E-02 0.224E-03
CGA:  28    -0.174279120354E+04   -0.18209E-03   -0.18520E-03   720   0.281E-02-0.692E-03
CGA:  29    -0.174279126780E+04   -0.64256E-04   -0.60960E-04   720   0.161E-02-0.152E-03
CGA:  30    -0.174279130631E+04   -0.38507E-04   -0.43047E-04   720   0.138E-02 0.209E-03
CGA:  31    -0.174279136934E+04   -0.63032E-04   -0.64811E-04   720   0.150E-02 0.258E-03
CGA:  32    -0.174279143822E+04   -0.68882E-04   -0.66864E-04   720   0.860E-03-0.159E-03
CGA:  33    -0.174279146731E+04   -0.29088E-04   -0.28586E-04   720   0.769E-03-0.467E-04
CGA:  34    -0.174279148490E+04   -0.17593E-04   -0.21101E-04   720   0.599E-03 0.194E-03
SDA:  35    -0.174279150559E+04   -0.20690E-04   -0.23375E-04   720   0.458E-03 0.177E-03
CGA:  36    -0.174279154837E+04   -0.42773E-04    0.42233E-03   720   0.226E-03 0.100E-04
CGA:  37    -0.174279155971E+04   -0.11346E-04   -0.11200E-04   720   0.927E-04 0.487E-04
CGA:  38    -0.174279155696E+04    0.27480E-05   -0.65628E-05   720   0.131E-02-0.155E-03
CGA:  39    -0.174279159155E+04   -0.34590E-04   -0.38031E-04   720   0.160E-03 0.637E-04
CGA:  40    -0.174279160452E+04   -0.12961E-04   -0.12852E-04   720   0.864E-04-0.251E-04
CGA:  41    -0.174279160396E+04    0.55164E-06   -0.17816E-05   720   0.435E-04 0.416E-04
  11 F= -.17427916E+04 E0= -.17427666E+04  d E =0.341813E-01  mag=    46.0000
       N       E                     dE             d eps       ncg     rms          ort
SDA:   1    -0.173407243546E+04    0.87192E+01    0.00000E+00   720   0.260E+02 0.000E+00
CGA:   2    -0.173679195975E+04   -0.27195E+01   -0.29030E+01   720   0.705E+02-0.228E+01
CGA:   3    -0.174062145511E+04   -0.38295E+01   -0.38158E+01   720   0.156E+02 0.169E+00
CGA:   4    -0.174130896326E+04   -0.68751E+00   -0.65041E+00   720   0.145E+02 0.199E+01
CGA:   5    -0.174156532036E+04   -0.25636E+00   -0.15082E+00   720   0.989E+01 0.109E+02
CGA:   6    -0.174185700301E+04   -0.29168E+00   -0.30720E+00   720   0.613E+01-0.846E+00
CGA:   7    -0.174239184842E+04   -0.53485E+00   -0.53228E+00   720   0.424E+01 0.701E-01
CGA:   8    -0.174255483680E+04   -0.16299E+00   -0.17630E+00   720   0.923E+00-0.101E+00
CGA:   9    -0.174260515811E+04   -0.50321E-01   -0.50924E-01   720   0.135E+01 0.256E-01
CGA:  10    -0.174271761840E+04   -0.11246E+00   -0.11186E+00   720   0.103E+01 0.242E-01
CGA:  11    -0.174276164676E+04   -0.44028E-01   -0.45015E-01   720   0.198E+00-0.229E-03
CGA:  12    -0.174277140353E+04   -0.97568E-02   -0.98166E-02   720   0.170E+00 0.324E-02
CGA:  13    -0.174278596186E+04   -0.14558E-01   -0.14714E-01   720   0.172E+00-0.945E-02
CGA:  14    -0.174279284328E+04   -0.68814E-02   -0.69958E-02   720   0.362E-01 0.428E-02
CGA:  15    -0.174279440163E+04   -0.15584E-02   -0.15990E-02   720   0.245E-01 0.747E-03
CGA:  16    -0.174279748568E+04   -0.30840E-02   -0.33544E-02   720   0.528E-01-0.391E-02
CGA:  17    -0.174279926204E+04   -0.17764E-02   -0.18370E-02   720   0.246E-01 0.196E-02
CGA:  18    -0.174280073059E+04   -0.14685E-02   -0.14779E-02   720   0.267E-01 0.738E-03
CGA:  19    -0.174280232259E+04   -0.15920E-02   -0.15670E-02   720   0.163E-01-0.281E-02
CGA:  20    -0.174280301070E+04   -0.68811E-03   -0.69196E-03   720   0.114E-01 0.240E-03
CGA:  21    -0.174280365169E+04   -0.64099E-03   -0.64877E-03   720   0.903E-02 0.886E-03
CGA:  22    -0.174280429117E+04   -0.63948E-03   -0.63997E-03   720   0.907E-02-0.537E-03
CGA:  23    -0.174280461460E+04   -0.32342E-03   -0.33610E-03   720   0.348E-02 0.518E-03
CGA:  24    -0.174280477624E+04   -0.16164E-03   -0.16604E-03   720   0.318E-02 0.218E-03
CGA:  25    -0.174280504888E+04   -0.27265E-03   -0.31550E-03   720   0.616E-02-0.140E-02
CGA:  26    -0.174280516564E+04   -0.11676E-03   -0.11291E-03   720   0.512E-02-0.135E-03
CGA:  27    -0.174280526895E+04   -0.10330E-03   -0.12927E-03   720   0.275E-02 0.736E-03
CGA:  28    -0.174280533604E+04   -0.67099E-04   -0.88514E-04   720   0.184E-02 0.696E-03
CGA:  29    -0.174280541988E+04   -0.83838E-04   -0.87474E-04   720   0.187E-02 0.182E-03
CGA:  30    -0.174280553183E+04   -0.11195E-03   -0.11002E-03   720   0.240E-02-0.424E-03
CGA:  31    -0.174280557894E+04   -0.47110E-04   -0.44456E-04   720   0.164E-02-0.810E-04
CGA:  32    -0.174280561276E+04   -0.33817E-04   -0.37658E-04   720   0.133E-02 0.108E-03
CGA:  33    -0.174280565840E+04   -0.45639E-04   -0.47163E-04   720   0.143E-02 0.649E-04
CGA:  34    -0.174280571453E+04   -0.56131E-04   -0.51650E-04   720   0.122E-02-0.241E-03
CGA:  35    -0.174280574924E+04   -0.34714E-04   -0.30897E-04   720   0.103E-02-0.177E-03
SDA:  36    -0.174280576234E+04   -0.13091E-04   -0.17058E-04   720   0.635E-03 0.131E-03
CGA:  37    -0.174280577492E+04   -0.12589E-04   -0.18576E-04   720   0.246E-03 0.290E-03
CGA:  38    -0.174280579004E+04   -0.15114E-04   -0.15758E-04   720   0.141E-03 0.133E-03
CGA:  39    -0.174280580575E+04   -0.15716E-04    0.23445E-04   720   0.107E-03 0.315E-04
CGA:  40    -0.174280581032E+04   -0.45612E-05   -0.53099E-05   720   0.678E-04 0.952E-04
  12 F= -.17428058E+04 E0= -.17427823E+04  d E =-.142064E-01  mag=    46.0000
       N       E                     dE             d eps       ncg     rms          ort
SDA:   1    -0.173968172773E+04    0.31241E+01    0.00000E+00   720   0.943E+01 0.000E+00
CGA:   2    -0.174120259929E+04   -0.15209E+01   -0.14340E+01   720   0.155E+02 0.936E+00
CGA:   3    -0.174205620959E+04   -0.85361E+00   -0.85364E+00   720   0.550E+01 0.503E-01
CGA:   4    -0.174239222246E+04   -0.33601E+00   -0.33023E+00   720   0.247E+01 0.462E+00
CGA:   5    -0.174261102746E+04   -0.21881E+00   -0.21691E+00   720   0.269E+01 0.554E-01
CGA:   6    -0.174274563488E+04   -0.13461E+00   -0.13504E+00   720   0.629E+00 0.337E-01
CGA:   7    -0.174277551377E+04   -0.29879E-01   -0.29953E-01   720   0.398E+00-0.499E-02
CGA:   8    -0.174280188371E+04   -0.26370E-01   -0.27049E-01   720   0.323E+00-0.372E-01
CGA:   9    -0.174281994286E+04   -0.18059E-01   -0.18035E-01   720   0.913E-01 0.343E-02
CGA:  10    -0.174282406172E+04   -0.41189E-02   -0.41188E-02   720   0.498E-01-0.137E-02
CGA:  11    -0.174282845251E+04   -0.43908E-02   -0.43552E-02   720   0.575E-01 0.872E-03
CGA:  12    -0.174283226354E+04   -0.38110E-02   -0.37658E-02   720   0.196E-01 0.508E-02
CGA:  13    -0.174283341171E+04   -0.11482E-02   -0.11514E-02   720   0.124E-01 0.137E-02
CGA:  14    -0.174283450733E+04   -0.10956E-02   -0.10435E-02   720   0.153E-01 0.230E-02
CGA:  15    -0.174283586020E+04   -0.13529E-02   -0.13452E-02   720   0.770E-02 0.385E-03
CGA:  16    -0.174283654274E+04   -0.68254E-03   -0.65889E-03   720   0.577E-02 0.936E-03
CGA:  17    -0.174283693582E+04   -0.39308E-03   -0.39191E-03   720   0.418E-02 0.104E-02
CGA:  18    -0.174283739662E+04   -0.46080E-03   -0.54045E-03   720   0.834E-02-0.161E-02
CGA:  19    -0.174283764160E+04   -0.24498E-03   -0.24710E-03   720   0.539E-02 0.145E-03
CGA:  20    -0.174283780072E+04   -0.15912E-03   -0.17208E-03   720   0.231E-02 0.462E-03
CGA:  21    -0.174283793995E+04   -0.13924E-03   -0.13773E-03   720   0.248E-02-0.318E-03
CGA:  22    -0.174283807958E+04   -0.13963E-03   -0.14248E-03   720   0.254E-02-0.411E-03
CGA:  23    -0.174283813311E+04   -0.53532E-04   -0.60477E-04   720   0.137E-02 0.223E-03
CGA:  24    -0.174283818513E+04   -0.52015E-04   -0.58107E-04   720   0.152E-02 0.313E-03
CGA:  25    -0.174283828206E+04   -0.96931E-04   -0.97497E-04   720   0.119E-02 0.123E-03
CGA:  26    -0.174283832668E+04   -0.44624E-04   -0.45383E-04   720   0.605E-03 0.371E-04
CGA:  27    -0.174283834285E+04   -0.16167E-04   -0.19414E-04   720   0.422E-03 0.131E-03
CGA:  28    -0.174283837426E+04   -0.31412E-04   -0.31298E-04   720   0.825E-03 0.176E-04
CGA:  29    -0.174283838061E+04   -0.63489E-05   -0.11188E-03   720   0.244E-02-0.140E-02
CGA:  30    -0.174283846264E+04   -0.82030E-04   -0.91726E-04   720   0.479E-03 0.462E-03
CGA:  31    -0.174283848051E+04   -0.17872E-04   -0.22191E-04   720   0.203E-03 0.231E-03
CGA:  32    -0.174283849516E+04   -0.14643E-04   -0.15293E-04   720   0.116E-03 0.111E-03
CGA:  33    -0.174283850445E+04   -0.92980E-05   -0.12596E-04   720   0.366E-03-0.640E-04
  13 F= -.17428385E+04 E0= -.17428139E+04  d E =-.326941E-01  mag=    46.0000
       N       E                     dE             d eps       ncg     rms          ort
SDA:   1    -0.174222501609E+04    0.61348E+00    0.00000E+00   720   0.240E+01 0.000E+00
CGA:   2    -0.174237605539E+04   -0.15104E+00   -0.15089E+00   720   0.340E+01 0.292E-01
CGA:   3    -0.174272403932E+04   -0.34798E+00   -0.35135E+00   720   0.152E+01-0.730E-01
CGA:   4    -0.174279213010E+04   -0.68091E-01   -0.71969E-01   720   0.459E+00 0.909E-01
CGA:   5    -0.174283865686E+04   -0.46527E-01   -0.46365E-01   720   0.606E+00 0.513E-02
CGA:   6    -0.174286712062E+04   -0.28464E-01   -0.28436E-01   720   0.118E+00-0.735E-02
CGA:   7    -0.174287375415E+04   -0.66335E-02   -0.66297E-02   720   0.665E-01 0.393E-03
CGA:   8    -0.174287947489E+04   -0.57207E-02   -0.57825E-02   720   0.692E-01-0.255E-02
CGA:   9    -0.174288254046E+04   -0.30656E-02   -0.31195E-02   720   0.124E-01 0.336E-02
CGA:  10    -0.174288336848E+04   -0.82802E-03   -0.82790E-03   720   0.119E-01 0.638E-04
CGA:  11    -0.174288450519E+04   -0.11367E-02   -0.11577E-02   720   0.102E-01-0.602E-03
CGA:  12    -0.174288500541E+04   -0.50022E-03   -0.50112E-03   720   0.408E-02 0.793E-04
CGA:  13    -0.174288530920E+04   -0.30379E-03   -0.42151E-03   720   0.103E-01-0.293E-02
CGA:  14    -0.174288552687E+04   -0.21767E-03   -0.26976E-03   720   0.164E-02 0.142E-02
CGA:  15    -0.174288563943E+04   -0.11256E-03   -0.11274E-03   720   0.122E-02 0.110E-03
CGA:  16    -0.174288564309E+04   -0.36646E-05   -0.27443E-03   720   0.124E-01-0.182E-02
CGA:  17    -0.174288590482E+04   -0.26173E-03   -0.30830E-03   720   0.100E-02 0.113E-02
CGA:  18    -0.174288597691E+04   -0.72086E-04   -0.71485E-04   720   0.752E-03-0.319E-03
CGA:  19    -0.174288601595E+04   -0.39037E-04   -0.50417E-04   720   0.161E-02-0.368E-03
CGA:  20    -0.174288604685E+04   -0.30907E-04   -0.35899E-04   720   0.116E-02 0.199E-03
CGA:  21    -0.174288607031E+04   -0.23458E-04   -0.33043E-04   720   0.240E-03 0.231E-03
CGA:  22    -0.174288608645E+04   -0.16143E-04   -0.16168E-04   720   0.339E-03 0.305E-05
CGA:  23    -0.174288611593E+04   -0.29472E-04   -0.37978E-04   720   0.870E-03-0.185E-03
CGA:  24    -0.174288616005E+04   -0.44129E-04   -0.43042E-04   720   0.143E-03-0.641E-04
CGA:  25    -0.174288582387E+04    0.33619E-03   -0.18410E-03   720   0.150E-01-0.109E-02
CGA:  26    -0.174288615736E+04   -0.33349E-03   -0.37783E-03   720   0.733E-03 0.101E-02
CGA:  27    -0.174288618673E+04   -0.29375E-04   -0.30551E-04   720   0.167E-03 0.255E-04
CGA:  28    -0.174288619241E+04   -0.56735E-05   -0.75027E-05   720   0.480E-04 0.278E-04
  14 F= -.17428862E+04 E0= -.17428622E+04  d E =-.476880E-01  mag=    46.0000
       N       E                     dE             d eps       ncg     rms          ort
SDA:   1    -0.174269680936E+04    0.18938E+00    0.00000E+00   720   0.538E+00 0.000E+00
CGA:   2    -0.174275894274E+04   -0.62133E-01   -0.62389E-01   720   0.158E+01-0.130E-01
CGA:   3    -0.174285522754E+04   -0.96285E-01   -0.98022E-01   720   0.238E+00-0.177E-01
CGA:   4    -0.174286945920E+04   -0.14232E-01   -0.15460E-01   720   0.174E+00-0.540E-02
CGA:   5    -0.174288214432E+04   -0.12685E-01   -0.12749E-01   720   0.109E+00 0.401E-02
CGA:   6    -0.174288678346E+04   -0.46391E-02   -0.46557E-02   720   0.305E-01-0.239E-02
CGA:   7    -0.174288842845E+04   -0.16450E-02   -0.16687E-02   720   0.136E-01 0.139E-02
CGA:   8    -0.174288946741E+04   -0.10390E-02   -0.10586E-02   720   0.118E-01 0.908E-03
CGA:   9    -0.174289023526E+04   -0.76785E-03   -0.75541E-03   720   0.389E-02-0.469E-03
CGA:  10    -0.174289039054E+04   -0.15528E-03   -0.17688E-03   720   0.179E-02 0.484E-03
CGA:  11    -0.174289060685E+04   -0.21631E-03   -0.22558E-03   720   0.350E-02-0.439E-03
CGA:  12    -0.174289071793E+04   -0.11108E-03   -0.11033E-03   720   0.141E-02-0.190E-04
CGA:  13    -0.174289076609E+04   -0.48162E-04   -0.50320E-04   720   0.824E-03 0.390E-04
CGA:  14    -0.174289083107E+04   -0.64973E-04   -0.57739E-04   720   0.935E-03-0.396E-03
CGA:  15    -0.174289086792E+04   -0.36852E-04   -0.53109E-04   720   0.243E-02-0.696E-03
CGA:  16    -0.174289092132E+04   -0.53397E-04   -0.74756E-04   720   0.485E-03 0.383E-03
CGA:  17    -0.174289094861E+04   -0.27292E-04   -0.29626E-04   720   0.186E-03 0.782E-04
CGA:  18    -0.174289096004E+04   -0.11429E-04   -0.12590E-04   720   0.146E-03 0.479E-04
CGA:  19    -0.174289097032E+04   -0.10283E-04   -0.11169E-04   720   0.914E-04 0.431E-04
CGA:  20    -0.174289097463E+04   -0.43107E-05   -0.26972E-04   720   0.905E-03-0.154E-03
CGA:  21    -0.174289098549E+04   -0.10856E-04   -0.22006E-04   720   0.858E-04 0.177E-03
CGA:  22    -0.174289098857E+04   -0.30795E-05   -0.37857E-05   720   0.418E-04 0.152E-04
CGA:  23    -0.174289087227E+04    0.11629E-03   -0.61934E-04   720   0.350E-02-0.318E-03
CGA:  24    -0.174289096674E+04   -0.94470E-04   -0.11990E-03   720   0.544E-03 0.136E-03
CGA:  25    -0.174289102266E+04   -0.55920E-04   -0.32787E-04   720   0.294E-03-0.285E-03
CGA:  26    -0.174289101650E+04    0.61634E-05   -0.61530E-05   720   0.661E-04 0.104E-03
  15 F= -.17428910E+04 E0= -.17428672E+04  d E =-.482409E-02  mag=    46.0000
       N       E                     dE             d eps       ncg     rms          ort
SDA:   1    -0.172786877262E+04    0.15022E+02    0.00000E+00   720   0.386E+02 0.000E+00
CGA:   2    -0.173374331043E+04   -0.58745E+01   -0.62262E+01   720   0.206E+03-0.588E+01
CGA:   3    -0.173869209508E+04   -0.49488E+01   -0.66548E+01   720   0.823E+02-0.335E+02
CGA:   4    -0.173872858965E+04   -0.36495E-01   -0.28131E+01   720   0.392E+02-0.401E+02
CGA:   5    -0.173978476325E+04   -0.10562E+01   -0.66495E+00   720   0.219E+02 0.938E+01
CGA:   6    -0.174006209125E+04   -0.27733E+00   -0.10837E+01   720   0.497E+02-0.181E+02
CGA:   7    -0.174051331300E+04   -0.45122E+00   -0.25027E+01   720   0.258E+02-0.132E+02
CGA:   8    -0.174212533588E+04   -0.16120E+01   -0.98319E+00   720   0.528E+01 0.536E+01
CGA:   9    -0.174231142308E+04   -0.18609E+00   -0.13346E+00   720   0.275E+01 0.225E+01
CGA:  10    -0.174243575154E+04   -0.12433E+00   -0.11676E+00   720   0.364E+01 0.104E+00
CGA:  11    -0.174256307961E+04   -0.12733E+00   -0.14166E+00   720   0.659E+01-0.309E+00
CGA:  12    -0.174268968600E+04   -0.12661E+00   -0.13449E+00   720   0.445E+01-0.286E+00
CGA:  13    -0.174274678856E+04   -0.57103E-01   -0.62829E-01   720   0.127E+01-0.328E+00
CGA:  14    -0.174276336003E+04   -0.16571E-01   -0.16019E-01   720   0.631E+00 0.913E-01
CGA:  15    -0.174277579027E+04   -0.12430E-01   -0.11300E-01   720   0.510E+00 0.832E-01
CGA:  16    -0.174278838596E+04   -0.12596E-01   -0.12965E-01   720   0.534E+00-0.131E-01
CGA:  17    -0.174280006658E+04   -0.11681E-01   -0.12436E-01   720   0.615E+00-0.428E-01
CGA:  18    -0.174281468347E+04   -0.14617E-01   -0.14892E-01   720   0.769E+00-0.279E-01
CGA:  19    -0.174283089532E+04   -0.16212E-01   -0.16244E-01   720   0.546E+00-0.534E-02
CGA:  20    -0.174283927884E+04   -0.83835E-02   -0.83004E-02   720   0.225E+00 0.224E-01
CGA:  21    -0.174284291649E+04   -0.36376E-02   -0.38754E-02   720   0.122E+00-0.110E-02
CGA:  22    -0.174284553108E+04   -0.26146E-02   -0.26807E-02   720   0.108E+00-0.112E-02
CGA:  23    -0.174284821196E+04   -0.26809E-02   -0.25179E-02   720   0.109E+00 0.727E-03
CGA:  24    -0.174285106038E+04   -0.28484E-02   -0.26326E-02   720   0.128E+00 0.172E-02
CGA:  25    -0.174285423217E+04   -0.31718E-02   -0.31622E-02   720   0.147E+00 0.195E-03
CGA:  26    -0.174285718198E+04   -0.29498E-02   -0.30911E-02   720   0.115E+00 0.497E-03
CGA:  27    -0.174285918871E+04   -0.20067E-02   -0.21477E-02   720   0.725E-01-0.174E-02
CGA:  28    -0.174286059633E+04   -0.14076E-02   -0.15038E-02   720   0.453E-01-0.458E-02
CGA:  29    -0.174286156247E+04   -0.96614E-03   -0.91374E-03   720   0.259E-01-0.263E-02
CGA:  30    -0.174286218797E+04   -0.62550E-03   -0.58371E-03   720   0.204E-01-0.149E-02
CGA:  31    -0.174286276034E+04   -0.57236E-03   -0.56793E-03   720   0.251E-01-0.150E-03
CGA:  32    -0.174286362808E+04   -0.86774E-03   -0.88225E-03   720   0.377E-01 0.101E-02
CGA:  33    -0.174286486980E+04   -0.12417E-02   -0.12550E-02   720   0.318E-01 0.544E-03
CGA:  34    -0.174286559436E+04   -0.72456E-03   -0.70474E-03   720   0.115E-01-0.136E-02
CGA:  35    -0.174286587818E+04   -0.28383E-03   -0.26123E-03   720   0.691E-02-0.116E-02
CGA:  36    -0.174286609666E+04   -0.21848E-03   -0.21461E-03   720   0.821E-02-0.374E-03
SDA:  37    -0.174286633581E+04   -0.23915E-03   -0.24848E-03   720   0.976E-02 0.783E-03
CGA:  38    -0.174286676455E+04   -0.42874E-03   -0.42844E-03   720   0.281E-02 0.629E-03
CGA:  39    -0.174286710593E+04   -0.34138E-03   -0.34206E-03   720   0.452E-02-0.174E-04
CGA:  40    -0.174286743986E+04   -0.33393E-03   -0.33530E-03   720   0.253E-02-0.528E-04
CGA:  41    -0.174286753663E+04   -0.96761E-04   -0.10063E-03   720   0.928E-03 0.466E-03
CGA:  42    -0.174286763261E+04   -0.95989E-04   -0.96658E-04   720   0.152E-02-0.153E-04
CGA:  43    -0.174286778765E+04   -0.15504E-03   -0.15734E-03   720   0.253E-02-0.433E-04
CGA:  44    -0.174286790492E+04   -0.11726E-03   -0.11701E-03   720   0.136E-02-0.518E-04
CGA:  45    -0.174286799459E+04   -0.89671E-04   -0.14251E-03   720   0.216E-02-0.973E-03
CGA:  46    -0.174286806371E+04   -0.69124E-04   -0.79658E-04   720   0.637E-03 0.579E-03
CGA:  47    -0.174286809892E+04   -0.35211E-04   -0.37328E-04   720   0.358E-03 0.264E-03
CGA:  48    -0.174286815928E+04   -0.60361E-04   -0.61413E-04   720   0.599E-03-0.159E-04
CGA:  49    -0.174286817170E+04   -0.12416E-04   -0.16632E-04   720   0.284E-03 0.149E-03
CGA:  50    -0.174286817811E+04   -0.64079E-05   -0.95798E-05   720   0.167E-03 0.110E-03
CGA:  51    -0.174286819148E+04   -0.13368E-04   -0.13454E-04   720   0.216E-03-0.227E-04
CGA:  52    -0.174286786130E+04    0.33018E-03   -0.17993E-03   720   0.765E-02-0.134E-02
CGA:  53    -0.174286808459E+04   -0.22329E-03   -0.26245E-03   720   0.171E-02 0.665E-03
CGA:  54    -0.174286820675E+04   -0.12216E-03   -0.11730E-03   720   0.481E-03-0.103E-03
CGA:  55    -0.174286822740E+04   -0.20646E-04   -0.24696E-04   720   0.293E-03 0.998E-04
CGA:  56    -0.174286825013E+04   -0.22734E-04   -0.24065E-04   720   0.147E-03 0.538E-04
CGA:  57    -0.174286828591E+04   -0.35775E-04    0.62516E-04   720   0.109E-03 0.137E-04
CGA:  58    -0.174286828421E+04    0.17006E-05   -0.26806E-05   720   0.441E-04 0.635E-04
  16 F= -.17428683E+04 E0= -.17428451E+04  d E =0.227323E-01  mag=    46.0000
       N       E                     dE             d eps       ncg     rms          ort
SDA:   1    -0.170042098363E+04    0.42447E+02    0.00000E+00   720   0.534E+03 0.000E+00
CGA:   2    -0.171342763412E+04   -0.13007E+02   -0.26971E+02   720   0.854E+02 0.286E+02
CGA:   3    -0.172355836426E+04   -0.10131E+02   -0.99930E+01   720   0.126E+03-0.151E+02
CGA:   4    -0.172356569924E+04   -0.73350E-02   -0.48379E+01   720   0.661E+03-0.369E+02
CGA:   5    -0.173370791651E+04   -0.10142E+02   -0.79819E+01   720   0.524E+02-0.709E+02
CGA:   6    -0.173490756691E+04   -0.11997E+01   -0.14362E+01   720   0.532E+02 0.224E+01
CGA:   7    -0.173577698354E+04   -0.86942E+00   -0.12145E+01   720   0.636E+02-0.619E+02
CGA:   8    -0.173721000774E+04   -0.14330E+01   -0.20388E+01   720   0.385E+02-0.307E+02
CGA:   9    -0.173789924493E+04   -0.68924E+00   -0.44319E+00   720   0.236E+02 0.104E+02
CGA:  10    -0.173858713695E+04   -0.68789E+00   -0.53367E+00   720   0.110E+02 0.244E+01
CGA:  11    -0.173880893039E+04   -0.22179E+00   -0.30857E+00   720   0.175E+02-0.306E+01
CGA:  12    -0.173900419271E+04   -0.19526E+00   -0.26999E+00   720   0.296E+02-0.260E+01
CGA:  13    -0.173953906987E+04   -0.53488E+00   -0.44073E+00   720   0.127E+02 0.290E+01
CGA:  14    -0.173967057606E+04   -0.13151E+00   -0.20331E+00   720   0.839E+01-0.495E+01
CGA:  15    -0.173974814644E+04   -0.77570E-01   -0.57388E-01   720   0.641E+01 0.167E+01
CGA:  16    -0.173981969770E+04   -0.71551E-01   -0.57506E-01   720   0.199E+01 0.165E+01
CGA:  17    -0.173984580388E+04   -0.26106E-01   -0.27684E-01   720   0.161E+01-0.126E+00
CGA:  18    -0.173987012242E+04   -0.24319E-01   -0.24265E-01   720   0.292E+01-0.634E-02
CGA:  19    -0.173991246330E+04   -0.42341E-01   -0.42191E-01   720   0.383E+01-0.371E-01
CGA:  20    -0.173995787110E+04   -0.45408E-01   -0.51261E-01   720   0.409E+01-0.427E+00
CGA:  21    -0.174000238737E+04   -0.44516E-01   -0.50124E-01   720   0.483E+01-0.393E+00
CGA:  22    -0.174005524226E+04   -0.52855E-01   -0.56207E-01   720   0.346E+01-0.257E+00
CGA:  23    -0.174008356934E+04   -0.28327E-01   -0.30414E-01   720   0.138E+01-0.197E+00
CGA:  24    -0.174009579010E+04   -0.12221E-01   -0.13916E-01   720   0.832E+00-0.118E+00
CGA:  25    -0.174010693368E+04   -0.11144E-01   -0.12556E-01   720   0.916E+00-0.449E-01
CGA:  26    -0.174012241510E+04   -0.15481E-01   -0.16454E-01   720   0.786E+00-0.180E-01
CGA:  27    -0.174013624205E+04   -0.13827E-01   -0.14764E-01   720   0.618E+00-0.245E-01
CGA:  28    -0.174015166292E+04   -0.15421E-01   -0.15533E-01   720   0.658E+00-0.482E-02
CGA:  29    -0.174016839459E+04   -0.16732E-01   -0.16843E-01   720   0.538E+00-0.363E-02
CGA:  30    -0.174017837610E+04   -0.99815E-02   -0.98192E-02   720   0.253E+00 0.550E-02
CGA:  31    -0.174018421593E+04   -0.58398E-02   -0.59266E-02   720   0.226E+00 0.555E-02
CGA:  32    -0.174018960380E+04   -0.53879E-02   -0.53904E-02   720   0.170E+00 0.668E-02
CGA:  33    -0.174019311888E+04   -0.35151E-02   -0.35039E-02   720   0.102E+00 0.180E-02
CGA:  34    -0.174019546955E+04   -0.23507E-02   -0.23238E-02   720   0.823E-01-0.376E-02
CGA:  35    -0.174019748700E+04   -0.20175E-02   -0.19846E-02   720   0.651E-01-0.545E-02
CGA:  36    -0.174019916628E+04   -0.16793E-02   -0.16613E-02   720   0.772E-01-0.371E-02
CGA:  37    -0.174020142392E+04   -0.22576E-02   -0.22550E-02   720   0.889E-01-0.307E-02
SDA:  38    -0.174020343983E+04   -0.20159E-02   -0.19959E-02   720   0.593E-01-0.332E-02
CGA:  39    -0.174020531683E+04   -0.18770E-02   -0.18781E-02   720   0.932E-02-0.389E-02
CGA:  40    -0.174020602758E+04   -0.71075E-03   -0.62710E-03   720   0.810E-02 0.204E-02
CGA:  41    -0.174020721320E+04   -0.11856E-02   -0.12070E-02   720   0.132E-01-0.236E-03
CGA:  42    -0.174020793321E+04   -0.72001E-03   -0.74003E-03   720   0.664E-02-0.101E-02
CGA:  43    -0.174020835154E+04   -0.41833E-03   -0.40047E-03   720   0.603E-02 0.678E-03
CGA:  44    -0.174020871865E+04   -0.36711E-03   -0.35703E-03   720   0.487E-02 0.755E-03
CGA:  45    -0.174020926326E+04   -0.54462E-03   -0.67286E-03   720   0.707E-02-0.155E-02
CGA:  46    -0.174020956028E+04   -0.29701E-03   -0.31890E-03   720   0.496E-02-0.104E-02
CGA:  47    -0.174020979993E+04   -0.23965E-03   -0.24432E-03   720   0.307E-02-0.401E-03
CGA:  48    -0.174021002559E+04   -0.22566E-03   -0.24913E-03   720   0.408E-02-0.551E-03
CGA:  49    -0.174021019534E+04   -0.16975E-03   -0.17053E-03   720   0.237E-02-0.347E-03
CGA:  50    -0.174021032247E+04   -0.12714E-03   -0.12258E-03   720   0.172E-02 0.580E-03
CGA:  51    -0.174021041098E+04   -0.88510E-04   -0.91872E-04   720   0.583E-03 0.550E-03
CGA:  52    -0.174021046319E+04   -0.52204E-04   -0.51479E-04   720   0.853E-03 0.419E-04
CGA:  53    -0.174021052429E+04   -0.61102E-04   -0.62003E-04   720   0.925E-03-0.488E-04
CGA:  54    -0.174021058112E+04   -0.56825E-04   -0.83025E-04   720   0.180E-02-0.589E-03
CGA:  55    -0.174021066052E+04   -0.79406E-04   -0.76332E-04   720   0.821E-03-0.299E-03
CGA:  56    -0.174021070447E+04   -0.43952E-04   -0.44023E-04   720   0.321E-03-0.405E-05
CGA:  57    -0.174021072392E+04   -0.19443E-04   -0.20594E-04   720   0.340E-03-0.100E-03
CGA:  58    -0.174021073687E+04   -0.12950E-04   -0.12850E-04   720   0.262E-03 0.682E-04
CGA:  59    -0.174021074312E+04   -0.62572E-05   -0.93069E-05   720   0.730E-04 0.127E-03
  17 F= -.17402107E+04 E0= -.17401850E+04  d E =0.265754E+01  mag=    46.0000
       N       E                     dE             d eps       ncg     rms          ort
SDA:   1    -0.173775925731E+04    0.24515E+01    0.00000E+00   720   0.173E+02 0.000E+00
CGA:   2    -0.173861364424E+04   -0.85439E+00   -0.85612E+00   720   0.153E+02 0.547E+00
CGA:   3    -0.174090803445E+04   -0.22944E+01   -0.22811E+01   720   0.936E+01 0.504E-01
CGA:   4    -0.174126307304E+04   -0.35504E+00   -0.34242E+00   720   0.276E+01-0.741E-02
CGA:   5    -0.174147122455E+04   -0.20815E+00   -0.21067E+00   720   0.419E+01-0.896E-01
CGA:   6    -0.174170052847E+04   -0.22930E+00   -0.22931E+00   720   0.156E+01-0.495E-02
CGA:   7    -0.174174843334E+04   -0.47905E-01   -0.49945E-01   720   0.309E+00-0.187E-01
CGA:   8    -0.174176702170E+04   -0.18588E-01   -0.18573E-01   720   0.362E+00 0.950E-03
CGA:   9    -0.174179548183E+04   -0.28460E-01   -0.28345E-01   720   0.262E+00 0.349E-02
CGA:  10    -0.174180536176E+04   -0.98799E-02   -0.99630E-02   720   0.763E-01 0.397E-02
CGA:  11    -0.174180995093E+04   -0.45892E-02   -0.45946E-02   720   0.604E-01-0.386E-03
CGA:  12    -0.174181387424E+04   -0.39233E-02   -0.39323E-02   720   0.652E-01-0.712E-03
CGA:  13    -0.174181792952E+04   -0.40553E-02   -0.40612E-02   720   0.376E-01-0.129E-02
CGA:  14    -0.174182011571E+04   -0.21862E-02   -0.21961E-02   720   0.250E-01-0.328E-02
CGA:  15    -0.174182108794E+04   -0.97224E-03   -0.96378E-03   720   0.123E-01-0.743E-03
CGA:  16    -0.174182190501E+04   -0.81706E-03   -0.81131E-03   720   0.143E-01 0.438E-03
CGA:  17    -0.174182308265E+04   -0.11776E-02   -0.11907E-02   720   0.107E-01-0.536E-03
CGA:  18    -0.174182345314E+04   -0.37049E-03   -0.36946E-03   720   0.372E-02 0.229E-05
CGA:  19    -0.174182366265E+04   -0.20951E-03   -0.20952E-03   720   0.330E-02 0.228E-03
CGA:  20    -0.174182393674E+04   -0.27409E-03   -0.27153E-03   720   0.297E-02 0.120E-03
CGA:  21    -0.174182408444E+04   -0.14770E-03   -0.14827E-03   720   0.201E-02 0.584E-04
CGA:  22    -0.174182420208E+04   -0.11764E-03   -0.11755E-03   720   0.146E-02 0.207E-03
CGA:  23    -0.174182428109E+04   -0.79002E-04   -0.80896E-04   720   0.723E-03 0.277E-03
CGA:  24    -0.174182434060E+04   -0.59517E-04   -0.59671E-04   720   0.121E-02-0.129E-04
CGA:  25    -0.174182443779E+04   -0.97185E-04   -0.10833E-03   720   0.188E-02-0.330E-03
CGA:  26    -0.174182448424E+04   -0.46454E-04   -0.46342E-04   720   0.763E-03-0.618E-05
CGA:  27    -0.174182450175E+04   -0.17511E-04   -0.20910E-04   720   0.502E-03 0.112E-03
CGA:  28    -0.174182452880E+04   -0.27048E-04   -0.28184E-04   720   0.580E-03 0.159E-03
CGA:  29    -0.174182455945E+04   -0.30652E-04   -0.31383E-04   720   0.409E-03 0.529E-04
CGA:  30    -0.174182458209E+04   -0.22637E-04   -0.22751E-04   720   0.296E-03 0.275E-04
CGA:  31    -0.174182459242E+04   -0.10327E-04   -0.11295E-04   720   0.246E-03 0.498E-04
SDA:  32    -0.174182461243E+04   -0.20010E-04   -0.20173E-04   720   0.237E-03-0.950E-05
CGA:  33    -0.174182462521E+04   -0.12784E-04   -0.12320E-04   720   0.322E-03-0.163E-03
CGA:  34    -0.174182462789E+04   -0.26786E-05   -0.57330E-05   720   0.436E-04 0.824E-04
  18 F= -.17418246E+04 E0= -.17417997E+04  d E =-.161388E+01  mag=    46.0000
       N       E                     dE             d eps       ncg     rms          ort
SDA:   1    -0.174074128248E+04    0.10833E+01    0.00000E+00   720   0.755E+01 0.000E+00
CGA:   2    -0.174108422689E+04   -0.34294E+00   -0.33232E+00   720   0.684E+01-0.539E+00
CGA:   3    -0.174192011141E+04   -0.83588E+00   -0.81498E+00   720   0.118E+02 0.302E+00
CGA:   4    -0.174226762391E+04   -0.34751E+00   -0.38180E+00   720   0.171E+01-0.526E+00
CGA:   5    -0.174234417841E+04   -0.76554E-01   -0.75034E-01   720   0.107E+01-0.584E-01
CGA:   6    -0.174241450110E+04   -0.70323E-01   -0.70439E-01   720   0.125E+01-0.761E-02
CGA:   7    -0.174247306507E+04   -0.58564E-01   -0.59019E-01   720   0.483E+00 0.218E-01
CGA:   8    -0.174248896432E+04   -0.15899E-01   -0.15965E-01   720   0.847E-01 0.939E-02
CGA:   9    -0.174249493188E+04   -0.59676E-02   -0.59489E-02   720   0.126E+00 0.112E-02
CGA:  10    -0.174250474011E+04   -0.98082E-02   -0.98475E-02   720   0.682E-01-0.215E-02
CGA:  11    -0.174250738506E+04   -0.26450E-02   -0.27085E-02   720   0.284E-01 0.452E-02
CGA:  12    -0.174250907670E+04   -0.16916E-02   -0.16933E-02   720   0.168E-01 0.389E-03
CGA:  13    -0.174251028188E+04   -0.12052E-02   -0.12673E-02   720   0.298E-01-0.308E-02
CGA:  14    -0.174251199931E+04   -0.17174E-02   -0.17410E-02   720   0.196E-01-0.146E-02
CGA:  15    -0.174251246084E+04   -0.46153E-03   -0.47576E-03   720   0.428E-02 0.342E-03
CGA:  16    -0.174251273254E+04   -0.27170E-03   -0.27635E-03   720   0.705E-02-0.511E-03
CGA:  17    -0.174251312699E+04   -0.39445E-03   -0.40140E-03   720   0.800E-02-0.715E-03
CGA:  18    -0.174251340559E+04   -0.27861E-03   -0.28619E-03   720   0.555E-02 0.481E-03
CGA:  19    -0.174251359587E+04   -0.19027E-03   -0.20017E-03   720   0.197E-02 0.576E-03
CGA:  20    -0.174251366520E+04   -0.69337E-04   -0.69261E-04   720   0.894E-03 0.272E-04
CGA:  21    -0.174251371229E+04   -0.47087E-04   -0.47124E-04   720   0.116E-02 0.126E-03
CGA:  22    -0.174251378173E+04   -0.69437E-04   -0.69398E-04   720   0.107E-02 0.325E-03
CGA:  23    -0.174251385743E+04   -0.75701E-04   -0.76389E-04   720   0.860E-03-0.196E-03
CGA:  24    -0.174251389387E+04   -0.36440E-04   -0.48918E-04   720   0.939E-03-0.730E-03
CGA:  25    -0.174251390694E+04   -0.13073E-04   -0.23450E-04   720   0.288E-03 0.363E-03
CGA:  26    -0.174251391494E+04   -0.80000E-05   -0.12253E-04   720   0.194E-03 0.201E-03
CGA:  27    -0.174251393603E+04   -0.21090E-04    0.71148E-04   720   0.169E-03 0.492E-04
CGA:  28    -0.174251395215E+04   -0.16118E-04   -0.14308E-04   720   0.593E-04 0.108E-03
CGA:  29    -0.174251395851E+04   -0.63617E-05   -0.56757E-05   720   0.936E-04 0.152E-04
CGA:  30    -0.174251397340E+04   -0.14884E-04    0.18124E-04   720   0.470E-04 0.745E-04
CGA:  31    -0.174251397517E+04   -0.17701E-05   -0.20491E-05   720   0.303E-04 0.269E-04
  19 F= -.17425140E+04 E0= -.17424895E+04  d E =-.689347E+00  mag=    46.0000
       N       E                     dE             d eps       ncg     rms          ort
SDA:   1    -0.174067074315E+04    0.18432E+01    0.00000E+00   720   0.757E+01 0.000E+00
CGA:   2    -0.174112848671E+04   -0.45774E+00   -0.50227E+00   720   0.148E+02-0.240E+01
CGA:   3    -0.174171382337E+04   -0.58534E+00   -0.58496E+00   720   0.287E+02 0.405E-01
CGA:   4    -0.174248576866E+04   -0.77195E+00   -0.82433E+00   720   0.434E+01-0.118E+01
CGA:   5    -0.174263869712E+04   -0.15293E+00   -0.15914E+00   720   0.151E+01 0.952E-01
CGA:   6    -0.174271589641E+04   -0.77199E-01   -0.76578E-01   720   0.163E+01-0.104E+00
CGA:   7    -0.174280778493E+04   -0.91889E-01   -0.91949E-01   720   0.160E+01-0.920E-02
CGA:   8    -0.174285855752E+04   -0.50773E-01   -0.52816E-01   720   0.381E+00-0.938E-02
CGA:   9    -0.174286874527E+04   -0.10188E-01   -0.10352E-01   720   0.120E+00 0.884E-02
CGA:  10    -0.174287806853E+04   -0.93233E-02   -0.92109E-02   720   0.194E+00 0.378E-02
CGA:  11    -0.174288879540E+04   -0.10727E-01   -0.10737E-01   720   0.122E+00-0.665E-02
CGA:  12    -0.174289358616E+04   -0.47908E-02   -0.48260E-02   720   0.459E-01 0.487E-02
CGA:  13    -0.174289534138E+04   -0.17552E-02   -0.17915E-02   720   0.295E-01 0.398E-02
CGA:  14    -0.174289721424E+04   -0.18729E-02   -0.18843E-02   720   0.313E-01-0.116E-02
CGA:  15    -0.174289884762E+04   -0.16334E-02   -0.16417E-02   720   0.302E-01-0.236E-02
CGA:  16    -0.174289984378E+04   -0.99617E-03   -0.10001E-02   720   0.143E-01 0.212E-03
CGA:  17    -0.174290054430E+04   -0.70052E-03   -0.70093E-03   720   0.154E-01 0.175E-03
CGA:  18    -0.174290126563E+04   -0.72133E-03   -0.71667E-03   720   0.704E-02-0.126E-02
CGA:  19    -0.174290152267E+04   -0.25704E-03   -0.25591E-03   720   0.477E-02-0.123E-03
CGA:  20    -0.174290175560E+04   -0.23293E-03   -0.23282E-03   720   0.453E-02 0.519E-03
CGA:  21    -0.174290213522E+04   -0.37961E-03   -0.38926E-03   720   0.627E-02-0.342E-03
CGA:  22    -0.174290235260E+04   -0.21739E-03   -0.21317E-03   720   0.218E-02-0.284E-03
CGA:  23    -0.174290240166E+04   -0.49054E-04   -0.56475E-04   720   0.981E-03 0.322E-03
CGA:  24    -0.174290243636E+04   -0.34700E-04   -0.38907E-04   720   0.948E-03 0.292E-03
CGA:  25    -0.174290252837E+04   -0.92015E-04   -0.94128E-04   720   0.178E-02-0.744E-04
CGA:  26    -0.174290259289E+04   -0.64518E-04   -0.60095E-04   720   0.115E-02-0.341E-03
CGA:  27    -0.174290261826E+04   -0.25366E-04   -0.25490E-04   720   0.892E-03 0.581E-05
CGA:  28    -0.174290264017E+04   -0.21910E-04   -0.25615E-04   720   0.752E-03 0.194E-03
CGA:  29    -0.174290266846E+04   -0.28295E-04   -0.30269E-04   720   0.597E-03 0.148E-03
CGA:  30    -0.174290270172E+04   -0.33256E-04   -0.33331E-04   720   0.469E-03-0.222E-03
CGA:  31    -0.174290271541E+04   -0.13693E-04   -0.14277E-04   720   0.716E-03-0.271E-03
CGA:  32    -0.174290274327E+04   -0.27856E-04   -0.28842E-04   720   0.295E-03 0.160E-03
CGA:  33    -0.174290270396E+04    0.39302E-04   -0.78038E-04   720   0.240E-02-0.683E-03
CGA:  34    -0.174290276342E+04   -0.59451E-04   -0.69324E-04   720   0.598E-03 0.384E-03
CGA:  35    -0.174290280558E+04   -0.42168E-04   -0.41953E-04   720   0.170E-03 0.347E-04
CGA:  36    -0.174290281633E+04   -0.10744E-04   -0.12096E-04   720   0.202E-03-0.101E-03
CGA:  37    -0.174290281751E+04   -0.11821E-05   -0.37757E-05   720   0.482E-04 0.722E-04
  20 F= -.17429028E+04 E0= -.17428789E+04  d E =-.388842E+00  mag=    46.0000
       N       E                     dE             d eps       ncg     rms          ort
SDA:   1    -0.174275215491E+04    0.15066E+00    0.00000E+00   720   0.626E+00 0.000E+00
CGA:   2    -0.174279744770E+04   -0.45293E-01   -0.45737E-01   720   0.848E+00-0.152E-01
CGA:   3    -0.174287671279E+04   -0.79265E-01   -0.79521E-01   720   0.710E+00-0.749E-02
CGA:   4    -0.174290737185E+04   -0.30659E-01   -0.31089E-01   720   0.155E+00 0.152E-01
CGA:   5    -0.174291608293E+04   -0.87111E-02   -0.87177E-02   720   0.887E-01-0.169E-02
CGA:   6    -0.174292537230E+04   -0.92894E-02   -0.94826E-02   720   0.113E+00-0.372E-02
CGA:   7    -0.174292907814E+04   -0.37058E-02   -0.37789E-02   720   0.127E-01 0.368E-02
CGA:   8    -0.174292978462E+04   -0.70649E-03   -0.70592E-03   720   0.111E-01-0.341E-03
CGA:   9    -0.174293079841E+04   -0.10138E-02   -0.11200E-02   720   0.161E-01-0.222E-02
CGA:  10    -0.174293121203E+04   -0.41362E-03   -0.45165E-03   720   0.536E-02 0.166E-02
CGA:  11    -0.174293136413E+04   -0.15210E-03   -0.17614E-03   720   0.228E-02 0.938E-03
CGA:  12    -0.174293151132E+04   -0.14719E-03   -0.14709E-03   720   0.266E-02-0.218E-03
CGA:  13    -0.174293165354E+04   -0.14222E-03   -0.14296E-03   720   0.322E-02-0.179E-03
CGA:  14    -0.174293174416E+04   -0.90622E-04   -0.97821E-04   720   0.177E-02 0.307E-03
CGA:  15    -0.174293181159E+04   -0.67428E-04   -0.68835E-04   720   0.106E-02 0.636E-04
CGA:  16    -0.174293187472E+04   -0.63130E-04   -0.68261E-04   720   0.138E-02-0.582E-03
CGA:  17    -0.174293190246E+04   -0.27744E-04   -0.38949E-04   720   0.331E-03 0.441E-03
CGA:  18    -0.174293191882E+04   -0.16359E-04   -0.17958E-04   720   0.209E-03 0.141E-03
CGA:  19    -0.174293193270E+04   -0.13880E-04   -0.52950E-04   720   0.164E-02-0.311E-03
CGA:  20    -0.174293197016E+04   -0.37455E-04   -0.45297E-04   720   0.220E-03 0.260E-03
CGA:  21    -0.174293197247E+04   -0.23137E-05   -0.32091E-04   720   0.954E-03-0.427E-03
CGA:  22    -0.174293199605E+04   -0.23579E-04   -0.30391E-04   720   0.145E-03 0.252E-03
CGA:  23    -0.174293200105E+04   -0.50030E-05   -0.59530E-05   720   0.295E-04 0.372E-04
  21 F= -.17429320E+04 E0= -.17429081E+04  d E =-.291835E-01  mag=    46.0000
       N       E                     dE             d eps       ncg     rms          ort
SDA:   1    -0.174277441492E+04    0.15758E+00    0.00000E+00   720   0.503E+00 0.000E+00
CGA:   2    -0.174283614922E+04   -0.61734E-01   -0.64061E-01   720   0.103E+01-0.356E-01
CGA:   3    -0.174289300986E+04   -0.56861E-01   -0.56891E-01   720   0.316E+00 0.182E-01
CGA:   4    -0.174290936701E+04   -0.16357E-01   -0.16635E-01   720   0.137E+00 0.574E-02
CGA:   5    -0.174292073571E+04   -0.11369E-01   -0.11378E-01   720   0.124E+00 0.660E-03
CGA:   6    -0.174293014009E+04   -0.94044E-02   -0.93956E-02   720   0.268E-01-0.537E-04
CGA:   7    -0.174293114294E+04   -0.10029E-02   -0.10187E-02   720   0.113E-01 0.513E-03
CGA:   8    -0.174293277599E+04   -0.16330E-02   -0.18855E-02   720   0.194E-01-0.247E-02
CGA:   9    -0.174293318551E+04   -0.40952E-03   -0.44416E-03   720   0.425E-02 0.943E-03
CGA:  10    -0.174293331015E+04   -0.12464E-03   -0.14904E-03   720   0.294E-02 0.809E-03
CGA:  11    -0.174293351154E+04   -0.20139E-03   -0.20288E-03   720   0.311E-02 0.320E-03
CGA:  12    -0.174293373355E+04   -0.22201E-03   -0.22349E-03   720   0.295E-02-0.585E-03
CGA:  13    -0.174293380133E+04   -0.67777E-04   -0.72316E-04   720   0.159E-02 0.133E-03
CGA:  14    -0.174293384419E+04   -0.42857E-04   -0.52750E-04   720   0.119E-02 0.342E-03
CGA:  15    -0.174293389335E+04   -0.49164E-04   -0.53730E-04   720   0.738E-03 0.213E-03
CGA:  16    -0.174293393341E+04   -0.40060E-04   -0.39608E-04   720   0.747E-03-0.333E-04
CGA:  17    -0.174293396331E+04   -0.29898E-04   -0.31031E-04   720   0.845E-03 0.794E-04
CGA:  18    -0.174293400367E+04   -0.40363E-04   -0.41674E-04   720   0.805E-03 0.106E-03
CGA:  19    -0.174293404699E+04   -0.43322E-04   -0.41062E-04   720   0.381E-03-0.206E-03
CGA:  20    -0.174293406232E+04   -0.15332E-04   -0.14499E-04   720   0.328E-03-0.183E-03
CGA:  21    -0.174293406511E+04   -0.27878E-05   -0.43987E-05   720   0.290E-03 0.541E-04
CGA:  22    -0.174293407231E+04   -0.71932E-05   -0.10362E-04   720   0.227E-03 0.135E-03
CGA:  23    -0.174293409307E+04   -0.20760E-04   -0.20818E-04   720   0.274E-03-0.562E-05
CGA:  24    -0.174293410689E+04   -0.13821E-04   -0.21542E-04   720   0.467E-03-0.283E-03
CGA:  25    -0.174293411255E+04   -0.56589E-05   -0.10953E-04   720   0.122E-03 0.169E-03
  22 F= -.17429341E+04 E0= -.17429102E+04  d E =-.211149E-02  mag=    46.0000
       N       E                     dE             d eps       ncg     rms          ort
SDA:   1    -0.174290221973E+04    0.31887E-01    0.00000E+00   720   0.182E+00 0.000E+00
CGA:   2    -0.174291007998E+04   -0.78602E-02   -0.78758E-02   720   0.141E+00 0.374E-02
CGA:   3    -0.174292573830E+04   -0.15658E-01   -0.15686E-01   720   0.564E-01-0.705E-03
CGA:   4    -0.174292870767E+04   -0.29694E-02   -0.29693E-02   720   0.293E-01 0.259E-03
CGA:   5    -0.174293182371E+04   -0.31160E-02   -0.30855E-02   720   0.274E-01 0.585E-03
CGA:   6    -0.174293325956E+04   -0.14358E-02   -0.14412E-02   720   0.649E-02 0.107E-02
CGA:   7    -0.174293381267E+04   -0.55312E-03   -0.58551E-03   720   0.616E-02-0.108E-02
[...]
CGA:  14    -0.174305629142E+04   -0.37746E-02   -0.37687E-02   720   0.335E-01-0.169E-02
CGA:  15    -0.174305769110E+04   -0.13997E-02   -0.13742E-02   720   0.181E-01-0.653E-03
CGA:  16    -0.174305842285E+04   -0.73175E-03   -0.72700E-03   720   0.715E-02 0.571E-03
CGA:  17    -0.174305906635E+04   -0.64350E-03   -0.63250E-03   720   0.138E-01 0.633E-03
CGA:  18    -0.174306017668E+04   -0.11103E-02   -0.11151E-02   720   0.196E-01-0.113E-02
CGA:  19    -0.174306100696E+04   -0.83028E-03   -0.82328E-03   720   0.591E-02-0.248E-03
CGA:  20    -0.174306123065E+04   -0.22369E-03   -0.23583E-03   720   0.436E-02 0.452E-03
CGA:  21    -0.174306157094E+04   -0.34029E-03   -0.33936E-03   720   0.589E-02 0.183E-03
CGA:  22    -0.174306195916E+04   -0.38822E-03   -0.38490E-03   720   0.401E-02-0.670E-03
CGA:  23    -0.174306212327E+04   -0.16411E-03   -0.14641E-03   720   0.208E-02-0.691E-03
CGA:  24    -0.174306218533E+04   -0.62062E-04   -0.71840E-04   720   0.147E-02 0.409E-03
CGA:  25    -0.174306227465E+04   -0.89319E-04   -0.95270E-04   720   0.151E-02 0.555E-03
CGA:  26    -0.174306241388E+04   -0.13923E-03   -0.14144E-03   720   0.174E-02-0.641E-03
CGA:  27    -0.174306245363E+04   -0.39748E-04   -0.39563E-04   720   0.132E-02-0.755E-05
CGA:  28    -0.174306248408E+04   -0.30451E-04   -0.39139E-04   720   0.916E-03 0.262E-03
CGA:  29    -0.174306254313E+04   -0.59046E-04   -0.58934E-04   720   0.102E-02-0.111E-04
CGA:  30    -0.174306256551E+04   -0.22385E-04   -0.12675E-03   720   0.443E-02-0.162E-02
CGA:  31    -0.174306263847E+04   -0.72961E-04   -0.10437E-03   720   0.845E-03 0.753E-03
CGA:  32    -0.174306268295E+04   -0.44479E-04   -0.47384E-04   720   0.512E-03 0.209E-03
CGA:  33    -0.174306272392E+04   -0.40972E-04   -0.41628E-04   720   0.606E-03-0.181E-03
CGA:  34    -0.174306272524E+04   -0.13195E-05   -0.66256E-05   720   0.358E-03 0.123E-03
  91 F= -.17430627E+04 E0= -.17430339E+04  d E =0.830126E-01  mag=    46.0000
       N       E                     dE             d eps       ncg     rms          ort
SDA:   1    -0.174019338516E+04    0.28693E+01    0.00000E+00   720   0.847E+01 0.000E+00
CGA:   2    -0.174178007435E+04   -0.15867E+01   -0.15080E+01   720   0.146E+02 0.687E+00
CGA:   3    -0.174234845074E+04   -0.56838E+00   -0.56752E+00   720   0.660E+01-0.308E+00
CGA:   4    -0.174266838885E+04   -0.31994E+00   -0.30240E+00   720   0.367E+01-0.109E+00
CGA:   5    -0.174287415808E+04   -0.20577E+00   -0.20633E+00   720   0.317E+01 0.709E-01
CGA:   6    -0.174301619875E+04   -0.14204E+00   -0.14966E+00   720   0.146E+01 0.900E-01
CGA:   7    -0.174307846034E+04   -0.62262E-01   -0.59170E-01   720   0.408E+00 0.129E-01
CGA:   8    -0.174310097192E+04   -0.22512E-01   -0.22394E-01   720   0.341E+00-0.524E-02
CGA:   9    -0.174311778816E+04   -0.16816E-01   -0.16824E-01   720   0.198E+00-0.232E-02
CGA:  10    -0.174312806385E+04   -0.10276E-01   -0.10291E-01   720   0.148E+00-0.174E-02
CGA:  11    -0.174313421332E+04   -0.61495E-02   -0.61650E-02   720   0.572E-01-0.112E-02
CGA:  12    -0.174313671040E+04   -0.24971E-02   -0.25103E-02   720   0.314E-01 0.179E-02
CGA:  13    -0.174313869373E+04   -0.19833E-02   -0.19798E-02   720   0.347E-01 0.754E-03
CGA:  14    -0.174314128505E+04   -0.25913E-02   -0.26662E-02   720   0.345E-01-0.434E-02
CGA:  15    -0.174314222468E+04   -0.93963E-03   -0.98054E-03   720   0.104E-01 0.174E-02
CGA:  16    -0.174314259777E+04   -0.37309E-03   -0.40638E-03   720   0.763E-02 0.182E-02
CGA:  17    -0.174314322132E+04   -0.62355E-03   -0.63349E-03   720   0.146E-01-0.688E-03
CGA:  18    -0.174314405488E+04   -0.83355E-03   -0.84636E-03   720   0.155E-01-0.179E-02
CGA:  19    -0.174314440041E+04   -0.34553E-03   -0.36132E-03   720   0.660E-02 0.637E-03
CGA:  20    -0.174314458307E+04   -0.18266E-03   -0.20068E-03   720   0.432E-02 0.783E-03
CGA:  21    -0.174314478556E+04   -0.20249E-03   -0.20284E-03   720   0.470E-02 0.117E-03
CGA:  22    -0.174314499032E+04   -0.20476E-03   -0.20208E-03   720   0.461E-02-0.231E-03
CGA:  23    -0.174314515678E+04   -0.16646E-03   -0.16497E-03   720   0.476E-02-0.997E-04
CGA:  24    -0.174314533152E+04   -0.17474E-03   -0.17351E-03   720   0.361E-02-0.955E-04
CGA:  25    -0.174314543585E+04   -0.10433E-03   -0.10497E-03   720   0.211E-02 0.888E-05
CGA:  26    -0.174314548830E+04   -0.52457E-04   -0.57763E-04   720   0.116E-02 0.242E-03
CGA:  27    -0.174314552348E+04   -0.35174E-04   -0.38686E-04   720   0.103E-02 0.183E-03
CGA:  28    -0.174314560108E+04   -0.77602E-04   -0.80892E-04   720   0.230E-02-0.163E-03
CGA:  29    -0.174314566198E+04   -0.60897E-04   -0.57164E-04   720   0.186E-02-0.185E-03
CGA:  30    -0.174314568926E+04   -0.27286E-04   -0.31519E-04   720   0.986E-03 0.145E-03
CGA:  31    -0.174314569889E+04   -0.96233E-05   -0.17824E-04   720   0.654E-03 0.277E-03
SDA:  32    -0.174314570825E+04   -0.93613E-05   -0.16263E-04   720   0.586E-03 0.271E-03
CGA:  33    -0.174314540091E+04    0.30734E-03   -0.17052E-03   720   0.176E-01-0.200E-02
CGA:  34    -0.174314577795E+04   -0.37704E-03   -0.43584E-03   720   0.669E-03 0.151E-02
CGA:  35    -0.174314580119E+04   -0.23242E-04   -0.24256E-04   720   0.236E-03 0.249E-04
CGA:  36    -0.174314581192E+04   -0.10731E-04   -0.12011E-04   720   0.978E-04 0.508E-04
CGA:  37    -0.174314582067E+04   -0.87466E-05   -0.15950E-04   720   0.486E-03-0.118E-03
CGA:  38    -0.174314582532E+04   -0.46504E-05   -0.10982E-04   720   0.718E-04 0.117E-03
  92 F= -.17431458E+04 E0= -.17431171E+04  d E =-.831001E-01  mag=    46.0000
       N       E                     dE             d eps       ncg     rms          ort
SDA:   1    -0.174313769509E+04    0.81256E-02    0.00000E+00   720   0.630E-01 0.000E+00
CGA:   2    -0.174313957867E+04   -0.18836E-02   -0.20057E-02   720   0.243E-01 0.394E-02
CGA:   3    -0.174314260518E+04   -0.30265E-02   -0.31160E-02   720   0.583E-01-0.182E-02
CGA:   4    -0.174314473159E+04   -0.21264E-02   -0.21165E-02   720   0.101E-01-0.741E-04
CGA:   5    -0.174314522853E+04   -0.49693E-03   -0.49396E-03   720   0.111E-01-0.146E-04
CGA:   6    -0.174314598286E+04   -0.75434E-03   -0.75319E-03   720   0.662E-02-0.736E-03
CGA:   7    -0.174314613230E+04   -0.14944E-03   -0.17959E-03   720   0.200E-02 0.748E-03
CGA:   8    -0.174314621332E+04   -0.81018E-04   -0.89846E-04   720   0.132E-02 0.340E-03
CGA:   9    -0.174314630671E+04   -0.93392E-04   -0.91146E-04   720   0.125E-02-0.301E-03
CGA:  10    -0.174314632667E+04   -0.19960E-04   -0.26741E-04   720   0.742E-03 0.177E-03
CGA:  11    -0.174314634439E+04   -0.17717E-04   -0.24431E-04   720   0.518E-03 0.192E-03
CGA:  12    -0.174314637988E+04   -0.35494E-04   -0.33263E-04   720   0.428E-03-0.202E-03
CGA:  13    -0.174314639598E+04   -0.16094E-04   -0.13039E-04   720   0.398E-03-0.258E-03
CGA:  14    -0.174314640029E+04   -0.43127E-05   -0.10613E-04   720   0.158E-03 0.184E-03
CGA:  15    -0.174314641167E+04   -0.11381E-04   -0.11535E-04   720   0.558E-04 0.186E-04
CGA:  16    -0.174314642564E+04   -0.13969E-04    0.20435E-05   720   0.811E-04-0.293E-06
CGA:  17    -0.174314643101E+04   -0.53670E-05   -0.54091E-05   720   0.847E-04-0.524E-05
  93 F= -.17431464E+04 E0= -.17431177E+04  d E =-.605689E-03  mag=    46.0000
       N       E                     dE             d eps       ncg     rms          ort
SDA:   1    -0.174314335282E+04    0.30728E-02    0.00000E+00   720   0.420E-01 0.000E+00
CGA:   2    -0.174314418576E+04   -0.83294E-03   -0.93267E-03   720   0.889E-02 0.291E-02
CGA:   3    -0.174314518132E+04   -0.99557E-03   -0.99508E-03   720   0.124E-01 0.242E-04
CGA:   4    -0.174314604477E+04   -0.86344E-03   -0.89007E-03   720   0.146E-01-0.216E-02
CGA:   5    -0.174314632480E+04   -0.28003E-03   -0.31544E-03   720   0.400E-02 0.110E-02
CGA:   6    -0.174314641740E+04   -0.92599E-04   -0.12017E-03   720   0.268E-02 0.898E-03
CGA:   7    -0.174314656378E+04   -0.14638E-03   -0.14642E-03   720   0.173E-02-0.136E-04
CGA:   8    -0.174314666590E+04   -0.10212E-03   -0.12182E-03   720   0.332E-02-0.132E-02
CGA:   9    -0.174314670822E+04   -0.42319E-04   -0.69064E-04   720   0.617E-03 0.736E-03
CGA:  10    -0.174314672573E+04   -0.17509E-04   -0.23580E-04   720   0.287E-03 0.264E-03
CGA:  11    -0.174314674813E+04   -0.22400E-04   -0.22907E-04   720   0.367E-03-0.217E-03
CGA:  12    -0.174314675156E+04   -0.34383E-05   -0.71099E-05   720   0.863E-04 0.106E-03
  94 F= -.17431468E+04 E0= -.17431180E+04  d E =-.320557E-03  mag=    46.0000
       N       E                     dE             d eps       ncg     rms          ort
SDA:   1    -0.174312432989E+04    0.22418E-01    0.00000E+00   720   0.461E+00 0.000E+00
CGA:   2    -0.174313369224E+04   -0.93623E-02   -0.93129E-02   720   0.373E-01 0.126E-01
CGA:   3    -0.174313896494E+04   -0.52727E-02   -0.58551E-02   720   0.108E+00-0.565E-02
CGA:   4    -0.174314311497E+04   -0.41500E-02   -0.41643E-02   720   0.523E-01 0.108E-02
CGA:   5    -0.174314473469E+04   -0.16197E-02   -0.16870E-02   720   0.128E-01 0.319E-02
CGA:   6    -0.174314534948E+04   -0.61480E-03   -0.61168E-03   720   0.112E-01-0.276E-03
CGA:   7    -0.174314605901E+04   -0.70953E-03   -0.71992E-03   720   0.105E-01-0.899E-03
CGA:   8    -0.174314636841E+04   -0.30940E-03   -0.32373E-03   720   0.277E-02 0.707E-03
CGA:   9    -0.174314644716E+04   -0.78753E-04   -0.84612E-04   720   0.124E-02 0.244E-03
CGA:  10    -0.174314653899E+04   -0.91826E-04   -0.96229E-04   720   0.146E-02-0.230E-03
CGA:  11    -0.174314658749E+04   -0.48499E-04   -0.46629E-04   720   0.107E-02-0.136E-03
CGA:  12    -0.174314662384E+04   -0.36351E-04   -0.37294E-04   720   0.674E-03 0.658E-04
CGA:  13    -0.174314664074E+04   -0.16898E-04   -0.20358E-04   720   0.344E-03 0.153E-03
CGA:  14    -0.174314665048E+04   -0.97401E-05   -0.11984E-04   720   0.140E-03 0.103E-03
  95 F= -.17431467E+04 E0= -.17431179E+04  d E =0.101088E-03  mag=    46.0000
       N       E                     dE             d eps       ncg     rms          ort
SDA:   1    -0.174308799886E+04    0.58642E-01    0.00000E+00   720   0.415E+00 0.000E+00
CGA:   2    -0.174310041048E+04   -0.12412E-01   -0.11975E-01   720   0.171E+00 0.691E-02
CGA:   3    -0.174312360367E+04   -0.23193E-01   -0.23232E-01   720   0.263E+00 0.288E-03
CGA:   4    -0.174313786923E+04   -0.14266E-01   -0.14268E-01   720   0.960E-01 0.170E-02
CGA:   5    -0.174314176062E+04   -0.38914E-02   -0.38570E-02   720   0.447E-01-0.347E-02
CGA:   6    -0.174314430243E+04   -0.25418E-02   -0.25282E-02   720   0.211E-01 0.182E-02
CGA:   7    -0.174314578942E+04   -0.14870E-02   -0.14911E-02   720   0.114E-01-0.261E-03
CGA:   8    -0.174314655010E+04   -0.76068E-03   -0.77763E-03   720   0.678E-02-0.105E-02
CGA:   9    -0.174314670536E+04   -0.15526E-03   -0.17619E-03   720   0.169E-02 0.835E-03
CGA:  10    -0.174314678400E+04   -0.78638E-04   -0.83388E-04   720   0.137E-02 0.535E-03
CGA:  11    -0.174314692306E+04   -0.13906E-03   -0.15364E-03   720   0.300E-02-0.444E-03
CGA:  12    -0.174314698627E+04   -0.63210E-04   -0.56812E-04   720   0.166E-02-0.252E-03
CGA:  13    -0.174314700937E+04   -0.23103E-04   -0.24846E-04   720   0.605E-03 0.496E-04
CGA:  14    -0.174314701952E+04   -0.10152E-04   -0.13506E-04   720   0.513E-03 0.117E-03
CGA:  15    -0.174314703358E+04   -0.14056E-04   -0.16610E-04   720   0.430E-03 0.119E-03
CGA:  16    -0.174314704971E+04   -0.16131E-04   -0.16286E-04   720   0.423E-03 0.104E-04
CGA:  17    -0.174314706641E+04   -0.16699E-04   -0.16186E-04   720   0.496E-03-0.522E-04
CGA:  18    -0.174314707720E+04   -0.10794E-04   -0.10405E-04   720   0.413E-03-0.173E-04
CGA:  19    -0.174314708798E+04   -0.10775E-04   -0.10816E-04   720   0.400E-03 0.116E-05
CGA:  20    -0.174314709790E+04   -0.99215E-05   -0.95073E-05   720   0.170E-03-0.206E-04
  96 F= -.17431471E+04 E0= -.17431183E+04  d E =-.447423E-03  mag=    46.0000
       N       E                     dE             d eps       ncg     rms          ort
SDA:   1    -0.174247744328E+04    0.66964E+00    0.00000E+00   720   0.186E+01 0.000E+00
CGA:   2    -0.174285131232E+04   -0.37387E+00   -0.35440E+00   720   0.297E+01 0.159E+00
CGA:   3    -0.174298173707E+04   -0.13042E+00   -0.12336E+00   720   0.110E+01-0.939E-01
CGA:   4    -0.174305980122E+04   -0.78064E-01   -0.77252E-01   720   0.948E+00 0.230E-01
CGA:   5    -0.174311094604E+04   -0.51145E-01   -0.51085E-01   720   0.503E+00 0.199E-01
CGA:   6    -0.174312805824E+04   -0.17112E-01   -0.17351E-01   720   0.118E+00 0.201E-02
CGA:   7    -0.174313691134E+04   -0.88531E-02   -0.90903E-02   720   0.125E+00-0.936E-02
CGA:   8    -0.174314274950E+04   -0.58382E-02   -0.58407E-02   720   0.511E-01 0.573E-02
CGA:   9    -0.174314459846E+04   -0.18490E-02   -0.18777E-02   720   0.201E-01 0.712E-03
CGA:  10    -0.174314601799E+04   -0.14195E-02   -0.14408E-02   720   0.163E-01-0.105E-02
CGA:  11    -0.174314695200E+04   -0.93401E-03   -0.93671E-03   720   0.105E-01-0.298E-03
CGA:  12    -0.174314741554E+04   -0.46354E-03   -0.46564E-03   720   0.590E-02 0.305E-03
CGA:  13    -0.174314778181E+04   -0.36627E-03   -0.36514E-03   720   0.317E-02 0.122E-03
CGA:  14    -0.174314797710E+04   -0.19529E-03   -0.20324E-03   720   0.456E-02-0.740E-03
CGA:  15    -0.174314820302E+04   -0.22592E-03   -0.22638E-03   720   0.349E-02-0.401E-04
CGA:  16    -0.174314833260E+04   -0.12958E-03   -0.13419E-03   720   0.133E-02 0.321E-03
CGA:  17    -0.174314838880E+04   -0.56199E-04   -0.56674E-04   720   0.113E-02 0.300E-04
CGA:  18    -0.174314855871E+04   -0.16991E-03   -0.22254E-03   720   0.328E-02-0.375E-03
CGA:  19    -0.174314862509E+04   -0.66380E-04   -0.56761E-04   720   0.147E-02-0.299E-03
CGA:  20    -0.174314867047E+04   -0.45383E-04   -0.44853E-04   720   0.110E-02-0.250E-04
CGA:  21    -0.174314869317E+04   -0.22698E-04   -0.27561E-04   720   0.534E-03 0.151E-03
CGA:  22    -0.174314871867E+04   -0.25498E-04   -0.25391E-04   720   0.779E-03-0.102E-04
CGA:  23    -0.174314875202E+04   -0.33347E-04   -0.73427E-04   720   0.240E-02-0.948E-03
CGA:  24    -0.174314881142E+04   -0.59403E-04   -0.72962E-04   720   0.394E-03 0.547E-03
CGA:  25    -0.174314882397E+04   -0.12547E-04   -0.16278E-04   720   0.151E-03 0.181E-03
CGA:  26    -0.174314882422E+04   -0.25153E-06   -0.30375E-04   720   0.848E-03-0.354E-03
CGA:  27    -0.174314884152E+04   -0.17307E-04   -0.25574E-04   720   0.199E-03 0.299E-03
CGA:  28    -0.174314885566E+04   -0.14134E-04   -0.14120E-04   720   0.639E-04-0.359E-05
CGA:  29    -0.174314886803E+04   -0.12370E-04    0.23368E-05   720   0.696E-04-0.137E-04
CGA:  30    -0.174314887615E+04   -0.81208E-05    0.48019E-05   720   0.874E-04 0.390E-04
  97 F= -.17431489E+04 E0= -.17431199E+04  d E =-.177825E-02  mag=    46.0000
       N       E                     dE             d eps       ncg     rms          ort
SDA:   1    -0.174305688769E+04    0.91980E-01    0.00000E+00   720   0.444E+00 0.000E+00
CGA:   2    -0.174307587015E+04   -0.18982E-01   -0.18906E-01   720   0.369E+00-0.153E-02
CGA:   3    -0.174311177353E+04   -0.35903E-01   -0.36412E-01   720   0.525E+00-0.118E-01
CGA:   4    -0.174313210723E+04   -0.20334E-01   -0.20553E-01   720   0.100E+00 0.173E-01
CGA:   5    -0.174313935063E+04   -0.72434E-02   -0.72894E-02   720   0.774E-01-0.240E-02
CGA:   6    -0.174314472113E+04   -0.53705E-02   -0.53913E-02   720   0.499E-01-0.140E-02
CGA:   7    -0.174314685409E+04   -0.21330E-02   -0.21480E-02   720   0.155E-01 0.106E-02
CGA:   8    -0.174314750097E+04   -0.64688E-03   -0.65069E-03   720   0.677E-02 0.259E-03
CGA:   9    -0.174314817039E+04   -0.66942E-03   -0.66856E-03   720   0.575E-02 0.279E-04
CGA:  10    -0.174314847708E+04   -0.30669E-03   -0.30045E-03   720   0.488E-02-0.118E-02
CGA:  11    -0.174314860950E+04   -0.13242E-03   -0.14712E-03   720   0.174E-02 0.779E-03
CGA:  12    -0.174314867012E+04   -0.60621E-04   -0.65711E-04   720   0.777E-03 0.205E-03
CGA:  13    -0.174314855941E+04    0.11072E-03   -0.16863E-03   720   0.156E-01-0.201E-02
CGA:  14    -0.174314880378E+04   -0.24437E-03   -0.31017E-03   720   0.114E-02 0.167E-02
CGA:  15    -0.174314885111E+04   -0.47328E-04   -0.46353E-04   720   0.376E-03-0.396E-04
CGA:  16    -0.174314889433E+04   -0.43222E-04    0.65595E-03   720   0.426E-03-0.106E-03
CGA:  17    -0.174314889723E+04   -0.29023E-05   -0.72022E-05   720   0.258E-03 0.122E-03
  98 F= -.17431489E+04 E0= -.17431199E+04  d E =-.210833E-04  mag=    46.0000
       N       E                     dE             d eps       ncg     rms          ort
SDA:   1    -0.174302820253E+04    0.12069E+00    0.00000E+00   720   0.394E+00 0.000E+00
CGA:   2    -0.174306975419E+04   -0.41552E-01   -0.41249E-01   720   0.676E+00 0.574E-02
CGA:   3    -0.174311105369E+04   -0.41300E-01   -0.41326E-01   720   0.404E+00-0.659E-02
CGA:   4    -0.174312929519E+04   -0.18241E-01   -0.18272E-01   720   0.161E+00-0.110E-03
CGA:   5    -0.174313944010E+04   -0.10145E-01   -0.10129E-01   720   0.863E-01 0.271E-02
CGA:   6    -0.174314571432E+04   -0.62742E-02   -0.62733E-02   720   0.548E-01-0.513E-03
CGA:   7    -0.174314755233E+04   -0.18380E-02   -0.18529E-02   720   0.159E-01 0.134E-02
CGA:   8    -0.174314883457E+04   -0.12822E-02   -0.13223E-02   720   0.100E-01-0.176E-02
CGA:   9    -0.174314917466E+04   -0.34009E-03   -0.37156E-03   720   0.438E-02 0.193E-02
CGA:  10    -0.174314955450E+04   -0.37983E-03   -0.38070E-03   720   0.414E-02-0.252E-04
CGA:  11    -0.174314973236E+04   -0.17786E-03   -0.17217E-03   720   0.159E-02-0.366E-03
CGA:  12    -0.174314984020E+04   -0.10784E-03   -0.10733E-03   720   0.120E-02 0.361E-04
CGA:  13    -0.174314988471E+04   -0.44513E-04   -0.49241E-04   720   0.506E-03 0.265E-03
CGA:  14    -0.174314992187E+04   -0.37155E-04   -0.37030E-04   720   0.451E-03 0.423E-04
CGA:  15    -0.174314975008E+04    0.17179E-03   -0.12347E-03   720   0.950E-02-0.151E-02
CGA:  16    -0.174314993624E+04   -0.18616E-03   -0.23716E-03   720   0.905E-03 0.125E-02
CGA:  17    -0.174314996977E+04   -0.33536E-04   -0.35700E-04   720   0.300E-03 0.813E-04
CGA:  18    -0.174314999277E+04   -0.23000E-04   -0.23216E-04   720   0.342E-03-0.281E-04
CGA:  19    -0.174315002239E+04   -0.29616E-04   -0.37511E-04   720   0.384E-03-0.137E-03
CGA:  20    -0.174315002237E+04    0.15076E-07   -0.32321E-05   720   0.169E-03 0.615E-04
  99 F= -.17431500E+04 E0= -.17431211E+04  d E =-.112514E-02  mag=    46.0000
       N       E                     dE             d eps       ncg     rms          ort
SDA:   1    -0.174313205912E+04    0.17963E-01    0.00000E+00   720   0.881E-01 0.000E+00
CGA:   2    -0.174313946826E+04   -0.74091E-02   -0.76018E-02   720   0.119E+00-0.764E-02
CGA:   3    -0.174314343980E+04   -0.39715E-02   -0.40710E-02   720   0.404E-01 0.403E-02
CGA:   4    -0.174314561772E+04   -0.21779E-02   -0.21930E-02   720   0.290E-01 0.700E-03
CGA:   5    -0.174314821126E+04   -0.25935E-02   -0.26485E-02   720   0.281E-01-0.200E-02
CGA:   6    -0.174314911634E+04   -0.90508E-03   -0.95056E-03   720   0.138E-01 0.173E-02
CGA:   7    -0.174314984216E+04   -0.72582E-03   -0.72051E-03   720   0.453E-02-0.426E-03
CGA:   8    -0.174315010056E+04   -0.25840E-03   -0.25794E-03   720   0.281E-02-0.238E-03
CGA:   9    -0.174315014433E+04   -0.43774E-04   -0.65830E-04   720   0.961E-03 0.612E-03
CGA:  10    -0.174315019151E+04   -0.47178E-04   -0.52307E-04   720   0.109E-02 0.367E-03
CGA:  11    -0.174315027597E+04   -0.84463E-04   -0.83457E-04   720   0.593E-03-0.395E-03
CGA:  12    -0.174315028400E+04   -0.80268E-05   -0.11461E-04   720   0.347E-03 0.124E-03
CGA:  13    -0.174315029560E+04   -0.11599E-04   -0.14490E-04   720   0.246E-03 0.133E-03
CGA:  14    -0.174315031364E+04   -0.18044E-04   -0.17819E-04   720   0.155E-03-0.759E-04
CGA:  15    -0.174315031222E+04    0.14205E-05   -0.15223E-05   720   0.121E-03 0.717E-04
 100 F= -.17431503E+04 E0= -.17431213E+04  d E =-.289850E-03  mag=    46.0000
