       N       E                     dE             d eps       ncg     rms          ort
DAV:   1     0.267236736280E+04    0.26724E+04   -0.14754E+05  6336   0.155E+03
DAV:   2    -0.222297468644E+03   -0.28947E+04   -0.27811E+04  6336   0.433E+02
DAV:   3    -0.504279560278E+03   -0.28198E+03   -0.27587E+03  6336   0.149E+02
DAV:   4    -0.518986110126E+03   -0.14707E+02   -0.14464E+02  6336   0.365E+01
DAV:   5    -0.520164889314E+03   -0.11788E+01   -0.11705E+01  6336   0.682E+00
SDA:   6    -0.347448800314E+03    0.17272E+03   -0.11705E+01  6336   0.537E+03 0.000E+00
CGA:   7    -0.401235844180E+03   -0.53787E+02   -0.60299E+02  6336   0.284E+03 0.651E+01
CGA:   8    -0.400492007273E+03    0.74384E+00   -0.18005E+02  6336   0.209E+03-0.335E+02
CGA:   9    -0.403339535651E+03   -0.28475E+01   -0.63097E+01  6336   0.494E+03 0.436E+02
CGA:  10    -0.387739480985E+03    0.15600E+02   -0.31491E+02  6336   0.199E+03-0.211E+03
CGA:  11    -0.399003794520E+03   -0.11264E+02   -0.28516E+01  6336   0.445E+03 0.557E+03
CGA:  12    -0.403574999966E+03   -0.45712E+01   -0.24067E+02  6336   0.108E+03-0.218E+02
CGA:  13    -0.407041752289E+03   -0.34668E+01   -0.65446E+01  6336   0.300E+03-0.184E+03
CGA:  14    -0.409260682307E+03   -0.22189E+01   -0.14919E+02  6336   0.117E+03-0.103E+03
CGA:  15    -0.413736882571E+03   -0.44762E+01   -0.42121E+01  6336   0.153E+03-0.171E+03
CGA:  16    -0.408184693438E+03    0.55522E+01   -0.86728E+01  6336   0.686E+02-0.457E+02
CGA:  17    -0.414709882240E+03   -0.65252E+01   -0.20502E+01  6336   0.382E+03-0.414E+03
CGA:  18    -0.407464562790E+03    0.72453E+01   -0.23311E+02  6336   0.662E+02-0.373E+02
CGA:  19    -0.414431175794E+03   -0.69666E+01   -0.24934E+01  6336   0.229E+03 0.147E+02
CGA:  20    -0.398866222166E+03    0.15565E+02   -0.98072E+01  6336   0.125E+03-0.168E+03
CGA:  21    -0.413661747154E+03   -0.14796E+02   -0.38530E+01  6336   0.177E+03 0.305E+03
CGA:  22    -0.419297055707E+03   -0.56353E+01   -0.92793E+01  6336   0.545E+02-0.103E+03
CGA:  23    -0.421329090877E+03   -0.20320E+01   -0.18627E+01  6336   0.309E+01 0.101E+02
CGA:  24    -0.421513661739E+03   -0.18457E+00   -0.12545E+00  6336   0.116E+01 0.131E+01
CGA:  25    -0.421638214378E+03   -0.12455E+00   -0.10694E+00  6336   0.275E+01 0.875E-01
CGA:  26    -0.421682513157E+03   -0.44299E-01   -0.26704E-01  6336   0.308E+01 0.173E+01
CGA:  27    -0.421826523172E+03   -0.14401E+00   -0.15225E+00  6336   0.882E+00-0.583E-01
CGA:  28    -0.422244661346E+03   -0.41814E+00   -0.38602E+00  6336   0.218E+01 0.202E+00
CGA:  29    -0.422393709746E+03   -0.14905E+00   -0.99786E-01  6336   0.990E+00 0.715E+00
CGA:  30    -0.422480736229E+03   -0.87026E-01   -0.63377E-01  6336   0.146E+01 0.383E+00
CGA:  31    -0.422551488827E+03   -0.70753E-01   -0.52240E-01  6336   0.167E+01 0.341E+00
CGA:  32    -0.422588079591E+03   -0.36591E-01   -0.70150E-01  6336   0.232E+01-0.762E+00
CGA:  33    -0.422617746446E+03   -0.29667E-01   -0.32081E-01  6336   0.188E+01-0.258E-01
CGA:  34    -0.422679701083E+03   -0.61955E-01   -0.71596E-01  6336   0.941E+00-0.134E+00
CGA:  35    -0.422717098024E+03   -0.37397E-01   -0.40256E-01  6336   0.398E+00-0.307E-01
CGA:  36    -0.422741561399E+03   -0.24463E-01   -0.25282E-01  6336   0.255E+00-0.164E-01
CGA:  37    -0.422780325011E+03   -0.38764E-01   -0.38389E-01  6336   0.321E+00 0.287E-02
CGA:  38    -0.422826151527E+03   -0.45827E-01   -0.50600E-01  6336   0.221E+00-0.729E-01
CGA:  39    -0.422843163718E+03   -0.17012E-01   -0.17095E-01  6336   0.174E+00-0.202E-01
CGA:  40    -0.422867424235E+03   -0.24261E-01   -0.24558E-01  6336   0.132E+00-0.564E-02
CGA:  41    -0.422888604273E+03   -0.21180E-01   -0.23715E-01  6336   0.757E-01-0.270E-01
CGA:  42    -0.422896374092E+03   -0.77698E-02   -0.80312E-02  6336   0.580E-01-0.997E-02
CGA:  43    -0.422904639457E+03   -0.82654E-02   -0.80169E-02  6336   0.379E-01 0.655E-02
CGA:  44    -0.422913141073E+03   -0.85016E-02   -0.82242E-02  6336   0.187E-01 0.458E-02
CGA:  45    -0.422918140470E+03   -0.49994E-02   -0.46361E-02  6336   0.105E-01 0.437E-02
CGA:  46    -0.422919900479E+03   -0.17600E-02   -0.17052E-02  6336   0.909E-02 0.492E-02
CGA:  47    -0.422922157468E+03   -0.22570E-02   -0.22256E-02  6336   0.482E-02 0.108E-02
CGA:  48    -0.422922521574E+03   -0.36411E-03   -0.45290E-03  6336   0.309E-02 0.274E-02
CGA:  49    -0.422923265213E+03   -0.74364E-03    0.25665E-01  6336   0.204E-02 0.170E-02
CGA:  50    -0.422923337859E+03   -0.72646E-04   -0.13373E-03  6336   0.140E-02 0.118E-02
CGA:  51    -0.422923736278E+03   -0.39842E-03    0.37879E-03  6336   0.131E-02 0.968E-03
CGA:  52    -0.422923769958E+03   -0.33680E-04   -0.80763E-04  6336   0.992E-03 0.878E-03
CGA:  53    -0.422924044428E+03   -0.27447E-03    0.26499E-03  6336   0.932E-03 0.814E-03
CGA:  54    -0.422924092906E+03   -0.48478E-04   -0.73291E-04  6336   0.836E-03 0.713E-03
CGA:  55    -0.422924338168E+03   -0.24526E-03    0.15249E-03  6336   0.850E-03 0.630E-03
CGA:  56    -0.422924350754E+03   -0.12586E-04   -0.47745E-04  6336   0.685E-03 0.638E-03
CGA:  57    -0.422924523479E+03   -0.17273E-03    0.24561E-03  6336   0.646E-03 0.620E-03
CGA:  58    -0.422924585170E+03   -0.61691E-04   -0.65800E-04  6336   0.628E-03 0.553E-03
CGA:  59    -0.422924772231E+03   -0.18706E-03    0.93635E-04  6336   0.656E-03 0.474E-03
CGA:  60    -0.422924772893E+03   -0.66163E-06   -0.31536E-04  6336   0.525E-03 0.513E-03
CGA:  61    -0.422924885129E+03   -0.11224E-03    0.30301E-02  6336   0.493E-03 0.500E-03
CGA:  62    -0.422924996825E+03   -0.11170E-03   -0.83463E-04  6336   0.476E-03 0.451E-03
CGA:  63    -0.422925139211E+03   -0.14239E-03    0.70343E-04  6336   0.499E-03 0.380E-03
CGA:  64    -0.422925136313E+03    0.28979E-05   -0.22831E-04  6336   0.413E-03 0.409E-03
CGA:  65    -0.422925614372E+03   -0.47806E-03   -0.78002E-03  6336   0.396E-03 0.330E-03
CGA:  66    -0.422925595577E+03    0.18795E-04   -0.20634E-04  6336   0.308E-03 0.284E-03
CGA:  67    -0.422925724317E+03   -0.12874E-03    0.23536E-03  6336   0.348E-03 0.278E-03
CGA:  68    -0.422925710346E+03    0.13971E-04   -0.19943E-04  6336   0.294E-03 0.266E-03
CGA:  69    -0.422925839171E+03   -0.12883E-03    0.12021E-03  6336   0.358E-03 0.254E-03
CGA:  70    -0.422925821608E+03    0.17564E-04   -0.16898E-04  6336   0.274E-03 0.263E-03
CGA:  71    -0.422925916916E+03   -0.95308E-04    0.43874E-02  6336   0.275E-03 0.263E-03
CGA:  72    -0.422925924886E+03   -0.79705E-05   -0.26612E-04  6336   0.280E-03 0.244E-03
CGA:  73    -0.422926065090E+03   -0.14020E-03    0.49283E-04  6336   0.442E-03 0.191E-03
CGA:  74    -0.422926041270E+03    0.23820E-04   -0.14726E-04  6336   0.258E-03 0.290E-03
CGA:  75    -0.422926053974E+03   -0.12704E-04   -0.26596E-04  6336   0.263E-03 0.235E-03
CGA:  76    -0.422926179195E+03   -0.12522E-03    0.42742E-04  6336   0.379E-03 0.191E-03
CGA:  77    -0.422926159025E+03    0.20170E-04   -0.12763E-04  6336   0.243E-03 0.266E-03
CGA:  78    -0.422926176432E+03   -0.17407E-04   -0.26942E-04  6336   0.248E-03 0.226E-03
CGA:  79    -0.422926288682E+03   -0.11225E-03    0.37981E-04  6336   0.331E-03 0.190E-03
CGA:  80    -0.422926271649E+03    0.17034E-04   -0.11365E-04  6336   0.230E-03 0.246E-03
CGA:  81    -0.422926294762E+03   -0.23113E-04   -0.28096E-04  6336   0.235E-03 0.217E-03
CGA:  82    -0.422926395960E+03   -0.10120E-03    0.34331E-04  6336   0.295E-03 0.187E-03
CGA:  83    -0.422926381582E+03    0.14378E-04   -0.10363E-04  6336   0.218E-03 0.229E-03
CGA:  84    -0.422926411412E+03   -0.29830E-04   -0.30011E-04  6336   0.222E-03 0.209E-03
CGA:  85    -0.422926502601E+03   -0.91189E-04    0.32036E-04  6336   0.265E-03 0.184E-03
CGA:  86    -0.422926490551E+03    0.12050E-04   -0.96578E-05  6336   0.206E-03 0.214E-03
CGA:  87    -0.422926530586E+03   -0.40035E-04   -0.33906E-04  6336   0.209E-03 0.200E-03
CGA:  88    -0.422926612862E+03   -0.82276E-04    0.30947E-04  6336   0.239E-03 0.180E-03
CGA:  89    -0.422926602920E+03    0.99419E-05   -0.92108E-05  6336   0.196E-03 0.199E-03
CGA:  90    -0.422926663285E+03   -0.60366E-04   -0.43123E-04  6336   0.194E-03 0.191E-03
CGA:  91    -0.422926734654E+03   -0.71369E-04    0.36014E-04  6336   0.210E-03 0.176E-03
CGA:  92    -0.422926727850E+03    0.68042E-05   -0.95199E-05  6336   0.184E-03 0.183E-03
CGA:  93    -0.422927012777E+03   -0.28493E-03   -0.17989E-02  6336   0.222E-03 0.170E-03
CGA:  94    -0.422926993325E+03    0.19452E-04   -0.10251E-04  6336   0.163E-03 0.157E-03
CGA:  95    -0.422927072078E+03   -0.78753E-04    0.32638E-03  6336   0.170E-03 0.158E-03
CGA:  96    -0.422927066160E+03    0.59187E-05   -0.14609E-04  6336   0.169E-03 0.145E-03
CGA:  97    -0.422927192558E+03   -0.12640E-03    0.26982E-04  6336   0.376E-03 0.101E-03
CGA:  98    -0.422927164269E+03    0.28289E-04   -0.11388E-04  6336   0.170E-03 0.216E-03
CGA:  99    -0.422927154140E+03    0.10129E-04   -0.10781E-04  6336   0.155E-03 0.142E-03
CGA: 100    -0.422927246636E+03   -0.92496E-04    0.34286E-04  6336   0.214E-03 0.131E-03
CGA: 101    -0.422927228763E+03    0.17873E-04   -0.78368E-05  6336   0.147E-03 0.156E-03
CGA: 102    -0.422927252712E+03   -0.23949E-04   -0.26341E-04  6336   0.156E-03 0.141E-03
CGA: 103    -0.422927362194E+03   -0.10948E-03    0.18911E-04  6336   0.302E-03 0.965E-04
CGA: 104    -0.422927339183E+03    0.23011E-04   -0.85434E-05  6336   0.158E-03 0.194E-03
CGA: 105    -0.422927329811E+03    0.93720E-05   -0.84532E-05  6336   0.140E-03 0.135E-03
CGA: 106    -0.422927391362E+03   -0.61551E-04    0.56739E-04  6336   0.149E-03 0.133E-03
CGA: 107    -0.422927384363E+03    0.69985E-05   -0.87749E-05  6336   0.137E-03 0.131E-03
CGA: 108    -0.422927447321E+03   -0.62957E-04    0.37171E-04  6336   0.151E-03 0.128E-03
CGA: 109    -0.422927438375E+03    0.89456E-05   -0.73070E-05  6336   0.132E-03 0.130E-03
CGA: 110    -0.422927485463E+03   -0.47088E-04    0.18275E-03  6336   0.133E-03 0.130E-03
CGA: 111    -0.422927490167E+03   -0.47038E-05   -0.13231E-04  6336   0.134E-03 0.125E-03
CGA: 112    -0.422927562113E+03   -0.71946E-04    0.17329E-04  6336   0.170E-03 0.113E-03
CGA: 113    -0.422927549601E+03    0.12511E-04   -0.54767E-05  6336   0.129E-03 0.137E-03
CGA: 114    -0.422927554689E+03   -0.50879E-05   -0.12512E-04  6336   0.130E-03 0.122E-03
CGA: 115    -0.422927618368E+03   -0.63678E-04    0.16958E-04  6336   0.153E-03 0.113E-03
CGA: 116    -0.422927608176E+03    0.10191E-04   -0.52573E-05  6336   0.124E-03 0.129E-03
CGA: 117    -0.422927621203E+03   -0.13027E-04   -0.15705E-04  6336   0.126E-03 0.120E-03
CGA: 118    -0.422927681407E+03   -0.60204E-04    0.15055E-04  6336   0.146E-03 0.111E-03
CGA: 119    -0.422927672164E+03    0.92428E-05   -0.49612E-05  6336   0.121E-03 0.126E-03
CGA: 120    -0.422927684001E+03   -0.11837E-04   -0.14469E-04  6336   0.123E-03 0.118E-03
CGA: 121    -0.422927738423E+03   -0.54422E-04    0.14861E-04  6336   0.136E-03 0.110E-03
CGA: 122    -0.422927730802E+03    0.76212E-05   -0.49255E-05  6336   0.118E-03 0.120E-03
CGA: 123    -0.422927751481E+03   -0.20679E-04   -0.18330E-04  6336   0.119E-03 0.115E-03
CGA: 124    -0.422927802162E+03   -0.50681E-04    0.14484E-04  6336   0.130E-03 0.108E-03
CGA: 125    -0.422927795548E+03    0.66145E-05   -0.48739E-05  6336   0.115E-03 0.116E-03
CGA: 126    -0.422927823338E+03   -0.27790E-04   -0.21466E-04  6336   0.115E-03 0.113E-03
CGA: 127    -0.422927870315E+03   -0.46977E-04    0.15021E-04  6336   0.124E-03 0.107E-03
CGA: 128    -0.422927864744E+03    0.55712E-05   -0.49734E-05  6336   0.112E-03 0.112E-03
CGA: 129    -0.422927913848E+03   -0.49104E-04   -0.31825E-04  6336   0.111E-03 0.110E-03
CGA: 130    -0.422927954335E+03   -0.40488E-04    0.22789E-04  6336   0.114E-03 0.106E-03
CGA: 131    -0.422927951647E+03    0.26881E-05   -0.61842E-05  6336   0.108E-03 0.107E-03
CGA: 132    -0.422927985152E+03   -0.33505E-04    0.45330E-04  6336   0.109E-03 0.107E-03
CGA: 133    -0.422927988910E+03   -0.37583E-05   -0.90464E-05  6336   0.108E-03 0.105E-03
CGA: 134    -0.422928030119E+03   -0.41208E-04    0.15579E-04  6336   0.113E-03 0.103E-03
CGA: 135    -0.422928026281E+03    0.38380E-05   -0.51357E-05  6336   0.106E-03 0.105E-03
CGA: 136    -0.422928190196E+03   -0.16392E-03   -0.85219E-02  6336   0.112E-03 0.102E-03
CGA: 137    -0.422928180987E+03    0.92097E-05   -0.68935E-05  6336   0.103E-03 0.957E-04
CGA: 138    -0.422928251424E+03   -0.70437E-04    0.20930E-04  6336   0.139E-03 0.905E-04
CGA: 139    -0.422928236826E+03    0.14598E-04   -0.49384E-05  6336   0.100E-03 0.106E-03
CGA: 140    -0.422928247604E+03   -0.10778E-04   -0.15940E-04  6336   0.106E-03 0.958E-04
CGA: 141    -0.422928338736E+03   -0.91132E-04    0.10770E-04  6336   0.221E-03 0.664E-04
CGA: 142    -0.422928318436E+03    0.20300E-04   -0.57962E-05  6336   0.116E-03 0.145E-03
CGA: 143    -0.422928308084E+03    0.10352E-04   -0.49478E-05  6336   0.971E-04 0.971E-04
CGA: 144    -0.422928455234E+03   -0.14715E-03   -0.82890E-04  6336   0.934E-04 0.951E-04
CGA: 145    -0.422928511776E+03   -0.56542E-04   -0.38887E-04  6336   0.978E-04 0.918E-04
CGA: 146    -0.422928603636E+03   -0.91861E-04    0.11605E-04  6336   0.216E-03 0.638E-04
CGA: 147    -0.422928582055E+03    0.21581E-04   -0.59078E-05  6336   0.107E-03 0.136E-03
CGA: 148    -0.422928571394E+03    0.10661E-04   -0.50695E-05  6336   0.909E-04 0.889E-04
CGA: 149    -0.422928616505E+03   -0.45112E-04    0.66525E-04  6336   0.935E-04 0.894E-04
CGA: 150    -0.422928613920E+03    0.25860E-05   -0.83322E-05  6336   0.939E-04 0.858E-04
CGA: 151    -0.422928688839E+03   -0.74920E-04    0.10959E-04  6336   0.155E-03 0.724E-04
CGA: 152    -0.422928673028E+03    0.15811E-04   -0.43174E-05  6336   0.969E-04 0.112E-03
CGA: 153    -0.422928666211E+03    0.68164E-05   -0.55340E-05  6336   0.897E-04 0.861E-04
CGA: 154    -0.422928715625E+03   -0.49414E-04    0.20503E-04  6336   0.999E-04 0.851E-04
CGA: 155    -0.422928707485E+03    0.81403E-05   -0.46358E-05  6336   0.881E-04 0.870E-04
CGA: 156    -0.422928742867E+03   -0.35383E-04    0.10473E-03  6336   0.885E-04 0.874E-04
CGA: 157    -0.422928749724E+03   -0.68571E-05   -0.11580E-04  6336   0.918E-04 0.850E-04
   1 F= -.42292875E+03 E0= -.42292650E+03  d E =-.422929E+03  mag=    10.0000
       N       E                     dE             d eps       ncg     rms          ort
SDA:   1    -0.422925842648E+03    0.29002E-02    0.00000E+00  6336   0.443E-01 0.000E+00
CGA:   2    -0.422928421203E+03   -0.25786E-02   -0.24887E-02  6336   0.922E-02-0.152E-01
CGA:   3    -0.422928690559E+03   -0.26936E-03   -0.42465E-03  6336   0.995E-03 0.172E-02
CGA:   4    -0.422928799640E+03   -0.10908E-03   -0.13732E-03  6336   0.121E-02 0.514E-03
CGA:   5    -0.422927086596E+03    0.17130E-02   -0.62026E-03  6336   0.723E-01-0.645E-02
CGA:   6    -0.422929210533E+03   -0.21239E-02   -0.19718E-02  6336   0.112E-01 0.297E-01
CGA:   7    -0.422929343890E+03   -0.13336E-03   -0.33388E-03  6336   0.105E-02 0.479E-02
CGA:   8    -0.422929299965E+03    0.43925E-04   -0.28435E-04  6336   0.198E-03 0.564E-03
CGA:   9    -0.422929285270E+03    0.14695E-04   -0.45929E-05  6336   0.113E-03 0.140E-03
CGA:  10    -0.422929277795E+03    0.74744E-05   -0.39310E-05  6336   0.897E-04 0.946E-04
CGA:  11    -0.422929297539E+03   -0.19743E-04   -0.16775E-04  6336   0.832E-04 0.794E-04
CGA:  12    -0.422929351832E+03   -0.54293E-04    0.54750E-05  6336   0.112E-03 0.628E-04
CGA:  13    -0.422929342653E+03    0.91784E-05   -0.25802E-05  6336   0.826E-04 0.919E-04
   2 F= -.42292934E+03 E0= -.42292708E+03  d E =-.592929E-03  mag=    10.0000
       N       E                     dE             d eps       ncg     rms          ort
SDA:   1    -0.422929431414E+03   -0.79582E-04    0.00000E+00  6336   0.347E-03 0.000E+00
CGA:   2    -0.422929533736E+03   -0.10232E-03   -0.93735E-04  6336   0.242E-03 0.661E-04
CGA:   3    -0.422929658235E+03   -0.12450E-03    0.44129E-04  6336   0.279E-03 0.789E-04
CGA:   4    -0.422929651049E+03    0.71861E-05   -0.17316E-04  6336   0.114E-03 0.247E-03
   3 F= -.42292965E+03 E0= -.42292739E+03  d E =-.308396E-03  mag=    10.0000
       N       E                     dE             d eps       ncg     rms          ort
SDA:   1    -0.422929471803E+03    0.18643E-03    0.00000E+00  6336   0.191E-02 0.000E+00
CGA:   2    -0.422929663549E+03   -0.19175E-03   -0.30916E-03  6336   0.141E-01-0.460E-02
CGA:   3    -0.422929871457E+03   -0.20791E-03   -0.43188E-03  6336   0.109E-02 0.389E-02
CGA:   4    -0.422929834886E+03    0.36571E-04   -0.26651E-04  6336   0.253E-03 0.612E-03
CGA:   5    -0.422929820767E+03    0.14119E-04   -0.49349E-05  6336   0.142E-03 0.181E-03
CGA:   6    -0.422929812853E+03    0.79142E-05   -0.33832E-05  6336   0.106E-03 0.117E-03
   4 F= -.42292981E+03 E0= -.42292754E+03  d E =-.161804E-03  mag=    10.0000
       N       E                     dE             d eps       ncg     rms          ort
SDA:   1    -0.422930015334E+03   -0.19457E-03    0.00000E+00  6336   0.515E-03 0.000E+00
CGA:   2    -0.422929994715E+03    0.20619E-04   -0.94801E-05  6336   0.223E-03 0.327E-03
CGA:   3    -0.422929983130E+03    0.11585E-04   -0.37975E-05  6336   0.140E-03 0.171E-03
CGA:   4    -0.422929975936E+03    0.71945E-05   -0.27240E-05  6336   0.107E-03 0.119E-03
   5 F= -.42292998E+03 E0= -.42292771E+03  d E =-.163083E-03  mag=    10.0000
