   16   16  199    2
  0.1155941E+02  0.4460000E-09  0.6814809E-09  0.6814809E-09  0.5000000E-15
  1.000000000000000E-004
  CAR 
 unknown system                          
    188    101    144
 
  0.0000000E+00  0.0000000E+00  0.0000000E+00  0.5000000E-02
    1      -48.794637    -43.750387   1.000000   1.000000
    2      -48.782097    -43.729352   1.000000   1.000000
    3      -48.774411    -43.719732   1.000000   1.000000
    4      -48.771038    -43.717556   1.000000   1.000000
    5      -48.752181    -43.704813   1.000000   1.000000
    6      -48.732153    -43.683925   1.000000   1.000000
    7      -48.724671    -43.678308   1.000000   1.000000
    8      -48.711876    -43.674033   1.000000   1.000000
    9      -48.568529    -43.668978   1.000000   1.000000
   10      -48.537021    -43.653575   1.000000   1.000000
   11      -48.532843    -43.651100   1.000000   1.000000
   12      -48.481991    -43.645688   1.000000   1.000000
   13      -48.457773    -43.639442   1.000000   1.000000
   14      -48.440491    -43.625948   1.000000   1.000000
   15      -48.433729    -43.621560   1.000000   1.000000
   16      -48.428912    -43.612311   1.000000   1.000000
   17      -48.427747    -43.609821   1.000000   1.000000
   18      -48.416411    -43.602728   1.000000   1.000000
   19      -48.413178    -43.581903   1.000000   1.000000
   20      -48.401942    -43.576266   1.000000   1.000000
   21      -48.388279    -43.568812   1.000000   1.000000
   22      -48.377043    -43.563430   1.000000   1.000000
   23      -48.345539    -43.550233   1.000000   1.000000
   24      -48.339578    -43.548609   1.000000   1.000000
   25      -48.324011    -43.535219   1.000000   1.000000
   26      -48.304021    -43.525126   1.000000   1.000000
   27      -48.275544    -43.516289   1.000000   1.000000
   28      -48.265157    -43.511642   1.000000   1.000000
   29      -48.201398    -43.506038   1.000000   1.000000
   30      -48.193838    -43.499440   1.000000   1.000000
   31      -48.173656    -43.487949   1.000000   1.000000
   32      -48.159886    -43.469851   1.000000   1.000000
   33      -48.141301    -43.448723   1.000000   1.000000
   34      -48.120477    -43.446279   1.000000   1.000000
   35      -48.112665    -43.433050   1.000000   1.000000
   36      -48.056501    -43.421764   1.000000   1.000000
   37       -4.191806     -4.129507   1.000000   1.000000
   38       -2.845520     -2.558108   1.000000   1.000000
   39       -2.836037     -2.547844   1.000000   1.000000
   40       -2.539753     -2.022103   1.000000   1.000000
   41        1.822286      2.141229   1.000000   1.000000
   42        2.046521      2.522775   1.000000   1.000000
   43        2.273470      3.620647   1.000000   1.000000
   44        2.288038      3.660116   1.000000   1.000000
   45        2.711624      4.394337   1.000000   1.000000
   46        2.755017      4.411902   1.000000   1.000000
   47        2.769140      4.504572   1.000000   1.000000
   48        3.085409      4.842755   1.000000   1.000000
   49        3.100540      5.293614   1.000000   1.000000
   50        3.113981      5.356361   1.000000   1.000000
   51        3.226056      5.499167   1.000000   1.000000
   52        3.369838      5.503154   1.000000   1.000000
   53        3.381186      5.660146   1.000000   1.000000
   54        3.418118      7.032806   1.000000   1.000000
   55        3.435097      7.050261   1.000000   1.000000
   56        3.487218      7.372756   1.000000   1.000000
   57        3.550229      7.448858   1.000000   1.000000
   58        3.655764      7.629036   1.000000   1.000000
   59        3.661074      7.654062   1.000000   1.000000
   60        3.757527      7.874848   1.000000   1.000000
   61        3.843967      7.891761   1.000000   1.000000
   62        3.892930      8.037586   1.000000   1.000000
   63        3.905304      8.171786   1.000000   1.000000
   64        3.906638      8.179467   1.000000   1.000000
   65        3.981606      8.241680   1.000000   1.000000
   66        4.054276      8.297024   1.000000   1.000000
   67        4.211433      8.400553   1.000000   1.000000
   68        4.231441      8.428662   1.000000   1.000000
   69        4.241506      8.436948   1.000000   1.000000
   70        4.333178      8.528570   1.000000   1.000000
   71        4.366063      8.912579   1.000000   1.000000
   72        4.382890      8.999819   1.000000   1.000000
   73        4.390284      9.064815   1.000000   1.000000
   74        4.500101      9.477564   1.000000   1.000000
   75        4.526015      9.601126   1.000000   0.994748
   76        4.530021      9.880935   1.000000   0.000000
   77        4.544893      9.969992   1.000000   0.000000
   78        4.614755      9.995136   1.000000   0.000000
   79        4.655907     10.062858   1.000000   0.000000
   80        4.692706     10.404581   1.000000   0.000000
   81        4.696869     10.625993   1.000000   0.000000
   82        4.765120     10.656830   1.000000   0.000000
   83        4.890054     10.952820   1.000000   0.000000
   84        4.965277     10.974678   1.000000   0.000000
   85        4.971421     11.120067   1.000000   0.000000
   86        4.992954     11.139941   1.000000   0.000000
   87        5.075087     11.194312   1.000000   0.000000
   88        5.157017     11.269379   1.000000   0.000000
   89        5.163983     11.275816   1.000000   0.000000
   90        5.174826     11.462716   1.000000   0.000000
   91        5.231718     11.554371   1.000000   0.000000
   92        5.248780     11.724064   1.000000   0.000000
   93        5.394514     11.743475   1.000000   0.000000
   94        5.415236     11.772739   1.000000   0.000000
   95        5.560258     11.904961   1.000000   0.000000
   96        5.642848     11.913467   1.000000   0.000000
   97        5.666660     11.939901   1.000000   0.000000
   98        5.821151     12.033370   1.000000   0.000000
   99        5.838317     12.053920   1.000000   0.000000
  100        5.999548     12.195523   1.000000   0.000000
  101        6.032811     12.219884   1.000000   0.000000
  102        6.037502     12.364036   1.000000   0.000000
  103        6.053410     12.472916   1.000000   0.000000
  104        7.090977     12.483114   1.000000   0.000000
  105        7.101661     12.592069   1.000000   0.000000
  106        7.598619     12.698331   1.000000   0.000000
  107        7.811161     12.757136   1.000000   0.000000
  108        7.822479     12.775213   1.000000   0.000000
  109        7.869154     12.781016   1.000000   0.000000
  110        8.081555     12.839174   1.000000   0.000000
  111        8.171112     13.097077   1.000000   0.000000
  112        8.182218     13.190569   1.000000   0.000000
  113        8.730143     13.207197   1.000000   0.000000
  114       11.295898     13.843916   0.000000   0.000000
  115       11.346065     14.681076   0.000000   0.000000
  116       11.627994     14.723643   0.000000   0.000000
  117       12.771013     14.748878   0.000000   0.000000
  118       13.023270     15.062148   0.000000   0.000000
  119       13.687164     15.575581   0.000000   0.000000
  120       14.024309     15.755351   0.000000   0.000000
  121       14.309669     15.790995   0.000000   0.000000
  122       14.331605     15.940045   0.000000   0.000000
  123       14.916725     16.355210   0.000000   0.000000
  124       15.025456     16.364643   0.000000   0.000000
  125       15.037189     16.608898   0.000000   0.000000
  126       15.433812     16.863303   0.000000   0.000000
  127       15.619217     17.215924   0.000000   0.000000
  128       15.644380     17.243065   0.000000   0.000000
  129       16.046445     17.745910   0.000000   0.000000
  130       16.189846     17.879346   0.000000   0.000000
  131       16.216763     17.900920   0.000000   0.000000
  132       16.612176     18.107961   0.000000   0.000000
  133       16.760421     18.277267   0.000000   0.000000
  134       16.833351     18.474721   0.000000   0.000000
  135       17.850836     19.181162   0.000000   0.000000
  136       17.887898     19.423499   0.000000   0.000000
  137       18.070114     19.460877   0.000000   0.000000
  138       18.253488     19.653587   0.000000   0.000000
  139       18.662872     19.745731   0.000000   0.000000
  140       19.522844     20.996748   0.000000   0.000000
  141       19.573064     21.044357   0.000000   0.000000
  142       20.152558     21.155641   0.000000   0.000000
  143       21.097884     21.926928   0.000000   0.000000
  144       21.438701     22.477921   0.000000   0.000000
 
  0.1250000E+00 -0.5690220E-16 -0.1124133E-15  0.1000000E-01
    1      -48.793928    -43.748950   1.000000   1.000000
    2      -48.781076    -43.728440   1.000000   1.000000
    3      -48.774563    -43.720095   1.000000   1.000000
    4      -48.771277    -43.718119   1.000000   1.000000
    5      -48.752693    -43.705832   1.000000   1.000000
    6      -48.732117    -43.682652   1.000000   1.000000
    7      -48.724502    -43.677449   1.000000   1.000000
    8      -48.712625    -43.675003   1.000000   1.000000
    9      -48.568637    -43.668221   1.000000   1.000000
   10      -48.537042    -43.654963   1.000000   1.000000
   11      -48.533162    -43.651668   1.000000   1.000000
   12      -48.482244    -43.647309   1.000000   1.000000
   13      -48.457392    -43.637747   1.000000   1.000000
   14      -48.440657    -43.626615   1.000000   1.000000
   15      -48.434561    -43.622446   1.000000   1.000000
   16      -48.428530    -43.612493   1.000000   1.000000
   17      -48.427348    -43.609119   1.000000   1.000000
   18      -48.417593    -43.601648   1.000000   1.000000
   19      -48.412570    -43.583119   1.000000   1.000000
   20      -48.401630    -43.576436   1.000000   1.000000
   21      -48.388554    -43.568632   1.000000   1.000000
   22      -48.377231    -43.563030   1.000000   1.000000
   23      -48.345767    -43.550490   1.000000   1.000000
   24      -48.339197    -43.548517   1.000000   1.000000
   25      -48.323989    -43.535493   1.000000   1.000000
   26      -48.304258    -43.525246   1.000000   1.000000
   27      -48.275102    -43.516548   1.000000   1.000000
   28      -48.264656    -43.510068   1.000000   1.000000
   29      -48.201876    -43.505220   1.000000   1.000000
   30      -48.193973    -43.498604   1.000000   1.000000
   31      -48.172771    -43.488864   1.000000   1.000000
   32      -48.159986    -43.469771   1.000000   1.000000
   33      -48.141453    -43.449064   1.000000   1.000000
   34      -48.120757    -43.446966   1.000000   1.000000
   35      -48.112708    -43.433624   1.000000   1.000000
   36      -48.056601    -43.422068   1.000000   1.000000
   37       -4.099376     -4.033445   1.000000   1.000000
   38       -2.834529     -2.551277   1.000000   1.000000
   39       -2.826711     -2.541917   1.000000   1.000000
   40       -2.534432     -2.039860   1.000000   1.000000
   41        1.812160      2.243717   1.000000   1.000000
   42        2.085878      2.579897   1.000000   1.000000
   43        2.202937      3.456558   1.000000   1.000000
   44        2.269198      3.519279   1.000000   1.000000
   45        2.569507      3.993910   1.000000   1.000000
   46        2.716413      4.253540   1.000000   1.000000
   47        2.756377      4.339071   1.000000   1.000000
   48        3.002313      4.537204   1.000000   1.000000
   49        3.066299      5.380265   1.000000   1.000000
   50        3.111295      5.468237   1.000000   1.000000
   51        3.286789      5.583704   1.000000   1.000000
   52        3.303430      5.622285   1.000000   1.000000
   53        3.410653      6.027758   1.000000   1.000000
   54        3.448216      7.083076   1.000000   1.000000
   55        3.465511      7.137047   1.000000   1.000000
   56        3.494876      7.383634   1.000000   1.000000
   57        3.559045      7.439692   1.000000   1.000000
   58        3.652178      7.491533   1.000000   1.000000
   59        3.656392      7.784690   1.000000   1.000000
   60        3.750237      7.849817   1.000000   1.000000
   61        3.793257      7.883803   1.000000   1.000000
   62        3.839700      8.079101   1.000000   1.000000
   63        3.884871      8.188872   1.000000   1.000000
   64        3.912325      8.232564   1.000000   1.000000
   65        3.985455      8.271876   1.000000   1.000000
   66        4.064576      8.352621   1.000000   1.000000
   67        4.177226      8.400671   1.000000   1.000000
   68        4.239741      8.429529   1.000000   1.000000
   69        4.263043      8.508414   1.000000   1.000000
   70        4.306926      8.591333   1.000000   1.000000
   71        4.352361      8.890098   1.000000   1.000000
   72        4.390213      9.054804   1.000000   1.000000
   73        4.435970      9.099029   1.000000   1.000000
   74        4.502397      9.420494   1.000000   1.000000
   75        4.526653      9.540965   1.000000   0.999990
   76        4.549255      9.840347   1.000000   0.000013
   77        4.552991      9.911347   1.000000   0.000000
   78        4.587594     10.060277   1.000000   0.000000
   79        4.666686     10.181774   1.000000   0.000000
   80        4.726719     10.449599   1.000000   0.000000
   81        4.743387     10.575133   1.000000   0.000000
   82        4.750012     10.614191   1.000000   0.000000
   83        4.884369     10.824508   1.000000   0.000000
   84        4.940854     10.863220   1.000000   0.000000
   85        4.982752     11.045479   1.000000   0.000000
   86        4.997369     11.108956   1.000000   0.000000
   87        5.099192     11.219460   1.000000   0.000000
   88        5.115568     11.347673   1.000000   0.000000
   89        5.158994     11.382845   1.000000   0.000000
   90        5.190392     11.449422   1.000000   0.000000
   91        5.235164     11.633201   1.000000   0.000000
   92        5.360022     11.668060   1.000000   0.000000
   93        5.403136     11.720569   1.000000   0.000000
   94        5.447319     11.752441   1.000000   0.000000
   95        5.536947     11.870921   1.000000   0.000000
   96        5.607360     11.905620   1.000000   0.000000
   97        5.641074     11.939786   1.000000   0.000000
   98        5.744883     11.988662   1.000000   0.000000
   99        5.828554     12.077216   1.000000   0.000000
  100        5.872374     12.155906   1.000000   0.000000
  101        6.028420     12.181276   1.000000   0.000000
  102        6.037379     12.323886   1.000000   0.000000
  103        6.172923     12.492748   1.000000   0.000000
  104        6.805213     12.548009   1.000000   0.000000
  105        6.877108     12.589626   1.000000   0.000000
  106        7.142346     12.725261   1.000000   0.000000
  107        7.340799     12.764668   1.000000   0.000000
  108        7.486139     12.806759   1.000000   0.000000
  109        7.939513     12.830190   1.000000   0.000000
  110        8.506373     13.019624   1.000000   0.000000
  111        8.965302     13.153578   1.000000   0.000000
  112        9.030305     13.308012   1.000000   0.000000
  113        9.315749     13.351010   1.000000   0.000000
  114       11.055820     13.719170   0.000000   0.000000
  115       11.272570     14.405121   0.000000   0.000000
  116       11.610724     14.557227   0.000000   0.000000
  117       12.490303     14.691520   0.000000   0.000000
  118       12.574636     14.951740   0.000000   0.000000
  119       13.436440     15.152072   0.000000   0.000000
  120       13.721915     15.386819   0.000000   0.000000
  121       13.875542     15.625955   0.000000   0.000000
  122       14.241624     15.843150   0.000000   0.000000
  123       14.678092     16.194063   0.000000   0.000000
  124       15.077601     16.871662   0.000000   0.000000
  125       15.331504     16.895671   0.000000   0.000000
  126       15.435127     17.028333   0.000000   0.000000
  127       15.630003     17.198238   0.000000   0.000000
  128       15.743219     17.371165   0.000000   0.000000
  129       16.051328     17.792999   0.000000   0.000000
  130       16.459143     17.976516   0.000000   0.000000
  131       16.600433     18.082429   0.000000   0.000000
  132       16.946693     18.420235   0.000000   0.000000
  133       17.204264     18.588003   0.000000   0.000000
  134       17.699211     19.013337   0.000000   0.000000
  135       17.958876     19.315040   0.000000   0.000000
  136       18.222586     19.567970   0.000000   0.000000
  137       18.427883     19.724373   0.000000   0.000000
  138       18.605252     19.990341   0.000000   0.000000
  139       19.117429     20.271228   0.000000   0.000000
  140       19.356682     20.634568   0.000000   0.000000
  141       19.913533     21.174705   0.000000   0.000000
  142       20.156518     21.266231   0.000000   0.000000
  143       20.267725     21.466873   0.000000   0.000000
  144       21.180398     22.224893   0.000000   0.000000
 
  0.2500000E+00 -0.1138044E-15 -0.2248267E-15  0.1000000E-01
    1      -48.791981    -43.744892   1.000000   1.000000
    2      -48.778379    -43.726121   1.000000   1.000000
    3      -48.774888    -43.721571   1.000000   1.000000
    4      -48.771838    -43.719234   1.000000   1.000000
    5      -48.753852    -43.709292   1.000000   1.000000
    6      -48.732090    -43.680348   1.000000   1.000000
    7      -48.724010    -43.675157   1.000000   1.000000
    8      -48.714344    -43.672591   1.000000   1.000000
    9      -48.568853    -43.667684   1.000000   1.000000
   10      -48.537059    -43.661340   1.000000   1.000000
   11      -48.533890    -43.653120   1.000000   1.000000
   12      -48.482852    -43.647273   1.000000   1.000000
   13      -48.456452    -43.634789   1.000000   1.000000
   14      -48.441036    -43.627766   1.000000   1.000000
   15      -48.435706    -43.622992   1.000000   1.000000
   16      -48.428239    -43.613832   1.000000   1.000000
   17      -48.427157    -43.608279   1.000000   1.000000
   18      -48.419026    -43.600707   1.000000   1.000000
   19      -48.411615    -43.585376   1.000000   1.000000
   20      -48.401003    -43.576770   1.000000   1.000000
   21      -48.389335    -43.568731   1.000000   1.000000
   22      -48.377631    -43.561518   1.000000   1.000000
   23      -48.346267    -43.551177   1.000000   1.000000
   24      -48.338324    -43.548208   1.000000   1.000000
   25      -48.323975    -43.535726   1.000000   1.000000
   26      -48.304836    -43.525869   1.000000   1.000000
   27      -48.274038    -43.517077   1.000000   1.000000
   28      -48.263468    -43.506945   1.000000   1.000000
   29      -48.202996    -43.503486   1.000000   1.000000
   30      -48.194199    -43.497772   1.000000   1.000000
   31      -48.170692    -43.489203   1.000000   1.000000
   32      -48.160254    -43.470031   1.000000   1.000000
   33      -48.141745    -43.449499   1.000000   1.000000
   34      -48.121434    -43.448344   1.000000   1.000000
   35      -48.112756    -43.435097   1.000000   1.000000
   36      -48.056800    -43.422875   1.000000   1.000000
   37       -3.840109     -3.760776   1.000000   1.000000
   38       -2.811768     -2.535891   1.000000   1.000000
   39       -2.798073     -2.526951   1.000000   1.000000
   40       -2.548670     -2.120826   1.000000   1.000000
   41        1.761524      2.430677   1.000000   1.000000
   42        1.981859      2.659044   1.000000   1.000000
   43        2.056832      2.958114   1.000000   1.000000
   44        2.238690      3.235916   1.000000   1.000000
   45        2.431451      3.465244   1.000000   1.000000
   46        2.611329      3.783127   1.000000   1.000000
   47        2.707306      4.434023   1.000000   1.000000
   48        2.849010      4.622867   1.000000   1.000000
   49        2.984047      5.327071   1.000000   1.000000
   50        3.091532      5.428608   1.000000   1.000000
   51        3.138710      5.584457   1.000000   1.000000
   52        3.186510      5.683740   1.000000   1.000000
   53        3.410569      6.311467   1.000000   1.000000
   54        3.464819      7.064660   1.000000   1.000000
   55        3.512371      7.186759   1.000000   1.000000
   56        3.546761      7.352160   1.000000   1.000000
   57        3.612289      7.481405   1.000000   1.000000
   58        3.637560      7.565536   1.000000   1.000000
   59        3.690265      7.754432   1.000000   1.000000
   60        3.739428      7.873923   1.000000   1.000000
   61        3.825877      7.973464   1.000000   1.000000
   62        3.860697      8.122577   1.000000   1.000000
   63        3.886769      8.199646   1.000000   1.000000
   64        3.945988      8.312581   1.000000   1.000000
   65        3.967176      8.366692   1.000000   1.000000
   66        4.068913      8.428760   1.000000   1.000000
   67        4.127481      8.469476   1.000000   1.000000
   68        4.189485      8.549103   1.000000   1.000000
   69        4.241024      8.628829   1.000000   1.000000
   70        4.280173      8.753920   1.000000   1.000000
   71        4.351539      8.892033   1.000000   1.000000
   72        4.401055      9.051596   1.000000   1.000000
   73        4.432240      9.194760   1.000000   1.000000
   74        4.505859      9.358863   1.000000   1.000000
   75        4.544624      9.526779   1.000000   0.999998
   76        4.562396      9.771900   1.000000   0.011560
   77        4.597421      9.909998   1.000000   0.000000
   78        4.653970     10.049455   1.000000   0.000000
   79        4.682062     10.262522   1.000000   0.000000
   80        4.722782     10.403088   1.000000   0.000000
   81        4.815089     10.514649   1.000000   0.000000
   82        4.838525     10.634016   1.000000   0.000000
   83        4.898260     10.813974   1.000000   0.000000
   84        4.954743     10.884304   1.000000   0.000000
   85        4.985541     10.974632   1.000000   0.000000
   86        5.005453     11.091994   1.000000   0.000000
   87        5.070827     11.220950   1.000000   0.000000
   88        5.127830     11.294502   1.000000   0.000000
   89        5.165005     11.375856   1.000000   0.000000
   90        5.246582     11.459489   1.000000   0.000000
   91        5.313582     11.561821   1.000000   0.000000
   92        5.386294     11.580191   1.000000   0.000000
   93        5.426457     11.706997   1.000000   0.000000
   94        5.473752     11.759439   1.000000   0.000000
   95        5.520902     11.861168   1.000000   0.000000
   96        5.594472     11.902300   1.000000   0.000000
   97        5.611187     11.930444   1.000000   0.000000
   98        5.670003     11.971164   1.000000   0.000000
   99        5.788846     12.062345   1.000000   0.000000
  100        5.840473     12.118376   1.000000   0.000000
  101        6.023011     12.169807   1.000000   0.000000
  102        6.051388     12.282311   1.000000   0.000000
  103        6.227310     12.386034   1.000000   0.000000
  104        6.315885     12.458029   1.000000   0.000000
  105        6.459631     12.533760   1.000000   0.000000
  106        6.882283     12.696017   1.000000   0.000000
  107        7.086726     12.821928   1.000000   0.000000
  108        7.363917     12.869592   1.000000   0.000000
  109        8.318195     12.943964   1.000000   0.000000
  110        9.017304     13.281675   1.000000   0.000000
  111        9.335509     13.386632   1.000000   0.000000
  112        9.544861     13.501129   0.999983   0.000000
  113        9.723118     13.546589   0.186281   0.000000
  114       10.811443     13.782626   0.000000   0.000000
  115       11.385175     14.160872   0.000000   0.000000
  116       11.806464     14.317308   0.000000   0.000000
  117       12.236027     14.557795   0.000000   0.000000
  118       12.698690     14.753937   0.000000   0.000000
  119       12.866981     14.955895   0.000000   0.000000
  120       13.340887     15.392160   0.000000   0.000000
  121       13.647571     15.424903   0.000000   0.000000
  122       13.966823     15.639700   0.000000   0.000000
  123       14.266237     15.997753   0.000000   0.000000
  124       14.856694     16.592288   0.000000   0.000000
  125       15.258141     16.934043   0.000000   0.000000
  126       15.547679     17.153627   0.000000   0.000000
  127       16.033602     17.655260   0.000000   0.000000
  128       16.334071     17.873123   0.000000   0.000000
  129       16.571693     18.123784   0.000000   0.000000
  130       16.679288     18.188899   0.000000   0.000000
  131       17.175527     18.463801   0.000000   0.000000
  132       17.626467     18.896756   0.000000   0.000000
  133       17.813390     19.214242   0.000000   0.000000
  134       18.191994     19.502180   0.000000   0.000000
  135       18.204013     19.636397   0.000000   0.000000
  136       18.642491     19.901936   0.000000   0.000000
  137       19.027582     20.120486   0.000000   0.000000
  138       19.285117     20.496171   0.000000   0.000000
  139       19.526901     20.632858   0.000000   0.000000
  140       19.922123     21.021694   0.000000   0.000000
  141       20.268937     21.253870   0.000000   0.000000
  142       20.663999     21.601009   0.000000   0.000000
  143       20.711887     21.731620   0.000000   0.000000
  144       20.860486     21.899272   0.000000   0.000000
 
  0.3750000E+00 -0.1197404E-15 -0.2030071E-15  0.1000000E-01
    1      -48.789793    -43.739506   1.000000   1.000000
    2      -48.776106    -43.725782   1.000000   1.000000
    3      -48.774718    -43.722182   1.000000   1.000000
    4      -48.772526    -43.719496   1.000000   1.000000
    5      -48.755008    -43.714717   1.000000   1.000000
    6      -48.732373    -43.678582   1.000000   1.000000
    7      -48.723514    -43.675101   1.000000   1.000000
    8      -48.716091    -43.669720   1.000000   1.000000
    9      -48.569090    -43.667653   1.000000   1.000000
   10      -48.537132    -43.660652   1.000000   1.000000
   11      -48.534614    -43.654102   1.000000   1.000000
   12      -48.483497    -43.646410   1.000000   1.000000
   13      -48.455508    -43.634303   1.000000   1.000000
   14      -48.441496    -43.628683   1.000000   1.000000
   15      -48.435504    -43.624963   1.000000   1.000000
   16      -48.430208    -43.613756   1.000000   1.000000
   17      -48.426699    -43.608577   1.000000   1.000000
   18      -48.419174    -43.601707   1.000000   1.000000
   19      -48.410814    -43.586963   1.000000   1.000000
   20      -48.400563    -43.576041   1.000000   1.000000
   21      -48.390211    -43.570156   1.000000   1.000000
   22      -48.377970    -43.559865   1.000000   1.000000
   23      -48.346737    -43.551923   1.000000   1.000000
   24      -48.337498    -43.548026   1.000000   1.000000
   25      -48.324028    -43.535184   1.000000   1.000000
   26      -48.305436    -43.527097   1.000000   1.000000
   27      -48.272987    -43.517220   1.000000   1.000000
   28      -48.262326    -43.504739   1.000000   1.000000
   29      -48.204077    -43.502395   1.000000   1.000000
   30      -48.194346    -43.497790   1.000000   1.000000
   31      -48.168691    -43.487714   1.000000   1.000000
   32      -48.160584    -43.470896   1.000000   1.000000
   33      -48.141980    -43.449917   1.000000   1.000000
   34      -48.122180    -43.448591   1.000000   1.000000
   35      -48.112785    -43.436900   1.000000   1.000000
   36      -48.057017    -43.423878   1.000000   1.000000
   37       -3.474009     -3.364370   1.000000   1.000000
   38       -2.832055     -2.586161   1.000000   1.000000
   39       -2.776488     -2.510421   1.000000   1.000000
   40       -2.602421     -2.259137   1.000000   1.000000
   41        1.571090      2.256753   1.000000   1.000000
   42        1.761698      2.409908   1.000000   1.000000
   43        1.906727      2.738745   1.000000   1.000000
   44        2.139337      3.019220   1.000000   1.000000
   45        2.394956      3.478142   1.000000   1.000000
   46        2.590634      3.918483   1.000000   1.000000
   47        2.691127      4.585660   1.000000   1.000000
   48        2.770025      4.808230   1.000000   1.000000
   49        2.905692      5.017038   1.000000   1.000000
   50        3.004351      5.256756   1.000000   1.000000
   51        3.041374      5.415931   1.000000   1.000000
   52        3.127929      5.613432   1.000000   1.000000
   53        3.364705      6.210281   1.000000   1.000000
   54        3.437867      6.959010   1.000000   1.000000
   55        3.493025      7.171104   1.000000   1.000000
   56        3.565051      7.258960   1.000000   1.000000
   57        3.613995      7.572219   1.000000   1.000000
   58        3.655436      7.638948   1.000000   1.000000
   59        3.709905      7.774252   1.000000   1.000000
   60        3.773028      7.905858   1.000000   1.000000
   61        3.828927      8.038428   1.000000   1.000000
   62        3.864288      8.126631   1.000000   1.000000
   63        3.929885      8.309908   1.000000   1.000000
   64        3.972035      8.335614   1.000000   1.000000
   65        4.013988      8.455352   1.000000   1.000000
   66        4.082739      8.510732   1.000000   1.000000
   67        4.091973      8.600335   1.000000   1.000000
   68        4.234602      8.646610   1.000000   1.000000
   69        4.271676      8.771811   1.000000   1.000000
   70        4.286594      8.835823   1.000000   1.000000
   71        4.309710      8.938391   1.000000   1.000000
   72        4.412990      9.115981   1.000000   1.000000
   73        4.459997      9.213875   1.000000   1.000000
   74        4.515674      9.362516   1.000000   1.000000
   75        4.536062      9.469727   1.000000   1.000000
   76        4.563935      9.656455   1.000000   0.839851
   77        4.624665      9.896244   1.000000   0.000000