 running on   64 total cores
 distrk:  each k-point on   64 cores,    1 groups
 distr:  one band on   16 cores,    4 groups
 using from now: INCAR     
 vasp.6.1.2 22Jul20 (build Apr 14 2021 21:39:43) complex                        
  
 POSCAR found type information on POSCAR FeP 
 POSCAR found :  2 types and      16 ions
 scaLAPACK will be used
 LDA part: xc-table for Pade appr. of Perdew


 VERY BAD NEWS! internal error in subroutine IBZKPT:
 Reciprocal lattice and k-lattice belong to different class of lattices. Often results are still useful...      60


 VERY BAD NEWS! internal error in subroutine IBZKPT:
 Reciprocal lattice and k-lattice belong to different class of lattices. Often results are still useful...      60


 VERY BAD NEWS! internal error in subroutine IBZKPT:
 Reciprocal lattice and k-lattice belong to different class of lattices. Often results are still useful...      60


 VERY BAD NEWS! internal error in subroutine IBZKPT:
 Reciprocal lattice and k-lattice belong to different class of lattices. Often results are still useful...      60


 VERY BAD NEWS! internal error in subroutine IBZKPT:
 Reciprocal lattice and k-lattice belong to different class of lattices. Often results are still useful...      60


 VERY BAD NEWS! internal error in subroutine IBZKPT:
 Reciprocal lattice and k-lattice belong to different class of lattices. Often results are still useful...      60


 VERY BAD NEWS! internal error in subroutine IBZKPT:
 Reciprocal lattice and k-lattice belong to different class of lattices. Often results are still useful...      60


 VERY BAD NEWS! internal error in subroutine IBZKPT:
 Reciprocal lattice and k-lattice belong to different class of lattices. Often results are still useful...      60


 VERY BAD NEWS! internal error in subroutine IBZKPT:
 Reciprocal lattice and k-lattice belong to different class of lattices. Often results are still useful...      60


 VERY BAD NEWS! internal error in subroutine IBZKPT:
 Reciprocal lattice and k-lattice belong to different class of lattices. Often results are still useful...      60


 VERY BAD NEWS! internal error in subroutine IBZKPT:
 Reciprocal lattice and k-lattice belong to different class of lattices. Often results are still useful...      60


 VERY BAD NEWS! internal error in subroutine IBZKPT:
 Reciprocal lattice and k-lattice belong to different class of lattices. Often results are still useful...      60


 VERY BAD NEWS! internal error in subroutine IBZKPT:
 Reciprocal lattice and k-lattice belong to different class of lattices. Often results are still useful...      60


 VERY BAD NEWS! internal error in subroutine IBZKPT:
 Reciprocal lattice and k-lattice belong to different class of lattices. Often results are still useful...      60


 VERY BAD NEWS! internal error in subroutine IBZKPT:
 Reciprocal lattice and k-lattice belong to different class of lattices. Often results are still useful...      60


 VERY BAD NEWS! internal error in subroutine IBZKPT:
 Reciprocal lattice and k-lattice belong to different class of lattices. Often results are still useful...      60


 VERY BAD NEWS! internal error in subroutine IBZKPT:
 Reciprocal lattice and k-lattice belong to different class of lattices. Often results are still useful...      60


 VERY BAD NEWS! internal error in subroutine IBZKPT:
 Reciprocal lattice and k-lattice belong to different class of lattices. Often results are still useful...      60


 VERY BAD NEWS! internal error in subroutine IBZKPT:
 Reciprocal lattice and k-lattice belong to different class of lattices. Often results are still useful...      60


 VERY BAD NEWS! internal error in subroutine IBZKPT:
 Reciprocal lattice and k-lattice belong to different class of lattices. Often results are still useful...      60


 VERY BAD NEWS! internal error in subroutine IBZKPT:
 Reciprocal lattice and k-lattice belong to different class of lattices. Often results are still useful...      60


 VERY BAD NEWS! internal error in subroutine IBZKPT:
 Reciprocal lattice and k-lattice belong to different class of lattices. Often results are still useful...      60


 VERY BAD NEWS! internal error in subroutine IBZKPT:
 Reciprocal lattice and k-lattice belong to different class of lattices. Often results are still useful...      60


 VERY BAD NEWS! internal error in subroutine IBZKPT:
 Reciprocal lattice and k-lattice belong to different class of lattices. Often results are still useful...      60


 VERY BAD NEWS! internal error in subroutine IBZKPT:
 Reciprocal lattice and k-lattice belong to different class of lattices. Often results are still useful...      60


 VERY BAD NEWS! internal error in subroutine IBZKPT:
 Reciprocal lattice and k-lattice belong to different class of lattices. Often results are still useful...      60


 VERY BAD NEWS! internal error in subroutine IBZKPT:
 Reciprocal lattice and k-lattice belong to different class of lattices. Often results are still useful...      60


 VERY BAD NEWS! internal error in subroutine IBZKPT:
 Reciprocal lattice and k-lattice belong to different class of lattices. Often results are still useful...      60


 VERY BAD NEWS! internal error in subroutine IBZKPT:
 Reciprocal lattice and k-lattice belong to different class of lattices. Often results are still useful...      60


 VERY BAD NEWS! internal error in subroutine IBZKPT:
 Reciprocal lattice and k-lattice belong to different class of lattices. Often results are still useful...      60


 VERY BAD NEWS! internal error in subroutine IBZKPT:
 Reciprocal lattice and k-lattice belong to different class of lattices. Often results are still useful...      60


 VERY BAD NEWS! internal error in subroutine IBZKPT:
 Reciprocal lattice and k-lattice belong to different class of lattices. Often results are still useful...      60


 VERY BAD NEWS! internal error in subroutine IBZKPT:
 Reciprocal lattice and k-lattice belong to different class of lattices. Often results are still useful...      60


 VERY BAD NEWS! internal error in subroutine IBZKPT:
 Reciprocal lattice and k-lattice belong to different class of lattices. Often results are still useful...      60


 VERY BAD NEWS! internal error in subroutine IBZKPT:
 Reciprocal lattice and k-lattice belong to different class of lattices. Often results are still useful...      60


 VERY BAD NEWS! internal error in subroutine IBZKPT:
 Reciprocal lattice and k-lattice belong to different class of lattices. Often results are still useful...      60


 VERY BAD NEWS! internal error in subroutine IBZKPT:
 Reciprocal lattice and k-lattice belong to different class of lattices. Often results are still useful...      60


 VERY BAD NEWS! internal error in subroutine IBZKPT:
 Reciprocal lattice and k-lattice belong to different class of lattices. Often results are still useful...      60


 VERY BAD NEWS! internal error in subroutine IBZKPT:
 Reciprocal lattice and k-lattice belong to different class of lattices. Often results are still useful...      60


 VERY BAD NEWS! internal error in subroutine IBZKPT:
 Reciprocal lattice and k-lattice belong to different class of lattices. Often results are still useful...      60
 generate k-points for:    8    5    5


 VERY BAD NEWS! internal error in subroutine IBZKPT:
 Reciprocal lattice and k-lattice belong to different class of lattices. Often results are still useful...      60


 VERY BAD NEWS! internal error in subroutine IBZKPT:
 Reciprocal lattice and k-lattice belong to different class of lattices. Often results are still useful...      60


 VERY BAD NEWS! internal error in subroutine IBZKPT:
 Reciprocal lattice and k-lattice belong to different class of lattices. Often results are still useful...      60


 VERY BAD NEWS! internal error in subroutine IBZKPT:
 Reciprocal lattice and k-lattice belong to different class of lattices. Often results are still useful...      60


 VERY BAD NEWS! internal error in subroutine IBZKPT:
 Reciprocal lattice and k-lattice belong to different class of lattices. Often results are still useful...      60


 VERY BAD NEWS! internal error in subroutine IBZKPT:
 Reciprocal lattice and k-lattice belong to different class of lattices. Often results are still useful...      60


 VERY BAD NEWS! internal error in subroutine IBZKPT:
 Reciprocal lattice and k-lattice belong to different class of lattices. Often results are still useful...      60


 VERY BAD NEWS! internal error in subroutine IBZKPT:
 Reciprocal lattice and k-lattice belong to different class of lattices. Often results are still useful...      60


 VERY BAD NEWS! internal error in subroutine IBZKPT:
 Reciprocal lattice and k-lattice belong to different class of lattices. Often results are still useful...      60


 VERY BAD NEWS! internal error in subroutine IBZKPT:
 Reciprocal lattice and k-lattice belong to different class of lattices. Often results are still useful...      60


 VERY BAD NEWS! internal error in subroutine IBZKPT:
 Reciprocal lattice and k-lattice belong to different class of lattices. Often results are still useful...      60


 VERY BAD NEWS! internal error in subroutine IBZKPT:
 Reciprocal lattice and k-lattice belong to different class of lattices. Often results are still useful...      60


 VERY BAD NEWS! internal error in subroutine IBZKPT:
 Reciprocal lattice and k-lattice belong to different class of lattices. Often results are still useful...      60


 VERY BAD NEWS! internal error in subroutine IBZKPT:
 Reciprocal lattice and k-lattice belong to different class of lattices. Often results are still useful...      60


 VERY BAD NEWS! internal error in subroutine IBZKPT:
 Reciprocal lattice and k-lattice belong to different class of lattices. Often results are still useful...      60


 VERY BAD NEWS! internal error in subroutine IBZKPT:
 Reciprocal lattice and k-lattice belong to different class of lattices. Often results are still useful...      60


 VERY BAD NEWS! internal error in subroutine IBZKPT:
 Reciprocal lattice and k-lattice belong to different class of lattices. Often results are still useful...      60


 VERY BAD NEWS! internal error in subroutine IBZKPT:
 Reciprocal lattice and k-lattice belong to different class of lattices. Often results are still useful...      60


 VERY BAD NEWS! internal error in subroutine IBZKPT:
 Reciprocal lattice and k-lattice belong to different class of lattices. Often results are still useful...      60


 VERY BAD NEWS! internal error in subroutine IBZKPT:
 Reciprocal lattice and k-lattice belong to different class of lattices. Often results are still useful...      60


 VERY BAD NEWS! internal error in subroutine IBZKPT:
 Reciprocal lattice and k-lattice belong to different class of lattices. Often results are still useful...      60


 VERY BAD NEWS! internal error in subroutine IBZKPT:
 Reciprocal lattice and k-lattice belong to different class of lattices. Often results are still useful...      60


 VERY BAD NEWS! internal error in subroutine IBZKPT:
 Reciprocal lattice and k-lattice belong to different class of lattices. Often results are still useful...      60


 VERY BAD NEWS! internal error in subroutine IBZKPT:
 Reciprocal lattice and k-lattice belong to different class of lattices. Often results are still useful...      60
 POSCAR, INCAR and KPOINTS ok, starting setup
 FFT: planning ...
 WAVECAR not read
 entering main loop
       N       E                     dE             d eps       ncg     rms          rms(c)
DAV:   1     0.273000156169E+04    0.27300E+04   -0.94749E+04 58280   0.205E+03
DAV:   2     0.118691520167E+03   -0.26113E+04   -0.24264E+04 58176   0.583E+02
DAV:   3    -0.246832226819E+03   -0.36552E+03   -0.33320E+03 59808   0.221E+02
DAV:   4    -0.266186899910E+03   -0.19355E+02   -0.18982E+02 63456   0.515E+01
DAV:   5    -0.266479114491E+03   -0.29221E+00   -0.29179E+00 62912   0.660E+00    0.670E+01
DAV:   6    -0.230176315991E+03    0.36303E+02   -0.11277E+02 62536   0.667E+01    0.400E+01
DAV:   7    -0.233747436269E+03   -0.35711E+01   -0.17818E+01 61888   0.249E+01    0.235E+01
DAV:   8    -0.235010713857E+03   -0.12633E+01   -0.18825E+00 62624   0.116E+01    0.116E+01
DAV:   9    -0.235633267062E+03   -0.62255E+00   -0.24452E+00 61632   0.176E+01    0.128E+01
DAV:  10    -0.235196034643E+03    0.43723E+00   -0.12252E+00 61240   0.121E+01    0.202E+00
DAV:  11    -0.235306017630E+03   -0.10998E+00   -0.26280E-01 61528   0.343E+00    0.176E+00
DAV:  12    -0.235334993939E+03   -0.28976E-01   -0.73845E-02 61432   0.306E+00    0.942E-01
DAV:  13    -0.235373810489E+03   -0.38817E-01   -0.24195E-02 61272   0.883E-01    0.613E-01
DAV:  14    -0.235406748239E+03   -0.32938E-01   -0.16270E-02 66336   0.517E-01    0.491E-01
DAV:  15    -0.235440101814E+03   -0.33354E-01   -0.19726E-02 71216   0.845E-01    0.458E-01
DAV:  16    -0.235452530526E+03   -0.12429E-01   -0.84187E-03 67832   0.575E-01    0.381E-01
DAV:  17    -0.235471482913E+03   -0.18952E-01   -0.11912E-02 70560   0.522E-01    0.339E-01
DAV:  18    -0.235484841804E+03   -0.13359E-01   -0.80678E-03 71280   0.402E-01    0.321E-01
DAV:  19    -0.235493203627E+03   -0.83618E-02   -0.36656E-03 66920   0.279E-01    0.305E-01
DAV:  20    -0.235513025952E+03   -0.19822E-01   -0.16680E-02 75288   0.616E-01    0.286E-01
DAV:  21    -0.235531642725E+03   -0.18617E-01   -0.17928E-02 72656   0.593E-01    0.256E-01
DAV:  22    -0.235545137926E+03   -0.13495E-01   -0.11981E-02 72320   0.464E-01    0.239E-01
DAV:  23    -0.235553176741E+03   -0.80388E-02   -0.75462E-03 63656   0.392E-01    0.195E-01
DAV:  24    -0.235561723130E+03   -0.85464E-02   -0.81990E-03 75048   0.391E-01    0.162E-01
DAV:  25    -0.235570024504E+03   -0.83014E-02   -0.62709E-03 67408   0.341E-01    0.148E-01
DAV:  26    -0.235581145490E+03   -0.11121E-01   -0.90982E-03 74912   0.430E-01    0.112E-01
DAV:  27    -0.235583644276E+03   -0.24988E-02   -0.38532E-03 63576   0.258E-01    0.102E-01
DAV:  28    -0.235585357545E+03   -0.17133E-02   -0.10901E-03 68128   0.168E-01    0.887E-02
DAV:  29    -0.235588864710E+03   -0.35072E-02   -0.21762E-03 73592   0.243E-01    0.701E-02
DAV:  30    -0.235592187594E+03   -0.33229E-02   -0.23116E-03 77352   0.211E-01    0.498E-02
DAV:  31    -0.235595686294E+03   -0.34987E-02   -0.15906E-03 72184   0.156E-01    0.437E-02
DAV:  32    -0.235596389620E+03   -0.70333E-03   -0.45859E-04 62480   0.946E-02    0.343E-02
DAV:  33    -0.235597346283E+03   -0.95666E-03   -0.22444E-04 59672   0.880E-02    0.276E-02
DAV:  34    -0.235598046877E+03   -0.70059E-03   -0.19712E-04 55896   0.664E-02    0.220E-02
DAV:  35    -0.235598210240E+03   -0.16336E-03   -0.11597E-04 47680   0.488E-02    0.182E-02
DAV:  36    -0.235598558137E+03   -0.34790E-03   -0.94455E-05 43184   0.452E-02    0.165E-02
DAV:  37    -0.235598929152E+03   -0.37102E-03   -0.81726E-05 43120   0.426E-02    0.130E-02
DAV:  38    -0.235599130508E+03   -0.20136E-03   -0.67019E-05 41664   0.330E-02    0.101E-02
DAV:  39    -0.235599099011E+03    0.31497E-04   -0.32530E-05 40928   0.243E-02    0.957E-03
DAV:  40    -0.235599210389E+03   -0.11138E-03   -0.18174E-05 35904   0.210E-02    0.673E-03
DAV:  41    -0.235599457403E+03   -0.24701E-03   -0.18388E-05 38192   0.171E-02    0.529E-03
DAV:  42    -0.235599528761E+03   -0.71358E-04   -0.15618E-05 36568   0.157E-02    0.419E-03
DAV:  43    -0.235599686923E+03   -0.15816E-03   -0.13531E-05 36536   0.146E-02    0.397E-03
DAV:  44    -0.235599702085E+03   -0.15163E-04   -0.51123E-06 31360   0.963E-03    0.318E-03
DAV:  45    -0.235599694844E+03    0.72416E-05   -0.22954E-06 29536   0.745E-03
   1 F= -.23559969E+03 E0= -.23559624E+03  d E =-.235600E+03  mag=    34.6143
 curvature:   0.00 expect dE= 0.000E+00 dE for cont linesearch  0.000E+00
 trial: gam= 0.00000 g(F)=  0.102E+00 g(S)=  0.277E+01 ort = 0.000E+00 (trialstep = 0.100E+01)
 search vector abs. value=  0.288E+01
 bond charge predicted
       N       E                     dE             d eps       ncg     rms          rms(c)
DAV:   1    -0.342714301957E+03   -0.10711E+03   -0.11601E+03 60520   0.230E+02    0.104E+02
DAV:   2    -0.267081983734E+03    0.75632E+02   -0.64628E+02 63640   0.137E+02    0.837E+01
DAV:   3    -0.235480953077E+03    0.31601E+02   -0.72855E+01 62200   0.495E+01    0.347E+01
DAV:   4    -0.236493372469E+03   -0.10124E+01   -0.16746E+01 65752   0.219E+01    0.233E+01
DAV:   5    -0.237060924211E+03   -0.56755E+00   -0.63429E+00 63456   0.219E+01    0.180E+01
DAV:   6    -0.236255282600E+03    0.80564E+00   -0.59660E+00 64920   0.123E+01    0.781E+00
DAV:   7    -0.236502238069E+03   -0.24696E+00   -0.16575E+00 60632   0.869E+00    0.510E+00
DAV:   8    -0.236574281728E+03   -0.72044E-01   -0.34341E-01 61240   0.493E+00    0.311E+00
DAV:   9    -0.236592551968E+03   -0.18270E-01   -0.67711E-02 61128   0.190E+00    0.233E+00
DAV:  10    -0.236622090700E+03   -0.29539E-01   -0.31723E-02 63840   0.159E+00    0.133E+00
DAV:  11    -0.236637113338E+03   -0.15023E-01   -0.27886E-02 62000   0.212E+00    0.889E-01
DAV:  12    -0.236645628073E+03   -0.85147E-02   -0.12688E-02 61720   0.125E+00    0.414E-01
DAV:  13    -0.236650189263E+03   -0.45612E-02   -0.58493E-03 62744   0.577E-01    0.286E-01
DAV:  14    -0.236653846054E+03   -0.36568E-02   -0.30730E-03 62920   0.341E-01    0.255E-01
DAV:  15    -0.236659081847E+03   -0.52358E-02   -0.38141E-03 68712   0.380E-01    0.214E-01
DAV:  16    -0.236663368984E+03   -0.42871E-02   -0.28310E-03 66672   0.272E-01    0.170E-01
DAV:  17    -0.236667484055E+03   -0.41151E-02   -0.24313E-03 68432   0.281E-01    0.145E-01
DAV:  18    -0.236670688648E+03   -0.32046E-02   -0.30863E-03 71152   0.304E-01    0.122E-01
DAV:  19    -0.236674194076E+03   -0.35054E-02   -0.48384E-03 70832   0.346E-01    0.913E-02
DAV:  20    -0.236676328402E+03   -0.21343E-02   -0.34218E-03 67672   0.233E-01    0.721E-02
DAV:  21    -0.236676828034E+03   -0.49963E-03   -0.56256E-04 61112   0.116E-01    0.570E-02
DAV:  22    -0.236676925101E+03   -0.97067E-04   -0.11395E-04 61544   0.664E-02    0.381E-02
DAV:  23    -0.236677493402E+03   -0.56830E-03   -0.20052E-04 59928   0.814E-02    0.269E-02
DAV:  24    -0.236678006079E+03   -0.51268E-03   -0.36820E-04 65752   0.101E-01    0.242E-02
DAV:  25    -0.236678016268E+03   -0.10189E-04   -0.11168E-04 56408   0.451E-02    0.187E-02
DAV:  26    -0.236677974369E+03    0.41899E-04   -0.22500E-05 37200   0.287E-02    0.136E-02
DAV:  27    -0.236678101474E+03   -0.12710E-03   -0.27363E-05 41232   0.268E-02    0.113E-02
DAV:  28    -0.236678251853E+03   -0.15038E-03   -0.18984E-05 39128   0.202E-02    0.993E-03
DAV:  29    -0.236678404776E+03   -0.15292E-03   -0.14085E-05 32120   0.198E-02    0.846E-03
DAV:  30    -0.236678504716E+03   -0.99940E-04   -0.17334E-05 35288   0.171E-02    0.707E-03
DAV:  31    -0.236678577825E+03   -0.73109E-04   -0.92949E-06 34264   0.117E-02    0.634E-03
DAV:  32    -0.236678719250E+03   -0.14143E-03   -0.10829E-05 30552   0.147E-02    0.566E-03
DAV:  33    -0.236678847246E+03   -0.12800E-03   -0.13020E-05 34992   0.138E-02    0.504E-03
DAV:  34    -0.236678924133E+03   -0.76887E-04   -0.61843E-06 31296   0.930E-03    0.457E-03
DAV:  35    -0.236679011075E+03   -0.86942E-04   -0.62953E-06 30032   0.105E-02    0.400E-03
DAV:  36    -0.236679113533E+03   -0.10246E-03   -0.11961E-05 30960   0.133E-02    0.380E-03
DAV:  37    -0.236679183921E+03   -0.70388E-04   -0.90647E-06 37000   0.948E-03    0.342E-03
DAV:  38    -0.236679237165E+03   -0.53244E-04   -0.42267E-06 29720   0.875E-03    0.290E-03
DAV:  39    -0.236679286085E+03   -0.48919E-04   -0.73897E-06 29608   0.103E-02    0.269E-03
DAV:  40    -0.236679334664E+03   -0.48579E-04   -0.79969E-06 31808   0.983E-03    0.233E-03
DAV:  41    -0.236679386255E+03   -0.51591E-04   -0.77313E-06 30632   0.110E-02    0.226E-03
DAV:  42    -0.236679424574E+03   -0.38318E-04   -0.58778E-06 31944   0.726E-03    0.180E-03
DAV:  43    -0.236679440575E+03   -0.16002E-04   -0.11450E-06 29504   0.414E-03    0.159E-03
DAV:  44    -0.236679449468E+03   -0.88931E-05   -0.54451E-07 29472   0.283E-03
   2 F= -.23667945E+03 E0= -.23667695E+03  d E =-.107975E+01  mag=    37.5059
 trial-energy change:   -1.079755  1 .order   -1.091099   -2.876334    0.694136
 step:   0.8026(harm=  0.8056)  dis= 0.01636  next Energy=  -236.748059 (dE=-0.115E+01)
 bond charge predicted
       N       E                     dE             d eps       ncg     rms          rms(c)
DAV:   1    -0.240251280753E+03   -0.35718E+01   -0.39504E+01 62336   0.391E+01    0.172E+01
DAV:   2    -0.237036544405E+03    0.32147E+01   -0.14209E+01 62360   0.232E+01    0.160E+01
DAV:   3    -0.236808100574E+03    0.22844E+00   -0.81248E-01 60784   0.650E+00    0.296E+00
DAV:   4    -0.236751345518E+03    0.56755E-01   -0.24835E-01 64696   0.462E+00    0.265E+00
DAV:   5    -0.236737677343E+03    0.13668E-01   -0.11907E-01 62200   0.437E+00    0.174E+00
DAV:   6    -0.236720832546E+03    0.16845E-01   -0.35537E-02 63040   0.172E+00    0.585E-01
DAV:   7    -0.236719195980E+03    0.16366E-02   -0.94663E-03 61992   0.103E+00    0.557E-01
DAV:   8    -0.236719311743E+03   -0.11576E-03   -0.45041E-03 62656   0.747E-01    0.228E-01
DAV:   9    -0.236720414323E+03   -0.11026E-02   -0.16698E-03 61680   0.373E-01    0.159E-01
DAV:  10    -0.236720528852E+03   -0.11453E-03   -0.59013E-04 61976   0.240E-01    0.661E-02
DAV:  11    -0.236720552611E+03   -0.23759E-04   -0.20615E-04 61856   0.882E-02    0.424E-02
DAV:  12    -0.236720631816E+03   -0.79205E-04   -0.59723E-05 56560   0.772E-02    0.323E-02
DAV:  13    -0.236720735333E+03   -0.10352E-03   -0.37910E-05 43416   0.497E-02    0.185E-02
DAV:  14    -0.236720812070E+03   -0.76737E-04   -0.35543E-05 42960   0.347E-02    0.165E-02
DAV:  15    -0.236720842533E+03   -0.30462E-04   -0.16313E-05 41456   0.230E-02    0.129E-02
DAV:  16    -0.236720885828E+03   -0.43295E-04   -0.28256E-05 36248   0.317E-02    0.105E-02
DAV:  17    -0.236720881249E+03    0.45790E-05   -0.41099E-05 43448   0.278E-02
   3 F= -.23672088E+03 E0= -.23671739E+03  d E =-.112119E+01  mag=    37.2635
 curvature:  -0.40 expect dE=-0.489E-01 dE for cont linesearch -0.340E-04
 trial: gam= 0.03683 g(F)=  0.900E-01 g(S)=  0.315E-01 ort = 0.156E-01 (trialstep = 0.961E+00)
 search vector abs. value=  0.127E+00
 bond charge predicted
       N       E                     dE             d eps       ncg     rms          rms(c)
DAV:   1    -0.236102402332E+03    0.61848E+00   -0.15671E+01 79416   0.552E+01    0.439E+00
DAV:   2    -0.236838911933E+03   -0.73651E+00   -0.72916E+00 60696   0.114E+01    0.298E+00
DAV:   3    -0.236842222934E+03   -0.33110E-02   -0.34105E-01 63576   0.479E+00    0.205E+00
DAV:   4    -0.236825038539E+03    0.17184E-01   -0.68735E-02 64160   0.317E+00    0.118E+00
DAV:   5    -0.236816284401E+03    0.87541E-02   -0.33618E-02 65576   0.186E+00    0.468E-01
DAV:   6    -0.236816161915E+03    0.12249E-03   -0.13046E-02 61424   0.958E-01    0.350E-01
DAV:   7    -0.236816042986E+03    0.11893E-03   -0.33133E-03 62744   0.548E-01    0.150E-01
DAV:   8    -0.236815990188E+03    0.52798E-04   -0.68202E-04 62528   0.185E-01    0.100E-01
DAV:   9    -0.236815954252E+03    0.35936E-04   -0.28919E-04 69664   0.961E-02    0.818E-02
DAV:  10    -0.236815674565E+03    0.27969E-03   -0.56841E-04 70536   0.140E-01    0.728E-02
DAV:  11    -0.236815504755E+03    0.16981E-03   -0.34969E-04 62832   0.105E-01    0.580E-02
DAV:  12    -0.236815222647E+03    0.28211E-03   -0.41915E-04 71248   0.122E-01    0.488E-02
DAV:  13    -0.236814588289E+03    0.63436E-03   -0.12061E-03 74336   0.166E-01    0.430E-02
DAV:  14    -0.236814344263E+03    0.24403E-03   -0.55382E-04 64368   0.875E-02    0.352E-02
DAV:  15    -0.236814191518E+03    0.15274E-03   -0.15561E-04 52160   0.501E-02    0.293E-02
DAV:  16    -0.236814014124E+03    0.17739E-03   -0.19429E-04 53880   0.551E-02    0.273E-02
DAV:  17    -0.236813889977E+03    0.12415E-03   -0.19530E-04 53736   0.564E-02    0.255E-02
DAV:  18    -0.236813789481E+03    0.10050E-03   -0.20293E-04 54392   0.585E-02    0.240E-02
DAV:  19    -0.236813683329E+03    0.10615E-03   -0.39339E-04 63568   0.751E-02    0.220E-02
DAV:  20    -0.236813627006E+03    0.56323E-04   -0.42786E-04 61496   0.725E-02    0.201E-02
DAV:  21    -0.236813557474E+03    0.69532E-04   -0.27142E-04 51312   0.576E-02    0.172E-02
DAV:  22    -0.236813465339E+03    0.92135E-04   -0.15907E-04 44168   0.435E-02    0.141E-02
DAV:  23    -0.236813325692E+03    0.13965E-03   -0.20531E-04 54400   0.528E-02    0.132E-02
DAV:  24    -0.236813215980E+03    0.10971E-03   -0.23144E-04 52696   0.520E-02    0.125E-02
DAV:  25    -0.236813107662E+03    0.10832E-03   -0.19983E-04 51152   0.483E-02    0.113E-02
DAV:  26    -0.236813001206E+03    0.10646E-03   -0.12347E-04 42784   0.343E-02    0.907E-03
DAV:  27    -0.236812880584E+03    0.12062E-03   -0.70990E-05 41656   0.284E-02    0.765E-03
DAV:  28    -0.236812786106E+03    0.94478E-04   -0.49312E-05 41152   0.229E-02    0.633E-03
DAV:  29    -0.236812717910E+03    0.68196E-04   -0.34352E-05 39808   0.206E-02    0.512E-03
DAV:  30    -0.236812662644E+03    0.55267E-04   -0.37724E-05 40328   0.217E-02    0.455E-03
DAV:  31    -0.236812613881E+03    0.48763E-04   -0.23143E-05 39680   0.151E-02    0.376E-03
DAV:  32    -0.236812575594E+03    0.38287E-04   -0.80365E-06 30912   0.106E-02    0.301E-03
DAV:  33    -0.236812557213E+03    0.18381E-04   -0.37190E-06 29896   0.668E-03    0.234E-03
DAV:  34    -0.236812539866E+03    0.17347E-04   -0.27922E-06 29824   0.704E-03    0.186E-03
DAV:  35    -0.236812526158E+03    0.13709E-04   -0.29248E-06 29728   0.595E-03    0.170E-03
DAV:  36    -0.236812518138E+03    0.80197E-05   -0.12355E-06 29656   0.390E-03
   4 F= -.23681252E+03 E0= -.23680931E+03  d E =-.916369E-01  mag=    37.2552
 trial-energy change:   -0.091637  1 .order   -0.099193   -0.117253   -0.081133
 step:   3.1181(harm=  3.1181)  dis= 0.04563  next Energy=  -236.911196 (dE=-0.190E+00)
 bond charge predicted
       N       E                     dE             d eps       ncg     rms          rms(c)
DAV:   1    -0.233212340012E+03    0.36002E+01   -0.78287E+01 79416   0.124E+02    0.981E+00
DAV:   2    -0.236983533106E+03   -0.37712E+01   -0.37351E+01 60720   0.252E+01    0.663E+00
DAV:   3    -0.236997621129E+03   -0.14088E-01   -0.15813E+00 65080   0.933E+00    0.428E+00
DAV:   4    -0.236920720714E+03    0.76900E-01   -0.29499E-01 65160   0.644E+00    0.278E+00
DAV:   5    -0.236877365190E+03    0.43356E-01   -0.14364E-01 63416   0.405E+00    0.111E+00
DAV:   6    -0.236880730708E+03   -0.33655E-02   -0.62355E-02 61680   0.209E+00    0.747E-01
DAV:   7    -0.236881468622E+03   -0.73791E-03   -0.15937E-02 61872   0.128E+00    0.318E-01
DAV:   8    -0.236882776870E+03   -0.13082E-02   -0.32854E-03 62392   0.429E-01    0.196E-01
DAV:   9    -0.236883996958E+03   -0.12201E-02   -0.10283E-03 69280   0.191E-01    0.151E-01
DAV:  10    -0.236885051064E+03   -0.10541E-02   -0.12824E-03 70104   0.238E-01    0.128E-01
DAV:  11    -0.236885528004E+03   -0.47694E-03   -0.76520E-04 67848   0.181E-01    0.946E-02
DAV:  12    -0.236886162489E+03   -0.63449E-03   -0.79193E-04 73664   0.193E-01    0.784E-02
DAV:  13    -0.236886552969E+03   -0.39048E-03   -0.14542E-03 78424   0.197E-01    0.630E-02
DAV:  14    -0.236886796417E+03   -0.24345E-03   -0.74501E-04 66544   0.120E-01    0.503E-02
DAV:  15    -0.236887000598E+03   -0.20418E-03   -0.25397E-04 62664   0.769E-02    0.398E-02
DAV:  16    -0.236887188670E+03   -0.18807E-03   -0.27771E-04 61000   0.698E-02    0.347E-02
DAV:  17    -0.236887399602E+03   -0.21093E-03   -0.22371E-04 55536   0.616E-02    0.321E-02
DAV:  18    -0.236887573251E+03   -0.17365E-03   -0.15260E-04 46896   0.532E-02    0.283E-02
DAV:  19    -0.236887794883E+03   -0.22163E-03   -0.27776E-04 58248   0.660E-02    0.256E-02
DAV:  20    -0.236887998754E+03   -0.20387E-03   -0.32276E-04 59096   0.654E-02    0.225E-02
DAV:  21    -0.236888188222E+03   -0.18947E-03   -0.24021E-04 54304   0.568E-02    0.204E-02
DAV:  22    -0.236888355641E+03   -0.16742E-03   -0.21246E-04 49656   0.527E-02    0.170E-02
DAV:  23    -0.236888524946E+03   -0.16930E-03   -0.29303E-04 58656   0.610E-02    0.156E-02
DAV:  24    -0.236888631442E+03   -0.10650E-03   -0.21445E-04 46664   0.464E-02    0.138E-02
DAV:  25    -0.236888712348E+03   -0.80906E-04   -0.14076E-04 47328   0.415E-02    0.108E-02
DAV:  26    -0.236888741819E+03   -0.29471E-04   -0.92869E-05 41704   0.301E-02    0.884E-03
DAV:  27    -0.236888771374E+03   -0.29555E-04   -0.67257E-05 45312   0.300E-02    0.714E-03
DAV:  28    -0.236888801836E+03   -0.30462E-04   -0.53290E-05 42640   0.237E-02    0.620E-03
DAV:  29    -0.236888823282E+03   -0.21446E-04   -0.29684E-05 39576   0.196E-02    0.489E-03
DAV:  30    -0.236888816158E+03    0.71243E-05   -0.15932E-05 37768   0.137E-02
   5 F= -.23688882E+03 E0= -.23688625E+03  d E =-.167935E+00  mag=    37.2374
 curvature:  -1.62 expect dE=-0.980E-01 dE for cont linesearch -0.323E-02
 ZBRENT: interpolating
 opt :   2.7764  next Energy=  -236.891531 (dE=-0.171E+00)
 bond charge predicted
       N       E                     dE             d eps       ncg     rms          rms(c)
DAV:   1    -0.236801811901E+03    0.87011E-01   -0.19831E+00 79368   0.197E+01    0.155E+00
DAV:   2    -0.236892232724E+03   -0.90421E-01   -0.91407E-01 60720   0.403E+00    0.106E+00
DAV:   3    -0.236893283590E+03   -0.10509E-02   -0.41363E-02 62544   0.166E+00    0.708E-01
DAV:   4    -0.236891407178E+03    0.18764E-02   -0.89013E-03 63240   0.117E+00    0.420E-01
DAV:   5    -0.236889823176E+03    0.15840E-02   -0.42502E-03 66152   0.675E-01    0.166E-01
DAV:   6    -0.236890417478E+03   -0.59430E-03   -0.16157E-03 61840   0.361E-01    0.131E-01
DAV:   7    -0.236890524303E+03   -0.10682E-03   -0.45372E-04 61904   0.211E-01    0.476E-02
DAV:   8    -0.236890688633E+03   -0.16433E-03   -0.84876E-05 62216   0.603E-02    0.298E-02
DAV:   9    -0.236890775866E+03   -0.87233E-04   -0.21385E-05 39856   0.294E-02    0.231E-02
DAV:  10    -0.236890916436E+03   -0.14057E-03   -0.32812E-05 42584   0.363E-02    0.184E-02
DAV:  11    -0.236890959125E+03   -0.42688E-04   -0.19380E-05 39472   0.290E-02    0.146E-02
DAV:  12    -0.236891036831E+03   -0.77706E-04   -0.14609E-05 33096   0.285E-02    0.112E-02
DAV:  13    -0.236891162354E+03   -0.12552E-03   -0.37340E-05 48368   0.334E-02    0.854E-03
DAV:  14    -0.236891191039E+03   -0.28686E-04   -0.18554E-05 38200   0.184E-02    0.710E-03
DAV:  15    -0.236891204058E+03   -0.13018E-04   -0.48645E-06 30712   0.135E-02    0.472E-03
DAV:  16    -0.236891199200E+03    0.48572E-05   -0.44918E-06 30536   0.922E-03
   6 F= -.23689120E+03 E0= -.23688855E+03  d E =-.170318E+00  mag=    37.2365
 curvature:  -1.36 expect dE=-0.614E-01 dE for cont linesearch -0.317E-04
 trial: gam= 0.37108 g(F)=  0.403E-01 g(S)=  0.482E-02 ort =-0.172E-02 (trialstep = 0.132E+01)
 search vector abs. value=  0.613E-01
 bond charge predicted
       N       E                     dE             d eps       ncg     rms          rms(c)
DAV:   1    -0.235867830380E+03    0.10234E+01   -0.20090E+01 82864   0.689E+01    0.449E+00
DAV:   2    -0.236886722937E+03   -0.10189E+01   -0.92441E+00 58256   0.116E+01    0.207E+00
DAV:   3    -0.236936039369E+03   -0.49316E-01   -0.33814E-01 64984   0.302E+00    0.908E-01
DAV:   4    -0.236937406475E+03   -0.13671E-02   -0.27086E-02 65168   0.155E+00    0.752E-01
DAV:   5    -0.236937074890E+03    0.33159E-03   -0.81087E-03 63056   0.118E+00    0.424E-01
DAV:   6    -0.236937463558E+03   -0.38867E-03   -0.36350E-03 62824   0.621E-01    0.223E-01
DAV:   7    -0.236937958765E+03   -0.49521E-03   -0.16578E-03 62264   0.373E-01    0.164E-01
DAV:   8    -0.236938308053E+03   -0.34929E-03   -0.57818E-04 61080   0.236E-01    0.986E-02
DAV:   9    -0.236938796950E+03   -0.48890E-03   -0.33273E-04 62192   0.118E-01    0.630E-02
DAV:  10    -0.236939332859E+03   -0.53591E-03   -0.16911E-04 61432   0.724E-02    0.512E-02
DAV:  11    -0.236939646306E+03   -0.31345E-03   -0.70217E-05 51688   0.677E-02    0.475E-02
DAV:  12    -0.236940055717E+03   -0.40941E-03   -0.92285E-05 53800   0.615E-02    0.370E-02
DAV:  13    -0.236940905722E+03   -0.85001E-03   -0.33014E-04 67480   0.973E-02    0.285E-02
DAV:  14    -0.236941282827E+03   -0.37711E-03   -0.22742E-04 59240   0.662E-02    0.217E-02
DAV:  15    -0.236941408123E+03   -0.12530E-03   -0.62138E-05 44216   0.393E-02    0.161E-02
DAV:  16    -0.236941523461E+03   -0.11534E-03   -0.37587E-05 42072   0.320E-02    0.124E-02
DAV:  17    -0.236941647422E+03   -0.12396E-03   -0.35421E-05 41472   0.301E-02    0.103E-02
DAV:  18    -0.236941693533E+03   -0.46110E-04   -0.25303E-05 40816   0.236E-02    0.862E-03
DAV:  19    -0.236941691443E+03    0.20903E-05   -0.12744E-05 33608   0.185E-02
   7 F= -.23694169E+03 E0= -.23693919E+03  d E =-.504922E-01  mag=    37.1747
 trial-energy change:   -0.050492  1 .order   -0.044823   -0.058911   -0.030735
 step:   1.8593(harm=  2.7676)  dis= 0.02764  next Energy=  -236.948286 (dE=-0.571E-01)
 bond charge predicted
       N       E                     dE             d eps       ncg     rms          rms(c)
DAV:   1    -0.236771505644E+03    0.17019E+00   -0.33053E+00 82760   0.279E+01    0.182E+00
DAV:   2    -0.236937600926E+03   -0.16610E+00   -0.15268E+00 58248   0.474E+00    0.865E-01
DAV:   3    -0.236947894130E+03   -0.10293E-01   -0.55205E-02 64656   0.122E+00    0.359E-01
DAV:   4    -0.236948284598E+03   -0.39047E-03   -0.43738E-03 65792   0.518E-01    0.291E-01
DAV:   5    -0.236948511499E+03   -0.22690E-03   -0.12748E-03 63096   0.513E-01    0.187E-01
DAV:   6    -0.236948614704E+03   -0.10320E-03   -0.63762E-04 62616   0.280E-01    0.835E-02
DAV:   7    -0.236948779435E+03   -0.16473E-03   -0.26507E-04 63088   0.139E-01    0.647E-02
DAV:   8    -0.236948827677E+03   -0.48242E-04   -0.95687E-05 61072   0.947E-02    0.415E-02
DAV:   9    -0.236948994768E+03   -0.16709E-03   -0.49122E-05 49552   0.435E-02    0.268E-02
DAV:  10    -0.236949199270E+03   -0.20450E-03   -0.31276E-05 42840   0.322E-02    0.222E-02
DAV:  11    -0.236949292538E+03   -0.93269E-04   -0.15653E-05 41376   0.308E-02    0.208E-02
DAV:  12    -0.236949406191E+03   -0.11365E-03   -0.17645E-05 37048   0.291E-02    0.158E-02
DAV:  13    -0.236949709639E+03   -0.30345E-03   -0.75396E-05 52032   0.453E-02    0.125E-02
DAV:  14    -0.236949825793E+03   -0.11615E-03   -0.43049E-05 41872   0.305E-02    0.956E-03
DAV:  15    -0.236949871293E+03   -0.45500E-04   -0.14429E-05 38816   0.180E-02    0.768E-03
DAV:  16    -0.236949897298E+03   -0.26005E-04   -0.81148E-06 30792   0.158E-02    0.572E-03
DAV:  17    -0.236949930024E+03   -0.32725E-04   -0.78706E-06 30440   0.135E-02    0.497E-03
DAV:  18    -0.236949947427E+03   -0.17403E-04   -0.51969E-06 29960   0.112E-02    0.396E-03
DAV:  19    -0.236949949391E+03   -0.19642E-05   -0.36417E-06 30008   0.919E-03
   8 F= -.23694995E+03 E0= -.23694748E+03  d E =-.587502E-01  mag=    37.1521
 curvature:  -1.15 expect dE=-0.193E-01 dE for cont linesearch -0.464E-03
 ZBRENT: extrapolating
 opt :   2.0053  next Energy=  -236.950312 (dE=-0.591E-01)
 bond charge predicted
       N       E                     dE             d eps       ncg     rms          rms(c)
DAV:   1    -0.236937279036E+03    0.12668E-01   -0.24517E-01 82576   0.762E+00    0.495E-01
DAV:   2    -0.236948735349E+03   -0.11456E-01   -0.11416E-01 58248   0.130E+00    0.244E-01
DAV:   3    -0.236950312775E+03   -0.15774E-02   -0.41108E-03 64608   0.348E-01    0.106E-01
DAV:   4    -0.236950413264E+03   -0.10049E-03   -0.37424E-04 64824   0.179E-01    0.903E-02
DAV:   5    -0.236950503302E+03   -0.90038E-04   -0.11389E-04 62264   0.154E-01    0.493E-02
DAV:   6    -0.236950560848E+03   -0.57546E-04   -0.54476E-05 60352   0.711E-02    0.223E-02
DAV:   7    -0.236950588187E+03   -0.27339E-04   -0.19393E-05 37416   0.372E-02    0.177E-02
DAV:   8    -0.236950593430E+03   -0.52431E-05   -0.82803E-06 31952   0.291E-02
   9 F= -.23695059E+03 E0= -.23694813E+03  d E =-.593942E-01  mag=    37.1472
 curvature:  -0.90 expect dE=-0.162E-01 dE for cont linesearch -0.408E-04
 trial: gam= 0.23474 g(F)=  0.112E-01 g(S)=  0.679E-02 ort = 0.167E-02 (trialstep = 0.146E+01)
 search vector abs. value=  0.222E-01
 bond charge predicted
       N       E                     dE             d eps       ncg     rms          rms(c)
DAV:   1    -0.236757738599E+03    0.19285E+00   -0.82305E+00 79200   0.395E+01    0.414E+00
DAV:   2    -0.236973709673E+03   -0.21597E+00   -0.36681E+00 60824   0.898E+00    0.208E+00
DAV:   3    -0.236973234288E+03    0.47539E-03   -0.19442E-01 63160   0.336E+00    0.161E+00
DAV:   4    -0.236967022357E+03    0.62119E-02   -0.39548E-02 62872   0.245E+00    0.828E-01
DAV:   5    -0.236964256575E+03    0.27658E-02   -0.14340E-02 64280   0.150E+00    0.461E-01
DAV:   6    -0.236965086529E+03   -0.82995E-03   -0.69216E-03 62240   0.715E-01    0.247E-01
DAV:   7    -0.236965528608E+03   -0.44208E-03   -0.20438E-03 61648   0.476E-01    0.184E-01
DAV:   8    -0.236965980106E+03   -0.45150E-03   -0.54955E-04 61776   0.212E-01    0.904E-02
DAV:   9    -0.236966226482E+03   -0.24638E-03   -0.27181E-04 66616   0.911E-02    0.609E-02
DAV:  10    -0.236966240902E+03   -0.14419E-04   -0.10165E-04 58928   0.775E-02    0.451E-02
DAV:  11    -0.236966277239E+03   -0.36337E-04   -0.41179E-05 45272   0.622E-02    0.363E-02
DAV:  12    -0.236966386511E+03   -0.10927E-03   -0.50633E-05 52240   0.550E-02    0.279E-02
DAV:  13    -0.236966416448E+03   -0.29937E-04   -0.68028E-05 50872   0.505E-02    0.235E-02
DAV:  14    -0.236966423185E+03   -0.67372E-05   -0.52625E-05 43176   0.427E-02
  10 F= -.23696642E+03 E0= -.23696393E+03  d E =-.158298E-01  mag=    37.2342
 trial-energy change:   -0.015830  1 .order   -0.012286   -0.026847    0.002274
 step:   1.3928(harm=  1.3460)  dis= 0.01234  next Energy=  -236.966475 (dE=-0.159E-01)
 bond charge predicted
       N       E                     dE             d eps       ncg     rms          rms(c)
DAV:   1    -0.236966003173E+03    0.41328E-03   -0.17261E-02 79272   0.182E+00    0.191E-01
DAV:   2    -0.236965903019E+03    0.10015E-03   -0.75972E-03 60824   0.409E-01    0.968E-02
DAV:   3    -0.236966308237E+03   -0.40522E-03   -0.41673E-04 63408   0.156E-01    0.732E-02
DAV:   4    -0.236966383629E+03   -0.75392E-04   -0.80632E-05 62880   0.116E-01    0.394E-02
DAV:   5    -0.236966408742E+03   -0.25113E-04   -0.30791E-05 47728   0.714E-02    0.238E-02
DAV:   6    -0.236966381262E+03    0.27481E-04   -0.17227E-05 34592   0.380E-02    0.143E-02
DAV:   7    -0.236966368159E+03    0.13103E-04   -0.83280E-06 30376   0.254E-02    0.124E-02
DAV:   8    -0.236966354836E+03    0.13323E-04   -0.43584E-06 29680   0.150E-02    0.866E-03
DAV:   9    -0.236966367558E+03   -0.12723E-04   -0.52456E-06 29624   0.106E-02    0.770E-03
DAV:  10    -0.236966386103E+03   -0.18545E-04   -0.58036E-06 29656   0.123E-02    0.704E-03
DAV:  11    -0.236966390495E+03   -0.43924E-05   -0.34711E-06 29624   0.863E-03
  11 F= -.23696639E+03 E0= -.23696391E+03  d E =-.157971E-01  mag=    37.2314
 curvature:  -0.67 expect dE=-0.507E-02 dE for cont linesearch -0.280E-05
 trial: gam= 0.47425 g(F)=  0.537E-02 g(S)=  0.214E-02 ort =-0.303E-03 (trialstep = 0.145E+01)
 search vector abs. value=  0.122E-01
 bond charge predicted
       N       E                     dE             d eps       ncg     rms          rms(c)
DAV:   1    -0.236762765325E+03    0.20362E+00   -0.40863E+00 79392   0.304E+01    0.213E+00
DAV:   2    -0.236959577085E+03   -0.19681E+00   -0.19034E+00 59464   0.541E+00    0.112E+00
DAV:   3    -0.236972206796E+03   -0.12630E-01   -0.73394E-02 64472   0.188E+00    0.703E-01
DAV:   4    -0.236972250257E+03   -0.43461E-04   -0.11892E-02 61656   0.131E+00    0.448E-01
DAV:   5    -0.236971388784E+03    0.86147E-03   -0.36344E-03 62264   0.674E-01    0.193E-01
DAV:   6    -0.236971784891E+03   -0.39611E-03   -0.16564E-03 63296   0.312E-01    0.130E-01
DAV:   7    -0.236971703227E+03    0.81664E-04   -0.57687E-04 61664   0.250E-01    0.792E-02
DAV:   8    -0.236971640123E+03    0.63104E-04   -0.13955E-04 62856   0.878E-02    0.412E-02
DAV:   9    -0.236971699165E+03   -0.59042E-04   -0.62056E-05 58056   0.434E-02    0.301E-02
DAV:  10    -0.236971804285E+03   -0.10512E-03   -0.31079E-05 43136   0.433E-02    0.233E-02
DAV:  11    -0.236971842560E+03   -0.38275E-04   -0.15364E-05 41824   0.317E-02    0.185E-02
DAV:  12    -0.236971888845E+03   -0.46285E-04   -0.14753E-05 37128   0.272E-02    0.143E-02
DAV:  13    -0.236971979688E+03   -0.90844E-04   -0.31594E-05 43928   0.312E-02    0.123E-02
DAV:  14    -0.236972010994E+03   -0.31306E-04   -0.20925E-05 40968   0.256E-02    0.904E-03
DAV:  15    -0.236972029994E+03   -0.19000E-04   -0.13252E-05 32744   0.184E-02    0.748E-03
DAV:  16    -0.236972043623E+03   -0.13629E-04   -0.12916E-05 35976   0.171E-02    0.619E-03
DAV:  17    -0.236972042492E+03    0.11308E-05   -0.68550E-06 30624   0.130E-02
  12 F= -.23697204E+03 E0= -.23696957E+03  d E =-.565200E-02  mag=    37.1926
 trial-energy change:   -0.005652  1 .order   -0.006804   -0.010661   -0.002946
 step:   1.9991(harm=  1.9991)  dis= 0.01555  next Energy=  -236.973757 (dE=-0.737E-02)
 bond charge predicted
       N       E                     dE             d eps       ncg     rms          rms(c)
DAV:   1    -0.236942363192E+03    0.29680E-01   -0.59734E-01 79336   0.116E+01    0.814E-01
DAV:   2    -0.236969323379E+03   -0.26960E-01   -0.27834E-01 59512   0.207E+00    0.424E-01
DAV:   3    -0.236972511128E+03   -0.31877E-02   -0.10538E-02 65032   0.673E-01    0.247E-01
DAV:   4    -0.236972617029E+03   -0.10590E-03   -0.15062E-03 61912   0.467E-01    0.178E-01
DAV:   5    -0.236972435121E+03    0.18191E-03   -0.49543E-04 61888   0.278E-01    0.760E-02
DAV:   6    -0.236972579167E+03   -0.14405E-03   -0.24019E-04 65392   0.120E-01    0.480E-02
DAV:   7    -0.236972543436E+03    0.35731E-04   -0.78958E-05 61600   0.926E-02    0.315E-02
DAV:   8    -0.236972512247E+03    0.31189E-04   -0.19298E-05 36792   0.355E-02    0.165E-02
DAV:   9    -0.236972526839E+03   -0.14592E-04   -0.11023E-05 34400   0.196E-02    0.128E-02
DAV:  10    -0.236972563037E+03   -0.36198E-04   -0.66456E-06 32104   0.172E-02    0.102E-02
DAV:  11    -0.236972581764E+03   -0.18728E-04   -0.35243E-06 31064   0.143E-02    0.846E-03
DAV:  12    -0.236972598844E+03   -0.17080E-04   -0.33735E-06 30712   0.121E-02    0.664E-03
DAV:  13    -0.236972627135E+03   -0.28291E-04   -0.67597E-06 31320   0.141E-02    0.574E-03
DAV:  14    -0.236972638306E+03   -0.11170E-04   -0.59794E-06 31896   0.118E-02    0.457E-03
DAV:  15    -0.236972644138E+03   -0.58328E-05   -0.27113E-06 29984   0.856E-03
  13 F= -.23697264E+03 E0= -.23697019E+03  d E =-.625364E-02  mag=    37.1775
 curvature:  -1.66 expect dE=-0.104E-01 dE for cont linesearch -0.101E-03
 trial: gam= 0.60359 g(F)=  0.579E-02 g(S)=  0.521E-03 ort = 0.864E-03 (trialstep = 0.156E+01)
 search vector abs. value=  0.118E-01
 bond charge predicted
       N       E                     dE             d eps       ncg     rms          rms(c)
DAV:   1    -0.236697926556E+03    0.27471E+00   -0.49355E+00 81584   0.340E+01    0.208E+00
DAV:   2    -0.236968698080E+03   -0.27077E+00   -0.23056E+00 58520   0.573E+00    0.108E+00
DAV:   3    -0.236977975834E+03   -0.92778E-02   -0.83765E-02 64168   0.184E+00    0.570E-01
DAV:   4    -0.236977940384E+03    0.35450E-04   -0.93362E-03 63608   0.847E-01    0.307E-01
DAV:   5    -0.236977411154E+03    0.52923E-03   -0.17811E-03 67168   0.384E-01    0.192E-01
DAV:   6    -0.236977169144E+03    0.24201E-03   -0.80208E-04 66728   0.325E-01    0.129E-01
DAV:   7    -0.236977182429E+03   -0.13284E-04   -0.46991E-04 61744   0.244E-01    0.562E-02
DAV:   8    -0.236977201628E+03   -0.19199E-04   -0.17029E-04 62192   0.924E-02    0.302E-02
DAV:   9    -0.236977154239E+03    0.47389E-04   -0.31887E-05 48160   0.325E-02    0.234E-02
DAV:  10    -0.236977081480E+03    0.72759E-04   -0.21947E-05 41520   0.371E-02    0.207E-02
DAV:  11    -0.236976998596E+03    0.82884E-04   -0.26186E-05 42600   0.308E-02    0.140E-02
DAV:  12    -0.236976928527E+03    0.70069E-04   -0.21643E-05 41208   0.233E-02    0.114E-02
DAV:  13    -0.236976847177E+03    0.81350E-04   -0.17747E-05 36320   0.241E-02    0.107E-02
DAV:  14    -0.236976779727E+03    0.67450E-04   -0.18492E-05 40184   0.223E-02    0.716E-03
DAV:  15    -0.236976747340E+03    0.32388E-04   -0.94454E-06 35952   0.144E-02    0.541E-03
DAV:  16    -0.236976726919E+03    0.20420E-04   -0.37179E-06 30544   0.918E-03    0.451E-03
DAV:  17    -0.236976713369E+03    0.13550E-04   -0.21921E-06 30232   0.789E-03    0.382E-03
DAV:  18    -0.236976702333E+03    0.11036E-04   -0.19771E-06 30072   0.688E-03    0.315E-03
DAV:  19    -0.236976691120E+03    0.11213E-04   -0.38520E-06 30000   0.945E-03    0.285E-03
DAV:  20    -0.236976692593E+03   -0.14734E-05   -0.22818E-06 29824   0.512E-03
  14 F= -.23697669E+03 E0= -.23697428E+03  d E =-.404845E-02  mag=    37.1656
 trial-energy change:   -0.004048  1 .order   -0.005206   -0.010633    0.000221
 step:   1.4764(harm=  1.5253)  dis= 0.01358  next Energy=  -236.976698 (dE=-0.405E-02)
 bond charge predicted
       N       E                     dE             d eps       ncg     rms          rms(c)
DAV:   1    -0.236975976672E+03    0.71445E-03   -0.13257E-02 81912   0.176E+00    0.108E-01
DAV:   2    -0.236976601509E+03   -0.62484E-03   -0.61514E-03 58576   0.296E-01    0.547E-02
DAV:   3    -0.236976662472E+03   -0.60962E-04   -0.22668E-04 65072   0.946E-02    0.287E-02
DAV:   4    -0.236976672923E+03   -0.10451E-04   -0.21689E-05 39352   0.408E-02    0.156E-02
DAV:   5    -0.236976692690E+03   -0.19767E-04   -0.46756E-06 29776   0.198E-02    0.967E-03
DAV:   6    -0.236976703700E+03   -0.11010E-04   -0.25906E-06 29472   0.150E-02    0.567E-03
DAV:   7    -0.236976706532E+03   -0.28326E-05   -0.17526E-06 29272   0.119E-02
  15 F= -.23697671E+03 E0= -.23697429E+03  d E =-.406239E-02  mag=    37.1659
 curvature:   1.82 expect dE= 0.485E-02 dE for cont linesearch  0.932E-06
 trial: gam= 0.25104 g(F)=  0.256E-02 g(S)=  0.114E-03 ort = 0.778E-04 (trialstep = 0.154E+01)
 search vector abs. value=  0.346E-02
 bond charge predicted
       N       E                     dE             d eps       ncg     rms          rms(c)
DAV:   1    -0.236900479361E+03    0.76224E-01   -0.14495E+00 81608   0.184E+01    0.115E+00
DAV:   2    -0.236978727733E+03   -0.78248E-01   -0.66120E-01 58696   0.314E+00    0.626E-01
DAV:   3    -0.236980533208E+03   -0.18055E-02   -0.25937E-02 63312   0.117E+00    0.376E-01
DAV:   4    -0.236980388737E+03    0.14447E-03   -0.35809E-03 61552   0.616E-01    0.184E-01
DAV:   5    -0.236980366949E+03    0.21788E-04   -0.95680E-04 67816   0.275E-01    0.109E-01
DAV:   6    -0.236980287769E+03    0.79181E-04   -0.32901E-04 65552   0.179E-01    0.770E-02
DAV:   7    -0.236980344830E+03   -0.57062E-04   -0.15738E-04 61600   0.144E-01    0.363E-02
DAV:   8    -0.236980411020E+03   -0.66190E-04   -0.50952E-05 60656   0.513E-02    0.192E-02
DAV:   9    -0.236980419047E+03   -0.80269E-05   -0.13139E-05 33776   0.232E-02
  16 F= -.23698042E+03 E0= -.23697800E+03  d E =-.371251E-02  mag=    37.1728
 trial-energy change:   -0.003713  1 .order   -0.003316   -0.004151   -0.002482
 step:   2.2788(harm=  3.8328)  dis= 0.00834  next Energy=  -236.981057 (dE=-0.435E-02)
 bond charge predicted
       N       E                     dE             d eps       ncg     rms          rms(c)
DAV:   1    -0.236962973067E+03    0.17438E-01   -0.33306E-01 81472   0.883E+00    0.549E-01
DAV:   2    -0.236981406186E+03   -0.18433E-01   -0.15152E-01 58880   0.150E+00    0.294E-01
DAV:   3    -0.236981528204E+03   -0.12202E-03   -0.58653E-03 63824   0.546E-01    0.175E-01
DAV:   4    -0.236981488263E+03    0.39940E-04   -0.79848E-04 62176   0.286E-01    0.895E-02
DAV:   5    -0.236981499868E+03   -0.11605E-04   -0.20672E-04 67296   0.133E-01    0.533E-02
DAV:   6    -0.236981457955E+03    0.41913E-04   -0.86697E-05 64344   0.811E-02    0.365E-02
DAV:   7    -0.236981489448E+03   -0.31493E-04   -0.38935E-05 55416   0.672E-02    0.223E-02
DAV:   8    -0.236981518733E+03   -0.29285E-04   -0.13849E-05 33104   0.283E-02    0.148E-02
DAV:   9    -0.236981523096E+03   -0.43631E-05   -0.11167E-05 31984   0.196E-02
  17 F= -.23698152E+03 E0= -.23697911E+03  d E =-.481656E-02  mag=    37.1761
 curvature:  -1.33 expect dE=-0.334E-02 dE for cont linesearch -0.263E-03
 ZBRENT: increasing intervall
 opt :   3.7544  next Energy=  -236.981587 (dE=-0.488E-02)
 bond charge predicted
       N       E                     dE             d eps       ncg     rms          rms(c)
DAV:   1    -0.236907873814E+03    0.73645E-01   -0.13320E+00 81576   0.177E+01    0.110E+00
DAV:   2    -0.236980242528E+03   -0.72369E-01   -0.60670E-01 58704   0.301E+00    0.599E-01
DAV:   3    -0.236981737932E+03   -0.14954E-02   -0.23791E-02 63448   0.112E+00    0.359E-01
DAV:   4    -0.236981589816E+03    0.14812E-03   -0.32820E-03 61632   0.591E-01    0.177E-01
DAV:   5    -0.236981549319E+03    0.40497E-04   -0.87976E-04 67824   0.265E-01    0.105E-01
DAV:   6    -0.236981461006E+03    0.88313E-04   -0.31644E-04 66616   0.168E-01    0.734E-02
DAV:   7    -0.236981509922E+03   -0.48916E-04   -0.15005E-04 61560   0.135E-01    0.385E-02
DAV:   8    -0.236981563941E+03   -0.54019E-04   -0.50656E-05 60448   0.519E-02    0.231E-02
DAV:   9    -0.236981561822E+03    0.21193E-05   -0.19836E-05 38128   0.270E-02
  18 F= -.23698156E+03 E0= -.23697913E+03  d E =-.485529E-02  mag=    37.1827
 curvature:  -0.32 expect dE=-0.166E-02 dE for cont linesearch -0.128E-03
 ZBRENT: bracketing found
 ZBRENT: interpolating
 opt :   2.8903  next Energy=  -236.981776 (dE=-0.507E-02)
 bond charge predicted
       N       E                     dE             d eps       ncg     rms          rms(c)
DAV:   1    -0.236957551537E+03    0.24012E-01   -0.45699E-01 81712   0.103E+01    0.645E-01
DAV:   2    -0.236980284574E+03   -0.22733E-01   -0.20685E-01 58592   0.175E+00    0.335E-01
DAV:   3    -0.236981860501E+03   -0.15759E-02   -0.79819E-03 64112   0.624E-01    0.198E-01
DAV:   4    -0.236981879251E+03   -0.18750E-04   -0.10301E-03 62584   0.317E-01    0.102E-01
DAV:   5    -0.236981824144E+03    0.55107E-04   -0.23896E-04 65976   0.149E-01    0.579E-02
DAV:   6    -0.236981858570E+03   -0.34425E-04   -0.95244E-05 64104   0.907E-02    0.355E-02
DAV:   7    -0.236981832501E+03    0.26069E-04   -0.42599E-05 58584   0.697E-02    0.200E-02
DAV:   8    -0.236981812069E+03    0.20432E-04   -0.11132E-05 32552   0.299E-02    0.835E-03
DAV:   9    -0.236981811879E+03    0.19001E-06   -0.36441E-06 31200   0.117E-02
  19 F= -.23698181E+03 E0= -.23697939E+03  d E =-.510535E-02  mag=    37.1787
 curvature:  -0.64 expect dE=-0.204E-02 dE for cont linesearch -0.372E-05
 trial: gam= 1.15982 g(F)=  0.281E-02 g(S)=  0.383E-03 ort = 0.142E-03 (trialstep = 0.766E+00)
 search vector abs. value=  0.817E-02
 bond charge predicted
       N       E                     dE             d eps       ncg     rms          rms(c)
DAV:   1    -0.236937264932E+03    0.44547E-01   -0.84796E-01 81944   0.141E+01    0.903E-01
DAV:   2    -0.236979813371E+03   -0.42548E-01   -0.38875E-01 58560   0.239E+00    0.459E-01
DAV:   3    -0.236983272170E+03   -0.34588E-02   -0.14601E-02 64624   0.767E-01    0.242E-01
DAV:   4    -0.236983462852E+03   -0.19068E-03   -0.16501E-03 63224   0.416E-01    0.153E-01
DAV:   5    -0.236983601079E+03   -0.13823E-03   -0.43211E-04 64680   0.245E-01    0.810E-02
DAV:   6    -0.236983706572E+03   -0.10549E-03   -0.20176E-04 64360   0.128E-01    0.507E-02
DAV:   7    -0.236983731054E+03   -0.24482E-04   -0.84292E-05 61216   0.994E-02    0.328E-02
DAV:   8    -0.236983737004E+03   -0.59503E-05   -0.25880E-05 45736   0.434E-02
  20 F= -.23698374E+03 E0= -.23698131E+03  d E =-.192513E-02  mag=    37.1707
 trial-energy change:   -0.001925  1 .order   -0.001684   -0.002573   -0.000794
 step:   0.9369(harm=  1.1076)  dis= 0.00741  next Energy=  -236.983828 (dE=-0.202E-02)
 bond charge predicted
       N       E                     dE             d eps       ncg     rms          rms(c)
DAV:   1    -0.236981537812E+03    0.21932E-02   -0.42428E-02 81960   0.315E+00    0.200E-01
DAV:   2    -0.236983414476E+03   -0.18767E-02   -0.19611E-02 59000   0.538E-01    0.105E-01
DAV:   3    -0.236983918140E+03   -0.50366E-03   -0.73125E-04 64776   0.168E-01    0.538E-02
DAV:   4    -0.236983972615E+03   -0.54474E-04   -0.80979E-05 61752   0.910E-02    0.366E-02
DAV:   5    -0.236984029048E+03   -0.56434E-04   -0.23107E-05 40576   0.582E-02    0.215E-02
DAV:   6    -0.236984084438E+03   -0.55390E-04   -0.14371E-05 33992   0.332E-02    0.153E-02
DAV:   7    -0.236984096303E+03   -0.11865E-04   -0.82868E-06 31296   0.260E-02    0.114E-02
DAV:   8    -0.236984106254E+03   -0.99508E-05   -0.41259E-06 30648   0.138E-02
  21 F= -.23698411E+03 E0= -.23698168E+03  d E =-.229438E-02  mag=    37.1677
 curvature:  -1.01 expect dE=-0.382E-02 dE for cont linesearch -0.494E-04
 trial: gam= 0.59801 g(F)=  0.364E-02 g(S)=  0.144E-03 ort = 0.632E-03 (trialstep = 0.800E+00)
 search vector abs. value=  0.746E-02
 bond charge predicted
       N       E                     dE             d eps       ncg     rms          rms(c)
DAV:   1    -0.236941860634E+03    0.42236E-01   -0.81581E-01 81280   0.138E+01    0.862E-01
DAV:   2    -0.236985009569E+03   -0.43149E-01   -0.37874E-01 58968   0.234E+00    0.427E-01
DAV:   3    -0.236987181707E+03   -0.21721E-02   -0.13215E-02 66560   0.612E-01    0.188E-01
DAV:   4    -0.236987279157E+03   -0.97450E-04   -0.10900E-03 65224   0.292E-01    0.150E-01
DAV:   5    -0.236987393045E+03   -0.11389E-03   -0.26733E-04 65320   0.231E-01    0.760E-02
DAV:   6    -0.236987494319E+03   -0.10127E-03   -0.16492E-04 61400   0.113E-01    0.336E-02
DAV:   7    -0.236987528338E+03   -0.34019E-04   -0.68641E-05 61216   0.722E-02    0.287E-02
DAV:   8    -0.236987549765E+03   -0.21428E-04   -0.15848E-05 35664   0.394E-02    0.159E-02
DAV:   9    -0.236987618314E+03   -0.68549E-04   -0.10126E-05 32440   0.185E-02    0.132E-02
DAV:  10    -0.236987688908E+03   -0.70594E-04   -0.11661E-05 37128   0.198E-02    0.118E-02
DAV:  11    -0.236987727748E+03   -0.38840E-04   -0.65383E-06 31936   0.157E-02    0.954E-03
DAV:  12    -0.236987784501E+03   -0.56753E-04   -0.99362E-06 31704   0.174E-02    0.795E-03
DAV:  13    -0.236987837281E+03   -0.52780E-04   -0.13893E-05 37160   0.177E-02    0.651E-03
DAV:  14    -0.236987871189E+03   -0.33909E-04   -0.10059E-05 32784   0.142E-02    0.602E-03
DAV:  15    -0.236987887981E+03   -0.16792E-04   -0.60725E-06 31608   0.120E-02    0.408E-03
DAV:  16    -0.236987893565E+03   -0.55842E-05   -0.37348E-06 29792   0.857E-03
  22 F= -.23698789E+03 E0= -.23698547E+03  d E =-.378731E-02  mag=    37.1584
 trial-energy change:   -0.003787  1 .order   -0.002691   -0.003326   -0.002056
 step:   2.0945(harm=  2.0945)  dis= 0.01619  next Energy=  -236.988461 (dE=-0.435E-02)
 bond charge predicted
       N       E                     dE             d eps       ncg     rms          rms(c)
DAV:   1    -0.236871239802E+03    0.11665E+00   -0.21348E+00 81304   0.223E+01    0.140E+00
DAV:   2    -0.236984536992E+03   -0.11330E+00   -0.99202E-01 58952   0.378E+00    0.692E-01
DAV:   3    -0.236989589286E+03   -0.50523E-02   -0.34559E-02 66512   0.989E-01    0.304E-01
DAV:   4    -0.236989750944E+03   -0.16166E-03   -0.28476E-03 65144   0.464E-01    0.243E-01
DAV:   5    -0.236989809294E+03   -0.58350E-04   -0.69626E-04 65152   0.375E-01    0.123E-01
DAV:   6    -0.236989871907E+03   -0.62613E-04   -0.42468E-04 61448   0.181E-01    0.516E-02
DAV:   7    -0.236989926763E+03   -0.54856E-04   -0.16911E-04 61392   0.111E-01    0.442E-02
DAV:   8    -0.236989949344E+03   -0.22581E-04   -0.41391E-05 59320   0.626E-02    0.234E-02
DAV:   9    -0.236990025740E+03   -0.76396E-04   -0.18944E-05 36776   0.260E-02    0.187E-02
DAV:  10    -0.236990109355E+03   -0.83615E-04   -0.21501E-05 41584   0.262E-02    0.165E-02
DAV:  11    -0.236990152748E+03   -0.43392E-04   -0.12228E-05 39080   0.221E-02    0.137E-02
DAV:  12    -0.236990215807E+03   -0.63059E-04   -0.16202E-05 33848   0.233E-02    0.115E-02
DAV:  13    -0.236990286281E+03   -0.70474E-04   -0.29793E-05 43416   0.266E-02    0.983E-03
DAV:  14    -0.236990328997E+03   -0.42716E-04   -0.22927E-05 39952   0.215E-02    0.841E-03
DAV:  15    -0.236990354006E+03   -0.25009E-04   -0.12619E-05 34624   0.173E-02    0.612E-03
DAV:  16    -0.236990369601E+03   -0.15595E-04   -0.91801E-06 32680   0.129E-02    0.530E-03
DAV:  17    -0.236990376833E+03   -0.72326E-05   -0.50599E-06 30216   0.102E-02
  23 F= -.23699038E+03 E0= -.23698795E+03  d E =-.627058E-02  mag=    37.1455
 curvature:  -1.88 expect dE=-0.103E-01 dE for cont linesearch -0.188E-04
 trial: gam= 1.26455 g(F)=  0.502E-02 g(S)=  0.480E-03 ort = 0.273E-03 (trialstep = 0.436E+00)
 search vector abs. value=  0.181E-01
 bond charge predicted
       N       E                     dE             d eps       ncg     rms          rms(c)
DAV:   1    -0.236959631948E+03    0.30738E-01   -0.60785E-01 81240   0.119E+01    0.741E-01
DAV:   2    -0.236992857303E+03   -0.33225E-01   -0.27863E-01 58664   0.200E+00    0.378E-01
DAV:   3    -0.236993347004E+03   -0.48970E-03   -0.10053E-02 66392   0.614E-01    0.197E-01
DAV:   4    -0.236993312141E+03    0.34863E-04   -0.10826E-03 62944   0.327E-01    0.123E-01
DAV:   5    -0.236993266213E+03    0.45928E-04   -0.25760E-04 67152   0.169E-01    0.620E-02
DAV:   6    -0.236993244159E+03    0.22054E-04   -0.12569E-04 62552   0.105E-01    0.375E-02
DAV:   7    -0.236993273657E+03   -0.29498E-04   -0.60943E-05 61160   0.780E-02    0.229E-02
DAV:   8    -0.236993298090E+03   -0.24433E-04   -0.14409E-05 34232   0.306E-02    0.123E-02
DAV:   9    -0.236993312235E+03   -0.14145E-04   -0.65909E-06 32280   0.144E-02    0.104E-02
DAV:  10    -0.236993315435E+03   -0.32002E-05   -0.68871E-06 31832   0.172E-02
  24 F= -.23699332E+03 E0= -.23699089E+03  d E =-.293860E-02  mag=    37.1436
 trial-energy change:   -0.002939  1 .order   -0.002070   -0.002549   -0.001591
 step:   1.1597(harm=  1.1597)  dis= 0.01488  next Energy=  -236.993767 (dE=-0.339E-02)
 bond charge predicted
       N       E                     dE             d eps       ncg     rms          rms(c)
DAV:   1    -0.236902469548E+03    0.90843E-01   -0.16749E+00 81432   0.197E+01    0.123E+00
DAV:   2    -0.236993434964E+03   -0.90965E-01   -0.76983E-01 58656   0.333E+00    0.628E-01
DAV:   3    -0.236995514838E+03   -0.20799E-02   -0.27642E-02 66544   0.995E-01    0.319E-01
DAV:   4    -0.236995486430E+03    0.28408E-04   -0.28356E-03 63800   0.529E-01    0.206E-01
DAV:   5    -0.236995382266E+03    0.10416E-03   -0.67395E-04 67024   0.282E-01    0.106E-01
DAV:   6    -0.236995364222E+03    0.18044E-04   -0.34152E-04 61752   0.180E-01    0.649E-02
DAV:   7    -0.236995424878E+03   -0.60656E-04   -0.17903E-04 61208   0.131E-01    0.388E-02
DAV:   8    -0.236995477385E+03   -0.52507E-04   -0.47409E-05 59584   0.518E-02    0.219E-02
DAV:   9    -0.236995518063E+03   -0.40678E-04   -0.18762E-05 39240   0.245E-02    0.184E-02
DAV:  10    -0.236995544529E+03   -0.26466E-04   -0.25592E-05 42568   0.307E-02    0.164E-02
DAV:  11    -0.236995550635E+03   -0.61053E-05   -0.18948E-05 40992   0.250E-02
  25 F= -.23699555E+03 E0= -.23699310E+03  d E =-.517380E-02  mag=    37.1408
 curvature:  -1.80 expect dE=-0.913E-02 dE for cont linesearch -0.127E-03
 ZBRENT: interpolating
 opt :   0.9885  next Energy=  -236.995648 (dE=-0.527E-02)
 bond charge predicted
       N       E                     dE             d eps       ncg     rms          rms(c)
DAV:   1    -0.236990373453E+03    0.51711E-02   -0.93971E-02 81288   0.465E+00    0.291E-01
DAV:   2    -0.236994930363E+03   -0.45569E-02   -0.42902E-02 58624   0.786E-01    0.149E-01
DAV:   3    -0.236995370972E+03   -0.44061E-03   -0.15395E-03 65656   0.247E-01    0.803E-02
DAV:   4    -0.236995389563E+03   -0.18591E-04   -0.18416E-04 62024   0.131E-01    0.487E-02
DAV:   5    -0.236995382804E+03    0.67592E-05   -0.42466E-05 54808   0.672E-02    0.241E-02
DAV:   6    -0.236995387470E+03   -0.46659E-05   -0.19526E-05 39280   0.374E-02
  26 F= -.23699539E+03 E0= -.23699292E+03  d E =-.501064E-02  mag=    37.1409
 curvature:  -1.37 expect dE=-0.624E-02 dE for cont linesearch -0.627E-05
 trial: gam= 0.21822 g(F)=  0.436E-02 g(S)=  0.190E-03 ort = 0.288E-03 (trialstep = 0.546E+00)
 search vector abs. value=  0.554E-02
 bond charge predicted
       N       E                     dE             d eps       ncg     rms          rms(c)
DAV:   1    -0.236983088015E+03    0.12295E-01   -0.27361E-01 79352   0.787E+00    0.493E-01
DAV:   2    -0.236997735284E+03   -0.14647E-01   -0.12321E-01 59328   0.137E+00    0.282E-01
DAV:   3    -0.236997991746E+03   -0.25646E-03   -0.50850E-03 63624   0.547E-01    0.181E-01
DAV:   4    -0.236997924704E+03    0.67042E-04   -0.73533E-04 61536   0.294E-01    0.831E-02
DAV:   5    -0.236997845020E+03    0.79684E-04   -0.22940E-04 68856   0.127E-01    0.454E-02
DAV:   6    -0.236997808481E+03    0.36539E-04   -0.76186E-05 61832   0.863E-02    0.333E-02
DAV:   7    -0.236997813148E+03   -0.46674E-05   -0.33979E-05 54504   0.632E-02
  27 F= -.23699781E+03 E0= -.23699535E+03  d E =-.242568E-02  mag=    37.1414
 trial-energy change:   -0.002426  1 .order   -0.002085   -0.002519   -0.001651
 step:   1.5851(harm=  1.5851)  dis= 0.00844  next Energy=  -236.999041 (dE=-0.365E-02)
 bond charge predicted
       N       E                     dE             d eps       ncg     rms          rms(c)
DAV:   1    -0.236946558065E+03    0.51250E-01   -0.98788E-01 79384   0.150E+01    0.937E-01
DAV:   2    -0.236998961657E+03   -0.52404E-01   -0.44663E-01 59384   0.262E+00    0.545E-01
DAV:   3    -0.237000318807E+03   -0.13572E-02   -0.18710E-02 64200   0.108E+00    0.353E-01
DAV:   4    -0.237000110800E+03    0.20801E-03   -0.27258E-03 61608   0.563E-01    0.158E-01
DAV:   5    -0.236999937714E+03    0.17309E-03   -0.84590E-04 68768   0.238E-01    0.868E-02
DAV:   6    -0.236999872459E+03    0.65255E-04   -0.27553E-04 62808   0.163E-01    0.643E-02
DAV:   7    -0.236999881011E+03   -0.85512E-05   -0.12430E-04 61824   0.120E-01    0.295E-02
DAV:   8    -0.236999892239E+03   -0.11228E-04   -0.29717E-05 49880   0.401E-02    0.176E-02
DAV:   9    -0.236999875851E+03    0.16388E-04   -0.95664E-06 32928   0.205E-02    0.155E-02
DAV:  10    -0.236999855424E+03    0.20427E-04   -0.84851E-06 32024   0.231E-02    0.127E-02
DAV:  11    -0.236999822105E+03    0.33319E-04   -0.12717E-05 32472   0.207E-02    0.891E-03
DAV:  12    -0.236999807162E+03    0.14943E-04   -0.10433E-05 37888   0.158E-02    0.805E-03
DAV:  13    -0.236999793364E+03    0.13798E-04   -0.50506E-06 30688   0.146E-02    0.630E-03
DAV:  14    -0.236999767935E+03    0.25429E-04   -0.10357E-05 31008   0.168E-02    0.456E-03
DAV:  15    -0.236999765875E+03    0.20599E-05   -0.64706E-06 35688   0.889E-03
  28 F= -.23699977E+03 E0= -.23699730E+03  d E =-.437841E-02  mag=    37.1408
 curvature:  -0.95 expect dE=-0.177E-02 dE for cont linesearch -0.211E-07
 trial: gam= 0.37278 g(F)=  0.177E-02 g(S)=  0.968E-04 ort =-0.111E-04 (trialstep = 0.754E+00)
 search vector abs. value=  0.262E-02
 bond charge predicted
       N       E                     dE             d eps       ncg     rms          rms(c)
DAV:   1    -0.236987236715E+03    0.12531E-01   -0.25089E-01 79616   0.757E+00    0.479E-01
DAV:   2    -0.237001198837E+03   -0.13962E-01   -0.11385E-01 58680   0.130E+00    0.254E-01
DAV:   3    -0.237000973583E+03    0.22525E-03   -0.43701E-03 64784   0.458E-01    0.147E-01
DAV:   4    -0.237000875155E+03    0.98427E-04   -0.54968E-04 61616   0.249E-01    0.769E-02
DAV:   5    -0.237000810136E+03    0.65020E-04   -0.14102E-04 63896   0.112E-01    0.439E-02
DAV:   6    -0.237000757313E+03    0.52822E-04   -0.54475E-05 62248   0.638E-02    0.272E-02
DAV:   7    -0.237000765458E+03   -0.81453E-05   -0.22450E-05 42064   0.495E-02
  29 F= -.23700077E+03 E0= -.23699831E+03  d E =-.999583E-03  mag=    37.1449
 trial-energy change:   -0.001000  1 .order   -0.001027   -0.001401   -0.000653
 step:   1.4129(harm=  1.4129)  dis= 0.00615  next Energy=  -237.001079 (dE=-0.131E-02)
 bond charge predicted
       N       E                     dE             d eps       ncg     rms          rms(c)
DAV:   1    -0.236990604197E+03    0.10153E-01   -0.19159E-01 79624   0.661E+00    0.418E-01
DAV:   2    -0.237001406485E+03   -0.10802E-01   -0.87131E-02 58736   0.113E+00    0.222E-01
DAV:   3    -0.237001160568E+03    0.24592E-03   -0.33482E-03 64872   0.398E-01    0.129E-01
DAV:   4    -0.237001079611E+03    0.80957E-04   -0.41778E-04 61624   0.216E-01    0.690E-02
DAV:   5    -0.237001026897E+03    0.52714E-04   -0.11096E-04 63368   0.993E-02    0.399E-02
DAV:   6    -0.237000977669E+03    0.49228E-04   -0.45196E-05 56896   0.567E-02    0.250E-02
DAV:   7    -0.237000988951E+03   -0.11283E-04   -0.21089E-05 40280   0.443E-02    0.173E-02
DAV:   8    -0.237001001607E+03   -0.12656E-04   -0.84610E-06 31936   0.241E-02    0.103E-02
DAV:   9    -0.237000993007E+03    0.86010E-05   -0.58490E-06 30984   0.127E-02
  30 F= -.23700099E+03 E0= -.23699855E+03  d E =-.122713E-02  mag=    37.1488
 curvature:  -1.00 expect dE=-0.666E-03 dE for cont linesearch -0.705E-05
 ZBRENT: interpolating
 opt :   1.3234  next Energy=  -237.000999 (dE=-0.123E-02)
 bond charge predicted
       N       E                     dE             d eps       ncg     rms          rms(c)
DAV:   1    -0.237000808184E+03    0.19342E-03   -0.35332E-03 79616   0.898E-01    0.573E-02
DAV:   2    -0.237000873166E+03   -0.64982E-04   -0.15881E-03 58688   0.154E-01    0.304E-02
DAV:   3    -0.237000957706E+03   -0.84539E-04   -0.62584E-05 59464   0.562E-02    0.186E-02
DAV:   4    -0.237000967869E+03   -0.10164E-04   -0.71896E-06 30232   0.297E-02    0.977E-03
DAV:   5    -0.237000973741E+03   -0.58722E-05   -0.25566E-06 29424   0.146E-02    0.650E-03
DAV:   6    -0.237000976024E+03   -0.22828E-05   -0.19793E-06 29416   0.109E-02
  31 F= -.23700098E+03 E0= -.23699854E+03  d E =-.121015E-02  mag=    37.1486
 curvature:  -0.86 expect dE=-0.519E-03 dE for cont linesearch -0.279E-05
 trial: gam= 0.22089 g(F)=  0.547E-03 g(S)=  0.553E-04 ort = 0.921E-04 (trialstep = 0.868E+00)
 search vector abs. value=  0.771E-03
 bond charge predicted
       N       E                     dE             d eps       ncg     rms          rms(c)
DAV:   1    -0.236996209773E+03    0.47640E-02   -0.99378E-02 79208   0.466E+00    0.312E-01
DAV:   2    -0.237000154340E+03   -0.39446E-02   -0.43991E-02 59328   0.814E-01    0.169E-01
DAV:   3    -0.237000987111E+03   -0.83277E-03   -0.17339E-03 64336   0.297E-01    0.106E-01
DAV:   4    -0.237001041409E+03   -0.54298E-04   -0.25165E-04 62000   0.184E-01    0.595E-02
DAV:   5    -0.237001025755E+03    0.15654E-04   -0.71841E-05 63288   0.897E-02    0.291E-02
DAV:   6    -0.237001069834E+03   -0.44079E-04   -0.30023E-05 49936   0.543E-02    0.225E-02
DAV:   7    -0.237001060986E+03    0.88480E-05   -0.13403E-05 32320   0.402E-02
  32 F= -.23700106E+03 E0= -.23699863E+03  d E =-.849619E-04  mag=    37.1461
 trial-energy change:   -0.000085  1 .order   -0.000333   -0.000540   -0.000126
 step:   1.1331(harm=  1.1331)  dis= 0.00197  next Energy=  -237.001329 (dE=-0.353E-03)
 reached required accuracy - stopping structural energy minimisation
