unknown system                          
           1
     0.000000    0.000000   -4.460000
    -4.553500   -4.553500   -2.230000
    -4.553500    4.553500   -2.230000
   Fe   P 
    12     4
Direct configuration=     1
   0.12790000  0.02660000  0.18520000
   0.33970000  0.97340000  0.81480000
   0.68690000  0.18520000  0.97340000
   0.84550000  0.81480000  0.02660000
   0.95500000  0.67050000  0.39150000
   0.01700000  0.32950000  0.60850000
   0.65350000  0.39150000  0.32950000
   0.37450000  0.60850000  0.67050000
   0.53530000  0.04780000  0.39120000
   0.97430000  0.95220000  0.60880000
   0.07350000  0.39120000  0.95220000
   0.41690000  0.60880000  0.04780000
   0.44490000  0.75330000  0.33750000
   0.53570000  0.24670000  0.66250000
   0.21760000  0.33750000  0.24670000
   0.80180000  0.66250000  0.75330000
unknown system                          
           1
     0.001270    0.000410   -4.756334
    -4.756424   -4.755144   -2.376342
    -4.755680    4.754871   -2.377312
   Fe   P 
    12     4
Direct configuration=     2
   0.12663344  0.02613867  0.18482004
   0.33770373  0.97372422  0.81504091
   0.68835574  0.18503129  0.97382461
   0.84736734  0.81525656  0.02628119
   0.95408412  0.67322683  0.39299858
   0.02171071  0.32668128  0.60684098
   0.65208699  0.39319051  0.32686633
   0.37268718  0.60670124  0.67300725
   0.54010971  0.04807837  0.38947235
   0.97727667  0.95188875  0.61080815
   0.07039442  0.38956645  0.95167326
   0.41175306  0.61068515  0.04843988
   0.44316469  0.75487960  0.33613448
   0.53441913  0.24507614  0.66376056
   0.22047516  0.33611787  0.24512200
   0.80177791  0.66375707  0.75490943
unknown system                          
           1
     0.001019    0.000329   -4.697828
    -4.716360   -4.715334   -2.347449
    -4.715763    4.715114   -2.348228
   Fe   P 
    12     4
Direct configuration=     3
   0.12686629  0.02622591  0.18489188
   0.33807432  0.97366300  0.81499541
   0.68808677  0.18506314  0.97374431
   0.84702192  0.81517019  0.02634144
   0.95426162  0.67271142  0.39271536
   0.02083029  0.32721393  0.60715447
   0.65234665  0.39287095  0.32736430
   0.37302420  0.60704137  0.67253323
   0.53921661  0.04802556  0.38979890
   0.97672895  0.95194752  0.61042845
   0.07096522  0.38987534  0.95177285
   0.41271054  0.61032897  0.04831905
   0.44348623  0.75458103  0.33639271
   0.53465562  0.24538317  0.66352223
   0.21993735  0.33637902  0.24542024
   0.80178743  0.66351947  0.75460520
unknown system                          
           1
    -0.000028    0.002402   -4.732687
    -4.698886   -4.695470   -2.363737
    -4.697693    4.696759   -2.368998
   Fe   P 
    12     4
Direct configuration=     4
   0.12562892  0.02460919  0.18356897
   0.33383698  0.97494853  0.81645160
   0.69076920  0.18388343  0.97509522
   0.84949870  0.81662056  0.02455698
   0.95287812  0.67423234  0.39413002
   0.02212500  0.32547631  0.60591187
   0.65264715  0.39411733  0.32563183
   0.37182887  0.60618298  0.67425410
   0.54225450  0.04818557  0.38841938
   0.97870373  0.95169318  0.61169987
   0.07019877  0.38853328  0.95141424
   0.40964447  0.61190459  0.04892399
   0.44374480  0.75702277  0.33627822
   0.53742845  0.24280456  0.66369376
   0.21969264  0.33618671  0.24291325
   0.79911971  0.66359867  0.75705668
unknown system                          
           1
    -0.002379    0.007059   -4.810988
    -4.659633   -4.650853   -2.400322
    -4.657104    4.655530   -2.415651
   Fe   P 
    12     4
Direct configuration=     5
   0.12290763  0.02096300  0.18058770
   0.32435198  0.97784649  0.81973766
   0.69674574  0.18122354  0.97814016
   0.85502984  0.81989212  0.02053044
   0.94975482  0.67766181  0.39732018
   0.02505044  0.32155809  0.60310990
   0.65332700  0.39692832  0.32172428
   0.36914918  0.60424677  0.67813597
   0.54904649  0.04854725  0.38530630
   0.98309239  0.95111997  0.61456555
   0.06851068  0.38550655  0.95060692
   0.40277997  0.61545709  0.05028950
   0.44429395  0.76252935  0.33601847
   0.54363998  0.23699003  0.66407996
   0.21918479  0.33575316  0.23726041
   0.79313512  0.66377647  0.76258661
unknown system                          
           1
    -0.002007    0.006322   -4.798589
    -4.665849   -4.657919   -2.394529
    -4.663532    4.662059   -2.408263
   Fe   P 
    12     4
Direct configuration=     6
   0.12331819  0.02154566  0.18106330
   0.32584265  0.97738385  0.81921187
   0.69581631  0.18164835  0.97765419
   0.85416514  0.81936913  0.02117461
   0.95025501  0.67711401  0.39681050
   0.02458103  0.32218400  0.60355750
   0.65321761  0.39647910  0.32234884
   0.36957176  0.60455629  0.67751536
   0.54798192  0.04848916  0.38580443
   0.98241388  0.95121142  0.61410822
   0.06876625  0.38599022  0.95073542
   0.40385927  0.61488975  0.05007088
   0.44421810  0.76164948  0.33606053
   0.54266210  0.23791885  0.66401846
   0.21925051  0.33582238  0.23816335
   0.79408029  0.66374836  0.76170253
unknown system                          
           1
     0.000338    0.004938   -4.793258
    -4.657781   -4.649280   -2.390820
    -4.654513    4.651298   -2.402152
   Fe   P 
    12     4
Direct configuration=     7
   0.12045641  0.02156361  0.18164737
   0.32372083  0.97748203  0.81842006
   0.69865625  0.18261071  0.97770369
   0.85634803  0.81884979  0.02145956
   0.94804192  0.67962267  0.39844368
   0.02777390  0.31941598  0.60210556
   0.65222257  0.39803504  0.32043338
   0.37054002  0.60253121  0.67943904
   0.55134223  0.05052521  0.38384352
   0.98635506  0.94950555  0.61552206
   0.06644839  0.38410171  0.94927263
   0.39834009  0.61677643  0.05142769
   0.44348663  0.76176766  0.33754214
   0.54297284  0.23794434  0.66241650
   0.21904974  0.33721479  0.23822285
   0.79424508  0.66205326  0.76210027
unknown system                          
           1
     0.001287    0.004379   -4.791101
    -4.654516   -4.645784   -2.389320
    -4.650863    4.646944   -2.399679
   Fe   P 
    12     4
Direct configuration=     8
   0.11929743  0.02157073  0.18188376
   0.32286137  0.97752181  0.81809861
   0.69980644  0.18300095  0.97772420
   0.85723219  0.81863932  0.02157547
   0.94714570  0.68063944  0.39910555
   0.02906697  0.31829410  0.60151735
   0.65181927  0.39866590  0.31965642
   0.37093248  0.60171016  0.68021935
   0.55270288  0.05135090  0.38304882
   0.98795152  0.94881407  0.61609609
   0.06550952  0.38333615  0.94867911
   0.39610486  0.61754093  0.05197697
   0.44319056  0.76181543  0.33814285
   0.54309850  0.23795481  0.66176691
   0.21896838  0.33777924  0.23824692
   0.79431193  0.66136606  0.76226163
unknown system                          
           1
     0.001545    0.004226   -4.790513
    -4.653626   -4.644831   -2.388911
    -4.649869    4.645757   -2.399006
   Fe   P 
    12     4
Direct configuration=     9
   0.11898156  0.02157265  0.18194817
   0.32262711  0.97753265  0.81801092
   0.70011992  0.18310737  0.97772984
   0.85747317  0.81858195  0.02160713
   0.94690145  0.68091664  0.39928599
   0.02941940  0.31798824  0.60135701
   0.65170932  0.39883792  0.31944453
   0.37103949  0.60148628  0.68043216
   0.55307369  0.05157606  0.38283216
   0.98838667  0.94862554  0.61625270
   0.06525362  0.38312741  0.94851722
   0.39549565  0.61774934  0.05212665
   0.44310988  0.76182843  0.33830665
   0.54313273  0.23795768  0.66158978
   0.21894620  0.33793314  0.23825347
   0.79433016  0.66117869  0.76230564
unknown system                          
           1
     0.001265    0.002816   -4.789583
    -4.668989   -4.660964   -2.390056
    -4.672793    4.668069   -2.397667
   Fe   P 
    12     4
Direct configuration=    10
   0.11764003  0.02296625  0.18308974
   0.32402445  0.97674482  0.81692599
   0.70015677  0.18396841  0.97676732
   0.85877395  0.81782287  0.02290719
   0.94549699  0.68057641  0.39978367
   0.02790129  0.31882936  0.60095285
   0.65291716  0.39927497  0.31909604
   0.37253331  0.60010223  0.68068227
   0.55453959  0.05273444  0.38133997
   0.98936469  0.94707686  0.61748713
   0.06375059  0.38261751  0.94791783
   0.39270400  0.61823474  0.05301799
   0.44244476  0.76200939  0.33944046
   0.54453875  0.23775603  0.66035672
   0.21778402  0.33946311  0.23802069
   0.79542966  0.65982260  0.76221411
unknown system                          
           1
     0.001278    0.002881   -4.789626
    -4.668282   -4.660221   -2.390003
    -4.671737    4.667042   -2.397728
   Fe   P 
    12     4
Direct configuration=    11
   0.11770156  0.02290231  0.18303745
   0.32396030  0.97678097  0.81697568
   0.70015514  0.18392891  0.97681141
   0.85871395  0.81785771  0.02284764
   0.94556161  0.68059200  0.39976088
   0.02797118  0.31879076  0.60097137
   0.65286156  0.39925493  0.31911200
   0.37246459  0.60016574  0.68067081
   0.55447221  0.05268131  0.38140831
   0.98931960  0.94714792  0.61743058
   0.06381990  0.38264089  0.94794530
   0.39283239  0.61821246  0.05297718
   0.44247523  0.76200109  0.33938853
   0.54447418  0.23776529  0.66041320
   0.21783745  0.33939291  0.23803136
   0.79537914  0.65988482  0.76221831
unknown system                          
           1
    -0.000027    0.000224   -4.779622
    -4.667562   -4.660542   -2.388725
    -4.671767    4.665438   -2.391729
   Fe   P 
    12     4
Direct configuration=    12
   0.11897970  0.02340241  0.18282549
   0.32512714  0.97656067  0.81707722
   0.69891345  0.18436988  0.97697582
   0.85865144  0.81749440  0.02349102
   0.94486423  0.68008610  0.40050454
   0.02742528  0.31971250  0.60022405
   0.65305302  0.39949836  0.31946512
   0.37371883  0.59900086  0.68010167
   0.55609448  0.05363655  0.37948716
   0.98881902  0.94627730  0.61897284
   0.06277525  0.38177706  0.94718295
   0.39133638  0.61898137  0.05360218
   0.44124263  0.76277600  0.34009704
   0.54543471  0.23683733  0.65960043
   0.21743606  0.34044906  0.23743634
   0.79612839  0.65914016  0.76295615
unknown system                          
           1
    -0.000525   -0.000791   -4.775802
    -4.667286   -4.660665   -2.388237
    -4.671778    4.664825   -2.389437
   Fe   P 
    12     4
Direct configuration=    13
   0.11946890  0.02359324  0.18274461
   0.32557383  0.97647633  0.81711606
   0.69843824  0.18453851  0.97703857
   0.85862779  0.81735560  0.02373678
   0.94459760  0.67989292  0.40078856
   0.02721602  0.32006471  0.59993858
   0.65312649  0.39959128  0.31960003
   0.37419859  0.59855575  0.67988427
   0.55671462  0.05400128  0.37875339
   0.98862808  0.94594474  0.61956193
   0.06237493  0.38144733  0.94689163
   0.39076407  0.61927527  0.05384088
   0.44077120  0.76307214  0.34036766
   0.54580194  0.23648278  0.65928996
   0.21728219  0.34085257  0.23720906
   0.79641550  0.65885556  0.76323802
unknown system                          
           1
    -0.003117   -0.002212   -4.777649
    -4.669139   -4.664089   -2.392781
    -4.670039    4.663208   -2.391976
   Fe   P 
    12     4
Direct configuration=    14
   0.12223542  0.02445097  0.18149376
   0.32636090  0.97621940  0.81779653
   0.69572199  0.18402013  0.97698984
   0.85794469  0.81759832  0.02384671
   0.94444962  0.68026727  0.40177207
   0.02903786  0.31991389  0.59883628
   0.65230875  0.40013061  0.31996040
   0.37450237  0.59730630  0.67970402
   0.55698500  0.05450044  0.37774027
   0.98906693  0.94551550  0.62112926
   0.06274398  0.38032478  0.94612584
   0.38933935  0.62055455  0.05458637
   0.43956699  0.76381279  0.34090689
   0.54600091  0.23532448  0.65867846
   0.21736897  0.34151882  0.23633476
   0.79636627  0.65854174  0.76409852
unknown system                          
           1
    -0.002983   -0.002139   -4.777554
    -4.669043   -4.663911   -2.392546
    -4.670129    4.663292   -2.391844
   Fe   P 
    12     4
Direct configuration=    15
   0.12209213  0.02440663  0.18155858
   0.32632016  0.97623271  0.81776128
   0.69586264  0.18404691  0.97699235
   0.85798008  0.81758574  0.02384101
   0.94445733  0.68024789  0.40172111
   0.02894347  0.31992174  0.59889341
   0.65235113  0.40010267  0.31994172
   0.37448658  0.59737099  0.67971337
   0.55697098  0.05447461  0.37779276
   0.98904424  0.94553773  0.62104806
   0.06272480  0.38038290  0.94616553
   0.38941321  0.62048830  0.05454772
   0.43962940  0.76377442  0.34087894
   0.54599054  0.23538444  0.65871016
   0.21736447  0.34148434  0.23638005
   0.79636884  0.65855798  0.76405394
unknown system                          
           1
    -0.001335   -0.001078   -4.779638
    -4.667663   -4.664363   -2.390718
    -4.668863    4.664812   -2.392716
   Fe   P 
    12     4
Direct configuration=    16
   0.12210033  0.02475866  0.18100702
   0.32669578  0.97579945  0.81794044
   0.69536431  0.18407685  0.97659023
   0.85714148  0.81838484  0.02407866
   0.94409770  0.68126258  0.40263478
   0.02941788  0.31897538  0.59863113
   0.65193486  0.40036004  0.31983145
   0.37401989  0.59688765  0.68037011
   0.55633359  0.05442926  0.37794048
   0.99023194  0.94523718  0.62115520
   0.06339629  0.37983905  0.94596084
   0.39030233  0.62071622  0.05433720
   0.43973824  0.76391557  0.34113888
   0.54642461  0.23498232  0.65821394
   0.21701820  0.34202476  0.23599943
   0.79578257  0.65835019  0.76417021
unknown system                          
           1
    -0.000546   -0.000569   -4.780636
    -4.667003   -4.664579   -2.389843
    -4.668256    4.665540   -2.393134
   Fe   P 
    12     4
Direct configuration=    17
   0.12210438  0.02492716  0.18074295
   0.32687545  0.97559205  0.81802619
   0.69512592  0.18409106  0.97639768
   0.85674024  0.81876742  0.02419250
   0.94392558  0.68174856  0.40307234
   0.02964484  0.31852223  0.59850547
   0.65173571  0.40048322  0.31977867
   0.37379641  0.59665622  0.68068450
   0.55602855  0.05440748  0.37801118
   0.99080023  0.94509344  0.62120651
   0.06371758  0.37957868  0.94586280
   0.39072785  0.62082546  0.05423645
   0.43979031  0.76398321  0.34126336
   0.54663236  0.23478975  0.65797633
   0.21685262  0.34228345  0.23581722
   0.79550199  0.65825061  0.76422584
unknown system                          
           1
     0.001032    0.000447   -4.782632
    -4.665682   -4.665012   -2.388093
    -4.667043    4.666996   -2.393969
   Fe   P 
    12     4
Direct configuration=    18
   0.12211258  0.02526410  0.18021487
   0.32723462  0.97517730  0.81819767
   0.69464932  0.18411936  0.97601257
   0.85593805  0.81953255  0.02442022
   0.94358142  0.68272064  0.40394753
   0.03009856  0.31761590  0.59825409
   0.65133757  0.40072951  0.31967311
   0.37334943  0.59619337  0.68131321
   0.55541864  0.05436385  0.37815257
   0.99193643  0.94480612  0.62130913
   0.06435996  0.37905798  0.94566669
   0.39157870  0.62104404  0.05403499
   0.43989438  0.76411855  0.34151233
   0.54704775  0.23440457  0.65750108
   0.21652167  0.34280076  0.23545286
   0.79494094  0.65805140  0.76433708
unknown system                          
           1
     0.000108   -0.000148   -4.781463
    -4.666455   -4.664758   -2.389118
    -4.667754    4.666143   -2.393480
   Fe   P 
    12     4
Direct configuration=    19
   0.12210764  0.02506686  0.18052407
   0.32702450  0.97542011  0.81809729
   0.69492818  0.18410292  0.97623809
   0.85640747  0.81908454  0.02428682
   0.94378287  0.68215125  0.40343494
   0.02983309  0.31814666  0.59840138
   0.65157053  0.40058535  0.31973491
   0.37361120  0.59646441  0.68094511
   0.55577563  0.05438948  0.37806980
   0.99127152  0.94497419  0.62124903
   0.06398404  0.37936286  0.94578156
   0.39108067  0.62091593  0.05415290
   0.43983350  0.76403923  0.34136652
   0.54680461  0.23463016  0.65777940
   0.21671522  0.34249791  0.23566618
   0.79526934  0.65816814  0.76427198
unknown system                          
           1
     0.000859    0.000075   -4.780165
    -4.665321   -4.661740   -2.387336
    -4.668440    4.665102   -2.392688
   Fe   P 
    12     4
Direct configuration=    20
   0.12185536  0.02526912  0.18026704
   0.32743183  0.97520391  0.81799264
   0.69478368  0.18436996  0.97573437
   0.85554074  0.81988074  0.02468501
   0.94313756  0.68258677  0.40379265
   0.03020158  0.31724911  0.59800128
   0.65150895  0.40081284  0.31959560
   0.37313459  0.59624044  0.68169106
   0.55591169  0.05455616  0.37809737
   0.99201842  0.94466465  0.62142714
   0.06453492  0.37876723  0.94545699
   0.39106151  0.62114472  0.05424071
   0.43999901  0.76398930  0.34149878
   0.54714445  0.23440033  0.65736662
   0.21633058  0.34303344  0.23568626
   0.79540513  0.65783128  0.76446648
unknown system                          
           1
     0.001027    0.000125   -4.779875
    -4.665067   -4.661066   -2.386937
    -4.668593    4.664869   -2.392511
   Fe   P 
    12     4
Direct configuration=    21
   0.12179893  0.02531437  0.18020955
   0.32752291  0.97515556  0.81796925
   0.69475136  0.18442971  0.97562172
   0.85534699  0.82005880  0.02477400
   0.94299330  0.68268416  0.40387261
   0.03028391  0.31704837  0.59791187
   0.65149519  0.40086373  0.31956443
   0.37302804  0.59619030  0.68185786
   0.55594213  0.05459344  0.37810353
   0.99218543  0.94459542  0.62146699
   0.06465806  0.37863403  0.94538446
   0.39105724  0.62119589  0.05426033
   0.44003603  0.76397813  0.34152836
   0.54722041  0.23434894  0.65727433
   0.21624460  0.34315322  0.23569072
   0.79543549  0.65775592  0.76450999
unknown system                          
           1
     0.001173   -0.000625   -4.779015
    -4.665972   -4.658410   -2.386933
    -4.671459    4.663385   -2.391585
   Fe   P 
    12     4
Direct configuration=    22
   0.12152520  0.02530714  0.18047959
   0.32798694  0.97506224  0.81778449
   0.69442461  0.18492903  0.97532817
   0.85563555  0.82017403  0.02457317
   0.94217017  0.68284012  0.40392184
   0.03045828  0.31626345  0.59737206
   0.65154907  0.40132943  0.31937416
   0.37291275  0.59625251  0.68236637
   0.55634891  0.05489761  0.37798269
   0.99236427  0.94425899  0.62197264
   0.06504512  0.37794786  0.94490966
   0.39018721  0.62156314  0.05465811
   0.43994011  0.76395908  0.34163195
   0.54740731  0.23428095  0.65697402
   0.21596766  0.34361852  0.23586074
   0.79607685  0.65731590  0.76481033
unknown system                          
           1
     0.001410   -0.001837   -4.777622
    -4.667436   -4.654113   -2.386927
    -4.676097    4.660984   -2.390088
   Fe   P 
    12     4
Direct configuration=    23
   0.12108235  0.02529526  0.18091649
   0.32873784  0.97491128  0.81748565
   0.69389559  0.18573748  0.97485281
   0.85610246  0.82036065  0.02424819
   0.94083796  0.68309260  0.40400129
   0.03073993  0.31499337  0.59649914
   0.65163620  0.40208336  0.31906601
   0.37272656  0.59635284  0.68318912
   0.55700726  0.05538997  0.37778703
   0.99265409  0.94371404  0.62279106
   0.06567111  0.37683756  0.94414191
   0.38877938  0.62215737  0.05530138
   0.43978495  0.76392818  0.34179955
   0.54770957  0.23417110  0.65648818
   0.21551965  0.34437155  0.23613552
   0.79711510  0.65660339  0.76529667
unknown system                          
           1
     0.001887   -0.002369   -4.779202
    -4.668502   -4.652645   -2.387608
    -4.677070    4.658830   -2.390225
   Fe   P 
    12     4
Direct configuration=    24
   0.12091725  0.02536049  0.18104101
   0.32926300  0.97469737  0.81758241
   0.69369351  0.18603072  0.97493676
   0.85621831  0.82030939  0.02418105
   0.94056437  0.68313306  0.40403412
   0.03045981  0.31453708  0.59632853
   0.65177007  0.40266313  0.31871153
   0.37312473  0.59633801  0.68344795
   0.55705211  0.05567253  0.37755469
   0.99261971  0.94333665  0.62320365
   0.06593680  0.37624001  0.94354244
   0.38799365  0.62269740  0.05575008
   0.43944925  0.76411019  0.34188355
   0.54777919  0.23417444  0.65628126
   0.21553039  0.34456645  0.23605604
   0.79762785  0.65613307  0.76546494
unknown system                          
           1
     0.002679   -0.003251   -4.781825
    -4.670272   -4.650209   -2.388738
    -4.678687    4.655252   -2.390454
   Fe   P 
    12     4
Direct configuration=    25
   0.12064319  0.02546875  0.18124777
   0.33013482  0.97434205  0.81774331
   0.69335803  0.18651767  0.97507602
   0.85641063  0.82022430  0.02406957
   0.94011019  0.68320024  0.40408858
   0.02999478  0.31377939  0.59604532
   0.65199223  0.40362621  0.31812252
   0.37378575  0.59631324  0.68387791
   0.55712652  0.05614193  0.37716868
   0.99256273  0.94270967  0.62388910
   0.06637781  0.37524796  0.94254708
   0.38668933  0.62359403  0.05649495
   0.43889197  0.76441242  0.34202292
   0.54789473  0.23418010  0.65593760
   0.21554821  0.34489018  0.23592394
   0.79847909  0.65535187  0.76574472
unknown system                          
           1
     0.002492   -0.003043   -4.781205
    -4.669853   -4.650786   -2.388470
    -4.678304    4.656099   -2.390400
   Fe   P 
    12     4
Direct configuration=    26
   0.12070800  0.02544316  0.18119885
   0.32992864  0.97442616  0.81770515
   0.69343737  0.18640245  0.97504313
   0.85636515  0.82024442  0.02409594
   0.94021759  0.68318434  0.40407571
   0.03010475  0.31395866  0.59611229
   0.65193972  0.40339822  0.31826202
   0.37362941  0.59631916  0.68377612
   0.55710894  0.05603079  0.37726009
   0.99257618  0.94285813  0.62372680
   0.06627353  0.37548260  0.94278254
   0.38699776  0.62338194  0.05631881
   0.43902375  0.76434092  0.34198999
   0.54786742  0.23417872  0.65601894
   0.21554401  0.34481355  0.23595524
   0.79827777  0.65553678  0.76567838
unknown system                          
           1
     0.002857   -0.002918   -4.782824
    -4.669792   -4.650823   -2.388681
    -4.676740    4.654712   -2.391141
   Fe   P 
    12     4
Direct configuration=    27
   0.12076330  0.02556866  0.18114316
   0.33032619  0.97416850  0.81807313
   0.69365560  0.18633589  0.97520250
   0.85606198  0.82028334  0.02432413
   0.94055300  0.68313095  0.40412490
   0.02949170  0.31409390  0.59639809
   0.65210148  0.40360045  0.31794841
   0.37411420  0.59617675  0.68366982
   0.55679302  0.05628636  0.37695423
   0.99233965  0.94254133  0.62376884
   0.06639057  0.37553983  0.94265054
   0.38683243  0.62348530  0.05635757
   0.43867064  0.76469848  0.34211557
   0.54783192  0.23413156  0.65596593
   0.21572248  0.34471931  0.23565147
   0.79835184  0.65523938  0.76565170
unknown system                          
           1
     0.003550   -0.002680   -4.785901
    -4.669675   -4.650893   -2.389081
    -4.673768    4.652075   -2.392548
   Fe   P 
    12     4
Direct configuration=    28
   0.12086842  0.02580725  0.18103727
   0.33108142  0.97367875  0.81877286
   0.69407021  0.18620939  0.97550556
   0.85548574  0.82035730  0.02475804
   0.94119033  0.68302950  0.40421845
   0.02832657  0.31435095  0.59694153
   0.65240902  0.40398488  0.31735209
   0.37503550  0.59590608  0.68346772
   0.55619287  0.05677214  0.37637261
   0.99189019  0.94193907  0.62384876
   0.06661305  0.37564864  0.94239954
   0.38651823  0.62368177  0.05643128
   0.43799953  0.76537817  0.34235437
   0.54776449  0.23404191  0.65586512
   0.21606182  0.34454017  0.23507384
   0.79849262  0.65467403  0.76560095
unknown system                          
           1
     0.003481   -0.002338   -4.786212
    -4.670261   -4.650910   -2.388849
    -4.674933    4.653044   -2.393304
   Fe   P 
    12     4
Direct configuration=    29
   0.12092040  0.02603832  0.18110275
   0.33169699  0.97331327  0.81895449
   0.69451799  0.18595351  0.97545832
   0.85565741  0.82017641  0.02460268
   0.94139550  0.68293375  0.40417084
   0.02824263  0.31457083  0.59696623
   0.65253374  0.40430037  0.31703468
   0.37492496  0.59583887  0.68338123
   0.55607025  0.05681724  0.37630546
   0.99110907  0.94197058  0.62400828
   0.06685300  0.37588703  0.94240420
   0.38643202  0.62361347  0.05637489
   0.43777782  0.76566536  0.34261529
   0.54755775  0.23381090  0.65582694
   0.21586903  0.34459073  0.23508191
   0.79844145  0.65451938  0.76571182
unknown system                          
           1
     0.003421   -0.002039   -4.786483
    -4.670773   -4.650925   -2.388646
    -4.675951    4.653890   -2.393964
   Fe   P 
    12     4
Direct configuration=    30
   0.12096581  0.02624014  0.18115992
   0.33223462  0.97299406  0.81911310
   0.69490909  0.18573002  0.97541707
   0.85580734  0.82001842  0.02446700
   0.94157469  0.68285012  0.40412925
   0.02816933  0.31476287  0.59698779
   0.65264272  0.40457594  0.31675747
   0.37482840  0.59578016  0.68330571
   0.55596314  0.05685663  0.37624682
   0.99042681  0.94199808  0.62414761
   0.06706261  0.37609526  0.94240825
   0.38635672  0.62355381  0.05632564
   0.43758419  0.76591618  0.34284314
   0.54737715  0.23360912  0.65579361
   0.21570065  0.34463490  0.23508897
   0.79839673  0.65438429  0.76580865
unknown system                          
           1
     0.003429   -0.002079   -4.786447
    -4.670703   -4.650923   -2.388673
    -4.675813    4.653775   -2.393874
   Fe   P 
    12     4
Direct configuration=    31
   0.12095964  0.02621274  0.18115216
   0.33216161  0.97303741  0.81909156
   0.69485598  0.18576037  0.97542267
   0.85578698  0.82003988  0.02448542
   0.94155036  0.68286148  0.40413490
   0.02817928  0.31473679  0.59698486
   0.65262792  0.40453852  0.31679511
   0.37484151  0.59578814  0.68331596
   0.55597769  0.05685128  0.37625479
   0.99051946  0.94199435  0.62412869
   0.06703414  0.37606698  0.94240771
   0.38636695  0.62356191  0.05633233
   0.43761048  0.76588212  0.34281220
   0.54740168  0.23363652  0.65579813
   0.21572352  0.34462890  0.23508801
   0.79840281  0.65440264  0.76579550
unknown system                          
           1
     0.003538   -0.001900   -4.784923
    -4.670607   -4.651294   -2.387553
    -4.675573    4.654248   -2.393374
   Fe   P 
    12     4
Direct configuration=    32
   0.12108798  0.02622130  0.18116791
   0.33279639  0.97279735  0.81908502
   0.69486263  0.18564795  0.97546831
   0.85585547  0.82021066  0.02452564
   0.94140478  0.68289102  0.40413460
   0.02832173  0.31472932  0.59677132
   0.65229997  0.40459602  0.31676278
   0.37460254  0.59581149  0.68321050
   0.55610070  0.05686158  0.37626329
   0.99029020  0.94194941  0.62420172
   0.06720735  0.37604741  0.94234677
   0.38625737  0.62351835  0.05635683
   0.43757560  0.76599783  0.34295230
   0.54729774  0.23358285  0.65571863
   0.21568860  0.34475613  0.23521945
   0.79835094  0.65438135  0.76581493
