       N       E                     dE             d eps       ncg     rms          ort
DAV:   1     0.266486521600E+04    0.26649E+04   -0.14738E+05  6336   0.155E+03
DAV:   2    -0.222593916573E+03   -0.28875E+04   -0.27738E+04  6336   0.433E+02
DAV:   3    -0.504420561067E+03   -0.28183E+03   -0.27567E+03  6336   0.149E+02
DAV:   4    -0.519106115918E+03   -0.14686E+02   -0.14436E+02  6336   0.365E+01
DAV:   5    -0.520255519480E+03   -0.11494E+01   -0.11411E+01  6336   0.679E+00
SDA:   6    -0.347141901074E+03    0.17311E+03   -0.11411E+01  6336   0.565E+03 0.000E+00
CGA:   7    -0.400264209656E+03   -0.53122E+02   -0.65997E+02  6336   0.194E+03 0.164E+02
CGA:   8    -0.400986273019E+03   -0.72206E+00   -0.10795E+02  6336   0.369E+03-0.201E+03
CGA:   9    -0.400872405735E+03    0.11387E+00   -0.19607E+02  6336   0.289E+03-0.108E+03
CGA:  10    -0.400010412708E+03    0.86199E+00   -0.11094E+02  6336   0.145E+04 0.540E+03
CGA:  11    -0.409699760653E+03   -0.96893E+01   -0.10933E+03  6336   0.453E+03 0.391E+02
CGA:  12    -0.399475319703E+03    0.10224E+02   -0.35948E+02  6336   0.102E+03-0.219E+02
CGA:  13    -0.407051445046E+03   -0.75761E+01   -0.27430E+01  6336   0.505E+03 0.617E+03
CGA:  14    -0.404063669393E+03    0.29878E+01   -0.30644E+02  6336   0.690E+02-0.462E+02
CGA:  15    -0.406033912091E+03   -0.19702E+01   -0.26035E+01  6336   0.661E+03-0.352E+03
CGA:  16    -0.416345554851E+03   -0.10312E+02   -0.43725E+02  6336   0.148E+03-0.408E+02
CGA:  17    -0.407352498870E+03    0.89931E+01   -0.78967E+01  6336   0.256E+03-0.514E+02
CGA:  18    -0.410493671810E+03   -0.31412E+01   -0.10358E+02  6336   0.236E+03 0.806E+02
CGA:  19    -0.410717903495E+03   -0.22423E+00   -0.19143E+02  6336   0.140E+03 0.189E+02
CGA:  20    -0.421868803495E+03   -0.11151E+02   -0.11436E+02  6336   0.306E+01 0.417E+00
CGA:  21    -0.422356889732E+03   -0.48809E+00   -0.49253E+00  6336   0.150E+01-0.287E+00
CGA:  22    -0.422542055540E+03   -0.18517E+00   -0.18287E+00  6336   0.543E+00 0.370E+00
CGA:  23    -0.422558455370E+03   -0.16400E-01   -0.80821E-02  6336   0.529E+00 0.694E+00
CGA:  24    -0.422648451220E+03   -0.89996E-01   -0.50057E-01  6336   0.313E+00 0.111E+00
CGA:  25    -0.422654828696E+03   -0.63775E-02   -0.36955E-02  6336   0.357E+00 0.322E+00
CGA:  26    -0.422715117887E+03   -0.60289E-01   -0.54825E-01  6336   0.348E+00 0.109E+00
CGA:  27    -0.422733382943E+03   -0.18265E-01   -0.11164E-01  6336   0.221E+00 0.326E+00
CGA:  28    -0.422757051414E+03   -0.23668E-01   -0.19956E-01  6336   0.225E+00-0.362E-02
CGA:  29    -0.422779759070E+03   -0.22708E-01   -0.22798E-01  6336   0.473E+00 0.624E-02
CGA:  30    -0.422817909809E+03   -0.38151E-01   -0.40157E-01  6336   0.550E+00-0.708E-04
CGA:  31    -0.422838390359E+03   -0.20481E-01   -0.11711E-01  6336   0.307E+00 0.436E+00
CGA:  32    -0.422847545474E+03   -0.91551E-02   -0.68414E-02  6336   0.759E-01 0.140E+00
CGA:  33    -0.422850407278E+03   -0.28618E-02   -0.26823E-02  6336   0.428E-01 0.259E-01
CGA:  34    -0.422854232588E+03   -0.38253E-02   -0.38239E-02  6336   0.102E+00-0.288E-02
CGA:  35    -0.422860007650E+03   -0.57751E-02   -0.56535E-02  6336   0.104E+00-0.205E-01
CGA:  36    -0.422865543299E+03   -0.55356E-02   -0.53930E-02  6336   0.104E+00-0.195E-01
CGA:  37    -0.422870155304E+03   -0.46120E-02   -0.39262E-02  6336   0.492E-01 0.869E-02
CGA:  38    -0.422871960277E+03   -0.18050E-02   -0.17659E-02  6336   0.364E-01 0.131E-01
CGA:  39    -0.422874132130E+03   -0.21719E-02   -0.22624E-02  6336   0.566E-01 0.695E-02
CGA:  40    -0.422877720356E+03   -0.35882E-02   -0.36674E-02  6336   0.842E-01 0.206E-02
CGA:  41    -0.422881070608E+03   -0.33503E-02   -0.32872E-02  6336   0.790E-01-0.416E-02
CGA:  42    -0.422883733331E+03   -0.26627E-02   -0.29058E-02  6336   0.658E-01-0.601E-03
CGA:  43    -0.422885201576E+03   -0.14682E-02   -0.15457E-02  6336   0.347E-01 0.164E-01
CGA:  44    -0.422886016042E+03   -0.81447E-03   -0.97827E-03  6336   0.264E-01 0.109E-01
CGA:  45    -0.422887116713E+03   -0.11007E-02   -0.12374E-02  6336   0.434E-01 0.575E-02
CGA:  46    -0.422889202458E+03   -0.20857E-02   -0.21177E-02  6336   0.610E-01 0.216E-03
CGA:  47    -0.422891091985E+03   -0.18895E-02   -0.16369E-02  6336   0.450E-01-0.829E-02
CGA:  48    -0.422892544151E+03   -0.14522E-02   -0.12071E-02  6336   0.533E-01-0.909E-02
CGA:  49    -0.422894264684E+03   -0.17205E-02   -0.16216E-02  6336   0.735E-01-0.382E-02
CGA:  50    -0.422895724327E+03   -0.14596E-02   -0.14086E-02  6336   0.512E-01 0.168E-01
CGA:  51    -0.422896551494E+03   -0.82717E-03   -0.98689E-03  6336   0.328E-01 0.194E-01
CGA:  52    -0.422897132469E+03   -0.58097E-03   -0.84157E-03  6336   0.356E-01 0.124E-01
CGA:  53    -0.422898056685E+03   -0.92422E-03   -0.12027E-02  6336   0.660E-01 0.118E-01
CGA:  54    -0.422900092910E+03   -0.20362E-02   -0.23445E-02  6336   0.124E+00 0.120E-01
CGA:  55    -0.422902878705E+03   -0.27858E-02   -0.29282E-02  6336   0.127E+00 0.208E-02
CGA:  56    -0.422904921010E+03   -0.20423E-02   -0.17850E-02  6336   0.865E-01-0.546E-02
CGA:  57    -0.422906392083E+03   -0.14711E-02   -0.12271E-02  6336   0.724E-01-0.121E-01
CGA:  58    -0.422907642895E+03   -0.12508E-02   -0.11295E-02  6336   0.868E-01-0.106E-01
CGA:  59    -0.422909083205E+03   -0.14403E-02   -0.15368E-02  6336   0.101E+00-0.385E-02
CGA:  60    -0.422910540860E+03   -0.14577E-02   -0.17056E-02  6336   0.796E-01 0.112E-01
CGA:  61    -0.422911554428E+03   -0.10136E-02   -0.13250E-02  6336   0.623E-01 0.173E-01
SDA:  62    -0.422912586145E+03   -0.10317E-02   -0.13883E-02  6336   0.773E-01 0.147E-01
CGA:  63    -0.422922543880E+03   -0.99577E-02   -0.12287E-01  6336   0.112E+00-0.127E-01
CGA:  64    -0.422926501837E+03   -0.39580E-02   -0.40205E-02  6336   0.360E-01 0.184E-01
CGA:  65    -0.422927922116E+03   -0.14203E-02   -0.15310E-02  6336   0.237E-01 0.121E-01
CGA:  66    -0.422929796317E+03   -0.18742E-02   -0.18616E-02  6336   0.253E-01 0.250E-02
CGA:  67    -0.422931420945E+03   -0.16246E-02   -0.18273E-02  6336   0.157E-01-0.119E-01
CGA:  68    -0.422932267259E+03   -0.84631E-03    0.49180E-02  6336   0.193E-01 0.282E-02
CGA:  69    -0.422935484549E+03   -0.32173E-02   -0.32067E-02  6336   0.789E-02 0.482E-03
CGA:  70    -0.422935647237E+03   -0.16269E-03   -0.25549E-03  6336   0.469E-02 0.433E-02
CGA:  71    -0.422936849598E+03   -0.12024E-02   -0.11914E-02  6336   0.548E-02 0.173E-03
CGA:  72    -0.422937607033E+03   -0.75744E-03    0.28479E-02  6336   0.353E-02 0.351E-02
CGA:  73    -0.422937814123E+03   -0.20709E-03   -0.21195E-03  6336   0.178E-02 0.198E-02
CGA:  74    -0.422938083298E+03   -0.26917E-03    0.26616E-03  6336   0.143E-02 0.136E-02
CGA:  75    -0.422938243777E+03   -0.16048E-03   -0.12821E-03  6336   0.144E-02 0.119E-02
CGA:  76    -0.422938513199E+03   -0.26942E-03    0.10047E-03  6336   0.137E-02 0.111E-02
CGA:  77    -0.422938606231E+03   -0.93032E-04   -0.90482E-04  6336   0.132E-02 0.113E-02
CGA:  78    -0.422938843170E+03   -0.23694E-03    0.10388E-03  6336   0.127E-02 0.113E-02
CGA:  79    -0.422938977416E+03   -0.13425E-03   -0.10967E-03  6336   0.132E-02 0.109E-02
CGA:  80    -0.422939228316E+03   -0.25090E-03    0.93123E-04  6336   0.127E-02 0.103E-02
CGA:  81    -0.422939306963E+03   -0.78647E-04   -0.80410E-04  6336   0.121E-02 0.106E-02
CGA:  82    -0.422939525876E+03   -0.21891E-03    0.10175E-03  6336   0.118E-02 0.107E-02
CGA:  83    -0.422939656129E+03   -0.13025E-03   -0.10525E-03  6336   0.124E-02 0.103E-02
CGA:  84    -0.422939896343E+03   -0.24021E-03    0.87906E-04  6336   0.120E-02 0.977E-03
CGA:  85    -0.422939964365E+03   -0.68022E-04   -0.73263E-04  6336   0.114E-02 0.100E-02
CGA:  86    -0.422940171372E+03   -0.20701E-03    0.10026E-03  6336   0.112E-02 0.102E-02
CGA:  87    -0.422940299019E+03   -0.12765E-03   -0.10235E-03  6336   0.118E-02 0.981E-03
CGA:  88    -0.422940533237E+03   -0.23422E-03    0.83559E-04  6336   0.115E-02 0.928E-03
CGA:  89    -0.422940591684E+03   -0.58447E-04   -0.67230E-04  6336   0.109E-02 0.965E-03
CGA:  90    -0.422940789362E+03   -0.19768E-03    0.10009E-03  6336   0.107E-02 0.983E-03
CGA:  91    -0.422940918489E+03   -0.12913E-03   -0.10200E-03  6336   0.114E-02 0.946E-03
CGA:  92    -0.422941150746E+03   -0.23226E-03    0.80042E-04  6336   0.113E-02 0.886E-03
CGA:  93    -0.422941199622E+03   -0.48876E-04   -0.61675E-04  6336   0.104E-02 0.936E-03
CGA:  94    -0.422941388838E+03   -0.18922E-03    0.10308E-03  6336   0.103E-02 0.961E-03
CGA:  95    -0.422941528192E+03   -0.13935E-03   -0.10652E-03  6336   0.113E-02 0.921E-03
CGA:  96    -0.422941763631E+03   -0.23544E-03    0.77666E-04  6336   0.113E-02 0.845E-03
CGA:  97    -0.422941801956E+03   -0.38324E-04   -0.56213E-04  6336   0.101E-02 0.919E-03
CGA:  98    -0.422941982395E+03   -0.18044E-03    0.11253E-03  6336   0.101E-02 0.950E-03
CGA:  99    -0.422942149860E+03   -0.16746E-03   -0.12048E-03  6336   0.114E-02 0.905E-03
CGA: 100    -0.422942395658E+03   -0.24580E-03    0.76650E-04  6336   0.115E-02 0.791E-03
CGA: 101    -0.422942421392E+03   -0.25734E-04   -0.50501E-04  6336   0.979E-03 0.914E-03
CGA: 102    -0.422942590192E+03   -0.16880E-03    0.14220E-03  6336   0.976E-03 0.947E-03
CGA: 103    -0.422942852461E+03   -0.26227E-03   -0.16864E-03  6336   0.118E-02 0.896E-03
CGA: 104    -0.422943126426E+03   -0.27397E-03    0.80921E-04  6336   0.127E-02 0.673E-03
CGA: 105    -0.422943134746E+03   -0.83201E-05   -0.44963E-04  6336   0.947E-03 0.936E-03
CGA: 106    -0.422943282159E+03   -0.14741E-03    0.49367E-03  6336   0.943E-03 0.943E-03
CGA: 107    -0.422943419527E+03   -0.13737E-03    0.53948E-01  6336   0.940E-03 0.939E-03
CGA: 108    -0.422943567060E+03   -0.14753E-03    0.43374E-03  6336   0.937E-03 0.935E-03
CGA: 109    -0.422944447952E+03   -0.88089E-03    0.34684E-01  6336   0.960E-03 0.911E-03
CGA: 110    -0.422944792669E+03   -0.34472E-03    0.18021E-03  6336   0.135E-02 0.742E-03
CGA: 111    -0.422944783201E+03    0.94688E-05   -0.58433E-04  6336   0.929E-03 0.777E-03
CGA: 112    -0.422945096472E+03   -0.31327E-03    0.18945E-03  6336   0.113E-02 0.805E-03
CGA: 113    -0.422945106003E+03   -0.95304E-05   -0.62812E-04  6336   0.984E-03 0.739E-03
CGA: 114    -0.422945453303E+03   -0.34730E-03    0.14720E-03  6336   0.153E-02 0.638E-03
CGA: 115    -0.422945436885E+03    0.16418E-04   -0.55717E-04  6336   0.884E-03 0.845E-03
CGA: 116    -0.422945676546E+03   -0.23966E-03    0.41588E-03  6336   0.890E-03 0.872E-03
CGA: 117    -0.422946006838E+03   -0.33029E-03   -0.22496E-03  6336   0.144E-02 0.780E-03
CGA: 118    -0.422946454011E+03   -0.44717E-03    0.40364E-03  6336   0.485E-02-0.637E-03
CGA: 119    -0.422947261671E+03   -0.80766E-03    0.95201E-03  6336   0.162E-01 0.139E-02
CGA: 120    -0.422950765357E+03   -0.35037E-02   -0.31792E-02  6336   0.916E-02 0.911E-02
CGA: 121    -0.422951609650E+03   -0.84429E-03   -0.56972E-03  6336   0.555E-02-0.528E-02
CGA: 122    -0.422951601182E+03    0.84681E-05   -0.14932E-03  6336   0.111E-02 0.201E-02
CGA: 123    -0.422951567569E+03    0.33613E-04   -0.38650E-04  6336   0.838E-03 0.799E-03
CGA: 124    -0.422951816190E+03   -0.24862E-03    0.16727E-03  6336   0.959E-03 0.738E-03
CGA: 125    -0.422951828726E+03   -0.12536E-04   -0.54262E-04  6336   0.860E-03 0.712E-03
CGA: 126    -0.422952095431E+03   -0.26671E-03    0.12649E-03  6336   0.107E-02 0.682E-03
CGA: 127    -0.422952092201E+03    0.32299E-05   -0.46900E-04  6336   0.818E-03 0.740E-03
CGA: 128    -0.422952312442E+03   -0.22024E-03    0.18813E-03  6336   0.868E-03 0.770E-03
CGA: 129    -0.422952365347E+03   -0.52905E-04   -0.71764E-04  6336   0.917E-03 0.715E-03
CGA: 130    -0.422952656903E+03   -0.29156E-03    0.10310E-03  6336   0.127E-02 0.570E-03
CGA: 131    -0.422952642623E+03    0.14280E-04   -0.44030E-04  6336   0.802E-03 0.815E-03
CGA: 132    -0.422953707799E+03   -0.10652E-02    0.71651E-02  6336   0.818E-03 0.800E-03
CGA: 133    -0.422954084321E+03   -0.37652E-03    0.35986E-03  6336   0.108E-02 0.737E-03
CGA: 134    -0.422954071640E+03    0.12682E-04   -0.65078E-04  6336   0.936E-03 0.615E-03
CGA: 135    -0.422954534198E+03   -0.46256E-03    0.24518E-03  6336   0.296E-02 0.278E-03
CGA: 136    -0.422957551184E+03   -0.30170E-02   -0.18638E-02  6336   0.269E-02 0.331E-02
CGA: 137    -0.422958065551E+03   -0.51437E-03   -0.30827E-03  6336   0.875E-02-0.276E-02
CGA: 138    -0.422958101919E+03   -0.36368E-04   -0.24959E-03  6336   0.129E-02 0.270E-02
CGA: 139    -0.422958056148E+03    0.45772E-04   -0.52975E-04  6336   0.966E-03 0.713E-03
CGA: 140    -0.422958519606E+03   -0.46346E-03    0.24714E-03  6336   0.214E-02 0.568E-03
CGA: 141    -0.422958482116E+03    0.37490E-04   -0.76853E-04  6336   0.893E-03 0.903E-03
CGA: 142    -0.422958506537E+03   -0.24421E-04   -0.97942E-04  6336   0.195E-02 0.779E-03
CGA: 143    -0.422958033279E+03    0.47326E-03   -0.65643E-03  6336   0.589E-01-0.648E-02
CGA: 144    -0.422959411553E+03   -0.13783E-02   -0.14257E-02  6336   0.991E-02 0.246E-01
CGA: 145    -0.422959464215E+03   -0.52662E-04   -0.26737E-03  6336   0.152E-02 0.450E-02
CGA: 146    -0.422959412850E+03    0.51364E-04   -0.50375E-04  6336   0.925E-03 0.869E-03
CGA: 147    -0.422959768114E+03   -0.35526E-03    0.27727E-03  6336   0.111E-02 0.844E-03
CGA: 148    -0.422959783057E+03   -0.14943E-04   -0.75799E-04  6336   0.107E-02 0.725E-03
CGA: 149    -0.422960229259E+03   -0.44620E-03    0.19698E-03  6336   0.246E-02 0.402E-03
CGA: 150    -0.422962122115E+03   -0.18929E-02   -0.12585E-02  6336   0.263E-02 0.256E-02
CGA: 151    -0.422962550269E+03   -0.42815E-03   -0.41019E-03  6336   0.180E-01-0.456E-02
CGA: 152    -0.422962781536E+03   -0.23127E-03   -0.49684E-03  6336   0.210E-02 0.564E-02
CGA: 153    -0.422962729414E+03    0.52123E-04   -0.63837E-04  6336   0.809E-03 0.107E-02
CGA: 154    -0.422963090940E+03   -0.36153E-03   -0.24609E-03  6336   0.134E-02 0.707E-03
CGA: 155    -0.422963580302E+03   -0.48936E-03    0.57952E-03  6336   0.636E-02-0.100E-02
CGA: 156    -0.422963571298E+03    0.90034E-05   -0.17942E-03  6336   0.109E-02 0.215E-02
CGA: 157    -0.422963530147E+03    0.41152E-04   -0.39966E-04  6336   0.774E-03 0.716E-03
CGA: 158    -0.422963832186E+03   -0.30204E-03    0.14766E-03  6336   0.957E-03 0.664E-03
CGA: 159    -0.422963825552E+03    0.66341E-05   -0.50063E-04  6336   0.772E-03 0.637E-03
CGA: 160    -0.422964130237E+03   -0.30469E-03    0.12211E-03  6336   0.103E-02 0.611E-03
CGA: 161    -0.422964114524E+03    0.15713E-04   -0.45053E-04  6336   0.727E-03 0.658E-03
CGA: 162    -0.422964364388E+03   -0.24986E-03    0.16533E-03  6336   0.786E-03 0.680E-03
CGA: 163    -0.422964395268E+03   -0.30880E-04   -0.63017E-04  6336   0.813E-03 0.607E-03
CGA: 164    -0.422964728259E+03   -0.33299E-03    0.92499E-04  6336   0.141E-02 0.409E-03
CGA: 165    -0.422964698119E+03    0.30140E-04   -0.44877E-04  6336   0.703E-03 0.792E-03
CGA: 166    -0.422964884738E+03   -0.18662E-03   -0.13997E-03  6336   0.950E-03 0.620E-03
CGA: 167    -0.422965268795E+03   -0.38406E-03    0.10826E-03  6336   0.234E-02-0.114E-05
CGA: 168    -0.422965890667E+03   -0.62187E-03    0.47127E-02  6336   0.235E-02 0.223E-02
CGA: 169    -0.422965851555E+03    0.39111E-04   -0.64156E-04  6336   0.766E-03 0.111E-02
CGA: 170    -0.422965820683E+03    0.30872E-04   -0.31272E-04  6336   0.692E-03 0.663E-03
CGA: 171    -0.422966076915E+03   -0.25623E-03    0.74522E-04  6336   0.899E-03 0.514E-03
CGA: 172    -0.422966062161E+03    0.14754E-04   -0.34701E-04  6336   0.631E-03 0.621E-03
CGA: 173    -0.422966222878E+03   -0.16072E-03    0.34225E-03  6336   0.628E-03 0.627E-03
CGA: 174    -0.422967074897E+03   -0.85202E-03    0.11432E-01  6336   0.107E-02 0.594E-03
CGA: 175    -0.422967529822E+03   -0.45493E-03    0.78042E-02  6336   0.967E-02-0.141E-02
CGA: 176    -0.422967574011E+03   -0.44188E-04   -0.27257E-03  6336   0.126E-02 0.310E-02
CGA: 177    -0.422967517854E+03    0.56156E-04   -0.42507E-04  6336   0.595E-03 0.664E-03
CGA: 178    -0.422967762052E+03   -0.24420E-03    0.82670E-03  6336   0.591E-03 0.591E-03
CGA: 179    -0.422969169079E+03   -0.14070E-02    0.70834E-02  6336   0.949E-03 0.573E-03
CGA: 180    -0.422969531024E+03   -0.36195E-03   -0.30472E-03  6336   0.189E-01-0.199E-02
CGA: 181    -0.422969804733E+03   -0.27371E-03   -0.43687E-03  6336   0.393E-02 0.857E-02
CGA: 182    -0.422969757330E+03    0.47403E-04   -0.11024E-03  6336   0.795E-03 0.200E-02
CGA: 183    -0.422969717542E+03    0.39788E-04   -0.53926E-04  6336   0.703E-03 0.392E-03
CGA: 184    -0.422973807595E+03   -0.40901E-02   -0.20787E-01  6336   0.258E-02 0.863E-03
CGA: 185    -0.422973914313E+03   -0.10672E-03   -0.19777E-03  6336   0.968E-03 0.640E-03
CGA: 186    -0.422974275962E+03   -0.36165E-03   -0.24480E-03  6336   0.261E-02-0.469E-03
CGA: 187    -0.422974337373E+03   -0.61411E-04   -0.14198E-03  6336   0.517E-02 0.856E-04
CGA: 188    -0.422975533652E+03   -0.11963E-02   -0.19197E-02  6336   0.200E-01 0.233E-02
CGA: 189    -0.422978192013E+03   -0.26584E-02   -0.30034E-02  6336   0.415E-01-0.166E-01
CGA: 190    -0.422979208410E+03   -0.10164E-02   -0.83335E-03  6336   0.175E-01 0.271E-01
CGA: 191    -0.422979730739E+03   -0.52233E-03   -0.62605E-03  6336   0.468E-02 0.741E-02
CGA: 192    -0.422979950634E+03   -0.21990E-03   -0.40133E-03  6336   0.496E-02 0.139E-02
CGA: 193    -0.422980818711E+03   -0.86808E-03   -0.76743E-03  6336   0.497E-02-0.408E-03
CGA: 194    -0.422981344072E+03   -0.52536E-03   -0.23120E-03  6336   0.152E-02-0.196E-02
CGA: 195    -0.422981684981E+03   -0.34091E-03   -0.35497E-03  6336   0.153E-01-0.154E-02
CGA: 196    -0.422981967511E+03   -0.28253E-03   -0.41679E-03  6336   0.403E-02 0.762E-02
CGA: 197    -0.422981949930E+03    0.17581E-04   -0.13992E-03  6336   0.131E-02 0.250E-02
CGA: 198    -0.422982010510E+03   -0.60580E-04   -0.18346E-03  6336   0.108E-02 0.639E-03
CGA: 199    -0.422982424325E+03   -0.41382E-03   -0.38090E-03  6336   0.269E-02-0.355E-03
CGA: 200    -0.422982359960E+03    0.64366E-04   -0.84357E-04  6336   0.188E-02 0.485E-03
   1 F= -.42298236E+03 E0= -.42297996E+03  d E =-.422982E+03  mag=    10.0000
       N       E                     dE             d eps       ncg     rms          ort
SDA:   1    -0.422980857516E+03    0.15668E-02    0.00000E+00  6336   0.101E-01 0.000E+00
CGA:   2    -0.422982742558E+03   -0.18850E-02   -0.17856E-02  6336   0.569E-02-0.158E-02
CGA:   3    -0.422983157068E+03   -0.41451E-03   -0.56502E-03  6336   0.297E-02 0.957E-03
CGA:   4    -0.422983634217E+03   -0.47715E-03   -0.39619E-03  6336   0.211E-02-0.535E-03
CGA:   5    -0.422983644755E+03   -0.10538E-04   -0.14337E-03  6336   0.102E-02 0.710E-03
CGA:   6    -0.422983690569E+03   -0.45814E-04   -0.11670E-03  6336   0.674E-03 0.419E-03
CGA:   7    -0.422983933139E+03   -0.24257E-03   -0.26293E-03  6336   0.552E-02-0.108E-02
CGA:   8    -0.422983992054E+03   -0.58915E-04   -0.25008E-03  6336   0.110E-02 0.154E-02
CGA:   9    -0.422984045534E+03   -0.53480E-04   -0.10014E-03  6336   0.565E-03 0.342E-03
CGA:  10    -0.422984211072E+03   -0.16554E-03   -0.19357E-03  6336   0.544E-02-0.122E-02
CGA:  11    -0.422984305668E+03   -0.94596E-04   -0.23847E-03  6336   0.102E-02 0.161E-02
CGA:  12    -0.422984365879E+03   -0.60211E-04   -0.92312E-04  6336   0.560E-03 0.239E-03
CGA:  13    -0.422984317532E+03    0.48348E-04   -0.25517E-03  6336   0.107E-01-0.204E-02
CGA:  14    -0.422984560132E+03   -0.24260E-03   -0.48246E-03  6336   0.207E-02 0.315E-02
CGA:  15    -0.422984643625E+03   -0.83493E-04   -0.15744E-03  6336   0.773E-03 0.743E-03
CGA:  16    -0.422984811858E+03   -0.16823E-03   -0.11099E-03  6336   0.905E-03-0.522E-03
CGA:  17    -0.422984815054E+03   -0.31963E-05   -0.51468E-04  6336   0.337E-03 0.365E-03
CGA:  18    -0.422984910187E+03   -0.95133E-04   -0.95596E-04  6336   0.899E-03-0.129E-03
CGA:  19    -0.422978795117E+03    0.61151E-02   -0.36159E-02  6336   0.946E-01-0.616E-02
CGA:  20    -0.422981328148E+03   -0.25330E-02   -0.16008E-02  6336   0.624E-01 0.779E-01
CGA:  21    -0.422983730589E+03   -0.24024E-02   -0.16054E-02  6336   0.351E-01 0.471E-01
CGA:  22    -0.422985836959E+03   -0.21064E-02   -0.15138E-02  6336   0.146E-01 0.225E-01
CGA:  23    -0.422987148510E+03   -0.13116E-02   -0.10847E-02  6336   0.213E-02 0.557E-02
CGA:  24    -0.422987309261E+03   -0.16075E-03   -0.19175E-03  6336   0.305E-03 0.677E-03
CGA:  25    -0.422987334309E+03   -0.25048E-04   -0.44841E-04  6336   0.278E-03 0.121E-03
CGA:  26    -0.422987355517E+03   -0.21208E-04   -0.51777E-04  6336   0.299E-03 0.198E-03
CGA:  27    -0.422987441095E+03   -0.85578E-04   -0.93923E-04  6336   0.747E-03-0.201E-03
CGA:  28    -0.422987495716E+03   -0.54621E-04   -0.73927E-04  6336   0.120E-03 0.163E-03
CGA:  29    -0.422987497253E+03   -0.15369E-05   -0.17149E-04  6336   0.138E-03 0.103E-03
CGA:  30    -0.422987603938E+03   -0.10669E-03    0.36851E-04  6336   0.204E-03 0.711E-04
CGA:  31    -0.422987581936E+03    0.22002E-04   -0.84933E-05  6336   0.127E-03 0.141E-03
CGA:  32    -0.422987597589E+03   -0.15653E-04   -0.22727E-04  6336   0.118E-03 0.983E-04
CGA:  33    -0.422987693508E+03   -0.95920E-04    0.22197E-04  6336   0.165E-03 0.887E-04
CGA:  34    -0.422987674485E+03    0.19023E-04   -0.61247E-05  6336   0.112E-03 0.121E-03
CGA:  35    -0.422987680426E+03   -0.59407E-05   -0.15740E-04  6336   0.112E-03 0.101E-03
CGA:  36    -0.422987783953E+03   -0.10353E-03    0.12780E-04  6336   0.211E-03 0.775E-04
CGA:  37    -0.422987761869E+03    0.22084E-04   -0.60748E-05  6336   0.117E-03 0.142E-03
CGA:  38    -0.422987751307E+03    0.10561E-04   -0.62292E-05  6336   0.103E-03 0.100E-03
CGA:  39    -0.422987807191E+03   -0.55884E-04    0.39493E-04  6336   0.108E-03 0.995E-04
CGA:  40    -0.422987801005E+03    0.61857E-05   -0.75742E-05  6336   0.102E-03 0.962E-04
CGA:  41    -0.422987871995E+03   -0.70989E-04    0.15336E-04  6336   0.129E-03 0.907E-04
CGA:  42    -0.422987859050E+03    0.12944E-04   -0.46463E-05  6336   0.993E-04 0.104E-03
CGA:  43    -0.422987869925E+03   -0.10875E-04   -0.15150E-04  6336   0.104E-03 0.948E-04
CGA:  44    -0.422987955805E+03   -0.85880E-04    0.89755E-05  6336   0.171E-03 0.735E-04
CGA:  45    -0.422987939282E+03    0.16523E-04   -0.45312E-05  6336   0.108E-03 0.127E-03
CGA:  46    -0.422987930966E+03    0.83164E-05   -0.49789E-05  6336   0.950E-04 0.947E-04
CGA:  47    -0.422987965844E+03   -0.34878E-04    0.36469E-03  6336   0.938E-04 0.943E-04
CGA:  48    -0.422988015185E+03   -0.49341E-04   -0.33061E-04  6336   0.973E-04 0.914E-04
CGA:  49    -0.422988094856E+03   -0.79671E-04    0.77739E-05  6336   0.156E-03 0.695E-04
CGA:  50    -0.422988079925E+03    0.14931E-04   -0.40020E-05  6336   0.101E-03 0.118E-03
CGA:  51    -0.422988072200E+03    0.77255E-05   -0.44444E-05  6336   0.891E-04 0.894E-04
CGA:  52    -0.422988264478E+03   -0.19228E-03    0.27694E-02  6336   0.807E-04 0.847E-04
CGA:  53    -0.422988382433E+03   -0.11795E-03   -0.71378E-04  6336   0.851E-04 0.767E-04
CGA:  54    -0.422988531995E+03   -0.14956E-03    0.94370E-05  6336   0.535E-03 0.324E-05
CGA:  55    -0.422989537498E+03   -0.10055E-02   -0.83871E-03  6336   0.543E-02-0.227E-03
CGA:  56    -0.422989848912E+03   -0.31141E-03   -0.26118E-03  6336   0.410E-02-0.298E-04
CGA:  57    -0.422989884024E+03   -0.35112E-04   -0.52153E-03  6336   0.142E-02-0.141E-02
CGA:  58    -0.422990127624E+03   -0.24360E-03   -0.86043E-04  6336   0.670E-03-0.472E-03
CGA:  59    -0.422990117836E+03    0.97878E-05   -0.37604E-04  6336   0.271E-03 0.134E-03
CGA:  60    -0.422990083734E+03    0.34103E-04   -0.13664E-04  6336   0.151E-03 0.171E-03
CGA:  61    -0.422990095361E+03   -0.11627E-04   -0.27263E-04  6336   0.900E-04 0.107E-03
CGA:  62    -0.422990088160E+03    0.72010E-05   -0.95958E-05  6336   0.737E-04 0.798E-04
CGA:  63    -0.422990092736E+03   -0.45765E-05   -0.12773E-04  6336   0.563E-04 0.610E-04
   2 F= -.42299009E+03 E0= -.42298848E+03  d E =-.773278E-02  mag=    10.0000
       N       E                     dE             d eps       ncg     rms          ort
SDA:   1    -0.422989996608E+03    0.91552E-04    0.00000E+00  6336   0.368E-03 0.000E+00
CGA:   2    -0.422990108337E+03   -0.11173E-03   -0.11238E-03  6336   0.409E-03-0.495E-04
CGA:   3    -0.422990081976E+03    0.26361E-04   -0.14344E-04  6336   0.158E-03 0.168E-03
CGA:   4    -0.422990067916E+03    0.14060E-04   -0.91744E-05  6336   0.852E-04 0.995E-04
CGA:   5    -0.422990189647E+03   -0.12173E-03    0.69062E-05  6336   0.447E-03-0.104E-03
CGA:   6    -0.422990155914E+03    0.33734E-04   -0.11715E-04  6336   0.101E-03 0.207E-03
CGA:   7    -0.422990139024E+03    0.16889E-04   -0.23649E-05  6336   0.376E-04 0.839E-04
CGA:   8    -0.422990132959E+03    0.60655E-05   -0.66235E-06  6336   0.243E-04 0.299E-04
   3 F= -.42299013E+03 E0= -.42298842E+03  d E =-.402226E-04  mag=    10.0000
       N       E                     dE             d eps       ncg     rms          ort
SDA:   1    -0.422989870685E+03    0.26834E-03    0.00000E+00  6336   0.137E-02 0.000E+00
CGA:   2    -0.422990179231E+03   -0.30855E-03   -0.13687E-03  6336   0.206E-02-0.154E-02
CGA:   3    -0.422990139445E+03    0.39786E-04   -0.61536E-04  6336   0.248E-03 0.705E-03
CGA:   4    -0.422990115824E+03    0.23622E-04   -0.59429E-05  6336   0.702E-04 0.166E-03
CGA:   5    -0.422990107883E+03    0.79411E-05   -0.12430E-05  6336   0.403E-04 0.516E-04
   4 F= -.42299011E+03 E0= -.42298837E+03  d E =0.250762E-04  mag=    10.0000
       N       E                     dE             d eps       ncg     rms          ort
SDA:   1    -0.422989803182E+03    0.31264E-03    0.00000E+00  6336   0.194E-02 0.000E+00
CGA:   2    -0.422990169602E+03   -0.36642E-03   -0.19735E-03  6336   0.316E-02-0.233E-02
CGA:   3    -0.422990143054E+03    0.26548E-04   -0.94073E-04  6336   0.358E-03 0.107E-02
CGA:   4    -0.422990116826E+03    0.26228E-04   -0.81293E-05  6336   0.921E-04 0.240E-03
CGA:   5    -0.422990108248E+03    0.85778E-05   -0.12541E-05  6336   0.493E-04 0.673E-04
   5 F= -.42299011E+03 E0= -.42298836E+03  d E =-.365515E-06  mag=    10.0000
