       N       E                     dE             d eps       ncg     rms          ort
DAV:   1     0.113067125987E+05    0.11307E+05   -0.60756E+05   720   0.157E+03
DAV:   2    -0.721116730948E+03   -0.12028E+05   -0.11513E+05   720   0.445E+02
DAV:   3    -0.204396943415E+04   -0.13229E+04   -0.12911E+04   720   0.159E+02
DAV:   4    -0.212070593384E+04   -0.76736E+02   -0.75492E+02   720   0.404E+01
DAV:   5    -0.212770529419E+04   -0.69994E+01   -0.69487E+01   720   0.807E+00
SDA:   6    -0.146758325339E+04    0.66012E+03   -0.69487E+01   720   0.200E+04 0.000E+00
CGA:   7    -0.167154139325E+04   -0.20396E+03   -0.21860E+03   720   0.430E+03 0.259E+03
CGA:   8    -0.170183679018E+04   -0.30295E+02   -0.33930E+02   720   0.278E+03 0.509E+02
CGA:   9    -0.171044268400E+04   -0.86059E+01   -0.23733E+02   720   0.273E+03 0.242E+02
CGA:  10    -0.172014236769E+04   -0.96997E+01   -0.13942E+02   720   0.192E+03-0.173E+01
CGA:  11    -0.172058050206E+04   -0.43813E+00   -0.13582E+02   720   0.151E+03-0.402E+02
CGA:  12    -0.172223265978E+04   -0.16522E+01   -0.81930E+01   720   0.230E+03-0.561E+01
CGA:  13    -0.171869139718E+04    0.35413E+01   -0.96888E+01   720   0.201E+03-0.653E+02
CGA:  14    -0.172700471431E+04   -0.83133E+01   -0.49651E+01   720   0.757E+02-0.474E+02
CGA:  15    -0.173000394526E+04   -0.29992E+01   -0.31156E+01   720   0.685E+02-0.285E+02
CGA:  16    -0.173185582805E+04   -0.18519E+01   -0.19856E+01   720   0.678E+02-0.213E+02
CGA:  17    -0.173249114469E+04   -0.63532E+00   -0.23623E+01   720   0.120E+03-0.240E+02
CGA:  18    -0.173174209638E+04    0.74905E+00   -0.26046E+01   720   0.141E+03-0.530E+02
CGA:  19    -0.173236996723E+04   -0.62787E+00   -0.17946E+01   720   0.779E+02-0.123E+03
CGA:  20    -0.173420307915E+04   -0.18331E+01   -0.52863E+01   720   0.718E+02-0.533E+01
CGA:  21    -0.173524123731E+04   -0.10382E+01   -0.35005E+01   720   0.893E+02-0.258E+02
CGA:  22    -0.173624091510E+04   -0.99968E+00   -0.29514E+01   720   0.493E+02-0.131E+02
CGA:  23    -0.173787557788E+04   -0.16347E+01   -0.16040E+01   720   0.146E+02-0.270E+02
CGA:  24    -0.173823126644E+04   -0.35569E+00   -0.42920E+00   720   0.896E+01-0.387E+01
CGA:  25    -0.173849489599E+04   -0.26363E+00   -0.27067E+00   720   0.705E+01-0.210E+00
CGA:  26    -0.173871004656E+04   -0.21515E+00   -0.26738E+00   720   0.596E+01-0.967E+00
CGA:  27    -0.173882485925E+04   -0.11481E+00   -0.99854E-01   720   0.314E+01 0.899E+00
CGA:  28    -0.173889126281E+04   -0.66404E-01   -0.52282E-01   720   0.945E+00 0.961E+00
CGA:  29    -0.173891455947E+04   -0.23297E-01   -0.28199E-01   720   0.940E+00-0.169E+00
CGA:  30    -0.173895575988E+04   -0.41200E-01   -0.38389E-01   720   0.294E+01 0.378E-01
CGA:  31    -0.173902081144E+04   -0.65052E-01   -0.51058E-01   720   0.232E+01 0.796E+00
CGA:  32    -0.173908422762E+04   -0.63416E-01   -0.66801E-01   720   0.228E+01-0.256E-01
CGA:  33    -0.173913240651E+04   -0.48179E-01   -0.50013E-01   720   0.224E+01-0.606E-01
CGA:  34    -0.173916437372E+04   -0.31967E-01   -0.34130E-01   720   0.109E+01-0.662E-01
CGA:  35    -0.173917887006E+04   -0.14496E-01   -0.16662E-01   720   0.530E+00-0.101E+00
CGA:  36    -0.173918754740E+04   -0.86773E-02   -0.10139E-01   720   0.443E+00-0.451E-01
CGA:  37    -0.173919693854E+04   -0.93911E-02   -0.93999E-02   720   0.385E+00 0.147E-01
CGA:  38    -0.173920653430E+04   -0.95958E-02   -0.10081E-01   720   0.391E+00 0.191E-02
CGA:  39    -0.173921680797E+04   -0.10274E-01   -0.10108E-01   720   0.353E+00 0.168E-01
CGA:  40    -0.173922561660E+04   -0.88086E-02   -0.95799E-02   720   0.327E+00-0.140E-01
CGA:  41    -0.173923383822E+04   -0.82216E-02   -0.86940E-02   720   0.246E+00-0.880E-02
CGA:  42    -0.173923953905E+04   -0.57008E-02   -0.61037E-02   720   0.137E+00-0.760E-02
CGA:  43    -0.173924280316E+04   -0.32641E-02   -0.31318E-02   720   0.979E-01 0.622E-02
CGA:  44    -0.173924656256E+04   -0.37594E-02   -0.37712E-02   720   0.143E+00 0.847E-03
CGA:  45    -0.173925111244E+04   -0.45499E-02   -0.45425E-02   720   0.146E+00-0.386E-03
CGA:  46    -0.173925572037E+04   -0.46079E-02   -0.47024E-02   720   0.147E+00-0.325E-02
CGA:  47    -0.173926065032E+04   -0.49299E-02   -0.48985E-02   720   0.133E+00-0.175E-02
CGA:  48    -0.173926402142E+04   -0.33711E-02   -0.32815E-02   720   0.629E-01 0.686E-03
CGA:  49    -0.173926564343E+04   -0.16220E-02   -0.15832E-02   720   0.430E-01-0.161E-02
CGA:  50    -0.173926727886E+04   -0.16354E-02   -0.16216E-02   720   0.530E-01-0.240E-02
CGA:  51    -0.173926899278E+04   -0.17139E-02   -0.17065E-02   720   0.438E-01-0.115E-02
CGA:  52    -0.173927016364E+04   -0.11709E-02   -0.11827E-02   720   0.300E-01 0.141E-02
CGA:  53    -0.173927113666E+04   -0.97302E-03   -0.99326E-03   720   0.295E-01 0.153E-02
SDA:  54    -0.173927216175E+04   -0.10251E-02   -0.10294E-02   720   0.240E-01 0.254E-04
CGA:  55    -0.173927318365E+04   -0.10219E-02   -0.10164E-02   720   0.105E-01-0.179E-02
CGA:  56    -0.173927380526E+04   -0.62161E-03   -0.60357E-03   720   0.976E-02 0.110E-02
CGA:  57    -0.173927486400E+04   -0.10587E-02   -0.10407E-02   720   0.933E-02 0.403E-03
CGA:  58    -0.173927551653E+04   -0.65252E-03   -0.66491E-03   720   0.923E-02-0.621E-03
CGA:  59    -0.173927634296E+04   -0.82644E-03   -0.87453E-03   720   0.107E-01-0.860E-03
CGA:  60    -0.173927687764E+04   -0.53468E-03   -0.53638E-03   720   0.346E-02-0.719E-03
CGA:  61    -0.173927712271E+04   -0.24507E-03   -0.28047E-03   720   0.529E-02-0.103E-02
CGA:  62    -0.173927739395E+04   -0.27124E-03   -0.35052E-03   720   0.805E-02-0.197E-02
CGA:  63    -0.173927765448E+04   -0.26053E-03   -0.24624E-03   720   0.235E-02-0.159E-02
CGA:  64    -0.173927777149E+04   -0.11701E-03   -0.13254E-03   720   0.391E-02-0.111E-02
CGA:  65    -0.173927781660E+04   -0.45114E-04   -0.31446E-03   720   0.127E-01-0.274E-02
CGA:  66    -0.173927816486E+04   -0.34826E-03   -0.36546E-03   720   0.220E-02 0.612E-03
CGA:  67    -0.173927828431E+04   -0.11946E-03   -0.12044E-03   720   0.142E-02 0.122E-03
CGA:  68    -0.173927845301E+04   -0.16870E-03   -0.18637E-03   720   0.241E-02-0.267E-03
CGA:  69    -0.173927854661E+04   -0.93600E-04   -0.93923E-04   720   0.966E-03 0.198E-04
CGA:  70    -0.173927860337E+04   -0.56761E-04   -0.57292E-04   720   0.116E-02 0.165E-03
CGA:  71    -0.173927872684E+04   -0.12347E-03   -0.12101E-03   720   0.123E-02 0.107E-03
CGA:  72    -0.173927880508E+04   -0.78232E-04   -0.77224E-04   720   0.540E-03-0.172E-03
CGA:  73    -0.173927883071E+04   -0.25632E-04   -0.25781E-04   720   0.427E-03 0.225E-04
CGA:  74    -0.173927888453E+04   -0.53822E-04   -0.58078E-04   720   0.931E-03-0.584E-04
CGA:  75    -0.173927893117E+04   -0.46637E-04   -0.45825E-04   720   0.349E-03-0.951E-04
CGA:  76    -0.173927893509E+04   -0.39257E-05   -0.76147E-05   720   0.133E-03 0.874E-04
   1 F= -.17392789E+04 E0= -.17392499E+04  d E =-.173928E+04  mag=    46.0000
       N       E                     dE             d eps       ncg     rms          ort
SDA:   1    -0.173932183936E+04   -0.42908E-01    0.00000E+00   720   0.439E-01 0.000E+00
CGA:   2    -0.173932316063E+04   -0.13213E-02   -0.13671E-02   720   0.121E-01 0.120E-02
CGA:   3    -0.173932420911E+04   -0.10485E-02   -0.10169E-02   720   0.142E-01 0.143E-02
CGA:   4    -0.173932514362E+04   -0.93452E-03   -0.93687E-03   720   0.364E-02 0.116E-02
CGA:   5    -0.173932536131E+04   -0.21768E-03   -0.21822E-03   720   0.256E-02 0.918E-04
CGA:   6    -0.173932564031E+04   -0.27901E-03   -0.28914E-03   720   0.221E-02-0.209E-03
CGA:   7    -0.173932576655E+04   -0.12624E-03   -0.12600E-03   720   0.675E-03-0.212E-03
CGA:   8    -0.173932579572E+04   -0.29162E-04   -0.29546E-04   720   0.410E-03 0.256E-04
CGA:   9    -0.173932550717E+04    0.28854E-03   -0.15867E-03   720   0.112E-01-0.134E-02
CGA:  10    -0.173932577759E+04   -0.27042E-03   -0.28408E-03   720   0.126E-02 0.185E-03
CGA:  11    -0.173932585081E+04   -0.73221E-04   -0.77567E-04   720   0.819E-03 0.878E-04
CGA:  12    -0.173932589051E+04   -0.39694E-04   -0.49963E-04   720   0.247E-03 0.207E-03
CGA:  13    -0.173932590674E+04   -0.16229E-04   -0.16869E-04   720   0.161E-03 0.116E-04
CGA:  14    -0.173932591844E+04   -0.11701E-04   -0.12409E-04   720   0.147E-03 0.251E-04
CGA:  15    -0.173932591950E+04   -0.10620E-05   -0.62637E-05   720   0.544E-04 0.820E-04
   2 F= -.17393259E+04 E0= -.17392969E+04  d E =-.469844E-01  mag=    46.0000
       N       E                     dE             d eps       ncg     rms          ort
SDA:   1    -0.173247971178E+04    0.68462E+01    0.00000E+00   720   0.594E+02 0.000E+00
CGA:   2    -0.173505360146E+04   -0.25739E+01   -0.38157E+01   720   0.293E+02 0.729E+01
CGA:   3    -0.173799551282E+04   -0.29419E+01   -0.23295E+01   720   0.228E+02-0.969E+00
CGA:   4    -0.173852946906E+04   -0.53396E+00   -0.79970E+00   720   0.550E+02-0.671E+01
CGA:   5    -0.173927148793E+04   -0.74202E+00   -0.84671E+00   720   0.364E+02-0.679E+01
CGA:   6    -0.173932251959E+04   -0.51032E-01   -0.77197E+00   720   0.395E+02-0.216E+02
CGA:   7    -0.173986492353E+04   -0.54240E+00   -0.10965E+01   720   0.336E+02-0.247E+02
CGA:   8    -0.174001310876E+04   -0.14819E+00   -0.11781E+01   720   0.168E+02-0.112E+02
CGA:   9    -0.174054561483E+04   -0.53251E+00   -0.36002E+00   720   0.462E+01 0.327E+01
CGA:  10    -0.174064521231E+04   -0.99597E-01   -0.94731E-01   720   0.205E+01 0.859E-02
CGA:  11    -0.174074400627E+04   -0.98794E-01   -0.10610E+00   720   0.233E+01 0.415E-01
CGA:  12    -0.174088134721E+04   -0.13734E+00   -0.14098E+00   720   0.236E+01 0.848E-01
CGA:  13    -0.174094221500E+04   -0.60868E-01   -0.53574E-01   720   0.403E+00 0.247E+00
CGA:  14    -0.174095832805E+04   -0.16113E-01   -0.15672E-01   720   0.371E+00 0.359E-02
CGA:  15    -0.174097764821E+04   -0.19320E-01   -0.19585E-01   720   0.667E+00 0.287E-02
CGA:  16    -0.174101352766E+04   -0.35879E-01   -0.36610E-01   720   0.730E+00 0.159E-01
CGA:  17    -0.174103825702E+04   -0.24729E-01   -0.25273E-01   720   0.175E+00-0.410E-02
CGA:  18    -0.174104348272E+04   -0.52257E-02   -0.52794E-02   720   0.699E-01 0.287E-02
CGA:  19    -0.174104895147E+04   -0.54688E-02   -0.54649E-02   720   0.120E+00-0.650E-03
CGA:  20    -0.174105587696E+04   -0.69255E-02   -0.69249E-02   720   0.112E+00-0.101E-02
CGA:  21    -0.174106025702E+04   -0.43801E-02   -0.44501E-02   720   0.374E-01 0.543E-02
CGA:  22    -0.174106167984E+04   -0.14228E-02   -0.14885E-02   720   0.290E-01 0.194E-02
CGA:  23    -0.174106475486E+04   -0.30750E-02   -0.30818E-02   720   0.659E-01-0.236E-03
CGA:  24    -0.174106773417E+04   -0.29793E-02   -0.29801E-02   720   0.305E-01 0.144E-03
CGA:  25    -0.174106875805E+04   -0.10239E-02   -0.10497E-02   720   0.146E-01 0.119E-02
CGA:  26    -0.174106965942E+04   -0.90137E-03   -0.90145E-03   720   0.189E-01-0.966E-04
CGA:  27    -0.174107091658E+04   -0.12572E-02   -0.12659E-02   720   0.158E-01-0.136E-02
CGA:  28    -0.174107135152E+04   -0.43495E-03   -0.44352E-03   720   0.469E-02 0.249E-03
CGA:  29    -0.174107157318E+04   -0.22166E-03   -0.22798E-03   720   0.587E-02 0.572E-03
CGA:  30    -0.174107207894E+04   -0.50576E-03   -0.50495E-03   720   0.721E-02 0.667E-04
CGA:  31    -0.174107240047E+04   -0.32153E-03   -0.31594E-03   720   0.409E-02-0.290E-03
CGA:  32    -0.174107254706E+04   -0.14659E-03   -0.14857E-03   720   0.252E-02 0.106E-03
CGA:  33    -0.174107270743E+04   -0.16037E-03   -0.16021E-03   720   0.415E-02 0.302E-04
CGA:  34    -0.174107296499E+04   -0.25756E-03   -0.25860E-03   720   0.363E-02-0.284E-03
CGA:  35    -0.174107306651E+04   -0.10153E-03   -0.10631E-03   720   0.141E-02 0.180E-03
CGA:  36    -0.174107309869E+04   -0.32179E-04   -0.40308E-04   720   0.614E-03 0.275E-03
CGA:  37    -0.174107312091E+04   -0.22220E-04   -0.25352E-04   720   0.543E-03 0.151E-03
SDA:  38    -0.174107316521E+04   -0.44300E-04   -0.43669E-04   720   0.933E-03 0.609E-04
CGA:  39    -0.174107319206E+04   -0.26844E-04   -0.28690E-04   720   0.183E-03 0.728E-04
CGA:  40    -0.174107320883E+04   -0.16779E-04   -0.17738E-04   720   0.240E-03-0.269E-04
CGA:  41    -0.174107323761E+04   -0.28777E-04   -0.26050E-04   720   0.328E-03 0.375E-04
CGA:  42    -0.174107325146E+04   -0.13844E-04   -0.15684E-04   720   0.672E-04 0.105E-03
CGA:  43    -0.174107325375E+04   -0.22993E-05   -0.31555E-05   720   0.324E-04 0.377E-04
   3 F= -.17410733E+04 E0= -.17410452E+04  d E =-.174733E+01  mag=    46.0000
       N       E                     dE             d eps       ncg     rms          ort
SDA:   1    -0.172704301807E+04    0.14030E+02    0.00000E+00   720   0.799E+02 0.000E+00
CGA:   2    -0.173198960328E+04   -0.49466E+01   -0.48432E+01   720   0.461E+02 0.166E+02
CGA:   3    -0.172817234364E+04    0.38173E+01   -0.75868E+01   720   0.551E+03-0.141E+03
CGA:   4    -0.173739827439E+04   -0.92259E+01   -0.18937E+02   720   0.404E+02-0.277E+02
CGA:   5    -0.173894956503E+04   -0.15513E+01   -0.11751E+01   720   0.290E+02 0.915E+01
CGA:   6    -0.173977099574E+04   -0.82143E+00   -0.24748E+00   720   0.370E+02 0.752E+02
CGA:   7    -0.174042689858E+04   -0.65590E+00   -0.66926E+00   720   0.809E+01-0.863E+01
CGA:   8    -0.174075434241E+04   -0.32744E+00   -0.32735E+00   720   0.951E+01-0.556E-01
CGA:   9    -0.174135732867E+04   -0.60299E+00   -0.59801E+00   720   0.858E+01 0.338E+00
CGA:  10    -0.174168365834E+04   -0.32633E+00   -0.34703E+00   720   0.471E+01 0.944E-01
CGA:  11    -0.174183708593E+04   -0.15343E+00   -0.15300E+00   720   0.212E+01-0.851E-01
CGA:  12    -0.174196276128E+04   -0.12568E+00   -0.12535E+00   720   0.163E+01 0.321E-01
CGA:  13    -0.174205897459E+04   -0.96213E-01   -0.95577E-01   720   0.119E+01 0.683E-01
CGA:  14    -0.174210086948E+04   -0.41895E-01   -0.44772E-01   720   0.463E+00 0.210E-01
CGA:  15    -0.174212435738E+04   -0.23488E-01   -0.23494E-01   720   0.288E+00-0.294E-02
CGA:  16    -0.174214722934E+04   -0.22872E-01   -0.22278E-01   720   0.298E+00 0.185E-01
CGA:  17    -0.174216739474E+04   -0.20165E-01   -0.20094E-01   720   0.231E+00 0.462E-02
CGA:  18    -0.174218153580E+04   -0.14141E-01   -0.13983E-01   720   0.162E+00 0.185E-01
CGA:  19    -0.174219262040E+04   -0.11085E-01   -0.11123E-01   720   0.145E+00-0.631E-02
CGA:  20    -0.174220374740E+04   -0.11127E-01   -0.10947E-01   720   0.725E-01 0.663E-02
CGA:  21    -0.174220817603E+04   -0.44286E-02   -0.44313E-02   720   0.444E-01-0.227E-02
CGA:  22    -0.174221189157E+04   -0.37155E-02   -0.36320E-02   720   0.361E-01 0.284E-02
CGA:  23    -0.174221449588E+04   -0.26043E-02   -0.26390E-02   720   0.295E-01-0.325E-02
CGA:  24    -0.174221632987E+04   -0.18340E-02   -0.18133E-02   720   0.121E-01 0.191E-02
CGA:  25    -0.174221712927E+04   -0.79940E-03   -0.80027E-03   720   0.111E-01-0.232E-03
CGA:  26    -0.174221819841E+04   -0.10691E-02   -0.10272E-02   720   0.866E-02 0.116E-02
CGA:  27    -0.174221885187E+04   -0.65346E-03   -0.65501E-03   720   0.620E-02-0.233E-03
CGA:  28    -0.174221927002E+04   -0.41815E-03   -0.41432E-03   720   0.413E-02 0.469E-03
CGA:  29    -0.174221966184E+04   -0.39182E-03   -0.38676E-03   720   0.334E-02 0.204E-03
CGA:  30    -0.174221992348E+04   -0.26164E-03   -0.25999E-03   720   0.218E-02 0.135E-03
CGA:  31    -0.174222007628E+04   -0.15280E-03   -0.15269E-03   720   0.122E-02 0.171E-04
CGA:  32    -0.174222016363E+04   -0.87343E-04   -0.86434E-04   720   0.655E-03 0.127E-03
CGA:  33    -0.174222023553E+04   -0.71900E-04   -0.90176E-04   720   0.203E-02-0.303E-03
CGA:  34    -0.174222027779E+04   -0.42263E-04   -0.45225E-04   720   0.142E-02 0.112E-03
CGA:  35    -0.174222030155E+04   -0.23764E-04   -0.32204E-04   720   0.379E-03 0.184E-03
CGA:  36    -0.174222031281E+04   -0.11256E-04   -0.13594E-04   720   0.263E-03 0.738E-04
SDA:  37    -0.174222032881E+04   -0.16001E-04   -0.15562E-04   720   0.377E-03-0.380E-04
CGA:  38    -0.174222034721E+04   -0.18395E-04   -0.18355E-04   720   0.159E-03-0.498E-05
CGA:  39    -0.174222036188E+04   -0.14674E-04   -0.20406E-04   720   0.735E-03-0.836E-04
CGA:  40    -0.174222037436E+04   -0.12478E-04   -0.16743E-04   720   0.854E-04 0.994E-04
CGA:  41    -0.174222038115E+04   -0.67955E-05   -0.69775E-05   720   0.121E-03-0.185E-04
CGA:  42    -0.174222027082E+04    0.11034E-03   -0.59160E-04   720   0.630E-02-0.439E-03
CGA:  43    -0.174222041425E+04   -0.14344E-03   -0.16124E-03   720   0.542E-03 0.203E-03
CGA:  44    -0.174222043944E+04   -0.25181E-04   -0.23298E-04   720   0.407E-04-0.292E-04
CGA:  45    -0.174222044069E+04   -0.12515E-05   -0.21362E-05   720   0.299E-04 0.173E-04
CGA:  46    -0.174222044970E+04   -0.90147E-05    0.98766E-04   720   0.478E-04 0.603E-05
CGA:  47    -0.174222045611E+04   -0.64090E-05   -0.10844E-04   720   0.167E-03-0.526E-04
   4 F= -.17422205E+04 E0= -.17421944E+04  d E =-.114720E+01  mag=    46.0000
       N       E                     dE             d eps       ncg     rms          ort
SDA:   1    -0.173722474319E+04    0.49957E+01    0.00000E+00   720   0.270E+02 0.000E+00
CGA:   2    -0.173860138028E+04   -0.13766E+01   -0.17975E+01   720   0.305E+02-0.890E+00
CGA:   3    -0.174112840625E+04   -0.25270E+01   -0.22314E+01   720   0.961E+01-0.161E-01
CGA:   4    -0.174159752954E+04   -0.46912E+00   -0.54971E+00   720   0.506E+01-0.807E-01
CGA:   5    -0.174189386246E+04   -0.29633E+00   -0.31564E+00   720   0.771E+01-0.730E-01
CGA:   6    -0.174217628358E+04   -0.28242E+00   -0.21060E+00   720   0.186E+01 0.224E+01
CGA:   7    -0.174225588907E+04   -0.79605E-01   -0.77188E-01   720   0.177E+01 0.294E-01
CGA:   8    -0.174231163899E+04   -0.55750E-01   -0.49224E-01   720   0.152E+01 0.192E+00
CGA:   9    -0.174236614561E+04   -0.54507E-01   -0.58999E-01   720   0.168E+01-0.841E-01
CGA:  10    -0.174240718286E+04   -0.41037E-01   -0.47497E-01   720   0.931E+00-0.175E+00
CGA:  11    -0.174242559699E+04   -0.18414E-01   -0.19674E-01   720   0.432E+00-0.510E-01
CGA:  12    -0.174243464231E+04   -0.90453E-02   -0.91662E-02   720   0.173E+00 0.104E-01
CGA:  13    -0.174244002757E+04   -0.53853E-02   -0.57412E-02   720   0.207E+00-0.893E-03
CGA:  14    -0.174245033815E+04   -0.10311E-01   -0.10348E-01   720   0.265E+00-0.355E-02
CGA:  15    -0.174245822325E+04   -0.78851E-02   -0.78594E-02   720   0.179E+00-0.775E-02
CGA:  16    -0.174246358117E+04   -0.53579E-02   -0.53950E-02   720   0.877E-01 0.552E-02
CGA:  17    -0.174246550575E+04   -0.19246E-02   -0.21545E-02   720   0.449E-01 0.200E-02
CGA:  18    -0.174246783426E+04   -0.23285E-02   -0.23459E-02   720   0.776E-01 0.796E-03
CGA:  19    -0.174247174691E+04   -0.39127E-02   -0.38672E-02   720   0.920E-01-0.417E-02
CGA:  20    -0.174247527831E+04   -0.35314E-02   -0.34991E-02   720   0.775E-01-0.216E-02
CGA:  21    -0.174247732321E+04   -0.20449E-02   -0.21343E-02   720   0.350E-01 0.121E-02
CGA:  22    -0.174247843050E+04   -0.11073E-02   -0.11372E-02   720   0.236E-01 0.191E-03
CGA:  23    -0.174247953237E+04   -0.11019E-02   -0.10796E-02   720   0.289E-01-0.187E-02
CGA:  24    -0.174248101858E+04   -0.14862E-02   -0.14815E-02   720   0.403E-01-0.132E-02
CGA:  25    -0.174248216231E+04   -0.11437E-02   -0.11774E-02   720   0.181E-01 0.145E-02
CGA:  26    -0.174248267996E+04   -0.51764E-03   -0.54105E-03   720   0.962E-02 0.689E-03
CGA:  27    -0.174248306105E+04   -0.38110E-03   -0.37136E-03   720   0.689E-02-0.548E-03
CGA:  28    -0.174248335592E+04   -0.29487E-03   -0.29355E-03   720   0.879E-02-0.160E-03
CGA:  29    -0.174248374460E+04   -0.38867E-03   -0.39844E-03   720   0.907E-02 0.116E-02
CGA:  30    -0.174248411902E+04   -0.37442E-03   -0.38350E-03   720   0.545E-02 0.531E-03
CGA:  31    -0.174248437505E+04   -0.25603E-03   -0.24091E-03   720   0.357E-02-0.130E-02
SDA:  32    -0.174248448839E+04   -0.11334E-03   -0.11094E-03   720   0.297E-02-0.200E-03
CGA:  33    -0.174248454128E+04   -0.52889E-04   -0.74773E-04   720   0.916E-03 0.797E-03
CGA:  34    -0.174248460579E+04   -0.64515E-04   -0.62998E-04   720   0.107E-02 0.493E-03
CGA:  35    -0.174248460562E+04    0.17082E-06   -0.12808E-03   720   0.987E-02-0.187E-02
CGA:  36    -0.174248475932E+04   -0.15370E-03   -0.19829E-03   720   0.482E-03 0.128E-02
CGA:  37    -0.174248476543E+04   -0.61042E-05   -0.13324E-04   720   0.328E-03 0.252E-03
CGA:  38    -0.174248480198E+04   -0.36556E-04    0.10460E-03   720   0.322E-03 0.215E-03
CGA:  39    -0.174248481103E+04   -0.90488E-05   -0.11879E-04   720   0.272E-03 0.192E-03
CGA:  40    -0.174248484309E+04   -0.32055E-04    0.43429E-04   720   0.279E-03 0.172E-03
CGA:  41    -0.174248484909E+04   -0.59986E-05   -0.90779E-05   720   0.222E-03 0.168E-03
CGA:  42    -0.174248487501E+04   -0.25920E-04    0.32060E-04   720   0.220E-03 0.164E-03
CGA:  43    -0.174248488230E+04   -0.72894E-05   -0.87517E-05   720   0.202E-03 0.145E-03
CGA:  44    -0.174248490642E+04   -0.24121E-04    0.24035E-04   720   0.211E-03 0.128E-03
CGA:  45    -0.174248491065E+04   -0.42313E-05   -0.66297E-05   720   0.170E-03 0.133E-03
CGA:  46    -0.174248493031E+04   -0.19658E-04    0.21898E-04   720   0.169E-03 0.135E-03
CGA:  47    -0.174248493745E+04   -0.71398E-05   -0.75780E-05   720   0.167E-03 0.120E-03
CGA:  48    -0.174248495742E+04   -0.19978E-04    0.17076E-04   720   0.175E-03 0.103E-03
CGA:  49    -0.174248496047E+04   -0.30420E-05   -0.51859E-05   720   0.140E-03 0.114E-03
CGA:  50    -0.174248497602E+04   -0.15551E-04    0.19235E-04   720   0.136E-03 0.117E-03
CGA:  51    -0.174248498349E+04   -0.74722E-05   -0.70246E-05   720   0.137E-03 0.103E-03
CGA:  52    -0.174248499993E+04   -0.16443E-04    0.12447E-04   720   0.140E-03 0.818E-04
CGA:  53    -0.174248500166E+04   -0.17328E-05   -0.37280E-05   720   0.107E-03 0.944E-04
CGA:  54    -0.174248501278E+04   -0.11111E-04    0.22498E-04   720   0.999E-04 0.951E-04
CGA:  55    -0.174248502064E+04   -0.78642E-05   -0.64328E-05   720   0.964E-04 0.801E-04
   5 F= -.17424850E+04 E0= -.17424600E+04  d E =-.264565E+00  mag=    46.0000
       N       E                     dE             d eps       ncg     rms          ort
SDA:   1    -0.173773425668E+04    0.47508E+01    0.00000E+00   720   0.169E+02 0.000E+00
CGA:   2    -0.173957435862E+04   -0.18401E+01   -0.17380E+01   720   0.262E+02 0.240E+01
CGA:   3    -0.174132483817E+04   -0.17505E+01   -0.18040E+01   720   0.979E+01-0.329E+01
CGA:   4    -0.174181793103E+04   -0.49309E+00   -0.50966E+00   720   0.613E+01-0.117E+01
CGA:   5    -0.174222912319E+04   -0.41119E+00   -0.41694E+00   720   0.454E+01-0.173E+00
CGA:   6    -0.174242239290E+04   -0.19327E+00   -0.19512E+00   720   0.136E+01 0.833E-01
CGA:   7    -0.174250280400E+04   -0.80411E-01   -0.80582E-01   720   0.107E+01-0.247E-01
CGA:   8    -0.174256905123E+04   -0.66247E-01   -0.66077E-01   720   0.379E+00 0.125E-01
CGA:   9    -0.174258786329E+04   -0.18812E-01   -0.18795E-01   720   0.202E+00-0.697E-02
CGA:  10    -0.174260026633E+04   -0.12403E-01   -0.12284E-01   720   0.126E+00 0.111E-01
CGA:  11    -0.174261016077E+04   -0.98944E-02   -0.10031E-01   720   0.113E+00-0.677E-02
CGA:  12    -0.174261558116E+04   -0.54204E-02   -0.54473E-02   720   0.418E-01 0.752E-02
CGA:  13    -0.174261938277E+04   -0.38016E-02   -0.37862E-02   720   0.506E-01 0.301E-03
CGA:  14    -0.174262394578E+04   -0.45630E-02   -0.44657E-02   720   0.410E-01 0.284E-02
CGA:  15    -0.174262638627E+04   -0.24405E-02   -0.24373E-02   720   0.285E-01-0.378E-02
CGA:  16    -0.174262846130E+04   -0.20750E-02   -0.20118E-02   720   0.184E-01 0.291E-02
CGA:  17    -0.174263051619E+04   -0.20549E-02   -0.20919E-02   720   0.263E-01-0.882E-03
CGA:  18    -0.174263201623E+04   -0.15000E-02   -0.15008E-02   720   0.116E-01 0.118E-02
CGA:  19    -0.174263286090E+04   -0.84468E-03   -0.86333E-03   720   0.980E-02-0.176E-02
CGA:  20    -0.174263344648E+04   -0.58558E-03   -0.57302E-03   720   0.528E-02 0.156E-02
CGA:  21    -0.174263386880E+04   -0.42232E-03   -0.42170E-03   720   0.362E-02 0.865E-04
CGA:  22    -0.174263418209E+04   -0.31329E-03   -0.30963E-03   720   0.309E-02 0.157E-03
CGA:  23    -0.174263441595E+04   -0.23386E-03   -0.23558E-03   720   0.176E-02-0.172E-03
CGA:  24    -0.174263448100E+04   -0.65050E-04   -0.75262E-04   720   0.743E-03 0.567E-03
CGA:  25    -0.174263455170E+04   -0.70697E-04   -0.68947E-04   720   0.821E-03 0.233E-03
CGA:  26    -0.174263464751E+04   -0.95811E-04   -0.20089E-03   720   0.408E-02-0.852E-03
CGA:  27    -0.174263474036E+04   -0.92845E-04   -0.11464E-03   720   0.543E-03 0.533E-03
CGA:  28    -0.174263476378E+04   -0.23429E-04   -0.25762E-04   720   0.186E-03 0.956E-04
CGA:  29    -0.174263478966E+04   -0.25874E-04   -0.30227E-04   720   0.730E-03-0.604E-04
CGA:  30    -0.174263480496E+04   -0.15301E-04   -0.15306E-04   720   0.572E-03-0.529E-06
CGA:  31    -0.174263481640E+04   -0.11437E-04   -0.12304E-04   720   0.237E-03 0.152E-04
CGA:  32    -0.174263482558E+04   -0.91877E-05   -0.85214E-05   720   0.208E-03-0.227E-04
   6 F= -.17426348E+04 E0= -.17426102E+04  d E =-.149805E+00  mag=    46.0000
       N       E                     dE             d eps       ncg     rms          ort
SDA:   1    -0.172600523764E+04    0.16630E+02    0.00000E+00   720   0.651E+02 0.000E+00
CGA:   2    -0.173207959551E+04   -0.60744E+01   -0.54161E+01   720   0.386E+02 0.212E+02
CGA:   3    -0.173824208545E+04   -0.61625E+01   -0.54530E+01   720   0.256E+02 0.120E+02
CGA:   4    -0.173946366386E+04   -0.12216E+01   -0.13442E+01   720   0.413E+02-0.115E+01
CGA:   5    -0.174071024485E+04   -0.12466E+01   -0.80623E+00   720   0.171E+02 0.154E+02
CGA:   6    -0.174112196518E+04   -0.41172E+00   -0.63673E+00   720   0.231E+02-0.475E+01
CGA:   7    -0.174155782970E+04   -0.43586E+00   -0.37146E+00   720   0.174E+02 0.270E+01
CGA:   8    -0.174197716278E+04   -0.41933E+00   -0.39434E+00   720   0.122E+02 0.755E+00
CGA:   9    -0.174216529111E+04   -0.18813E+00   -0.14225E+00   720   0.613E+01 0.287E+01
CGA:  10    -0.174225203868E+04   -0.86748E-01   -0.10461E+00   720   0.566E+01-0.119E+01
CGA:  11    -0.174231639770E+04   -0.64359E-01   -0.59576E-01   720   0.494E+01 0.440E+00
CGA:  12    -0.174236862436E+04   -0.52227E-01   -0.54771E-01   720   0.282E+01-0.242E+00
CGA:  13    -0.174240909951E+04   -0.40475E-01   -0.52914E-01   720   0.381E+01-0.394E+00
CGA:  14    -0.174245762414E+04   -0.48525E-01   -0.44117E-01   720   0.309E+01 0.219E+00
CGA:  15    -0.174250394088E+04   -0.46317E-01   -0.49365E-01   720   0.228E+01-0.198E+00
CGA:  16    -0.174253241205E+04   -0.28471E-01   -0.26611E-01   720   0.158E+01 0.878E-01
CGA:  17    -0.174255456027E+04   -0.22148E-01   -0.24441E-01   720   0.133E+01-0.114E+00
CGA:  18    -0.174257189573E+04   -0.17335E-01   -0.18816E-01   720   0.867E+00-0.537E-01
CGA:  19    -0.174258278177E+04   -0.10886E-01   -0.12233E-01   720   0.617E+00-0.464E-01
CGA:  20    -0.174259553928E+04   -0.12758E-01   -0.13409E-01   720   0.654E+00-0.492E-03
CGA:  21    -0.174260850102E+04   -0.12962E-01   -0.12194E-01   720   0.496E+00 0.126E-01
CGA:  22    -0.174261863901E+04   -0.10138E-01   -0.10077E-01   720   0.465E+00-0.135E-01
CGA:  23    -0.174262829475E+04   -0.96557E-02   -0.96519E-02   720   0.463E+00-0.107E-01
CGA:  24    -0.174263727596E+04   -0.89812E-02   -0.92141E-02   720   0.353E+00-0.425E-02
CGA:  25    -0.174264361018E+04   -0.63342E-02   -0.67362E-02   720   0.236E+00 0.120E-02
CGA:  26    -0.174264903319E+04   -0.54230E-02   -0.56270E-02   720   0.173E+00 0.806E-02
CGA:  27    -0.174265351197E+04   -0.44788E-02   -0.44677E-02   720   0.117E+00-0.132E-02
CGA:  28    -0.174265690647E+04   -0.33945E-02   -0.33778E-02   720   0.111E+00-0.612E-02
CGA:  29    -0.174266037909E+04   -0.34726E-02   -0.34741E-02   720   0.122E+00-0.434E-02
CGA:  30    -0.174266377725E+04   -0.33982E-02   -0.34053E-02   720   0.102E+00 0.232E-02
CGA:  31    -0.174266640716E+04   -0.26299E-02   -0.26683E-02   720   0.696E-01 0.456E-02
SDA:  32    -0.174266839670E+04   -0.19895E-02   -0.19898E-02   720   0.431E-01-0.774E-03
CGA:  33    -0.174266998460E+04   -0.15879E-02   -0.16104E-02   720   0.153E-01-0.435E-02
CGA:  34    -0.174267130560E+04   -0.13210E-02   -0.10878E-02   720   0.137E-01 0.491E-02
CGA:  35    -0.174267303124E+04   -0.17256E-02   -0.18098E-02   720   0.231E-01-0.125E-02
CGA:  36    -0.174267455487E+04   -0.15236E-02   -0.15249E-02   720   0.108E-01-0.560E-04
CGA:  37    -0.174267509415E+04   -0.53927E-03   -0.52953E-03   720   0.601E-02 0.993E-03
CGA:  38    -0.174267574497E+04   -0.65082E-03   -0.62236E-03   720   0.996E-02 0.515E-03
CGA:  39    -0.174267649837E+04   -0.75340E-03   -0.73856E-03   720   0.610E-02 0.562E-03
CGA:  40    -0.174267688331E+04   -0.38493E-03   -0.41148E-03   720   0.453E-02-0.135E-02
CGA:  41    -0.174267721818E+04   -0.33487E-03   -0.31972E-03   720   0.383E-02 0.327E-03
CGA:  42    -0.174267738866E+04   -0.17049E-03   -0.17506E-03   720   0.176E-02 0.988E-03
CGA:  43    -0.174267758873E+04   -0.20007E-03   -0.18773E-03   720   0.204E-02 0.326E-03
CGA:  44    -0.174267776215E+04   -0.17342E-03   -0.17630E-03   720   0.135E-02-0.125E-03
CGA:  45    -0.174267783488E+04   -0.72725E-04   -0.75603E-04   720   0.822E-03-0.306E-03
CGA:  46    -0.174267787689E+04   -0.42011E-04   -0.41768E-04   720   0.539E-03 0.156E-04
CGA:  47    -0.174267789006E+04   -0.13168E-04   -0.17704E-04   720   0.271E-03 0.236E-03
CGA:  48    -0.174267790767E+04   -0.17619E-04   -0.18147E-04   720   0.250E-03 0.139E-03
CGA:  49    -0.174267793636E+04   -0.28690E-04    0.44571E-04   720   0.186E-03 0.245E-04
CGA:  50    -0.174267795175E+04   -0.15381E-04   -0.13724E-04   720   0.120E-03 0.965E-04
CGA:  51    -0.174267795982E+04   -0.80704E-05   -0.85201E-05   720   0.139E-03-0.230E-04
   7 F= -.17426780E+04 E0= -.17426544E+04  d E =-.431342E-01  mag=    46.0000
       N       E                     dE             d eps       ncg     rms          ort
SDA:   1    -0.173815158640E+04    0.45264E+01    0.00000E+00   720   0.135E+02 0.000E+00
CGA:   2    -0.173962186372E+04   -0.14703E+01   -0.21920E+01   720   0.718E+02-0.741E+01
CGA:   3    -0.174107487584E+04   -0.14530E+01   -0.24310E+01   720   0.870E+01-0.331E+01
CGA:   4    -0.174148470325E+04   -0.40983E+00   -0.39199E+00   720   0.695E+01-0.648E+00
CGA:   5    -0.174192096296E+04   -0.43626E+00   -0.45181E+00   720   0.126E+02-0.748E+00
CGA:   6    -0.174241574432E+04   -0.49478E+00   -0.50838E+00   720   0.846E+01 0.291E+00
CGA:   7    -0.174268919108E+04   -0.27345E+00   -0.26809E+00   720   0.217E+01 0.225E+00
CGA:   8    -0.174274746780E+04   -0.58277E-01   -0.52263E-01   720   0.590E+00 0.192E+00
CGA:   9    -0.174276784287E+04   -0.20375E-01   -0.21020E-01   720   0.371E+00-0.651E-02
CGA:  10    -0.174278756196E+04   -0.19719E-01   -0.19706E-01   720   0.506E+00 0.229E-03
CGA:  11    -0.174280795447E+04   -0.20393E-01   -0.20324E-01   720   0.213E+00 0.445E-02
CGA:  12    -0.174281419935E+04   -0.62449E-02   -0.61746E-02   720   0.861E-01 0.435E-02
CGA:  13    -0.174281785436E+04   -0.36550E-02   -0.36409E-02   720   0.757E-01-0.306E-02
CGA:  14    -0.174282186280E+04   -0.40084E-02   -0.40131E-02   720   0.987E-01-0.145E-02
CGA:  15    -0.174282585054E+04   -0.39877E-02   -0.40217E-02   720   0.596E-01 0.411E-02
CGA:  16    -0.174282798350E+04   -0.21330E-02   -0.21485E-02   720   0.244E-01 0.102E-02
CGA:  17    -0.174282892380E+04   -0.94030E-03   -0.91782E-03   720   0.168E-01-0.215E-02
CGA:  18    -0.174282998027E+04   -0.10565E-02   -0.10588E-02   720   0.279E-01-0.919E-04
CGA:  19    -0.174283126716E+04   -0.12869E-02   -0.12928E-02   720   0.210E-01 0.216E-02
CGA:  20    -0.174283230304E+04   -0.10359E-02   -0.10300E-02   720   0.118E-01-0.192E-02
CGA:  21    -0.174283283006E+04   -0.52702E-03   -0.52816E-03   720   0.115E-01-0.256E-02
CGA:  22    -0.174283320606E+04   -0.37599E-03   -0.38357E-03   720   0.705E-02 0.120E-02
CGA:  23    -0.174283341707E+04   -0.21101E-03   -0.23588E-03   720   0.368E-02 0.135E-02
CGA:  24    -0.174283368168E+04   -0.26461E-03   -0.27198E-03   720   0.475E-02-0.555E-03
CGA:  25    -0.174283390619E+04   -0.22452E-03   -0.23625E-03   720   0.664E-02-0.118E-02
CGA:  26    -0.174283403871E+04   -0.13251E-03   -0.14242E-03   720   0.343E-02 0.530E-03
CGA:  27    -0.174283408997E+04   -0.51258E-04   -0.70049E-04   720   0.111E-02 0.642E-03
CGA:  28    -0.174283412202E+04   -0.32057E-04   -0.35653E-04   720   0.852E-03 0.183E-03
CGA:  29    -0.174283417674E+04   -0.54714E-04   -0.65626E-04   720   0.212E-02-0.528E-03
CGA:  30    -0.174283424173E+04   -0.64988E-04   -0.68614E-04   720   0.382E-03 0.261E-03
CGA:  31    -0.174283423858E+04    0.31425E-05   -0.73700E-04   720   0.286E-02-0.609E-03
CGA:  32    -0.174283431179E+04   -0.73203E-04   -0.84484E-04   720   0.409E-03 0.504E-03
CGA:  33    -0.174283433859E+04   -0.26804E-04   -0.27761E-04   720   0.237E-03-0.140E-03
CGA:  34    -0.174283435871E+04   -0.20122E-04   -0.22983E-04   720   0.541E-03-0.298E-04
CGA:  35    -0.174283440387E+04   -0.45153E-04   -0.69371E-04   720   0.118E-02-0.268E-03
CGA:  36    -0.174283440930E+04   -0.54358E-05   -0.12212E-04   720   0.646E-03 0.170E-03
CGA:  37    -0.174283441424E+04   -0.49365E-05   -0.12666E-04   720   0.215E-03 0.185E-03
   8 F= -.17428344E+04 E0= -.17428103E+04  d E =-.156454E+00  mag=    46.0000
       N       E                     dE             d eps       ncg     rms          ort
SDA:   1    -0.174215196076E+04    0.68245E+00    0.00000E+00   720   0.236E+01 0.000E+00
CGA:   2    -0.174245410234E+04   -0.30214E+00   -0.29868E+00   720   0.483E+01 0.581E-01
CGA:   3    -0.174268025983E+04   -0.22616E+00   -0.22493E+00   720   0.102E+01-0.798E-02
CGA:   4    -0.174274865266E+04   -0.68393E-01   -0.68047E-01   720   0.804E+00 0.245E-01
CGA:   5    -0.174282201947E+04   -0.73367E-01   -0.73217E-01   720   0.473E+00 0.385E-02
CGA:   6    -0.174284307148E+04   -0.21052E-01   -0.21112E-01   720   0.132E+00 0.633E-02
CGA:   7    -0.174285329374E+04   -0.10222E-01   -0.10211E-01   720   0.972E-01 0.968E-03
CGA:   8    -0.174285876268E+04   -0.54689E-02   -0.54900E-02   720   0.503E-01 0.500E-02
CGA:   9    -0.174286205945E+04   -0.32968E-02   -0.33019E-02   720   0.255E-01-0.254E-02
CGA:  10    -0.174286329757E+04   -0.12381E-02   -0.12401E-02   720   0.123E-01 0.243E-03
CGA:  11    -0.174286440426E+04   -0.11067E-02   -0.10984E-02   720   0.138E-01 0.260E-03
CGA:  12    -0.174286524584E+04   -0.84159E-03   -0.84245E-03   720   0.662E-02 0.818E-03
CGA:  13    -0.174286581633E+04   -0.57049E-03   -0.57440E-03   720   0.525E-02-0.169E-03
CGA:  14    -0.174286622465E+04   -0.40831E-03   -0.41408E-03   720   0.591E-02-0.324E-03
CGA:  15    -0.174286649875E+04   -0.27410E-03   -0.28755E-03   720   0.316E-02 0.122E-02
CGA:  16    -0.174286676194E+04   -0.26320E-03   -0.26273E-03   720   0.255E-02 0.890E-04
CGA:  17    -0.174286697320E+04   -0.21126E-03   -0.21309E-03   720   0.322E-02-0.101E-03
CGA:  18    -0.174286711931E+04   -0.14610E-03   -0.15378E-03   720   0.164E-02 0.546E-03
CGA:  19    -0.174286723225E+04   -0.11294E-03   -0.11155E-03   720   0.122E-02-0.311E-03
CGA:  20    -0.174286730358E+04   -0.71332E-04   -0.10534E-03   720   0.288E-02-0.778E-03
CGA:  21    -0.174286736798E+04   -0.64396E-04   -0.78544E-04   720   0.495E-03 0.380E-03
CGA:  22    -0.174286740328E+04   -0.35308E-04   -0.35308E-04   720   0.313E-03-0.342E-04
CGA:  23    -0.174286742719E+04   -0.23910E-04   -0.24168E-04   720   0.450E-03-0.135E-04
CGA:  24    -0.174286744016E+04   -0.12966E-04   -0.73965E-04   720   0.178E-02-0.565E-03
CGA:  25    -0.174286750495E+04   -0.64795E-04   -0.60501E-04   720   0.378E-03-0.126E-03
CGA:  26    -0.174286750761E+04   -0.26554E-05   -0.92931E-05   720   0.126E-03 0.161E-03
   9 F= -.17428675E+04 E0= -.17428431E+04  d E =-.330934E-01  mag=    46.0000
       N       E                     dE             d eps       ncg     rms          ort
SDA:   1    -0.174148389094E+04    0.13836E+01    0.00000E+00   720   0.422E+01 0.000E+00
CGA:   2    -0.174215047563E+04   -0.66658E+00   -0.63183E+00   720   0.742E+01 0.426E+00
CGA:   3    -0.174252727937E+04   -0.37680E+00   -0.37038E+00   720   0.266E+01-0.102E+00
CGA:   4    -0.174267657325E+04   -0.14929E+00   -0.14809E+00   720   0.162E+01-0.412E-01
CGA:   5    -0.174280473652E+04   -0.12816E+00   -0.12598E+00   720   0.871E+00 0.113E+00
CGA:   6    -0.174285128710E+04   -0.46551E-01   -0.45952E-01   720   0.339E+00 0.715E-02
CGA:   7    -0.174286676996E+04   -0.15483E-01   -0.15469E-01   720   0.189E+00-0.324E-02
CGA:   8    -0.174288214512E+04   -0.15375E-01   -0.15233E-01   720   0.857E-01 0.781E-02
CGA:   9    -0.174288640079E+04   -0.42557E-02   -0.42641E-02   720   0.395E-01 0.237E-02
CGA:  10    -0.174288893366E+04   -0.25329E-02   -0.25254E-02   720   0.383E-01-0.299E-02
CGA:  11    -0.174289118087E+04   -0.22472E-02   -0.22489E-02   720   0.179E-01 0.113E-02
CGA:  12    -0.174289208625E+04   -0.90539E-03   -0.92430E-03   720   0.101E-01 0.122E-02
CGA:  13    -0.174289282178E+04   -0.73552E-03   -0.73783E-03   720   0.119E-01-0.603E-03
CGA:  14    -0.174289366506E+04   -0.84328E-03   -0.84061E-03   720   0.874E-02 0.237E-03
CGA:  15    -0.174289410720E+04   -0.44214E-03   -0.43914E-03   720   0.514E-02-0.199E-03
CGA:  16    -0.174289450060E+04   -0.39339E-03   -0.39896E-03   720   0.610E-02-0.363E-03
CGA:  17    -0.174289482630E+04   -0.32571E-03   -0.32872E-03   720   0.410E-02 0.429E-03
CGA:  18    -0.174289511986E+04   -0.29355E-03   -0.29361E-03   720   0.392E-02-0.388E-04
CGA:  19    -0.174289533228E+04   -0.21243E-03   -0.21570E-03   720   0.184E-02 0.372E-03
CGA:  20    -0.174289542456E+04   -0.92277E-04   -0.95300E-04   720   0.128E-02 0.179E-03
CGA:  21    -0.174289554147E+04   -0.11691E-03   -0.20664E-03   720   0.503E-02-0.108E-02
CGA:  22    -0.174289566091E+04   -0.11944E-03   -0.13837E-03   720   0.627E-03 0.448E-03
CGA:  23    -0.174289570326E+04   -0.42346E-04   -0.41992E-04   720   0.331E-03-0.886E-04
CGA:  24    -0.174289572774E+04   -0.24481E-04   -0.23263E-04   720   0.382E-03 0.722E-04
CGA:  25    -0.174289577453E+04   -0.46784E-04   -0.53451E-04   720   0.583E-03-0.137E-03
CGA:  26    -0.174289579618E+04   -0.21658E-04   -0.37760E-04   720   0.112E-02-0.498E-03
CGA:  27    -0.174289582171E+04   -0.25522E-04   -0.32422E-04   720   0.238E-03 0.165E-03
CGA:  28    -0.174289583050E+04   -0.87975E-05   -0.11696E-04   720   0.112E-03 0.116E-03
  10 F= -.17428958E+04 E0= -.17428713E+04  d E =-.283229E-01  mag=    46.0000
       N       E                     dE             d eps       ncg     rms          ort
SDA:   1    -0.173530439565E+04    0.75914E+01    0.00000E+00   720   0.204E+02 0.000E+00
CGA:   2    -0.173919183968E+04   -0.38874E+01   -0.40950E+01   720   0.667E+02-0.129E+01
CGA:   3    -0.174108936610E+04   -0.18975E+01   -0.23398E+01   720   0.128E+02-0.595E+01
CGA:   4    -0.174175883758E+04   -0.66947E+00   -0.68332E+00   720   0.111E+02 0.349E+00
CGA:   5    -0.174241180361E+04   -0.65297E+00   -0.65802E+00   720   0.678E+01 0.846E-01
CGA:   6    -0.174265076023E+04   -0.23896E+00   -0.26112E+00   720   0.205E+01-0.257E+00
CGA:   7    -0.174275541603E+04   -0.10466E+00   -0.10335E+00   720   0.116E+01 0.481E-02
CGA:   8    -0.174281162109E+04   -0.56205E-01   -0.57183E-01   720   0.824E+00 0.129E-01
CGA:   9    -0.174285968904E+04   -0.48068E-01   -0.48325E-01   720   0.429E+00 0.510E-02
CGA:  10    -0.174287858627E+04   -0.18897E-01   -0.18824E-01   720   0.201E+00 0.677E-02
CGA:  11    -0.174288804720E+04   -0.94609E-02   -0.95416E-02   720   0.135E+00 0.242E-02
CGA:  12    -0.174289673948E+04   -0.86923E-02   -0.86927E-02   720   0.111E+00-0.173E-02
CGA:  13    -0.174290198713E+04   -0.52476E-02   -0.52450E-02   720   0.721E-01 0.576E-03
CGA:  14    -0.174290593084E+04   -0.39437E-02   -0.39331E-02   720   0.418E-01-0.696E-03
CGA:  15    -0.174290820179E+04   -0.22710E-02   -0.22401E-02   720   0.306E-01-0.356E-02
CGA:  16    -0.174290976361E+04   -0.15618E-02   -0.15660E-02   720   0.261E-01 0.593E-03
CGA:  17    -0.174291157063E+04   -0.18070E-02   -0.18079E-02   720   0.228E-01-0.147E-03
CGA:  18    -0.174291300084E+04   -0.14302E-02   -0.14330E-02   720   0.201E-01-0.336E-02
CGA:  19    -0.174291370506E+04   -0.70423E-03   -0.72071E-03   720   0.943E-02 0.722E-03
CGA:  20    -0.174291426389E+04   -0.55883E-03   -0.56310E-03   720   0.102E-01 0.113E-02
CGA:  21    -0.174291509771E+04   -0.83382E-03   -0.86104E-03   720   0.145E-01-0.192E-02
CGA:  22    -0.174291561316E+04   -0.51545E-03   -0.51457E-03   720   0.694E-02-0.397E-04
CGA:  23    -0.174291579302E+04   -0.17986E-03   -0.21343E-03   720   0.392E-02 0.113E-02
CGA:  24    -0.174291599498E+04   -0.20196E-03   -0.20949E-03   720   0.324E-02 0.562E-03
CGA:  25    -0.174291623440E+04   -0.23941E-03   -0.24860E-03   720   0.601E-02-0.112E-02
CGA:  26    -0.174291637513E+04   -0.14073E-03   -0.13403E-03   720   0.574E-02-0.266E-03
CGA:  27    -0.174291648724E+04   -0.11211E-03   -0.12806E-03   720   0.333E-02 0.443E-03
CGA:  28    -0.174291659443E+04   -0.10719E-03   -0.11501E-03   720   0.297E-02 0.309E-03
CGA:  29    -0.174291672136E+04   -0.12693E-03   -0.11781E-03   720   0.195E-02-0.533E-03
CGA:  30    -0.174291679276E+04   -0.71394E-04   -0.62719E-04   720   0.184E-02-0.594E-03
CGA:  31    -0.174291682185E+04   -0.29098E-04   -0.33202E-04   720   0.161E-02 0.152E-03
SDA:  32    -0.174291685349E+04   -0.31633E-04   -0.45611E-04   720   0.141E-02 0.540E-03
CGA:  33    -0.174291692877E+04   -0.75285E-04   -0.76050E-04   720   0.118E-02-0.251E-03
CGA:  34    -0.174291696600E+04   -0.37226E-04   -0.39893E-04   720   0.403E-03 0.273E-03
CGA:  35    -0.174291698563E+04   -0.19634E-04   -0.20183E-04   720   0.361E-03 0.559E-04
CGA:  36    -0.174291699625E+04   -0.10623E-04   -0.81370E-04   720   0.265E-02-0.478E-03
CGA:  37    -0.174291704557E+04   -0.49316E-04   -0.66123E-04   720   0.272E-03 0.540E-03
CGA:  38    -0.174291705801E+04   -0.12444E-04   -0.12459E-04   720   0.886E-04 0.917E-06
CGA:  39    -0.174291707149E+04   -0.13472E-04    0.63372E-05   720   0.863E-04 0.193E-04
CGA:  40    -0.174291708003E+04   -0.85467E-05   -0.80324E-05   720   0.984E-04 0.236E-04
  11 F= -.17429171E+04 E0= -.17428927E+04  d E =-.212495E-01  mag=    46.0000
       N       E                     dE             d eps       ncg     rms          ort
SDA:   1    -0.173120606266E+04    0.11711E+02    0.00000E+00   720   0.327E+02 0.000E+00
CGA:   2    -0.173551269352E+04   -0.43066E+01   -0.48662E+01   720   0.113E+03-0.240E+01
CGA:   3    -0.174007193681E+04   -0.45592E+01   -0.46841E+01   720   0.255E+02 0.436E+00
CGA:   4    -0.174075782366E+04   -0.68589E+00   -0.90988E+00   720   0.238E+02-0.230E+01
CGA:   5    -0.174120527085E+04   -0.44745E+00   -0.23062E+00   720   0.181E+02 0.196E+02
CGA:   6    -0.174169508279E+04   -0.48981E+00   -0.49948E+00   720   0.701E+01-0.183E+01
CGA:   7    -0.174253956064E+04   -0.84448E+00   -0.83812E+00   720   0.240E+01 0.856E-01
CGA:   8    -0.174264604051E+04   -0.10648E+00   -0.10513E+00   720   0.925E+00 0.210E-02
CGA:   9    -0.174272929416E+04   -0.83254E-01   -0.82308E-01   720   0.163E+01 0.230E-01
CGA:  10    -0.174284384947E+04   -0.11456E+00   -0.11428E+00   720   0.504E+00 0.206E-01
CGA:  11    -0.174286544696E+04   -0.21597E-01   -0.21655E-01   720   0.202E+00-0.266E-02
CGA:  12    -0.174288804522E+04   -0.22598E-01   -0.22523E-01   720   0.205E+00 0.105E-02
CGA:  13    -0.174289947884E+04   -0.11434E-01   -0.11441E-01   720   0.652E-01-0.212E-02
CGA:  14    -0.174290303515E+04   -0.35563E-02   -0.35795E-02   720   0.445E-01 0.407E-02
CGA:  15    -0.174290630758E+04   -0.32724E-02   -0.33039E-02   720   0.315E-01-0.332E-02
CGA:  16    -0.174290904043E+04   -0.27328E-02   -0.27352E-02   720   0.271E-01-0.121E-03
CGA:  17    -0.174291213384E+04   -0.30934E-02   -0.32023E-02   720   0.370E-01-0.194E-02
CGA:  18    -0.174291380007E+04   -0.16662E-02   -0.16696E-02   720   0.146E-01-0.207E-03
CGA:  19    -0.174291483305E+04   -0.10330E-02   -0.10368E-02   720   0.123E-01-0.503E-03
CGA:  20    -0.174291595095E+04   -0.11179E-02   -0.10877E-02   720   0.840E-02 0.115E-02
CGA:  21    -0.174291661054E+04   -0.65958E-03   -0.65966E-03   720   0.476E-02-0.502E-04
CGA:  22    -0.174291690046E+04   -0.28992E-03   -0.28481E-03   720   0.377E-02-0.787E-03
CGA:  23    -0.174291717577E+04   -0.27531E-03   -0.26565E-03   720   0.289E-02 0.524E-03
CGA:  24    -0.174291739169E+04   -0.21592E-03   -0.21550E-03   720   0.217E-02-0.219E-03
CGA:  25    -0.174291753847E+04   -0.14678E-03   -0.14518E-03   720   0.134E-02 0.311E-03
CGA:  26    -0.174291772443E+04   -0.18596E-03   -0.20896E-03   720   0.262E-02-0.329E-03
CGA:  27    -0.174291784780E+04   -0.12337E-03   -0.11544E-03   720   0.212E-02-0.643E-03
CGA:  28    -0.174291788853E+04   -0.40728E-04   -0.55837E-04   720   0.927E-03 0.429E-03
CGA:  29    -0.174291789815E+04   -0.96284E-05   -0.26908E-04   720   0.438E-03 0.394E-03
CGA:  30    -0.174291791441E+04   -0.16259E-04   -0.23042E-04   720   0.400E-03 0.234E-03
CGA:  31    -0.174291712446E+04    0.78995E-03   -0.43092E-03   720   0.446E-01-0.273E-02
CGA:  32    -0.174291800600E+04   -0.88154E-03   -0.10082E-02   720   0.814E-03 0.194E-02
CGA:  33    -0.174291801865E+04   -0.12655E-04   -0.26846E-04   720   0.152E-03 0.178E-03
CGA:  34    -0.174291802344E+04   -0.47903E-05   -0.69859E-05   720   0.607E-04 0.330E-04
  12 F= -.17429180E+04 E0= -.17428944E+04  d E =-.943410E-03  mag=    46.0000
       N       E                     dE             d eps       ncg     rms          ort
SDA:   1    -0.173980484248E+04    0.31132E+01    0.00000E+00   720   0.978E+01 0.000E+00
CGA:   2    -0.174109810620E+04   -0.12933E+01   -0.12370E+01   720   0.122E+02 0.155E+01
CGA:   3    -0.174216753018E+04   -0.10694E+01   -0.80953E+00   720   0.270E+01 0.243E+01
CGA:   4    -0.174256184471E+04   -0.39431E+00   -0.39395E+00   720   0.438E+01 0.443E-02
CGA:   5    -0.174278817962E+04   -0.22633E+00   -0.23809E+00   720   0.194E+01-0.818E-01
CGA:   6    -0.174285840824E+04   -0.70229E-01   -0.85670E-01   720   0.459E+00-0.171E+00
CGA:   7    -0.174288894209E+04   -0.30534E-01   -0.29605E-01   720   0.503E+00-0.927E-02
CGA:   8    -0.174291844715E+04   -0.29505E-01   -0.29162E-01   720   0.232E+00-0.425E-02
CGA:   9    -0.174292859910E+04   -0.10152E-01   -0.10227E-01   720   0.775E-01-0.101E-02
CGA:  10    -0.174293485582E+04   -0.62567E-02   -0.62490E-02   720   0.717E-01 0.446E-03
CGA:  11    -0.174294044405E+04   -0.55882E-02   -0.55888E-02   720   0.407E-01-0.756E-03
CGA:  12    -0.174294295829E+04   -0.25142E-02   -0.25692E-02   720   0.243E-01 0.132E-02
CGA:  13    -0.174294423336E+04   -0.12751E-02   -0.13164E-02   720   0.152E-01 0.944E-03
CGA:  14    -0.174294540308E+04   -0.11697E-02   -0.11887E-02   720   0.109E-01 0.155E-02
CGA:  15    -0.174294629704E+04   -0.89396E-03   -0.90762E-03   720   0.807E-02 0.113E-02
CGA:  16    -0.174294682716E+04   -0.53012E-03   -0.54843E-03   720   0.381E-02 0.730E-03
CGA:  17    -0.174294709000E+04   -0.26283E-03   -0.27176E-03   720   0.338E-02 0.449E-03
CGA:  18    -0.174294746321E+04   -0.37321E-03   -0.37593E-03   720   0.436E-02-0.186E-03
CGA:  19    -0.174294773132E+04   -0.26811E-03   -0.25092E-03   720   0.200E-02-0.737E-03
CGA:  20    -0.174294782978E+04   -0.98463E-04   -0.98383E-04   720   0.937E-03 0.857E-06
CGA:  21    -0.174294793937E+04   -0.10959E-03   -0.10390E-03   720   0.131E-02 0.198E-03
CGA:  22    -0.174294808127E+04   -0.14190E-03   -0.15747E-03   720   0.306E-02-0.999E-03
CGA:  23    -0.174294812731E+04   -0.46040E-04   -0.72579E-04   720   0.334E-03 0.454E-03
CGA:  24    -0.174294813901E+04   -0.11698E-04   -0.16613E-04   720   0.260E-03 0.129E-03
CGA:  25    -0.174294817579E+04   -0.36780E-04   -0.38742E-04   720   0.666E-03-0.719E-04
CGA:  26    -0.174294818533E+04   -0.95424E-05   -0.13610E-04   720   0.571E-03 0.763E-04
CGA:  27    -0.174294819135E+04   -0.60172E-05   -0.13778E-04   720   0.297E-03 0.136E-03
CGA:  28    -0.174294819744E+04   -0.60946E-05   -0.10287E-04   720   0.239E-03 0.879E-04
CGA:  29    -0.174294820938E+04   -0.11941E-04   -0.11747E-04   720   0.194E-03-0.443E-05
CGA:  30    -0.174294821886E+04   -0.94833E-05   -0.80741E-05   720   0.204E-03-0.478E-04
  13 F= -.17429482E+04 E0= -.17429244E+04  d E =-.301954E-01  mag=    46.0000
       N       E                     dE             d eps       ncg     rms          ort
SDA:   1    -0.174227395740E+04    0.67425E+00    0.00000E+00   720   0.195E+01 0.000E+00
CGA:   2    -0.174258104766E+04   -0.30709E+00   -0.31659E+00   720   0.554E+01-0.106E+00
CGA:   3    -0.174282911787E+04   -0.24807E+00   -0.25127E+00   720   0.126E+01-0.416E-01
CGA:   4    -0.174288981576E+04   -0.60698E-01   -0.64144E-01   720   0.545E+00 0.221E-01
CGA:   5    -0.174294649116E+04   -0.56675E-01   -0.55985E-01   720   0.402E+00 0.193E-01
CGA:   6    -0.174296459936E+04   -0.18108E-01   -0.17896E-01   720   0.114E+00-0.254E-02
CGA:   7    -0.174297199637E+04   -0.73970E-02   -0.74127E-02   720   0.780E-01 0.331E-02
CGA:   8    -0.174297726179E+04   -0.52654E-02   -0.52661E-02   720   0.489E-01-0.542E-03
CGA:   9    -0.174297977114E+04   -0.25094E-02   -0.25305E-02   720   0.166E-01 0.156E-02
CGA:  10    -0.174298136411E+04   -0.15930E-02   -0.15931E-02   720   0.128E-01-0.126E-03
CGA:  11    -0.174298201592E+04   -0.65181E-03   -0.64323E-03   720   0.684E-02-0.434E-03
CGA:  12    -0.174298267943E+04   -0.66351E-03   -0.71810E-03   720   0.110E-01-0.139E-02
CGA:  13    -0.174298312128E+04   -0.44184E-03   -0.42974E-03   720   0.192E-02-0.576E-03
CGA:  14    -0.174298323453E+04   -0.11325E-03   -0.11458E-03   720   0.238E-02 0.188E-03
CGA:  15    -0.174298351623E+04   -0.28170E-03   -0.37808E-03   720   0.532E-02-0.129E-02
CGA:  16    -0.174298367285E+04   -0.15662E-03   -0.16557E-03   720   0.938E-03 0.167E-03
CGA:  17    -0.174298372848E+04   -0.55635E-04   -0.54693E-04   720   0.531E-03-0.655E-04
CGA:  18    -0.174298376677E+04   -0.38288E-04   -0.37407E-04   720   0.273E-03 0.173E-03
CGA:  19    -0.174298378591E+04   -0.19134E-04   -0.21042E-04   720   0.170E-03 0.149E-03
CGA:  20    -0.174298379986E+04   -0.13951E-04   -0.24315E-04   720   0.873E-03-0.143E-03
CGA:  21    -0.174298382073E+04   -0.20875E-04   -0.23060E-04   720   0.116E-03 0.436E-04
CGA:  22    -0.174298382674E+04   -0.60054E-05   -0.67241E-05   720   0.905E-04 0.434E-04
CGA:  23    -0.174298384976E+04   -0.23023E-04   -0.24084E-04   720   0.552E-03-0.887E-05
CGA:  24    -0.174298387077E+04   -0.21012E-04   -0.20923E-04   720   0.477E-03-0.361E-05
CGA:  25    -0.174298388252E+04   -0.11748E-04   -0.12025E-04   720   0.264E-03 0.498E-05
CGA:  26    -0.174298389312E+04   -0.10602E-04   -0.99444E-05   720   0.208E-03-0.193E-04
CGA:  27    -0.174298390173E+04   -0.86042E-05   -0.62839E-05   720   0.978E-04-0.617E-04
  14 F= -.17429839E+04 E0= -.17429602E+04  d E =-.356829E-01  mag=    46.0000
       N       E                     dE             d eps       ncg     rms          ort
SDA:   1    -0.174276233437E+04    0.22156E+00    0.00000E+00   720   0.758E+00 0.000E+00
CGA:   2    -0.174281943963E+04   -0.57105E-01   -0.57092E-01   720   0.121E+01-0.143E-02
CGA:   3    -0.174294108022E+04   -0.12164E+00   -0.12138E+00   720   0.460E+00 0.427E-02
CGA:   4    -0.174296089496E+04   -0.19815E-01   -0.19575E-01   720   0.180E+00 0.526E-02
CGA:   5    -0.174297748880E+04   -0.16594E-01   -0.16817E-01   720   0.126E+00-0.836E-02
CGA:   6    -0.174298401562E+04   -0.65268E-02   -0.65647E-02   720   0.398E-01 0.448E-02
CGA:   7    -0.174298717307E+04   -0.31575E-02   -0.31410E-02   720   0.209E-01 0.176E-02
CGA:   8    -0.174298817959E+04   -0.10065E-02   -0.10042E-02   720   0.879E-02-0.210E-03
CGA:   9    -0.174298884309E+04   -0.66350E-03   -0.66087E-03   720   0.646E-02 0.353E-03
CGA:  10    -0.174298932639E+04   -0.48330E-03   -0.48176E-03   720   0.218E-02 0.636E-03
CGA:  11    -0.174298946654E+04   -0.14015E-03   -0.13895E-03   720   0.130E-02-0.112E-03
CGA:  12    -0.174298962884E+04   -0.16230E-03   -0.26247E-03   720   0.410E-02-0.698E-03
CGA:  13    -0.174298974521E+04   -0.11637E-03   -0.11774E-03   720   0.387E-03 0.402E-04
CGA:  14    -0.174298975838E+04   -0.13175E-04   -0.79772E-04   720   0.351E-02-0.511E-03
CGA:  15    -0.174298983007E+04   -0.71688E-04   -0.90478E-04   720   0.316E-03 0.342E-03
CGA:  16    -0.174298985120E+04   -0.21133E-04   -0.19228E-04   720   0.190E-03-0.845E-04
CGA:  17    -0.174298986508E+04   -0.13874E-04   -0.13377E-04   720   0.229E-03 0.256E-04
CGA:  18    -0.174298988699E+04   -0.21909E-04   -0.21736E-04   720   0.279E-03 0.274E-04
CGA:  19    -0.174298993596E+04   -0.48971E-04    0.12213E-02   720   0.248E-03-0.394E-04
CGA:  20    -0.174298995127E+04   -0.15312E-04   -0.15449E-04   720   0.159E-03 0.269E-04
CGA:  21    -0.174298995760E+04   -0.63293E-05   -0.76706E-05   720   0.334E-04 0.401E-04
  15 F= -.17429900E+04 E0= -.17429664E+04  d E =-.605587E-02  mag=    46.0000
       N       E                     dE             d eps       ncg     rms          ort
SDA:   1    -0.172717116124E+04    0.15819E+02    0.00000E+00   720   0.403E+02 0.000E+00
CGA:   2    -0.173414590718E+04   -0.69747E+01   -0.85001E+01   720   0.212E+03-0.690E+01
CGA:   3    -0.173900648284E+04   -0.48606E+01   -0.55509E+01   720   0.535E+02-0.230E+02
CGA:   4    -0.173983742352E+04   -0.83094E+00   -0.17245E+01   720   0.276E+02-0.122E+02
CGA:   5    -0.174078432247E+04   -0.94690E+00   -0.94652E+00   720   0.269E+02-0.112E+01
CGA:   6    -0.174175663394E+04   -0.97231E+00   -0.85530E+00   720   0.141E+02 0.163E+01
CGA:   7    -0.174220801014E+04   -0.45138E+00   -0.49085E+00   720   0.623E+01-0.123E+01
CGA:   8    -0.174253218247E+04   -0.32417E+00   -0.31136E+00   720   0.279E+01-0.124E+00
CGA:   9    -0.174270106839E+04   -0.16889E+00   -0.16672E+00   720   0.195E+01-0.615E-01
CGA:  10    -0.174280447726E+04   -0.10341E+00   -0.10639E+00   720   0.125E+01 0.471E-01
CGA:  11    -0.174286166658E+04   -0.57189E-01   -0.56099E-01   720   0.683E+00 0.137E-01
CGA:  12    -0.174290650235E+04   -0.44836E-01   -0.44695E-01   720   0.460E+00-0.202E-01
CGA:  13    -0.174293089935E+04   -0.24397E-01   -0.24658E-01   720   0.290E+00 0.119E-02
CGA:  14    -0.174294563016E+04   -0.14731E-01   -0.14979E-01   720   0.147E+00 0.574E-02
CGA:  15    -0.174295492364E+04   -0.92935E-02   -0.92641E-02   720   0.130E+00-0.495E-02
CGA:  16    -0.174296348241E+04   -0.85588E-02   -0.85642E-02   720   0.582E-01-0.220E-02
CGA:  17    -0.174296641412E+04   -0.29317E-02   -0.29044E-02   720   0.389E-01-0.214E-02
CGA:  18    -0.174296969088E+04   -0.32768E-02   -0.33049E-02   720   0.384E-01-0.153E-02
CGA:  19    -0.174297174069E+04   -0.20498E-02   -0.20644E-02   720   0.151E-01 0.120E-02
CGA:  20    -0.174297297050E+04   -0.12298E-02   -0.12751E-02   720   0.215E-01-0.306E-02
CGA:  21    -0.174297403344E+04   -0.10629E-02   -0.10665E-02   720   0.127E-01 0.680E-03
CGA:  22    -0.174297470217E+04   -0.66872E-03   -0.68189E-03   720   0.615E-02 0.110E-02
CGA:  23    -0.174297518447E+04   -0.48231E-03   -0.49560E-03   720   0.116E-01-0.165E-02
CGA:  24    -0.174297586496E+04   -0.68049E-03   -0.68345E-03   720   0.126E-01-0.224E-03
CGA:  25    -0.174297615970E+04   -0.29473E-03   -0.33669E-03   720   0.351E-02 0.108E-02
CGA:  26    -0.174297632814E+04   -0.16844E-03   -0.17244E-03   720   0.374E-02 0.198E-03
CGA:  27    -0.174297667858E+04   -0.35044E-03   -0.40577E-03   720   0.107E-01-0.143E-02
CGA:  28    -0.174297687817E+04   -0.19960E-03   -0.18764E-03   720   0.937E-02-0.344E-03
CGA:  29    -0.174297706268E+04   -0.18451E-03   -0.20027E-03   720   0.420E-02 0.372E-03
CGA:  30    -0.174297716502E+04   -0.10234E-03   -0.10942E-03   720   0.249E-02 0.204E-03
CGA:  31    -0.174297726300E+04   -0.97981E-04   -0.89480E-04   720   0.238E-02-0.337E-03
SDA:  32    -0.174297737843E+04   -0.11543E-03   -0.11160E-03   720   0.467E-02-0.800E-03
CGA:  33    -0.174297751235E+04   -0.13393E-03   -0.15185E-03   720   0.108E-02 0.720E-03
CGA:  34    -0.174297759864E+04   -0.86282E-04   -0.88060E-04   720   0.922E-03-0.126E-03
CGA:  35    -0.174297766847E+04   -0.69835E-04   -0.63570E-04   720   0.908E-03 0.312E-03
CGA:  36    -0.174297774827E+04   -0.79804E-04   -0.79496E-04   720   0.270E-03 0.482E-04
CGA:  37    -0.174297778761E+04   -0.39334E-04    0.51004E-04   720   0.281E-03-0.196E-04
CGA:  38    -0.174297779971E+04   -0.12100E-04   -0.13103E-04   720   0.144E-03 0.112E-03
CGA:  39    -0.174297779983E+04   -0.12368E-06   -0.45957E-05   720   0.853E-04 0.124E-03
CGA:  40    -0.174297780339E+04   -0.35573E-05   -0.18288E-04   720   0.655E-03-0.933E-04
CGA:  41    -0.174297781287E+04   -0.94792E-05   -0.16113E-04   720   0.105E-03 0.167E-03
  16 F= -.17429778E+04 E0= -.17429547E+04  d E =0.121447E-01  mag=    46.0000
       N       E                     dE             d eps       ncg     rms          ort
SDA:   1    -0.170574440321E+04    0.37233E+02    0.00000E+00   720   0.888E+02 0.000E+00
CGA:   2    -0.172038092597E+04   -0.14637E+02   -0.12145E+02   720   0.735E+02 0.314E+02
CGA:   3    -0.172831719359E+04   -0.79363E+01   -0.97745E+01   720   0.125E+03-0.196E+02
CGA:   4    -0.173184675709E+04   -0.35296E+01   -0.32765E+01   720   0.110E+03-0.203E+02
CGA:   5    -0.173424238157E+04   -0.23956E+01   -0.27331E+01   720   0.527E+02-0.689E+02
CGA:   6    -0.173577824542E+04   -0.15359E+01   -0.12272E+01   720   0.211E+02-0.121E+02
CGA:   7    -0.173630312683E+04   -0.52488E+00   -0.56555E+00   720   0.382E+02-0.960E+00
CGA:   8    -0.173711270765E+04   -0.80958E+00   -0.10190E+01   720   0.345E+02-0.635E+01
CGA:   9    -0.173781157843E+04   -0.69887E+00   -0.67103E+00   720   0.134E+02-0.171E+00
CGA:  10    -0.173799483336E+04   -0.18325E+00   -0.26225E+00   720   0.680E+01-0.354E+01
CGA:  11    -0.173810056297E+04   -0.10573E+00   -0.12844E+00   720   0.366E+01-0.518E+00
CGA:  12    -0.173818961197E+04   -0.89049E-01   -0.92734E-01   720   0.368E+01-0.976E-01
CGA:  13    -0.173830031662E+04   -0.11070E+00   -0.93378E-01   720   0.223E+01 0.390E+00
CGA:  14    -0.173836853724E+04   -0.68221E-01   -0.71108E-01   720   0.255E+01-0.444E-01
CGA:  15    -0.173845159447E+04   -0.83057E-01   -0.84989E-01   720   0.254E+01-0.223E-01
CGA:  16    -0.173850376769E+04   -0.52173E-01   -0.56026E-01   720   0.136E+01-0.130E+00
CGA:  17    -0.173853986751E+04   -0.36100E-01   -0.37073E-01   720   0.820E+00 0.229E-02
CGA:  18    -0.173856191347E+04   -0.22046E-01   -0.22811E-01   720   0.499E+00-0.572E-02
CGA:  19    -0.173858507899E+04   -0.23166E-01   -0.23163E-01   720   0.731E+00 0.431E-02
CGA:  20    -0.173861038141E+04   -0.25302E-01   -0.25485E-01   720   0.484E+00 0.502E-02
CGA:  21    -0.173862654148E+04   -0.16160E-01   -0.16314E-01   720   0.257E+00 0.113E-01
CGA:  22    -0.173863409694E+04   -0.75555E-02   -0.74798E-02   720   0.121E+00-0.296E-02
CGA:  23    -0.173864010241E+04   -0.60055E-02   -0.60181E-02   720   0.147E+00-0.440E-02
CGA:  24    -0.173864565572E+04   -0.55533E-02   -0.55836E-02   720   0.113E+00 0.369E-02
CGA:  25    -0.173864943961E+04   -0.37839E-02   -0.38333E-02   720   0.430E-01 0.372E-02
CGA:  26    -0.173865122806E+04   -0.17884E-02   -0.17753E-02   720   0.407E-01-0.357E-02
CGA:  27    -0.173865286335E+04   -0.16353E-02   -0.16354E-02   720   0.306E-01-0.193E-02
CGA:  28    -0.173865415425E+04   -0.12909E-02   -0.12899E-02   720   0.270E-01 0.236E-02
CGA:  29    -0.173865529157E+04   -0.11373E-02   -0.11344E-02   720   0.186E-01-0.655E-03
CGA:  30    -0.173865632035E+04   -0.10288E-02   -0.10778E-02   720   0.185E-01-0.313E-02
CGA:  31    -0.173865693783E+04   -0.61748E-03   -0.61841E-03   720   0.137E-01 0.118E-03
CGA:  32    -0.173865745789E+04   -0.52007E-03   -0.52073E-03   720   0.789E-02-0.129E-04
CGA:  33    -0.173865793086E+04   -0.47297E-03   -0.49236E-03   720   0.117E-01-0.108E-02
CGA:  34    -0.173865832069E+04   -0.38984E-03   -0.39327E-03   720   0.912E-02 0.553E-03
CGA:  35    -0.173865867381E+04   -0.35311E-03   -0.35965E-03   720   0.481E-02 0.922E-03
SDA:  36    -0.173865885592E+04   -0.18212E-03   -0.17695E-03   720   0.358E-02-0.491E-03
CGA:  37    -0.173865895919E+04   -0.10327E-03   -0.10370E-03   720   0.144E-02 0.105E-04
CGA:  38    -0.173865870653E+04    0.25266E-03   -0.16795E-03   720   0.269E-01-0.268E-02
CGA:  39    -0.173865923744E+04   -0.53091E-03   -0.58441E-03   720   0.329E-02 0.716E-03
CGA:  40    -0.173865936804E+04   -0.13060E-03   -0.13389E-03   720   0.109E-02 0.135E-03
CGA:  41    -0.173865941795E+04   -0.49902E-04   -0.54245E-04   720   0.481E-03 0.181E-03
CGA:  42    -0.173865945218E+04   -0.34232E-04   -0.35460E-04   720   0.635E-03 0.134E-03
CGA:  43    -0.173865952659E+04   -0.74409E-04   -0.11863E-03   720   0.380E-02-0.598E-03
CGA:  44    -0.173865959851E+04   -0.71926E-04   -0.87069E-04   720   0.757E-03 0.264E-03
CGA:  45    -0.173865964183E+04   -0.43321E-04   -0.43072E-04   720   0.399E-03-0.957E-05
CGA:  46    -0.173865967659E+04   -0.34755E-04   -0.36924E-04   720   0.692E-03-0.100E-03
CGA:  47    -0.173865970921E+04   -0.32619E-04   -0.30453E-04   720   0.421E-03-0.155E-03
CGA:  48    -0.173865973131E+04   -0.22103E-04   -0.21310E-04   720   0.832E-03-0.112E-03
CGA:  49    -0.173865977646E+04   -0.45146E-04   -0.45015E-04   720   0.919E-03 0.759E-04
CGA:  50    -0.173865982804E+04   -0.51582E-04   -0.50894E-04   720   0.723E-03-0.393E-04
CGA:  51    -0.173865986746E+04   -0.39420E-04   -0.34949E-04   720   0.564E-03-0.219E-03
CGA:  52    -0.173865987968E+04   -0.12217E-04   -0.12836E-04   720   0.243E-03 0.145E-04
CGA:  53    -0.173865989107E+04   -0.11396E-04   -0.10317E-04   720   0.201E-03-0.413E-04
CGA:  54    -0.173865922361E+04    0.66747E-03   -0.36909E-03   720   0.281E-01-0.201E-02
CGA:  55    -0.173865976314E+04   -0.53953E-03   -0.60896E-03   720   0.336E-02 0.847E-03
CGA:  56    -0.173865987709E+04   -0.11395E-03   -0.12255E-03   720   0.477E-03 0.168E-03
CGA:  57    -0.173865990433E+04   -0.27237E-04   -0.26169E-04   720   0.361E-03-0.187E-04
CGA:  58    -0.173865991682E+04   -0.12495E-04   -0.18211E-04   720   0.200E-03 0.996E-04
CGA:  59    -0.173865992849E+04   -0.11669E-04   -0.11134E-04   720   0.108E-03-0.928E-05
CGA:  60    -0.173865993439E+04   -0.58964E-05   -0.54293E-05   720   0.475E-04-0.949E-05
  17 F= -.17386599E+04 E0= -.17386362E+04  d E =0.431788E+01  mag=    46.0000
       N       E                     dE             d eps       ncg     rms          ort
SDA:   1    -0.172177753584E+04    0.16882E+02    0.00000E+00   720   0.611E+02 0.000E+00
CGA:   2    -0.173225306840E+04   -0.10476E+02   -0.92433E+01   720   0.797E+02 0.168E+02
CGA:   3    -0.173773462557E+04   -0.54816E+01   -0.68857E+01   720   0.374E+02 0.419E+01
CGA:   4    -0.173964506330E+04   -0.19104E+01   -0.13080E+01   720   0.185E+02 0.653E+01
CGA:   5    -0.174030799728E+04   -0.66293E+00   -0.61677E+00   720   0.223E+02 0.530E+00
CGA:   6    -0.174075979898E+04   -0.45180E+00   -0.50658E+00   720   0.340E+02-0.108E+02
CGA:   7    -0.174062620737E+04    0.13359E+00   -0.24784E+00   720   0.848E+02-0.236E+02
CGA:   8    -0.174159495229E+04   -0.96874E+00   -0.36785E+01   720   0.130E+02-0.778E+01
CGA:   9    -0.174195623546E+04   -0.36128E+00   -0.35090E+00   720   0.343E+01-0.255E+00
CGA:  10    -0.174208935110E+04   -0.13312E+00   -0.72433E-01   720   0.231E+01 0.276E+01
CGA:  11    -0.174221711353E+04   -0.12776E+00   -0.10456E+00   720   0.133E+01 0.271E+00
CGA:  12    -0.174228919892E+04   -0.72085E-01   -0.64446E-01   720   0.271E+01 0.748E-01
CGA:  13    -0.174247922631E+04   -0.19003E+00   -0.18995E+00   720   0.624E+01 0.297E-02
CGA:  14    -0.174262871657E+04   -0.14949E+00   -0.17655E+00   720   0.274E+01-0.583E+00
CGA:  15    -0.174267429948E+04   -0.45583E-01   -0.50620E-01   720   0.942E+00-0.243E+00
CGA:  16    -0.174269870109E+04   -0.24402E-01   -0.22644E-01   720   0.563E+00 0.543E-01
CGA:  17    -0.174271595952E+04   -0.17258E-01   -0.16684E-01   720   0.555E+00 0.260E-01
CGA:  18    -0.174274138014E+04   -0.25421E-01   -0.25454E-01   720   0.932E+00-0.283E-03
CGA:  19    -0.174276933738E+04   -0.27957E-01   -0.27867E-01   720   0.647E+00-0.181E-01
CGA:  20    -0.174278222637E+04   -0.12889E-01   -0.12522E-01   720   0.229E+00-0.136E-01
CGA:  21    -0.174278706667E+04   -0.48403E-02   -0.46951E-02   720   0.113E+00-0.172E-02
CGA:  22    -0.174279002254E+04   -0.29559E-02   -0.29548E-02   720   0.112E+00 0.183E-02
CGA:  23    -0.174279504676E+04   -0.50242E-02   -0.50611E-02   720   0.220E+00 0.168E-02
CGA:  24    -0.174280284370E+04   -0.77969E-02   -0.77733E-02   720   0.177E+00-0.301E-02
CGA:  25    -0.174280657927E+04   -0.37356E-02   -0.36298E-02   720   0.710E-01-0.294E-02
CGA:  26    -0.174280841613E+04   -0.18369E-02   -0.18302E-02   720   0.527E-01 0.192E-04
CGA:  27    -0.174280972640E+04   -0.13103E-02   -0.13313E-02   720   0.327E-01 0.339E-02
CGA:  28    -0.174281050446E+04   -0.77806E-03   -0.82656E-03   720   0.235E-01 0.214E-02
CGA:  29    -0.174281138453E+04   -0.88007E-03   -0.89531E-03   720   0.320E-01 0.994E-03
CGA:  30    -0.174281257130E+04   -0.11868E-02   -0.11931E-02   720   0.343E-01 0.327E-03
CGA:  31    -0.174281354716E+04   -0.97586E-03   -0.99199E-03   720   0.250E-01 0.717E-03
CGA:  32    -0.174281409902E+04   -0.55186E-03   -0.57205E-03   720   0.103E-01 0.101E-02
CGA:  33    -0.174281432966E+04   -0.23064E-03   -0.23268E-03   720   0.509E-02 0.512E-04
CGA:  34    -0.174281453532E+04   -0.20566E-03   -0.19982E-03   720   0.702E-02-0.104E-02
CGA:  35    -0.174281478376E+04   -0.24843E-03   -0.24853E-03   720   0.132E-01-0.169E-02
CGA:  36    -0.174281512436E+04   -0.34060E-03   -0.33071E-03   720   0.157E-01-0.880E-03
CGA:  37    -0.174281542810E+04   -0.30374E-03   -0.31526E-03   720   0.720E-02 0.571E-03
CGA:  38    -0.174281554861E+04   -0.12052E-03   -0.13653E-03   720   0.370E-02 0.645E-03
CGA:  39    -0.174281565075E+04   -0.10214E-03   -0.10885E-03   720   0.410E-02 0.458E-03
CGA:  40    -0.174281579005E+04   -0.13930E-03   -0.14153E-03   720   0.430E-02 0.224E-03
SDA:  41    -0.174281591967E+04   -0.12962E-03   -0.13101E-03   720   0.533E-02 0.104E-03
CGA:  42    -0.174281612303E+04   -0.20336E-03   -0.20410E-03   720   0.149E-02 0.498E-03
CGA:  43    -0.174281623516E+04   -0.11213E-03   -0.11465E-03   720   0.184E-02-0.862E-04
CGA:  44    -0.174281639401E+04   -0.15885E-03   -0.15750E-03   720   0.267E-02 0.234E-04
CGA:  45    -0.174281652763E+04   -0.13362E-03   -0.13043E-03   720   0.872E-03 0.693E-03
CGA:  46    -0.174281658045E+04   -0.52827E-04   -0.52681E-04   720   0.522E-03 0.315E-04
CGA:  47    -0.174281661973E+04   -0.39273E-04   -0.51824E-04   720   0.149E-02-0.245E-03
CGA:  48    -0.174281666052E+04   -0.40792E-04   -0.43720E-04   720   0.193E-02-0.342E-03
CGA:  49    -0.174281670626E+04   -0.45740E-04   -0.40062E-04   720   0.844E-03-0.282E-03
CGA:  50    -0.174281673450E+04   -0.28247E-04   -0.25923E-04   720   0.489E-03-0.233E-03
CGA:  51    -0.174281674153E+04   -0.70238E-05   -0.82681E-05   720   0.347E-03 0.542E-04
  18 F= -.17428167E+04 E0= -.17427930E+04  d E =-.415681E+01  mag=    46.0000
       N       E                     dE             d eps       ncg     rms          ort
SDA:   1    -0.174182272671E+04    0.99401E+00    0.00000E+00   720   0.450E+01 0.000E+00
CGA:   2    -0.174206797487E+04   -0.24525E+00   -0.24029E+00   720   0.446E+01 0.319E+00
CGA:   3    -0.174257420587E+04   -0.50623E+00   -0.50468E+00   720   0.442E+01 0.375E-01
CGA:   4    -0.174278165283E+04   -0.20745E+00   -0.20714E+00   720   0.173E+01-0.303E+00
CGA:   5    -0.174283846501E+04   -0.56812E-01   -0.55143E-01   720   0.612E+00 0.107E-02
CGA:   6    -0.174288214564E+04   -0.43681E-01   -0.43631E-01   720   0.682E+00 0.176E-02
CGA:   7    -0.174291752075E+04   -0.35375E-01   -0.35445E-01   720   0.378E+00-0.835E-02
CGA:   8    -0.174293129993E+04   -0.13779E-01   -0.13782E-01   720   0.748E-01 0.694E-02
CGA:   9    -0.174293540925E+04   -0.41093E-02   -0.41142E-02   720   0.672E-01-0.127E-02
CGA:  10    -0.174293994216E+04   -0.45329E-02   -0.45684E-02   720   0.695E-01-0.162E-02
CGA:  11    -0.174294332719E+04   -0.33850E-02   -0.33826E-02   720   0.249E-01 0.232E-02
CGA:  12    -0.174294462258E+04   -0.12954E-02   -0.12983E-02   720   0.150E-01-0.193E-02
CGA:  13    -0.174294536110E+04   -0.73851E-03   -0.74061E-03   720   0.124E-01-0.488E-03
CGA:  14    -0.174294636766E+04   -0.10066E-02   -0.10129E-02   720   0.130E-01-0.192E-03
CGA:  15    -0.174294704021E+04   -0.67256E-03   -0.67857E-03   720   0.746E-02-0.280E-02
CGA:  16    -0.174294726544E+04   -0.22523E-03   -0.23038E-03   720   0.255E-02 0.426E-03
CGA:  17    -0.174294738667E+04   -0.12122E-03   -0.12376E-03   720   0.225E-02 0.576E-03
CGA:  18    -0.174294762904E+04   -0.24237E-03   -0.33333E-03   720   0.779E-02-0.129E-02
CGA:  19    -0.174294779233E+04   -0.16329E-03   -0.18558E-03   720   0.699E-03 0.764E-03
CGA:  20    -0.174294783626E+04   -0.43932E-04   -0.43844E-04   720   0.531E-03 0.187E-04
CGA:  21    -0.174294783298E+04    0.32763E-05   -0.97345E-04   720   0.481E-02-0.802E-03
CGA:  22    -0.174294793972E+04   -0.10674E-03   -0.12688E-03   720   0.614E-03 0.608E-03
CGA:  23    -0.174294797514E+04   -0.35417E-04   -0.35389E-04   720   0.201E-03-0.771E-05
CGA:  24    -0.174294798903E+04   -0.13892E-04   -0.17526E-04   720   0.577E-03-0.117E-03
CGA:  25    -0.174294800290E+04   -0.13870E-04   -0.16517E-04   720   0.119E-03 0.869E-04
CGA:  26    -0.174294793900E+04    0.63895E-04   -0.35850E-04   720   0.286E-02-0.361E-03
CGA:  27    -0.174294805159E+04   -0.11258E-03   -0.12285E-03   720   0.476E-03 0.159E-03
CGA:  28    -0.174294807716E+04   -0.25573E-04   -0.20827E-04   720   0.890E-04-0.855E-04
CGA:  29    -0.174294807681E+04    0.34846E-06   -0.23483E-05   720   0.501E-04 0.408E-04
  19 F= -.17429481E+04 E0= -.17429241E+04  d E =-.131335E+00  mag=    46.0000
       N       E                     dE             d eps       ncg     rms          ort
SDA:   1    -0.174244448895E+04    0.50359E+00    0.00000E+00   720   0.187E+01 0.000E+00
CGA:   2    -0.174256365864E+04   -0.11917E+00   -0.11692E+00   720   0.268E+01 0.365E-02
CGA:   3    -0.174287179179E+04   -0.30813E+00   -0.30936E+00   720   0.102E+01-0.451E-01
CGA:   4    -0.174292148022E+04   -0.49688E-01   -0.47849E-01   720   0.385E+00 0.137E-01
CGA:   5    -0.174295611625E+04   -0.34636E-01   -0.34688E-01   720   0.278E+00 0.128E-01
CGA:   6    -0.174297327249E+04   -0.17156E-01   -0.17354E-01   720   0.155E+00 0.109E-02
CGA:   7    -0.174298113156E+04   -0.78591E-02   -0.79311E-02   720   0.560E-01 0.368E-02
CGA:   8    -0.174298432190E+04   -0.31903E-02   -0.31797E-02   720   0.313E-01-0.916E-03
CGA:   9    -0.174298662833E+04   -0.23064E-02   -0.23201E-02   720   0.240E-01 0.119E-02
CGA:  10    -0.174298839900E+04   -0.17707E-02   -0.17623E-02   720   0.111E-01-0.593E-03
CGA:  11    -0.174298899778E+04   -0.59878E-03   -0.59955E-03   720   0.449E-02 0.458E-04
CGA:  12    -0.174298962854E+04   -0.63076E-03   -0.84146E-03   720   0.179E-01-0.204E-02
CGA:  13    -0.174298990277E+04   -0.27423E-03   -0.27235E-03   720   0.834E-02-0.703E-04
CGA:  14    -0.174299002514E+04   -0.12238E-03   -0.15353E-03   720   0.235E-02 0.562E-03
CGA:  15    -0.174299007291E+04   -0.47769E-04   -0.66499E-04   720   0.183E-02 0.357E-03
CGA:  16    -0.174299016257E+04   -0.89657E-04   -0.95375E-04   720   0.302E-02 0.165E-03
CGA:  17    -0.174299034004E+04   -0.17747E-03   -0.17345E-03   720   0.423E-02-0.164E-03
CGA:  18    -0.174299044272E+04   -0.10268E-03   -0.96848E-04   720   0.166E-02-0.118E-03
CGA:  19    -0.174299047536E+04   -0.32642E-04   -0.31752E-04   720   0.642E-03-0.102E-04
CGA:  20    -0.174299049539E+04   -0.20023E-04   -0.18577E-04   720   0.605E-03-0.336E-04
CGA:  21    -0.174299052625E+04   -0.30863E-04   -0.28893E-04   720   0.120E-02-0.108E-03
CGA:  22    -0.174299055943E+04   -0.33180E-04   -0.31590E-04   720   0.121E-02-0.444E-04
CGA:  23    -0.174299057998E+04   -0.20550E-04   -0.24376E-04   720   0.649E-03 0.835E-04
CGA:  24    -0.174299058951E+04   -0.95342E-05   -0.14277E-04   720   0.400E-03 0.113E-03
CGA:  25    -0.174299059686E+04   -0.73453E-05   -0.10219E-04   720   0.219E-03 0.753E-04
  20 F= -.17429906E+04 E0= -.17429665E+04  d E =-.425200E-01  mag=    46.0000
       N       E                     dE             d eps       ncg     rms          ort
SDA:   1    -0.174285771137E+04    0.13288E+00    0.00000E+00   720   0.702E+00 0.000E+00
CGA:   2    -0.174289955222E+04   -0.41841E-01   -0.42089E-01   720   0.101E+01-0.682E-01
CGA:   3    -0.174300154220E+04   -0.10199E+00   -0.10191E+00   720   0.515E+00 0.113E-02
CGA:   4    -0.174302505797E+04   -0.23516E-01   -0.23523E-01   720   0.213E+00-0.231E-02
CGA:   5    -0.174303463724E+04   -0.95793E-02   -0.95501E-02   720   0.968E-01 0.440E-03
CGA:   6    -0.174304335702E+04   -0.87198E-02   -0.86961E-02   720   0.134E+00 0.638E-03
CGA:   7    -0.174304878016E+04   -0.54231E-02   -0.54325E-02   720   0.206E-01-0.485E-03
CGA:   8    -0.174304987825E+04   -0.10981E-02   -0.10953E-02   720   0.143E-01-0.338E-03
CGA:   9    -0.174305072088E+04   -0.84263E-03   -0.84257E-03   720   0.101E-01 0.302E-03
CGA:  10    -0.174305136646E+04   -0.64558E-03   -0.64357E-03   720   0.576E-02 0.729E-03
CGA:  11    -0.174305173426E+04   -0.36780E-03   -0.36772E-03   720   0.367E-02-0.825E-03
CGA:  12    -0.174305193008E+04   -0.19581E-03   -0.19669E-03   720   0.260E-02-0.320E-03
CGA:  13    -0.174305202882E+04   -0.98740E-04   -0.10737E-03   720   0.129E-02 0.588E-03
CGA:  14    -0.174305210793E+04   -0.79117E-04   -0.80679E-04   720   0.914E-03 0.199E-03
CGA:  15    -0.174305220283E+04   -0.94896E-04   -0.11442E-03   720   0.193E-02-0.393E-03
CGA:  16    -0.174305222457E+04   -0.21746E-04   -0.25489E-04   720   0.120E-02 0.956E-04
CGA:  17    -0.174305224193E+04   -0.17356E-04   -0.24270E-04   720   0.526E-03 0.173E-03
CGA:  18    -0.174305226066E+04   -0.18728E-04   -0.19669E-04   720   0.548E-03 0.367E-04
CGA:  19    -0.174305229178E+04   -0.31121E-04   -0.29504E-04   720   0.597E-03-0.284E-03
CGA:  20    -0.174305231405E+04   -0.22266E-04   -0.23416E-04   720   0.167E-03 0.694E-04
CGA:  21    -0.174305232556E+04   -0.11517E-04   -0.11285E-04   720   0.886E-04 0.416E-04
CGA:  22    -0.174305233547E+04   -0.99029E-05   -0.93650E-05   720   0.961E-04 0.182E-04
CGA:  23    -0.174305234563E+04   -0.10164E-04   -0.11711E-04   720   0.148E-03-0.348E-04
CGA:  24    -0.174305234868E+04   -0.30469E-05   -0.29509E-05   720   0.584E-04-0.374E-05
  21 F= -.17430523E+04 E0= -.17430285E+04  d E =-.617518E-01  mag=    46.0000
       N       E                     dE             d eps       ncg     rms          ort
SDA:   1    -0.174242112249E+04    0.63122E+00    0.00000E+00   720   0.212E+01 0.000E+00
CGA:   2    -0.174255417319E+04   -0.13305E+00   -0.17553E+00   720   0.743E+01-0.135E+01
CGA:   3    -0.174270850866E+04   -0.15434E+00   -0.24486E+00   720   0.133E+01-0.456E+00
CGA:   4    -0.174282173062E+04   -0.11322E+00   -0.18063E+00   720   0.675E+01-0.935E+00
CGA:   5    -0.174294306763E+04   -0.12134E+00   -0.20591E+00   720   0.720E+00-0.990E+00
CGA:   6    -0.174298030143E+04   -0.37234E-01   -0.37364E-01   720   0.540E+00-0.276E-01
CGA:   7    -0.174302922453E+04   -0.48923E-01   -0.50363E-01   720   0.950E+00-0.364E-01
CGA:   8    -0.174307989396E+04   -0.50669E-01   -0.50850E-01   720   0.931E-01 0.262E-01
CGA:   9    -0.174308336641E+04   -0.34725E-02   -0.34566E-02   720   0.185E-01 0.389E-02
CGA:  10    -0.174308516154E+04   -0.17951E-02   -0.19093E-02   720   0.495E-01-0.296E-02
CGA:  11    -0.174308866251E+04   -0.35010E-02   -0.34777E-02   720   0.198E-01 0.983E-03
CGA:  12    -0.174308915737E+04   -0.49486E-03   -0.53047E-03   720   0.405E-02 0.127E-02
CGA:  13    -0.174308940240E+04   -0.24503E-03   -0.24392E-03   720   0.465E-02-0.258E-03
CGA:  14    -0.174308978964E+04   -0.38724E-03   -0.40699E-03   720   0.777E-02-0.602E-03
CGA:  15    -0.174308999509E+04   -0.20545E-03   -0.22230E-03   720   0.338E-02 0.548E-03
CGA:  16    -0.174309012262E+04   -0.12754E-03   -0.13825E-03   720   0.256E-02 0.492E-03
CGA:  17    -0.174309025184E+04   -0.12921E-03   -0.12585E-03   720   0.123E-02-0.179E-03
CGA:  18    -0.174309032799E+04   -0.76154E-04   -0.80947E-04   720   0.226E-02-0.397E-03
CGA:  19    -0.174309037931E+04   -0.51314E-04   -0.55715E-04   720   0.204E-02 0.192E-03
CGA:  20    -0.174309043221E+04   -0.52907E-04   -0.64247E-04   720   0.107E-02 0.391E-03
CGA:  21    -0.174309047813E+04   -0.45917E-04   -0.45021E-04   720   0.396E-03-0.405E-04
CGA:  22    -0.174309036459E+04    0.11354E-03   -0.66065E-04   720   0.809E-02-0.153E-02
CGA:  23    -0.174309051247E+04   -0.14788E-03   -0.18428E-03   720   0.661E-03 0.965E-03
CGA:  24    -0.174309053270E+04   -0.20235E-04   -0.25812E-04   720   0.242E-03 0.228E-03
CGA:  25    -0.174309055145E+04   -0.18743E-04   -0.18604E-04   720   0.214E-03-0.112E-03
CGA:  26    -0.174309055311E+04   -0.16656E-05   -0.29648E-05   720   0.187E-03 0.400E-04
  22 F= -.17430906E+04 E0= -.17430672E+04  d E =-.382044E-01  mag=    46.0000
       N       E                     dE             d eps       ncg     rms          ort
SDA:   1    -0.174298379843E+04    0.10675E+00    0.00000E+00   720   0.348E+00 0.000E+00
CGA:   2    -0.174301068064E+04   -0.26882E-01   -0.26947E-01   720   0.546E+00-0.895E-04
CGA:   3    -0.174305083556E+04   -0.40155E-01   -0.40144E-01   720   0.248E+00 0.165E-02
CGA:   4    -0.174306297214E+04   -0.12137E-01   -0.12267E-01   720   0.940E-01 0.631E-02
CGA:   5    -0.174307088331E+04   -0.79112E-02   -0.79114E-02   720   0.696E-01-0.153E-03
CGA:   6    -0.174307530089E+04   -0.44176E-02   -0.44407E-02   720   0.502E-01-0.445E-02
CGA:   7    -0.174307762897E+04   -0.23281E-02   -0.23355E-02   720   0.159E-01 0.126E-02
CGA:   8    -0.174307857270E+04   -0.94373E-03   -0.94365E-03   720   0.621E-02-0.181E-02
CGA:   9    -0.174307900639E+04   -0.43369E-03   -0.43116E-03   720   0.435E-02 0.129E-03
CGA:  10    -0.174307940612E+04   -0.39973E-03   -0.40527E-03   720   0.287E-02-0.171E-03
CGA:  11    -0.174307956068E+04   -0.15456E-03   -0.14920E-03   720   0.203E-02-0.866E-03
CGA:  12    -0.174307959842E+04   -0.37744E-04   -0.50711E-04   720   0.849E-03 0.530E-03
CGA:  13    -0.174307961972E+04   -0.21296E-04   -0.32482E-04   720   0.561E-03 0.390E-03
CGA:  14    -0.174307967993E+04   -0.60205E-04   -0.59804E-04   720   0.792E-03 0.272E-04
CGA:  15    -0.174307972388E+04   -0.43954E-04   -0.43618E-04   720   0.831E-03-0.601E-04
CGA:  16    -0.174307973588E+04   -0.12000E-04   -0.19167E-04   720   0.482E-03 0.219E-03
CGA:  17    -0.174307974228E+04   -0.63971E-05   -0.13400E-04   720   0.281E-03 0.203E-03
CGA:  18    -0.174307975628E+04   -0.14005E-04   -0.15030E-04   720   0.267E-03 0.597E-04
CGA:  19    -0.174307977216E+04   -0.15882E-04   -0.26094E-04   720   0.838E-03-0.382E-03
CGA:  20    -0.174307978680E+04   -0.14636E-04   -0.22858E-04   720   0.236E-03 0.297E-03
CGA:  21    -0.174307980280E+04   -0.15998E-04   -0.16059E-04   720   0.941E-04 0.186E-04
CGA:  22    -0.174307981803E+04   -0.15233E-04    0.67625E-05   720   0.109E-03-0.251E-04
CGA:  23    -0.174307982282E+04   -0.47897E-05   -0.46635E-05   720   0.147E-03 0.269E-04
  23 F= -.17430798E+04 E0= -.17430566E+04  d E =0.107303E-01  mag=    46.0000
       N       E                     dE             d eps       ncg     rms          ort
SDA:   1    -0.174304881890E+04    0.30999E-01    0.00000E+00   720   0.148E+00 0.000E+00
CGA:   2    -0.174305791697E+04   -0.90981E-02   -0.90604E-02   720   0.161E+00 0.473E-02
CGA:   3    -0.174307396948E+04   -0.16053E-01   -0.15843E-01   720   0.108E+00 0.466E-02
CGA:   4    -0.174307893305E+04   -0.49636E-02   -0.49923E-02   720   0.365E-01 0.548E-02
[...]
CGA:  11    -0.174315155098E+04   -0.29574E-04   -0.30938E-04   720   0.239E-03 0.293E-04
CGA:  12    -0.174315151470E+04    0.36286E-04   -0.48193E-04   720   0.359E-02-0.786E-03
CGA:  13    -0.174315156140E+04   -0.46708E-04   -0.83331E-04   720   0.491E-03 0.523E-03
CGA:  14    -0.174315157116E+04   -0.97578E-05   -0.17768E-04   720   0.138E-03 0.148E-03
  89 F= -.17431516E+04 E0= -.17431241E+04  d E =-.196802E-04  mag=    46.0000
       N       E                     dE             d eps       ncg     rms          ort
SDA:   1    -0.174314635193E+04    0.52095E-02    0.00000E+00   720   0.185E+00 0.000E+00
CGA:   2    -0.174315004705E+04   -0.36951E-02   -0.38290E-02   720   0.683E-02-0.117E-01
CGA:   3    -0.174315037011E+04   -0.32306E-03   -0.34720E-03   720   0.430E-02 0.922E-03
CGA:   4    -0.174315077011E+04   -0.40000E-03   -0.40178E-03   720   0.613E-02-0.603E-03
CGA:   5    -0.174315097436E+04   -0.20425E-03   -0.22623E-03   720   0.188E-02 0.600E-03
CGA:   6    -0.174315108551E+04   -0.11115E-03   -0.11734E-03   720   0.107E-02 0.299E-03
CGA:   7    -0.174315115767E+04   -0.72164E-04   -0.64230E-04   720   0.134E-02-0.332E-03
CGA:   8    -0.174315119404E+04   -0.36371E-04   -0.39782E-04   720   0.807E-03 0.106E-03
CGA:   9    -0.174315120420E+04   -0.10161E-04   -0.19266E-04   720   0.334E-03 0.177E-03
CGA:  10    -0.174315121872E+04   -0.14514E-04   -0.15320E-04   720   0.155E-03 0.265E-04
CGA:  11    -0.174315123036E+04   -0.11641E-04   -0.11614E-04   720   0.690E-03-0.290E-03
CGA:  12    -0.174315123470E+04   -0.43410E-05   -0.12244E-04   720   0.889E-04 0.151E-03
  90 F= -.17431512E+04 E0= -.17431237E+04  d E =0.336462E-03  mag=    46.0000
       N       E                     dE             d eps       ncg     rms          ort
SDA:   1    -0.174148136551E+04    0.16699E+01    0.00000E+00   720   0.484E+01 0.000E+00
CGA:   2    -0.174238491133E+04   -0.90355E+00   -0.96332E+00   720   0.125E+02-0.556E+00
CGA:   3    -0.174269013206E+04   -0.30522E+00   -0.37133E+00   720   0.249E+01-0.997E+00
CGA:   4    -0.174285371472E+04   -0.16358E+00   -0.16467E+00   720   0.352E+01-0.280E+00
CGA:   5    -0.174301447931E+04   -0.16076E+00   -0.16261E+00   720   0.119E+01 0.920E-02
CGA:   6    -0.174307385849E+04   -0.59379E-01   -0.58384E-01   720   0.322E+00-0.161E-02
CGA:   7    -0.174309228109E+04   -0.18423E-01   -0.18330E-01   720   0.274E+00-0.491E-02
CGA:   8    -0.174310652889E+04   -0.14248E-01   -0.14133E-01   720   0.154E+00-0.349E-02
CGA:   9    -0.174311575681E+04   -0.92279E-02   -0.92226E-02   720   0.624E-01-0.276E-02
CGA:  10    -0.174311908021E+04   -0.33234E-02   -0.33482E-02   720   0.269E-01 0.105E-02
CGA:  11    -0.174312091792E+04   -0.18377E-02   -0.18397E-02   720   0.376E-01-0.137E-02
CGA:  12    -0.174312297677E+04   -0.20589E-02   -0.20744E-02   720   0.153E-01 0.211E-02
CGA:  13    -0.174312383755E+04   -0.86078E-03   -0.86057E-03   720   0.614E-02-0.113E-03
CGA:  14    -0.174312436692E+04   -0.52937E-03   -0.52488E-03   720   0.831E-02 0.206E-03
CGA:  15    -0.174312480125E+04   -0.43433E-03   -0.44770E-03   720   0.509E-02 0.961E-03
CGA:  16    -0.174312522230E+04   -0.42105E-03   -0.43400E-03   720   0.671E-02-0.116E-02
CGA:  17    -0.174312549783E+04   -0.27553E-03   -0.28400E-03   720   0.419E-02 0.807E-03
CGA:  18    -0.174312563703E+04   -0.13920E-03   -0.16169E-03   720   0.152E-02 0.733E-03
CGA:  19    -0.174312580298E+04   -0.16595E-03   -0.22821E-03   720   0.798E-02-0.973E-03
CGA:  20    -0.174312599347E+04   -0.19049E-03   -0.20846E-03   720   0.148E-02 0.544E-03
CGA:  21    -0.174312607762E+04   -0.84152E-04   -0.79313E-04   720   0.108E-02-0.329E-03
CGA:  22    -0.174312592482E+04    0.15281E-03   -0.11593E-03   720   0.116E-01-0.141E-02
CGA:  23    -0.174312629685E+04   -0.37204E-03   -0.38342E-03   720   0.274E-02 0.933E-05
CGA:  24    -0.174312636055E+04   -0.63696E-04   -0.85247E-04   720   0.720E-03 0.280E-03
CGA:  25    -0.174312642298E+04   -0.62428E-04   -0.63091E-04   720   0.655E-03 0.277E-04
CGA:  26    -0.174312645715E+04   -0.34175E-04   -0.38005E-04   720   0.491E-03 0.753E-04
CGA:  27    -0.174312647418E+04   -0.17029E-04   -0.22075E-04   720   0.263E-03 0.786E-04
CGA:  28    -0.174312650750E+04   -0.33325E-04   -0.38728E-04   720   0.655E-03-0.214E-03
CGA:  29    -0.174312651528E+04   -0.77791E-05   -0.18874E-04   720   0.137E-03 0.156E-03
  91 F= -.17431265E+04 E0= -.17430989E+04  d E =0.247194E-01  mag=    46.0000
       N       E                     dE             d eps       ncg     rms          ort
SDA:   1    -0.174202226137E+04    0.11042E+01    0.00000E+00   720   0.348E+01 0.000E+00
CGA:   2    -0.174254813475E+04   -0.52587E+00   -0.52946E+00   720   0.947E+01-0.547E-01
CGA:   3    -0.174282664914E+04   -0.27851E+00   -0.34243E+00   720   0.230E+01-0.125E+01
CGA:   4    -0.174294680126E+04   -0.12015E+00   -0.10528E+00   720   0.124E+01 0.136E+00
CGA:   5    -0.174307776134E+04   -0.13096E+00   -0.13101E+00   720   0.115E+01-0.784E-02
CGA:   6    -0.174311399179E+04   -0.36230E-01   -0.37412E-01   720   0.216E+00-0.196E-01
CGA:   7    -0.174312758404E+04   -0.13592E-01   -0.13552E-01   720   0.151E+00-0.540E-03
CGA:   8    -0.174313822114E+04   -0.10637E-01   -0.10697E-01   720   0.787E-01 0.399E-02
CGA:   9    -0.174314221314E+04   -0.39920E-02   -0.39639E-02   720   0.406E-01-0.708E-03
CGA:  10    -0.174314448404E+04   -0.22709E-02   -0.22702E-02   720   0.195E-01 0.533E-03
CGA:  11    -0.174314568661E+04   -0.12026E-02   -0.12039E-02   720   0.150E-01-0.525E-04
CGA:  12    -0.174314693590E+04   -0.12493E-02   -0.12495E-02   720   0.888E-02 0.220E-03
CGA:  13    -0.174314743544E+04   -0.49954E-03   -0.44745E-03   720   0.761E-02-0.149E-02
CGA:  14    -0.174314783857E+04   -0.40313E-03   -0.41082E-03   720   0.294E-02 0.485E-03
CGA:  15    -0.174314809129E+04   -0.25273E-03   -0.25264E-03   720   0.384E-02-0.101E-03
CGA:  16    -0.174314836870E+04   -0.27740E-03   -0.27357E-03   720   0.505E-02-0.490E-03
CGA:  17    -0.174314861253E+04   -0.24384E-03   -0.23807E-03   720   0.173E-02-0.214E-03
CGA:  18    -0.174314870570E+04   -0.93161E-04   -0.91543E-04   720   0.136E-02-0.577E-04
CGA:  19    -0.174314880376E+04   -0.98063E-04   -0.98089E-04   720   0.212E-02 0.576E-05
CGA:  20    -0.174314893746E+04   -0.13370E-03   -0.13308E-03   720   0.114E-02-0.431E-04
CGA:  21    -0.174314897634E+04   -0.38885E-04   -0.47627E-04   720   0.376E-03 0.254E-03
CGA:  22    -0.174314899584E+04   -0.19499E-04   -0.21889E-04   720   0.324E-03 0.849E-04
CGA:  23    -0.174314903644E+04   -0.40598E-04   -0.55750E-04   720   0.140E-02-0.230E-03
CGA:  24    -0.174314906511E+04   -0.28673E-04   -0.38421E-04   720   0.243E-03 0.194E-03
CGA:  25    -0.174314908013E+04   -0.15024E-04   -0.14213E-04   720   0.161E-03-0.340E-04
CGA:  26    -0.174314909018E+04   -0.10042E-04   -0.10034E-04   720   0.170E-03-0.520E-05
CGA:  27    -0.174314909893E+04   -0.87532E-05   -0.96703E-05   720   0.131E-03 0.606E-04
  92 F= -.17431491E+04 E0= -.17431215E+04  d E =-.225836E-01  mag=    46.0000
       N       E                     dE             d eps       ncg     rms          ort
SDA:   1    -0.174314333852E+04    0.57517E-02    0.00000E+00   720   0.772E-01 0.000E+00
CGA:   2    -0.174314557955E+04   -0.22410E-02   -0.22678E-02   720   0.208E-01-0.440E-03
CGA:   3    -0.174314663197E+04   -0.10524E-02   -0.10752E-02   720   0.138E-01 0.143E-02
CGA:   4    -0.174314789508E+04   -0.12631E-02   -0.12894E-02   720   0.126E-01-0.142E-02
CGA:   5    -0.174314839350E+04   -0.49842E-03   -0.52265E-03   720   0.417E-02 0.112E-02
CGA:   6    -0.174314870255E+04   -0.30905E-03   -0.30926E-03   720   0.479E-02 0.449E-03
CGA:   7    -0.174314898740E+04   -0.28485E-03   -0.28000E-03   720   0.149E-02-0.328E-03
CGA:   8    -0.174314904825E+04   -0.60854E-04   -0.66739E-04   720   0.654E-03 0.296E-03
CGA:   9    -0.174314908438E+04   -0.36129E-04   -0.37894E-04   720   0.315E-03 0.988E-04
CGA:  10    -0.174314909668E+04   -0.12304E-04   -0.15372E-04   720   0.112E-03 0.132E-03
CGA:  11    -0.174314891099E+04    0.18569E-03   -0.10063E-03   720   0.681E-02-0.713E-03
CGA:  12    -0.174314907395E+04   -0.16296E-03   -0.19153E-03   720   0.817E-03 0.472E-03
CGA:  13    -0.174314910617E+04   -0.32222E-04   -0.33715E-04   720   0.242E-03 0.206E-04
CGA:  14    -0.174314912676E+04   -0.20581E-04   -0.17741E-04   720   0.271E-03-0.742E-04
CGA:  15    -0.174314913393E+04   -0.71767E-05   -0.88601E-05   720   0.111E-03 0.278E-04
  93 F= -.17431491E+04 E0= -.17431215E+04  d E =-.350029E-04  mag=    46.0000
       N       E                     dE             d eps       ncg     rms          ort
SDA:   1    -0.174314711186E+04    0.20149E-02    0.00000E+00   720   0.260E-01 0.000E+00
CGA:   2    -0.174314784872E+04   -0.73686E-03   -0.76683E-03   720   0.744E-02-0.696E-04
CGA:   3    -0.174314825494E+04   -0.40621E-03   -0.42109E-03   720   0.403E-02 0.288E-03
CGA:   4    -0.174314863612E+04   -0.38118E-03   -0.37979E-03   720   0.473E-02-0.327E-03
CGA:   5    -0.174314886616E+04   -0.23004E-03   -0.24353E-03   720   0.130E-02 0.367E-03
CGA:   6    -0.174314893045E+04   -0.64293E-04   -0.74660E-04   720   0.665E-03 0.272E-03
CGA:   7    -0.174314899605E+04   -0.65596E-04   -0.59913E-04   720   0.102E-02-0.335E-03
CGA:   8    -0.174314900525E+04   -0.92028E-05   -0.22274E-04   720   0.165E-03 0.190E-03
CGA:   9    -0.174314901747E+04   -0.12223E-04   -0.11631E-04   720   0.178E-03-0.212E-04
CGA:  10    -0.174314905045E+04   -0.32972E-04    0.27518E-04   720   0.378E-03-0.137E-03
CGA:  11    -0.174314904969E+04    0.75284E-06   -0.75673E-05   720   0.891E-04 0.127E-03
  94 F= -.17431490E+04 E0= -.17431214E+04  d E =0.842389E-04  mag=    46.0000
       N       E                     dE             d eps       ncg     rms          ort
SDA:   1    -0.174314432977E+04    0.47207E-02    0.00000E+00   720   0.619E-01 0.000E+00
CGA:   2    -0.174314562403E+04   -0.12943E-02   -0.14281E-02   720   0.119E-01 0.120E-02
CGA:   3    -0.174314711536E+04   -0.14913E-02   -0.14522E-02   720   0.651E-02 0.863E-03
CGA:   4    -0.174314754259E+04   -0.42723E-03   -0.43045E-03   720   0.628E-02 0.204E-03
CGA:   5    -0.174314781655E+04   -0.27396E-03   -0.29386E-03   720   0.253E-02 0.648E-03
CGA:   6    -0.174314798090E+04   -0.16435E-03   -0.16980E-03   720   0.143E-02 0.364E-03
CGA:   7    -0.174314812805E+04   -0.14714E-03   -0.17663E-03   720   0.350E-02-0.918E-03
CGA:   8    -0.174314820016E+04   -0.72116E-04   -0.87115E-04   720   0.412E-03 0.277E-03
CGA:   9    -0.174314821139E+04   -0.11226E-04   -0.15428E-04   720   0.149E-03 0.107E-03
CGA:  10    -0.174314786562E+04    0.34576E-03   -0.18701E-03   720   0.109E-01-0.110E-02
CGA:  11    -0.174314816792E+04   -0.30230E-03   -0.34453E-03   720   0.171E-02 0.595E-03
CGA:  12    -0.174314825898E+04   -0.91057E-04   -0.85335E-04   720   0.518E-03-0.740E-04
CGA:  13    -0.174314827596E+04   -0.16983E-04   -0.16953E-04   720   0.140E-03 0.339E-05
CGA:  14    -0.174314827624E+04   -0.27928E-06   -0.52969E-05   720   0.466E-04 0.626E-04
  95 F= -.17431483E+04 E0= -.17431206E+04  d E =0.773451E-03  mag=    46.0000
       N       E                     dE             d eps       ncg     rms          ort
SDA:   1    -0.174313828090E+04    0.99951E-02    0.00000E+00   720   0.429E-01 0.000E+00
CGA:   2    -0.174314032388E+04   -0.20430E-02   -0.20729E-02   720   0.475E-01 0.512E-03
CGA:   3    -0.174314446288E+04   -0.41390E-02   -0.41797E-02   720   0.194E-01 0.188E-02
CGA:   4    -0.174314549512E+04   -0.10322E-02   -0.10543E-02   720   0.106E-01 0.592E-04
CGA:   5    -0.174314634401E+04   -0.84890E-03   -0.83892E-03   720   0.113E-01-0.379E-03
CGA:   6    -0.174314680554E+04   -0.46153E-03   -0.50181E-03   720   0.402E-02 0.750E-03
CGA:   7    -0.174314705884E+04   -0.25330E-03   -0.22266E-03   720   0.201E-02-0.728E-03
CGA:   8    -0.174314714827E+04   -0.89427E-04   -0.93793E-04   720   0.721E-03 0.116E-03
CGA:   9    -0.174314719260E+04   -0.44336E-04   -0.42771E-04   720   0.639E-03-0.412E-04
CGA:  10    -0.174314724677E+04   -0.54166E-04   -0.52390E-04   720   0.727E-03-0.285E-03
CGA:  11    -0.174314726252E+04   -0.15750E-04   -0.15573E-04   720   0.310E-03-0.251E-05
CGA:  12    -0.174314727052E+04   -0.79980E-05   -0.10458E-04   720   0.173E-03 0.426E-04
CGA:  13    -0.174314728129E+04   -0.10770E-04   -0.10081E-04   720   0.125E-03-0.195E-04
CGA:  14    -0.174314729129E+04   -0.99976E-05   -0.10441E-04   720   0.285E-03-0.535E-04
  96 F= -.17431473E+04 E0= -.17431196E+04  d E =0.984955E-03  mag=    46.0000
       N       E                     dE             d eps       ncg     rms          ort
SDA:   1    -0.174294114617E+04    0.20614E+00    0.00000E+00   720   0.911E+00 0.000E+00
CGA:   2    -0.174300081040E+04   -0.59664E-01   -0.60458E-01   720   0.893E+00 0.538E-02
CGA:   3    -0.174307122241E+04   -0.70412E-01   -0.70468E-01   720   0.704E+00 0.158E-01
CGA:   4    -0.174310457356E+04   -0.33351E-01   -0.33458E-01   720   0.345E+00-0.170E-02
CGA:   5    -0.174312301653E+04   -0.18443E-01   -0.18796E-01   720   0.154E+00 0.196E-02
CGA:   6    -0.174313346043E+04   -0.10444E-01   -0.10423E-01   720   0.116E+00 0.521E-03
CGA:   7    -0.174313927704E+04   -0.58166E-02   -0.57453E-02   720   0.669E-01-0.676E-03
CGA:   8    -0.174314220144E+04   -0.29244E-02   -0.29231E-02   720   0.124E-01-0.259E-02
CGA:   9    -0.174314306432E+04   -0.86288E-03   -0.86363E-03   720   0.103E-01 0.349E-03
CGA:  10    -0.174314384838E+04   -0.78406E-03   -0.78259E-03   720   0.934E-02-0.130E-02
CGA:  11    -0.174314417472E+04   -0.32634E-03   -0.31840E-03   720   0.317E-02-0.197E-03
CGA:  12    -0.174314436646E+04   -0.19173E-03   -0.19710E-03   720   0.142E-02 0.557E-03
CGA:  13    -0.174314446608E+04   -0.99622E-04   -0.95109E-04   720   0.207E-02-0.286E-03
CGA:  14    -0.174314455840E+04   -0.92317E-04   -0.95190E-04   720   0.165E-02 0.202E-03
CGA:  15    -0.174314459241E+04   -0.34009E-04   -0.51601E-04   720   0.898E-03 0.408E-03
CGA:  16    -0.174314463595E+04   -0.43540E-04   -0.48639E-04   720   0.601E-03 0.197E-03
CGA:  17    -0.174314468698E+04   -0.51035E-04   -0.53831E-04   720   0.165E-02-0.488E-03
CGA:  18    -0.174314471164E+04   -0.24662E-04   -0.37061E-04   720   0.309E-03 0.268E-03
CGA:  19    -0.174314473378E+04   -0.22135E-04   -0.22292E-04   720   0.286E-03 0.444E-04
CGA:  20    -0.174314475006E+04   -0.16285E-04   -0.37269E-04   720   0.199E-02-0.433E-03
CGA:  21    -0.174314477838E+04   -0.28321E-04   -0.42366E-04   720   0.273E-03 0.301E-03
CGA:  22    -0.174314479163E+04   -0.13247E-04   -0.14548E-04   720   0.168E-03 0.673E-04
CGA:  23    -0.174314480239E+04   -0.10759E-04   -0.20370E-04   720   0.987E-03-0.297E-03
CGA:  24    -0.174314481423E+04   -0.11840E-04   -0.20682E-04   720   0.166E-03 0.193E-03
CGA:  25    -0.174314482091E+04   -0.66806E-05   -0.80518E-05   720   0.123E-03 0.588E-04
CGA:  26    -0.174314483199E+04   -0.11075E-04   -0.12980E-04   720   0.352E-03-0.125E-03
CGA:  27    -0.174314483595E+04   -0.39625E-05   -0.82562E-05   720   0.104E-03 0.107E-03
  97 F= -.17431448E+04 E0= -.17431169E+04  d E =0.245534E-02  mag=    46.0000
       N       E                     dE             d eps       ncg     rms          ort
SDA:   1    -0.174308878219E+04    0.56050E-01    0.00000E+00   720   0.315E+00 0.000E+00
CGA:   2    -0.174309877796E+04   -0.99958E-02   -0.99442E-02   720   0.171E+00 0.102E-01
CGA:   3    -0.174313134341E+04   -0.32565E-01   -0.33008E-01   720   0.129E+00-0.369E-02
CGA:   4    -0.174313639958E+04   -0.50562E-02   -0.49314E-02   720   0.683E-01-0.175E-02
CGA:   5    -0.174314020036E+04   -0.38008E-02   -0.38014E-02   720   0.344E-01-0.633E-03
CGA:   6    -0.174314303106E+04   -0.28307E-02   -0.28208E-02   720   0.114E-01 0.625E-03
CGA:   7    -0.174314381386E+04   -0.78280E-03   -0.78639E-03   720   0.109E-01-0.135E-02
CGA:   8    -0.174314412653E+04   -0.31267E-03   -0.34449E-03   720   0.371E-02 0.111E-02
CGA:   9    -0.174314433477E+04   -0.20825E-03   -0.21231E-03   720   0.239E-02 0.376E-03
CGA:  10    -0.174314451398E+04   -0.17921E-03   -0.18992E-03   720   0.497E-02-0.120E-02
CGA:  11    -0.174314458696E+04   -0.72975E-04   -0.10086E-03   720   0.561E-03 0.647E-03
CGA:  12    -0.174314462226E+04   -0.35298E-04   -0.35504E-04   720   0.571E-03 0.361E-04
CGA:  13    -0.174314462605E+04   -0.37941E-05   -0.87496E-04   720   0.505E-02-0.101E-02
CGA:  14    -0.174314469929E+04   -0.73245E-04   -0.10456E-03   720   0.618E-03 0.706E-03
CGA:  15    -0.174314472659E+04   -0.27292E-04   -0.29422E-04   720   0.233E-03 0.100E-03
CGA:  16    -0.174314473153E+04   -0.49415E-05   -0.27088E-04   720   0.193E-02-0.581E-03
CGA:  17    -0.174314474757E+04   -0.16039E-04   -0.34552E-04   720   0.205E-03 0.401E-03
CGA:  18    -0.174314474910E+04   -0.15348E-05   -0.54681E-05   720   0.112E-03 0.994E-04
  98 F= -.17431447E+04 E0= -.17431170E+04  d E =0.868474E-04  mag=    46.0000
       N       E                     dE             d eps       ncg     rms          ort
SDA:   1    -0.174310532029E+04    0.39427E-01    0.00000E+00   720   0.161E+00 0.000E+00
CGA:   2    -0.174311483119E+04   -0.95109E-02   -0.95114E-02   720   0.217E+00 0.286E-02
CGA:   3    -0.174313222959E+04   -0.17398E-01   -0.17642E-01   720   0.130E+00-0.102E-01
CGA:   4    -0.174314118477E+04   -0.89552E-02   -0.89866E-02   720   0.519E-01-0.333E-02
CGA:   5    -0.174314296220E+04   -0.17774E-02   -0.18477E-02   720   0.252E-01 0.266E-02
CGA:   6    -0.174314501451E+04   -0.20523E-02   -0.20433E-02   720   0.190E-01 0.376E-03
CGA:   7    -0.174314614947E+04   -0.11350E-02   -0.11365E-02   720   0.421E-02 0.107E-02
CGA:   8    -0.174314632985E+04   -0.18039E-03   -0.18470E-03   720   0.178E-02 0.242E-03
CGA:   9    -0.174314642266E+04   -0.92802E-04   -0.98355E-04   720   0.125E-02 0.782E-03
CGA:  10    -0.174314659590E+04   -0.17324E-03   -0.19729E-03   720   0.199E-02-0.479E-03
CGA:  11    -0.174314661695E+04   -0.21050E-04   -0.29831E-04   720   0.104E-02 0.235E-03
CGA:  12    -0.174314662472E+04   -0.77755E-05   -0.19797E-04   720   0.349E-03 0.287E-03
  99 F= -.17431466E+04 E0= -.17431188E+04  d E =-.187562E-02  mag=    46.0000
       N       E                     dE             d eps       ncg     rms          ort
SDA:   1    -0.174312902042E+04    0.17597E-01    0.00000E+00   720   0.170E+00 0.000E+00
CGA:   2    -0.174313456069E+04   -0.55403E-02   -0.56072E-02   720   0.547E-01 0.754E-02
CGA:   3    -0.174313980295E+04   -0.52423E-02   -0.52454E-02   720   0.730E-01-0.214E-03
CGA:   4    -0.174314260185E+04   -0.27989E-02   -0.27979E-02   720   0.178E-01-0.307E-03
CGA:   5    -0.174314497354E+04   -0.23717E-02   -0.26044E-02   720   0.313E-01-0.252E-02
CGA:   6    -0.174314603474E+04   -0.10612E-02   -0.10812E-02   720   0.122E-01 0.955E-03
CGA:   7    -0.174314653922E+04   -0.50448E-03   -0.49484E-03   720   0.288E-02-0.292E-03
CGA:   8    -0.174314675527E+04   -0.21605E-03   -0.25087E-03   720   0.501E-02-0.112E-02
CGA:   9    -0.174314682211E+04   -0.66847E-04   -0.80620E-04   720   0.281E-02 0.413E-03
CGA:  10    -0.174314686780E+04   -0.45683E-04   -0.65570E-04   720   0.125E-02 0.572E-03
CGA:  11    -0.174314690935E+04   -0.41550E-04   -0.44305E-04   720   0.716E-03 0.111E-03
CGA:  12    -0.174314695170E+04   -0.42350E-04   -0.41754E-04   720   0.115E-02-0.433E-03
CGA:  13    -0.174314696844E+04   -0.16747E-04   -0.25566E-04   720   0.233E-03 0.270E-03
CGA:  14    -0.174314698472E+04   -0.16274E-04   -0.16321E-04   720   0.228E-03-0.135E-04
CGA:  15    -0.174314698466E+04    0.59968E-07   -0.26488E-04   720   0.158E-02-0.380E-03
CGA:  16    -0.174314700176E+04   -0.17101E-04   -0.31450E-04   720   0.256E-03 0.390E-03
CGA:  17    -0.174314700768E+04   -0.59220E-05   -0.86729E-05   720   0.101E-03 0.991E-04
 100 F= -.17431470E+04 E0= -.17431192E+04  d E =-.382959E-03  mag=    46.0000
